Protein in INSANE! Membrane UpperLeaflet>POPC=1.0 LowerLeaflet>POPC=1.0
248706
    1AU     AUC    1  28.017  22.693   7.535
    1AU     AUC    2  28.269  22.698   7.369
    1AU     AUC    3  28.258  22.685   7.699
    1AU     AUC    4  27.747  22.701   7.380
    1AU     AUC    5  27.773  22.730   7.705
    1AU     AUC    6  27.856  22.946   7.513
    1AU     AUC    7  28.203  22.958   7.516
    1AU     AUC    8  27.838  22.439   7.543
    1AU     AUC    9  28.169  22.417   7.545
    1AU     AUC   10  28.011  22.533   7.798
    1AU     AUC   11  28.030  22.873   7.779
    1AU     AUC   12  28.004  22.520   7.287
    1AU     AUC   13  28.024  22.826   7.271
    1AU     AUC   14  28.572  22.689   7.204
    1AU     AUC   15  28.580  22.669   7.545
    1AU     AUC   16  28.538  22.656   7.899
    1AU     AUC   17  27.445  22.675   7.228
    1AU     AUC   18  27.444  22.734   7.556
    1AU     AUC   19  27.473  22.773   7.888
    1AU     AUC   20  27.691  23.259   7.474
    1AU     AUC   21  28.051  23.233   7.457
    1AU     AUC   22  28.417  23.221   7.487
    1AU     AUC   23  27.634  22.150   7.548
    1AU     AUC   24  27.985  22.126   7.529
    1AU     AUC   25  28.341  22.115   7.546
    1AU     AUC   26  27.970  22.367   8.101
    1AU     AUC   27  28.007  22.709   8.101
    1AU     AUC   28  28.064  23.073   8.062
    1AU     AUC   29  28.035  22.330   6.997
    1AU     AUC   30  27.983  22.671   6.973
    1AU     AUC   31  27.980  22.994   6.957
    1AU     AUC   32  28.252  22.471   8.012
    1AU     AUC   33  28.308  22.847   7.987
    1AU     AUC   34  28.307  22.533   7.072
    1AU     AUC   35  28.272  22.845   7.079
    1AU     AUC   36  27.718  22.591   8.000
    1AU     AUC   37  27.765  22.941   7.971
    1AU     AUC   38  27.729  22.490   7.103
    1AU     AUC   39  27.683  22.818   7.083
    1AU     AUC   40  28.510  22.961   7.346
    1AU     AUC   41  28.476  22.958   7.705
    1AU     AUC   42  27.551  22.973   7.383
    1AU     AUC   43  27.596  23.039   7.713
    1AU     AUC   44  28.473  22.410   7.407
    1AU     AUC   45  28.421  22.364   7.739
    1AU     AUC   46  27.552  22.387   7.373
    1AU     AUC   47  27.578  22.461   7.716
    1AU     AUC   48  27.916  23.191   7.782
    1AU     AUC   49  28.255  23.146   7.793
    1AU     AUC   50  27.803  22.258   7.817
    1AU     AUC   51  28.121  22.205   7.809
    1AU     AUC   52  27.826  23.124   7.215
    1AU     AUC   53  28.191  23.140   7.226
    1AU     AUC   54  27.857  22.226   7.258
    1AU     AUC   55  28.217  22.271   7.274
    1AU    AUSL   56  28.516  22.561   8.316
    1AU    AUSL   57  28.266  22.188   8.222
    1AU     AUL   58  28.573  22.189   8.389
    1AU    AUSL   59  28.101  22.503   8.460
    1AU    AUSL   60  27.863  22.912   8.451
    1AU     AUL   61  28.099  22.787   8.710
    1AU    AUSL   62  28.200  22.860   8.204
    1AU    AUSL   63  28.651  22.919   8.126
    1AU     AUL   64  28.469  22.884   8.435
    1AU    AUSL   65  28.424  22.721   6.840
    1AU    AUSL   66  28.285  23.117   6.981
    1AU     AUL   67  28.499  23.049   6.681
    1AU    AUSL   68  28.236  22.399   6.612
    1AU    AUSL   69  28.743  22.469   6.982
    1AU     AUL   70  28.611  22.543   6.665
    1AU    AUSL   71  28.068  22.903   6.670
    1AU    AUSL   72  27.890  22.517   6.829
    1AU     AUL   73  28.021  22.596   6.524
    1AU    AUSL   74  27.479  22.874   8.243
    1AU    AUSL   75  27.842  23.183   8.111
    1AU     AUL   76  27.679  23.151   8.412
    1AU    AUSL   77  27.780  22.561   8.191
    1AU    AUSL   78  27.331  22.484   8.105
    1AU     AUL   79  27.388  22.573   8.341
    1AU    AUSL   80  27.454  22.499   6.795
    1AU    AUSL   81  27.703  22.149   6.947
    1AU     AUL   82  27.727  22.235   6.641
    1AU    AUSL   83  27.640  22.867   6.675
    1AU    AUSL   84  27.360  22.848   7.050
    1AU     AUL   85  27.243  22.729   6.776
    1AU    AUSL   86  28.808  23.156   7.476
    1AU    AUSL   87  28.683  22.946   7.096
    1AU     AUL   88  28.978  23.151   7.128
    1AU    AUSL   89  28.973  22.760   7.367
    1AU    AUSL   90  28.922  22.462   7.768
    1AU     AUL   91  29.184  22.546   7.571
    1AU    AUSL   92  28.695  22.815   7.718
    1AU    AUSL   93  28.653  23.259   7.853
    1AU     AUL   94  28.901  22.999   7.878
    1AU    AUSL   95  27.442  23.336   7.522
    1AU    AUSL   96  27.479  23.088   7.878
    1AU     AUL   97  27.170  23.333   7.745
    1AU    AUSL   98  27.241  22.957   7.444
    1AU    AUSL   99  27.394  23.273   7.106
    1AU     AUL  100  27.158  23.198   7.263
    1AU    AUSL  101  27.114  22.879   7.888
    1AU    AUSL  102  27.081  22.573   7.349
    1AU     AUL  103  26.959  22.890   7.590
    1AU    AUSL  104  28.700  22.113   7.615
    1AU    AUSL  105  28.526  22.396   7.925
    1AU     AUL  106  28.833  22.302   8.001
    1AU    AUSL  107  28.658  22.483   7.397
    1AU    AUSL  108  28.648  22.081   7.188
    1AU     AUL  109  28.892  22.291   7.250
    1AU    AUSL  110  27.234  22.194   7.553
    1AU    AUSL  111  27.445  22.404   7.205
    1AU     AUL  112  27.095  22.297   7.213
    1AU    AUSL  113  27.351  22.595   7.694
    1AU    AUSL  114  27.541  22.211   7.849
    1AU     AUL  115  27.160  22.364   7.848
    1AU    AUSL  116  28.083  23.519   7.966
    1AU    AUSL  117  27.628  23.498   7.878
    1AU     AUL  118  27.850  23.543   8.194
    1AU    AUSL  119  27.915  23.374   7.591
    1AU    AUSL  120  28.166  23.507   7.247
    1AU     AUL  121  27.935  23.714   7.554
    1AU    AUSL  122  28.353  23.450   7.623
    1AU    AUSL  123  28.347  23.249   8.153
    1AU     AUL  124  28.466  23.539   7.941
    1AU    AUSL  125  27.941  22.053   7.970
    1AU    AUSL  126  28.365  21.994   7.849
    1AU     AUL  127  28.126  21.932   8.223
    1AU    AUSL  128  27.633  21.831   7.699
    1AU    AUSL  129  27.661  22.168   8.274
    1AU     AUL  130  27.669  21.870   8.050
    1AU    AUSL  131  28.065  21.756   7.667
    1AU    AUSL  132  27.858  22.001   7.362
    1AU     AUL  133  27.741  21.656   7.487
    1AU    AUSL  134  27.993  23.392   6.843
    1AU    AUSL  135  28.565  23.370   7.199
    1AU     AUL  136  28.309  23.480   6.936
    1AU    AUSL  137  27.744  23.486   7.210
    1AU    AUSL  138  27.767  23.075   7.014
    1AU     AUL  139  27.674  23.381   6.856
    1AU    AUSL  140  28.083  21.949   6.981
    1AU    AUSL  141  27.450  21.963   7.258
    1AU     AUL  142  27.746  21.815   7.043
    1AU    AUSL  143  28.290  21.973   7.381
    1AU    AUSL  144  28.313  22.306   7.018
    1AU     AUL  145  28.407  21.933   7.050
    1AU       S  146  28.538  21.738   8.227
    1AU     LIG  147  28.585  21.504   8.352
    1AU     LIG  148  28.707  21.344   8.479
    1AU     LIG  149  28.865  21.167   8.590
    1AU       S  150  28.572  22.528   8.719
    1AU     LIG  151  28.735  22.586   8.921
    1AU     LIG  152  28.825  22.642   9.146
    1AU     LIG  153  28.931  22.609   9.383
    1AU       S  154  28.250  22.335   8.725
    1AU     LIG  155  28.306  22.241   9.005
    1AU     LIG  156  28.472  22.257   9.203
    1AU     LIG  157  28.606  22.212   9.419
    1AU       S  158  27.625  22.825   8.757
    1AU     LIG  159  27.588  22.849   9.059
    1AU     LIG  160  27.470  22.834   9.261
    1AU     LIG  161  27.322  22.811   9.479
    1AU       S  162  28.150  23.259   8.566
    1AU     LIG  163  28.267  23.396   8.771
    1AU     LIG  164  28.480  23.316   8.933
    1AU     LIG  165  28.703  23.190   8.947
    1AU       S  166  28.842  23.151   8.334
    1AU     LIG  167  29.025  23.191   8.555
    1AU     LIG  168  29.165  23.348   8.669
    1AU     LIG  169  29.341  23.524   8.744
    1AU       S  170  28.443  22.780   6.306
    1AU     LIG  171  28.658  22.835   6.093
    1AU     LIG  172  28.792  22.669   5.955
    1AU     LIG  173  28.852  22.478   5.795
    1AU       S  174  28.658  23.480   6.652
    1AU     LIG  175  28.704  23.673   6.462
    1AU     LIG  176  28.867  23.763   6.288
    1AU     LIG  177  29.032  23.854   6.123
    1AU       S  178  28.918  22.191   6.768
    1AU     LIG  179  29.080  22.104   6.527
    1AU     LIG  180  29.094  21.885   6.388
    1AU     LIG  181  29.110  21.630   6.348
    1AU       S  182  28.364  22.485   6.240
    1AU     LIG  183  28.386  22.361   6.011
    1AU     LIG  184  28.373  22.288   5.771
    1AU     LIG  185  28.444  22.268   5.521
    1AU       S  186  27.630  22.545   6.303
    1AU     LIG  187  27.685  22.512   6.024
    1AU     LIG  188  27.691  22.458   5.795
    1AU     LIG  189  27.615  22.417   5.540
    1AU       S  190  28.200  22.926   6.264
    1AU     LIG  191  28.101  22.860   5.973
    1AU     LIG  192  28.243  22.785   5.780
    1AU     LIG  193  28.436  22.777   5.607
    1AU       S  194  27.349  22.913   8.643
    1AU     LIG  195  27.138  22.888   8.819
    1AU     LIG  196  27.084  22.672   8.977
    1AU     LIG  197  27.014  22.540   9.166
    1AU       S  198  27.380  23.471   8.268
    1AU     LIG  199  27.294  23.626   8.501
    1AU     LIG  200  27.153  23.637   8.694
    1AU     LIG  201  26.984  23.726   8.877
    1AU       S  202  27.103  22.205   8.284
    1AU     LIG  203  26.857  22.136   8.381
    1AU     LIG  204  26.712  21.944   8.457
    1AU     LIG  205  26.585  21.762   8.575
    1AU       S  206  27.674  22.533   8.684
    1AU     LIG  207  27.597  22.357   8.887
    1AU     LIG  208  27.484  22.337   9.105
    1AU     LIG  209  27.439  22.323   9.361
    1AU       S  210  27.368  22.457   6.418
    1AU     LIG  211  27.189  22.387   6.208
    1AU     LIG  212  27.178  22.458   5.957
    1AU     LIG  213  27.166  22.568   5.737
    1AU       S  214  27.402  21.909   6.745
    1AU     LIG  215  27.328  21.722   6.540
    1AU     LIG  216  27.170  21.680   6.354
    1AU     LIG  217  26.986  21.631   6.184
    1AU       S  218  27.032  23.135   6.798
    1AU     LIG  219  26.825  23.304   6.744
    1AU     LIG  220  26.773  23.503   6.588
    1AU     LIG  221  26.749  23.626   6.367
    1AU       S  222  27.530  22.813   6.393
    1AU     LIG  223  27.363  22.914   6.139
    1AU     LIG  224  27.446  22.951   5.913
    1AU     LIG  225  27.554  22.931   5.679
    1AU       S  226  28.889  23.294   6.708
    1AU     LIG  227  29.104  23.340   6.537
    1AU     LIG  228  29.261  23.452   6.389
    1AU     LIG  229  29.442  23.571   6.245
    1AU       S  230  29.141  23.270   7.556
    1AU     LIG  231  29.354  23.474   7.540
    1AU     LIG  232  29.598  23.518   7.511
    1AU     LIG  233  29.851  23.581   7.532
    1AU       S  234  29.317  22.971   7.388
    1AU     LIG  235  29.586  23.042   7.293
    1AU     LIG  236  29.826  23.108   7.306
    1AU     LIG  237  30.048  23.222   7.226
    1AU       S  238  29.181  22.092   7.790
    1AU     LIG  239  29.416  21.990   7.920
    1AU     LIG  240  29.669  21.985   7.859
    1AU     LIG  241  29.918  21.953   7.780
    1AU       S  242  28.878  23.399   8.127
    1AU     LIG  243  29.073  23.576   8.210
    1AU     LIG  244  29.118  23.775   8.357
    1AU     LIG  245  29.137  23.954   8.540
    1AU       S  246  29.288  23.003   7.663
    1AU     LIG  247  29.526  23.074   7.814
    1AU     LIG  248  29.763  23.141   7.811
    1AU     LIG  249  29.993  23.231   7.878
    1AU       S  250  27.214  23.248   8.203
    1AU     LIG  251  26.975  23.240   8.380
    1AU     LIG  252  26.789  23.379   8.444
    1AU     LIG  253  26.613  23.498   8.594
    1AU       S  254  27.381  23.672   7.463
    1AU     LIG  255  27.221  23.880   7.335
    1AU     LIG  256  26.975  23.860   7.239
    1AU     LIG  257  26.787  23.703   7.123
    1AU       S  258  26.817  22.891   7.139
    1AU     LIG  259  26.579  22.896   7.071
    1AU     LIG  260  26.324  22.972   7.141
    1AU     LIG  261  26.179  23.185   7.163
    1AU       S  262  27.247  23.545   6.929
    1AU     LIG  263  27.174  23.753   6.787
    1AU     LIG  264  27.032  23.932   6.702
    1AU     LIG  265  26.901  24.087   6.537
    1AU       S  266  26.728  22.487   7.449
    1AU     LIG  267  26.451  22.477   7.337
    1AU     LIG  268  26.208  22.459   7.332
    1AU     LIG  269  25.974  22.338   7.284
    1AU       S  270  26.919  22.806   8.097
    1AU     LIG  271  26.606  22.910   8.182
    1AU     LIG  272  26.489  23.122   8.094
    1AU     LIG  273  26.309  23.269   7.968
    1AU       S  274  28.911  21.922   7.606
    1AU     LIG  275  29.045  21.620   7.622
    1AU     LIG  276  29.273  21.554   7.697
    1AU     LIG  277  29.544  21.540   7.655
    1AU       S  278  28.755  21.861   8.066
    1AU     LIG  279  29.002  21.725   8.105
    1AU     LIG  280  29.132  21.637   8.287
    1AU     LIG  281  29.179  21.567   8.537
    1AU       S  282  29.168  22.072   7.519
    1AU     LIG  283  29.391  21.950   7.383
    1AU     LIG  284  29.632  21.951   7.343
    1AU     LIG  285  29.873  21.879   7.280
    1AU       S  286  28.860  21.929   6.925
    1AU     LIG  287  28.925  21.669   6.822
    1AU     LIG  288  28.798  21.446   6.774
    1AU     LIG  289  28.757  21.227   6.659
    1AU       S  290  27.225  22.104   6.817
    1AU     LIG  291  26.992  22.114   6.620
    1AU     LIG  292  26.815  21.997   6.527
    1AU     LIG  293  26.609  21.839   6.465
    1AU       S  294  26.810  22.196   7.583
    1AU     LIG  295  26.593  22.030   7.588
    1AU     LIG  296  26.366  21.982   7.482
    1AU     LIG  297  26.133  21.878   7.441
    1AU       S  298  27.222  21.975   8.082
    1AU     LIG  299  27.046  21.767   8.068
    1AU     LIG  300  26.926  21.581   8.174
    1AU     LIG  301  26.793  21.395   8.287
    1AU       S  302  26.752  22.491   7.713
    1AU     LIG  303  26.518  22.463   7.888
    1AU     LIG  304  26.279  22.371   7.835
    1AU     LIG  305  26.070  22.236   7.809
    1AU       S  306  27.421  23.690   7.989
    1AU     LIG  307  27.186  23.879   8.062
    1AU     LIG  308  26.961  23.842   8.206
    1AU     LIG  309  26.829  23.919   8.412
    1AU       S  310  28.164  23.876   8.053
    1AU     LIG  311  28.275  24.063   8.255
    1AU     LIG  312  28.163  24.253   8.380
    1AU     LIG  313  28.018  24.454   8.444
    1AU       S  314  27.926  24.011   7.925
    1AU     LIG  315  27.837  24.236   7.968
    1AU     LIG  316  27.811  24.495   7.984
    1AU     LIG  317  27.820  24.746   8.012
    1AU       S  318  28.091  23.854   7.131
    1AU     LIG  319  28.157  24.123   7.146
    1AU     LIG  320  28.191  24.355   7.130
    1AU     LIG  321  28.254  24.598   7.042
    1AU       S  322  28.601  23.366   8.364
    1AU     LIG  323  28.676  23.585   8.543
    1AU     LIG  324  28.777  23.666   8.736
    1AU     LIG  325  28.903  23.684   8.967
    1AU       S  326  28.303  23.927   7.734
    1AU     LIG  327  28.335  24.200   7.718
    1AU     LIG  328  28.310  24.410   7.875
    1AU     LIG  329  28.322  24.594   8.040
    1AU       S  330  28.024  21.517   8.062
    1AU     LIG  331  28.143  21.311   8.213
    1AU     LIG  332  28.131  21.104   8.334
    1AU     LIG  333  28.112  20.867   8.434
    1AU       S  334  28.507  21.750   7.902
    1AU     LIG  335  28.611  21.446   7.827
    1AU     LIG  336  28.771  21.312   7.925
    1AU     LIG  337  28.983  21.212   8.057
    1AU       S  338  27.772  21.431   7.896
    1AU     LIG  339  27.723  21.164   7.918
    1AU     LIG  340  27.745  20.946   8.033
    1AU     LIG  341  27.735  20.708   8.129
    1AU       S  342  27.366  22.057   8.386
    1AU     LIG  343  27.239  21.839   8.570
    1AU     LIG  344  27.102  21.665   8.640
    1AU     LIG  345  26.965  21.471   8.762
    1AU       S  346  28.090  21.527   7.221
    1AU     LIG  347  28.029  21.199   7.210
    1AU     LIG  348  28.014  21.003   7.090
    1AU     LIG  349  28.014  20.736   7.027
    1AU       S  350  28.104  21.480   7.758
    1AU     LIG  351  28.204  21.178   7.712
    1AU     LIG  352  28.217  20.981   7.838
    1AU     LIG  353  28.211  20.735   7.941
    1AU       S  354  27.943  23.774   6.835
    1AU     LIG  355  27.949  24.003   6.681
    1AU     LIG  356  28.072  24.219   6.641
    1AU     LIG  357  28.138  24.453   6.564
    1AU       S  358  28.782  23.550   6.958
    1AU     LIG  359  28.980  23.754   6.901
    1AU     LIG  360  29.139  23.828   6.721
    1AU     LIG  361  29.287  23.950   6.558
    1AU       S  362  27.740  23.795   7.112
    1AU     LIG  363  27.628  24.073   7.085
    1AU     LIG  364  27.685  24.299   6.998
    1AU     LIG  365  27.759  24.524   6.907
    1AU       S  366  27.302  23.205   6.654
    1AU     LIG  367  27.242  23.340   6.415
    1AU     LIG  368  27.252  23.570   6.319
    1AU     LIG  369  27.225  23.809   6.239
    1AU       S  370  27.247  21.873   7.029
    1AU     LIG  371  26.990  21.700   6.950
    1AU     LIG  372  26.903  21.558   6.784
    1AU     LIG  373  26.817  21.385   6.606
    1AU       S  374  28.160  21.566   6.941
    1AU     LIG  375  28.277  21.387   6.769
    1AU     LIG  376  28.250  21.177   6.646
    1AU     LIG  377  28.174  20.939   6.582
    1AU       S  378  28.353  21.567   7.324
    1AU     LIG  379  28.517  21.326   7.293
    1AU     LIG  380  28.524  21.120   7.128
    1AU     LIG  381  28.509  20.903   6.984
    1AU       S  382  28.614  22.076   6.673
    1AU     LIG  383  28.600  21.898   6.470
    1AU     LIG  384  28.590  21.670   6.376
    1AU     LIG  385  28.641  21.467   6.221
    2AU     AUC  386  30.962   9.252   7.535
    2AU     AUC  387  31.214   9.257   7.369
    2AU     AUC  388  31.203   9.244   7.699
    2AU     AUC  389  30.692   9.260   7.380
    2AU     AUC  390  30.718   9.289   7.705
    2AU     AUC  391  30.801   9.505   7.513
    2AU     AUC  392  31.148   9.517   7.516
    2AU     AUC  393  30.783   8.998   7.543
    2AU     AUC  394  31.114   8.976   7.545
    2AU     AUC  395  30.956   9.092   7.798
    2AU     AUC  396  30.975   9.432   7.779
    2AU     AUC  397  30.949   9.079   7.287
    2AU     AUC  398  30.969   9.385   7.271
    2AU     AUC  399  31.517   9.248   7.204
    2AU     AUC  400  31.525   9.228   7.545
    2AU     AUC  401  31.483   9.215   7.899
    2AU     AUC  402  30.390   9.234   7.228
    2AU     AUC  403  30.389   9.293   7.556
    2AU     AUC  404  30.418   9.332   7.888
    2AU     AUC  405  30.636   9.818   7.474
    2AU     AUC  406  30.996   9.792   7.457
    2AU     AUC  407  31.362   9.780   7.487
    2AU     AUC  408  30.579   8.709   7.548
    2AU     AUC  409  30.930   8.685   7.529
    2AU     AUC  410  31.286   8.674   7.546
    2AU     AUC  411  30.915   8.926   8.101
    2AU     AUC  412  30.952   9.268   8.101
    2AU     AUC  413  31.009   9.632   8.062
    2AU     AUC  414  30.980   8.889   6.997
    2AU     AUC  415  30.928   9.230   6.973
    2AU     AUC  416  30.925   9.553   6.957
    2AU     AUC  417  31.197   9.030   8.012
    2AU     AUC  418  31.253   9.406   7.987
    2AU     AUC  419  31.252   9.092   7.072
    2AU     AUC  420  31.217   9.404   7.079
    2AU     AUC  421  30.663   9.150   8.000
    2AU     AUC  422  30.710   9.500   7.971
    2AU     AUC  423  30.674   9.049   7.103
    2AU     AUC  424  30.628   9.377   7.083
    2AU     AUC  425  31.455   9.520   7.346
    2AU     AUC  426  31.421   9.517   7.705
    2AU     AUC  427  30.496   9.532   7.383
    2AU     AUC  428  30.541   9.598   7.713
    2AU     AUC  429  31.418   8.969   7.407
    2AU     AUC  430  31.366   8.923   7.739
    2AU     AUC  431  30.497   8.946   7.373
    2AU     AUC  432  30.523   9.020   7.716
    2AU     AUC  433  30.861   9.750   7.782
    2AU     AUC  434  31.200   9.705   7.793
    2AU     AUC  435  30.748   8.817   7.817
    2AU     AUC  436  31.066   8.764   7.809
    2AU     AUC  437  30.771   9.683   7.215
    2AU     AUC  438  31.136   9.699   7.226
    2AU     AUC  439  30.802   8.785   7.258
    2AU     AUC  440  31.162   8.830   7.274
    2AU    AUSL  441  31.461   9.120   8.316
    2AU    AUSL  442  31.211   8.747   8.222
    2AU     AUL  443  31.518   8.748   8.389
    2AU    AUSL  444  31.046   9.062   8.460
    2AU    AUSL  445  30.808   9.471   8.451
    2AU     AUL  446  31.044   9.346   8.710
    2AU    AUSL  447  31.145   9.419   8.204
    2AU    AUSL  448  31.596   9.478   8.126
    2AU     AUL  449  31.414   9.443   8.435
    2AU    AUSL  450  31.369   9.280   6.840
    2AU    AUSL  451  31.230   9.676   6.981
    2AU     AUL  452  31.444   9.608   6.681
    2AU    AUSL  453  31.181   8.958   6.612
    2AU    AUSL  454  31.688   9.028   6.982
    2AU     AUL  455  31.556   9.102   6.665
    2AU    AUSL  456  31.013   9.462   6.670
    2AU    AUSL  457  30.835   9.076   6.829
    2AU     AUL  458  30.966   9.155   6.524
    2AU    AUSL  459  30.424   9.433   8.243
    2AU    AUSL  460  30.787   9.742   8.111
    2AU     AUL  461  30.624   9.710   8.412
    2AU    AUSL  462  30.725   9.120   8.191
    2AU    AUSL  463  30.276   9.043   8.105
    2AU     AUL  464  30.333   9.132   8.341
    2AU    AUSL  465  30.399   9.058   6.795
    2AU    AUSL  466  30.648   8.708   6.947
    2AU     AUL  467  30.672   8.794   6.641
    2AU    AUSL  468  30.585   9.426   6.675
    2AU    AUSL  469  30.305   9.407   7.050
    2AU     AUL  470  30.188   9.288   6.776
    2AU    AUSL  471  31.753   9.715   7.476
    2AU    AUSL  472  31.628   9.505   7.096
    2AU     AUL  473  31.923   9.710   7.128
    2AU    AUSL  474  31.918   9.319   7.367
    2AU    AUSL  475  31.867   9.021   7.768
    2AU     AUL  476  32.129   9.105   7.571
    2AU    AUSL  477  31.640   9.374   7.718
    2AU    AUSL  478  31.598   9.818   7.853
    2AU     AUL  479  31.846   9.558   7.878
    2AU    AUSL  480  30.387   9.895   7.522
    2AU    AUSL  481  30.424   9.647   7.878
    2AU     AUL  482  30.115   9.892   7.745
    2AU    AUSL  483  30.186   9.516   7.444
    2AU    AUSL  484  30.339   9.832   7.106
    2AU     AUL  485  30.103   9.757   7.263
    2AU    AUSL  486  30.059   9.438   7.888
    2AU    AUSL  487  30.026   9.132   7.349
    2AU     AUL  488  29.904   9.449   7.590
    2AU    AUSL  489  31.645   8.672   7.615
    2AU    AUSL  490  31.471   8.955   7.925
    2AU     AUL  491  31.778   8.861   8.001
    2AU    AUSL  492  31.603   9.042   7.397
    2AU    AUSL  493  31.593   8.640   7.188
    2AU     AUL  494  31.837   8.850   7.250
    2AU    AUSL  495  30.179   8.753   7.553
    2AU    AUSL  496  30.390   8.963   7.205
    2AU     AUL  497  30.040   8.856   7.213
    2AU    AUSL  498  30.296   9.154   7.694
    2AU    AUSL  499  30.486   8.770   7.849
    2AU     AUL  500  30.105   8.923   7.848
    2AU    AUSL  501  31.028  10.078   7.966
    2AU    AUSL  502  30.573  10.057   7.878
    2AU     AUL  503  30.795  10.102   8.194
    2AU    AUSL  504  30.860   9.933   7.591
    2AU    AUSL  505  31.111  10.066   7.247
    2AU     AUL  506  30.880  10.273   7.554
    2AU    AUSL  507  31.298  10.009   7.623
    2AU    AUSL  508  31.292   9.808   8.153
    2AU     AUL  509  31.411  10.098   7.941
    2AU    AUSL  510  30.886   8.612   7.970
    2AU    AUSL  511  31.310   8.553   7.849
    2AU     AUL  512  31.071   8.491   8.223
    2AU    AUSL  513  30.578   8.390   7.699
    2AU    AUSL  514  30.606   8.727   8.274
    2AU     AUL  515  30.614   8.429   8.050
    2AU    AUSL  516  31.010   8.315   7.667
    2AU    AUSL  517  30.803   8.560   7.362
    2AU     AUL  518  30.686   8.215   7.487
    2AU    AUSL  519  30.938   9.951   6.843
    2AU    AUSL  520  31.510   9.929   7.199
    2AU     AUL  521  31.254  10.039   6.936
    2AU    AUSL  522  30.689  10.045   7.210
    2AU    AUSL  523  30.712   9.634   7.014
    2AU     AUL  524  30.619   9.940   6.856
    2AU    AUSL  525  31.028   8.508   6.981
    2AU    AUSL  526  30.395   8.522   7.258
    2AU     AUL  527  30.691   8.374   7.043
    2AU    AUSL  528  31.235   8.532   7.381
    2AU    AUSL  529  31.258   8.865   7.018
    2AU     AUL  530  31.352   8.492   7.050
    2AU       S  531  31.483   8.297   8.227
    2AU     LIG  532  31.530   8.063   8.352
    2AU     LIG  533  31.652   7.903   8.479
    2AU     LIG  534  31.810   7.726   8.590
    2AU       S  535  31.517   9.087   8.719
    2AU     LIG  536  31.680   9.145   8.921
    2AU     LIG  537  31.770   9.201   9.146
    2AU     LIG  538  31.876   9.168   9.383
    2AU       S  539  31.195   8.894   8.725
    2AU     LIG  540  31.251   8.800   9.005
    2AU     LIG  541  31.417   8.816   9.203
    2AU     LIG  542  31.551   8.771   9.419
    2AU       S  543  30.570   9.384   8.757
    2AU     LIG  544  30.533   9.408   9.059
    2AU     LIG  545  30.415   9.393   9.261
    2AU     LIG  546  30.267   9.370   9.479
    2AU       S  547  31.095   9.818   8.566
    2AU     LIG  548  31.212   9.955   8.771
    2AU     LIG  549  31.425   9.875   8.933
    2AU     LIG  550  31.648   9.749   8.947
    2AU       S  551  31.787   9.710   8.334
    2AU     LIG  552  31.970   9.750   8.555
    2AU     LIG  553  32.110   9.907   8.669
    2AU     LIG  554  32.286  10.083   8.744
    2AU       S  555  31.388   9.339   6.306
    2AU     LIG  556  31.603   9.394   6.093
    2AU     LIG  557  31.737   9.228   5.955
    2AU     LIG  558  31.797   9.037   5.795
    2AU       S  559  31.603  10.039   6.652
    2AU     LIG  560  31.649  10.232   6.462
    2AU     LIG  561  31.812  10.322   6.288
    2AU     LIG  562  31.977  10.413   6.123
    2AU       S  563  31.863   8.750   6.768
    2AU     LIG  564  32.025   8.663   6.527
    2AU     LIG  565  32.039   8.444   6.388
    2AU     LIG  566  32.055   8.189   6.348
    2AU       S  567  31.309   9.044   6.240
    2AU     LIG  568  31.331   8.920   6.011
    2AU     LIG  569  31.318   8.847   5.771
    2AU     LIG  570  31.389   8.827   5.521
    2AU       S  571  30.575   9.104   6.303
    2AU     LIG  572  30.630   9.071   6.024
    2AU     LIG  573  30.636   9.017   5.795
    2AU     LIG  574  30.560   8.976   5.540
    2AU       S  575  31.145   9.485   6.264
    2AU     LIG  576  31.046   9.419   5.973
    2AU     LIG  577  31.188   9.344   5.780
    2AU     LIG  578  31.381   9.336   5.607
    2AU       S  579  30.294   9.472   8.643
    2AU     LIG  580  30.083   9.447   8.819
    2AU     LIG  581  30.029   9.231   8.977
    2AU     LIG  582  29.959   9.099   9.166
    2AU       S  583  30.325  10.030   8.268
    2AU     LIG  584  30.239  10.185   8.501
    2AU     LIG  585  30.098  10.196   8.694
    2AU     LIG  586  29.929  10.285   8.877
    2AU       S  587  30.048   8.764   8.284
    2AU     LIG  588  29.802   8.695   8.381
    2AU     LIG  589  29.657   8.503   8.457
    2AU     LIG  590  29.530   8.321   8.575
    2AU       S  591  30.619   9.092   8.684
    2AU     LIG  592  30.542   8.916   8.887
    2AU     LIG  593  30.429   8.896   9.105
    2AU     LIG  594  30.384   8.882   9.361
    2AU       S  595  30.313   9.016   6.418
    2AU     LIG  596  30.134   8.946   6.208
    2AU     LIG  597  30.123   9.017   5.957
    2AU     LIG  598  30.111   9.127   5.737
    2AU       S  599  30.347   8.468   6.745
    2AU     LIG  600  30.273   8.281   6.540
    2AU     LIG  601  30.115   8.239   6.354
    2AU     LIG  602  29.931   8.190   6.184
    2AU       S  603  29.977   9.694   6.798
    2AU     LIG  604  29.770   9.863   6.744
    2AU     LIG  605  29.718  10.062   6.588
    2AU     LIG  606  29.694  10.185   6.367
    2AU       S  607  30.475   9.372   6.393
    2AU     LIG  608  30.308   9.473   6.139
    2AU     LIG  609  30.391   9.510   5.913
    2AU     LIG  610  30.499   9.490   5.679
    2AU       S  611  31.834   9.853   6.708
    2AU     LIG  612  32.049   9.899   6.537
    2AU     LIG  613  32.206  10.011   6.389
    2AU     LIG  614  32.387  10.130   6.245
    2AU       S  615  32.086   9.829   7.556
    2AU     LIG  616  32.299  10.033   7.540
    2AU     LIG  617  32.543  10.077   7.511
    2AU     LIG  618  32.796  10.140   7.532
    2AU       S  619  32.262   9.530   7.388
    2AU     LIG  620  32.531   9.601   7.293
    2AU     LIG  621  32.771   9.667   7.306
    2AU     LIG  622  32.993   9.781   7.226
    2AU       S  623  32.126   8.651   7.790
    2AU     LIG  624  32.361   8.549   7.920
    2AU     LIG  625  32.614   8.544   7.859
    2AU     LIG  626  32.863   8.512   7.780
    2AU       S  627  31.823   9.958   8.127
    2AU     LIG  628  32.018  10.135   8.210
    2AU     LIG  629  32.063  10.334   8.357
    2AU     LIG  630  32.082  10.513   8.540
    2AU       S  631  32.233   9.562   7.663
    2AU     LIG  632  32.471   9.633   7.814
    2AU     LIG  633  32.708   9.700   7.811
    2AU     LIG  634  32.938   9.790   7.878
    2AU       S  635  30.159   9.807   8.203
    2AU     LIG  636  29.920   9.799   8.380
    2AU     LIG  637  29.734   9.938   8.444
    2AU     LIG  638  29.558  10.057   8.594
    2AU       S  639  30.326  10.231   7.463
    2AU     LIG  640  30.166  10.439   7.335
    2AU     LIG  641  29.920  10.419   7.239
    2AU     LIG  642  29.732  10.262   7.123
    2AU       S  643  29.762   9.450   7.139
    2AU     LIG  644  29.524   9.455   7.071
    2AU     LIG  645  29.269   9.531   7.141
    2AU     LIG  646  29.124   9.744   7.163
    2AU       S  647  30.192  10.104   6.929
    2AU     LIG  648  30.119  10.312   6.787
    2AU     LIG  649  29.977  10.491   6.702
    2AU     LIG  650  29.846  10.646   6.537
    2AU       S  651  29.673   9.046   7.449
    2AU     LIG  652  29.396   9.036   7.337
    2AU     LIG  653  29.153   9.018   7.332
    2AU     LIG  654  28.919   8.897   7.284
    2AU       S  655  29.864   9.365   8.097
    2AU     LIG  656  29.551   9.469   8.182
    2AU     LIG  657  29.434   9.681   8.094
    2AU     LIG  658  29.254   9.828   7.968
    2AU       S  659  31.856   8.481   7.606
    2AU     LIG  660  31.990   8.179   7.622
    2AU     LIG  661  32.218   8.113   7.697
    2AU     LIG  662  32.489   8.099   7.655
    2AU       S  663  31.700   8.420   8.066
    2AU     LIG  664  31.947   8.284   8.105
    2AU     LIG  665  32.077   8.196   8.287
    2AU     LIG  666  32.124   8.126   8.537
    2AU       S  667  32.113   8.631   7.519
    2AU     LIG  668  32.336   8.509   7.383
    2AU     LIG  669  32.577   8.510   7.343
    2AU     LIG  670  32.818   8.438   7.280
    2AU       S  671  31.805   8.488   6.925
    2AU     LIG  672  31.870   8.228   6.822
    2AU     LIG  673  31.743   8.005   6.774
    2AU     LIG  674  31.702   7.786   6.659
    2AU       S  675  30.170   8.663   6.817
    2AU     LIG  676  29.937   8.673   6.620
    2AU     LIG  677  29.760   8.556   6.527
    2AU     LIG  678  29.554   8.398   6.465
    2AU       S  679  29.755   8.755   7.583
    2AU     LIG  680  29.538   8.589   7.588
    2AU     LIG  681  29.311   8.541   7.482
    2AU     LIG  682  29.078   8.437   7.441
    2AU       S  683  30.167   8.534   8.082
    2AU     LIG  684  29.991   8.326   8.068
    2AU     LIG  685  29.871   8.140   8.174
    2AU     LIG  686  29.738   7.954   8.287
    2AU       S  687  29.697   9.050   7.713
    2AU     LIG  688  29.463   9.022   7.888
    2AU     LIG  689  29.224   8.930   7.835
    2AU     LIG  690  29.015   8.795   7.809
    2AU       S  691  30.366  10.249   7.989
    2AU     LIG  692  30.131  10.438   8.062
    2AU     LIG  693  29.906  10.401   8.206
    2AU     LIG  694  29.774  10.478   8.412
    2AU       S  695  31.109  10.435   8.053
    2AU     LIG  696  31.220  10.622   8.255
    2AU     LIG  697  31.108  10.812   8.380
    2AU     LIG  698  30.963  11.013   8.444
    2AU       S  699  30.871  10.570   7.925
    2AU     LIG  700  30.782  10.795   7.968
    2AU     LIG  701  30.756  11.054   7.984
    2AU     LIG  702  30.765  11.305   8.012
    2AU       S  703  31.036  10.413   7.131
    2AU     LIG  704  31.102  10.682   7.146
    2AU     LIG  705  31.136  10.914   7.130
    2AU     LIG  706  31.199  11.157   7.042
    2AU       S  707  31.546   9.925   8.364
    2AU     LIG  708  31.621  10.144   8.543
    2AU     LIG  709  31.722  10.225   8.736
    2AU     LIG  710  31.848  10.243   8.967
    2AU       S  711  31.248  10.486   7.734
    2AU     LIG  712  31.280  10.759   7.718
    2AU     LIG  713  31.255  10.969   7.875
    2AU     LIG  714  31.267  11.153   8.040
    2AU       S  715  30.969   8.076   8.062
    2AU     LIG  716  31.088   7.870   8.213
    2AU     LIG  717  31.076   7.663   8.334
    2AU     LIG  718  31.057   7.426   8.434
    2AU       S  719  31.452   8.309   7.902
    2AU     LIG  720  31.556   8.005   7.827
    2AU     LIG  721  31.716   7.871   7.925
    2AU     LIG  722  31.928   7.771   8.057
    2AU       S  723  30.717   7.990   7.896
    2AU     LIG  724  30.668   7.723   7.918
    2AU     LIG  725  30.690   7.505   8.033
    2AU     LIG  726  30.680   7.267   8.129
    2AU       S  727  30.311   8.616   8.386
    2AU     LIG  728  30.184   8.398   8.570
    2AU     LIG  729  30.047   8.224   8.640
    2AU     LIG  730  29.910   8.030   8.762
    2AU       S  731  31.035   8.086   7.221
    2AU     LIG  732  30.974   7.758   7.210
    2AU     LIG  733  30.959   7.562   7.090
    2AU     LIG  734  30.959   7.295   7.027
    2AU       S  735  31.049   8.039   7.758
    2AU     LIG  736  31.149   7.737   7.712
    2AU     LIG  737  31.162   7.540   7.838
    2AU     LIG  738  31.156   7.294   7.941
    2AU       S  739  30.888  10.333   6.835
    2AU     LIG  740  30.894  10.562   6.681
    2AU     LIG  741  31.017  10.778   6.641
    2AU     LIG  742  31.083  11.012   6.564
    2AU       S  743  31.727  10.109   6.958
    2AU     LIG  744  31.925  10.313   6.901
    2AU     LIG  745  32.084  10.387   6.721
    2AU     LIG  746  32.232  10.509   6.558
    2AU       S  747  30.685  10.354   7.112
    2AU     LIG  748  30.573  10.632   7.085
    2AU     LIG  749  30.630  10.858   6.998
    2AU     LIG  750  30.704  11.083   6.907
    2AU       S  751  30.247   9.764   6.654
    2AU     LIG  752  30.187   9.899   6.415
    2AU     LIG  753  30.197  10.129   6.319
    2AU     LIG  754  30.170  10.368   6.239
    2AU       S  755  30.192   8.432   7.029
    2AU     LIG  756  29.935   8.259   6.950
    2AU     LIG  757  29.848   8.117   6.784
    2AU     LIG  758  29.762   7.944   6.606
    2AU       S  759  31.105   8.125   6.941
    2AU     LIG  760  31.222   7.946   6.769
    2AU     LIG  761  31.195   7.736   6.646
    2AU     LIG  762  31.119   7.498   6.582
    2AU       S  763  31.298   8.126   7.324
    2AU     LIG  764  31.462   7.885   7.293
    2AU     LIG  765  31.469   7.679   7.128
    2AU     LIG  766  31.454   7.462   6.984
    2AU       S  767  31.559   8.635   6.673
    2AU     LIG  768  31.545   8.457   6.470
    2AU     LIG  769  31.535   8.229   6.376
    2AU     LIG  770  31.586   8.026   6.221
    3AU     AUC  771  18.334  22.063   7.535
    3AU     AUC  772  18.586  22.068   7.369
    3AU     AUC  773  18.575  22.055   7.699
    3AU     AUC  774  18.064  22.071   7.380
    3AU     AUC  775  18.090  22.100   7.705
    3AU     AUC  776  18.173  22.316   7.513
    3AU     AUC  777  18.520  22.328   7.516
    3AU     AUC  778  18.155  21.809   7.543
    3AU     AUC  779  18.486  21.787   7.545
    3AU     AUC  780  18.328  21.903   7.798
    3AU     AUC  781  18.347  22.243   7.779
    3AU     AUC  782  18.321  21.890   7.287
    3AU     AUC  783  18.341  22.196   7.271
    3AU     AUC  784  18.889  22.059   7.204
    3AU     AUC  785  18.897  22.039   7.545
    3AU     AUC  786  18.855  22.026   7.899
    3AU     AUC  787  17.762  22.045   7.228
    3AU     AUC  788  17.761  22.104   7.556
    3AU     AUC  789  17.790  22.143   7.888
    3AU     AUC  790  18.008  22.629   7.474
    3AU     AUC  791  18.368  22.603   7.457
    3AU     AUC  792  18.734  22.591   7.487
    3AU     AUC  793  17.951  21.520   7.548
    3AU     AUC  794  18.302  21.496   7.529
    3AU     AUC  795  18.658  21.485   7.546
    3AU     AUC  796  18.287  21.737   8.101
    3AU     AUC  797  18.324  22.079   8.101
    3AU     AUC  798  18.381  22.443   8.062
    3AU     AUC  799  18.352  21.700   6.997
    3AU     AUC  800  18.300  22.041   6.973
    3AU     AUC  801  18.297  22.364   6.957
    3AU     AUC  802  18.569  21.841   8.012
    3AU     AUC  803  18.625  22.217   7.987
    3AU     AUC  804  18.624  21.903   7.072
    3AU     AUC  805  18.589  22.215   7.079
    3AU     AUC  806  18.035  21.961   8.000
    3AU     AUC  807  18.082  22.311   7.971
    3AU     AUC  808  18.046  21.860   7.103
    3AU     AUC  809  18.000  22.188   7.083
    3AU     AUC  810  18.827  22.331   7.346
    3AU     AUC  811  18.793  22.328   7.705
    3AU     AUC  812  17.868  22.343   7.383
    3AU     AUC  813  17.913  22.409   7.713
    3AU     AUC  814  18.790  21.780   7.407
    3AU     AUC  815  18.738  21.734   7.739
    3AU     AUC  816  17.869  21.757   7.373
    3AU     AUC  817  17.895  21.831   7.716
    3AU     AUC  818  18.233  22.561   7.782
    3AU     AUC  819  18.572  22.516   7.793
    3AU     AUC  820  18.120  21.628   7.817
    3AU     AUC  821  18.438  21.575   7.809
    3AU     AUC  822  18.143  22.494   7.215
    3AU     AUC  823  18.508  22.510   7.226
    3AU     AUC  824  18.174  21.596   7.258
    3AU     AUC  825  18.534  21.641   7.274
    3AU    AUSL  826  18.833  21.931   8.316
    3AU    AUSL  827  18.583  21.558   8.222
    3AU     AUL  828  18.890  21.559   8.389
    3AU    AUSL  829  18.418  21.873   8.460
    3AU    AUSL  830  18.180  22.282   8.451
    3AU     AUL  831  18.416  22.157   8.710
    3AU    AUSL  832  18.517  22.230   8.204
    3AU    AUSL  833  18.968  22.289   8.126
    3AU     AUL  834  18.786  22.254   8.435
    3AU    AUSL  835  18.741  22.091   6.840
    3AU    AUSL  836  18.602  22.487   6.981
    3AU     AUL  837  18.816  22.419   6.681
    3AU    AUSL  838  18.553  21.769   6.612
    3AU    AUSL  839  19.060  21.839   6.982
    3AU     AUL  840  18.928  21.913   6.665
    3AU    AUSL  841  18.385  22.273   6.670
    3AU    AUSL  842  18.207  21.887   6.829
    3AU     AUL  843  18.338  21.966   6.524
    3AU    AUSL  844  17.796  22.244   8.243
    3AU    AUSL  845  18.159  22.553   8.111
    3AU     AUL  846  17.996  22.521   8.412
    3AU    AUSL  847  18.097  21.931   8.191
    3AU    AUSL  848  17.648  21.854   8.105
    3AU     AUL  849  17.705  21.943   8.341
    3AU    AUSL  850  17.771  21.869   6.795
    3AU    AUSL  851  18.020  21.519   6.947
    3AU     AUL  852  18.044  21.605   6.641
    3AU    AUSL  853  17.957  22.237   6.675
    3AU    AUSL  854  17.677  22.218   7.050
    3AU     AUL  855  17.560  22.099   6.776
    3AU    AUSL  856  19.125  22.526   7.476
    3AU    AUSL  857  19.000  22.316   7.096
    3AU     AUL  858  19.295  22.521   7.128
    3AU    AUSL  859  19.290  22.130   7.367
    3AU    AUSL  860  19.239  21.832   7.768
    3AU     AUL  861  19.501  21.916   7.571
    3AU    AUSL  862  19.012  22.185   7.718
    3AU    AUSL  863  18.970  22.629   7.853
    3AU     AUL  864  19.218  22.369   7.878
    3AU    AUSL  865  17.759  22.706   7.522
    3AU    AUSL  866  17.796  22.458   7.878
    3AU     AUL  867  17.487  22.703   7.745
    3AU    AUSL  868  17.558  22.327   7.444
    3AU    AUSL  869  17.711  22.643   7.106
    3AU     AUL  870  17.475  22.568   7.263
    3AU    AUSL  871  17.431  22.249   7.888
    3AU    AUSL  872  17.398  21.943   7.349
    3AU     AUL  873  17.276  22.260   7.590
    3AU    AUSL  874  19.017  21.483   7.615
    3AU    AUSL  875  18.843  21.766   7.925
    3AU     AUL  876  19.150  21.672   8.001
    3AU    AUSL  877  18.975  21.853   7.397
    3AU    AUSL  878  18.965  21.451   7.188
    3AU     AUL  879  19.209  21.661   7.250
    3AU    AUSL  880  17.551  21.564   7.553
    3AU    AUSL  881  17.762  21.774   7.205
    3AU     AUL  882  17.412  21.667   7.213
    3AU    AUSL  883  17.668  21.965   7.694
    3AU    AUSL  884  17.858  21.581   7.849
    3AU     AUL  885  17.477  21.734   7.848
    3AU    AUSL  886  18.400  22.889   7.966
    3AU    AUSL  887  17.945  22.868   7.878
    3AU     AUL  888  18.167  22.913   8.194
    3AU    AUSL  889  18.232  22.744   7.591
    3AU    AUSL  890  18.483  22.877   7.247
    3AU     AUL  891  18.252  23.084   7.554
    3AU    AUSL  892  18.670  22.820   7.623
    3AU    AUSL  893  18.664  22.619   8.153
    3AU     AUL  894  18.783  22.909   7.941
    3AU    AUSL  895  18.258  21.423   7.970
    3AU    AUSL  896  18.682  21.364   7.849
    3AU     AUL  897  18.443  21.302   8.223
    3AU    AUSL  898  17.950  21.201   7.699
    3AU    AUSL  899  17.978  21.538   8.274
    3AU     AUL  900  17.986  21.240   8.050
    3AU    AUSL  901  18.382  21.126   7.667
    3AU    AUSL  902  18.175  21.371   7.362
    3AU     AUL  903  18.058  21.026   7.487
    3AU    AUSL  904  18.310  22.762   6.843
    3AU    AUSL  905  18.882  22.740   7.199
    3AU     AUL  906  18.626  22.850   6.936
    3AU    AUSL  907  18.061  22.856   7.210
    3AU    AUSL  908  18.084  22.445   7.014
    3AU     AUL  909  17.991  22.751   6.856
    3AU    AUSL  910  18.400  21.319   6.981
    3AU    AUSL  911  17.767  21.333   7.258
    3AU     AUL  912  18.063  21.185   7.043
    3AU    AUSL  913  18.607  21.343   7.381
    3AU    AUSL  914  18.630  21.676   7.018
    3AU     AUL  915  18.724  21.303   7.050
    3AU       S  916  18.855  21.108   8.227
    3AU     LIG  917  18.902  20.874   8.352
    3AU     LIG  918  19.024  20.714   8.479
    3AU     LIG  919  19.182  20.537   8.590
    3AU       S  920  18.889  21.898   8.719
    3AU     LIG  921  19.052  21.956   8.921
    3AU     LIG  922  19.142  22.012   9.146
    3AU     LIG  923  19.248  21.979   9.383
    3AU       S  924  18.567  21.705   8.725
    3AU     LIG  925  18.623  21.611   9.005
    3AU     LIG  926  18.789  21.627   9.203
    3AU     LIG  927  18.923  21.582   9.419
    3AU       S  928  17.942  22.195   8.757
    3AU     LIG  929  17.905  22.219   9.059
    3AU     LIG  930  17.787  22.204   9.261
    3AU     LIG  931  17.639  22.181   9.479
    3AU       S  932  18.467  22.629   8.566
    3AU     LIG  933  18.584  22.766   8.771
    3AU     LIG  934  18.797  22.686   8.933
    3AU     LIG  935  19.020  22.560   8.947
    3AU       S  936  19.159  22.521   8.334
    3AU     LIG  937  19.342  22.561   8.555
    3AU     LIG  938  19.482  22.718   8.669
    3AU     LIG  939  19.658  22.894   8.744
    3AU       S  940  18.760  22.150   6.306
    3AU     LIG  941  18.975  22.205   6.093
    3AU     LIG  942  19.109  22.039   5.955
    3AU     LIG  943  19.169  21.848   5.795
    3AU       S  944  18.975  22.850   6.652
    3AU     LIG  945  19.021  23.043   6.462
    3AU     LIG  946  19.184  23.133   6.288
    3AU     LIG  947  19.349  23.224   6.123
    3AU       S  948  19.235  21.561   6.768
    3AU     LIG  949  19.397  21.474   6.527
    3AU     LIG  950  19.411  21.255   6.388
    3AU     LIG  951  19.427  21.000   6.348
    3AU       S  952  18.681  21.855   6.240
    3AU     LIG  953  18.703  21.731   6.011
    3AU     LIG  954  18.690  21.658   5.771
    3AU     LIG  955  18.761  21.638   5.521
    3AU       S  956  17.947  21.915   6.303
    3AU     LIG  957  18.002  21.882   6.024
    3AU     LIG  958  18.008  21.828   5.795
    3AU     LIG  959  17.932  21.787   5.540
    3AU       S  960  18.517  22.296   6.264
    3AU     LIG  961  18.418  22.230   5.973
    3AU     LIG  962  18.560  22.155   5.780
    3AU     LIG  963  18.753  22.147   5.607
    3AU       S  964  17.666  22.283   8.643
    3AU     LIG  965  17.455  22.258   8.819
    3AU     LIG  966  17.401  22.042   8.977
    3AU     LIG  967  17.331  21.910   9.166
    3AU       S  968  17.697  22.841   8.268
    3AU     LIG  969  17.611  22.996   8.501
    3AU     LIG  970  17.470  23.007   8.694
    3AU     LIG  971  17.301  23.096   8.877
    3AU       S  972  17.420  21.575   8.284
    3AU     LIG  973  17.174  21.506   8.381
    3AU     LIG  974  17.029  21.314   8.457
    3AU     LIG  975  16.902  21.132   8.575
    3AU       S  976  17.991  21.903   8.684
    3AU     LIG  977  17.914  21.727   8.887
    3AU     LIG  978  17.801  21.707   9.105
    3AU     LIG  979  17.756  21.693   9.361
    3AU       S  980  17.685  21.827   6.418
    3AU     LIG  981  17.506  21.757   6.208
    3AU     LIG  982  17.495  21.828   5.957
    3AU     LIG  983  17.483  21.938   5.737
    3AU       S  984  17.719  21.279   6.745
    3AU     LIG  985  17.645  21.092   6.540
    3AU     LIG  986  17.487  21.050   6.354
    3AU     LIG  987  17.303  21.001   6.184
    3AU       S  988  17.349  22.505   6.798
    3AU     LIG  989  17.142  22.674   6.744
    3AU     LIG  990  17.090  22.873   6.588
    3AU     LIG  991  17.066  22.996   6.367
    3AU       S  992  17.847  22.183   6.393
    3AU     LIG  993  17.680  22.284   6.139
    3AU     LIG  994  17.763  22.321   5.913
    3AU     LIG  995  17.871  22.301   5.679
    3AU       S  996  19.206  22.664   6.708
    3AU     LIG  997  19.421  22.710   6.537
    3AU     LIG  998  19.578  22.822   6.389
    3AU     LIG  999  19.759  22.941   6.245
    3AU       S 1000  19.458  22.640   7.556
    3AU     LIG 1001  19.671  22.844   7.540
    3AU     LIG 1002  19.915  22.888   7.511
    3AU     LIG 1003  20.168  22.951   7.532
    3AU       S 1004  19.634  22.341   7.388
    3AU     LIG 1005  19.903  22.412   7.293
    3AU     LIG 1006  20.143  22.478   7.306
    3AU     LIG 1007  20.365  22.592   7.226
    3AU       S 1008  19.498  21.462   7.790
    3AU     LIG 1009  19.733  21.360   7.920
    3AU     LIG 1010  19.986  21.355   7.859
    3AU     LIG 1011  20.235  21.323   7.780
    3AU       S 1012  19.195  22.769   8.127
    3AU     LIG 1013  19.390  22.946   8.210
    3AU     LIG 1014  19.435  23.145   8.357
    3AU     LIG 1015  19.454  23.324   8.540
    3AU       S 1016  19.605  22.373   7.663
    3AU     LIG 1017  19.843  22.444   7.814
    3AU     LIG 1018  20.080  22.511   7.811
    3AU     LIG 1019  20.310  22.601   7.878
    3AU       S 1020  17.531  22.618   8.203
    3AU     LIG 1021  17.292  22.610   8.380
    3AU     LIG 1022  17.106  22.749   8.444
    3AU     LIG 1023  16.930  22.868   8.594
    3AU       S 1024  17.698  23.042   7.463
    3AU     LIG 1025  17.538  23.250   7.335
    3AU     LIG 1026  17.292  23.230   7.239
    3AU     LIG 1027  17.104  23.073   7.123
    3AU       S 1028  17.134  22.261   7.139
    3AU     LIG 1029  16.896  22.266   7.071
    3AU     LIG 1030  16.641  22.342   7.141
    3AU     LIG 1031  16.496  22.555   7.163
    3AU       S 1032  17.564  22.915   6.929
    3AU     LIG 1033  17.491  23.123   6.787
    3AU     LIG 1034  17.349  23.302   6.702
    3AU     LIG 1035  17.218  23.457   6.537
    3AU       S 1036  17.045  21.857   7.449
    3AU     LIG 1037  16.768  21.847   7.337
    3AU     LIG 1038  16.525  21.829   7.332
    3AU     LIG 1039  16.291  21.708   7.284
    3AU       S 1040  17.236  22.176   8.097
    3AU     LIG 1041  16.923  22.280   8.182
    3AU     LIG 1042  16.806  22.492   8.094
    3AU     LIG 1043  16.626  22.639   7.968
    3AU       S 1044  19.228  21.292   7.606
    3AU     LIG 1045  19.362  20.990   7.622
    3AU     LIG 1046  19.590  20.924   7.697
    3AU     LIG 1047  19.861  20.910   7.655
    3AU       S 1048  19.072  21.231   8.066
    3AU     LIG 1049  19.319  21.095   8.105
    3AU     LIG 1050  19.449  21.007   8.287
    3AU     LIG 1051  19.496  20.937   8.537
    3AU       S 1052  19.485  21.442   7.519
    3AU     LIG 1053  19.708  21.320   7.383
    3AU     LIG 1054  19.949  21.321   7.343
    3AU     LIG 1055  20.190  21.249   7.280
    3AU       S 1056  19.177  21.299   6.925
    3AU     LIG 1057  19.242  21.039   6.822
    3AU     LIG 1058  19.115  20.816   6.774
    3AU     LIG 1059  19.074  20.597   6.659
    3AU       S 1060  17.542  21.474   6.817
    3AU     LIG 1061  17.309  21.484   6.620
    3AU     LIG 1062  17.132  21.367   6.527
    3AU     LIG 1063  16.926  21.209   6.465
    3AU       S 1064  17.127  21.566   7.583
    3AU     LIG 1065  16.910  21.400   7.588
    3AU     LIG 1066  16.683  21.352   7.482
    3AU     LIG 1067  16.450  21.248   7.441
    3AU       S 1068  17.539  21.345   8.082
    3AU     LIG 1069  17.363  21.137   8.068
    3AU     LIG 1070  17.243  20.951   8.174
    3AU     LIG 1071  17.110  20.765   8.287
    3AU       S 1072  17.069  21.861   7.713
    3AU     LIG 1073  16.835  21.833   7.888
    3AU     LIG 1074  16.596  21.741   7.835
    3AU     LIG 1075  16.387  21.606   7.809
    3AU       S 1076  17.738  23.060   7.989
    3AU     LIG 1077  17.503  23.249   8.062
    3AU     LIG 1078  17.278  23.212   8.206
    3AU     LIG 1079  17.146  23.289   8.412
    3AU       S 1080  18.481  23.246   8.053
    3AU     LIG 1081  18.592  23.433   8.255
    3AU     LIG 1082  18.480  23.623   8.380
    3AU     LIG 1083  18.335  23.824   8.444
    3AU       S 1084  18.243  23.381   7.925
    3AU     LIG 1085  18.154  23.606   7.968
    3AU     LIG 1086  18.128  23.865   7.984
    3AU     LIG 1087  18.137  24.116   8.012
    3AU       S 1088  18.408  23.224   7.131
    3AU     LIG 1089  18.474  23.493   7.146
    3AU     LIG 1090  18.508  23.725   7.130
    3AU     LIG 1091  18.571  23.968   7.042
    3AU       S 1092  18.918  22.736   8.364
    3AU     LIG 1093  18.993  22.955   8.543
    3AU     LIG 1094  19.094  23.036   8.736
    3AU     LIG 1095  19.220  23.054   8.967
    3AU       S 1096  18.620  23.297   7.734
    3AU     LIG 1097  18.652  23.570   7.718
    3AU     LIG 1098  18.627  23.780   7.875
    3AU     LIG 1099  18.639  23.964   8.040
    3AU       S 1100  18.341  20.887   8.062
    3AU     LIG 1101  18.460  20.681   8.213
    3AU     LIG 1102  18.448  20.474   8.334
    3AU     LIG 1103  18.429  20.237   8.434
    3AU       S 1104  18.824  21.120   7.902
    3AU     LIG 1105  18.928  20.816   7.827
    3AU     LIG 1106  19.088  20.682   7.925
    3AU     LIG 1107  19.300  20.582   8.057
    3AU       S 1108  18.089  20.801   7.896
    3AU     LIG 1109  18.040  20.534   7.918
    3AU     LIG 1110  18.062  20.316   8.033
    3AU     LIG 1111  18.052  20.078   8.129
    3AU       S 1112  17.683  21.427   8.386
    3AU     LIG 1113  17.556  21.209   8.570
    3AU     LIG 1114  17.419  21.035   8.640
    3AU     LIG 1115  17.282  20.841   8.762
    3AU       S 1116  18.407  20.897   7.221
    3AU     LIG 1117  18.346  20.569   7.210
    3AU     LIG 1118  18.331  20.373   7.090
    3AU     LIG 1119  18.331  20.106   7.027
    3AU       S 1120  18.421  20.850   7.758
    3AU     LIG 1121  18.521  20.548   7.712
    3AU     LIG 1122  18.534  20.351   7.838
    3AU     LIG 1123  18.528  20.105   7.941
    3AU       S 1124  18.260  23.144   6.835
    3AU     LIG 1125  18.266  23.373   6.681
    3AU     LIG 1126  18.389  23.589   6.641
    3AU     LIG 1127  18.455  23.823   6.564
    3AU       S 1128  19.099  22.920   6.958
    3AU     LIG 1129  19.297  23.124   6.901
    3AU     LIG 1130  19.456  23.198   6.721
    3AU     LIG 1131  19.604  23.320   6.558
    3AU       S 1132  18.057  23.165   7.112
    3AU     LIG 1133  17.945  23.443   7.085
    3AU     LIG 1134  18.002  23.669   6.998
    3AU     LIG 1135  18.076  23.894   6.907
    3AU       S 1136  17.619  22.575   6.654
    3AU     LIG 1137  17.559  22.710   6.415
    3AU     LIG 1138  17.569  22.940   6.319
    3AU     LIG 1139  17.542  23.179   6.239
    3AU       S 1140  17.564  21.243   7.029
    3AU     LIG 1141  17.307  21.070   6.950
    3AU     LIG 1142  17.220  20.928   6.784
    3AU     LIG 1143  17.134  20.755   6.606
    3AU       S 1144  18.477  20.936   6.941
    3AU     LIG 1145  18.594  20.757   6.769
    3AU     LIG 1146  18.567  20.547   6.646
    3AU     LIG 1147  18.491  20.309   6.582
    3AU       S 1148  18.670  20.937   7.324
    3AU     LIG 1149  18.834  20.696   7.293
    3AU     LIG 1150  18.841  20.490   7.128
    3AU     LIG 1151  18.826  20.273   6.984
    3AU       S 1152  18.931  21.446   6.673
    3AU     LIG 1153  18.917  21.268   6.470
    3AU     LIG 1154  18.907  21.040   6.376
    3AU     LIG 1155  18.958  20.837   6.221
    4AU     AUC 1156  -1.683  35.169   7.535
    4AU     AUC 1157  -1.431  35.174   7.369
    4AU     AUC 1158  -1.442  35.161   7.699
    4AU     AUC 1159  -1.953  35.177   7.380
    4AU     AUC 1160  -1.927  35.206   7.705
    4AU     AUC 1161  -1.844  35.422   7.513
    4AU     AUC 1162  -1.497  35.434   7.516
    4AU     AUC 1163  -1.862  34.915   7.543
    4AU     AUC 1164  -1.531  34.893   7.545
    4AU     AUC 1165  -1.689  35.009   7.798
    4AU     AUC 1166  -1.670  35.349   7.779
    4AU     AUC 1167  -1.696  34.996   7.287
    4AU     AUC 1168  -1.676  35.302   7.271
    4AU     AUC 1169  -1.128  35.165   7.204
    4AU     AUC 1170  -1.120  35.145   7.545
    4AU     AUC 1171  -1.162  35.132   7.899
    4AU     AUC 1172  -2.255  35.151   7.228
    4AU     AUC 1173  -2.256  35.210   7.556
    4AU     AUC 1174  -2.227  35.249   7.888
    4AU     AUC 1175  -2.009  35.735   7.474
    4AU     AUC 1176  -1.649  35.709   7.457
    4AU     AUC 1177  -1.283  35.697   7.487
    4AU     AUC 1178  -2.066  34.626   7.548
    4AU     AUC 1179  -1.715  34.602   7.529
    4AU     AUC 1180  -1.359  34.591   7.546
    4AU     AUC 1181  -1.730  34.843   8.101
    4AU     AUC 1182  -1.693  35.185   8.101
    4AU     AUC 1183  -1.636  35.549   8.062
    4AU     AUC 1184  -1.665  34.806   6.997
    4AU     AUC 1185  -1.717  35.147   6.973
    4AU     AUC 1186  -1.720  35.470   6.957
    4AU     AUC 1187  -1.448  34.947   8.012
    4AU     AUC 1188  -1.392  35.323   7.987
    4AU     AUC 1189  -1.393  35.009   7.072
    4AU     AUC 1190  -1.428  35.321   7.079
    4AU     AUC 1191  -1.982  35.067   8.000
    4AU     AUC 1192  -1.935  35.417   7.971
    4AU     AUC 1193  -1.971  34.966   7.103
    4AU     AUC 1194  -2.017  35.294   7.083
    4AU     AUC 1195  -1.190  35.437   7.346
    4AU     AUC 1196  -1.224  35.434   7.705
    4AU     AUC 1197  -2.149  35.449   7.383
    4AU     AUC 1198  -2.104  35.515   7.713
    4AU     AUC 1199  -1.227  34.886   7.407
    4AU     AUC 1200  -1.279  34.840   7.739
    4AU     AUC 1201  -2.148  34.863   7.373
    4AU     AUC 1202  -2.122  34.937   7.716
    4AU     AUC 1203  -1.784  35.667   7.782
    4AU     AUC 1204  -1.445  35.622   7.793
    4AU     AUC 1205  -1.897  34.734   7.817
    4AU     AUC 1206  -1.579  34.681   7.809
    4AU     AUC 1207  -1.874  35.600   7.215
    4AU     AUC 1208  -1.509  35.616   7.226
    4AU     AUC 1209  -1.843  34.702   7.258
    4AU     AUC 1210  -1.483  34.747   7.274
    4AU    AUSL 1211  -1.184  35.037   8.316
    4AU    AUSL 1212  -1.434  34.664   8.222
    4AU     AUL 1213  -1.127  34.665   8.389
    4AU    AUSL 1214  -1.599  34.979   8.460
    4AU    AUSL 1215  -1.837  35.388   8.451
    4AU     AUL 1216  -1.601  35.263   8.710
    4AU    AUSL 1217  -1.500  35.336   8.204
    4AU    AUSL 1218  -1.049  35.395   8.126
    4AU     AUL 1219  -1.231  35.360   8.435
    4AU    AUSL 1220  -1.276  35.197   6.840
    4AU    AUSL 1221  -1.415  35.593   6.981
    4AU     AUL 1222  -1.201  35.525   6.681
    4AU    AUSL 1223  -1.464  34.875   6.612
    4AU    AUSL 1224  -0.957  34.945   6.982
    4AU     AUL 1225  -1.089  35.019   6.665
    4AU    AUSL 1226  -1.632  35.379   6.670
    4AU    AUSL 1227  -1.810  34.993   6.829
    4AU     AUL 1228  -1.679  35.072   6.524
    4AU    AUSL 1229  -2.221  35.350   8.243
    4AU    AUSL 1230  -1.858  35.659   8.111
    4AU     AUL 1231  -2.021  35.627   8.412
    4AU    AUSL 1232  -1.920  35.037   8.191
    4AU    AUSL 1233  -2.369  34.960   8.105
    4AU     AUL 1234  -2.312  35.049   8.341
    4AU    AUSL 1235  -2.246  34.975   6.795
    4AU    AUSL 1236  -1.997  34.625   6.947
    4AU     AUL 1237  -1.973  34.711   6.641
    4AU    AUSL 1238  -2.060  35.343   6.675
    4AU    AUSL 1239  -2.340  35.324   7.050
    4AU     AUL 1240  -2.457  35.205   6.776
    4AU    AUSL 1241  -0.892  35.632   7.476
    4AU    AUSL 1242  -1.017  35.422   7.096
    4AU     AUL 1243  -0.722  35.627   7.128
    4AU    AUSL 1244  -0.727  35.236   7.367
    4AU    AUSL 1245  -0.778  34.938   7.768
    4AU     AUL 1246  -0.516  35.022   7.571
    4AU    AUSL 1247  -1.005  35.291   7.718
    4AU    AUSL 1248  -1.047  35.735   7.853
    4AU     AUL 1249  -0.799  35.475   7.878
    4AU    AUSL 1250  -2.258  35.812   7.522
    4AU    AUSL 1251  -2.221  35.564   7.878
    4AU     AUL 1252  -2.530  35.809   7.745
    4AU    AUSL 1253  -2.459  35.433   7.444
    4AU    AUSL 1254  -2.306  35.749   7.106
    4AU     AUL 1255  -2.542  35.674   7.263
    4AU    AUSL 1256  -2.586  35.355   7.888
    4AU    AUSL 1257  -2.619  35.049   7.349
    4AU     AUL 1258  -2.741  35.366   7.590
    4AU    AUSL 1259  -1.000  34.589   7.615
    4AU    AUSL 1260  -1.174  34.872   7.925
    4AU     AUL 1261  -0.867  34.778   8.001
    4AU    AUSL 1262  -1.042  34.959   7.397
    4AU    AUSL 1263  -1.052  34.557   7.188
    4AU     AUL 1264  -0.808  34.767   7.250
    4AU    AUSL 1265  -2.466  34.670   7.553
    4AU    AUSL 1266  -2.255  34.880   7.205
    4AU     AUL 1267  -2.605  34.773   7.213
    4AU    AUSL 1268  -2.349  35.071   7.694
    4AU    AUSL 1269  -2.159  34.687   7.849
    4AU     AUL 1270  -2.540  34.840   7.848
    4AU    AUSL 1271  -1.617  35.995   7.966
    4AU    AUSL 1272  -2.072  35.974   7.878
    4AU     AUL 1273  -1.850  36.019   8.194
    4AU    AUSL 1274  -1.785  35.850   7.591
    4AU    AUSL 1275  -1.534  35.983   7.247
    4AU     AUL 1276  -1.765  36.190   7.554
    4AU    AUSL 1277  -1.347  35.926   7.623
    4AU    AUSL 1278  -1.353  35.725   8.153
    4AU     AUL 1279  -1.234  36.015   7.941
    4AU    AUSL 1280  -1.759  34.529   7.970
    4AU    AUSL 1281  -1.335  34.470   7.849
    4AU     AUL 1282  -1.574  34.408   8.223
    4AU    AUSL 1283  -2.067  34.307   7.699
    4AU    AUSL 1284  -2.039  34.644   8.274
    4AU     AUL 1285  -2.031  34.346   8.050
    4AU    AUSL 1286  -1.635  34.232   7.667
    4AU    AUSL 1287  -1.842  34.477   7.362
    4AU     AUL 1288  -1.959  34.132   7.487
    4AU    AUSL 1289  -1.707  35.868   6.843
    4AU    AUSL 1290  -1.135  35.846   7.199
    4AU     AUL 1291  -1.391  35.956   6.936
    4AU    AUSL 1292  -1.956  35.962   7.210
    4AU    AUSL 1293  -1.933  35.551   7.014
    4AU     AUL 1294  -2.026  35.857   6.856
    4AU    AUSL 1295  -1.617  34.425   6.981
    4AU    AUSL 1296  -2.250  34.439   7.258
    4AU     AUL 1297  -1.954  34.291   7.043
    4AU    AUSL 1298  -1.410  34.449   7.381
    4AU    AUSL 1299  -1.387  34.782   7.018
    4AU     AUL 1300  -1.293  34.409   7.050
    4AU       S 1301  -1.162  34.214   8.227
    4AU     LIG 1302  -1.115  33.980   8.352
    4AU     LIG 1303  -0.993  33.820   8.479
    4AU     LIG 1304  -0.835  33.643   8.590
    4AU       S 1305  -1.128  35.004   8.719
    4AU     LIG 1306  -0.965  35.062   8.921
    4AU     LIG 1307  -0.875  35.118   9.146
    4AU     LIG 1308  -0.769  35.085   9.383
    4AU       S 1309  -1.450  34.811   8.725
    4AU     LIG 1310  -1.394  34.717   9.005
    4AU     LIG 1311  -1.228  34.733   9.203
    4AU     LIG 1312  -1.094  34.688   9.419
    4AU       S 1313  -2.075  35.301   8.757
    4AU     LIG 1314  -2.112  35.325   9.059
    4AU     LIG 1315  -2.230  35.310   9.261
    4AU     LIG 1316  -2.378  35.287   9.479
    4AU       S 1317  -1.550  35.735   8.566
    4AU     LIG 1318  -1.433  35.872   8.771
    4AU     LIG 1319  -1.220  35.792   8.933
    4AU     LIG 1320  -0.997  35.666   8.947
    4AU       S 1321  -0.858  35.627   8.334
    4AU     LIG 1322  -0.675  35.667   8.555
    4AU     LIG 1323  -0.535  35.824   8.669
    4AU     LIG 1324  -0.359  36.000   8.744
    4AU       S 1325  -1.257  35.256   6.306
    4AU     LIG 1326  -1.042  35.311   6.093
    4AU     LIG 1327  -0.908  35.145   5.955
    4AU     LIG 1328  -0.848  34.954   5.795
    4AU       S 1329  -1.042  35.956   6.652
    4AU     LIG 1330  -0.996  36.149   6.462
    4AU     LIG 1331  -0.833  36.239   6.288
    4AU     LIG 1332  -0.668  36.330   6.123
    4AU       S 1333  -0.782  34.667   6.768
    4AU     LIG 1334  -0.620  34.580   6.527
    4AU     LIG 1335  -0.606  34.361   6.388
    4AU     LIG 1336  -0.590  34.106   6.348
    4AU       S 1337  -1.336  34.961   6.240
    4AU     LIG 1338  -1.314  34.837   6.011
    4AU     LIG 1339  -1.327  34.764   5.771
    4AU     LIG 1340  -1.256  34.744   5.521
    4AU       S 1341  -2.070  35.021   6.303
    4AU     LIG 1342  -2.015  34.988   6.024
    4AU     LIG 1343  -2.009  34.934   5.795
    4AU     LIG 1344  -2.085  34.893   5.540
    4AU       S 1345  -1.500  35.402   6.264
    4AU     LIG 1346  -1.599  35.336   5.973
    4AU     LIG 1347  -1.457  35.261   5.780
    4AU     LIG 1348  -1.264  35.253   5.607
    4AU       S 1349  -2.351  35.389   8.643
    4AU     LIG 1350  -2.562  35.364   8.819
    4AU     LIG 1351  -2.616  35.148   8.977
    4AU     LIG 1352  -2.686  35.016   9.166
    4AU       S 1353  -2.320  35.947   8.268
    4AU     LIG 1354  -2.406  36.102   8.501
    4AU     LIG 1355  -2.547  36.113   8.694
    4AU     LIG 1356  -2.716  36.202   8.877
    4AU       S 1357  -2.597  34.681   8.284
    4AU     LIG 1358  -2.843  34.612   8.381
    4AU     LIG 1359  -2.988  34.420   8.457
    4AU     LIG 1360  -3.115  34.238   8.575
    4AU       S 1361  -2.026  35.009   8.684
    4AU     LIG 1362  -2.103  34.833   8.887
    4AU     LIG 1363  -2.216  34.813   9.105
    4AU     LIG 1364  -2.261  34.799   9.361
    4AU       S 1365  -2.332  34.933   6.418
    4AU     LIG 1366  -2.511  34.863   6.208
    4AU     LIG 1367  -2.522  34.934   5.957
    4AU     LIG 1368  -2.534  35.044   5.737
    4AU       S 1369  -2.298  34.385   6.745
    4AU     LIG 1370  -2.372  34.198   6.540
    4AU     LIG 1371  -2.530  34.156   6.354
    4AU     LIG 1372  -2.714  34.107   6.184
    4AU       S 1373  -2.668  35.611   6.798
    4AU     LIG 1374  -2.875  35.780   6.744
    4AU     LIG 1375  -2.927  35.979   6.588
    4AU     LIG 1376  -2.951  36.102   6.367
    4AU       S 1377  -2.170  35.289   6.393
    4AU     LIG 1378  -2.337  35.390   6.139
    4AU     LIG 1379  -2.254  35.427   5.913
    4AU     LIG 1380  -2.146  35.407   5.679
    4AU       S 1381  -0.811  35.770   6.708
    4AU     LIG 1382  -0.596  35.816   6.537
    4AU     LIG 1383  -0.439  35.928   6.389
    4AU     LIG 1384  -0.258  36.047   6.245
    4AU       S 1385  -0.559  35.746   7.556
    4AU     LIG 1386  -0.346  35.950   7.540
    4AU     LIG 1387  -0.102  35.994   7.511
    4AU     LIG 1388   0.151  36.057   7.532
    4AU       S 1389  -0.383  35.447   7.388
    4AU     LIG 1390  -0.114  35.518   7.293
    4AU     LIG 1391   0.126  35.584   7.306
    4AU     LIG 1392   0.348  35.698   7.226
    4AU       S 1393  -0.519  34.568   7.790
    4AU     LIG 1394  -0.284  34.466   7.920
    4AU     LIG 1395  -0.031  34.461   7.859
    4AU     LIG 1396   0.218  34.429   7.780
    4AU       S 1397  -0.822  35.875   8.127
    4AU     LIG 1398  -0.627  36.052   8.210
    4AU     LIG 1399  -0.582  36.251   8.357
    4AU     LIG 1400  -0.563  36.430   8.540
    4AU       S 1401  -0.412  35.479   7.663
    4AU     LIG 1402  -0.174  35.550   7.814
    4AU     LIG 1403   0.063  35.617   7.811
    4AU     LIG 1404   0.293  35.707   7.878
    4AU       S 1405  -2.486  35.724   8.203
    4AU     LIG 1406  -2.725  35.716   8.380
    4AU     LIG 1407  -2.911  35.855   8.444
    4AU     LIG 1408  -3.087  35.974   8.594
    4AU       S 1409  -2.319  36.148   7.463
    4AU     LIG 1410  -2.479  36.356   7.335
    4AU     LIG 1411  -2.725  36.336   7.239
    4AU     LIG 1412  -2.913  36.179   7.123
    4AU       S 1413  -2.883  35.367   7.139
    4AU     LIG 1414  -3.121  35.372   7.071
    4AU     LIG 1415  -3.376  35.448   7.141
    4AU     LIG 1416  -3.521  35.661   7.163
    4AU       S 1417  -2.453  36.021   6.929
    4AU     LIG 1418  -2.526  36.229   6.787
    4AU     LIG 1419  -2.668  36.408   6.702
    4AU     LIG 1420  -2.799  36.563   6.537
    4AU       S 1421  -2.972  34.963   7.449
    4AU     LIG 1422  -3.249  34.953   7.337
    4AU     LIG 1423  -3.492  34.935   7.332
    4AU     LIG 1424  -3.726  34.814   7.284
    4AU       S 1425  -2.781  35.282   8.097
    4AU     LIG 1426  -3.094  35.386   8.182
    4AU     LIG 1427  -3.211  35.598   8.094
    4AU     LIG 1428  -3.391  35.745   7.968
    4AU       S 1429  -0.789  34.398   7.606
    4AU     LIG 1430  -0.655  34.096   7.622
    4AU     LIG 1431  -0.427  34.030   7.697
    4AU     LIG 1432  -0.156  34.016   7.655
    4AU       S 1433  -0.945  34.337   8.066
    4AU     LIG 1434  -0.698  34.201   8.105
    4AU     LIG 1435  -0.568  34.113   8.287
    4AU     LIG 1436  -0.521  34.043   8.537
    4AU       S 1437  -0.532  34.548   7.519
    4AU     LIG 1438  -0.309  34.426   7.383
    4AU     LIG 1439  -0.068  34.427   7.343
    4AU     LIG 1440   0.173  34.355   7.280
    4AU       S 1441  -0.840  34.405   6.925
    4AU     LIG 1442  -0.775  34.145   6.822
    4AU     LIG 1443  -0.902  33.922   6.774
    4AU     LIG 1444  -0.943  33.703   6.659
    4AU       S 1445  -2.475  34.580   6.817
    4AU     LIG 1446  -2.708  34.590   6.620
    4AU     LIG 1447  -2.885  34.473   6.527
    4AU     LIG 1448  -3.091  34.315   6.465
    4AU       S 1449  -2.890  34.672   7.583
    4AU     LIG 1450  -3.107  34.506   7.588
    4AU     LIG 1451  -3.334  34.458   7.482
    4AU     LIG 1452  -3.567  34.354   7.441
    4AU       S 1453  -2.478  34.451   8.082
    4AU     LIG 1454  -2.654  34.243   8.068
    4AU     LIG 1455  -2.774  34.057   8.174
    4AU     LIG 1456  -2.907  33.871   8.287
    4AU       S 1457  -2.948  34.967   7.713
    4AU     LIG 1458  -3.182  34.939   7.888
    4AU     LIG 1459  -3.421  34.847   7.835
    4AU     LIG 1460  -3.630  34.712   7.809
    4AU       S 1461  -2.279  36.166   7.989
    4AU     LIG 1462  -2.514  36.355   8.062
    4AU     LIG 1463  -2.739  36.318   8.206
    4AU     LIG 1464  -2.871  36.395   8.412
    4AU       S 1465  -1.536  36.352   8.053
    4AU     LIG 1466  -1.425  36.539   8.255
    4AU     LIG 1467  -1.537  36.729   8.380
    4AU     LIG 1468  -1.682  36.930   8.444
    4AU       S 1469  -1.774  36.487   7.925
    4AU     LIG 1470  -1.863  36.712   7.968
    4AU     LIG 1471  -1.889  36.971   7.984
    4AU     LIG 1472  -1.880  37.222   8.012
    4AU       S 1473  -1.609  36.330   7.131
    4AU     LIG 1474  -1.543  36.599   7.146
    4AU     LIG 1475  -1.509  36.831   7.130
    4AU     LIG 1476  -1.446  37.074   7.042
    4AU       S 1477  -1.099  35.842   8.364
    4AU     LIG 1478  -1.024  36.061   8.543
    4AU     LIG 1479  -0.923  36.142   8.736
    4AU     LIG 1480  -0.797  36.160   8.967
    4AU       S 1481  -1.397  36.403   7.734
    4AU     LIG 1482  -1.365  36.676   7.718
    4AU     LIG 1483  -1.390  36.886   7.875
    4AU     LIG 1484  -1.378  37.070   8.040
    4AU       S 1485  -1.676  33.993   8.062
    4AU     LIG 1486  -1.557  33.787   8.213
    4AU     LIG 1487  -1.569  33.580   8.334
    4AU     LIG 1488  -1.588  33.343   8.434
    4AU       S 1489  -1.193  34.226   7.902
    4AU     LIG 1490  -1.089  33.922   7.827
    4AU     LIG 1491  -0.929  33.788   7.925
    4AU     LIG 1492  -0.717  33.688   8.057
    4AU       S 1493  -1.928  33.907   7.896
    4AU     LIG 1494  -1.977  33.640   7.918
    4AU     LIG 1495  -1.955  33.422   8.033
    4AU     LIG 1496  -1.965  33.184   8.129
    4AU       S 1497  -2.334  34.533   8.386
    4AU     LIG 1498  -2.461  34.315   8.570
    4AU     LIG 1499  -2.598  34.141   8.640
    4AU     LIG 1500  -2.735  33.947   8.762
    4AU       S 1501  -1.610  34.003   7.221
    4AU     LIG 1502  -1.671  33.675   7.210
    4AU     LIG 1503  -1.686  33.479   7.090
    4AU     LIG 1504  -1.686  33.212   7.027
    4AU       S 1505  -1.596  33.956   7.758
    4AU     LIG 1506  -1.496  33.654   7.712
    4AU     LIG 1507  -1.483  33.457   7.838
    4AU     LIG 1508  -1.489  33.211   7.941
    4AU       S 1509  -1.757  36.250   6.835
    4AU     LIG 1510  -1.751  36.479   6.681
    4AU     LIG 1511  -1.628  36.695   6.641
    4AU     LIG 1512  -1.562  36.929   6.564
    4AU       S 1513  -0.918  36.026   6.958
    4AU     LIG 1514  -0.720  36.230   6.901
    4AU     LIG 1515  -0.561  36.304   6.721
    4AU     LIG 1516  -0.413  36.426   6.558
    4AU       S 1517  -1.960  36.271   7.112
    4AU     LIG 1518  -2.072  36.549   7.085
    4AU     LIG 1519  -2.015  36.775   6.998
    4AU     LIG 1520  -1.941  37.000   6.907
    4AU       S 1521  -2.398  35.681   6.654
    4AU     LIG 1522  -2.458  35.816   6.415
    4AU     LIG 1523  -2.448  36.046   6.319
    4AU     LIG 1524  -2.475  36.285   6.239
    4AU       S 1525  -2.453  34.349   7.029
    4AU     LIG 1526  -2.710  34.176   6.950
    4AU     LIG 1527  -2.797  34.034   6.784
    4AU     LIG 1528  -2.883  33.861   6.606
    4AU       S 1529  -1.540  34.042   6.941
    4AU     LIG 1530  -1.423  33.863   6.769
    4AU     LIG 1531  -1.450  33.653   6.646
    4AU     LIG 1532  -1.526  33.415   6.582
    4AU       S 1533  -1.347  34.043   7.324
    4AU     LIG 1534  -1.183  33.802   7.293
    4AU     LIG 1535  -1.176  33.596   7.128
    4AU     LIG 1536  -1.191  33.379   6.984
    4AU       S 1537  -1.086  34.552   6.673
    4AU     LIG 1538  -1.100  34.374   6.470
    4AU     LIG 1539  -1.110  34.146   6.376
    4AU     LIG 1540  -1.059  33.943   6.221
    5AU     AUC 1541  42.948  17.930   7.535
    5AU     AUC 1542  43.200  17.935   7.369
    5AU     AUC 1543  43.189  17.922   7.699
    5AU     AUC 1544  42.678  17.938   7.380
    5AU     AUC 1545  42.704  17.967   7.705
    5AU     AUC 1546  42.787  18.183   7.513
    5AU     AUC 1547  43.134  18.195   7.516
    5AU     AUC 1548  42.769  17.676   7.543
    5AU     AUC 1549  43.100  17.654   7.545
    5AU     AUC 1550  42.942  17.770   7.798
    5AU     AUC 1551  42.961  18.110   7.779
    5AU     AUC 1552  42.935  17.757   7.287
    5AU     AUC 1553  42.955  18.063   7.271
    5AU     AUC 1554  43.503  17.926   7.204
    5AU     AUC 1555  43.511  17.906   7.545
    5AU     AUC 1556  43.469  17.893   7.899
    5AU     AUC 1557  42.376  17.912   7.228
    5AU     AUC 1558  42.375  17.971   7.556
    5AU     AUC 1559  42.404  18.010   7.888
    5AU     AUC 1560  42.622  18.496   7.474
    5AU     AUC 1561  42.982  18.470   7.457
    5AU     AUC 1562  43.348  18.458   7.487
    5AU     AUC 1563  42.565  17.387   7.548
    5AU     AUC 1564  42.916  17.363   7.529
    5AU     AUC 1565  43.272  17.352   7.546
    5AU     AUC 1566  42.901  17.604   8.101
    5AU     AUC 1567  42.938  17.946   8.101
    5AU     AUC 1568  42.995  18.310   8.062
    5AU     AUC 1569  42.966  17.567   6.997
    5AU     AUC 1570  42.914  17.908   6.973
    5AU     AUC 1571  42.911  18.231   6.957
    5AU     AUC 1572  43.183  17.708   8.012
    5AU     AUC 1573  43.239  18.084   7.987
    5AU     AUC 1574  43.238  17.770   7.072
    5AU     AUC 1575  43.203  18.082   7.079
    5AU     AUC 1576  42.649  17.828   8.000
    5AU     AUC 1577  42.696  18.178   7.971
    5AU     AUC 1578  42.660  17.727   7.103
    5AU     AUC 1579  42.614  18.055   7.083
    5AU     AUC 1580  43.441  18.198   7.346
    5AU     AUC 1581  43.407  18.195   7.705
    5AU     AUC 1582  42.482  18.210   7.383
    5AU     AUC 1583  42.527  18.276   7.713
    5AU     AUC 1584  43.404  17.647   7.407
    5AU     AUC 1585  43.352  17.601   7.739
    5AU     AUC 1586  42.483  17.624   7.373
    5AU     AUC 1587  42.509  17.698   7.716
    5AU     AUC 1588  42.847  18.428   7.782
    5AU     AUC 1589  43.186  18.383   7.793
    5AU     AUC 1590  42.734  17.495   7.817
    5AU     AUC 1591  43.052  17.442   7.809
    5AU     AUC 1592  42.757  18.361   7.215
    5AU     AUC 1593  43.122  18.377   7.226
    5AU     AUC 1594  42.788  17.463   7.258
    5AU     AUC 1595  43.148  17.508   7.274
    5AU    AUSL 1596  43.447  17.798   8.316
    5AU    AUSL 1597  43.197  17.425   8.222
    5AU     AUL 1598  43.504  17.426   8.389
    5AU    AUSL 1599  43.032  17.740   8.460
    5AU    AUSL 1600  42.794  18.149   8.451
    5AU     AUL 1601  43.030  18.024   8.710
    5AU    AUSL 1602  43.131  18.097   8.204
    5AU    AUSL 1603  43.582  18.156   8.126
    5AU     AUL 1604  43.400  18.121   8.435
    5AU    AUSL 1605  43.355  17.958   6.840
    5AU    AUSL 1606  43.216  18.354   6.981
    5AU     AUL 1607  43.430  18.286   6.681
    5AU    AUSL 1608  43.167  17.636   6.612
    5AU    AUSL 1609  43.674  17.706   6.982
    5AU     AUL 1610  43.542  17.780   6.665
    5AU    AUSL 1611  42.999  18.140   6.670
    5AU    AUSL 1612  42.821  17.754   6.829
    5AU     AUL 1613  42.952  17.833   6.524
    5AU    AUSL 1614  42.410  18.111   8.243
    5AU    AUSL 1615  42.773  18.420   8.111
    5AU     AUL 1616  42.610  18.388   8.412
    5AU    AUSL 1617  42.711  17.798   8.191
    5AU    AUSL 1618  42.262  17.721   8.105
    5AU     AUL 1619  42.319  17.810   8.341
    5AU    AUSL 1620  42.385  17.736   6.795
    5AU    AUSL 1621  42.634  17.386   6.947
    5AU     AUL 1622  42.658  17.472   6.641
    5AU    AUSL 1623  42.571  18.104   6.675
    5AU    AUSL 1624  42.291  18.085   7.050
    5AU     AUL 1625  42.174  17.966   6.776
    5AU    AUSL 1626  43.739  18.393   7.476
    5AU    AUSL 1627  43.614  18.183   7.096
    5AU     AUL 1628  43.909  18.388   7.128
    5AU    AUSL 1629  43.904  17.997   7.367
    5AU    AUSL 1630  43.853  17.699   7.768
    5AU     AUL 1631  44.115  17.783   7.571
    5AU    AUSL 1632  43.626  18.052   7.718
    5AU    AUSL 1633  43.584  18.496   7.853
    5AU     AUL 1634  43.832  18.236   7.878
    5AU    AUSL 1635  42.373  18.573   7.522
    5AU    AUSL 1636  42.410  18.325   7.878
    5AU     AUL 1637  42.101  18.570   7.745
    5AU    AUSL 1638  42.172  18.194   7.444
    5AU    AUSL 1639  42.325  18.510   7.106
    5AU     AUL 1640  42.089  18.435   7.263
    5AU    AUSL 1641  42.045  18.116   7.888
    5AU    AUSL 1642  42.012  17.810   7.349
    5AU     AUL 1643  41.890  18.127   7.590
    5AU    AUSL 1644  43.631  17.350   7.615
    5AU    AUSL 1645  43.457  17.633   7.925
    5AU     AUL 1646  43.764  17.539   8.001
    5AU    AUSL 1647  43.589  17.720   7.397
    5AU    AUSL 1648  43.579  17.318   7.188
    5AU     AUL 1649  43.823  17.528   7.250
    5AU    AUSL 1650  42.165  17.431   7.553
    5AU    AUSL 1651  42.376  17.641   7.205
    5AU     AUL 1652  42.026  17.534   7.213
    5AU    AUSL 1653  42.282  17.832   7.694
    5AU    AUSL 1654  42.472  17.448   7.849
    5AU     AUL 1655  42.091  17.601   7.848
    5AU    AUSL 1656  43.014  18.756   7.966
    5AU    AUSL 1657  42.559  18.735   7.878
    5AU     AUL 1658  42.781  18.780   8.194
    5AU    AUSL 1659  42.846  18.611   7.591
    5AU    AUSL 1660  43.097  18.744   7.247
    5AU     AUL 1661  42.866  18.951   7.554
    5AU    AUSL 1662  43.284  18.687   7.623
    5AU    AUSL 1663  43.278  18.486   8.153
    5AU     AUL 1664  43.397  18.776   7.941
    5AU    AUSL 1665  42.872  17.290   7.970
    5AU    AUSL 1666  43.296  17.231   7.849
    5AU     AUL 1667  43.057  17.169   8.223
    5AU    AUSL 1668  42.564  17.068   7.699
    5AU    AUSL 1669  42.592  17.405   8.274
    5AU     AUL 1670  42.600  17.107   8.050
    5AU    AUSL 1671  42.996  16.993   7.667
    5AU    AUSL 1672  42.789  17.238   7.362
    5AU     AUL 1673  42.672  16.893   7.487
    5AU    AUSL 1674  42.924  18.629   6.843
    5AU    AUSL 1675  43.496  18.607   7.199
    5AU     AUL 1676  43.240  18.717   6.936
    5AU    AUSL 1677  42.675  18.723   7.210
    5AU    AUSL 1678  42.698  18.312   7.014
    5AU     AUL 1679  42.605  18.618   6.856
    5AU    AUSL 1680  43.014  17.186   6.981
    5AU    AUSL 1681  42.381  17.200   7.258
    5AU     AUL 1682  42.677  17.052   7.043
    5AU    AUSL 1683  43.221  17.210   7.381
    5AU    AUSL 1684  43.244  17.543   7.018
    5AU     AUL 1685  43.338  17.170   7.050
    5AU       S 1686  43.469  16.975   8.227
    5AU     LIG 1687  43.516  16.741   8.352
    5AU     LIG 1688  43.638  16.581   8.479
    5AU     LIG 1689  43.796  16.404   8.590
    5AU       S 1690  43.503  17.765   8.719
    5AU     LIG 1691  43.666  17.823   8.921
    5AU     LIG 1692  43.756  17.879   9.146
    5AU     LIG 1693  43.862  17.846   9.383
    5AU       S 1694  43.181  17.572   8.725
    5AU     LIG 1695  43.237  17.478   9.005
    5AU     LIG 1696  43.403  17.494   9.203
    5AU     LIG 1697  43.537  17.449   9.419
    5AU       S 1698  42.556  18.062   8.757
    5AU     LIG 1699  42.519  18.086   9.059
    5AU     LIG 1700  42.401  18.071   9.261
    5AU     LIG 1701  42.253  18.048   9.479
    5AU       S 1702  43.081  18.496   8.566
    5AU     LIG 1703  43.198  18.633   8.771
    5AU     LIG 1704  43.411  18.553   8.933
    5AU     LIG 1705  43.634  18.427   8.947
    5AU       S 1706  43.773  18.388   8.334
    5AU     LIG 1707  43.956  18.428   8.555
    5AU     LIG 1708  44.096  18.585   8.669
    5AU     LIG 1709  44.272  18.761   8.744
    5AU       S 1710  43.374  18.017   6.306
    5AU     LIG 1711  43.589  18.072   6.093
    5AU     LIG 1712  43.723  17.906   5.955
    5AU     LIG 1713  43.783  17.715   5.795
    5AU       S 1714  43.589  18.717   6.652
    5AU     LIG 1715  43.635  18.910   6.462
    5AU     LIG 1716  43.798  19.000   6.288
    5AU     LIG 1717  43.963  19.091   6.123
    5AU       S 1718  43.849  17.428   6.768
    5AU     LIG 1719  44.011  17.341   6.527
    5AU     LIG 1720  44.025  17.122   6.388
    5AU     LIG 1721  44.041  16.867   6.348
    5AU       S 1722  43.295  17.722   6.240
    5AU     LIG 1723  43.317  17.598   6.011
    5AU     LIG 1724  43.304  17.525   5.771
    5AU     LIG 1725  43.375  17.505   5.521
    5AU       S 1726  42.561  17.782   6.303
    5AU     LIG 1727  42.616  17.749   6.024
    5AU     LIG 1728  42.622  17.695   5.795
    5AU     LIG 1729  42.546  17.654   5.540
    5AU       S 1730  43.131  18.163   6.264
    5AU     LIG 1731  43.032  18.097   5.973
    5AU     LIG 1732  43.174  18.022   5.780
    5AU     LIG 1733  43.367  18.014   5.607
    5AU       S 1734  42.280  18.150   8.643
    5AU     LIG 1735  42.069  18.125   8.819
    5AU     LIG 1736  42.015  17.909   8.977
    5AU     LIG 1737  41.945  17.777   9.166
    5AU       S 1738  42.311  18.708   8.268
    5AU     LIG 1739  42.225  18.863   8.501
    5AU     LIG 1740  42.084  18.874   8.694
    5AU     LIG 1741  41.915  18.963   8.877
    5AU       S 1742  42.034  17.442   8.284
    5AU     LIG 1743  41.788  17.373   8.381
    5AU     LIG 1744  41.643  17.181   8.457
    5AU     LIG 1745  41.516  16.999   8.575
    5AU       S 1746  42.605  17.770   8.684
    5AU     LIG 1747  42.528  17.594   8.887
    5AU     LIG 1748  42.415  17.574   9.105
    5AU     LIG 1749  42.370  17.560   9.361
    5AU       S 1750  42.299  17.694   6.418
    5AU     LIG 1751  42.120  17.624   6.208
    5AU     LIG 1752  42.109  17.695   5.957
    5AU     LIG 1753  42.097  17.805   5.737
    5AU       S 1754  42.333  17.146   6.745
    5AU     LIG 1755  42.259  16.959   6.540
    5AU     LIG 1756  42.101  16.917   6.354
    5AU     LIG 1757  41.917  16.868   6.184
    5AU       S 1758  41.963  18.372   6.798
    5AU     LIG 1759  41.756  18.541   6.744
    5AU     LIG 1760  41.704  18.740   6.588
    5AU     LIG 1761  41.680  18.863   6.367
    5AU       S 1762  42.461  18.050   6.393
    5AU     LIG 1763  42.294  18.151   6.139
    5AU     LIG 1764  42.377  18.188   5.913
    5AU     LIG 1765  42.485  18.168   5.679
    5AU       S 1766  43.820  18.531   6.708
    5AU     LIG 1767  44.035  18.577   6.537
    5AU     LIG 1768  44.192  18.689   6.389
    5AU     LIG 1769  44.373  18.808   6.245
    5AU       S 1770  44.072  18.507   7.556
    5AU     LIG 1771  44.285  18.711   7.540
    5AU     LIG 1772  44.529  18.755   7.511
    5AU     LIG 1773  44.782  18.818   7.532
    5AU       S 1774  44.248  18.208   7.388
    5AU     LIG 1775  44.517  18.279   7.293
    5AU     LIG 1776  44.757  18.345   7.306
    5AU     LIG 1777  44.979  18.459   7.226
    5AU       S 1778  44.112  17.329   7.790
    5AU     LIG 1779  44.347  17.227   7.920
    5AU     LIG 1780  44.600  17.222   7.859
    5AU     LIG 1781  44.849  17.190   7.780
    5AU       S 1782  43.809  18.636   8.127
    5AU     LIG 1783  44.004  18.813   8.210
    5AU     LIG 1784  44.049  19.012   8.357
    5AU     LIG 1785  44.068  19.191   8.540
    5AU       S 1786  44.219  18.240   7.663
    5AU     LIG 1787  44.457  18.311   7.814
    5AU     LIG 1788  44.694  18.378   7.811
    5AU     LIG 1789  44.924  18.468   7.878
    5AU       S 1790  42.145  18.485   8.203
    5AU     LIG 1791  41.906  18.477   8.380
    5AU     LIG 1792  41.720  18.616   8.444
    5AU     LIG 1793  41.544  18.735   8.594
    5AU       S 1794  42.312  18.909   7.463
    5AU     LIG 1795  42.152  19.117   7.335
    5AU     LIG 1796  41.906  19.097   7.239
    5AU     LIG 1797  41.718  18.940   7.123
    5AU       S 1798  41.748  18.128   7.139
    5AU     LIG 1799  41.510  18.133   7.071
    5AU     LIG 1800  41.255  18.209   7.141
    5AU     LIG 1801  41.110  18.422   7.163
    5AU       S 1802  42.178  18.782   6.929
    5AU     LIG 1803  42.105  18.990   6.787
    5AU     LIG 1804  41.963  19.169   6.702
    5AU     LIG 1805  41.832  19.324   6.537
    5AU       S 1806  41.659  17.724   7.449
    5AU     LIG 1807  41.382  17.714   7.337
    5AU     LIG 1808  41.139  17.696   7.332
    5AU     LIG 1809  40.905  17.575   7.284
    5AU       S 1810  41.850  18.043   8.097
    5AU     LIG 1811  41.537  18.147   8.182
    5AU     LIG 1812  41.420  18.359   8.094
    5AU     LIG 1813  41.240  18.506   7.968
    5AU       S 1814  43.842  17.159   7.606
    5AU     LIG 1815  43.976  16.857   7.622
    5AU     LIG 1816  44.204  16.791   7.697
    5AU     LIG 1817  44.475  16.777   7.655
    5AU       S 1818  43.686  17.098   8.066
    5AU     LIG 1819  43.933  16.962   8.105
    5AU     LIG 1820  44.063  16.874   8.287
    5AU     LIG 1821  44.110  16.804   8.537
    5AU       S 1822  44.099  17.309   7.519
    5AU     LIG 1823  44.322  17.187   7.383
    5AU     LIG 1824  44.563  17.188   7.343
    5AU     LIG 1825  44.804  17.116   7.280
    5AU       S 1826  43.791  17.166   6.925
    5AU     LIG 1827  43.856  16.906   6.822
    5AU     LIG 1828  43.729  16.683   6.774
    5AU     LIG 1829  43.688  16.464   6.659
    5AU       S 1830  42.156  17.341   6.817
    5AU     LIG 1831  41.923  17.351   6.620
    5AU     LIG 1832  41.746  17.234   6.527
    5AU     LIG 1833  41.540  17.076   6.465
    5AU       S 1834  41.741  17.433   7.583
    5AU     LIG 1835  41.524  17.267   7.588
    5AU     LIG 1836  41.297  17.219   7.482
    5AU     LIG 1837  41.064  17.115   7.441
    5AU       S 1838  42.153  17.212   8.082
    5AU     LIG 1839  41.977  17.004   8.068
    5AU     LIG 1840  41.857  16.818   8.174
    5AU     LIG 1841  41.724  16.632   8.287
    5AU       S 1842  41.683  17.728   7.713
    5AU     LIG 1843  41.449  17.700   7.888
    5AU     LIG 1844  41.210  17.608   7.835
    5AU     LIG 1845  41.001  17.473   7.809
    5AU       S 1846  42.352  18.927   7.989
    5AU     LIG 1847  42.117  19.116   8.062
    5AU     LIG 1848  41.892  19.079   8.206
    5AU     LIG 1849  41.760  19.156   8.412
    5AU       S 1850  43.095  19.113   8.053
    5AU     LIG 1851  43.206  19.300   8.255
    5AU     LIG 1852  43.094  19.490   8.380
    5AU     LIG 1853  42.949  19.691   8.444
    5AU       S 1854  42.857  19.248   7.925
    5AU     LIG 1855  42.768  19.473   7.968
    5AU     LIG 1856  42.742  19.732   7.984
    5AU     LIG 1857  42.751  19.983   8.012
    5AU       S 1858  43.022  19.091   7.131
    5AU     LIG 1859  43.088  19.360   7.146
    5AU     LIG 1860  43.122  19.592   7.130
    5AU     LIG 1861  43.185  19.835   7.042
    5AU       S 1862  43.532  18.603   8.364
    5AU     LIG 1863  43.607  18.822   8.543
    5AU     LIG 1864  43.708  18.903   8.736
    5AU     LIG 1865  43.834  18.921   8.967
    5AU       S 1866  43.234  19.164   7.734
    5AU     LIG 1867  43.266  19.437   7.718
    5AU     LIG 1868  43.241  19.647   7.875
    5AU     LIG 1869  43.253  19.831   8.040
    5AU       S 1870  42.955  16.754   8.062
    5AU     LIG 1871  43.074  16.548   8.213
    5AU     LIG 1872  43.062  16.341   8.334
    5AU     LIG 1873  43.043  16.104   8.434
    5AU       S 1874  43.438  16.987   7.902
    5AU     LIG 1875  43.542  16.683   7.827
    5AU     LIG 1876  43.702  16.549   7.925
    5AU     LIG 1877  43.914  16.449   8.057
    5AU       S 1878  42.703  16.668   7.896
    5AU     LIG 1879  42.654  16.401   7.918
    5AU     LIG 1880  42.676  16.183   8.033
    5AU     LIG 1881  42.666  15.945   8.129
    5AU       S 1882  42.297  17.294   8.386
    5AU     LIG 1883  42.170  17.076   8.570
    5AU     LIG 1884  42.033  16.902   8.640
    5AU     LIG 1885  41.896  16.708   8.762
    5AU       S 1886  43.021  16.764   7.221
    5AU     LIG 1887  42.960  16.436   7.210
    5AU     LIG 1888  42.945  16.240   7.090
    5AU     LIG 1889  42.945  15.973   7.027
    5AU       S 1890  43.035  16.717   7.758
    5AU     LIG 1891  43.135  16.415   7.712
    5AU     LIG 1892  43.148  16.218   7.838
    5AU     LIG 1893  43.142  15.972   7.941
    5AU       S 1894  42.874  19.011   6.835
    5AU     LIG 1895  42.880  19.240   6.681
    5AU     LIG 1896  43.003  19.456   6.641
    5AU     LIG 1897  43.069  19.690   6.564
    5AU       S 1898  43.713  18.787   6.958
    5AU     LIG 1899  43.911  18.991   6.901
    5AU     LIG 1900  44.070  19.065   6.721
    5AU     LIG 1901  44.218  19.187   6.558
    5AU       S 1902  42.671  19.032   7.112
    5AU     LIG 1903  42.559  19.310   7.085
    5AU     LIG 1904  42.616  19.536   6.998
    5AU     LIG 1905  42.690  19.761   6.907
    5AU       S 1906  42.233  18.442   6.654
    5AU     LIG 1907  42.173  18.577   6.415
    5AU     LIG 1908  42.183  18.807   6.319
    5AU     LIG 1909  42.156  19.046   6.239
    5AU       S 1910  42.178  17.110   7.029
    5AU     LIG 1911  41.921  16.937   6.950
    5AU     LIG 1912  41.834  16.795   6.784
    5AU     LIG 1913  41.748  16.622   6.606
    5AU       S 1914  43.091  16.803   6.941
    5AU     LIG 1915  43.208  16.624   6.769
    5AU     LIG 1916  43.181  16.414   6.646
    5AU     LIG 1917  43.105  16.176   6.582
    5AU       S 1918  43.284  16.804   7.324
    5AU     LIG 1919  43.448  16.563   7.293
    5AU     LIG 1920  43.455  16.357   7.128
    5AU     LIG 1921  43.440  16.140   6.984
    5AU       S 1922  43.545  17.313   6.673
    5AU     LIG 1923  43.531  17.135   6.470
    5AU     LIG 1924  43.521  16.907   6.376
    5AU     LIG 1925  43.572  16.704   6.221
    6AU     AUC 1926  41.877  44.437   7.535
    6AU     AUC 1927  42.129  44.442   7.369
    6AU     AUC 1928  42.118  44.429   7.699
    6AU     AUC 1929  41.607  44.445   7.380
    6AU     AUC 1930  41.633  44.474   7.705
    6AU     AUC 1931  41.716  44.690   7.513
    6AU     AUC 1932  42.063  44.702   7.516
    6AU     AUC 1933  41.698  44.183   7.543
    6AU     AUC 1934  42.029  44.161   7.545
    6AU     AUC 1935  41.871  44.277   7.798
    6AU     AUC 1936  41.890  44.617   7.779
    6AU     AUC 1937  41.864  44.264   7.287
    6AU     AUC 1938  41.884  44.570   7.271
    6AU     AUC 1939  42.432  44.433   7.204
    6AU     AUC 1940  42.440  44.413   7.545
    6AU     AUC 1941  42.398  44.400   7.899
    6AU     AUC 1942  41.305  44.419   7.228
    6AU     AUC 1943  41.304  44.478   7.556
    6AU     AUC 1944  41.333  44.517   7.888
    6AU     AUC 1945  41.551  45.003   7.474
    6AU     AUC 1946  41.911  44.977   7.457
    6AU     AUC 1947  42.277  44.965   7.487
    6AU     AUC 1948  41.494  43.894   7.548
    6AU     AUC 1949  41.845  43.870   7.529
    6AU     AUC 1950  42.201  43.859   7.546
    6AU     AUC 1951  41.830  44.111   8.101
    6AU     AUC 1952  41.867  44.453   8.101
    6AU     AUC 1953  41.924  44.817   8.062
    6AU     AUC 1954  41.895  44.074   6.997
    6AU     AUC 1955  41.843  44.415   6.973
    6AU     AUC 1956  41.840  44.738   6.957
    6AU     AUC 1957  42.112  44.215   8.012
    6AU     AUC 1958  42.168  44.591   7.987
    6AU     AUC 1959  42.167  44.277   7.072
    6AU     AUC 1960  42.132  44.589   7.079
    6AU     AUC 1961  41.578  44.335   8.000
    6AU     AUC 1962  41.625  44.685   7.971
    6AU     AUC 1963  41.589  44.234   7.103
    6AU     AUC 1964  41.543  44.562   7.083
    6AU     AUC 1965  42.370  44.705   7.346
    6AU     AUC 1966  42.336  44.702   7.705
    6AU     AUC 1967  41.411  44.717   7.383
    6AU     AUC 1968  41.456  44.783   7.713
    6AU     AUC 1969  42.333  44.154   7.407
    6AU     AUC 1970  42.281  44.108   7.739
    6AU     AUC 1971  41.412  44.131   7.373
    6AU     AUC 1972  41.438  44.205   7.716
    6AU     AUC 1973  41.776  44.935   7.782
    6AU     AUC 1974  42.115  44.890   7.793
    6AU     AUC 1975  41.663  44.002   7.817
    6AU     AUC 1976  41.981  43.949   7.809
    6AU     AUC 1977  41.686  44.868   7.215
    6AU     AUC 1978  42.051  44.884   7.226
    6AU     AUC 1979  41.717  43.970   7.258
    6AU     AUC 1980  42.077  44.015   7.274
    6AU    AUSL 1981  42.376  44.305   8.316
    6AU    AUSL 1982  42.126  43.932   8.222
    6AU     AUL 1983  42.433  43.933   8.389
    6AU    AUSL 1984  41.961  44.247   8.460
    6AU    AUSL 1985  41.723  44.656   8.451
    6AU     AUL 1986  41.959  44.531   8.710
    6AU    AUSL 1987  42.060  44.604   8.204
    6AU    AUSL 1988  42.511  44.663   8.126
    6AU     AUL 1989  42.329  44.628   8.435
    6AU    AUSL 1990  42.284  44.465   6.840
    6AU    AUSL 1991  42.145  44.861   6.981
    6AU     AUL 1992  42.359  44.793   6.681
    6AU    AUSL 1993  42.096  44.143   6.612
    6AU    AUSL 1994  42.603  44.213   6.982
    6AU     AUL 1995  42.471  44.287   6.665
    6AU    AUSL 1996  41.928  44.647   6.670
    6AU    AUSL 1997  41.750  44.261   6.829
    6AU     AUL 1998  41.881  44.340   6.524
    6AU    AUSL 1999  41.339  44.618   8.243
    6AU    AUSL 2000  41.702  44.927   8.111
    6AU     AUL 2001  41.539  44.895   8.412
    6AU    AUSL 2002  41.640  44.305   8.191
    6AU    AUSL 2003  41.191  44.228   8.105
    6AU     AUL 2004  41.248  44.317   8.341
    6AU    AUSL 2005  41.314  44.243   6.795
    6AU    AUSL 2006  41.563  43.893   6.947
    6AU     AUL 2007  41.587  43.979   6.641
    6AU    AUSL 2008  41.500  44.611   6.675
    6AU    AUSL 2009  41.220  44.592   7.050
    6AU     AUL 2010  41.103  44.473   6.776
    6AU    AUSL 2011  42.668  44.900   7.476
    6AU    AUSL 2012  42.543  44.690   7.096
    6AU     AUL 2013  42.838  44.895   7.128
    6AU    AUSL 2014  42.833  44.504   7.367
    6AU    AUSL 2015  42.782  44.206   7.768
    6AU     AUL 2016  43.044  44.290   7.571
    6AU    AUSL 2017  42.555  44.559   7.718
    6AU    AUSL 2018  42.513  45.003   7.853
    6AU     AUL 2019  42.761  44.743   7.878
    6AU    AUSL 2020  41.302  45.080   7.522
    6AU    AUSL 2021  41.339  44.832   7.878
    6AU     AUL 2022  41.030  45.077   7.745
    6AU    AUSL 2023  41.101  44.701   7.444
    6AU    AUSL 2024  41.254  45.017   7.106
    6AU     AUL 2025  41.018  44.942   7.263
    6AU    AUSL 2026  40.974  44.623   7.888
    6AU    AUSL 2027  40.941  44.317   7.349
    6AU     AUL 2028  40.819  44.634   7.590
    6AU    AUSL 2029  42.560  43.857   7.615
    6AU    AUSL 2030  42.386  44.140   7.925
    6AU     AUL 2031  42.693  44.046   8.001
    6AU    AUSL 2032  42.518  44.227   7.397
    6AU    AUSL 2033  42.508  43.825   7.188
    6AU     AUL 2034  42.752  44.035   7.250
    6AU    AUSL 2035  41.094  43.938   7.553
    6AU    AUSL 2036  41.305  44.148   7.205
    6AU     AUL 2037  40.955  44.041   7.213
    6AU    AUSL 2038  41.211  44.339   7.694
    6AU    AUSL 2039  41.401  43.955   7.849
    6AU     AUL 2040  41.020  44.108   7.848
    6AU    AUSL 2041  41.943  45.263   7.966
    6AU    AUSL 2042  41.488  45.242   7.878
    6AU     AUL 2043  41.710  45.287   8.194
    6AU    AUSL 2044  41.775  45.118   7.591
    6AU    AUSL 2045  42.026  45.251   7.247
    6AU     AUL 2046  41.795  45.458   7.554
    6AU    AUSL 2047  42.213  45.194   7.623
    6AU    AUSL 2048  42.207  44.993   8.153
    6AU     AUL 2049  42.326  45.283   7.941
    6AU    AUSL 2050  41.801  43.797   7.970
    6AU    AUSL 2051  42.225  43.738   7.849
    6AU     AUL 2052  41.986  43.676   8.223
    6AU    AUSL 2053  41.493  43.575   7.699
    6AU    AUSL 2054  41.521  43.912   8.274
    6AU     AUL 2055  41.529  43.614   8.050
    6AU    AUSL 2056  41.925  43.500   7.667
    6AU    AUSL 2057  41.718  43.745   7.362
    6AU     AUL 2058  41.601  43.400   7.487
    6AU    AUSL 2059  41.853  45.136   6.843
    6AU    AUSL 2060  42.425  45.114   7.199
    6AU     AUL 2061  42.169  45.224   6.936
    6AU    AUSL 2062  41.604  45.230   7.210
    6AU    AUSL 2063  41.627  44.819   7.014
    6AU     AUL 2064  41.534  45.125   6.856
    6AU    AUSL 2065  41.943  43.693   6.981
    6AU    AUSL 2066  41.310  43.707   7.258
    6AU     AUL 2067  41.606  43.559   7.043
    6AU    AUSL 2068  42.150  43.717   7.381
    6AU    AUSL 2069  42.173  44.050   7.018
    6AU     AUL 2070  42.267  43.677   7.050
    6AU       S 2071  42.398  43.482   8.227
    6AU     LIG 2072  42.445  43.248   8.352
    6AU     LIG 2073  42.567  43.088   8.479
    6AU     LIG 2074  42.725  42.911   8.590
    6AU       S 2075  42.432  44.272   8.719
    6AU     LIG 2076  42.595  44.330   8.921
    6AU     LIG 2077  42.685  44.386   9.146
    6AU     LIG 2078  42.791  44.353   9.383
    6AU       S 2079  42.110  44.079   8.725
    6AU     LIG 2080  42.166  43.985   9.005
    6AU     LIG 2081  42.332  44.001   9.203
    6AU     LIG 2082  42.466  43.956   9.419
    6AU       S 2083  41.485  44.569   8.757
    6AU     LIG 2084  41.448  44.593   9.059
    6AU     LIG 2085  41.330  44.578   9.261
    6AU     LIG 2086  41.182  44.555   9.479
    6AU       S 2087  42.010  45.003   8.566
    6AU     LIG 2088  42.127  45.140   8.771
    6AU     LIG 2089  42.340  45.060   8.933
    6AU     LIG 2090  42.563  44.934   8.947
    6AU       S 2091  42.702  44.895   8.334
    6AU     LIG 2092  42.885  44.935   8.555
    6AU     LIG 2093  43.025  45.092   8.669
    6AU     LIG 2094  43.201  45.268   8.744
    6AU       S 2095  42.303  44.524   6.306
    6AU     LIG 2096  42.518  44.579   6.093
    6AU     LIG 2097  42.652  44.413   5.955
    6AU     LIG 2098  42.712  44.222   5.795
    6AU       S 2099  42.518  45.224   6.652
    6AU     LIG 2100  42.564  45.417   6.462
    6AU     LIG 2101  42.727  45.507   6.288
    6AU     LIG 2102  42.892  45.598   6.123
    6AU       S 2103  42.778  43.935   6.768
    6AU     LIG 2104  42.940  43.848   6.527
    6AU     LIG 2105  42.954  43.629   6.388
    6AU     LIG 2106  42.970  43.374   6.348
    6AU       S 2107  42.224  44.229   6.240
    6AU     LIG 2108  42.246  44.105   6.011
    6AU     LIG 2109  42.233  44.032   5.771
    6AU     LIG 2110  42.304  44.012   5.521
    6AU       S 2111  41.490  44.289   6.303
    6AU     LIG 2112  41.545  44.256   6.024
    6AU     LIG 2113  41.551  44.202   5.795
    6AU     LIG 2114  41.475  44.161   5.540
    6AU       S 2115  42.060  44.670   6.264
    6AU     LIG 2116  41.961  44.604   5.973
    6AU     LIG 2117  42.103  44.529   5.780
    6AU     LIG 2118  42.296  44.521   5.607
    6AU       S 2119  41.209  44.657   8.643
    6AU     LIG 2120  40.998  44.632   8.819
    6AU     LIG 2121  40.944  44.416   8.977
    6AU     LIG 2122  40.874  44.284   9.166
    6AU       S 2123  41.240  45.215   8.268
    6AU     LIG 2124  41.154  45.370   8.501
    6AU     LIG 2125  41.013  45.381   8.694
    6AU     LIG 2126  40.844  45.470   8.877
    6AU       S 2127  40.963  43.949   8.284
    6AU     LIG 2128  40.717  43.880   8.381
    6AU     LIG 2129  40.572  43.688   8.457
    6AU     LIG 2130  40.445  43.506   8.575
    6AU       S 2131  41.534  44.277   8.684
    6AU     LIG 2132  41.457  44.101   8.887
    6AU     LIG 2133  41.344  44.081   9.105
    6AU     LIG 2134  41.299  44.067   9.361
    6AU       S 2135  41.228  44.201   6.418
    6AU     LIG 2136  41.049  44.131   6.208
    6AU     LIG 2137  41.038  44.202   5.957
    6AU     LIG 2138  41.026  44.312   5.737
    6AU       S 2139  41.262  43.653   6.745
    6AU     LIG 2140  41.188  43.466   6.540
    6AU     LIG 2141  41.030  43.424   6.354
    6AU     LIG 2142  40.846  43.375   6.184
    6AU       S 2143  40.892  44.879   6.798
    6AU     LIG 2144  40.685  45.048   6.744
    6AU     LIG 2145  40.633  45.247   6.588
    6AU     LIG 2146  40.609  45.370   6.367
    6AU       S 2147  41.390  44.557   6.393
    6AU     LIG 2148  41.223  44.658   6.139
    6AU     LIG 2149  41.306  44.695   5.913
    6AU     LIG 2150  41.414  44.675   5.679
    6AU       S 2151  42.749  45.038   6.708
    6AU     LIG 2152  42.964  45.084   6.537
    6AU     LIG 2153  43.121  45.196   6.389
    6AU     LIG 2154  43.302  45.315   6.245
    6AU       S 2155  43.001  45.014   7.556
    6AU     LIG 2156  43.214  45.218   7.540
    6AU     LIG 2157  43.458  45.262   7.511
    6AU     LIG 2158  43.711  45.325   7.532
    6AU       S 2159  43.177  44.715   7.388
    6AU     LIG 2160  43.446  44.786   7.293
    6AU     LIG 2161  43.686  44.852   7.306
    6AU     LIG 2162  43.908  44.966   7.226
    6AU       S 2163  43.041  43.836   7.790
    6AU     LIG 2164  43.276  43.734   7.920
    6AU     LIG 2165  43.529  43.729   7.859
    6AU     LIG 2166  43.778  43.697   7.780
    6AU       S 2167  42.738  45.143   8.127
    6AU     LIG 2168  42.933  45.320   8.210
    6AU     LIG 2169  42.978  45.519   8.357
    6AU     LIG 2170  42.997  45.698   8.540
    6AU       S 2171  43.148  44.747   7.663
    6AU     LIG 2172  43.386  44.818   7.814
    6AU     LIG 2173  43.623  44.885   7.811
    6AU     LIG 2174  43.853  44.975   7.878
    6AU       S 2175  41.074  44.992   8.203
    6AU     LIG 2176  40.835  44.984   8.380
    6AU     LIG 2177  40.649  45.123   8.444
    6AU     LIG 2178  40.473  45.242   8.594
    6AU       S 2179  41.241  45.416   7.463
    6AU     LIG 2180  41.081  45.624   7.335
    6AU     LIG 2181  40.835  45.604   7.239
    6AU     LIG 2182  40.647  45.447   7.123
    6AU       S 2183  40.677  44.635   7.139
    6AU     LIG 2184  40.439  44.640   7.071
    6AU     LIG 2185  40.184  44.716   7.141
    6AU     LIG 2186  40.039  44.929   7.163
    6AU       S 2187  41.107  45.289   6.929
    6AU     LIG 2188  41.034  45.497   6.787
    6AU     LIG 2189  40.892  45.676   6.702
    6AU     LIG 2190  40.761  45.831   6.537
    6AU       S 2191  40.588  44.231   7.449
    6AU     LIG 2192  40.311  44.221   7.337
    6AU     LIG 2193  40.068  44.203   7.332
    6AU     LIG 2194  39.834  44.082   7.284
    6AU       S 2195  40.779  44.550   8.097
    6AU     LIG 2196  40.466  44.654   8.182
    6AU     LIG 2197  40.349  44.866   8.094
    6AU     LIG 2198  40.169  45.013   7.968
    6AU       S 2199  42.771  43.666   7.606
    6AU     LIG 2200  42.905  43.364   7.622
    6AU     LIG 2201  43.133  43.298   7.697
    6AU     LIG 2202  43.404  43.284   7.655
    6AU       S 2203  42.615  43.605   8.066
    6AU     LIG 2204  42.862  43.469   8.105
    6AU     LIG 2205  42.992  43.381   8.287
    6AU     LIG 2206  43.039  43.311   8.537
    6AU       S 2207  43.028  43.816   7.519
    6AU     LIG 2208  43.251  43.694   7.383
    6AU     LIG 2209  43.492  43.695   7.343
    6AU     LIG 2210  43.733  43.623   7.280
    6AU       S 2211  42.720  43.673   6.925
    6AU     LIG 2212  42.785  43.413   6.822
    6AU     LIG 2213  42.658  43.190   6.774
    6AU     LIG 2214  42.617  42.971   6.659
    6AU       S 2215  41.085  43.848   6.817
    6AU     LIG 2216  40.852  43.858   6.620
    6AU     LIG 2217  40.675  43.741   6.527
    6AU     LIG 2218  40.469  43.583   6.465
    6AU       S 2219  40.670  43.940   7.583
    6AU     LIG 2220  40.453  43.774   7.588
    6AU     LIG 2221  40.226  43.726   7.482
    6AU     LIG 2222  39.993  43.622   7.441
    6AU       S 2223  41.082  43.719   8.082
    6AU     LIG 2224  40.906  43.511   8.068
    6AU     LIG 2225  40.786  43.325   8.174
    6AU     LIG 2226  40.653  43.139   8.287
    6AU       S 2227  40.612  44.235   7.713
    6AU     LIG 2228  40.378  44.207   7.888
    6AU     LIG 2229  40.139  44.115   7.835
    6AU     LIG 2230  39.930  43.980   7.809
    6AU       S 2231  41.281  45.434   7.989
    6AU     LIG 2232  41.046  45.623   8.062
    6AU     LIG 2233  40.821  45.586   8.206
    6AU     LIG 2234  40.689  45.663   8.412
    6AU       S 2235  42.024  45.620   8.053
    6AU     LIG 2236  42.135  45.807   8.255
    6AU     LIG 2237  42.023  45.997   8.380
    6AU     LIG 2238  41.878  46.198   8.444
    6AU       S 2239  41.786  45.755   7.925
    6AU     LIG 2240  41.697  45.980   7.968
    6AU     LIG 2241  41.671  46.239   7.984
    6AU     LIG 2242  41.680  46.490   8.012
    6AU       S 2243  41.951  45.598   7.131
    6AU     LIG 2244  42.017  45.867   7.146
    6AU     LIG 2245  42.051  46.099   7.130
    6AU     LIG 2246  42.114  46.342   7.042
    6AU       S 2247  42.461  45.110   8.364
    6AU     LIG 2248  42.536  45.329   8.543
    6AU     LIG 2249  42.637  45.410   8.736
    6AU     LIG 2250  42.763  45.428   8.967
    6AU       S 2251  42.163  45.671   7.734
    6AU     LIG 2252  42.195  45.944   7.718
    6AU     LIG 2253  42.170  46.154   7.875
    6AU     LIG 2254  42.182  46.338   8.040
    6AU       S 2255  41.884  43.261   8.062
    6AU     LIG 2256  42.003  43.055   8.213
    6AU     LIG 2257  41.991  42.848   8.334
    6AU     LIG 2258  41.972  42.611   8.434
    6AU       S 2259  42.367  43.494   7.902
    6AU     LIG 2260  42.471  43.190   7.827
    6AU     LIG 2261  42.631  43.056   7.925
    6AU     LIG 2262  42.843  42.956   8.057
    6AU       S 2263  41.632  43.175   7.896
    6AU     LIG 2264  41.583  42.908   7.918
    6AU     LIG 2265  41.605  42.690   8.033
    6AU     LIG 2266  41.595  42.452   8.129
    6AU       S 2267  41.226  43.801   8.386
    6AU     LIG 2268  41.099  43.583   8.570
    6AU     LIG 2269  40.962  43.409   8.640
    6AU     LIG 2270  40.825  43.215   8.762
    6AU       S 2271  41.950  43.271   7.221
    6AU     LIG 2272  41.889  42.943   7.210
    6AU     LIG 2273  41.874  42.747   7.090
    6AU     LIG 2274  41.874  42.480   7.027
    6AU       S 2275  41.964  43.224   7.758
    6AU     LIG 2276  42.064  42.922   7.712
    6AU     LIG 2277  42.077  42.725   7.838
    6AU     LIG 2278  42.071  42.479   7.941
    6AU       S 2279  41.803  45.518   6.835
    6AU     LIG 2280  41.809  45.747   6.681
    6AU     LIG 2281  41.932  45.963   6.641
    6AU     LIG 2282  41.998  46.197   6.564
    6AU       S 2283  42.642  45.294   6.958
    6AU     LIG 2284  42.840  45.498   6.901
    6AU     LIG 2285  42.999  45.572   6.721
    6AU     LIG 2286  43.147  45.694   6.558
    6AU       S 2287  41.600  45.539   7.112
    6AU     LIG 2288  41.488  45.817   7.085
    6AU     LIG 2289  41.545  46.043   6.998
    6AU     LIG 2290  41.619  46.268   6.907
    6AU       S 2291  41.162  44.949   6.654
    6AU     LIG 2292  41.102  45.084   6.415
    6AU     LIG 2293  41.112  45.314   6.319
    6AU     LIG 2294  41.085  45.553   6.239
    6AU       S 2295  41.107  43.617   7.029
    6AU     LIG 2296  40.850  43.444   6.950
    6AU     LIG 2297  40.763  43.302   6.784
    6AU     LIG 2298  40.677  43.129   6.606
    6AU       S 2299  42.020  43.310   6.941
    6AU     LIG 2300  42.137  43.131   6.769
    6AU     LIG 2301  42.110  42.921   6.646
    6AU     LIG 2302  42.034  42.683   6.582
    6AU       S 2303  42.213  43.311   7.324
    6AU     LIG 2304  42.377  43.070   7.293
    6AU     LIG 2305  42.384  42.864   7.128
    6AU     LIG 2306  42.369  42.647   6.984
    6AU       S 2307  42.474  43.820   6.673
    6AU     LIG 2308  42.460  43.642   6.470
    6AU     LIG 2309  42.450  43.414   6.376
    6AU     LIG 2310  42.501  43.211   6.221
    7AU     AUC 2311  23.683   3.409   7.535
    7AU     AUC 2312  23.935   3.414   7.369
    7AU     AUC 2313  23.924   3.401   7.699
    7AU     AUC 2314  23.413   3.417   7.380
    7AU     AUC 2315  23.439   3.446   7.705
    7AU     AUC 2316  23.522   3.662   7.513
    7AU     AUC 2317  23.869   3.674   7.516
    7AU     AUC 2318  23.504   3.155   7.543
    7AU     AUC 2319  23.835   3.133   7.545
    7AU     AUC 2320  23.677   3.249   7.798
    7AU     AUC 2321  23.696   3.589   7.779
    7AU     AUC 2322  23.670   3.236   7.287
    7AU     AUC 2323  23.690   3.542   7.271
    7AU     AUC 2324  24.238   3.405   7.204
    7AU     AUC 2325  24.246   3.385   7.545
    7AU     AUC 2326  24.204   3.372   7.899
    7AU     AUC 2327  23.111   3.391   7.228
    7AU     AUC 2328  23.110   3.450   7.556
    7AU     AUC 2329  23.139   3.489   7.888
    7AU     AUC 2330  23.357   3.975   7.474
    7AU     AUC 2331  23.717   3.949   7.457
    7AU     AUC 2332  24.083   3.937   7.487
    7AU     AUC 2333  23.300   2.866   7.548
    7AU     AUC 2334  23.651   2.842   7.529
    7AU     AUC 2335  24.007   2.831   7.546
    7AU     AUC 2336  23.636   3.083   8.101
    7AU     AUC 2337  23.673   3.425   8.101
    7AU     AUC 2338  23.730   3.789   8.062
    7AU     AUC 2339  23.701   3.046   6.997
    7AU     AUC 2340  23.649   3.387   6.973
    7AU     AUC 2341  23.646   3.710   6.957
    7AU     AUC 2342  23.918   3.187   8.012
    7AU     AUC 2343  23.974   3.563   7.987
    7AU     AUC 2344  23.973   3.249   7.072
    7AU     AUC 2345  23.938   3.561   7.079
    7AU     AUC 2346  23.384   3.307   8.000
    7AU     AUC 2347  23.431   3.657   7.971
    7AU     AUC 2348  23.395   3.206   7.103
    7AU     AUC 2349  23.349   3.534   7.083
    7AU     AUC 2350  24.176   3.677   7.346
    7AU     AUC 2351  24.142   3.674   7.705
    7AU     AUC 2352  23.217   3.689   7.383
    7AU     AUC 2353  23.262   3.755   7.713
    7AU     AUC 2354  24.139   3.126   7.407
    7AU     AUC 2355  24.087   3.080   7.739
    7AU     AUC 2356  23.218   3.103   7.373
    7AU     AUC 2357  23.244   3.177   7.716
    7AU     AUC 2358  23.582   3.907   7.782
    7AU     AUC 2359  23.921   3.862   7.793
    7AU     AUC 2360  23.469   2.974   7.817
    7AU     AUC 2361  23.787   2.921   7.809
    7AU     AUC 2362  23.492   3.840   7.215
    7AU     AUC 2363  23.857   3.856   7.226
    7AU     AUC 2364  23.523   2.942   7.258
    7AU     AUC 2365  23.883   2.987   7.274
    7AU    AUSL 2366  24.182   3.277   8.316
    7AU    AUSL 2367  23.932   2.904   8.222
    7AU     AUL 2368  24.239   2.905   8.389
    7AU    AUSL 2369  23.767   3.219   8.460
    7AU    AUSL 2370  23.529   3.628   8.451
    7AU     AUL 2371  23.765   3.503   8.710
    7AU    AUSL 2372  23.866   3.576   8.204
    7AU    AUSL 2373  24.317   3.635   8.126
    7AU     AUL 2374  24.135   3.600   8.435
    7AU    AUSL 2375  24.090   3.437   6.840
    7AU    AUSL 2376  23.951   3.833   6.981
    7AU     AUL 2377  24.165   3.765   6.681
    7AU    AUSL 2378  23.902   3.115   6.612
    7AU    AUSL 2379  24.409   3.185   6.982
    7AU     AUL 2380  24.277   3.259   6.665
    7AU    AUSL 2381  23.734   3.619   6.670
    7AU    AUSL 2382  23.556   3.233   6.829
    7AU     AUL 2383  23.687   3.312   6.524
    7AU    AUSL 2384  23.145   3.590   8.243
    7AU    AUSL 2385  23.508   3.899   8.111
    7AU     AUL 2386  23.345   3.867   8.412
    7AU    AUSL 2387  23.446   3.277   8.191
    7AU    AUSL 2388  22.997   3.200   8.105
    7AU     AUL 2389  23.054   3.289   8.341
    7AU    AUSL 2390  23.120   3.215   6.795
    7AU    AUSL 2391  23.369   2.865   6.947
    7AU     AUL 2392  23.393   2.951   6.641
    7AU    AUSL 2393  23.306   3.583   6.675
    7AU    AUSL 2394  23.026   3.564   7.050
    7AU     AUL 2395  22.909   3.445   6.776
    7AU    AUSL 2396  24.474   3.872   7.476
    7AU    AUSL 2397  24.349   3.662   7.096
    7AU     AUL 2398  24.644   3.867   7.128
    7AU    AUSL 2399  24.639   3.476   7.367
    7AU    AUSL 2400  24.588   3.178   7.768
    7AU     AUL 2401  24.850   3.262   7.571
    7AU    AUSL 2402  24.361   3.531   7.718
    7AU    AUSL 2403  24.319   3.975   7.853
    7AU     AUL 2404  24.567   3.715   7.878
    7AU    AUSL 2405  23.108   4.052   7.522
    7AU    AUSL 2406  23.145   3.804   7.878
    7AU     AUL 2407  22.836   4.049   7.745
    7AU    AUSL 2408  22.907   3.673   7.444
    7AU    AUSL 2409  23.060   3.989   7.106
    7AU     AUL 2410  22.824   3.914   7.263
    7AU    AUSL 2411  22.780   3.595   7.888
    7AU    AUSL 2412  22.747   3.289   7.349
    7AU     AUL 2413  22.625   3.606   7.590
    7AU    AUSL 2414  24.366   2.829   7.615
    7AU    AUSL 2415  24.192   3.112   7.925
    7AU     AUL 2416  24.499   3.018   8.001
    7AU    AUSL 2417  24.324   3.199   7.397
    7AU    AUSL 2418  24.314   2.797   7.188
    7AU     AUL 2419  24.558   3.007   7.250
    7AU    AUSL 2420  22.900   2.910   7.553
    7AU    AUSL 2421  23.111   3.120   7.205
    7AU     AUL 2422  22.761   3.013   7.213
    7AU    AUSL 2423  23.017   3.311   7.694
    7AU    AUSL 2424  23.207   2.927   7.849
    7AU     AUL 2425  22.826   3.080   7.848
    7AU    AUSL 2426  23.749   4.235   7.966
    7AU    AUSL 2427  23.294   4.214   7.878
    7AU     AUL 2428  23.516   4.259   8.194
    7AU    AUSL 2429  23.581   4.090   7.591
    7AU    AUSL 2430  23.832   4.223   7.247
    7AU     AUL 2431  23.601   4.430   7.554
    7AU    AUSL 2432  24.019   4.166   7.623
    7AU    AUSL 2433  24.013   3.965   8.153
    7AU     AUL 2434  24.132   4.255   7.941
    7AU    AUSL 2435  23.607   2.769   7.970
    7AU    AUSL 2436  24.031   2.710   7.849
    7AU     AUL 2437  23.792   2.648   8.223
    7AU    AUSL 2438  23.299   2.547   7.699
    7AU    AUSL 2439  23.327   2.884   8.274
    7AU     AUL 2440  23.335   2.586   8.050
    7AU    AUSL 2441  23.731   2.472   7.667
    7AU    AUSL 2442  23.524   2.717   7.362
    7AU     AUL 2443  23.407   2.372   7.487
    7AU    AUSL 2444  23.659   4.108   6.843
    7AU    AUSL 2445  24.231   4.086   7.199
    7AU     AUL 2446  23.975   4.196   6.936
    7AU    AUSL 2447  23.410   4.202   7.210
    7AU    AUSL 2448  23.433   3.791   7.014
    7AU     AUL 2449  23.340   4.097   6.856
    7AU    AUSL 2450  23.749   2.665   6.981
    7AU    AUSL 2451  23.116   2.679   7.258
    7AU     AUL 2452  23.412   2.531   7.043
    7AU    AUSL 2453  23.956   2.689   7.381
    7AU    AUSL 2454  23.979   3.022   7.018
    7AU     AUL 2455  24.073   2.649   7.050
    7AU       S 2456  24.204   2.454   8.227
    7AU     LIG 2457  24.251   2.220   8.352
    7AU     LIG 2458  24.373   2.060   8.479
    7AU     LIG 2459  24.531   1.883   8.590
    7AU       S 2460  24.238   3.244   8.719
    7AU     LIG 2461  24.401   3.302   8.921
    7AU     LIG 2462  24.491   3.358   9.146
    7AU     LIG 2463  24.597   3.325   9.383
    7AU       S 2464  23.916   3.051   8.725
    7AU     LIG 2465  23.972   2.957   9.005
    7AU     LIG 2466  24.138   2.973   9.203
    7AU     LIG 2467  24.272   2.928   9.419
    7AU       S 2468  23.291   3.541   8.757
    7AU     LIG 2469  23.254   3.565   9.059
    7AU     LIG 2470  23.136   3.550   9.261
    7AU     LIG 2471  22.988   3.527   9.479
    7AU       S 2472  23.816   3.975   8.566
    7AU     LIG 2473  23.933   4.112   8.771
    7AU     LIG 2474  24.146   4.032   8.933
    7AU     LIG 2475  24.369   3.906   8.947
    7AU       S 2476  24.508   3.867   8.334
    7AU     LIG 2477  24.691   3.907   8.555
    7AU     LIG 2478  24.831   4.064   8.669
    7AU     LIG 2479  25.007   4.240   8.744
    7AU       S 2480  24.109   3.496   6.306
    7AU     LIG 2481  24.324   3.551   6.093
    7AU     LIG 2482  24.458   3.385   5.955
    7AU     LIG 2483  24.518   3.194   5.795
    7AU       S 2484  24.324   4.196   6.652
    7AU     LIG 2485  24.370   4.389   6.462
    7AU     LIG 2486  24.533   4.479   6.288
    7AU     LIG 2487  24.698   4.570   6.123
    7AU       S 2488  24.584   2.907   6.768
    7AU     LIG 2489  24.746   2.820   6.527
    7AU     LIG 2490  24.760   2.601   6.388
    7AU     LIG 2491  24.776   2.346   6.348
    7AU       S 2492  24.030   3.201   6.240
    7AU     LIG 2493  24.052   3.077   6.011
    7AU     LIG 2494  24.039   3.004   5.771
    7AU     LIG 2495  24.110   2.984   5.521
    7AU       S 2496  23.296   3.261   6.303
    7AU     LIG 2497  23.351   3.228   6.024
    7AU     LIG 2498  23.357   3.174   5.795
    7AU     LIG 2499  23.281   3.133   5.540
    7AU       S 2500  23.866   3.642   6.264
    7AU     LIG 2501  23.767   3.576   5.973
    7AU     LIG 2502  23.909   3.501   5.780
    7AU     LIG 2503  24.102   3.493   5.607
    7AU       S 2504  23.015   3.629   8.643
    7AU     LIG 2505  22.804   3.604   8.819
    7AU     LIG 2506  22.750   3.388   8.977
    7AU     LIG 2507  22.680   3.256   9.166
    7AU       S 2508  23.046   4.187   8.268
    7AU     LIG 2509  22.960   4.342   8.501
    7AU     LIG 2510  22.819   4.353   8.694
    7AU     LIG 2511  22.650   4.442   8.877
    7AU       S 2512  22.769   2.921   8.284
    7AU     LIG 2513  22.523   2.852   8.381
    7AU     LIG 2514  22.378   2.660   8.457
    7AU     LIG 2515  22.251   2.478   8.575
    7AU       S 2516  23.340   3.249   8.684
    7AU     LIG 2517  23.263   3.073   8.887
    7AU     LIG 2518  23.150   3.053   9.105
    7AU     LIG 2519  23.105   3.039   9.361
    7AU       S 2520  23.034   3.173   6.418
    7AU     LIG 2521  22.855   3.103   6.208
    7AU     LIG 2522  22.844   3.174   5.957
    7AU     LIG 2523  22.832   3.284   5.737
    7AU       S 2524  23.068   2.625   6.745
    7AU     LIG 2525  22.994   2.438   6.540
    7AU     LIG 2526  22.836   2.396   6.354
    7AU     LIG 2527  22.652   2.347   6.184
    7AU       S 2528  22.698   3.851   6.798
    7AU     LIG 2529  22.491   4.020   6.744
    7AU     LIG 2530  22.439   4.219   6.588
    7AU     LIG 2531  22.415   4.342   6.367
    7AU       S 2532  23.196   3.529   6.393
    7AU     LIG 2533  23.029   3.630   6.139
    7AU     LIG 2534  23.112   3.667   5.913
    7AU     LIG 2535  23.220   3.647   5.679
    7AU       S 2536  24.555   4.010   6.708
    7AU     LIG 2537  24.770   4.056   6.537
    7AU     LIG 2538  24.927   4.168   6.389
    7AU     LIG 2539  25.108   4.287   6.245
    7AU       S 2540  24.807   3.986   7.556
    7AU     LIG 2541  25.020   4.190   7.540
    7AU     LIG 2542  25.264   4.234   7.511
    7AU     LIG 2543  25.517   4.297   7.532
    7AU       S 2544  24.983   3.687   7.388
    7AU     LIG 2545  25.252   3.758   7.293
    7AU     LIG 2546  25.492   3.824   7.306
    7AU     LIG 2547  25.714   3.938   7.226
    7AU       S 2548  24.847   2.808   7.790
    7AU     LIG 2549  25.082   2.706   7.920
    7AU     LIG 2550  25.335   2.701   7.859
    7AU     LIG 2551  25.584   2.669   7.780
    7AU       S 2552  24.544   4.115   8.127
    7AU     LIG 2553  24.739   4.292   8.210
    7AU     LIG 2554  24.784   4.491   8.357
    7AU     LIG 2555  24.803   4.670   8.540
    7AU       S 2556  24.954   3.719   7.663
    7AU     LIG 2557  25.192   3.790   7.814
    7AU     LIG 2558  25.429   3.857   7.811
    7AU     LIG 2559  25.659   3.947   7.878
    7AU       S 2560  22.880   3.964   8.203
    7AU     LIG 2561  22.641   3.956   8.380
    7AU     LIG 2562  22.455   4.095   8.444
    7AU     LIG 2563  22.279   4.214   8.594
    7AU       S 2564  23.047   4.388   7.463
    7AU     LIG 2565  22.887   4.596   7.335
    7AU     LIG 2566  22.641   4.576   7.239
    7AU     LIG 2567  22.453   4.419   7.123
    7AU       S 2568  22.483   3.607   7.139
    7AU     LIG 2569  22.245   3.612   7.071
    7AU     LIG 2570  21.990   3.688   7.141
    7AU     LIG 2571  21.845   3.901   7.163
    7AU       S 2572  22.913   4.261   6.929
    7AU     LIG 2573  22.840   4.469   6.787
    7AU     LIG 2574  22.698   4.648   6.702
    7AU     LIG 2575  22.567   4.803   6.537
    7AU       S 2576  22.394   3.203   7.449
    7AU     LIG 2577  22.117   3.193   7.337
    7AU     LIG 2578  21.874   3.175   7.332
    7AU     LIG 2579  21.640   3.054   7.284
    7AU       S 2580  22.585   3.522   8.097
    7AU     LIG 2581  22.272   3.626   8.182
    7AU     LIG 2582  22.155   3.838   8.094
    7AU     LIG 2583  21.975   3.985   7.968
    7AU       S 2584  24.577   2.638   7.606
    7AU     LIG 2585  24.711   2.336   7.622
    7AU     LIG 2586  24.939   2.270   7.697
    7AU     LIG 2587  25.210   2.256   7.655
    7AU       S 2588  24.421   2.577   8.066
    7AU     LIG 2589  24.668   2.441   8.105
    7AU     LIG 2590  24.798   2.353   8.287
    7AU     LIG 2591  24.845   2.283   8.537
    7AU       S 2592  24.834   2.788   7.519
    7AU     LIG 2593  25.057   2.666   7.383
    7AU     LIG 2594  25.298   2.667   7.343
    7AU     LIG 2595  25.539   2.595   7.280
    7AU       S 2596  24.526   2.645   6.925
    7AU     LIG 2597  24.591   2.385   6.822
    7AU     LIG 2598  24.464   2.162   6.774
    7AU     LIG 2599  24.423   1.943   6.659
    7AU       S 2600  22.891   2.820   6.817
    7AU     LIG 2601  22.658   2.830   6.620
    7AU     LIG 2602  22.481   2.713   6.527
    7AU     LIG 2603  22.275   2.555   6.465
    7AU       S 2604  22.476   2.912   7.583
    7AU     LIG 2605  22.259   2.746   7.588
    7AU     LIG 2606  22.032   2.698   7.482
    7AU     LIG 2607  21.799   2.594   7.441
    7AU       S 2608  22.888   2.691   8.082
    7AU     LIG 2609  22.712   2.483   8.068
    7AU     LIG 2610  22.592   2.297   8.174
    7AU     LIG 2611  22.459   2.111   8.287
    7AU       S 2612  22.418   3.207   7.713
    7AU     LIG 2613  22.184   3.179   7.888
    7AU     LIG 2614  21.945   3.087   7.835
    7AU     LIG 2615  21.736   2.952   7.809
    7AU       S 2616  23.087   4.406   7.989
    7AU     LIG 2617  22.852   4.595   8.062
    7AU     LIG 2618  22.627   4.558   8.206
    7AU     LIG 2619  22.495   4.635   8.412
    7AU       S 2620  23.830   4.592   8.053
    7AU     LIG 2621  23.941   4.779   8.255
    7AU     LIG 2622  23.829   4.969   8.380
    7AU     LIG 2623  23.684   5.170   8.444
    7AU       S 2624  23.592   4.727   7.925
    7AU     LIG 2625  23.503   4.952   7.968
    7AU     LIG 2626  23.477   5.211   7.984
    7AU     LIG 2627  23.486   5.462   8.012
    7AU       S 2628  23.757   4.570   7.131
    7AU     LIG 2629  23.823   4.839   7.146
    7AU     LIG 2630  23.857   5.071   7.130
    7AU     LIG 2631  23.920   5.314   7.042
    7AU       S 2632  24.267   4.082   8.364
    7AU     LIG 2633  24.342   4.301   8.543
    7AU     LIG 2634  24.443   4.382   8.736
    7AU     LIG 2635  24.569   4.400   8.967
    7AU       S 2636  23.969   4.643   7.734
    7AU     LIG 2637  24.001   4.916   7.718
    7AU     LIG 2638  23.976   5.126   7.875
    7AU     LIG 2639  23.988   5.310   8.040
    7AU       S 2640  23.690   2.233   8.062
    7AU     LIG 2641  23.809   2.027   8.213
    7AU     LIG 2642  23.797   1.820   8.334
    7AU     LIG 2643  23.778   1.583   8.434
    7AU       S 2644  24.173   2.466   7.902
    7AU     LIG 2645  24.277   2.162   7.827
    7AU     LIG 2646  24.437   2.028   7.925
    7AU     LIG 2647  24.649   1.928   8.057
    7AU       S 2648  23.438   2.147   7.896
    7AU     LIG 2649  23.389   1.880   7.918
    7AU     LIG 2650  23.411   1.662   8.033
    7AU     LIG 2651  23.401   1.424   8.129
    7AU       S 2652  23.032   2.773   8.386
    7AU     LIG 2653  22.905   2.555   8.570
    7AU     LIG 2654  22.768   2.381   8.640
    7AU     LIG 2655  22.631   2.187   8.762
    7AU       S 2656  23.756   2.243   7.221
    7AU     LIG 2657  23.695   1.915   7.210
    7AU     LIG 2658  23.680   1.719   7.090
    7AU     LIG 2659  23.680   1.452   7.027
    7AU       S 2660  23.770   2.196   7.758
    7AU     LIG 2661  23.870   1.894   7.712
    7AU     LIG 2662  23.883   1.697   7.838
    7AU     LIG 2663  23.877   1.451   7.941
    7AU       S 2664  23.609   4.490   6.835
    7AU     LIG 2665  23.615   4.719   6.681
    7AU     LIG 2666  23.738   4.935   6.641
    7AU     LIG 2667  23.804   5.169   6.564
    7AU       S 2668  24.448   4.266   6.958
    7AU     LIG 2669  24.646   4.470   6.901
    7AU     LIG 2670  24.805   4.544   6.721
    7AU     LIG 2671  24.953   4.666   6.558
    7AU       S 2672  23.406   4.511   7.112
    7AU     LIG 2673  23.294   4.789   7.085
    7AU     LIG 2674  23.351   5.015   6.998
    7AU     LIG 2675  23.425   5.240   6.907
    7AU       S 2676  22.968   3.921   6.654
    7AU     LIG 2677  22.908   4.056   6.415
    7AU     LIG 2678  22.918   4.286   6.319
    7AU     LIG 2679  22.891   4.525   6.239
    7AU       S 2680  22.913   2.589   7.029
    7AU     LIG 2681  22.656   2.416   6.950
    7AU     LIG 2682  22.569   2.274   6.784
    7AU     LIG 2683  22.483   2.101   6.606
    7AU       S 2684  23.826   2.282   6.941
    7AU     LIG 2685  23.943   2.103   6.769
    7AU     LIG 2686  23.916   1.893   6.646
    7AU     LIG 2687  23.840   1.655   6.582
    7AU       S 2688  24.019   2.283   7.324
    7AU     LIG 2689  24.183   2.042   7.293
    7AU     LIG 2690  24.190   1.836   7.128
    7AU     LIG 2691  24.175   1.619   6.984
    7AU       S 2692  24.280   2.792   6.673
    7AU     LIG 2693  24.266   2.614   6.470
    7AU     LIG 2694  24.256   2.386   6.376
    7AU     LIG 2695  24.307   2.183   6.221
    8AU     AUC 2696   7.753  34.944   7.535
    8AU     AUC 2697   8.005  34.949   7.369
    8AU     AUC 2698   7.994  34.936   7.699
    8AU     AUC 2699   7.483  34.952   7.380
    8AU     AUC 2700   7.509  34.981   7.705
    8AU     AUC 2701   7.592  35.197   7.513
    8AU     AUC 2702   7.939  35.209   7.516
    8AU     AUC 2703   7.574  34.690   7.543
    8AU     AUC 2704   7.905  34.668   7.545
    8AU     AUC 2705   7.747  34.784   7.798
    8AU     AUC 2706   7.766  35.124   7.779
    8AU     AUC 2707   7.740  34.771   7.287
    8AU     AUC 2708   7.760  35.077   7.271
    8AU     AUC 2709   8.308  34.940   7.204
    8AU     AUC 2710   8.316  34.920   7.545
    8AU     AUC 2711   8.274  34.907   7.899
    8AU     AUC 2712   7.181  34.926   7.228
    8AU     AUC 2713   7.180  34.985   7.556
    8AU     AUC 2714   7.209  35.024   7.888
    8AU     AUC 2715   7.427  35.510   7.474
    8AU     AUC 2716   7.787  35.484   7.457
    8AU     AUC 2717   8.153  35.472   7.487
    8AU     AUC 2718   7.370  34.401   7.548
    8AU     AUC 2719   7.721  34.377   7.529
    8AU     AUC 2720   8.077  34.366   7.546
    8AU     AUC 2721   7.706  34.618   8.101
    8AU     AUC 2722   7.743  34.960   8.101
    8AU     AUC 2723   7.800  35.324   8.062
    8AU     AUC 2724   7.771  34.581   6.997
    8AU     AUC 2725   7.719  34.922   6.973
    8AU     AUC 2726   7.716  35.245   6.957
    8AU     AUC 2727   7.988  34.722   8.012
    8AU     AUC 2728   8.044  35.098   7.987
    8AU     AUC 2729   8.043  34.784   7.072
    8AU     AUC 2730   8.008  35.096   7.079
    8AU     AUC 2731   7.454  34.842   8.000
    8AU     AUC 2732   7.501  35.192   7.971
    8AU     AUC 2733   7.465  34.741   7.103
    8AU     AUC 2734   7.419  35.069   7.083
    8AU     AUC 2735   8.246  35.212   7.346
    8AU     AUC 2736   8.212  35.209   7.705
    8AU     AUC 2737   7.287  35.224   7.383
    8AU     AUC 2738   7.332  35.290   7.713
    8AU     AUC 2739   8.209  34.661   7.407
    8AU     AUC 2740   8.157  34.615   7.739
    8AU     AUC 2741   7.288  34.638   7.373
    8AU     AUC 2742   7.314  34.712   7.716
    8AU     AUC 2743   7.652  35.442   7.782
    8AU     AUC 2744   7.991  35.397   7.793
    8AU     AUC 2745   7.539  34.509   7.817
    8AU     AUC 2746   7.857  34.456   7.809
    8AU     AUC 2747   7.562  35.375   7.215
    8AU     AUC 2748   7.927  35.391   7.226
    8AU     AUC 2749   7.593  34.477   7.258
    8AU     AUC 2750   7.953  34.522   7.274
    8AU    AUSL 2751   8.252  34.812   8.316
    8AU    AUSL 2752   8.002  34.439   8.222
    8AU     AUL 2753   8.309  34.440   8.389
    8AU    AUSL 2754   7.837  34.754   8.460
    8AU    AUSL 2755   7.599  35.163   8.451
    8AU     AUL 2756   7.835  35.038   8.710
    8AU    AUSL 2757   7.936  35.111   8.204
    8AU    AUSL 2758   8.387  35.170   8.126
    8AU     AUL 2759   8.205  35.135   8.435
    8AU    AUSL 2760   8.160  34.972   6.840
    8AU    AUSL 2761   8.021  35.368   6.981
    8AU     AUL 2762   8.235  35.300   6.681
    8AU    AUSL 2763   7.972  34.650   6.612
    8AU    AUSL 2764   8.479  34.720   6.982
    8AU     AUL 2765   8.347  34.794   6.665
    8AU    AUSL 2766   7.804  35.154   6.670
    8AU    AUSL 2767   7.626  34.768   6.829
    8AU     AUL 2768   7.757  34.847   6.524
    8AU    AUSL 2769   7.215  35.125   8.243
    8AU    AUSL 2770   7.578  35.434   8.111
    8AU     AUL 2771   7.415  35.402   8.412
    8AU    AUSL 2772   7.516  34.812   8.191
    8AU    AUSL 2773   7.067  34.735   8.105
    8AU     AUL 2774   7.124  34.824   8.341
    8AU    AUSL 2775   7.190  34.750   6.795
    8AU    AUSL 2776   7.439  34.400   6.947
    8AU     AUL 2777   7.463  34.486   6.641
    8AU    AUSL 2778   7.376  35.118   6.675
    8AU    AUSL 2779   7.096  35.099   7.050
    8AU     AUL 2780   6.979  34.980   6.776
    8AU    AUSL 2781   8.544  35.407   7.476
    8AU    AUSL 2782   8.419  35.197   7.096
    8AU     AUL 2783   8.714  35.402   7.128
    8AU    AUSL 2784   8.709  35.011   7.367
    8AU    AUSL 2785   8.658  34.713   7.768
    8AU     AUL 2786   8.920  34.797   7.571
    8AU    AUSL 2787   8.431  35.066   7.718
    8AU    AUSL 2788   8.389  35.510   7.853
    8AU     AUL 2789   8.637  35.250   7.878
    8AU    AUSL 2790   7.178  35.587   7.522
    8AU    AUSL 2791   7.215  35.339   7.878
    8AU     AUL 2792   6.906  35.584   7.745
    8AU    AUSL 2793   6.977  35.208   7.444
    8AU    AUSL 2794   7.130  35.524   7.106
    8AU     AUL 2795   6.894  35.449   7.263
    8AU    AUSL 2796   6.850  35.130   7.888
    8AU    AUSL 2797   6.817  34.824   7.349
    8AU     AUL 2798   6.695  35.141   7.590
    8AU    AUSL 2799   8.436  34.364   7.615
    8AU    AUSL 2800   8.262  34.647   7.925
    8AU     AUL 2801   8.569  34.553   8.001
    8AU    AUSL 2802   8.394  34.734   7.397
    8AU    AUSL 2803   8.384  34.332   7.188
    8AU     AUL 2804   8.628  34.542   7.250
    8AU    AUSL 2805   6.970  34.445   7.553
    8AU    AUSL 2806   7.181  34.655   7.205
    8AU     AUL 2807   6.831  34.548   7.213
    8AU    AUSL 2808   7.087  34.846   7.694
    8AU    AUSL 2809   7.277  34.462   7.849
    8AU     AUL 2810   6.896  34.615   7.848
    8AU    AUSL 2811   7.819  35.770   7.966
    8AU    AUSL 2812   7.364  35.749   7.878
    8AU     AUL 2813   7.586  35.794   8.194
    8AU    AUSL 2814   7.651  35.625   7.591
    8AU    AUSL 2815   7.902  35.758   7.247
    8AU     AUL 2816   7.671  35.965   7.554
    8AU    AUSL 2817   8.089  35.701   7.623
    8AU    AUSL 2818   8.083  35.500   8.153
    8AU     AUL 2819   8.202  35.790   7.941
    8AU    AUSL 2820   7.677  34.304   7.970
    8AU    AUSL 2821   8.101  34.245   7.849
    8AU     AUL 2822   7.862  34.183   8.223
    8AU    AUSL 2823   7.369  34.082   7.699
    8AU    AUSL 2824   7.397  34.419   8.274
    8AU     AUL 2825   7.405  34.121   8.050
    8AU    AUSL 2826   7.801  34.007   7.667
    8AU    AUSL 2827   7.594  34.252   7.362
    8AU     AUL 2828   7.477  33.907   7.487
    8AU    AUSL 2829   7.729  35.643   6.843
    8AU    AUSL 2830   8.301  35.621   7.199
    8AU     AUL 2831   8.045  35.731   6.936
    8AU    AUSL 2832   7.480  35.737   7.210
    8AU    AUSL 2833   7.503  35.326   7.014
    8AU     AUL 2834   7.410  35.632   6.856
    8AU    AUSL 2835   7.819  34.200   6.981
    8AU    AUSL 2836   7.186  34.214   7.258
    8AU     AUL 2837   7.482  34.066   7.043
    8AU    AUSL 2838   8.026  34.224   7.381
    8AU    AUSL 2839   8.049  34.557   7.018
    8AU     AUL 2840   8.143  34.184   7.050
    8AU       S 2841   8.274  33.989   8.227
    8AU     LIG 2842   8.321  33.755   8.352
    8AU     LIG 2843   8.443  33.595   8.479
    8AU     LIG 2844   8.601  33.418   8.590
    8AU       S 2845   8.308  34.779   8.719
    8AU     LIG 2846   8.471  34.837   8.921
    8AU     LIG 2847   8.561  34.893   9.146
    8AU     LIG 2848   8.667  34.860   9.383
    8AU       S 2849   7.986  34.586   8.725
    8AU     LIG 2850   8.042  34.492   9.005
    8AU     LIG 2851   8.208  34.508   9.203
    8AU     LIG 2852   8.342  34.463   9.419
    8AU       S 2853   7.361  35.076   8.757
    8AU     LIG 2854   7.324  35.100   9.059
    8AU     LIG 2855   7.206  35.085   9.261
    8AU     LIG 2856   7.058  35.062   9.479
    8AU       S 2857   7.886  35.510   8.566
    8AU     LIG 2858   8.003  35.647   8.771
    8AU     LIG 2859   8.216  35.567   8.933
    8AU     LIG 2860   8.439  35.441   8.947
    8AU       S 2861   8.578  35.402   8.334
    8AU     LIG 2862   8.761  35.442   8.555
    8AU     LIG 2863   8.901  35.599   8.669
    8AU     LIG 2864   9.077  35.775   8.744
    8AU       S 2865   8.179  35.031   6.306
    8AU     LIG 2866   8.394  35.086   6.093
    8AU     LIG 2867   8.528  34.920   5.955
    8AU     LIG 2868   8.588  34.729   5.795
    8AU       S 2869   8.394  35.731   6.652
    8AU     LIG 2870   8.440  35.924   6.462
    8AU     LIG 2871   8.603  36.014   6.288
    8AU     LIG 2872   8.768  36.105   6.123
    8AU       S 2873   8.654  34.442   6.768
    8AU     LIG 2874   8.816  34.355   6.527
    8AU     LIG 2875   8.830  34.136   6.388
    8AU     LIG 2876   8.846  33.881   6.348
    8AU       S 2877   8.100  34.736   6.240
    8AU     LIG 2878   8.122  34.612   6.011
    8AU     LIG 2879   8.109  34.539   5.771
    8AU     LIG 2880   8.180  34.519   5.521
    8AU       S 2881   7.366  34.796   6.303
    8AU     LIG 2882   7.421  34.763   6.024
    8AU     LIG 2883   7.427  34.709   5.795
    8AU     LIG 2884   7.351  34.668   5.540
    8AU       S 2885   7.936  35.177   6.264
    8AU     LIG 2886   7.837  35.111   5.973
    8AU     LIG 2887   7.979  35.036   5.780
    8AU     LIG 2888   8.172  35.028   5.607
    8AU       S 2889   7.085  35.164   8.643
    8AU     LIG 2890   6.874  35.139   8.819
    8AU     LIG 2891   6.820  34.923   8.977
    8AU     LIG 2892   6.750  34.791   9.166
    8AU       S 2893   7.116  35.722   8.268
    8AU     LIG 2894   7.030  35.877   8.501
    8AU     LIG 2895   6.889  35.888   8.694
    8AU     LIG 2896   6.720  35.977   8.877
    8AU       S 2897   6.839  34.456   8.284
    8AU     LIG 2898   6.593  34.387   8.381
    8AU     LIG 2899   6.448  34.195   8.457
    8AU     LIG 2900   6.321  34.013   8.575
    8AU       S 2901   7.410  34.784   8.684
    8AU     LIG 2902   7.333  34.608   8.887
    8AU     LIG 2903   7.220  34.588   9.105
    8AU     LIG 2904   7.175  34.574   9.361
    8AU       S 2905   7.104  34.708   6.418
    8AU     LIG 2906   6.925  34.638   6.208
    8AU     LIG 2907   6.914  34.709   5.957
    8AU     LIG 2908   6.902  34.819   5.737
    8AU       S 2909   7.138  34.160   6.745
    8AU     LIG 2910   7.064  33.973   6.540
    8AU     LIG 2911   6.906  33.931   6.354
    8AU     LIG 2912   6.722  33.882   6.184
    8AU       S 2913   6.768  35.386   6.798
    8AU     LIG 2914   6.561  35.555   6.744
    8AU     LIG 2915   6.509  35.754   6.588
    8AU     LIG 2916   6.485  35.877   6.367
    8AU       S 2917   7.266  35.064   6.393
    8AU     LIG 2918   7.099  35.165   6.139
    8AU     LIG 2919   7.182  35.202   5.913
    8AU     LIG 2920   7.290  35.182   5.679
    8AU       S 2921   8.625  35.545   6.708
    8AU     LIG 2922   8.840  35.591   6.537
    8AU     LIG 2923   8.997  35.703   6.389
    8AU     LIG 2924   9.178  35.822   6.245
    8AU       S 2925   8.877  35.521   7.556
    8AU     LIG 2926   9.090  35.725   7.540
    8AU     LIG 2927   9.334  35.769   7.511
    8AU     LIG 2928   9.587  35.832   7.532
    8AU       S 2929   9.053  35.222   7.388
    8AU     LIG 2930   9.322  35.293   7.293
    8AU     LIG 2931   9.562  35.359   7.306
    8AU     LIG 2932   9.784  35.473   7.226
    8AU       S 2933   8.917  34.343   7.790
    8AU     LIG 2934   9.152  34.241   7.920
    8AU     LIG 2935   9.405  34.236   7.859
    8AU     LIG 2936   9.654  34.204   7.780
    8AU       S 2937   8.614  35.650   8.127
    8AU     LIG 2938   8.809  35.827   8.210
    8AU     LIG 2939   8.854  36.026   8.357
    8AU     LIG 2940   8.873  36.205   8.540
    8AU       S 2941   9.024  35.254   7.663
    8AU     LIG 2942   9.262  35.325   7.814
    8AU     LIG 2943   9.499  35.392   7.811
    8AU     LIG 2944   9.729  35.482   7.878
    8AU       S 2945   6.950  35.499   8.203
    8AU     LIG 2946   6.711  35.491   8.380
    8AU     LIG 2947   6.525  35.630   8.444
    8AU     LIG 2948   6.349  35.749   8.594
    8AU       S 2949   7.117  35.923   7.463
    8AU     LIG 2950   6.957  36.131   7.335
    8AU     LIG 2951   6.711  36.111   7.239
    8AU     LIG 2952   6.523  35.954   7.123
    8AU       S 2953   6.553  35.142   7.139
    8AU     LIG 2954   6.315  35.147   7.071
    8AU     LIG 2955   6.060  35.223   7.141
    8AU     LIG 2956   5.915  35.436   7.163
    8AU       S 2957   6.983  35.796   6.929
    8AU     LIG 2958   6.910  36.004   6.787
    8AU     LIG 2959   6.768  36.183   6.702
    8AU     LIG 2960   6.637  36.338   6.537
    8AU       S 2961   6.464  34.738   7.449
    8AU     LIG 2962   6.187  34.728   7.337
    8AU     LIG 2963   5.944  34.710   7.332
    8AU     LIG 2964   5.710  34.589   7.284
    8AU       S 2965   6.655  35.057   8.097
    8AU     LIG 2966   6.342  35.161   8.182
    8AU     LIG 2967   6.225  35.373   8.094
    8AU     LIG 2968   6.045  35.520   7.968
    8AU       S 2969   8.647  34.173   7.606
    8AU     LIG 2970   8.781  33.871   7.622
    8AU     LIG 2971   9.009  33.805   7.697
    8AU     LIG 2972   9.280  33.791   7.655
    8AU       S 2973   8.491  34.112   8.066
    8AU     LIG 2974   8.738  33.976   8.105
    8AU     LIG 2975   8.868  33.888   8.287
    8AU     LIG 2976   8.915  33.818   8.537
    8AU       S 2977   8.904  34.323   7.519
    8AU     LIG 2978   9.127  34.201   7.383
    8AU     LIG 2979   9.368  34.202   7.343
    8AU     LIG 2980   9.609  34.130   7.280
    8AU       S 2981   8.596  34.180   6.925
    8AU     LIG 2982   8.661  33.920   6.822
    8AU     LIG 2983   8.534  33.697   6.774
    8AU     LIG 2984   8.493  33.478   6.659
    8AU       S 2985   6.961  34.355   6.817
    8AU     LIG 2986   6.728  34.365   6.620
    8AU     LIG 2987   6.551  34.248   6.527
    8AU     LIG 2988   6.345  34.090   6.465
    8AU       S 2989   6.546  34.447   7.583
    8AU     LIG 2990   6.329  34.281   7.588
    8AU     LIG 2991   6.102  34.233   7.482
    8AU     LIG 2992   5.869  34.129   7.441
    8AU       S 2993   6.958  34.226   8.082
    8AU     LIG 2994   6.782  34.018   8.068
    8AU     LIG 2995   6.662  33.832   8.174
    8AU     LIG 2996   6.529  33.646   8.287
    8AU       S 2997   6.488  34.742   7.713
    8AU     LIG 2998   6.254  34.714   7.888
    8AU     LIG 2999   6.015  34.622   7.835
    8AU     LIG 3000   5.806  34.487   7.809
    8AU       S 3001   7.157  35.941   7.989
    8AU     LIG 3002   6.922  36.130   8.062
    8AU     LIG 3003   6.697  36.093   8.206
    8AU     LIG 3004   6.565  36.170   8.412
    8AU       S 3005   7.900  36.127   8.053
    8AU     LIG 3006   8.011  36.314   8.255
    8AU     LIG 3007   7.899  36.504   8.380
    8AU     LIG 3008   7.754  36.705   8.444
    8AU       S 3009   7.662  36.262   7.925
    8AU     LIG 3010   7.573  36.487   7.968
    8AU     LIG 3011   7.547  36.746   7.984
    8AU     LIG 3012   7.556  36.997   8.012
    8AU       S 3013   7.827  36.105   7.131
    8AU     LIG 3014   7.893  36.374   7.146
    8AU     LIG 3015   7.927  36.606   7.130
    8AU     LIG 3016   7.990  36.849   7.042
    8AU       S 3017   8.337  35.617   8.364
    8AU     LIG 3018   8.412  35.836   8.543
    8AU     LIG 3019   8.513  35.917   8.736
    8AU     LIG 3020   8.639  35.935   8.967
    8AU       S 3021   8.039  36.178   7.734
    8AU     LIG 3022   8.071  36.451   7.718
    8AU     LIG 3023   8.046  36.661   7.875
    8AU     LIG 3024   8.058  36.845   8.040
    8AU       S 3025   7.760  33.768   8.062
    8AU     LIG 3026   7.879  33.562   8.213
    8AU     LIG 3027   7.867  33.355   8.334
    8AU     LIG 3028   7.848  33.118   8.434
    8AU       S 3029   8.243  34.001   7.902
    8AU     LIG 3030   8.347  33.697   7.827
    8AU     LIG 3031   8.507  33.563   7.925
    8AU     LIG 3032   8.719  33.463   8.057
    8AU       S 3033   7.508  33.682   7.896
    8AU     LIG 3034   7.459  33.415   7.918
    8AU     LIG 3035   7.481  33.197   8.033
    8AU     LIG 3036   7.471  32.959   8.129
    8AU       S 3037   7.102  34.308   8.386
    8AU     LIG 3038   6.975  34.090   8.570
    8AU     LIG 3039   6.838  33.916   8.640
    8AU     LIG 3040   6.701  33.722   8.762
    8AU       S 3041   7.826  33.778   7.221
    8AU     LIG 3042   7.765  33.450   7.210
    8AU     LIG 3043   7.750  33.254   7.090
    8AU     LIG 3044   7.750  32.987   7.027
    8AU       S 3045   7.840  33.731   7.758
    8AU     LIG 3046   7.940  33.429   7.712
    8AU     LIG 3047   7.953  33.232   7.838
    8AU     LIG 3048   7.947  32.986   7.941
    8AU       S 3049   7.679  36.025   6.835
    8AU     LIG 3050   7.685  36.254   6.681
    8AU     LIG 3051   7.808  36.470   6.641
    8AU     LIG 3052   7.874  36.704   6.564
    8AU       S 3053   8.518  35.801   6.958
    8AU     LIG 3054   8.716  36.005   6.901
    8AU     LIG 3055   8.875  36.079   6.721
    8AU     LIG 3056   9.023  36.201   6.558
    8AU       S 3057   7.476  36.046   7.112
    8AU     LIG 3058   7.364  36.324   7.085
    8AU     LIG 3059   7.421  36.550   6.998
    8AU     LIG 3060   7.495  36.775   6.907
    8AU       S 3061   7.038  35.456   6.654
    8AU     LIG 3062   6.978  35.591   6.415
    8AU     LIG 3063   6.988  35.821   6.319
    8AU     LIG 3064   6.961  36.060   6.239
    8AU       S 3065   6.983  34.124   7.029
    8AU     LIG 3066   6.726  33.951   6.950
    8AU     LIG 3067   6.639  33.809   6.784
    8AU     LIG 3068   6.553  33.636   6.606
    8AU       S 3069   7.896  33.817   6.941
    8AU     LIG 3070   8.013  33.638   6.769
    8AU     LIG 3071   7.986  33.428   6.646
    8AU     LIG 3072   7.910  33.190   6.582
    8AU       S 3073   8.089  33.818   7.324
    8AU     LIG 3074   8.253  33.577   7.293
    8AU     LIG 3075   8.260  33.371   7.128
    8AU     LIG 3076   8.245  33.154   6.984
    8AU       S 3077   8.350  34.327   6.673
    8AU     LIG 3078   8.336  34.149   6.470
    8AU     LIG 3079   8.326  33.921   6.376
    8AU     LIG 3080   8.377  33.718   6.221
    9AU     AUC 3081  19.376  32.171   7.535
    9AU     AUC 3082  19.628  32.176   7.369
    9AU     AUC 3083  19.617  32.163   7.699
    9AU     AUC 3084  19.106  32.179   7.380
    9AU     AUC 3085  19.132  32.208   7.705
    9AU     AUC 3086  19.215  32.424   7.513
    9AU     AUC 3087  19.562  32.436   7.516
    9AU     AUC 3088  19.197  31.917   7.543
    9AU     AUC 3089  19.528  31.895   7.545
    9AU     AUC 3090  19.370  32.011   7.798
    9AU     AUC 3091  19.389  32.351   7.779
    9AU     AUC 3092  19.363  31.998   7.287
    9AU     AUC 3093  19.383  32.304   7.271
    9AU     AUC 3094  19.931  32.167   7.204
    9AU     AUC 3095  19.939  32.147   7.545
    9AU     AUC 3096  19.897  32.134   7.899
    9AU     AUC 3097  18.804  32.153   7.228
    9AU     AUC 3098  18.803  32.212   7.556
    9AU     AUC 3099  18.832  32.251   7.888
    9AU     AUC 3100  19.050  32.737   7.474
    9AU     AUC 3101  19.410  32.711   7.457
    9AU     AUC 3102  19.776  32.699   7.487
    9AU     AUC 3103  18.993  31.628   7.548
    9AU     AUC 3104  19.344  31.604   7.529
    9AU     AUC 3105  19.700  31.593   7.546
    9AU     AUC 3106  19.329  31.845   8.101
    9AU     AUC 3107  19.366  32.187   8.101
    9AU     AUC 3108  19.423  32.551   8.062
    9AU     AUC 3109  19.394  31.808   6.997
    9AU     AUC 3110  19.342  32.149   6.973
    9AU     AUC 3111  19.339  32.472   6.957
    9AU     AUC 3112  19.611  31.949   8.012
    9AU     AUC 3113  19.667  32.325   7.987
    9AU     AUC 3114  19.666  32.011   7.072
    9AU     AUC 3115  19.631  32.323   7.079
    9AU     AUC 3116  19.077  32.069   8.000
    9AU     AUC 3117  19.124  32.419   7.971
    9AU     AUC 3118  19.088  31.968   7.103
    9AU     AUC 3119  19.042  32.296   7.083
    9AU     AUC 3120  19.869  32.439   7.346
    9AU     AUC 3121  19.835  32.436   7.705
    9AU     AUC 3122  18.910  32.451   7.383
    9AU     AUC 3123  18.955  32.517   7.713
    9AU     AUC 3124  19.832  31.888   7.407
    9AU     AUC 3125  19.780  31.842   7.739
    9AU     AUC 3126  18.911  31.865   7.373
    9AU     AUC 3127  18.937  31.939   7.716
    9AU     AUC 3128  19.275  32.669   7.782
    9AU     AUC 3129  19.614  32.624   7.793
    9AU     AUC 3130  19.162  31.736   7.817
    9AU     AUC 3131  19.480  31.683   7.809
    9AU     AUC 3132  19.185  32.602   7.215
    9AU     AUC 3133  19.550  32.618   7.226
    9AU     AUC 3134  19.216  31.704   7.258
    9AU     AUC 3135  19.576  31.749   7.274
    9AU    AUSL 3136  19.875  32.039   8.316
    9AU    AUSL 3137  19.625  31.666   8.222
    9AU     AUL 3138  19.932  31.667   8.389
    9AU    AUSL 3139  19.460  31.981   8.460
    9AU    AUSL 3140  19.222  32.390   8.451
    9AU     AUL 3141  19.458  32.265   8.710
    9AU    AUSL 3142  19.559  32.338   8.204
    9AU    AUSL 3143  20.010  32.397   8.126
    9AU     AUL 3144  19.828  32.362   8.435
    9AU    AUSL 3145  19.783  32.199   6.840
    9AU    AUSL 3146  19.644  32.595   6.981
    9AU     AUL 3147  19.858  32.527   6.681
    9AU    AUSL 3148  19.595  31.877   6.612
    9AU    AUSL 3149  20.102  31.947   6.982
    9AU     AUL 3150  19.970  32.021   6.665
    9AU    AUSL 3151  19.427  32.381   6.670
    9AU    AUSL 3152  19.249  31.995   6.829
    9AU     AUL 3153  19.380  32.074   6.524
    9AU    AUSL 3154  18.838  32.352   8.243
    9AU    AUSL 3155  19.201  32.661   8.111
    9AU     AUL 3156  19.038  32.629   8.412
    9AU    AUSL 3157  19.139  32.039   8.191
    9AU    AUSL 3158  18.690  31.962   8.105
    9AU     AUL 3159  18.747  32.051   8.341
    9AU    AUSL 3160  18.813  31.977   6.795
    9AU    AUSL 3161  19.062  31.627   6.947
    9AU     AUL 3162  19.086  31.713   6.641
    9AU    AUSL 3163  18.999  32.345   6.675
    9AU    AUSL 3164  18.719  32.326   7.050
    9AU     AUL 3165  18.602  32.207   6.776
    9AU    AUSL 3166  20.167  32.634   7.476
    9AU    AUSL 3167  20.042  32.424   7.096
    9AU     AUL 3168  20.337  32.629   7.128
    9AU    AUSL 3169  20.332  32.238   7.367
    9AU    AUSL 3170  20.281  31.940   7.768
    9AU     AUL 3171  20.543  32.024   7.571
    9AU    AUSL 3172  20.054  32.293   7.718
    9AU    AUSL 3173  20.012  32.737   7.853
    9AU     AUL 3174  20.260  32.477   7.878
    9AU    AUSL 3175  18.801  32.814   7.522
    9AU    AUSL 3176  18.838  32.566   7.878
    9AU     AUL 3177  18.529  32.811   7.745
    9AU    AUSL 3178  18.600  32.435   7.444
    9AU    AUSL 3179  18.753  32.751   7.106
    9AU     AUL 3180  18.517  32.676   7.263
    9AU    AUSL 3181  18.473  32.357   7.888
    9AU    AUSL 3182  18.440  32.051   7.349
    9AU     AUL 3183  18.318  32.368   7.590
    9AU    AUSL 3184  20.059  31.591   7.615
    9AU    AUSL 3185  19.885  31.874   7.925
    9AU     AUL 3186  20.192  31.780   8.001
    9AU    AUSL 3187  20.017  31.961   7.397
    9AU    AUSL 3188  20.007  31.559   7.188
    9AU     AUL 3189  20.251  31.769   7.250
    9AU    AUSL 3190  18.593  31.672   7.553
    9AU    AUSL 3191  18.804  31.882   7.205
    9AU     AUL 3192  18.454  31.775   7.213
    9AU    AUSL 3193  18.710  32.073   7.694
    9AU    AUSL 3194  18.900  31.689   7.849
    9AU     AUL 3195  18.519  31.842   7.848
    9AU    AUSL 3196  19.442  32.997   7.966
    9AU    AUSL 3197  18.987  32.976   7.878
    9AU     AUL 3198  19.209  33.021   8.194
    9AU    AUSL 3199  19.274  32.852   7.591
    9AU    AUSL 3200  19.525  32.985   7.247
    9AU     AUL 3201  19.294  33.192   7.554
    9AU    AUSL 3202  19.712  32.928   7.623
    9AU    AUSL 3203  19.706  32.727   8.153
    9AU     AUL 3204  19.825  33.017   7.941
    9AU    AUSL 3205  19.300  31.531   7.970
    9AU    AUSL 3206  19.724  31.472   7.849
    9AU     AUL 3207  19.485  31.410   8.223
    9AU    AUSL 3208  18.992  31.309   7.699
    9AU    AUSL 3209  19.020  31.646   8.274
    9AU     AUL 3210  19.028  31.348   8.050
    9AU    AUSL 3211  19.424  31.234   7.667
    9AU    AUSL 3212  19.217  31.479   7.362
    9AU     AUL 3213  19.100  31.134   7.487
    9AU    AUSL 3214  19.352  32.870   6.843
    9AU    AUSL 3215  19.924  32.848   7.199
    9AU     AUL 3216  19.668  32.958   6.936
    9AU    AUSL 3217  19.103  32.964   7.210
    9AU    AUSL 3218  19.126  32.553   7.014
    9AU     AUL 3219  19.033  32.859   6.856
    9AU    AUSL 3220  19.442  31.427   6.981
    9AU    AUSL 3221  18.809  31.441   7.258
    9AU     AUL 3222  19.105  31.293   7.043
    9AU    AUSL 3223  19.649  31.451   7.381
    9AU    AUSL 3224  19.672  31.784   7.018
    9AU     AUL 3225  19.766  31.411   7.050
    9AU       S 3226  19.897  31.216   8.227
    9AU     LIG 3227  19.944  30.982   8.352
    9AU     LIG 3228  20.066  30.822   8.479
    9AU     LIG 3229  20.224  30.645   8.590
    9AU       S 3230  19.931  32.006   8.719
    9AU     LIG 3231  20.094  32.064   8.921
    9AU     LIG 3232  20.184  32.120   9.146
    9AU     LIG 3233  20.290  32.087   9.383
    9AU       S 3234  19.609  31.813   8.725
    9AU     LIG 3235  19.665  31.719   9.005
    9AU     LIG 3236  19.831  31.735   9.203
    9AU     LIG 3237  19.965  31.690   9.419
    9AU       S 3238  18.984  32.303   8.757
    9AU     LIG 3239  18.947  32.327   9.059
    9AU     LIG 3240  18.829  32.312   9.261
    9AU     LIG 3241  18.681  32.289   9.479
    9AU       S 3242  19.509  32.737   8.566
    9AU     LIG 3243  19.626  32.874   8.771
    9AU     LIG 3244  19.839  32.794   8.933
    9AU     LIG 3245  20.062  32.668   8.947
    9AU       S 3246  20.201  32.629   8.334
    9AU     LIG 3247  20.384  32.669   8.555
    9AU     LIG 3248  20.524  32.826   8.669
    9AU     LIG 3249  20.700  33.002   8.744
    9AU       S 3250  19.802  32.258   6.306
    9AU     LIG 3251  20.017  32.313   6.093
    9AU     LIG 3252  20.151  32.147   5.955
    9AU     LIG 3253  20.211  31.956   5.795
    9AU       S 3254  20.017  32.958   6.652
    9AU     LIG 3255  20.063  33.151   6.462
    9AU     LIG 3256  20.226  33.241   6.288
    9AU     LIG 3257  20.391  33.332   6.123
    9AU       S 3258  20.277  31.669   6.768
    9AU     LIG 3259  20.439  31.582   6.527
    9AU     LIG 3260  20.453  31.363   6.388
    9AU     LIG 3261  20.469  31.108   6.348
    9AU       S 3262  19.723  31.963   6.240
    9AU     LIG 3263  19.745  31.839   6.011
    9AU     LIG 3264  19.732  31.766   5.771
    9AU     LIG 3265  19.803  31.746   5.521
    9AU       S 3266  18.989  32.023   6.303
    9AU     LIG 3267  19.044  31.990   6.024
    9AU     LIG 3268  19.050  31.936   5.795
    9AU     LIG 3269  18.974  31.895   5.540
    9AU       S 3270  19.559  32.404   6.264
    9AU     LIG 3271  19.460  32.338   5.973
    9AU     LIG 3272  19.602  32.263   5.780
    9AU     LIG 3273  19.795  32.255   5.607
    9AU       S 3274  18.708  32.391   8.643
    9AU     LIG 3275  18.497  32.366   8.819
    9AU     LIG 3276  18.443  32.150   8.977
    9AU     LIG 3277  18.373  32.018   9.166
    9AU       S 3278  18.739  32.949   8.268
    9AU     LIG 3279  18.653  33.104   8.501
    9AU     LIG 3280  18.512  33.115   8.694
    9AU     LIG 3281  18.343  33.204   8.877
    9AU       S 3282  18.462  31.683   8.284
    9AU     LIG 3283  18.216  31.614   8.381
    9AU     LIG 3284  18.071  31.422   8.457
    9AU     LIG 3285  17.944  31.240   8.575
    9AU       S 3286  19.033  32.011   8.684
    9AU     LIG 3287  18.956  31.835   8.887
    9AU     LIG 3288  18.843  31.815   9.105
    9AU     LIG 3289  18.798  31.801   9.361
    9AU       S 3290  18.727  31.935   6.418
    9AU     LIG 3291  18.548  31.865   6.208
    9AU     LIG 3292  18.537  31.936   5.957
    9AU     LIG 3293  18.525  32.046   5.737
    9AU       S 3294  18.761  31.387   6.745
    9AU     LIG 3295  18.687  31.200   6.540
    9AU     LIG 3296  18.529  31.158   6.354
    9AU     LIG 3297  18.345  31.109   6.184
    9AU       S 3298  18.391  32.613   6.798
    9AU     LIG 3299  18.184  32.782   6.744
    9AU     LIG 3300  18.132  32.981   6.588
    9AU     LIG 3301  18.108  33.104   6.367
    9AU       S 3302  18.889  32.291   6.393
    9AU     LIG 3303  18.722  32.392   6.139
    9AU     LIG 3304  18.805  32.429   5.913
    9AU     LIG 3305  18.913  32.409   5.679
    9AU       S 3306  20.248  32.772   6.708
    9AU     LIG 3307  20.463  32.818   6.537
    9AU     LIG 3308  20.620  32.930   6.389
    9AU     LIG 3309  20.801  33.049   6.245
    9AU       S 3310  20.500  32.748   7.556
    9AU     LIG 3311  20.713  32.952   7.540
    9AU     LIG 3312  20.957  32.996   7.511
    9AU     LIG 3313  21.210  33.059   7.532
    9AU       S 3314  20.676  32.449   7.388
    9AU     LIG 3315  20.945  32.520   7.293
    9AU     LIG 3316  21.185  32.586   7.306
    9AU     LIG 3317  21.407  32.700   7.226
    9AU       S 3318  20.540  31.570   7.790
    9AU     LIG 3319  20.775  31.468   7.920
    9AU     LIG 3320  21.028  31.463   7.859
    9AU     LIG 3321  21.277  31.431   7.780
    9AU       S 3322  20.237  32.877   8.127
    9AU     LIG 3323  20.432  33.054   8.210
    9AU     LIG 3324  20.477  33.253   8.357
    9AU     LIG 3325  20.496  33.432   8.540
    9AU       S 3326  20.647  32.481   7.663
    9AU     LIG 3327  20.885  32.552   7.814
    9AU     LIG 3328  21.122  32.619   7.811
    9AU     LIG 3329  21.352  32.709   7.878
    9AU       S 3330  18.573  32.726   8.203
    9AU     LIG 3331  18.334  32.718   8.380
    9AU     LIG 3332  18.148  32.857   8.444
    9AU     LIG 3333  17.972  32.976   8.594
    9AU       S 3334  18.740  33.150   7.463
    9AU     LIG 3335  18.580  33.358   7.335
    9AU     LIG 3336  18.334  33.338   7.239
    9AU     LIG 3337  18.146  33.181   7.123
    9AU       S 3338  18.176  32.369   7.139
    9AU     LIG 3339  17.938  32.374   7.071
    9AU     LIG 3340  17.683  32.450   7.141
    9AU     LIG 3341  17.538  32.663   7.163
    9AU       S 3342  18.606  33.023   6.929
    9AU     LIG 3343  18.533  33.231   6.787
    9AU     LIG 3344  18.391  33.410   6.702
    9AU     LIG 3345  18.260  33.565   6.537
    9AU       S 3346  18.087  31.965   7.449
    9AU     LIG 3347  17.810  31.955   7.337
    9AU     LIG 3348  17.567  31.937   7.332
    9AU     LIG 3349  17.333  31.816   7.284
    9AU       S 3350  18.278  32.284   8.097
    9AU     LIG 3351  17.965  32.388   8.182
    9AU     LIG 3352  17.848  32.600   8.094
    9AU     LIG 3353  17.668  32.747   7.968
    9AU       S 3354  20.270  31.400   7.606
    9AU     LIG 3355  20.404  31.098   7.622
    9AU     LIG 3356  20.632  31.032   7.697
    9AU     LIG 3357  20.903  31.018   7.655
    9AU       S 3358  20.114  31.339   8.066
    9AU     LIG 3359  20.361  31.203   8.105
    9AU     LIG 3360  20.491  31.115   8.287
    9AU     LIG 3361  20.538  31.045   8.537
    9AU       S 3362  20.527  31.550   7.519
    9AU     LIG 3363  20.750  31.428   7.383
    9AU     LIG 3364  20.991  31.429   7.343
    9AU     LIG 3365  21.232  31.357   7.280
    9AU       S 3366  20.219  31.407   6.925
    9AU     LIG 3367  20.284  31.147   6.822
    9AU     LIG 3368  20.157  30.924   6.774
    9AU     LIG 3369  20.116  30.705   6.659
    9AU       S 3370  18.584  31.582   6.817
    9AU     LIG 3371  18.351  31.592   6.620
    9AU     LIG 3372  18.174  31.475   6.527
    9AU     LIG 3373  17.968  31.317   6.465
    9AU       S 3374  18.169  31.674   7.583
    9AU     LIG 3375  17.952  31.508   7.588
    9AU     LIG 3376  17.725  31.460   7.482
    9AU     LIG 3377  17.492  31.356   7.441
    9AU       S 3378  18.581  31.453   8.082
    9AU     LIG 3379  18.405  31.245   8.068
    9AU     LIG 3380  18.285  31.059   8.174
    9AU     LIG 3381  18.152  30.873   8.287
    9AU       S 3382  18.111  31.969   7.713
    9AU     LIG 3383  17.877  31.941   7.888
    9AU     LIG 3384  17.638  31.849   7.835
    9AU     LIG 3385  17.429  31.714   7.809
    9AU       S 3386  18.780  33.168   7.989
    9AU     LIG 3387  18.545  33.357   8.062
    9AU     LIG 3388  18.320  33.320   8.206
    9AU     LIG 3389  18.188  33.397   8.412
    9AU       S 3390  19.523  33.354   8.053
    9AU     LIG 3391  19.634  33.541   8.255
    9AU     LIG 3392  19.522  33.731   8.380
    9AU     LIG 3393  19.377  33.932   8.444
    9AU       S 3394  19.285  33.489   7.925
    9AU     LIG 3395  19.196  33.714   7.968
    9AU     LIG 3396  19.170  33.973   7.984
    9AU     LIG 3397  19.179  34.224   8.012
    9AU       S 3398  19.450  33.332   7.131
    9AU     LIG 3399  19.516  33.601   7.146
    9AU     LIG 3400  19.550  33.833   7.130
    9AU     LIG 3401  19.613  34.076   7.042
    9AU       S 3402  19.960  32.844   8.364
    9AU     LIG 3403  20.035  33.063   8.543
    9AU     LIG 3404  20.136  33.144   8.736
    9AU     LIG 3405  20.262  33.162   8.967
    9AU       S 3406  19.662  33.405   7.734
    9AU     LIG 3407  19.694  33.678   7.718
    9AU     LIG 3408  19.669  33.888   7.875
    9AU     LIG 3409  19.681  34.072   8.040
    9AU       S 3410  19.383  30.995   8.062
    9AU     LIG 3411  19.502  30.789   8.213
    9AU     LIG 3412  19.490  30.582   8.334
    9AU     LIG 3413  19.471  30.345   8.434
    9AU       S 3414  19.866  31.228   7.902
    9AU     LIG 3415  19.970  30.924   7.827
    9AU     LIG 3416  20.130  30.790   7.925
    9AU     LIG 3417  20.342  30.690   8.057
    9AU       S 3418  19.131  30.909   7.896
    9AU     LIG 3419  19.082  30.642   7.918
    9AU     LIG 3420  19.104  30.424   8.033
    9AU     LIG 3421  19.094  30.186   8.129
    9AU       S 3422  18.725  31.535   8.386
    9AU     LIG 3423  18.598  31.317   8.570
    9AU     LIG 3424  18.461  31.143   8.640
    9AU     LIG 3425  18.324  30.949   8.762
    9AU       S 3426  19.449  31.005   7.221
    9AU     LIG 3427  19.388  30.677   7.210
    9AU     LIG 3428  19.373  30.481   7.090
    9AU     LIG 3429  19.373  30.214   7.027
    9AU       S 3430  19.463  30.958   7.758
    9AU     LIG 3431  19.563  30.656   7.712
    9AU     LIG 3432  19.576  30.459   7.838
    9AU     LIG 3433  19.570  30.213   7.941
    9AU       S 3434  19.302  33.252   6.835
    9AU     LIG 3435  19.308  33.481   6.681
    9AU     LIG 3436  19.431  33.697   6.641
    9AU     LIG 3437  19.497  33.931   6.564
    9AU       S 3438  20.141  33.028   6.958
    9AU     LIG 3439  20.339  33.232   6.901
    9AU     LIG 3440  20.498  33.306   6.721
    9AU     LIG 3441  20.646  33.428   6.558
    9AU       S 3442  19.099  33.273   7.112
    9AU     LIG 3443  18.987  33.551   7.085
    9AU     LIG 3444  19.044  33.777   6.998
    9AU     LIG 3445  19.118  34.002   6.907
    9AU       S 3446  18.661  32.683   6.654
    9AU     LIG 3447  18.601  32.818   6.415
    9AU     LIG 3448  18.611  33.048   6.319
    9AU     LIG 3449  18.584  33.287   6.239
    9AU       S 3450  18.606  31.351   7.029
    9AU     LIG 3451  18.349  31.178   6.950
    9AU     LIG 3452  18.262  31.036   6.784
    9AU     LIG 3453  18.176  30.863   6.606
    9AU       S 3454  19.519  31.044   6.941
    9AU     LIG 3455  19.636  30.865   6.769
    9AU     LIG 3456  19.609  30.655   6.646
    9AU     LIG 3457  19.533  30.417   6.582
    9AU       S 3458  19.712  31.045   7.324
    9AU     LIG 3459  19.876  30.804   7.293
    9AU     LIG 3460  19.883  30.598   7.128
    9AU     LIG 3461  19.868  30.381   6.984
    9AU       S 3462  19.973  31.554   6.673
    9AU     LIG 3463  19.959  31.376   6.470
    9AU     LIG 3464  19.949  31.148   6.376
    9AU     LIG 3465  20.000  30.945   6.221
   10AU     AUC 3466  13.836   3.131   7.535
   10AU     AUC 3467  14.088   3.136   7.369
   10AU     AUC 3468  14.077   3.123   7.699
   10AU     AUC 3469  13.566   3.139   7.380
   10AU     AUC 3470  13.592   3.168   7.705
   10AU     AUC 3471  13.675   3.384   7.513
   10AU     AUC 3472  14.022   3.396   7.516
   10AU     AUC 3473  13.657   2.877   7.543
   10AU     AUC 3474  13.988   2.855   7.545
   10AU     AUC 3475  13.830   2.971   7.798
   10AU     AUC 3476  13.849   3.311   7.779
   10AU     AUC 3477  13.823   2.958   7.287
   10AU     AUC 3478  13.843   3.264   7.271
   10AU     AUC 3479  14.391   3.127   7.204
   10AU     AUC 3480  14.399   3.107   7.545
   10AU     AUC 3481  14.357   3.094   7.899
   10AU     AUC 3482  13.264   3.113   7.228
   10AU     AUC 3483  13.263   3.172   7.556
   10AU     AUC 3484  13.292   3.211   7.888
   10AU     AUC 3485  13.510   3.697   7.474
   10AU     AUC 3486  13.870   3.671   7.457
   10AU     AUC 3487  14.236   3.659   7.487
   10AU     AUC 3488  13.453   2.588   7.548
   10AU     AUC 3489  13.804   2.564   7.529
   10AU     AUC 3490  14.160   2.553   7.546
   10AU     AUC 3491  13.789   2.805   8.101
   10AU     AUC 3492  13.826   3.147   8.101
   10AU     AUC 3493  13.883   3.511   8.062
   10AU     AUC 3494  13.854   2.768   6.997
   10AU     AUC 3495  13.802   3.109   6.973
   10AU     AUC 3496  13.799   3.432   6.957
   10AU     AUC 3497  14.071   2.909   8.012
   10AU     AUC 3498  14.127   3.285   7.987
   10AU     AUC 3499  14.126   2.971   7.072
   10AU     AUC 3500  14.091   3.283   7.079
   10AU     AUC 3501  13.537   3.029   8.000
   10AU     AUC 3502  13.584   3.379   7.971
   10AU     AUC 3503  13.548   2.928   7.103
   10AU     AUC 3504  13.502   3.256   7.083
   10AU     AUC 3505  14.329   3.399   7.346
   10AU     AUC 3506  14.295   3.396   7.705
   10AU     AUC 3507  13.370   3.411   7.383
   10AU     AUC 3508  13.415   3.477   7.713
   10AU     AUC 3509  14.292   2.848   7.407
   10AU     AUC 3510  14.240   2.802   7.739
   10AU     AUC 3511  13.371   2.825   7.373
   10AU     AUC 3512  13.397   2.899   7.716
   10AU     AUC 3513  13.735   3.629   7.782
   10AU     AUC 3514  14.074   3.584   7.793
   10AU     AUC 3515  13.622   2.696   7.817
   10AU     AUC 3516  13.940   2.643   7.809
   10AU     AUC 3517  13.645   3.562   7.215
   10AU     AUC 3518  14.010   3.578   7.226
   10AU     AUC 3519  13.676   2.664   7.258
   10AU     AUC 3520  14.036   2.709   7.274
   10AU    AUSL 3521  14.335   2.999   8.316
   10AU    AUSL 3522  14.085   2.626   8.222
   10AU     AUL 3523  14.392   2.627   8.389
   10AU    AUSL 3524  13.920   2.941   8.460
   10AU    AUSL 3525  13.682   3.350   8.451
   10AU     AUL 3526  13.918   3.225   8.710
   10AU    AUSL 3527  14.019   3.298   8.204
   10AU    AUSL 3528  14.470   3.357   8.126
   10AU     AUL 3529  14.288   3.322   8.435
   10AU    AUSL 3530  14.243   3.159   6.840
   10AU    AUSL 3531  14.104   3.555   6.981
   10AU     AUL 3532  14.318   3.487   6.681
   10AU    AUSL 3533  14.055   2.837   6.612
   10AU    AUSL 3534  14.562   2.907   6.982
   10AU     AUL 3535  14.430   2.981   6.665
   10AU    AUSL 3536  13.887   3.341   6.670
   10AU    AUSL 3537  13.709   2.955   6.829
   10AU     AUL 3538  13.840   3.034   6.524
   10AU    AUSL 3539  13.298   3.312   8.243
   10AU    AUSL 3540  13.661   3.621   8.111
   10AU     AUL 3541  13.498   3.589   8.412
   10AU    AUSL 3542  13.599   2.999   8.191
   10AU    AUSL 3543  13.150   2.922   8.105
   10AU     AUL 3544  13.207   3.011   8.341
   10AU    AUSL 3545  13.273   2.937   6.795
   10AU    AUSL 3546  13.522   2.587   6.947
   10AU     AUL 3547  13.546   2.673   6.641
   10AU    AUSL 3548  13.459   3.305   6.675
   10AU    AUSL 3549  13.179   3.286   7.050
   10AU     AUL 3550  13.062   3.167   6.776
   10AU    AUSL 3551  14.627   3.594   7.476
   10AU    AUSL 3552  14.502   3.384   7.096
   10AU     AUL 3553  14.797   3.589   7.128
   10AU    AUSL 3554  14.792   3.198   7.367
   10AU    AUSL 3555  14.741   2.900   7.768
   10AU     AUL 3556  15.003   2.984   7.571
   10AU    AUSL 3557  14.514   3.253   7.718
   10AU    AUSL 3558  14.472   3.697   7.853
   10AU     AUL 3559  14.720   3.437   7.878
   10AU    AUSL 3560  13.261   3.774   7.522
   10AU    AUSL 3561  13.298   3.526   7.878
   10AU     AUL 3562  12.989   3.771   7.745
   10AU    AUSL 3563  13.060   3.395   7.444
   10AU    AUSL 3564  13.213   3.711   7.106
   10AU     AUL 3565  12.977   3.636   7.263
   10AU    AUSL 3566  12.933   3.317   7.888
   10AU    AUSL 3567  12.900   3.011   7.349
   10AU     AUL 3568  12.778   3.328   7.590
   10AU    AUSL 3569  14.519   2.551   7.615
   10AU    AUSL 3570  14.345   2.834   7.925
   10AU     AUL 3571  14.652   2.740   8.001
   10AU    AUSL 3572  14.477   2.921   7.397
   10AU    AUSL 3573  14.467   2.519   7.188
   10AU     AUL 3574  14.711   2.729   7.250
   10AU    AUSL 3575  13.053   2.632   7.553
   10AU    AUSL 3576  13.264   2.842   7.205
   10AU     AUL 3577  12.914   2.735   7.213
   10AU    AUSL 3578  13.170   3.033   7.694
   10AU    AUSL 3579  13.360   2.649   7.849
   10AU     AUL 3580  12.979   2.802   7.848
   10AU    AUSL 3581  13.902   3.957   7.966
   10AU    AUSL 3582  13.447   3.936   7.878
   10AU     AUL 3583  13.669   3.981   8.194
   10AU    AUSL 3584  13.734   3.812   7.591
   10AU    AUSL 3585  13.985   3.945   7.247
   10AU     AUL 3586  13.754   4.152   7.554
   10AU    AUSL 3587  14.172   3.888   7.623
   10AU    AUSL 3588  14.166   3.687   8.153
   10AU     AUL 3589  14.285   3.977   7.941
   10AU    AUSL 3590  13.760   2.491   7.970
   10AU    AUSL 3591  14.184   2.432   7.849
   10AU     AUL 3592  13.945   2.370   8.223
   10AU    AUSL 3593  13.452   2.269   7.699
   10AU    AUSL 3594  13.480   2.606   8.274
   10AU     AUL 3595  13.488   2.308   8.050
   10AU    AUSL 3596  13.884   2.194   7.667
   10AU    AUSL 3597  13.677   2.439   7.362
   10AU     AUL 3598  13.560   2.094   7.487
   10AU    AUSL 3599  13.812   3.830   6.843
   10AU    AUSL 3600  14.384   3.808   7.199
   10AU     AUL 3601  14.128   3.918   6.936
   10AU    AUSL 3602  13.563   3.924   7.210
   10AU    AUSL 3603  13.586   3.513   7.014
   10AU     AUL 3604  13.493   3.819   6.856
   10AU    AUSL 3605  13.902   2.387   6.981
   10AU    AUSL 3606  13.269   2.401   7.258
   10AU     AUL 3607  13.565   2.253   7.043
   10AU    AUSL 3608  14.109   2.411   7.381
   10AU    AUSL 3609  14.132   2.744   7.018
   10AU     AUL 3610  14.226   2.371   7.050
   10AU       S 3611  14.357   2.176   8.227
   10AU     LIG 3612  14.404   1.942   8.352
   10AU     LIG 3613  14.526   1.782   8.479
   10AU     LIG 3614  14.684   1.605   8.590
   10AU       S 3615  14.391   2.966   8.719
   10AU     LIG 3616  14.554   3.024   8.921
   10AU     LIG 3617  14.644   3.080   9.146
   10AU     LIG 3618  14.750   3.047   9.383
   10AU       S 3619  14.069   2.773   8.725
   10AU     LIG 3620  14.125   2.679   9.005
   10AU     LIG 3621  14.291   2.695   9.203
   10AU     LIG 3622  14.425   2.650   9.419
   10AU       S 3623  13.444   3.263   8.757
   10AU     LIG 3624  13.407   3.287   9.059
   10AU     LIG 3625  13.289   3.272   9.261
   10AU     LIG 3626  13.141   3.249   9.479
   10AU       S 3627  13.969   3.697   8.566
   10AU     LIG 3628  14.086   3.834   8.771
   10AU     LIG 3629  14.299   3.754   8.933
   10AU     LIG 3630  14.522   3.628   8.947
   10AU       S 3631  14.661   3.589   8.334
   10AU     LIG 3632  14.844   3.629   8.555
   10AU     LIG 3633  14.984   3.786   8.669
   10AU     LIG 3634  15.160   3.962   8.744
   10AU       S 3635  14.262   3.218   6.306
   10AU     LIG 3636  14.477   3.273   6.093
   10AU     LIG 3637  14.611   3.107   5.955
   10AU     LIG 3638  14.671   2.916   5.795
   10AU       S 3639  14.477   3.918   6.652
   10AU     LIG 3640  14.523   4.111   6.462
   10AU     LIG 3641  14.686   4.201   6.288
   10AU     LIG 3642  14.851   4.292   6.123
   10AU       S 3643  14.737   2.629   6.768
   10AU     LIG 3644  14.899   2.542   6.527
   10AU     LIG 3645  14.913   2.323   6.388
   10AU     LIG 3646  14.929   2.068   6.348
   10AU       S 3647  14.183   2.923   6.240
   10AU     LIG 3648  14.205   2.799   6.011
   10AU     LIG 3649  14.192   2.726   5.771
   10AU     LIG 3650  14.263   2.706   5.521
   10AU       S 3651  13.449   2.983   6.303
   10AU     LIG 3652  13.504   2.950   6.024
   10AU     LIG 3653  13.510   2.896   5.795
   10AU     LIG 3654  13.434   2.855   5.540
   10AU       S 3655  14.019   3.364   6.264
   10AU     LIG 3656  13.920   3.298   5.973
   10AU     LIG 3657  14.062   3.223   5.780
   10AU     LIG 3658  14.255   3.215   5.607
   10AU       S 3659  13.168   3.351   8.643
   10AU     LIG 3660  12.957   3.326   8.819
   10AU     LIG 3661  12.903   3.110   8.977
   10AU     LIG 3662  12.833   2.978   9.166
   10AU       S 3663  13.199   3.909   8.268
   10AU     LIG 3664  13.113   4.064   8.501
   10AU     LIG 3665  12.972   4.075   8.694
   10AU     LIG 3666  12.803   4.164   8.877
   10AU       S 3667  12.922   2.643   8.284
   10AU     LIG 3668  12.676   2.574   8.381
   10AU     LIG 3669  12.531   2.382   8.457
   10AU     LIG 3670  12.404   2.200   8.575
   10AU       S 3671  13.493   2.971   8.684
   10AU     LIG 3672  13.416   2.795   8.887
   10AU     LIG 3673  13.303   2.775   9.105
   10AU     LIG 3674  13.258   2.761   9.361
   10AU       S 3675  13.187   2.895   6.418
   10AU     LIG 3676  13.008   2.825   6.208
   10AU     LIG 3677  12.997   2.896   5.957
   10AU     LIG 3678  12.985   3.006   5.737
   10AU       S 3679  13.221   2.347   6.745
   10AU     LIG 3680  13.147   2.160   6.540
   10AU     LIG 3681  12.989   2.118   6.354
   10AU     LIG 3682  12.805   2.069   6.184
   10AU       S 3683  12.851   3.573   6.798
   10AU     LIG 3684  12.644   3.742   6.744
   10AU     LIG 3685  12.592   3.941   6.588
   10AU     LIG 3686  12.568   4.064   6.367
   10AU       S 3687  13.349   3.251   6.393
   10AU     LIG 3688  13.182   3.352   6.139
   10AU     LIG 3689  13.265   3.389   5.913
   10AU     LIG 3690  13.373   3.369   5.679
   10AU       S 3691  14.708   3.732   6.708
   10AU     LIG 3692  14.923   3.778   6.537
   10AU     LIG 3693  15.080   3.890   6.389
   10AU     LIG 3694  15.261   4.009   6.245
   10AU       S 3695  14.960   3.708   7.556
   10AU     LIG 3696  15.173   3.912   7.540
   10AU     LIG 3697  15.417   3.956   7.511
   10AU     LIG 3698  15.670   4.019   7.532
   10AU       S 3699  15.136   3.409   7.388
   10AU     LIG 3700  15.405   3.480   7.293
   10AU     LIG 3701  15.645   3.546   7.306
   10AU     LIG 3702  15.867   3.660   7.226
   10AU       S 3703  15.000   2.530   7.790
   10AU     LIG 3704  15.235   2.428   7.920
   10AU     LIG 3705  15.488   2.423   7.859
   10AU     LIG 3706  15.737   2.391   7.780
   10AU       S 3707  14.697   3.837   8.127
   10AU     LIG 3708  14.892   4.014   8.210
   10AU     LIG 3709  14.937   4.213   8.357
   10AU     LIG 3710  14.956   4.392   8.540
   10AU       S 3711  15.107   3.441   7.663
   10AU     LIG 3712  15.345   3.512   7.814
   10AU     LIG 3713  15.582   3.579   7.811
   10AU     LIG 3714  15.812   3.669   7.878
   10AU       S 3715  13.033   3.686   8.203
   10AU     LIG 3716  12.794   3.678   8.380
   10AU     LIG 3717  12.608   3.817   8.444
   10AU     LIG 3718  12.432   3.936   8.594
   10AU       S 3719  13.200   4.110   7.463
   10AU     LIG 3720  13.040   4.318   7.335
   10AU     LIG 3721  12.794   4.298   7.239
   10AU     LIG 3722  12.606   4.141   7.123
   10AU       S 3723  12.636   3.329   7.139
   10AU     LIG 3724  12.398   3.334   7.071
   10AU     LIG 3725  12.143   3.410   7.141
   10AU     LIG 3726  11.998   3.623   7.163
   10AU       S 3727  13.066   3.983   6.929
   10AU     LIG 3728  12.993   4.191   6.787
   10AU     LIG 3729  12.851   4.370   6.702
   10AU     LIG 3730  12.720   4.525   6.537
   10AU       S 3731  12.547   2.925   7.449
   10AU     LIG 3732  12.270   2.915   7.337
   10AU     LIG 3733  12.027   2.897   7.332
   10AU     LIG 3734  11.793   2.776   7.284
   10AU       S 3735  12.738   3.244   8.097
   10AU     LIG 3736  12.425   3.348   8.182
   10AU     LIG 3737  12.308   3.560   8.094
   10AU     LIG 3738  12.128   3.707   7.968
   10AU       S 3739  14.730   2.360   7.606
   10AU     LIG 3740  14.864   2.058   7.622
   10AU     LIG 3741  15.092   1.992   7.697
   10AU     LIG 3742  15.363   1.978   7.655
   10AU       S 3743  14.574   2.299   8.066
   10AU     LIG 3744  14.821   2.163   8.105
   10AU     LIG 3745  14.951   2.075   8.287
   10AU     LIG 3746  14.998   2.005   8.537
   10AU       S 3747  14.987   2.510   7.519
   10AU     LIG 3748  15.210   2.388   7.383
   10AU     LIG 3749  15.451   2.389   7.343
   10AU     LIG 3750  15.692   2.317   7.280
   10AU       S 3751  14.679   2.367   6.925
   10AU     LIG 3752  14.744   2.107   6.822
   10AU     LIG 3753  14.617   1.884   6.774
   10AU     LIG 3754  14.576   1.665   6.659
   10AU       S 3755  13.044   2.542   6.817
   10AU     LIG 3756  12.811   2.552   6.620
   10AU     LIG 3757  12.634   2.435   6.527
   10AU     LIG 3758  12.428   2.277   6.465
   10AU       S 3759  12.629   2.634   7.583
   10AU     LIG 3760  12.412   2.468   7.588
   10AU     LIG 3761  12.185   2.420   7.482
   10AU     LIG 3762  11.952   2.316   7.441
   10AU       S 3763  13.041   2.413   8.082
   10AU     LIG 3764  12.865   2.205   8.068
   10AU     LIG 3765  12.745   2.019   8.174
   10AU     LIG 3766  12.612   1.833   8.287
   10AU       S 3767  12.571   2.929   7.713
   10AU     LIG 3768  12.337   2.901   7.888
   10AU     LIG 3769  12.098   2.809   7.835
   10AU     LIG 3770  11.889   2.674   7.809
   10AU       S 3771  13.240   4.128   7.989
   10AU     LIG 3772  13.005   4.317   8.062
   10AU     LIG 3773  12.780   4.280   8.206
   10AU     LIG 3774  12.648   4.357   8.412
   10AU       S 3775  13.983   4.314   8.053
   10AU     LIG 3776  14.094   4.501   8.255
   10AU     LIG 3777  13.982   4.691   8.380
   10AU     LIG 3778  13.837   4.892   8.444
   10AU       S 3779  13.745   4.449   7.925
   10AU     LIG 3780  13.656   4.674   7.968
   10AU     LIG 3781  13.630   4.933   7.984
   10AU     LIG 3782  13.639   5.184   8.012
   10AU       S 3783  13.910   4.292   7.131
   10AU     LIG 3784  13.976   4.561   7.146
   10AU     LIG 3785  14.010   4.793   7.130
   10AU     LIG 3786  14.073   5.036   7.042
   10AU       S 3787  14.420   3.804   8.364
   10AU     LIG 3788  14.495   4.023   8.543
   10AU     LIG 3789  14.596   4.104   8.736
   10AU     LIG 3790  14.722   4.122   8.967
   10AU       S 3791  14.122   4.365   7.734
   10AU     LIG 3792  14.154   4.638   7.718
   10AU     LIG 3793  14.129   4.848   7.875
   10AU     LIG 3794  14.141   5.032   8.040
   10AU       S 3795  13.843   1.955   8.062
   10AU     LIG 3796  13.962   1.749   8.213
   10AU     LIG 3797  13.950   1.542   8.334
   10AU     LIG 3798  13.931   1.305   8.434
   10AU       S 3799  14.326   2.188   7.902
   10AU     LIG 3800  14.430   1.884   7.827
   10AU     LIG 3801  14.590   1.750   7.925
   10AU     LIG 3802  14.802   1.650   8.057
   10AU       S 3803  13.591   1.869   7.896
   10AU     LIG 3804  13.542   1.602   7.918
   10AU     LIG 3805  13.564   1.384   8.033
   10AU     LIG 3806  13.554   1.146   8.129
   10AU       S 3807  13.185   2.495   8.386
   10AU     LIG 3808  13.058   2.277   8.570
   10AU     LIG 3809  12.921   2.103   8.640
   10AU     LIG 3810  12.784   1.909   8.762
   10AU       S 3811  13.909   1.965   7.221
   10AU     LIG 3812  13.848   1.637   7.210
   10AU     LIG 3813  13.833   1.441   7.090
   10AU     LIG 3814  13.833   1.174   7.027
   10AU       S 3815  13.923   1.918   7.758
   10AU     LIG 3816  14.023   1.616   7.712
   10AU     LIG 3817  14.036   1.419   7.838
   10AU     LIG 3818  14.030   1.173   7.941
   10AU       S 3819  13.762   4.212   6.835
   10AU     LIG 3820  13.768   4.441   6.681
   10AU     LIG 3821  13.891   4.657   6.641
   10AU     LIG 3822  13.957   4.891   6.564
   10AU       S 3823  14.601   3.988   6.958
   10AU     LIG 3824  14.799   4.192   6.901
   10AU     LIG 3825  14.958   4.266   6.721
   10AU     LIG 3826  15.106   4.388   6.558
   10AU       S 3827  13.559   4.233   7.112
   10AU     LIG 3828  13.447   4.511   7.085
   10AU     LIG 3829  13.504   4.737   6.998
   10AU     LIG 3830  13.578   4.962   6.907
   10AU       S 3831  13.121   3.643   6.654
   10AU     LIG 3832  13.061   3.778   6.415
   10AU     LIG 3833  13.071   4.008   6.319
   10AU     LIG 3834  13.044   4.247   6.239
   10AU       S 3835  13.066   2.311   7.029
   10AU     LIG 3836  12.809   2.138   6.950
   10AU     LIG 3837  12.722   1.996   6.784
   10AU     LIG 3838  12.636   1.823   6.606
   10AU       S 3839  13.979   2.004   6.941
   10AU     LIG 3840  14.096   1.825   6.769
   10AU     LIG 3841  14.069   1.615   6.646
   10AU     LIG 3842  13.993   1.377   6.582
   10AU       S 3843  14.172   2.005   7.324
   10AU     LIG 3844  14.336   1.764   7.293
   10AU     LIG 3845  14.343   1.558   7.128
   10AU     LIG 3846  14.328   1.341   6.984
   10AU       S 3847  14.433   2.514   6.673
   10AU     LIG 3848  14.419   2.336   6.470
   10AU     LIG 3849  14.409   2.108   6.376
   10AU     LIG 3850  14.460   1.905   6.221
   11POPC   NC3 3851  32.214  42.300   9.464
   11POPC   PO4 3852  32.294  42.342   9.164
   11POPC   GL1 3853  32.282  42.375   8.864
   11POPC   GL2 3854  32.150  42.373   8.864
   11POPC   C1A 3855  32.235  42.307   8.564
   11POPC   D2A 3856  32.207  42.348   8.264
   11POPC   C3A 3857  32.205  42.373   7.964
   11POPC   C4A 3858  32.280  42.313   7.664
   11POPC   C1B 3859  32.048  42.486   8.564
   11POPC   C2B 3860  32.071  42.480   8.264
   11POPC   C3B 3861  32.076  42.466   7.964
   11POPC   C4B 3862  32.039  42.442   7.664
   12POPC   NC3 3863  26.769  29.969   9.464
   12POPC   PO4 3864  26.857  29.966   9.164
   12POPC   GL1 3865  26.848  29.970   8.864
   12POPC   GL2 3866  26.656  29.975   8.864
   12POPC   C1A 3867  26.794  29.927   8.564
   12POPC   D2A 3868  26.851  29.890   8.264
   12POPC   C3A 3869  26.815  29.876   7.964
   12POPC   C4A 3870  26.777  29.887   7.664
   12POPC   C1B 3871  26.565  29.984   8.564
   12POPC   C2B 3872  26.575  29.959   8.264
   12POPC   C3B 3873  26.554  30.025   7.964
   12POPC   C4B 3874  26.595  29.998   7.664
   13POPC   NC3 3875  33.049  16.766   9.464
   13POPC   PO4 3876  33.061  16.693   9.164
   13POPC   GL1 3877  32.975  16.696   8.864
   13POPC   GL2 3878  33.053  16.893   8.864
   13POPC   C1A 3879  33.004  16.777   8.564
   13POPC   D2A 3880  33.028  16.750   8.264
   13POPC   C3A 3881  33.025  16.737   7.964
   13POPC   C4A 3882  33.004  16.767   7.664
   13POPC   C1B 3883  33.112  16.968   8.564
   13POPC   C2B 3884  33.092  16.911   8.264
   13POPC   C3B 3885  33.130  16.938   7.964
   13POPC   C4B 3886  33.149  16.987   7.664
   14POPC   NC3 3887  24.465  16.685   9.464
   14POPC   PO4 3888  24.515  16.720   9.164
   14POPC   GL1 3889  24.491  16.696   8.864
   14POPC   GL2 3890  24.516  16.656   8.864
   14POPC   C1A 3891  24.473  16.725   8.564
   14POPC   D2A 3892  24.528  16.729   8.264
   14POPC   C3A 3893  24.513  16.746   7.964
   14POPC   C4A 3894  24.481  16.691   7.664
   14POPC   C1B 3895  24.594  16.530   8.564
   14POPC   C2B 3896  24.612  16.518   8.264
   14POPC   C3B 3897  24.638  16.502   7.964
   14POPC   C4B 3898  24.628  16.539   7.664
   15POPC   NC3 3899   1.963  24.487   9.464
   15POPC   PO4 3900   1.984  24.443   9.164
   15POPC   GL1 3901   2.005  24.518   8.864
   15POPC   GL2 3902   2.098  24.412   8.864
   15POPC   C1A 3903   1.988  24.480   8.564
   15POPC   D2A 3904   1.966  24.459   8.264
   15POPC   C3A 3905   1.958  24.513   7.964
   15POPC   C4A 3906   2.035  24.488   7.664
   15POPC   C1B 3907   2.139  24.305   8.564
   15POPC   C2B 3908   2.190  24.287   8.264
   15POPC   C3B 3909   2.194  24.292   7.964
   15POPC   C4B 3910   2.207  24.368   7.664
   16POPC   NC3 3911  19.793  41.563   9.464
   16POPC   PO4 3912  19.812  41.605   9.164
   16POPC   GL1 3913  19.827  41.606   8.864
   16POPC   GL2 3914  19.676  41.499   8.864
   16POPC   C1A 3915  19.844  41.532   8.564
   16POPC   D2A 3916  19.828  41.543   8.264
   16POPC   C3A 3917  19.836  41.581   7.964
   16POPC   C4A 3918  19.881  41.546   7.664
   16POPC   C1B 3919  19.580  41.490   8.564
   16POPC   C2B 3920  19.608  41.477   8.264
   16POPC   C3B 3921  19.575  41.499   7.964
   16POPC   C4B 3922  19.607  41.450   7.664
   17POPC   NC3 3923  23.704  43.100   9.464
   17POPC   PO4 3924  23.671  43.101   9.164
   17POPC   GL1 3925  23.740  43.116   8.864
   17POPC   GL2 3926  23.574  43.075   8.864
   17POPC   C1A 3927  23.682  43.137   8.564
   17POPC   D2A 3928  23.666  43.112   8.264
   17POPC   C3A 3929  23.677  43.103   7.964
   17POPC   C4A 3930  23.670  43.120   7.664
   17POPC   C1B 3931  23.472  43.114   8.564
   17POPC   C2B 3932  23.512  43.116   8.264
   17POPC   C3B 3933  23.456  43.115   7.964
   17POPC   C4B 3934  23.423  43.089   7.664
   18POPC   NC3 3935   1.179  36.931   9.464
   18POPC   PO4 3936   1.222  36.933   9.164
   18POPC   GL1 3937   1.179  36.894   8.864
   18POPC   GL2 3938   1.324  36.974   8.864
   18POPC   C1A 3939   1.208  36.945   8.564
   18POPC   D2A 3940   1.178  36.891   8.264
   18POPC   C3A 3941   1.232  36.854   7.964
   18POPC   C4A 3942   1.167  36.942   7.664
   18POPC   C1B 3943   1.313  37.085   8.564
   18POPC   C2B 3944   1.347  37.083   8.264
   18POPC   C3B 3945   1.319  37.131   7.964
   18POPC   C4B 3946   1.353  37.098   7.664
   19POPC   NC3 3947  23.751  40.806   9.464
   19POPC   PO4 3948  23.703  40.739   9.164
   19POPC   GL1 3949  23.714  40.760   8.864
   19POPC   GL2 3950  23.592  40.806   8.864
   19POPC   C1A 3951  23.752  40.823   8.564
   19POPC   D2A 3952  23.709  40.812   8.264
   19POPC   C3A 3953  23.696  40.790   7.964
   19POPC   C4A 3954  23.728  40.743   7.664
   19POPC   C1B 3955  23.491  40.852   8.564
   19POPC   C2B 3956  23.479  40.843   8.264
   19POPC   C3B 3957  23.424  40.888   7.964
   19POPC   C4B 3958  23.433  40.836   7.664
   20POPC   NC3 3959  12.820  27.606   9.464
   20POPC   PO4 3960  12.893  27.603   9.164
   20POPC   GL1 3961  12.858  27.612   8.864
   20POPC   GL2 3962  12.956  27.701   8.864
   20POPC   C1A 3963  12.803  27.567   8.564
   20POPC   D2A 3964  12.889  27.568   8.264
   20POPC   C3A 3965  12.894  27.566   7.964
   20POPC   C4A 3966  12.859  27.630   7.664
   20POPC   C1B 3967  12.975  27.780   8.564
   20POPC   C2B 3968  12.979  27.805   8.264
   20POPC   C3B 3969  12.993  27.844   7.964
   20POPC   C4B 3970  13.001  27.844   7.664
   21POPC   NC3 3971  32.207   2.004   9.464
   21POPC   PO4 3972  32.291   1.992   9.164
   21POPC   GL1 3973  32.236   2.005   8.864
   21POPC   GL2 3974  32.211   2.087   8.864
   21POPC   C1A 3975  32.290   2.033   8.564
   21POPC   D2A 3976  32.253   2.030   8.264
   21POPC   C3A 3977  32.270   2.004   7.964
   21POPC   C4A 3978  32.252   2.031   7.664
   21POPC   C1B 3979  32.073   2.239   8.564
   21POPC   C2B 3980  32.120   2.161   8.264
   21POPC   C3B 3981  32.138   2.144   7.964
   21POPC   C4B 3982  32.057   2.233   7.664
   22POPC   NC3 3983  25.299  33.836   9.464
   22POPC   PO4 3984  25.230  33.751   9.164
   22POPC   GL1 3985  25.278  33.833   8.864
   22POPC   GL2 3986  25.421  33.836   8.864
   22POPC   C1A 3987  25.275  33.792   8.564
   22POPC   D2A 3988  25.256  33.827   8.264
   22POPC   C3A 3989  25.240  33.833   7.964
   22POPC   C4A 3990  25.233  33.827   7.664
   22POPC   C1B 3991  25.488  33.884   8.564
   22POPC   C2B 3992  25.509  33.903   8.264
   22POPC   C3B 3993  25.519  33.962   7.964
   22POPC   C4B 3994  25.474  33.960   7.664
   23POPC   NC3 3995  19.095  41.537   9.464
   23POPC   PO4 3996  19.040  41.528   9.164
   23POPC   GL1 3997  19.027  41.535   8.864
   23POPC   GL2 3998  19.043  41.649   8.864
   23POPC   C1A 3999  19.108  41.531   8.564
   23POPC   D2A 4000  19.071  41.517   8.264
   23POPC   C3A 4001  19.034  41.531   7.964
   23POPC   C4A 4002  19.015  41.538   7.664
   23POPC   C1B 4003  19.019  41.804   8.564
   23POPC   C2B 4004  18.997  41.805   8.264
   23POPC   C3B 4005  19.061  41.758   7.964
   23POPC   C4B 4006  19.086  41.817   7.664
   24POPC   NC3 4007  40.761  31.460   9.464
   24POPC   PO4 4008  40.785  31.468   9.164
   24POPC   GL1 4009  40.825  31.441   8.864
   24POPC   GL2 4010  40.808  31.395   8.864
   24POPC   C1A 4011  40.744  31.520   8.564
   24POPC   D2A 4012  40.762  31.429   8.264
   24POPC   C3A 4013  40.736  31.471   7.964
   24POPC   C4A 4014  40.745  31.432   7.664
   24POPC   C1B 4015  40.806  31.256   8.564
   24POPC   C2B 4016  40.876  31.251   8.264
   24POPC   C3B 4017  40.810  31.219   7.964
   24POPC   C4B 4018  40.841  31.220   7.664
   25POPC   NC3 4019   6.616  28.400   9.464
   25POPC   PO4 4020   6.693  28.388   9.164
   25POPC   GL1 4021   6.608  28.408   8.864
   25POPC   GL2 4022   6.714  28.304   8.864
   25POPC   C1A 4023   6.690  28.370   8.564
   25POPC   D2A 4024   6.639  28.331   8.264
   25POPC   C3A 4025   6.604  28.388   7.964
   25POPC   C4A 4026   6.681  28.387   7.664
   25POPC   C1B 4027   6.803  28.204   8.564
   25POPC   C2B 4028   6.846  28.243   8.264
   25POPC   C3B 4029   6.834  28.248   7.964
   25POPC   C4B 4030   6.809  28.234   7.664
   26POPC   NC3 4031  43.128  41.583   9.464
   26POPC   PO4 4032  43.100  41.598   9.164
   26POPC   GL1 4033  43.149  41.528   8.864
   26POPC   GL2 4034  43.049  41.694   8.864
   26POPC   C1A 4035  43.082  41.606   8.564
   26POPC   D2A 4036  43.108  41.564   8.264
   26POPC   C3A 4037  43.066  41.564   7.964
   26POPC   C4A 4038  43.122  41.543   7.664
   26POPC   C1B 4039  42.973  41.758   8.564
   26POPC   C2B 4040  42.887  41.689   8.264
   26POPC   C3B 4041  42.939  41.744   7.964
   26POPC   C4B 4042  42.904  41.753   7.664
   27POPC   NC3 4043  16.002  19.803   9.464
   27POPC   PO4 4044  15.966  19.850   9.164
   27POPC   GL1 4045  15.930  19.823   8.864
   27POPC   GL2 4046  15.819  19.771   8.864
   27POPC   C1A 4047  15.970  19.845   8.564
   27POPC   D2A 4048  15.967  19.864   8.264
   27POPC   C3A 4049  15.942  19.819   7.964
   27POPC   C4A 4050  15.983  19.802   7.664
   27POPC   C1B 4051  15.694  19.788   8.564
   27POPC   C2B 4052  15.701  19.769   8.264
   27POPC   C3B 4053  15.748  19.767   7.964
   27POPC   C4B 4054  15.667  19.739   7.664
   28POPC   NC3 4055  14.380  33.050   9.464
   28POPC   PO4 4056  14.428  33.052   9.164
   28POPC   GL1 4057  14.359  33.063   8.864
   28POPC   GL2 4058  14.409  32.952   8.864
   28POPC   C1A 4059  14.399  33.008   8.564
   28POPC   D2A 4060  14.356  32.990   8.264
   28POPC   C3A 4061  14.367  32.985   7.964
   28POPC   C4A 4062  14.388  33.022   7.664
   28POPC   C1B 4063  14.471  32.789   8.564
   28POPC   C2B 4064  14.482  32.823   8.264
   28POPC   C3B 4065  14.447  32.732   7.964
   28POPC   C4B 4066  14.479  32.743   7.664
   29POPC   NC3 4067   6.679  33.067   9.464
   29POPC   PO4 4068   6.629  33.011   9.164
   29POPC   GL1 4069   6.684  33.048   8.864
   29POPC   GL2 4070   6.474  32.991   8.864
   29POPC   C1A 4071   6.686  32.978   8.564
   29POPC   D2A 4072   6.652  33.034   8.264
   29POPC   C3A 4073   6.668  33.067   7.964
   29POPC   C4A 4074   6.675  33.012   7.664
   29POPC   C1B 4075   6.395  32.989   8.564
   29POPC   C2B 4076   6.364  33.018   8.264
   29POPC   C3B 4077   6.436  33.029   7.964
   29POPC   C4B 4078   6.396  32.968   7.664
   30POPC   NC3 4079  42.377  23.752   9.464
   30POPC   PO4 4080  42.375  23.728   9.164
   30POPC   GL1 4081  42.343  23.695   8.864
   30POPC   GL2 4082  42.410  23.830   8.864
   30POPC   C1A 4083  42.289  23.673   8.564
   30POPC   D2A 4084  42.299  23.723   8.264
   30POPC   C3A 4085  42.340  23.709   7.964
   30POPC   C4A 4086  42.324  23.732   7.664
   30POPC   C1B 4087  42.381  23.978   8.564
   30POPC   C2B 4088  42.442  23.992   8.264
   30POPC   C3B 4089  42.425  23.958   7.964
   30POPC   C4B 4090  42.392  23.899   7.664
   31POPC   NC3 4091  21.359   2.789   9.464
   31POPC   PO4 4092  21.419   2.783   9.164
   31POPC   GL1 4093  21.399   2.783   8.864
   31POPC   GL2 4094  21.307   2.702   8.864
   31POPC   C1A 4095  21.385   2.781   8.564
   31POPC   D2A 4096  21.422   2.781   8.264
   31POPC   C3A 4097  21.359   2.797   7.964
   31POPC   C4A 4098  21.351   2.744   7.664
   31POPC   C1B 4099  21.307   2.560   8.564
   31POPC   C2B 4100  21.243   2.533   8.264
   31POPC   C3B 4101  21.247   2.579   7.964
   31POPC   C4B 4102  21.299   2.537   7.664
   32POPC   NC3 4103  22.155   8.968   9.464
   32POPC   PO4 4104  22.184   9.009   9.164
   32POPC   GL1 4105  22.191   8.936   8.864
   32POPC   GL2 4106  22.231   8.899   8.864
   32POPC   C1A 4107  22.198   8.986   8.564
   32POPC   D2A 4108  22.118   8.952   8.264
   32POPC   C3A 4109  22.182   8.929   7.964
   32POPC   C4A 4110  22.167   8.997   7.664
   32POPC   C1B 4111  22.179   8.729   8.564
   32POPC   C2B 4112  22.275   8.687   8.264
   32POPC   C3B 4113  22.234   8.779   7.964
   32POPC   C4B 4114  22.242   8.728   7.664
   33POPC   NC3 4115  27.633  40.804   9.464
   33POPC   PO4 4116  27.582  40.810   9.164
   33POPC   GL1 4117  27.627  40.781   8.864
   33POPC   GL2 4118  27.513  40.837   8.864
   33POPC   C1A 4119  27.611  40.763   8.564
   33POPC   D2A 4120  27.566  40.770   8.264
   33POPC   C3A 4121  27.604  40.803   7.964
   33POPC   C4A 4122  27.577  40.759   7.664
   33POPC   C1B 4123  27.428  40.943   8.564
   33POPC   C2B 4124  27.394  40.982   8.264
   33POPC   C3B 4125  27.347  40.926   7.964
   33POPC   C4B 4126  27.352  40.961   7.664
   34POPC   NC3 4127  38.434  31.481   9.464
   34POPC   PO4 4128  38.460  31.426   9.164
   34POPC   GL1 4129  38.406  31.479   8.864
   34POPC   GL2 4130  38.524  31.491   8.864
   34POPC   C1A 4131  38.503  31.516   8.564
   34POPC   D2A 4132  38.455  31.438   8.264
   34POPC   C3A 4133  38.435  31.477   7.964
   34POPC   C4A 4134  38.445  31.484   7.664
   34POPC   C1B 4135  38.667  31.605   8.564
   34POPC   C2B 4136  38.689  31.591   8.264
   34POPC   C3B 4137  38.679  31.581   7.964
   34POPC   C4B 4138  38.688  31.555   7.664
   35POPC   NC3 4139  22.199   0.470   9.464
   35POPC   PO4 4140  22.176   0.453   9.164
   35POPC   GL1 4141  22.182   0.476   8.864
   35POPC   GL2 4142  22.058   0.536   8.864
   35POPC   C1A 4143  22.209   0.406   8.564
   35POPC   D2A 4144  22.161   0.474   8.264
   35POPC   C3A 4145  22.194   0.406   7.964
   35POPC   C4A 4146  22.115   0.426   7.664
   35POPC   C1B 4147  22.017   0.611   8.564
   35POPC   C2B 4148  21.985   0.593   8.264
   35POPC   C3B 4149  21.970   0.674   7.964
   35POPC   C4B 4150  22.029   0.592   7.664
   36POPC   NC3 4151  36.926  27.640   9.464
   36POPC   PO4 4152  36.941  27.584   9.164
   36POPC   GL1 4153  36.945  27.606   8.864
   36POPC   GL2 4154  36.987  27.695   8.864
   36POPC   C1A 4155  36.937  27.634   8.564
   36POPC   D2A 4156  36.901  27.564   8.264
   36POPC   C3A 4157  36.919  27.629   7.964
   36POPC   C4A 4158  36.938  27.599   7.664
   36POPC   C1B 4159  37.038  27.870   8.564
   36POPC   C2B 4160  37.045  27.845   8.264
   36POPC   C3B 4161  36.971  27.861   7.964
   36POPC   C4B 4162  37.044  27.865   7.664
   37POPC   NC3 4163  21.430  44.633   9.464
   37POPC   PO4 4164  21.343  44.654   9.164
   37POPC   GL1 4165  21.409  44.655   8.864
   37POPC   GL2 4166  21.240  44.592   8.864
   37POPC   C1A 4167  21.363  44.701   8.564
   37POPC   D2A 4168  21.376  44.671   8.264
   37POPC   C3A 4169  21.417  44.684   7.964
   37POPC   C4A 4170  21.349  44.638   7.664
   37POPC   C1B 4171  21.211  44.491   8.564
   37POPC   C2B 4172  21.205  44.473   8.264
   37POPC   C3B 4173  21.224  44.537   7.964
   37POPC   C4B 4174  21.192  44.568   7.664
   38POPC   NC3 4175   6.606   6.643   9.464
   38POPC   PO4 4176   6.657   6.689   9.164
   38POPC   GL1 4177   6.638   6.613   8.864
   38POPC   GL2 4178   6.790   6.641   8.864
   38POPC   C1A 4179   6.657   6.604   8.564
   38POPC   D2A 4180   6.605   6.662   8.264
   38POPC   C3A 4181   6.663   6.671   7.964
   38POPC   C4A 4182   6.684   6.674   7.664
   38POPC   C1B 4183   6.855   6.736   8.564
   38POPC   C2B 4184   6.919   6.687   8.264
   38POPC   C3B 4185   6.847   6.663   7.964
   38POPC   C4B 4186   6.852   6.666   7.664
   39POPC   NC3 4187  26.779   7.405   9.464
   39POPC   PO4 4188  26.851   7.375   9.164
   39POPC   GL1 4189  26.783   7.381   8.864
   39POPC   GL2 4190  26.769   7.563   8.864
   39POPC   C1A 4191  26.822   7.450   8.564
   39POPC   D2A 4192  26.854   7.467   8.264
   39POPC   C3A 4193  26.845   7.441   7.964
   39POPC   C4A 4194  26.789   7.394   7.664
   39POPC   C1B 4195  26.695   7.649   8.564
   39POPC   C2B 4196  26.628   7.616   8.264
   39POPC   C3B 4197  26.654   7.573   7.964
   39POPC   C4B 4198  26.637   7.607   7.664
   40POPC   NC3 4199   6.608  26.039   9.464
   40POPC   PO4 4200   6.668  26.025   9.164
   40POPC   GL1 4201   6.605  26.031   8.864
   40POPC   GL2 4202   6.504  26.021   8.864
   40POPC   C1A 4203   6.656  26.010   8.564
   40POPC   D2A 4204   6.619  26.023   8.264
   40POPC   C3A 4205   6.605  26.080   7.964
   40POPC   C4A 4206   6.650  26.074   7.664
   40POPC   C1B 4207   6.406  26.031   8.564
   40POPC   C2B 4208   6.363  26.016   8.264
   40POPC   C3B 4209   6.440  26.015   7.964
   40POPC   C4B 4210   6.378  26.016   7.664
   41POPC   NC3 4211  42.379   2.016   9.464
   41POPC   PO4 4212  42.323   2.039   9.164
   41POPC   GL1 4213  42.327   1.999   8.864
   41POPC   GL2 4214  42.273   1.949   8.864
   41POPC   C1A 4215  42.346   1.992   8.564
   41POPC   D2A 4216  42.369   1.993   8.264
   41POPC   C3A 4217  42.314   1.973   7.964
   41POPC   C4A 4218  42.291   2.037   7.664
   41POPC   C1B 4219  42.133   1.844   8.564
   41POPC   C2B 4220  42.143   1.798   8.264
   41POPC   C3B 4221  42.138   1.884   7.964
   41POPC   C4B 4222  42.129   1.887   7.664
   42POPC   NC3 4223  41.531   8.243   9.464
   42POPC   PO4 4224  41.579   8.205   9.164
   42POPC   GL1 4225  41.523   8.188   8.864
   42POPC   GL2 4226  41.525   8.317   8.864
   42POPC   C1A 4227  41.521   8.166   8.564
   42POPC   D2A 4228  41.532   8.239   8.264
   42POPC   C3A 4229  41.549   8.210   7.964
   42POPC   C4A 4230  41.566   8.246   7.664
   42POPC   C1B 4231  41.500   8.438   8.564
   42POPC   C2B 4232  41.498   8.465   8.264
   42POPC   C3B 4233  41.508   8.478   7.964
   42POPC   C4B 4234  41.503   8.430   7.664
   43POPC   NC3 4235  22.172  41.574   9.464
   43POPC   PO4 4236  22.208  41.521   9.164
   43POPC   GL1 4237  22.194  41.548   8.864
   43POPC   GL2 4238  22.024  41.521   8.864
   43POPC   C1A 4239  22.127  41.580   8.564
   43POPC   D2A 4240  22.169  41.555   8.264
   43POPC   C3A 4241  22.195  41.561   7.964
   43POPC   C4A 4242  22.145  41.600   7.664
   43POPC   C1B 4243  21.970  41.488   8.564
   43POPC   C2B 4244  21.942  41.513   8.264
   43POPC   C3B 4245  21.926  41.469   7.964
   43POPC   C4B 4246  21.940  41.418   7.664
   44POPC   NC3 4247  28.413  15.172   9.464
   44POPC   PO4 4248  28.372  15.153   9.164
   44POPC   GL1 4249  28.407  15.166   8.864
   44POPC   GL2 4250  28.362  15.062   8.864
   44POPC   C1A 4251  28.353  15.154   8.564
   44POPC   D2A 4252  28.373  15.221   8.264
   44POPC   C3A 4253  28.383  15.153   7.964
   44POPC   C4A 4254  28.326  15.181   7.664
   44POPC   C1B 4255  28.335  14.896   8.564
   44POPC   C2B 4256  28.339  14.910   8.264
   44POPC   C3B 4257  28.337  14.966   7.964
   44POPC   C4B 4258  28.274  14.920   7.664
   45POPC   NC3 4259  39.964  16.749   9.464
   45POPC   PO4 4260  40.047  16.750   9.164
   45POPC   GL1 4261  40.043  16.724   8.864
   45POPC   GL2 4262  39.933  16.824   8.864
   45POPC   C1A 4263  39.974  16.745   8.564
   45POPC   D2A 4264  40.039  16.728   8.264
   45POPC   C3A 4265  40.020  16.754   7.964
   45POPC   C4A 4266  39.978  16.767   7.664
   45POPC   C1B 4267  39.801  16.839   8.564
   45POPC   C2B 4268  39.783  16.873   8.264
   45POPC   C3B 4269  39.837  16.880   7.964
   45POPC   C4B 4270  39.774  16.831   7.664
   46POPC   NC3 4271  39.199  19.792   9.464
   46POPC   PO4 4272  39.204  19.868   9.164
   46POPC   GL1 4273  39.198  19.828   8.864
   46POPC   GL2 4274  39.152  19.975   8.864
   46POPC   C1A 4275  39.181  19.786   8.564
   46POPC   D2A 4276  39.191  19.819   8.264
   46POPC   C3A 4277  39.183  19.815   7.964
   46POPC   C4A 4278  39.226  19.863   7.664
   46POPC   C1B 4279  39.127  20.087   8.564
   46POPC   C2B 4280  39.132  20.035   8.264
   46POPC   C3B 4281  39.121  20.081   7.964
   46POPC   C4B 4282  39.081  20.081   7.664
   47POPC   NC3 4283   8.984  42.378   9.464
   47POPC   PO4 4284   8.938  42.367   9.164
   47POPC   GL1 4285   8.960  42.376   8.864
   47POPC   GL2 4286   8.965  42.409   8.864
   47POPC   C1A 4287   8.964  42.309   8.564
   47POPC   D2A 4288   8.990  42.301   8.264
   47POPC   C3A 4289   8.958  42.286   7.964
   47POPC   C4A 4290   8.981  42.356   7.664
   47POPC   C1B 4291   9.024  42.529   8.564
   47POPC   C2B 4292   9.027  42.610   8.264
   47POPC   C3B 4293   9.053  42.583   7.964
   47POPC   C4B 4294   9.086  42.591   7.664
   48POPC   NC3 4295  40.804  18.314   9.464
   48POPC   PO4 4296  40.825  18.280   9.164
   48POPC   GL1 4297  40.817  18.250   8.864
   48POPC   GL2 4298  40.720  18.167   8.864
   48POPC   C1A 4299  40.811  18.264   8.564
   48POPC   D2A 4300  40.825  18.269   8.264
   48POPC   C3A 4301  40.812  18.252   7.964
   48POPC   C4A 4302  40.773  18.299   7.664
   48POPC   C1B 4303  40.684  18.005   8.564
   48POPC   C2B 4304  40.666  18.029   8.264
   48POPC   C3B 4305  40.702  18.025   7.964
   48POPC   C4B 4306  40.663  18.063   7.664
   49POPC   NC3 4307  29.140  37.727   9.464
   49POPC   PO4 4308  29.165  37.680   9.164
   49POPC   GL1 4309  29.106  37.682   8.864
   49POPC   GL2 4310  29.257  37.683   8.864
   49POPC   C1A 4311  29.154  37.670   8.564
   49POPC   D2A 4312  29.112  37.655   8.264
   49POPC   C3A 4313  29.177  37.683   7.964
   49POPC   C4A 4314  29.170  37.641   7.664
   49POPC   C1B 4315  29.359  37.736   8.564
   49POPC   C2B 4316  29.367  37.741   8.264
   49POPC   C3B 4317  29.391  37.685   7.964
   49POPC   C4B 4318  29.386  37.717   7.664
   50POPC   NC3 4319   9.749  38.463   9.464
   50POPC   PO4 4320   9.700  38.463   9.164
   50POPC   GL1 4321   9.771  38.499   8.864
   50POPC   GL2 4322   9.744  38.321   8.864
   50POPC   C1A 4323   9.751  38.419   8.564
   50POPC   D2A 4324   9.790  38.423   8.264
   50POPC   C3A 4325   9.715  38.498   7.964
   50POPC   C4A 4326   9.737  38.463   7.664
   50POPC   C1B 4327   9.705  38.210   8.564
   50POPC   C2B 4328   9.721  38.204   8.264
   50POPC   C3B 4329   9.720  38.215   7.964
   50POPC   C4B 4330   9.676  38.249   7.664
   51POPC   NC3 4331  24.456  15.908   9.464
   51POPC   PO4 4332  24.448  15.953   9.164
   51POPC   GL1 4333  24.509  15.997   8.864
   51POPC   GL2 4334  24.632  15.975   8.864
   51POPC   C1A 4335  24.494  15.912   8.564
   51POPC   D2A 4336  24.533  15.922   8.264
   51POPC   C3A 4337  24.514  15.934   7.964
   51POPC   C4A 4338  24.492  15.929   7.664
   51POPC   C1B 4339  24.704  16.011   8.564
   51POPC   C2B 4340  24.745  16.073   8.264
   51POPC   C3B 4341  24.737  16.027   7.964
   51POPC   C4B 4342  24.725  16.068   7.664
   52POPC   NC3 4343  16.722  30.734   9.464
   52POPC   PO4 4344  16.728  30.656   9.164
   52POPC   GL1 4345  16.718  30.649   8.864
   52POPC   GL2 4346  16.688  30.812   8.864
   52POPC   C1A 4347  16.714  30.725   8.564
   52POPC   D2A 4348  16.686  30.677   8.264
   52POPC   C3A 4349  16.730  30.681   7.964
   52POPC   C4A 4350  16.720  30.648   7.664
   52POPC   C1B 4351  16.613  30.948   8.564
   52POPC   C2B 4352  16.632  30.856   8.264
   52POPC   C3B 4353  16.583  30.913   7.964
   52POPC   C4B 4354  16.546  30.888   7.664
   53POPC   NC3 4355  43.855  10.534   9.464
   53POPC   PO4 4356  43.904  10.497   9.164
   53POPC   GL1 4357  43.887  10.523   8.864
   53POPC   GL2 4358  43.754  10.618   8.864
   53POPC   C1A 4359  43.872  10.486   8.564
   53POPC   D2A 4360  43.884  10.488   8.264
   53POPC   C3A 4361  43.881  10.541   7.964
   53POPC   C4A 4362  43.907  10.486   7.664
   53POPC   C1B 4363  43.642  10.602   8.564
   53POPC   C2B 4364  43.635  10.651   8.264
   53POPC   C3B 4365  43.660  10.611   7.964
   53POPC   C4B 4366  43.654  10.642   7.664
   54POPC   NC3 4367  33.018   2.022   9.464
   54POPC   PO4 4368  33.017   1.943   9.164
   54POPC   GL1 4369  32.984   1.960   8.864
   54POPC   GL2 4370  32.912   1.982   8.864
   54POPC   C1A 4371  32.977   1.961   8.564
   54POPC   D2A 4372  32.975   2.021   8.264
   54POPC   C3A 4373  33.057   1.972   7.964
   54POPC   C4A 4374  32.994   2.005   7.664
   54POPC   C1B 4375  32.774   1.901   8.564
   54POPC   C2B 4376  32.833   1.909   8.264
   54POPC   C3B 4377  32.772   1.875   7.964
   54POPC   C4B 4378  32.741   1.947   7.664
   55POPC   NC3 4379  35.353   7.436   9.464
   55POPC   PO4 4380  35.360   7.462   9.164
   55POPC   GL1 4381  35.352   7.426   8.864
   55POPC   GL2 4382  35.299   7.344   8.864
   55POPC   C1A 4383  35.372   7.376   8.564
   55POPC   D2A 4384  35.376   7.459   8.264
   55POPC   C3A 4385  35.340   7.383   7.964
   55POPC   C4A 4386  35.379   7.372   7.664
   55POPC   C1B 4387  35.276   7.211   8.564
   55POPC   C2B 4388  35.204   7.209   8.264
   55POPC   C3B 4389  35.191   7.177   7.964
   55POPC   C4B 4390  35.184   7.161   7.664
   56POPC   NC3 4391  17.497  44.638   9.464
   56POPC   PO4 4392  17.550  44.689   9.164
   56POPC   GL1 4393  17.551  44.672   8.864
   56POPC   GL2 4394  17.452  44.602   8.864
   56POPC   C1A 4395  17.556  44.704   8.564
   56POPC   D2A 4396  17.482  44.628   8.264
   56POPC   C3A 4397  17.505  44.691   7.964
   56POPC   C4A 4398  17.543  44.702   7.664
   56POPC   C1B 4399  17.405  44.436   8.564
   56POPC   C2B 4400  17.387  44.480   8.264
   56POPC   C3B 4401  17.377  44.431   7.964
   56POPC   C4B 4402  17.399  44.495   7.664
   57POPC   NC3 4403   2.812  29.896   9.464
   57POPC   PO4 4404   2.726  29.903   9.164
   57POPC   GL1 4405   2.728  29.947   8.864
   57POPC   GL2 4406   2.719  29.976   8.864
   57POPC   C1A 4407   2.759  29.941   8.564
   57POPC   D2A 4408   2.765  29.904   8.264
   57POPC   C3A 4409   2.794  29.934   7.964
   57POPC   C4A 4410   2.779  29.935   7.664
   57POPC   C1B 4411   2.591  30.091   8.564
   57POPC   C2B 4412   2.577  30.113   8.264
   57POPC   C3B 4413   2.576  30.046   7.964
   57POPC   C4B 4414   2.576  30.110   7.664
   58POPC   NC3 4415  41.564  36.924   9.464
   58POPC   PO4 4416  41.555  36.860   9.164
   58POPC   GL1 4417  41.526  36.863   8.864
   58POPC   GL2 4418  41.696  36.911   8.864
   58POPC   C1A 4419  41.533  36.859   8.564
   58POPC   D2A 4420  41.527  36.901   8.264
   58POPC   C3A 4421  41.509  36.877   7.964
   58POPC   C4A 4422  41.554  36.891   7.664
   58POPC   C1B 4423  41.812  37.030   8.564
   58POPC   C2B 4424  41.742  37.031   8.264
   58POPC   C3B 4425  41.800  37.021   7.964
   58POPC   C4B 4426  41.826  36.962   7.664
   59POPC   NC3 4427   2.814  41.511   9.464
   59POPC   PO4 4428   2.788  41.563   9.164
   59POPC   GL1 4429   2.733  41.582   8.864
   59POPC   GL2 4430   2.807  41.647   8.864
   59POPC   C1A 4431   2.787  41.586   8.564
   59POPC   D2A 4432   2.735  41.532   8.264
   59POPC   C3A 4433   2.744  41.582   7.964
   59POPC   C4A 4434   2.739  41.575   7.664
   59POPC   C1B 4435   2.903  41.735   8.564
   59POPC   C2B 4436   2.912  41.735   8.264
   59POPC   C3B 4437   2.913  41.794   7.964
   59POPC   C4B 4438   2.924  41.775   7.664
   60POPC   NC3 4439  43.064  42.305   9.464
   60POPC   PO4 4440  43.098  42.292   9.164
   60POPC   GL1 4441  43.072  42.354   8.864
   60POPC   GL2 4442  42.992  42.305   8.864
   60POPC   C1A 4443  43.149  42.380   8.564
   60POPC   D2A 4444  43.128  42.313   8.264
   60POPC   C3A 4445  43.101  42.369   7.964
   60POPC   C4A 4446  43.092  42.338   7.664
   60POPC   C1B 4447  42.880  42.153   8.564
   60POPC   C2B 4448  42.935  42.184   8.264
   60POPC   C3B 4449  42.938  42.130   7.964
   60POPC   C4B 4450  42.918  42.201   7.664
   61POPC   NC3 4451  40.782   7.444   9.464
   61POPC   PO4 4452  40.824   7.450   9.164
   61POPC   GL1 4453  40.758   7.411   8.864
   61POPC   GL2 4454  40.752   7.321   8.864
   61POPC   C1A 4455  40.782   7.379   8.564
   61POPC   D2A 4456  40.810   7.469   8.264
   61POPC   C3A 4457  40.779   7.469   7.964
   61POPC   C4A 4458  40.791   7.460   7.664
   61POPC   C1B 4459  40.690   7.161   8.564
   61POPC   C2B 4460  40.711   7.151   8.264
   61POPC   C3B 4461  40.650   7.236   7.964
   61POPC   C4B 4462  40.693   7.237   7.664
   62POPC   NC3 4463  40.813  23.699   9.464
   62POPC   PO4 4464  40.830  23.721   9.164
   62POPC   GL1 4465  40.814  23.759   8.864
   62POPC   GL2 4466  40.889  23.810   8.864
   62POPC   C1A 4467  40.744  23.679   8.564
   62POPC   D2A 4468  40.791  23.732   8.264
   62POPC   C3A 4469  40.781  23.762   7.964
   62POPC   C4A 4470  40.829  23.723   7.664
   62POPC   C1B 4471  40.950  23.903   8.564
   62POPC   C2B 4472  40.949  23.899   8.264
   62POPC   C3B 4473  41.014  23.845   7.964
   62POPC   C4B 4474  40.999  23.898   7.664
   63POPC   NC3 4475  18.323  17.473   9.464
   63POPC   PO4 4476  18.329  17.550   9.164
   63POPC   GL1 4477  18.249  17.487   8.864
   63POPC   GL2 4478  18.178  17.600   8.864
   63POPC   C1A 4479  18.314  17.527   8.564
   63POPC   D2A 4480  18.256  17.468   8.264
   63POPC   C3A 4481  18.262  17.483   7.964
   63POPC   C4A 4482  18.312  17.532   7.664
   63POPC   C1B 4483  18.113  17.746   8.564
   63POPC   C2B 4484  18.191  17.669   8.264
   63POPC   C3B 4485  18.111  17.764   7.964
   63POPC   C4B 4486  18.139  17.668   7.664
   64POPC   NC3 4487  28.410  38.483   9.464
   64POPC   PO4 4488  28.387  38.498   9.164
   64POPC   GL1 4489  28.358  38.441   8.864
   64POPC   GL2 4490  28.350  38.565   8.864
   64POPC   C1A 4491  28.368  38.434   8.564
   64POPC   D2A 4492  28.327  38.454   8.264
   64POPC   C3A 4493  28.393  38.504   7.964
   64POPC   C4A 4494  28.332  38.470   7.664
   64POPC   C1B 4495  28.390  38.737   8.564
   64POPC   C2B 4496  28.441  38.664   8.264
   64POPC   C3B 4497  28.435  38.690   7.964
   64POPC   C4B 4498  28.394  38.702   7.664
   65POPC   NC3 4499  37.679  41.545   9.464
   65POPC   PO4 4500  37.694  41.604   9.164
   65POPC   GL1 4501  37.666  41.511   8.864
   65POPC   GL2 4502  37.690  41.666   8.864
   65POPC   C1A 4503  37.676  41.591   8.564
   65POPC   D2A 4504  37.712  41.535   8.264
   65POPC   C3A 4505  37.684  41.608   7.964
   65POPC   C4A 4506  37.643  41.533   7.664
   65POPC   C1B 4507  37.654  41.771   8.564
   65POPC   C2B 4508  37.713  41.789   8.264
   65POPC   C3B 4509  37.730  41.786   7.964
   65POPC   C4B 4510  37.734  41.782   7.664
   66POPC   NC3 4511  39.190  13.598   9.464
   66POPC   PO4 4512  39.193  13.676   9.164
   66POPC   GL1 4513  39.226  13.646   8.864
   66POPC   GL2 4514  39.296  13.541   8.864
   66POPC   C1A 4515  39.241  13.612   8.564
   66POPC   D2A 4516  39.229  13.610   8.264
   66POPC   C3A 4517  39.221  13.615   7.964
   66POPC   C4A 4518  39.193  13.650   7.664
   66POPC   C1B 4519  39.415  13.444   8.564
   66POPC   C2B 4520  39.422  13.534   8.264
   66POPC   C3B 4521  39.399  13.465   7.964
   66POPC   C4B 4522  39.447  13.533   7.664
   67POPC   NC3 4523  20.636   3.520   9.464
   67POPC   PO4 4524  20.660   3.582   9.164
   67POPC   GL1 4525  20.564   3.554   8.864
   67POPC   GL2 4526  20.742   3.577   8.864
   67POPC   C1A 4527  20.657   3.522   8.564
   67POPC   D2A 4528  20.660   3.492   8.264
   67POPC   C3A 4529  20.617   3.589   7.964
   67POPC   C4A 4530  20.650   3.590   7.664
   67POPC   C1B 4531  20.850   3.649   8.564
   67POPC   C2B 4532  20.816   3.713   8.264
   67POPC   C3B 4533  20.876   3.617   7.964
   67POPC   C4B 4534  20.809   3.703   7.664
   68POPC   NC3 4535   4.361   3.541   9.464
   68POPC   PO4 4536   4.278   3.508   9.164
   68POPC   GL1 4537   4.355   3.553   8.864
   68POPC   GL2 4538   4.247   3.485   8.864
   68POPC   C1A 4539   4.276   3.533   8.564
   68POPC   D2A 4540   4.330   3.578   8.264
   68POPC   C3A 4541   4.317   3.589   7.964
   68POPC   C4A 4542   4.268   3.575   7.664
   68POPC   C1B 4543   4.043   3.436   8.564
   68POPC   C2B 4544   4.081   3.479   8.264
   68POPC   C3B 4545   4.090   3.502   7.964
   68POPC   C4B 4546   4.089   3.511   7.664
   69POPC   NC3 4547  14.380  29.970   9.464
   69POPC   PO4 4548  14.371  29.967   9.164
   69POPC   GL1 4549  14.407  29.902   8.864
   69POPC   GL2 4550  14.256  29.821   8.864
   69POPC   C1A 4551  14.379  29.926   8.564
   69POPC   D2A 4552  14.406  29.937   8.264
   69POPC   C3A 4553  14.382  29.904   7.964
   69POPC   C4A 4554  14.357  29.934   7.664
   69POPC   C1B 4555  14.128  29.805   8.564
   69POPC   C2B 4556  14.137  29.825   8.264
   69POPC   C3B 4557  14.151  29.793   7.964
   69POPC   C4B 4558  14.135  29.861   7.664
   70POPC   NC3 4559   5.049  33.050   9.464
   70POPC   PO4 4560   5.074  33.043   9.164
   70POPC   GL1 4561   5.106  33.025   8.864
   70POPC   GL2 4562   4.958  32.965   8.864
   70POPC   C1A 4563   5.130  33.023   8.564
   70POPC   D2A 4564   5.065  33.020   8.264
   70POPC   C3A 4565   5.090  33.028   7.964
   70POPC   C4A 4566   5.103  32.998   7.664
   70POPC   C1B 4567   4.875  32.970   8.564
   70POPC   C2B 4568   4.853  32.925   8.264
   70POPC   C3B 4569   4.886  32.959   7.964
   70POPC   C4B 4570   4.852  32.941   7.664
   71POPC   NC3 4571   3.494  43.903   9.464
   71POPC   PO4 4572   3.568  43.873   9.164
   71POPC   GL1 4573   3.504  43.931   8.864
   71POPC   GL2 4574   3.617  43.839   8.864
   71POPC   C1A 4575   3.559  43.872   8.564
   71POPC   D2A 4576   3.591  43.905   8.264
   71POPC   C3A 4577   3.554  43.882   7.964
   71POPC   C4A 4578   3.584  43.907   7.664
   71POPC   C1B 4579   3.700  43.754   8.564
   71POPC   C2B 4580   3.778  43.715   8.264
   71POPC   C3B 4581   3.701  43.743   7.964
   71POPC   C4B 4582   3.717  43.745   7.664
   72POPC   NC3 4583  15.942  18.252   9.464
   72POPC   PO4 4584  16.005  18.328   9.164
   72POPC   GL1 4585  15.955  18.301   8.864
   72POPC   GL2 4586  15.875  18.275   8.864
   72POPC   C1A 4587  15.931  18.294   8.564
   72POPC   D2A 4588  15.928  18.295   8.264
   72POPC   C3A 4589  15.953  18.318   7.964
   72POPC   C4A 4590  15.991  18.333   7.664
   72POPC   C1B 4591  15.658  18.240   8.564
   72POPC   C2B 4592  15.700  18.224   8.264
   72POPC   C3B 4593  15.707  18.293   7.964
   72POPC   C4B 4594  15.742  18.298   7.664
   73POPC   NC3 4595   8.182   1.212   9.464
   73POPC   PO4 4596   8.175   1.188   9.164
   73POPC   GL1 4597   8.240   1.173   8.864
   73POPC   GL2 4598   8.283   1.105   8.864
   73POPC   C1A 4599   8.156   1.228   8.564
   73POPC   D2A 4600   8.188   1.211   8.264
   73POPC   C3A 4601   8.203   1.204   7.964
   73POPC   C4A 4602   8.160   1.240   7.664
   73POPC   C1B 4603   8.355   1.020   8.564
   73POPC   C2B 4604   8.379   1.023   8.264
   73POPC   C3B 4605   8.378   1.045   7.964
   73POPC   C4B 4606   8.349   1.031   7.664
   74POPC   NC3 4607  21.418   5.825   9.464
   74POPC   PO4 4608  21.421   5.917   9.164
   74POPC   GL1 4609  21.366   5.857   8.864
   74POPC   GL2 4610  21.486   5.972   8.864
   74POPC   C1A 4611  21.406   5.886   8.564
   74POPC   D2A 4612  21.340   5.916   8.264
   74POPC   C3A 4613  21.418   5.852   7.964
   74POPC   C4A 4614  21.388   5.834   7.664
   74POPC   C1B 4615  21.575   6.067   8.564
   74POPC   C2B 4616  21.565   6.006   8.264
   74POPC   C3B 4617  21.611   6.013   7.964
   74POPC   C4B 4618  21.537   6.025   7.664
   75POPC   NC3 4619   0.421  21.350   9.464
   75POPC   PO4 4620   0.459  21.389   9.164
   75POPC   GL1 4621   0.484  21.352   8.864
   75POPC   GL2 4622   0.316  21.383   8.864
   75POPC   C1A 4623   0.454  21.424   8.564
   75POPC   D2A 4624   0.477  21.390   8.264
   75POPC   C3A 4625   0.447  21.426   7.964
   75POPC   C4A 4626   0.444  21.384   7.664
   75POPC   C1B 4627   0.200  21.284   8.564
   75POPC   C2B 4628   0.201  21.282   8.264
   75POPC   C3B 4629   0.165  21.314   7.964
   75POPC   C4B 4630   0.175  21.254   7.664
   76POPC   NC3 4631   9.019  18.261   9.464
   76POPC   PO4 4632   8.981  18.311   9.164
   76POPC   GL1 4633   9.013  18.257   8.864
   76POPC   GL2 4634   9.016  18.373   8.864
   76POPC   C1A 4635   9.009  18.318   8.564
   76POPC   D2A 4636   9.015  18.307   8.264
   76POPC   C3A 4637   8.988  18.266   7.964
   76POPC   C4A 4638   8.975  18.306   7.664
   76POPC   C1B 4639   9.060  18.465   8.564
   76POPC   C2B 4640   9.098  18.486   8.264
   76POPC   C3B 4641   9.151  18.533   7.964
   76POPC   C4B 4642   9.135  18.512   7.664
   77POPC   NC3 4643  35.318  32.989   9.464
   77POPC   PO4 4644  35.390  32.987   9.164
   77POPC   GL1 4645  35.328  33.004   8.864
   77POPC   GL2 4646  35.385  32.951   8.864
   77POPC   C1A 4647  35.303  32.994   8.564
   77POPC   D2A 4648  35.334  33.010   8.264
   77POPC   C3A 4649  35.315  32.978   7.964
   77POPC   C4A 4650  35.376  33.014   7.664
   77POPC   C1B 4651  35.426  32.808   8.564
   77POPC   C2B 4652  35.404  32.756   8.264
   77POPC   C3B 4653  35.478  32.768   7.964
   77POPC   C4B 4654  35.396  32.782   7.664
   78POPC   NC3 4655   1.997  32.235   9.464
   78POPC   PO4 4656   1.959  32.233   9.164
   78POPC   GL1 4657   2.014  32.239   8.864
   78POPC   GL2 4658   1.983  32.148   8.864
   78POPC   C1A 4659   2.017  32.229   8.564
   78POPC   D2A 4660   1.996  32.266   8.264
   78POPC   C3A 4661   1.942  32.286   7.964
   78POPC   C4A 4662   1.985  32.290   7.664
   78POPC   C1B 4663   1.923  32.025   8.564
   78POPC   C2B 4664   1.901  31.973   8.264
   78POPC   C3B 4665   1.942  31.995   7.964
   78POPC   C4B 4666   1.906  31.961   7.664
   79POPC   NC3 4667  43.129   4.304   9.464
   79POPC   PO4 4668  43.067   4.339   9.164
   79POPC   GL1 4669  43.113   4.338   8.864
   79POPC   GL2 4670  43.115   4.411   8.864
   79POPC   C1A 4671  43.075   4.327   8.564
   79POPC   D2A 4672  43.136   4.320   8.264
   79POPC   C3A 4673  43.097   4.343   7.964
   79POPC   C4A 4674  43.153   4.343   7.664
   79POPC   C1B 4675  43.044   4.584   8.564
   79POPC   C2B 4676  43.052   4.593   8.264
   79POPC   C3B 4677  43.091   4.531   7.964
   79POPC   C4B 4678  43.112   4.602   7.664
   80POPC   NC3 4679   6.667  15.140   9.464
   80POPC   PO4 4680   6.618  15.209   9.164
   80POPC   GL1 4681   6.646  15.216   8.864
   80POPC   GL2 4682   6.704  15.274   8.864
   80POPC   C1A 4683   6.630  15.154   8.564
   80POPC   D2A 4684   6.670  15.202   8.264
   80POPC   C3A 4685   6.644  15.192   7.964
   80POPC   C4A 4686   6.677  15.211   7.664
   80POPC   C1B 4687   6.731  15.384   8.564
   80POPC   C2B 4688   6.677  15.404   8.264
   80POPC   C3B 4689   6.719  15.411   7.964
   80POPC   C4B 4690   6.709  15.393   7.664
   81POPC   NC3 4691  43.131  25.234   9.464
   81POPC   PO4 4692  43.128  25.270   9.164
   81POPC   GL1 4693  43.085  25.223   8.864
   81POPC   GL2 4694  43.095  25.160   8.864
   81POPC   C1A 4695  43.105  25.235   8.564
   81POPC   D2A 4696  43.083  25.301   8.264
   81POPC   C3A 4697  43.131  25.272   7.964
   81POPC   C4A 4698  43.114  25.266   7.664
   81POPC   C1B 4699  43.027  25.062   8.564
   81POPC   C2B 4700  42.998  25.010   8.264
   81POPC   C3B 4701  42.988  25.083   7.964
   81POPC   C4B 4702  42.971  25.009   7.664
   82POPC   NC3 4703  33.055  26.861   9.464
   82POPC   PO4 4704  33.020  26.791   9.164
   82POPC   GL1 4705  33.037  26.860   8.864
   82POPC   GL2 4706  33.057  26.963   8.864
   82POPC   C1A 4707  33.010  26.841   8.564
   82POPC   D2A 4708  32.980  26.780   8.264
   82POPC   C3A 4709  33.006  26.772   7.964
   82POPC   C4A 4710  33.029  26.846   7.664
   82POPC   C1B 4711  33.183  27.035   8.564
   82POPC   C2B 4712  33.132  26.986   8.264
   82POPC   C3B 4713  33.149  27.023   7.964
   82POPC   C4B 4714  33.173  27.036   7.664
   83POPC   NC3 4715   4.364  42.343   9.464
   83POPC   PO4 4716   4.306  42.298   9.164
   83POPC   GL1 4717   4.343  42.303   8.864
   83POPC   GL2 4718   4.372  42.380   8.864
   83POPC   C1A 4719   4.338  42.322   8.564
   83POPC   D2A 4720   4.306  42.297   8.264
   83POPC   C3A 4721   4.330  42.369   7.964
   83POPC   C4A 4722   4.322  42.336   7.664
   83POPC   C1B 4723   4.507  42.521   8.564
   83POPC   C2B 4724   4.501  42.504   8.264
   83POPC   C3B 4725   4.532  42.487   7.964
   83POPC   C4B 4726   4.480  42.499   7.664
   84POPC   NC3 4727  40.807  32.232   9.464
   84POPC   PO4 4728  40.758  32.249   9.164
   84POPC   GL1 4729  40.736  32.295   8.864
   84POPC   GL2 4730  40.926  32.232   8.864
   84POPC   C1A 4731  40.734  32.254   8.564
   84POPC   D2A 4732  40.761  32.227   8.264
   84POPC   C3A 4733  40.817  32.208   7.964
   84POPC   C4A 4734  40.737  32.230   7.664
   84POPC   C1B 4735  41.015  32.190   8.564
   84POPC   C2B 4736  41.000  32.240   8.264
   84POPC   C3B 4737  40.997  32.181   7.964
   84POPC   C4B 4738  40.986  32.218   7.664
   85POPC   NC3 4739  23.744  26.794   9.464
   85POPC   PO4 4740  23.711  26.816   9.164
   85POPC   GL1 4741  23.685  26.820   8.864
   85POPC   GL2 4742  23.560  26.840   8.864
   85POPC   C1A 4743  23.665  26.826   8.564
   85POPC   D2A 4744  23.733  26.817   8.264
   85POPC   C3A 4745  23.669  26.854   7.964
   85POPC   C4A 4746  23.705  26.769   7.664
   85POPC   C1B 4747  23.474  26.933   8.564
   85POPC   C2B 4748  23.497  26.950   8.264
   85POPC   C3B 4749  23.534  26.947   7.964
   85POPC   C4B 4750  23.540  26.973   7.664
   86POPC   NC3 4751  39.220  36.932   9.464
   86POPC   PO4 4752  39.223  36.928   9.164
   86POPC   GL1 4753  39.192  36.949   8.864
   86POPC   GL2 4754  39.325  36.939   8.864
   86POPC   C1A 4755  39.233  36.940   8.564
   86POPC   D2A 4756  39.229  36.945   8.264
   86POPC   C3A 4757  39.203  36.887   7.964
   86POPC   C4A 4758  39.263  36.912   7.664
   86POPC   C1B 4759  39.416  36.980   8.564
   86POPC   C2B 4760  39.448  37.025   8.264
   86POPC   C3B 4761  39.490  36.996   7.964
   86POPC   C4B 4762  39.433  36.981   7.664
   87POPC   NC3 4763  34.601  39.257   9.464
   87POPC   PO4 4764  34.610  39.260   9.164
   87POPC   GL1 4765  34.591  39.273   8.864
   87POPC   GL2 4766  34.540  39.392   8.864
   87POPC   C1A 4767  34.560  39.189   8.564
   87POPC   D2A 4768  34.570  39.219   8.264
   87POPC   C3A 4769  34.571  39.255   7.964
   87POPC   C4A 4770  34.614  39.229   7.664
   87POPC   C1B 4771  34.561  39.507   8.564
   87POPC   C2B 4772  34.476  39.454   8.264
   87POPC   C3B 4773  34.554  39.439   7.964
   87POPC   C4B 4774  34.514  39.499   7.664
   88POPC   NC3 4775  28.352  27.636   9.464
   88POPC   PO4 4776  28.396  27.637   9.164
   88POPC   GL1 4777  28.382  27.628   8.864
   88POPC   GL2 4778  28.429  27.443   8.864
   88POPC   C1A 4779  28.368  27.630   8.564
   88POPC   D2A 4780  28.358  27.611   8.264
   88POPC   C3A 4781  28.341  27.554   7.964
   88POPC   C4A 4782  28.397  27.549   7.664
   88POPC   C1B 4783  28.418  27.362   8.564
   88POPC   C2B 4784  28.455  27.351   8.264
   88POPC   C3B 4785  28.384  27.397   7.964
   88POPC   C4B 4786  28.461  27.309   7.664
   89POPC   NC3 4787   6.626  38.432   9.464
   89POPC   PO4 4788   6.672  38.492   9.164
   89POPC   GL1 4789   6.676  38.419   8.864
   89POPC   GL2 4790   6.742  38.394   8.864
   89POPC   C1A 4791   6.604  38.428   8.564
   89POPC   D2A 4792   6.598  38.435   8.264
   89POPC   C3A 4793   6.692  38.448   7.964
   89POPC   C4A 4794   6.688  38.423   7.664
   89POPC   C1B 4795   6.846  38.348   8.564
   89POPC   C2B 4796   6.847  38.381   8.264
   89POPC   C3B 4797   6.862  38.420   7.964
   89POPC   C4B 4798   6.887  38.374   7.664
   90POPC   NC3 4799  28.387  37.722   9.464
   90POPC   PO4 4800  28.400  37.699   9.164
   90POPC   GL1 4801  28.366  37.660   8.864
   90POPC   GL2 4802  28.499  37.667   8.864
   90POPC   C1A 4803  28.355  37.677   8.564
   90POPC   D2A 4804  28.367  37.634   8.264
   90POPC   C3A 4805  28.323  37.632   7.964
   90POPC   C4A 4806  28.350  37.640   7.664
   90POPC   C1B 4807  28.582  37.737   8.564
   90POPC   C2B 4808  28.597  37.779   8.264
   90POPC   C3B 4809  28.623  37.756   7.964
   90POPC   C4B 4810  28.594  37.757   7.664
   91POPC   NC3 4811  11.291  20.631   9.464
   91POPC   PO4 4812  11.322  20.624   9.164
   91POPC   GL1 4813  11.316  20.652   8.864
   91POPC   GL2 4814  11.257  20.755   8.864
   91POPC   C1A 4815  11.264  20.580   8.564
   91POPC   D2A 4816  11.279  20.577   8.264
   91POPC   C3A 4817  11.262  20.616   7.964
   91POPC   C4A 4818  11.330  20.582   7.664
   91POPC   C1B 4819  11.253  20.870   8.564
   91POPC   C2B 4820  11.196  20.827   8.264
   91POPC   C3B 4821  11.269  20.820   7.964
   91POPC   C4B 4822  11.196  20.861   7.664
   92POPC   NC3 4823  19.081   8.210   9.464
   92POPC   PO4 4824  19.066   8.212   9.164
   92POPC   GL1 4825  19.010   8.194   8.864
   92POPC   GL2 4826  19.069   8.293   8.864
   92POPC   C1A 4827  19.103   8.208   8.564
   92POPC   D2A 4828  19.036   8.235   8.264
   92POPC   C3A 4829  19.014   8.223   7.964
   92POPC   C4A 4830  19.094   8.241   7.664
   92POPC   C1B 4831  19.193   8.416   8.564
   92POPC   C2B 4832  19.212   8.458   8.264
   92POPC   C3B 4833  19.204   8.397   7.964
   92POPC   C4B 4834  19.159   8.396   7.664
   93POPC   NC3 4835  27.624  18.282   9.464
   93POPC   PO4 4836  27.562  18.240   9.164
   93POPC   GL1 4837  27.553  18.298   8.864
   93POPC   GL2 4838  27.690  18.403   8.864
   93POPC   C1A 4839  27.581  18.238   8.564
   93POPC   D2A 4840  27.575  18.256   8.264
   93POPC   C3A 4841  27.585  18.245   7.964
   93POPC   C4A 4842  27.561  18.243   7.664
   93POPC   C1B 4843  27.717  18.519   8.564
   93POPC   C2B 4844  27.720  18.450   8.264
   93POPC   C3B 4845  27.703  18.509   7.964
   93POPC   C4B 4846  27.732  18.531   7.664
   94POPC   NC3 4847  12.870  26.017   9.464
   94POPC   PO4 4848  12.884  26.068   9.164
   94POPC   GL1 4849  12.886  26.009   8.864
   94POPC   GL2 4850  12.922  25.881   8.864
   94POPC   C1A 4851  12.825  26.044   8.564
   94POPC   D2A 4852  12.857  26.087   8.264
   94POPC   C3A 4853  12.860  26.009   7.964
   94POPC   C4A 4854  12.819  26.048   7.664
   94POPC   C1B 4855  12.934  25.795   8.564
   94POPC   C2B 4856  12.932  25.816   8.264
   94POPC   C3B 4857  12.955  25.835   7.964
   94POPC   C4B 4858  12.956  25.856   7.664
   95POPC   NC3 4859   6.601  16.709   9.464
   95POPC   PO4 4860   6.596  16.705   9.164
   95POPC   GL1 4861   6.614  16.761   8.864
   95POPC   GL2 4862   6.771  16.698   8.864
   95POPC   C1A 4863   6.627  16.689   8.564
   95POPC   D2A 4864   6.658  16.739   8.264
   95POPC   C3A 4865   6.662  16.769   7.964
   95POPC   C4A 4866   6.618  16.777   7.664
   95POPC   C1B 4867   6.887  16.682   8.564
   95POPC   C2B 4868   6.865  16.710   8.264
   95POPC   C3B 4869   6.869  16.701   7.964
   95POPC   C4B 4870   6.869  16.653   7.664
   96POPC   NC3 4871  40.026  42.335   9.464
   96POPC   PO4 4872  39.987  42.346   9.164
   96POPC   GL1 4873  39.989  42.311   8.864
   96POPC   GL2 4874  39.935  42.275   8.864
   96POPC   C1A 4875  40.023  42.289   8.564
   96POPC   D2A 4876  40.028  42.298   8.264
   96POPC   C3A 4877  39.998  42.359   7.964
   96POPC   C4A 4878  39.982  42.288   7.664
   96POPC   C1B 4879  39.829  42.086   8.564
   96POPC   C2B 4880  39.908  42.108   8.264
   96POPC   C3B 4881  39.895  42.169   7.964
   96POPC   C4B 4882  39.858  42.100   7.664
   97POPC   NC3 4883   5.049  39.983   9.464
   97POPC   PO4 4884   5.070  39.999   9.164
   97POPC   GL1 4885   5.133  40.031   8.864
   97POPC   GL2 4886   5.017  39.905   8.864
   97POPC   C1A 4887   5.063  40.038   8.564
   97POPC   D2A 4888   5.101  40.044   8.264
   97POPC   C3A 4889   5.101  39.978   7.964
   97POPC   C4A 4890   5.100  40.023   7.664
   97POPC   C1B 4891   4.909  39.868   8.564
   97POPC   C2B 4892   4.933  39.886   8.264
   97POPC   C3B 4893   4.846  39.897   7.964
   97POPC   C4B 4894   4.837  39.824   7.664
   98POPC   NC3 4895  13.580  44.644   9.464
   98POPC   PO4 4896  13.588  44.684   9.164
   98POPC   GL1 4897  13.600  44.683   8.864
   98POPC   GL2 4898  13.768  44.592   8.864
   98POPC   C1A 4899  13.659  44.644   8.564
   98POPC   D2A 4900  13.622  44.645   8.264
   98POPC   C3A 4901  13.624  44.654   7.964
   98POPC   C4A 4902  13.654  44.690   7.664
   98POPC   C1B 4903  13.878  44.566   8.564
   98POPC   C2B 4904  13.807  44.599   8.264
   98POPC   C3B 4905  13.870  44.559   7.964
   98POPC   C4B 4906  13.850  44.588   7.664
   99POPC   NC3 4907  19.790   9.013   9.464
   99POPC   PO4 4908  19.803   8.963   9.164
   99POPC   GL1 4909  19.878   8.992   8.864
   99POPC   GL2 4910  19.722   8.827   8.864
   99POPC   C1A 4911  19.825   9.013   8.564
   99POPC   D2A 4912  19.860   8.938   8.264
   99POPC   C3A 4913  19.881   8.928   7.964
   99POPC   C4A 4914  19.812   8.981   7.664
   99POPC   C1B 4915  19.691   8.764   8.564
   99POPC   C2B 4916  19.724   8.777   8.264
   99POPC   C3B 4917  19.699   8.759   7.964
   99POPC   C4B 4918  19.682   8.777   7.664
  100POPC   NC3 4919  34.593  27.629   9.464
  100POPC   PO4 4920  34.536  27.585   9.164
  100POPC   GL1 4921  34.589  27.610   8.864
  100POPC   GL2 4922  34.501  27.559   8.864
  100POPC   C1A 4923  34.587  27.588   8.564
  100POPC   D2A 4924  34.566  27.600   8.264
  100POPC   C3A 4925  34.601  27.577   7.964
  100POPC   C4A 4926  34.601  27.574   7.664
  100POPC   C1B 4927  34.321  27.516   8.564
  100POPC   C2B 4928  34.319  27.496   8.264
  100POPC   C3B 4929  34.291  27.555   7.964
  100POPC   C4B 4930  34.349  27.484   7.664
  101POPC   NC3 4931  12.831  15.978   9.464
  101POPC   PO4 4932  12.895  15.957   9.164
  101POPC   GL1 4933  12.890  15.918   8.864
  101POPC   GL2 4934  12.989  15.936   8.864
  101POPC   C1A 4935  12.846  15.970   8.564
  101POPC   D2A 4936  12.849  15.967   8.264
  101POPC   C3A 4937  12.876  15.915   7.964
  101POPC   C4A 4938  12.802  15.911   7.664
  101POPC   C1B 4939  13.080  15.916   8.564
  101POPC   C2B 4940  13.049  15.933   8.264
  101POPC   C3B 4941  13.059  15.920   7.964
  101POPC   C4B 4942  13.108  15.887   7.664
  102POPC   NC3 4943   8.161  39.994   9.464
  102POPC   PO4 4944   8.231  39.997   9.164
  102POPC   GL1 4945   8.155  40.047   8.864
  102POPC   GL2 4946   8.282  40.112   8.864
  102POPC   C1A 4947   8.238  40.026   8.564
  102POPC   D2A 4948   8.167  40.039   8.264
  102POPC   C3A 4949   8.147  39.965   7.964
  102POPC   C4A 4950   8.159  39.972   7.664
  102POPC   C1B 4951   8.263  40.219   8.564
  102POPC   C2B 4952   8.293  40.210   8.264
  102POPC   C3B 4953   8.299  40.221   7.964
  102POPC   C4B 4954   8.246  40.234   7.664
  103POPC   NC3 4955  39.990  13.581   9.464
  103POPC   PO4 4956  39.989  13.610   9.164
  103POPC   GL1 4957  40.000  13.661   8.864
  103POPC   GL2 4958  40.074  13.556   8.864
  103POPC   C1A 4959  40.012  13.660   8.564
  103POPC   D2A 4960  40.017  13.589   8.264
  103POPC   C3A 4961  40.036  13.627   7.964
  103POPC   C4A 4962  40.031  13.631   7.664
  103POPC   C1B 4963  40.220  13.474   8.564
  103POPC   C2B 4964  40.195  13.454   8.264
  103POPC   C3B 4965  40.179  13.448   7.964
  103POPC   C4B 4966  40.211  13.439   7.664
  104POPC   NC3 4967   5.870  12.864   9.464
  104POPC   PO4 4968   5.876  12.855   9.164
  104POPC   GL1 4969   5.852  12.882   8.864
  104POPC   GL2 4970   5.988  12.943   8.864
  104POPC   C1A 4971   5.839  12.843   8.564
  104POPC   D2A 4972   5.867  12.869   8.264
  104POPC   C3A 4973   5.871  12.844   7.964
  104POPC   C4A 4974   5.853  12.849   7.664
  104POPC   C1B 4975   6.133  12.912   8.564
  104POPC   C2B 4976   6.069  12.903   8.264
  104POPC   C3B 4977   6.134  12.961   7.964
  104POPC   C4B 4978   6.059  12.943   7.664
  105POPC   NC3 4979  35.354  44.690   9.464
  105POPC   PO4 4980  35.337  44.683   9.164
  105POPC   GL1 4981  35.401  44.614   8.864
  105POPC   GL2 4982  35.502  44.676   8.864
  105POPC   C1A 4983  35.384  44.672   8.564
  105POPC   D2A 4984  35.352  44.683   8.264
  105POPC   C3A 4985  35.350  44.624   7.964
  105POPC   C4A 4986  35.350  44.660   7.664
  105POPC   C1B 4987  35.591  44.746   8.564
  105POPC   C2B 4988  35.587  44.732   8.264
  105POPC   C3B 4989  35.585  44.719   7.964
  105POPC   C4B 4990  35.613  44.708   7.664
  106POPC   NC3 4991  36.121  22.976   9.464
  106POPC   PO4 4992  36.146  22.888   9.164
  106POPC   GL1 4993  36.129  22.977   8.864
  106POPC   GL2 4994  36.176  22.853   8.864
  106POPC   C1A 4995  36.101  22.900   8.564
  106POPC   D2A 4996  36.098  22.943   8.264
  106POPC   C3A 4997  36.176  22.969   7.964
  106POPC   C4A 4998  36.094  22.919   7.664
  106POPC   C1B 4999  36.167  22.653   8.564
  106POPC   C2B 5000  36.198  22.710   8.264
  106POPC   C3B 5001  36.107  22.733   7.964
  106POPC   C4B 5002  36.124  22.664   7.664
  107POPC   NC3 5003  36.119  35.365   9.464
  107POPC   PO4 5004  36.177  35.390   9.164
  107POPC   GL1 5005  36.125  35.344   8.864
  107POPC   GL2 5006  36.177  35.226   8.864
  107POPC   C1A 5007  36.177  35.386   8.564
  107POPC   D2A 5008  36.170  35.317   8.264
  107POPC   C3A 5009  36.105  35.352   7.964
  107POPC   C4A 5010  36.140  35.330   7.664
  107POPC   C1B 5011  36.276  35.168   8.564
  107POPC   C2B 5012  36.283  35.198   8.264
  107POPC   C3B 5013  36.317  35.175   7.964
  107POPC   C4B 5014  36.271  35.198   7.664
  108POPC   NC3 5015  14.376  27.547   9.464
  108POPC   PO4 5016  14.429  27.556   9.164
  108POPC   GL1 5017  14.439  27.561   8.864
  108POPC   GL2 5018  14.335  27.534   8.864
  108POPC   C1A 5019  14.371  27.604   8.564
  108POPC   D2A 5020  14.354  27.635   8.264
  108POPC   C3A 5021  14.376  27.556   7.964
  108POPC   C4A 5022  14.448  27.556   7.664
  108POPC   C1B 5023  14.239  27.381   8.564
  108POPC   C2B 5024  14.225  27.415   8.264
  108POPC   C3B 5025  14.222  27.360   7.964
  108POPC   C4B 5026  14.234  27.372   7.664
  109POPC   NC3 5027  36.902  25.232   9.464
  109POPC   PO4 5028  36.896  25.246   9.164
  109POPC   GL1 5029  36.952  25.241   8.864
  109POPC   GL2 5030  36.788  25.230   8.864
  109POPC   C1A 5031  36.875  25.282   8.564
  109POPC   D2A 5032  36.943  25.290   8.264
  109POPC   C3A 5033  36.918  25.304   7.964
  109POPC   C4A 5034  36.905  25.291   7.664
  109POPC   C1B 5035  36.626  25.201   8.564
  109POPC   C2B 5036  36.682  25.199   8.264
  109POPC   C3B 5037  36.664  25.143   7.964
  109POPC   C4B 5038  36.637  25.173   7.664
  110POPC   NC3 5039   3.507   9.763   9.464
  110POPC   PO4 5040   3.516   9.732   9.164
  110POPC   GL1 5041   3.510   9.749   8.864
  110POPC   GL2 5042   3.630   9.795   8.864
  110POPC   C1A 5043   3.568   9.703   8.564
  110POPC   D2A 5044   3.553   9.707   8.264
  110POPC   C3A 5045   3.575   9.793   7.964
  110POPC   C4A 5046   3.564   9.724   7.664
  110POPC   C1B 5047   3.771   9.851   8.564
  110POPC   C2B 5048   3.745   9.895   8.264
  110POPC   C3B 5049   3.765   9.867   7.964
  110POPC   C4B 5050   3.796   9.902   7.664
  111POPC   NC3 5051  22.924  27.575   9.464
  111POPC   PO4 5052  22.908  27.637   9.164
  111POPC   GL1 5053  22.909  27.628   8.864
  111POPC   GL2 5054  22.936  27.731   8.864
  111POPC   C1A 5055  22.891  27.637   8.564
  111POPC   D2A 5056  22.920  27.549   8.264
  111POPC   C3A 5057  22.897  27.565   7.964
  111POPC   C4A 5058  22.934  27.576   7.664
  111POPC   C1B 5059  22.937  27.852   8.564
  111POPC   C2B 5060  22.950  27.891   8.264
  111POPC   C3B 5061  22.952  27.892   7.964
  111POPC   C4B 5062  22.919  27.823   7.664
  112POPC   NC3 5063  36.083  34.591   9.464
  112POPC   PO4 5064  36.162  34.614   9.164
  112POPC   GL1 5065  36.108  34.589   8.864
  112POPC   GL2 5066  36.076  34.666   8.864
  112POPC   C1A 5067  36.140  34.577   8.564
  112POPC   D2A 5068  36.119  34.621   8.264
  112POPC   C3A 5069  36.125  34.529   7.964
  112POPC   C4A 5070  36.164  34.624   7.664
  112POPC   C1B 5071  36.005  34.819   8.564
  112POPC   C2B 5072  35.964  34.801   8.264
  112POPC   C3B 5073  35.961  34.803   7.964
  112POPC   C4B 5074  35.956  34.831   7.664
  113POPC   NC3 5075  35.336  29.155   9.464
  113POPC   PO4 5076  35.346  29.185   9.164
  113POPC   GL1 5077  35.318  29.120   8.864
  113POPC   GL2 5078  35.300  29.094   8.864
  113POPC   C1A 5079  35.362  29.108   8.564
  113POPC   D2A 5080  35.362  29.178   8.264
  113POPC   C3A 5081  35.345  29.176   7.964
  113POPC   C4A 5082  35.401  29.183   7.664
  113POPC   C1B 5083  35.190  29.011   8.564
  113POPC   C2B 5084  35.194  29.024   8.264
  113POPC   C3B 5085  35.177  28.956   7.964
  113POPC   C4B 5086  35.139  28.946   7.664
  114POPC   NC3 5087  35.342   6.670   9.464
  114POPC   PO4 5088  35.304   6.617   9.164
  114POPC   GL1 5089  35.369   6.635   8.864
  114POPC   GL2 5090  35.342   6.723   8.864
  114POPC   C1A 5091  35.340   6.681   8.564
  114POPC   D2A 5092  35.381   6.613   8.264
  114POPC   C3A 5093  35.399   6.642   7.964
  114POPC   C4A 5094  35.363   6.673   7.664
  114POPC   C1B 5095  35.352   6.920   8.564
  114POPC   C2B 5096  35.362   6.880   8.264
  114POPC   C3B 5097  35.347   6.942   7.964
  114POPC   C4B 5098  35.270   6.869   7.664
  115POPC   NC3 5099   8.180  41.541   9.464
  115POPC   PO4 5100   8.194  41.553   9.164
  115POPC   GL1 5101   8.153  41.600   8.864
  115POPC   GL2 5102   8.079  41.491   8.864
  115POPC   C1A 5103   8.225  41.589   8.564
  115POPC   D2A 5104   8.166  41.577   8.264
  115POPC   C3A 5105   8.228  41.560   7.964
  115POPC   C4A 5106   8.216  41.530   7.664
  115POPC   C1B 5107   8.046  41.359   8.564
  115POPC   C2B 5108   8.005  41.358   8.264
  115POPC   C3B 5109   8.068  41.359   7.964
  115POPC   C4B 5110   8.069  41.405   7.664
  116POPC   NC3 5111   0.421  14.428   9.464
  116POPC   PO4 5112   0.426  14.397   9.164
  116POPC   GL1 5113   0.477  14.420   8.864
  116POPC   GL2 5114   0.533  14.364   8.864
  116POPC   C1A 5115   0.392  14.388   8.564
  116POPC   D2A 5116   0.474  14.357   8.264
  116POPC   C3A 5117   0.399  14.399   7.964
  116POPC   C4A 5118   0.402  14.452   7.664
  116POPC   C1B 5119   0.700  14.352   8.564
  116POPC   C2B 5120   0.714  14.405   8.264
  116POPC   C3B 5121   0.641  14.382   7.964
  116POPC   C4B 5122   0.642  14.423   7.664
  117POPC   NC3 5123  25.267  29.878   9.464
  117POPC   PO4 5124  25.282  29.964   9.164
  117POPC   GL1 5125  25.250  29.969   8.864
  117POPC   GL2 5126  25.128  29.895   8.864
  117POPC   C1A 5127  25.277  29.921   8.564
  117POPC   D2A 5128  25.295  29.896   8.264
  117POPC   C3A 5129  25.301  29.919   7.964
  117POPC   C4A 5130  25.257  29.961   7.664
  117POPC   C1B 5131  25.046  29.919   8.564
  117POPC   C2B 5132  24.968  29.903   8.264
  117POPC   C3B 5133  25.035  29.934   7.964
  117POPC   C4B 5134  24.976  29.881   7.664
  118POPC   NC3 5135  29.161  41.527   9.464
  118POPC   PO4 5136  29.095  41.532   9.164
  118POPC   GL1 5137  29.138  41.573   8.864
  118POPC   GL2 5138  29.087  41.651   8.864
  118POPC   C1A 5139  29.163  41.529   8.564
  118POPC   D2A 5140  29.104  41.566   8.264
  118POPC   C3A 5141  29.186  41.514   7.964
  118POPC   C4A 5142  29.166  41.573   7.664
  118POPC   C1B 5143  29.157  41.781   8.564
  118POPC   C2B 5144  29.074  41.819   8.264
  118POPC   C3B 5145  29.143  41.784   7.964
  118POPC   C4B 5146  29.161  41.849   7.664
  119POPC   NC3 5147  35.326  32.285   9.464
  119POPC   PO4 5148  35.307  32.227   9.164
  119POPC   GL1 5149  35.398  32.234   8.864
  119POPC   GL2 5150  35.362  32.385   8.864
  119POPC   C1A 5151  35.304  32.207   8.564
  119POPC   D2A 5152  35.357  32.274   8.264
  119POPC   C3A 5153  35.350  32.278   7.964
  119POPC   C4A 5154  35.305  32.212   7.664
  119POPC   C1B 5155  35.455  32.500   8.564
  119POPC   C2B 5156  35.413  32.492   8.264
  119POPC   C3B 5157  35.424  32.527   7.964
  119POPC   C4B 5158  35.465  32.438   7.664
  120POPC   NC3 5159   1.972  19.072   9.464
  120POPC   PO4 5160   2.016  19.099   9.164
  120POPC   GL1 5161   2.015  19.013   8.864
  120POPC   GL2 5162   2.102  19.033   8.864
  120POPC   C1A 5163   2.009  19.107   8.564
  120POPC   D2A 5164   2.034  19.034   8.264
  120POPC   C3A 5165   1.968  19.090   7.964
  120POPC   C4A 5166   2.004  19.087   7.664
  120POPC   C1B 5167   2.289  19.102   8.564
  120POPC   C2B 5168   2.265  19.049   8.264
  120POPC   C3B 5169   2.240  19.044   7.964
  120POPC   C4B 5170   2.223  19.047   7.664
  121POPC   NC3 5171  43.862   8.222   9.464
  121POPC   PO4 5172  43.897   8.209   9.164
  121POPC   GL1 5173  43.882   8.154   8.864
  121POPC   GL2 5174  43.805   8.322   8.864
  121POPC   C1A 5175  43.922   8.236   8.564
  121POPC   D2A 5176  43.849   8.148   8.264
  121POPC   C3A 5177  43.853   8.228   7.964
  121POPC   C4A 5178  43.877   8.225   7.664
  121POPC   C1B 5179  43.769   8.381   8.564
  121POPC   C2B 5180  43.758   8.441   8.264
  121POPC   C3B 5181  43.726   8.430   7.964
  121POPC   C4B 5182  43.810   8.453   7.664
  122POPC   NC3 5183  19.033  14.408   9.464
  122POPC   PO4 5184  19.039  14.370   9.164
  122POPC   GL1 5185  19.090  14.398   8.864
  122POPC   GL2 5186  18.969  14.492   8.864
  122POPC   C1A 5187  19.028  14.429   8.564
  122POPC   D2A 5188  19.017  14.436   8.264
  122POPC   C3A 5189  19.061  14.364   7.964
  122POPC   C4A 5190  19.080  14.420   7.664
  122POPC   C1B 5191  18.923  14.582   8.564
  122POPC   C2B 5192  18.864  14.577   8.264
  122POPC   C3B 5193  18.951  14.564   7.964
  122POPC   C4B 5194  18.895  14.579   7.664
  123POPC   NC3 5195   3.523  15.952   9.464
  123POPC   PO4 5196   3.538  15.959   9.164
  123POPC   GL1 5197   3.503  15.988   8.864
  123POPC   GL2 5198   3.395  15.928   8.864
  123POPC   C1A 5199   3.496  15.910   8.564
  123POPC   D2A 5200   3.502  15.924   8.264
  123POPC   C3A 5201   3.497  16.003   7.964
  123POPC   C4A 5202   3.514  15.935   7.664
  123POPC   C1B 5203   3.372  15.788   8.564
  123POPC   C2B 5204   3.342  15.857   8.264
  123POPC   C3B 5205   3.310  15.837   7.964
  123POPC   C4B 5206   3.322  15.803   7.664
  124POPC   NC3 5207  25.993   8.225   9.464
  124POPC   PO4 5208  26.007   8.220   9.164
  124POPC   GL1 5209  25.997   8.150   8.864
  124POPC   GL2 5210  26.173   8.256   8.864
  124POPC   C1A 5211  26.051   8.153   8.564
  124POPC   D2A 5212  26.029   8.186   8.264
  124POPC   C3A 5213  25.999   8.232   7.964
  124POPC   C4A 5214  26.067   8.218   7.664
  124POPC   C1B 5215  26.274   8.351   8.564
  124POPC   C2B 5216  26.221   8.318   8.264
  124POPC   C3B 5217  26.204   8.402   7.964
  124POPC   C4B 5218  26.254   8.408   7.664
  125POPC   NC3 5219   1.169   0.446   9.464
  125POPC   PO4 5220   1.208   0.393   9.164
  125POPC   GL1 5221   1.211   0.463   8.864
  125POPC   GL2 5222   1.198   0.565   8.864
  125POPC   C1A 5223   1.231   0.464   8.564
  125POPC   D2A 5224   1.190   0.399   8.264
  125POPC   C3A 5225   1.170   0.397   7.964
  125POPC   C4A 5226   1.227   0.442   7.664
  125POPC   C1B 5227   1.193   0.677   8.564
  125POPC   C2B 5228   1.230   0.697   8.264
  125POPC   C3B 5229   1.202   0.675   7.964
  125POPC   C4B 5230   1.276   0.713   7.664
  126POPC   NC3 5231  10.565   9.797   9.464
  126POPC   PO4 5232  10.504   9.787   9.164
  126POPC   GL1 5233  10.512   9.760   8.864
  126POPC   GL2 5234  10.441   9.796   8.864
  126POPC   C1A 5235  10.558   9.700   8.564
  126POPC   D2A 5236  10.522   9.790   8.264
  126POPC   C3A 5237  10.526   9.781   7.964
  126POPC   C4A 5238  10.552   9.721   7.664
  126POPC   C1B 5239  10.252   9.807   8.564
  126POPC   C2B 5240  10.246   9.775   8.264
  126POPC   C3B 5241  10.316   9.800   7.964
  126POPC   C4B 5242  10.248   9.771   7.664
  127POPC   NC3 5243  23.706  27.608   9.464
  127POPC   PO4 5244  23.679  27.556   9.164
  127POPC   GL1 5245  23.688  27.586   8.864
  127POPC   GL2 5246  23.801  27.654   8.864
  127POPC   C1A 5247  23.710  27.617   8.564
  127POPC   D2A 5248  23.751  27.631   8.264
  127POPC   C3A 5249  23.667  27.605   7.964
  127POPC   C4A 5250  23.736  27.616   7.664
  127POPC   C1B 5251  23.881  27.705   8.564
  127POPC   C2B 5252  23.863  27.717   8.264
  127POPC   C3B 5253  23.939  27.786   7.964
  127POPC   C4B 5254  23.913  27.704   7.664
  128POPC   NC3 5255  39.194  11.301   9.464
  128POPC   PO4 5256  39.183  11.348   9.164
  128POPC   GL1 5257  39.219  11.336   8.864
  128POPC   GL2 5258  39.116  11.415   8.864
  128POPC   C1A 5259  39.182  11.331   8.564
  128POPC   D2A 5260  39.236  11.270   8.264
  128POPC   C3A 5261  39.242  11.322   7.964
  128POPC   C4A 5262  39.232  11.267   7.664
  128POPC   C1B 5263  39.031  11.461   8.564
  128POPC   C2B 5264  39.059  11.530   8.264
  128POPC   C3B 5265  39.098  11.446   7.964
  128POPC   C4B 5266  39.020  11.505   7.664
  129POPC   NC3 5267  38.488  15.989   9.464
  129POPC   PO4 5268  38.426  15.911   9.164
  129POPC   GL1 5269  38.407  15.910   8.864
  129POPC   GL2 5270  38.513  16.048   8.864
  129POPC   C1A 5271  38.493  16.002   8.564
  129POPC   D2A 5272  38.464  16.004   8.264
  129POPC   C3A 5273  38.445  15.992   7.964
  129POPC   C4A 5274  38.502  15.997   7.664
  129POPC   C1B 5275  38.531  16.213   8.564
  129POPC   C2B 5276  38.522  16.174   8.264
  129POPC   C3B 5277  38.566  16.220   7.964
  129POPC   C4B 5278  38.582  16.242   7.664
  130POPC   NC3 5279  34.541  11.334   9.464
  130POPC   PO4 5280  34.527  11.268   9.164
  130POPC   GL1 5281  34.536  11.286   8.864
  130POPC   GL2 5282  34.693  11.313   8.864
  130POPC   C1A 5283  34.541  11.342   8.564
  130POPC   D2A 5284  34.588  11.254   8.264
  130POPC   C3A 5285  34.598  11.265   7.964
  130POPC   C4A 5286  34.550  11.300   7.664
  130POPC   C1B 5287  34.828  11.342   8.564
  130POPC   C2B 5288  34.792  11.253   8.264
  130POPC   C3B 5289  34.850  11.288   7.964
  130POPC   C4B 5290  34.790  11.290   7.664
  131POPC   NC3 5291   2.734  16.745   9.464
  131POPC   PO4 5292   2.748  16.692   9.164
  131POPC   GL1 5293   2.718  16.688   8.864
  131POPC   GL2 5294   2.842  16.621   8.864
  131POPC   C1A 5295   2.717  16.733   8.564
  131POPC   D2A 5296   2.793  16.746   8.264
  131POPC   C3A 5297   2.744  16.715   7.964
  131POPC   C4A 5298   2.815  16.730   7.664
  131POPC   C1B 5299   2.900  16.568   8.564
  131POPC   C2B 5300   2.948  16.549   8.264
  131POPC   C3B 5301   2.916  16.522   7.964
  131POPC   C4B 5302   2.958  16.551   7.664
  132POPC   NC3 5303   5.113  21.341   9.464
  132POPC   PO4 5304   5.141  21.338   9.164
  132POPC   GL1 5305   5.097  21.353   8.864
  132POPC   GL2 5306   5.001  21.322   8.864
  132POPC   C1A 5307   5.106  21.396   8.564
  132POPC   D2A 5308   5.093  21.410   8.264
  132POPC   C3A 5309   5.087  21.371   7.964
  132POPC   C4A 5310   5.118  21.359   7.664
  132POPC   C1B 5311   4.898  21.291   8.564
  132POPC   C2B 5312   4.886  21.251   8.264
  132POPC   C3B 5313   4.886  21.302   7.964
  132POPC   C4B 5314   4.848  21.320   7.664
  133POPC   NC3 5315  36.902  18.295   9.464
  133POPC   PO4 5316  36.900  18.287   9.164
  133POPC   GL1 5317  36.888  18.265   8.864
  133POPC   GL2 5318  36.807  18.367   8.864
  133POPC   C1A 5319  36.897  18.311   8.564
  133POPC   D2A 5320  36.932  18.283   8.264
  133POPC   C3A 5321  36.863  18.294   7.964
  133POPC   C4A 5322  36.861  18.332   7.664
  133POPC   C1B 5323  36.729  18.427   8.564
  133POPC   C2B 5324  36.634  18.401   8.264
  133POPC   C3B 5325  36.655  18.357   7.964
  133POPC   C4B 5326  36.685  18.397   7.664
  134POPC   NC3 5327  19.025   5.845   9.464
  134POPC   PO4 5328  19.089   5.879   9.164
  134POPC   GL1 5329  19.108   5.889   8.864
  134POPC   GL2 5330  18.905   5.900   8.864
  134POPC   C1A 5331  19.075   5.843   8.564
  134POPC   D2A 5332  19.084   5.871   8.264
  134POPC   C3A 5333  19.104   5.893   7.964
  134POPC   C4A 5334  19.010   5.890   7.664
  134POPC   C1B 5335  18.889   6.004   8.564
  134POPC   C2B 5336  18.796   6.002   8.264
  134POPC   C3B 5337  18.800   5.953   7.964
  134POPC   C4B 5338  18.850   5.953   7.664
  135POPC   NC3 5339  12.045  14.433   9.464
  135POPC   PO4 5340  12.046  14.437   9.164
  135POPC   GL1 5341  12.058  14.354   8.864
  135POPC   GL2 5342  12.208  14.349   8.864
  135POPC   C1A 5343  12.090  14.363   8.564
  135POPC   D2A 5344  12.062  14.400   8.264
  135POPC   C3A 5345  12.035  14.356   7.964
  135POPC   C4A 5346  12.074  14.380   7.664
  135POPC   C1B 5347  12.276  14.367   8.564
  135POPC   C2B 5348  12.349  14.381   8.264
  135POPC   C3B 5349  12.313  14.335   7.964
  135POPC   C4B 5350  12.326  14.335   7.664
  136POPC   NC3 5351   0.412  22.965   9.464
  136POPC   PO4 5352   0.412  22.891   9.164
  136POPC   GL1 5353   0.408  22.898   8.864
  136POPC   GL2 5354   0.545  22.809   8.864
  136POPC   C1A 5355   0.430  22.946   8.564
  136POPC   D2A 5356   0.435  22.954   8.264
  136POPC   C3A 5357   0.468  22.983   7.964
  136POPC   C4A 5358   0.446  22.960   7.664
  136POPC   C1B 5359   0.607  22.729   8.564
  136POPC   C2B 5360   0.616  22.730   8.264
  136POPC   C3B 5361   0.541  22.752   7.964
  136POPC   C4B 5362   0.556  22.718   7.664
  137POPC   NC3 5363  28.351  34.547   9.464
  137POPC   PO4 5364  28.407  34.552   9.164
  137POPC   GL1 5365  28.352  34.585   8.864
  137POPC   GL2 5366  28.285  34.604   8.864
  137POPC   C1A 5367  28.352  34.590   8.564
  137POPC   D2A 5368  28.367  34.599   8.264
  137POPC   C3A 5369  28.363  34.590   7.964
  137POPC   C4A 5370  28.412  34.533   7.664
  137POPC   C1B 5371  28.156  34.601   8.564
  137POPC   C2B 5372  28.104  34.636   8.264
  137POPC   C3B 5373  28.082  34.606   7.964
  137POPC   C4B 5374  28.102  34.566   7.664
  138POPC   NC3 5375  15.991  16.744   9.464
  138POPC   PO4 5376  15.936  16.758   9.164
  138POPC   GL1 5377  15.913  16.745   8.864
  138POPC   GL2 5378  16.063  16.712   8.864
  138POPC   C1A 5379  15.907  16.700   8.564
  138POPC   D2A 5380  15.915  16.750   8.264
  138POPC   C3A 5381  15.930  16.690   7.964
  138POPC   C4A 5382  15.952  16.715   7.664
  138POPC   C1B 5383  16.199  16.631   8.564
  138POPC   C2B 5384  16.169  16.604   8.264
  138POPC   C3B 5385  16.236  16.644   7.964
  138POPC   C4B 5386  16.196  16.682   7.664
  139POPC   NC3 5387   6.673  22.119   9.464
  139POPC   PO4 5388   6.602  22.144   9.164
  139POPC   GL1 5389   6.647  22.211   8.864
  139POPC   GL2 5390   6.548  22.180   8.864
  139POPC   C1A 5391   6.604  22.208   8.564
  139POPC   D2A 5392   6.649  22.202   8.264
  139POPC   C3A 5393   6.623  22.210   7.964
  139POPC   C4A 5394   6.620  22.158   7.664
  139POPC   C1B 5395   6.428  22.217   8.564
  139POPC   C2B 5396   6.420  22.201   8.264
  139POPC   C3B 5397   6.433  22.250   7.964
  139POPC   C4B 5398   6.369  22.232   7.664
  140POPC   NC3 5399  32.227  30.722   9.464
  140POPC   PO4 5400  32.227  30.710   9.164
  140POPC   GL1 5401  32.226  30.685   8.864
  140POPC   GL2 5402  32.325  30.556   8.864
  140POPC   C1A 5403  32.239  30.718   8.564
  140POPC   D2A 5404  32.296  30.727   8.264
  140POPC   C3A 5405  32.205  30.685   7.964
  140POPC   C4A 5406  32.295  30.669   7.664
  140POPC   C1B 5407  32.390  30.531   8.564
  140POPC   C2B 5408  32.410  30.526   8.264
  140POPC   C3B 5409  32.379  30.481   7.964
  140POPC   C4B 5410  32.438  30.494   7.664
  141POPC   NC3 5411  39.225  29.901   9.464
  141POPC   PO4 5412  39.205  29.907   9.164
  141POPC   GL1 5413  39.255  29.926   8.864
  141POPC   GL2 5414  39.176  29.812   8.864
  141POPC   C1A 5415  39.276  29.872   8.564
  141POPC   D2A 5416  39.257  29.937   8.264
  141POPC   C3A 5417  39.273  29.945   7.964
  141POPC   C4A 5418  39.206  29.908   7.664
  141POPC   C1B 5419  39.058  29.734   8.564
  141POPC   C2B 5420  39.025  29.726   8.264
  141POPC   C3B 5421  39.041  29.808   7.964
  141POPC   C4B 5422  39.020  29.724   7.664
  142POPC   NC3 5423  24.489  40.797   9.464
  142POPC   PO4 5424  24.539  40.793   9.164
  142POPC   GL1 5425  24.480  40.815   8.864
  142POPC   GL2 5426  24.440  40.682   8.864
  142POPC   C1A 5427  24.470  40.801   8.564
  142POPC   D2A 5428  24.445  40.810   8.264
  142POPC   C3A 5429  24.486  40.740   7.964
  142POPC   C4A 5430  24.488  40.763   7.664
  142POPC   C1B 5431  24.340  40.623   8.564
  142POPC   C2B 5432  24.297  40.597   8.264
  142POPC   C3B 5433  24.377  40.628   7.964
  142POPC   C4B 5434  24.313  40.587   7.664
  143POPC   NC3 5435  34.591  26.818   9.464
  143POPC   PO4 5436  34.557  26.822   9.164
  143POPC   GL1 5437  34.543  26.814   8.864
  143POPC   GL2 5438  34.468  26.796   8.864
  143POPC   C1A 5439  34.551  26.845   8.564
  143POPC   D2A 5440  34.600  26.800   8.264
  143POPC   C3A 5441  34.546  26.835   7.964
  143POPC   C4A 5442  34.563  26.848   7.664
  143POPC   C1B 5443  34.382  26.779   8.564
  143POPC   C2B 5444  34.377  26.695   8.264
  143POPC   C3B 5445  34.329  26.772   7.964
  143POPC   C4B 5446  34.335  26.705   7.664
  144POPC   NC3 5447  29.921  37.720   9.464
  144POPC   PO4 5448  29.931  37.685   9.164
  144POPC   GL1 5449  29.900  37.724   8.864
  144POPC   GL2 5450  30.008  37.782   8.864
  144POPC   C1A 5451  29.922  37.646   8.564
  144POPC   D2A 5452  29.962  37.630   8.264
  144POPC   C3A 5453  29.944  37.662   7.964
  144POPC   C4A 5454  29.957  37.694   7.664
  144POPC   C1B 5455  30.030  37.846   8.564
  144POPC   C2B 5456  30.061  37.863   8.264
  144POPC   C3B 5457  30.072  37.908   7.964
  144POPC   C4B 5458  30.083  37.832   7.664
  145POPC   NC3 5459  15.133  33.026   9.464
  145POPC   PO4 5460  15.178  33.051   9.164
  145POPC   GL1 5461  15.187  33.044   8.864
  145POPC   GL2 5462  15.233  33.143   8.864
  145POPC   C1A 5463  15.195  33.003   8.564
  145POPC   D2A 5464  15.148  33.010   8.264
  145POPC   C3A 5465  15.199  33.003   7.964
  145POPC   C4A 5466  15.177  33.035   7.664
  145POPC   C1B 5467  15.213  33.284   8.564
  145POPC   C2B 5468  15.216  33.275   8.264
  145POPC   C3B 5469  15.180  33.246   7.964
  145POPC   C4B 5470  15.241  33.305   7.664
  146POPC   NC3 5471   5.883   5.868   9.464
  146POPC   PO4 5472   5.833   5.844   9.164
  146POPC   GL1 5473   5.913   5.898   8.864
  146POPC   GL2 5474   5.770   5.893   8.864
  146POPC   C1A 5475   5.880   5.894   8.564
  146POPC   D2A 5476   5.821   5.828   8.264
  146POPC   C3A 5477   5.905   5.868   7.964
  146POPC   C4A 5478   5.847   5.872   7.664
  146POPC   C1B 5479   5.641   5.928   8.564
  146POPC   C2B 5480   5.573   5.920   8.264
  146POPC   C3B 5481   5.654   5.878   7.964
  146POPC   C4B 5482   5.618   5.847   7.664
  147POPC   NC3 5483  17.503  28.417   9.464
  147POPC   PO4 5484  17.499  28.411   9.164
  147POPC   GL1 5485  17.511  28.394   8.864
  147POPC   GL2 5486  17.498  28.255   8.864
  147POPC   C1A 5487  17.493  28.408   8.564
  147POPC   D2A 5488  17.509  28.359   8.264
  147POPC   C3A 5489  17.525  28.359   7.964
  147POPC   C4A 5490  17.466  28.355   7.664
  147POPC   C1B 5491  17.434  28.119   8.564
  147POPC   C2B 5492  17.431  28.176   8.264
  147POPC   C3B 5493  17.402  28.089   7.964
  147POPC   C4B 5494  17.438  28.154   7.664
  148POPC   NC3 5495  33.033  30.713   9.464
  148POPC   PO4 5496  33.023  30.686   9.164
  148POPC   GL1 5497  33.002  30.684   8.864
  148POPC   GL2 5498  32.856  30.667   8.864
  148POPC   C1A 5499  33.048  30.694   8.564
  148POPC   D2A 5500  33.007  30.647   8.264
  148POPC   C3A 5501  33.059  30.721   7.964
  148POPC   C4A 5502  32.975  30.681   7.664
  148POPC   C1B 5503  32.792  30.679   8.564
  148POPC   C2B 5504  32.743  30.680   8.264
  148POPC   C3B 5505  32.754  30.621   7.964
  148POPC   C4B 5506  32.750  30.677   7.664
  149POPC   NC3 5507   2.787  12.097   9.464
  149POPC   PO4 5508   2.753  12.046   9.164
  149POPC   GL1 5509   2.758  12.123   8.864
  149POPC   GL2 5510   2.726  11.923   8.864
  149POPC   C1A 5511   2.737  12.035   8.564
  149POPC   D2A 5512   2.775  12.097   8.264
  149POPC   C3A 5513   2.792  12.047   7.964
  149POPC   C4A 5514   2.723  12.053   7.664
  149POPC   C1B 5515   2.791  11.868   8.564
  149POPC   C2B 5516   2.704  11.860   8.264
  149POPC   C3B 5517   2.785  11.811   7.964
  149POPC   C4B 5518   2.711  11.797   7.664
  150POPC   NC3 5519  22.971   5.124   9.464
  150POPC   PO4 5520  22.888   5.067   9.164
  150POPC   GL1 5521  22.899   5.120   8.864
  150POPC   GL2 5522  22.969   4.963   8.864
  150POPC   C1A 5523  22.976   5.125   8.564
  150POPC   D2A 5524  22.924   5.121   8.264
  150POPC   C3A 5525  22.943   5.066   7.964
  150POPC   C4A 5526  22.909   5.098   7.664
  150POPC   C1B 5527  22.923   4.836   8.564
  150POPC   C2B 5528  22.888   4.874   8.264
  150POPC   C3B 5529  22.943   4.866   7.964
  150POPC   C4B 5530  22.959   4.797   7.664
  151POPC   NC3 5531  14.397  15.935   9.464
  151POPC   PO4 5532  14.448  15.917   9.164
  151POPC   GL1 5533  14.387  15.962   8.864
  151POPC   GL2 5534  14.492  15.915   8.864
  151POPC   C1A 5535  14.453  15.942   8.564
  151POPC   D2A 5536  14.426  15.978   8.264
  151POPC   C3A 5537  14.450  16.002   7.964
  151POPC   C4A 5538  14.423  15.942   7.664
  151POPC   C1B 5539  14.576  15.737   8.564
  151POPC   C2B 5540  14.553  15.828   8.264
  151POPC   C3B 5541  14.614  15.749   7.964
  151POPC   C4B 5542  14.542  15.808   7.664
  152POPC   NC3 5543  41.550  24.493   9.464
  152POPC   PO4 5544  41.527  24.493   9.164
  152POPC   GL1 5545  41.556  24.485   8.864
  152POPC   GL2 5546  41.627  24.526   8.864
  152POPC   C1A 5547  41.592  24.500   8.564
  152POPC   D2A 5548  41.541  24.508   8.264
  152POPC   C3A 5549  41.605  24.540   7.964
  152POPC   C4A 5550  41.519  24.523   7.664
  152POPC   C1B 5551  41.767  24.645   8.564
  152POPC   C2B 5552  41.749  24.591   8.264
  152POPC   C3B 5553  41.758  24.667   7.964
  152POPC   C4B 5554  41.812  24.665   7.664
  153POPC   NC3 5555  36.117  23.748   9.464
  153POPC   PO4 5556  36.103  23.748   9.164
  153POPC   GL1 5557  36.157  23.733   8.864
  153POPC   GL2 5558  36.238  23.752   8.864
  153POPC   C1A 5559  36.139  23.708   8.564
  153POPC   D2A 5560  36.134  23.755   8.264
  153POPC   C3A 5561  36.094  23.704   7.964
  153POPC   C4A 5562  36.139  23.681   7.664
  153POPC   C1B 5563  36.343  23.894   8.564
  153POPC   C2B 5564  36.370  23.863   8.264
  153POPC   C3B 5565  36.372  23.880   7.964
  153POPC   C4B 5566  36.298  23.880   7.664
  154POPC   NC3 5567  37.666   1.989   9.464
  154POPC   PO4 5568  37.712   2.014   9.164
  154POPC   GL1 5569  37.706   1.940   8.864
  154POPC   GL2 5570  37.750   2.098   8.864
  154POPC   C1A 5571  37.687   2.039   8.564
  154POPC   D2A 5572  37.633   1.956   8.264
  154POPC   C3A 5573  37.655   2.021   7.964
  154POPC   C4A 5574  37.667   1.975   7.664
  154POPC   C1B 5575  37.774   2.195   8.564
  154POPC   C2B 5576  37.708   2.266   8.264
  154POPC   C3B 5577  37.719   2.215   7.964
  154POPC   C4B 5578  37.746   2.199   7.664
  155POPC   NC3 5579  26.792   8.242   9.464
  155POPC   PO4 5580  26.812   8.224   9.164
  155POPC   GL1 5581  26.793   8.196   8.864
  155POPC   GL2 5582  26.724   8.160   8.864
  155POPC   C1A 5583  26.863   8.182   8.564
  155POPC   D2A 5584  26.780   8.204   8.264
  155POPC   C3A 5585  26.839   8.221   7.964
  155POPC   C4A 5586  26.769   8.148   7.664
  155POPC   C1B 5587  26.614   8.178   8.564
  155POPC   C2B 5588  26.578   8.158   8.264
  155POPC   C3B 5589  26.557   8.123   7.964
  155POPC   C4B 5590  26.565   8.181   7.664
  156POPC   NC3 5591  40.038  27.597   9.464
  156POPC   PO4 5592  39.999  27.600   9.164
  156POPC   GL1 5593  39.973  27.581   8.864
  156POPC   GL2 5594  39.989  27.483   8.864
  156POPC   C1A 5595  39.980  27.544   8.564
  156POPC   D2A 5596  39.971  27.629   8.264
  156POPC   C3A 5597  40.033  27.633   7.964
  156POPC   C4A 5598  39.988  27.568   7.664
  156POPC   C1B 5599  40.009  27.322   8.564
  156POPC   C2B 5600  39.990  27.326   8.264
  156POPC   C3B 5601  40.026  27.319   7.964
  156POPC   C4B 5602  40.016  27.322   7.664
  157POPC   NC3 5603  21.359  12.862   9.464
  157POPC   PO4 5604  21.398  12.872   9.164
  157POPC   GL1 5605  21.373  12.831   8.864
  157POPC   GL2 5606  21.375  12.725   8.864
  157POPC   C1A 5607  21.368  12.894   8.564
  157POPC   D2A 5608  21.388  12.826   8.264
  157POPC   C3A 5609  21.435  12.876   7.964
  157POPC   C4A 5610  21.397  12.861   7.664
  157POPC   C1B 5611  21.371  12.633   8.564
  157POPC   C2B 5612  21.385  12.555   8.264
  157POPC   C3B 5613  21.427  12.591   7.964
  157POPC   C4B 5614  21.401  12.601   7.664
  158POPC   NC3 5615  19.044   2.782   9.464
  158POPC   PO4 5616  19.018   2.748   9.164
  158POPC   GL1 5617  19.103   2.753   8.864
  158POPC   GL2 5618  18.928   2.675   8.864
  158POPC   C1A 5619  19.057   2.810   8.564
  158POPC   D2A 5620  19.087   2.725   8.264
  158POPC   C3A 5621  19.011   2.746   7.964
  158POPC   C4A 5622  19.020   2.730   7.664
  158POPC   C1B 5623  18.837   2.642   8.564
  158POPC   C2B 5624  18.834   2.654   8.264
  158POPC   C3B 5625  18.825   2.663   7.964
  158POPC   C4B 5626  18.862   2.693   7.664
  159POPC   NC3 5627  12.855   9.016   9.464
  159POPC   PO4 5628  12.878   8.961   9.164
  159POPC   GL1 5629  12.817   8.980   8.864
  159POPC   GL2 5630  12.797   9.057   8.864
  159POPC   C1A 5631  12.802   8.998   8.564
  159POPC   D2A 5632  12.840   8.929   8.264
  159POPC   C3A 5633  12.824   8.950   7.964
  159POPC   C4A 5634  12.880   8.987   7.664
  159POPC   C1B 5635  12.698   9.107   8.564
  159POPC   C2B 5636  12.649   9.193   8.264
  159POPC   C3B 5637  12.720   9.156   7.964
  159POPC   C4B 5638  12.685   9.144   7.664
  160POPC   NC3 5639  26.819  32.988   9.464
  160POPC   PO4 5640  26.794  32.987   9.164
  160POPC   GL1 5641  26.792  33.000   8.864
  160POPC   GL2 5642  26.771  32.906   8.864
  160POPC   C1A 5643  26.824  32.990   8.564
  160POPC   D2A 5644  26.862  33.000   8.264
  160POPC   C3A 5645  26.795  33.059   7.964
  160POPC   C4A 5646  26.775  33.051   7.664
  160POPC   C1B 5647  26.650  32.849   8.564
  160POPC   C2B 5648  26.716  32.865   8.264
  160POPC   C3B 5649  26.697  32.837   7.964
  160POPC   C4B 5650  26.654  32.838   7.664
  161POPC   NC3 5651  33.020  15.927   9.464
  161POPC   PO4 5652  33.023  15.937   9.164
  161POPC   GL1 5653  33.001  15.976   8.864
  161POPC   GL2 5654  32.941  15.962   8.864
  161POPC   C1A 5655  33.072  15.912   8.564
  161POPC   D2A 5656  33.028  15.949   8.264
  161POPC   C3A 5657  32.980  15.958   7.964
  161POPC   C4A 5658  33.011  15.914   7.664
  161POPC   C1B 5659  32.820  15.977   8.564
  161POPC   C2B 5660  32.752  15.962   8.264
  161POPC   C3B 5661  32.767  15.943   7.964
  161POPC   C4B 5662  32.818  15.907   7.664
  162POPC   NC3 5663   6.620  39.206   9.464
  162POPC   PO4 5664   6.674  39.196   9.164
  162POPC   GL1 5665   6.669  39.276   8.864
  162POPC   GL2 5666   6.631  39.347   8.864
  162POPC   C1A 5667   6.690  39.226   8.564
  162POPC   D2A 5668   6.684  39.181   8.264
  162POPC   C3A 5669   6.632  39.218   7.964
  162POPC   C4A 5670   6.681  39.256   7.664
  162POPC   C1B 5671   6.661  39.462   8.564
  162POPC   C2B 5672   6.739  39.466   8.264
  162POPC   C3B 5673   6.684  39.425   7.964
  162POPC   C4B 5674   6.718  39.493   7.664
  163POPC   NC3 5675  19.084   0.484   9.464
  163POPC   PO4 5676  19.108   0.467   9.164
  163POPC   GL1 5677  19.097   0.415   8.864
  163POPC   GL2 5678  18.929   0.308   8.864
  163POPC   C1A 5679  19.102   0.405   8.564
  163POPC   D2A 5680  19.055   0.432   8.264
  163POPC   C3A 5681  19.023   0.393   7.964
  163POPC   C4A 5682  19.067   0.412   7.664
  163POPC   C1B 5683  18.884   0.250   8.564
  163POPC   C2B 5684  18.848   0.254   8.264
  163POPC   C3B 5685  18.843   0.231   7.964
  163POPC   C4B 5686  18.880   0.249   7.664
  164POPC   NC3 5687   0.432   9.000   9.464
  164POPC   PO4 5688   0.483   8.943   9.164
  164POPC   GL1 5689   0.487   8.984   8.864
  164POPC   GL2 5690   0.409   9.103   8.864
  164POPC   C1A 5691   0.433   8.930   8.564
  164POPC   D2A 5692   0.477   8.976   8.264
  164POPC   C3A 5693   0.439   9.007   7.964
  164POPC   C4A 5694   0.457   9.022   7.664
  164POPC   C1B 5695   0.244   9.139   8.564
  164POPC   C2B 5696   0.253   9.156   8.264
  164POPC   C3B 5697   0.308   9.166   7.964
  164POPC   C4B 5698   0.338   9.191   7.664
  165POPC   NC3 5699  18.293  13.666   9.464
  165POPC   PO4 5700  18.271  13.598   9.164
  165POPC   GL1 5701  18.299  13.675   8.864
  165POPC   GL2 5702  18.165  13.684   8.864
  165POPC   C1A 5703  18.242  13.598   8.564
  165POPC   D2A 5704  18.314  13.631   8.264
  165POPC   C3A 5705  18.255  13.608   7.964
  165POPC   C4A 5706  18.252  13.614   7.664
  165POPC   C1B 5707  17.991  13.690   8.564
  165POPC   C2B 5708  18.081  13.633   8.264
  165POPC   C3B 5709  18.004  13.630   7.964
  165POPC   C4B 5710  17.984  13.603   7.664
  166POPC   NC3 5711  41.588   6.618   9.464
  166POPC   PO4 5712  41.570   6.629   9.164
  166POPC   GL1 5713  41.516   6.691   8.864
  166POPC   GL2 5714  41.543   6.789   8.864
  166POPC   C1A 5715  41.546   6.655   8.564
  166POPC   D2A 5716  41.605   6.612   8.264
  166POPC   C3A 5717  41.547   6.645   7.964
  166POPC   C4A 5718  41.529   6.627   7.664
  166POPC   C1B 5719  41.455   6.835   8.564
  166POPC   C2B 5720  41.454   6.831   8.264
  166POPC   C3B 5721  41.483   6.844   7.964
  166POPC   C4B 5722  41.433   6.912   7.664
  167POPC   NC3 5723  28.417  19.835   9.464
  167POPC   PO4 5724  28.340  19.872   9.164
  167POPC   GL1 5725  28.356  19.868   8.864
  167POPC   GL2 5726  28.246  19.776   8.864
  167POPC   C1A 5727  28.361  19.823   8.564
  167POPC   D2A 5728  28.355  19.872   8.264
  167POPC   C3A 5729  28.403  19.826   7.964
  167POPC   C4A 5730  28.401  19.801   7.664
  167POPC   C1B 5731  28.090  19.774   8.564
  167POPC   C2B 5732  28.177  19.786   8.264
  167POPC   C3B 5733  28.158  19.736   7.964
  167POPC   C4B 5734  28.151  19.799   7.664
  168POPC   NC3 5735  11.345  21.400   9.464
  168POPC   PO4 5736  11.274  21.401   9.164
  168POPC   GL1 5737  11.318  21.340   8.864
  168POPC   GL2 5738  11.262  21.343   8.864
  168POPC   C1A 5739  11.292  21.398   8.564
  168POPC   D2A 5740  11.271  21.358   8.264
  168POPC   C3A 5741  11.291  21.402   7.964
  168POPC   C4A 5742  11.305  21.411   7.664
  168POPC   C1B 5743  11.126  21.223   8.564
  168POPC   C2B 5744  11.108  21.163   8.264
  168POPC   C3B 5745  11.135  21.161   7.964
  168POPC   C4B 5746  11.093  21.213   7.664
  169POPC   NC3 5747  15.220  14.431   9.464
  169POPC   PO4 5748  15.180  14.367   9.164
  169POPC   GL1 5749  15.204  14.418   8.864
  169POPC   GL2 5750  15.104  14.464   8.864
  169POPC   C1A 5751  15.154  14.423   8.564
  169POPC   D2A 5752  15.197  14.446   8.264
  169POPC   C3A 5753  15.175  14.407   7.964
  169POPC   C4A 5754  15.171  14.446   7.664
  169POPC   C1B 5755  15.022  14.612   8.564
  169POPC   C2B 5756  15.014  14.571   8.264
  169POPC   C3B 5757  15.017  14.600   7.964
  169POPC   C4B 5758  15.017  14.596   7.664
  170POPC   NC3 5759  21.371  15.184   9.464
  170POPC   PO4 5760  21.427  15.165   9.164
  170POPC   GL1 5761  21.358  15.200   8.864
  170POPC   GL2 5762  21.277  15.312   8.864
  170POPC   C1A 5763  21.400  15.199   8.564
  170POPC   D2A 5764  21.415  15.228   8.264
  170POPC   C3A 5765  21.419  15.195   7.964
  170POPC   C4A 5766  21.360  15.134   7.664
  170POPC   C1B 5767  21.225  15.399   8.564
  170POPC   C2B 5768  21.173  15.345   8.264
  170POPC   C3B 5769  21.226  15.322   7.964
  170POPC   C4B 5770  21.217  15.396   7.664
  171POPC   NC3 5771  36.864   5.128   9.464
  171POPC   PO4 5772  36.884   5.114   9.164
  171POPC   GL1 5773  36.896   5.131   8.864
  171POPC   GL2 5774  36.794   5.122   8.864
  171POPC   C1A 5775  36.860   5.120   8.564
  171POPC   D2A 5776  36.922   5.113   8.264
  171POPC   C3A 5777  36.917   5.115   7.964
  171POPC   C4A 5778  36.903   5.136   7.664
  171POPC   C1B 5779  36.682   5.254   8.564
  171POPC   C2B 5780  36.715   5.245   8.264
  171POPC   C3B 5781  36.742   5.210   7.964
  171POPC   C4B 5782  36.678   5.237   7.664
  172POPC   NC3 5783   0.460  20.651   9.464
  172POPC   PO4 5784   0.432  20.573   9.164
  172POPC   GL1 5785   0.476  20.596   8.864
  172POPC   GL2 5786   0.472  20.446   8.864
  172POPC   C1A 5787   0.414  20.597   8.564
  172POPC   D2A 5788   0.406  20.578   8.264
  172POPC   C3A 5789   0.401  20.592   7.964
  172POPC   C4A 5790   0.421  20.659   7.664
  172POPC   C1B 5791   0.372  20.408   8.564
  172POPC   C2B 5792   0.455  20.406   8.264
  172POPC   C3B 5793   0.383  20.317   7.964
  172POPC   C4B 5794   0.437  20.357   7.664
  173POPC   NC3 5795  22.932  33.843   9.464
  173POPC   PO4 5796  22.937  33.797   9.164
  173POPC   GL1 5797  22.906  33.761   8.864
  173POPC   GL2 5798  22.791  33.824   8.864
  173POPC   C1A 5799  22.981  33.789   8.564
  173POPC   D2A 5800  22.985  33.752   8.264
  173POPC   C3A 5801  22.972  33.777   7.964
  173POPC   C4A 5802  22.930  33.779   7.664
  173POPC   C1B 5803  22.659  33.771   8.564
  173POPC   C2B 5804  22.649  33.815   8.264
  173POPC   C3B 5805  22.664  33.744   7.964
  173POPC   C4B 5806  22.711  33.817   7.664
  174POPC   NC3 5807  24.532  30.737   9.464
  174POPC   PO4 5808  24.492  30.712   9.164
  174POPC   GL1 5809  24.528  30.653   8.864
  174POPC   GL2 5810  24.471  30.579   8.864
  174POPC   C1A 5811  24.538  30.686   8.564
  174POPC   D2A 5812  24.470  30.686   8.264
  174POPC   C3A 5813  24.513  30.713   7.964
  174POPC   C4A 5814  24.502  30.658   7.664
  174POPC   C1B 5815  24.499  30.401   8.564
  174POPC   C2B 5816  24.528  30.472   8.264
  174POPC   C3B 5817  24.538  30.418   7.964
  174POPC   C4B 5818  24.545  30.471   7.664
  175POPC   NC3 5819  19.793  27.613   9.464
  175POPC   PO4 5820  19.872  27.642   9.164
  175POPC   GL1 5821  19.835  27.601   8.864
  175POPC   GL2 5822  19.927  27.738   8.864
  175POPC   C1A 5823  19.870  27.557   8.564
  175POPC   D2A 5824  19.811  27.604   8.264
  175POPC   C3A 5825  19.863  27.550   7.964
  175POPC   C4A 5826  19.842  27.552   7.664
  175POPC   C1B 5827  20.024  27.777   8.564
  175POPC   C2B 5828  19.968  27.825   8.264
  175POPC   C3B 5829  19.979  27.770   7.964
  175POPC   C4B 5830  20.025  27.760   7.664
  176POPC   NC3 5831   2.800  11.297   9.464
  176POPC   PO4 5832   2.730  11.309   9.164
  176POPC   GL1 5833   2.733  11.319   8.864
  176POPC   GL2 5834   2.771  11.464   8.864
  176POPC   C1A 5835   2.754  11.292   8.564
  176POPC   D2A 5836   2.807  11.324   8.264
  176POPC   C3A 5837   2.800  11.278   7.964
  176POPC   C4A 5838   2.759  11.264   7.664
  176POPC   C1B 5839   2.807  11.565   8.564
  176POPC   C2B 5840   2.783  11.533   8.264
  176POPC   C3B 5841   2.842  11.564   7.964
  176POPC   C4B 5842   2.790  11.535   7.664
  177POPC   NC3 5843  43.854  29.899   9.464
  177POPC   PO4 5844  43.903  29.938   9.164
  177POPC   GL1 5845  43.903  29.876   8.864
  177POPC   GL2 5846  44.035  29.946   8.864
  177POPC   C1A 5847  43.838  29.937   8.564
  177POPC   D2A 5848  43.844  29.967   8.264
  177POPC   C3A 5849  43.936  29.880   7.964
  177POPC   C4A 5850  43.851  29.946   7.664
  177POPC   C1B 5851  44.178  29.862   8.564
  177POPC   C2B 5852  44.121  29.859   8.264
  177POPC   C3B 5853  44.149  29.858   7.964
  177POPC   C4B 5854  44.168  29.863   7.664
  178POPC   NC3 5855   3.508   3.569   9.464
  178POPC   PO4 5856   3.520   3.567   9.164
  178POPC   GL1 5857   3.561   3.552   8.864
  178POPC   GL2 5858   3.434   3.609   8.864
  178POPC   C1A 5859   3.501   3.537   8.564
  178POPC   D2A 5860   3.553   3.508   8.264
  178POPC   C3A 5861   3.565   3.549   7.964
  178POPC   C4A 5862   3.560   3.558   7.664
  178POPC   C1B 5863   3.332   3.640   8.564
  178POPC   C2B 5864   3.291   3.639   8.264
  178POPC   C3B 5865   3.327   3.609   7.964
  178POPC   C4B 5866   3.288   3.639   7.664
  179POPC   NC3 5867  16.778  28.328   9.464
  179POPC   PO4 5868  16.683  28.341   9.164
  179POPC   GL1 5869  16.747  28.338   8.864
  179POPC   GL2 5870  16.857  28.276   8.864
  179POPC   C1A 5871  16.735  28.329   8.564
  179POPC   D2A 5872  16.699  28.373   8.264
  179POPC   C3A 5873  16.721  28.327   7.964
  179POPC   C4A 5874  16.688  28.323   7.664
  179POPC   C1B 5875  16.875  28.216   8.564
  179POPC   C2B 5876  16.867  28.174   8.264
  179POPC   C3B 5877  16.918  28.148   7.964
  179POPC   C4B 5878  16.852  28.192   7.664
  180POPC   NC3 5879   0.449  26.020   9.464
  180POPC   PO4 5880   0.409  26.029   9.164
  180POPC   GL1 5881   0.422  26.009   8.864
  180POPC   GL2 5882   0.324  25.988   8.864
  180POPC   C1A 5883   0.445  26.018   8.564
  180POPC   D2A 5884   0.454  26.032   8.264
  180POPC   C3A 5885   0.401  26.022   7.964
  180POPC   C4A 5886   0.429  26.077   7.664
  180POPC   C1B 5887   0.178  25.905   8.564
  180POPC   C2B 5888   0.243  25.909   8.264
  180POPC   C3B 5889   0.254  25.897   7.964
  180POPC   C4B 5890   0.167  25.903   7.664
  181POPC   NC3 5891  22.925  37.679   9.464
  181POPC   PO4 5892  22.987  37.689   9.164
  181POPC   GL1 5893  22.900  37.638   8.864
  181POPC   GL2 5894  22.875  37.558   8.864
  181POPC   C1A 5895  22.941  37.648   8.564
  181POPC   D2A 5896  22.929  37.724   8.264
  181POPC   C3A 5897  22.890  37.697   7.964
  181POPC   C4A 5898  22.926  37.699   7.664
  181POPC   C1B 5899  22.867  37.429   8.564
  181POPC   C2B 5900  22.927  37.480   8.264
  181POPC   C3B 5901  22.902  37.403   7.964
  181POPC   C4B 5902  22.933  37.399   7.664
  182POPC   NC3 5903  25.999  39.974   9.464
  182POPC   PO4 5904  26.079  40.011   9.164
  182POPC   GL1 5905  26.050  39.964   8.864
  182POPC   GL2 5906  25.912  40.051   8.864
  182POPC   C1A 5907  26.022  39.995   8.564
  182POPC   D2A 5908  26.018  40.032   8.264
  182POPC   C3A 5909  25.998  39.990   7.964
  182POPC   C4A 5910  26.031  39.978   7.664
  182POPC   C1B 5911  25.832  40.111   8.564
  182POPC   C2B 5912  25.777  40.069   8.264
  182POPC   C3B 5913  25.765  40.095   7.964
  182POPC   C4B 5914  25.780  40.059   7.664
  183POPC   NC3 5915  33.005  24.459   9.464
  183POPC   PO4 5916  32.989  24.494   9.164
  183POPC   GL1 5917  33.007  24.509   8.864
  183POPC   GL2 5918  32.929  24.573   8.864
  183POPC   C1A 5919  32.978  24.504   8.564
  183POPC   D2A 5920  33.011  24.501   8.264
  183POPC   C3A 5921  33.006  24.445   7.964
  183POPC   C4A 5922  33.015  24.532   7.664
  183POPC   C1B 5923  32.833  24.548   8.564
  183POPC   C2B 5924  32.775  24.521   8.264
  183POPC   C3B 5925  32.769  24.592   7.964
  183POPC   C4B 5926  32.832  24.556   7.664
  184POPC   NC3 5927  19.037   3.518   9.464
  184POPC   PO4 5928  19.101   3.535   9.164
  184POPC   GL1 5929  19.107   3.566   8.864
  184POPC   GL2 5930  19.097   3.496   8.864
  184POPC   C1A 5931  19.081   3.494   8.564
  184POPC   D2A 5932  19.042   3.551   8.264
  184POPC   C3A 5933  19.012   3.566   7.964
  184POPC   C4A 5934  19.087   3.567   7.664
  184POPC   C1B 5935  19.176   3.388   8.564
  184POPC   C2B 5936  19.269   3.349   8.264
  184POPC   C3B 5937  19.177   3.385   7.964
  184POPC   C4B 5938  19.241   3.326   7.664
  185POPC   NC3 5939  21.421  24.461   9.464
  185POPC   PO4 5940  21.416  24.512   9.164
  185POPC   GL1 5941  21.436  24.532   8.864
  185POPC   GL2 5942  21.449  24.557   8.864
  185POPC   C1A 5943  21.432  24.525   8.564
  185POPC   D2A 5944  21.383  24.467   8.264
  185POPC   C3A 5945  21.352  24.506   7.964
  185POPC   C4A 5946  21.358  24.503   7.664
  185POPC   C1B 5947  21.508  24.712   8.564
  185POPC   C2B 5948  21.482  24.681   8.264
  185POPC   C3B 5949  21.528  24.669   7.964
  185POPC   C4B 5950  21.518  24.707   7.664
  186POPC   NC3 5951   6.632  24.457   9.464
  186POPC   PO4 5952   6.606  24.472   9.164
  186POPC   GL1 5953   6.680  24.481   8.864
  186POPC   GL2 5954   6.624  24.637   8.864
  186POPC   C1A 5955   6.655  24.469   8.564
  186POPC   D2A 5956   6.663  24.530   8.264
  186POPC   C3A 5957   6.638  24.460   7.964
  186POPC   C4A 5958   6.597  24.479   7.664
  186POPC   C1B 5959   6.568  24.754   8.564
  186POPC   C2B 5960   6.500  24.751   8.264
  186POPC   C3B 5961   6.565  24.760   7.964
  186POPC   C4B 5962   6.554  24.735   7.664
  187POPC   NC3 5963  39.268  29.144   9.464
  187POPC   PO4 5964  39.254  29.104   9.164
  187POPC   GL1 5965  39.218  29.098   8.864
  187POPC   GL2 5966  39.241  28.990   8.864
  187POPC   C1A 5967  39.248  29.158   8.564
  187POPC   D2A 5968  39.236  29.161   8.264
  187POPC   C3A 5969  39.255  29.149   7.964
  187POPC   C4A 5970  39.236  29.111   7.664
  187POPC   C1B 5971  39.292  28.855   8.564
  187POPC   C2B 5972  39.248  28.907   8.264
  187POPC   C3B 5973  39.286  28.943   7.964
  187POPC   C4B 5974  39.288  28.906   7.664
  188POPC   NC3 5975  40.782  27.561   9.464
  188POPC   PO4 5976  40.770  27.556   9.164
  188POPC   GL1 5977  40.758  27.588   8.864
  188POPC   GL2 5978  40.718  27.683   8.864
  188POPC   C1A 5979  40.818  27.602   8.564
  188POPC   D2A 5980  40.749  27.576   8.264
  188POPC   C3A 5981  40.770  27.606   7.964
  188POPC   C4A 5982  40.799  27.623   7.664
  188POPC   C1B 5983  40.584  27.722   8.564
  188POPC   C2B 5984  40.582  27.780   8.264
  188POPC   C3B 5985  40.564  27.745   7.964
  188POPC   C4B 5986  40.623  27.698   7.664
  189POPC   NC3 5987  37.688  14.434   9.464
  189POPC   PO4 5988  37.665  14.368   9.164
  189POPC   GL1 5989  37.635  14.411   8.864
  189POPC   GL2 5990  37.840  14.371   8.864
  189POPC   C1A 5991  37.719  14.415   8.564
  189POPC   D2A 5992  37.655  14.429   8.264
  189POPC   C3A 5993  37.677  14.426   7.964
  189POPC   C4A 5994  37.653  14.406   7.664
  189POPC   C1B 5995  37.962  14.366   8.564
  189POPC   C2B 5996  37.874  14.296   8.264
  189POPC   C3B 5997  37.899  14.342   7.964
  189POPC   C4B 5998  37.917  14.304   7.664
  190POPC   NC3 5999  14.392  26.827   9.464
  190POPC   PO4 6000  14.418  26.805   9.164
  190POPC   GL1 6001  14.402  26.790   8.864
  190POPC   GL2 6002  14.487  26.823   8.864
  190POPC   C1A 6003  14.389  26.842   8.564
  190POPC   D2A 6004  14.375  26.817   8.264
  190POPC   C3A 6005  14.427  26.849   7.964
  190POPC   C4A 6006  14.376  26.867   7.664
  190POPC   C1B 6007  14.700  26.838   8.564
  190POPC   C2B 6008  14.652  26.768   8.264
  190POPC   C3B 6009  14.683  26.771   7.964
  190POPC   C4B 6010  14.659  26.776   7.664
  191POPC   NC3 6011  38.429  15.160   9.464
  191POPC   PO4 6012  38.438  15.201   9.164
  191POPC   GL1 6013  38.489  15.204   8.864
  191POPC   GL2 6014  38.600  15.190   8.864
  191POPC   C1A 6015  38.449  15.229   8.564
  191POPC   D2A 6016  38.425  15.142   8.264
  191POPC   C3A 6017  38.504  15.192   7.964
  191POPC   C4A 6018  38.414  15.138   7.664
  191POPC   C1B 6019  38.748  15.271   8.564
  191POPC   C2B 6020  38.705  15.209   8.264
  191POPC   C3B 6021  38.718  15.202   7.964
  191POPC   C4B 6022  38.656  15.243   7.664
  192POPC   NC3 6023  41.510  14.412   9.464
  192POPC   PO4 6024  41.550  14.382   9.164
  192POPC   GL1 6025  41.530  14.420   8.864
  192POPC   GL2 6026  41.671  14.527   8.864
  192POPC   C1A 6027  41.584  14.442   8.564
  192POPC   D2A 6028  41.523  14.418   8.264
  192POPC   C3A 6029  41.607  14.434   7.964
  192POPC   C4A 6030  41.529  14.405   7.664
  192POPC   C1B 6031  41.735  14.558   8.564
  192POPC   C2B 6032  41.784  14.624   8.264
  192POPC   C3B 6033  41.764  14.536   7.964
  192POPC   C4B 6034  41.753  14.621   7.664
  193POPC   NC3 6035  33.809  36.907   9.464
  193POPC   PO4 6036  33.837  36.892   9.164
  193POPC   GL1 6037  33.845  36.884   8.864
  193POPC   GL2 6038  33.863  36.860   8.864
  193POPC   C1A 6039  33.776  36.922   8.564
  193POPC   D2A 6040  33.753  36.890   8.264
  193POPC   C3A 6041  33.773  36.933   7.964
  193POPC   C4A 6042  33.793  36.894   7.664
  193POPC   C1B 6043  34.048  36.747   8.564
  193POPC   C2B 6044  33.978  36.816   8.264
  193POPC   C3B 6045  34.046  36.809   7.964
  193POPC   C4B 6046  34.063  36.739   7.664
  194POPC   NC3 6047  33.810  39.210   9.464
  194POPC   PO4 6048  33.775  39.213   9.164
  194POPC   GL1 6049  33.831  39.277   8.864
  194POPC   GL2 6050  33.690  39.322   8.864
  194POPC   C1A 6051  33.760  39.217   8.564
  194POPC   D2A 6052  33.765  39.255   8.264
  194POPC   C3A 6053  33.771  39.236   7.964
  194POPC   C4A 6054  33.822  39.212   7.664
  194POPC   C1B 6055  33.667  39.403   8.564
  194POPC   C2B 6056  33.650  39.441   8.264
  194POPC   C3B 6057  33.671  39.377   7.964
  194POPC   C4B 6058  33.641  39.462   7.664
  195POPC   NC3 6059  38.497   2.748   9.464
  195POPC   PO4 6060  38.480   2.786   9.164
  195POPC   GL1 6061  38.467   2.782   8.864
  195POPC   GL2 6062  38.429   2.822   8.864
  195POPC   C1A 6063  38.482   2.772   8.564
  195POPC   D2A 6064  38.504   2.755   8.264
  195POPC   C3A 6065  38.487   2.800   7.964
  195POPC   C4A 6066  38.501   2.773   7.664
  195POPC   C1B 6067  38.328   2.927   8.564
  195POPC   C2B 6068  38.278   2.993   8.264
  195POPC   C3B 6069  38.305   2.986   7.964
  195POPC   C4B 6070  38.369   2.979   7.664
  196POPC   NC3 6071  15.943  41.560   9.464
  196POPC   PO4 6072  16.001  41.575   9.164
  196POPC   GL1 6073  15.936  41.565   8.864
  196POPC   GL2 6074  15.828  41.581   8.864
  196POPC   C1A 6075  16.001  41.601   8.564
  196POPC   D2A 6076  15.920  41.563   8.264
  196POPC   C3A 6077  15.982  41.589   7.964
  196POPC   C4A 6078  15.955  41.536   7.664
  196POPC   C1B 6079  15.705  41.661   8.564
  196POPC   C2B 6080  15.763  41.653   8.264
  196POPC   C3B 6081  15.724  41.700   7.964
  196POPC   C4B 6082  15.758  41.690   7.664
  197POPC   NC3 6083  38.442  26.028   9.464
  197POPC   PO4 6084  38.495  26.021   9.164
  197POPC   GL1 6085  38.469  26.056   8.864
  197POPC   GL2 6086  38.397  25.950   8.864
  197POPC   C1A 6087  38.439  25.996   8.564
  197POPC   D2A 6088  38.494  26.025   8.264
  197POPC   C3A 6089  38.504  26.081   7.964
  197POPC   C4A 6090  38.409  26.001   7.664
  197POPC   C1B 6091  38.420  25.764   8.564
  197POPC   C2B 6092  38.391  25.767   8.264
  197POPC   C3B 6093  38.439  25.804   7.964
  197POPC   C4B 6094  38.403  25.831   7.664
  198POPC   NC3 6095   1.950  43.883   9.464
  198POPC   PO4 6096   1.995  43.924   9.164
  198POPC   GL1 6097   1.986  43.908   8.864
  198POPC   GL2 6098   1.834  43.886   8.864
  198POPC   C1A 6099   2.011  43.891   8.564
  198POPC   D2A 6100   1.991  43.871   8.264
  198POPC   C3A 6101   2.019  43.837   7.964
  198POPC   C4A 6102   1.968  43.846   7.664
  198POPC   C1B 6103   1.789  44.013   8.564
  198POPC   C2B 6104   1.782  43.969   8.264
  198POPC   C3B 6105   1.750  43.977   7.964
  198POPC   C4B 6106   1.730  43.972   7.664
  199POPC   NC3 6107  33.005  15.143   9.464
  199POPC   PO4 6108  32.990  15.211   9.164
  199POPC   GL1 6109  33.007  15.202   8.864
  199POPC   GL2 6110  33.166  15.166   8.864
  199POPC   C1A 6111  33.016  15.169   8.564
  199POPC   D2A 6112  33.012  15.149   8.264
  199POPC   C3A 6113  33.028  15.215   7.964
  199POPC   C4A 6114  33.046  15.152   7.664
  199POPC   C1B 6115  33.214  15.117   8.564
  199POPC   C2B 6116  33.275  15.130   8.264
  199POPC   C3B 6117  33.257  15.086   7.964
  199POPC   C4B 6118  33.295  15.135   7.664
  200POPC   NC3 6119  39.226  42.340   9.464
  200POPC   PO4 6120  39.247  42.381   9.164
  200POPC   GL1 6121  39.246  42.342   8.864
  200POPC   GL2 6122  39.333  42.388   8.864
  200POPC   C1A 6123  39.213  42.325   8.564
  200POPC   D2A 6124  39.225  42.331   8.264
  200POPC   C3A 6125  39.256  42.324   7.964
  200POPC   C4A 6126  39.242  42.286   7.664
  200POPC   C1B 6127  39.437  42.524   8.564
  200POPC   C2B 6128  39.376  42.485   8.264
  200POPC   C3B 6129  39.430  42.476   7.964
  200POPC   C4B 6130  39.377  42.483   7.664
  201POPC   NC3 6131   0.474  43.141   9.464
  201POPC   PO4 6132   0.389  43.123   9.164
  201POPC   GL1 6133   0.390  43.084   8.864
  201POPC   GL2 6134   0.563  43.161   8.864
  201POPC   C1A 6135   0.441  43.159   8.564
  201POPC   D2A 6136   0.476  43.157   8.264
  201POPC   C3A 6137   0.469  43.150   7.964
  201POPC   C4A 6138   0.414  43.149   7.664
  201POPC   C1B 6139   0.577  43.322   8.564
  201POPC   C2B 6140   0.573  43.298   8.264
  201POPC   C3B 6141   0.627  43.339   7.964
  201POPC   C4B 6142   0.563  43.273   7.664
  202POPC   NC3 6143  17.556  14.429   9.464
  202POPC   PO4 6144  17.516  14.409   9.164
  202POPC   GL1 6145  17.547  14.399   8.864
  202POPC   GL2 6146  17.602  14.387   8.864
  202POPC   C1A 6147  17.462  14.382   8.564
  202POPC   D2A 6148  17.514  14.412   8.264
  202POPC   C3A 6149  17.525  14.394   7.964
  202POPC   C4A 6150  17.467  14.387   7.664
  202POPC   C1B 6151  17.786  14.347   8.564
  202POPC   C2B 6152  17.709  14.376   8.264
  202POPC   C3B 6153  17.746  14.323   7.964
  202POPC   C4B 6154  17.703  14.307   7.664
  203POPC   NC3 6155  44.624  43.886   9.464
  203POPC   PO4 6156  44.640  43.850   9.164
  203POPC   GL1 6157  44.686  43.864   8.864
  203POPC   GL2 6158  44.782  43.915   8.864
  203POPC   C1A 6159  44.671  43.872   8.564
  203POPC   D2A 6160  44.676  43.856   8.264
  203POPC   C3A 6161  44.669  43.887   7.964
  203POPC   C4A 6162  44.641  43.859   7.664
  203POPC   C1B 6163  44.880  43.917   8.564
  203POPC   C2B 6164  44.946  43.915   8.264
  203POPC   C3B 6165  44.923  43.908   7.964
  203POPC   C4B 6166  44.945  43.855   7.664
  204POPC   NC3 6167  19.805  14.369   9.464
  204POPC   PO4 6168  19.823  14.438   9.164
  204POPC   GL1 6169  19.822  14.439   8.864
  204POPC   GL2 6170  19.675  14.441   8.864
  204POPC   C1A 6171  19.835  14.412   8.564
  204POPC   D2A 6172  19.873  14.384   8.264
  204POPC   C3A 6173  19.841  14.414   7.964
  204POPC   C4A 6174  19.788  14.379   7.664
  204POPC   C1B 6175  19.606  14.506   8.564
  204POPC   C2B 6176  19.634  14.481   8.264
  204POPC   C3B 6177  19.633  14.437   7.964
  204POPC   C4B 6178  19.583  14.456   7.664
  205POPC   NC3 6179  11.286  15.922   9.464
  205POPC   PO4 6180  11.266  15.937   9.164
  205POPC   GL1 6181  11.276  15.927   8.864
  205POPC   GL2 6182  11.456  15.960   8.864
  205POPC   C1A 6183  11.268  15.947   8.564
  205POPC   D2A 6184  11.295  15.987   8.264
  205POPC   C3A 6185  11.301  15.969   7.964
  205POPC   C4A 6186  11.283  15.996   7.664
  205POPC   C1B 6187  11.575  15.915   8.564
  205POPC   C2B 6188  11.574  15.903   8.264
  205POPC   C3B 6189  11.556  15.899   7.964
  205POPC   C4B 6190  11.586  15.899   7.664
  206POPC   NC3 6191  22.196  24.477   9.464
  206POPC   PO4 6192  22.140  24.501   9.164
  206POPC   GL1 6193  22.202  24.462   8.864
  206POPC   GL2 6194  22.185  24.362   8.864
  206POPC   C1A 6195  22.128  24.459   8.564
  206POPC   D2A 6196  22.201  24.529   8.264
  206POPC   C3A 6197  22.125  24.465   7.964
  206POPC   C4A 6198  22.203  24.465   7.664
  206POPC   C1B 6199  22.275  24.219   8.564
  206POPC   C2B 6200  22.258  24.297   8.264
  206POPC   C3B 6201  22.247  24.268   7.964
  206POPC   C4B 6202  22.237  24.209   7.664
  207POPC   NC3 6203   1.997   9.712   9.464
  207POPC   PO4 6204   2.004   9.782   9.164
  207POPC   GL1 6205   2.026   9.731   8.864
  207POPC   GL2 6206   2.021   9.854   8.864
  207POPC   C1A 6207   1.998   9.764   8.564
  207POPC   D2A 6208   2.039   9.780   8.264
  207POPC   C3A 6209   2.006   9.791   7.964
  207POPC   C4A 6210   1.959   9.772   7.664
  207POPC   C1B 6211   1.968  10.012   8.564
  207POPC   C2B 6212   2.028   9.953   8.264
  207POPC   C3B 6213   2.042   9.948   7.964
  207POPC   C4B 6214   2.045  10.044   7.664
  208POPC   NC3 6215  15.186  11.313   9.464
  208POPC   PO4 6216  15.158  11.318   9.164
  208POPC   GL1 6217  15.184  11.332   8.864
  208POPC   GL2 6218  15.145  11.444   8.864
  208POPC   C1A 6219  15.140  11.314   8.564
  208POPC   D2A 6220  15.146  11.278   8.264
  208POPC   C3A 6221  15.201  11.263   7.964
  208POPC   C4A 6222  15.171  11.316   7.664
  208POPC   C1B 6223  15.136  11.515   8.564
  208POPC   C2B 6224  15.117  11.575   8.264
  208POPC   C3B 6225  15.156  11.537   7.964
  208POPC   C4B 6226  15.114  11.526   7.664
  209POPC   NC3 6227  29.128  16.740   9.464
  209POPC   PO4 6228  29.133  16.718   9.164
  209POPC   GL1 6229  29.194  16.740   8.864
  209POPC   GL2 6230  29.058  16.825   8.864
  209POPC   C1A 6231  29.172  16.779   8.564
  209POPC   D2A 6232  29.179  16.748   8.264
  209POPC   C3A 6233  29.158  16.721   7.964
  209POPC   C4A 6234  29.115  16.773   7.664
  209POPC   C1B 6235  29.016  16.900   8.564
  209POPC   C2B 6236  29.010  16.946   8.264
  209POPC   C3B 6237  28.925  16.897   7.964
  209POPC   C4B 6238  28.925  16.865   7.664
  210POPC   NC3 6239   2.742   3.514   9.464
  210POPC   PO4 6240   2.716   3.575   9.164
  210POPC   GL1 6241   2.775   3.508   8.864
  210POPC   GL2 6242   2.765   3.383   8.864
  210POPC   C1A 6243   2.784   3.589   8.564
  210POPC   D2A 6244   2.719   3.557   8.264
  210POPC   C3A 6245   2.757   3.501   7.964
  210POPC   C4A 6246   2.762   3.591   7.664
  210POPC   C1B 6247   2.867   3.280   8.564
  210POPC   C2B 6248   2.825   3.279   8.264
  210POPC   C3B 6249   2.788   3.315   7.964
  210POPC   C4B 6250   2.798   3.284   7.664
  211POPC   NC3 6251  22.949  11.281   9.464
  211POPC   PO4 6252  22.943  11.328   9.164
  211POPC   GL1 6253  22.975  11.347   8.864
  211POPC   GL2 6254  22.969  11.165   8.864
  211POPC   C1A 6255  22.900  11.330   8.564
  211POPC   D2A 6256  22.943  11.260   8.264
  211POPC   C3A 6257  22.985  11.300   7.964
  211POPC   C4A 6258  22.916  11.261   7.664
  211POPC   C1B 6259  22.947  11.085   8.564
  211POPC   C2B 6260  22.966  11.102   8.264
  211POPC   C3B 6261  22.928  11.067   7.964
  211POPC   C4B 6262  22.932  11.018   7.664
  212POPC   NC3 6263  25.304  12.832   9.464
  212POPC   PO4 6264  25.231  12.826   9.164
  212POPC   GL1 6265  25.263  12.803   8.864
  212POPC   GL2 6266  25.156  12.725   8.864
  212POPC   C1A 6267  25.221  12.813   8.564
  212POPC   D2A 6268  25.262  12.845   8.264
  212POPC   C3A 6269  25.281  12.848   7.964
  212POPC   C4A 6270  25.236  12.877   7.664
  212POPC   C1B 6271  25.051  12.704   8.564
  212POPC   C2B 6272  25.046  12.723   8.264
  212POPC   C3B 6273  25.061  12.679   7.964
  212POPC   C4B 6274  25.056  12.729   7.664
  213POPC   NC3 6275  32.255  34.548   9.464
  213POPC   PO4 6276  32.249  34.609   9.164
  213POPC   GL1 6277  32.261  34.617   8.864
  213POPC   GL2 6278  32.221  34.719   8.864
  213POPC   C1A 6279  32.266  34.572   8.564
  213POPC   D2A 6280  32.269  34.614   8.264
  213POPC   C3A 6281  32.260  34.595   7.964
  213POPC   C4A 6282  32.249  34.545   7.664
  213POPC   C1B 6283  32.199  34.825   8.564
  213POPC   C2B 6284  32.182  34.854   8.264
  213POPC   C3B 6285  32.169  34.862   7.964
  213POPC   C4B 6286  32.187  34.833   7.664
  214POPC   NC3 6287  38.496  38.420   9.464
  214POPC   PO4 6288  38.405  38.503   9.164
  214POPC   GL1 6289  38.423  38.453   8.864
  214POPC   GL2 6290  38.401  38.364   8.864
  214POPC   C1A 6291  38.498  38.408   8.564
  214POPC   D2A 6292  38.429  38.484   8.264
  214POPC   C3A 6293  38.407  38.481   7.964
  214POPC   C4A 6294  38.455  38.492   7.664
  214POPC   C1B 6295  38.291  38.266   8.564
  214POPC   C2B 6296  38.248  38.236   8.264
  214POPC   C3B 6297  38.286  38.265   7.964
  214POPC   C4B 6298  38.271  38.285   7.664
  215POPC   NC3 6299   1.175  15.935   9.464
  215POPC   PO4 6300   1.257  15.910   9.164
  215POPC   GL1 6301   1.168  15.932   8.864
  215POPC   GL2 6302   1.061  16.019   8.864
  215POPC   C1A 6303   1.208  15.932   8.564
  215POPC   D2A 6304   1.203  16.002   8.264
  215POPC   C3A 6305   1.244  15.950   7.964
  215POPC   C4A 6306   1.209  15.959   7.664
  215POPC   C1B 6307   1.009  16.131   8.564
  215POPC   C2B 6308   0.983  16.080   8.264
  215POPC   C3B 6309   0.979  16.062   7.964
  215POPC   C4B 6310   0.982  16.059   7.664
  216POPC   NC3 6311  41.510  41.586   9.464
  216POPC   PO4 6312  41.555  41.533   9.164
  216POPC   GL1 6313  41.581  41.532   8.864
  216POPC   GL2 6314  41.705  41.597   8.864
  216POPC   C1A 6315  41.519  41.598   8.564
  216POPC   D2A 6316  41.526  41.536   8.264
  216POPC   C3A 6317  41.539  41.517   7.964
  216POPC   C4A 6318  41.538  41.539   7.664
  216POPC   C1B 6319  41.844  41.517   8.564
  216POPC   C2B 6320  41.797  41.582   8.264
  216POPC   C3B 6321  41.809  41.569   7.964
  216POPC   C4B 6322  41.830  41.603   7.664
  217POPC   NC3 6323  27.624  38.489   9.464
  217POPC   PO4 6324  27.621  38.460   9.164
  217POPC   GL1 6325  27.573  38.449   8.864
  217POPC   GL2 6326  27.468  38.455   8.864
  217POPC   C1A 6327  27.551  38.503   8.564
  217POPC   D2A 6328  27.575  38.494   8.264
  217POPC   C3A 6329  27.551  38.454   7.964
  217POPC   C4A 6330  27.620  38.446   7.664
  217POPC   C1B 6331  27.362  38.564   8.564
  217POPC   C2B 6332  27.367  38.579   8.264
  217POPC   C3B 6333  27.330  38.552   7.964
  217POPC   C4B 6334  27.332  38.597   7.664
  218POPC   NC3 6335  14.405  37.685   9.464
  218POPC   PO4 6336  14.363  37.657   9.164
  218POPC   GL1 6337  14.391  37.639   8.864
  218POPC   GL2 6338  14.414  37.784   8.864
  218POPC   C1A 6339  14.429  37.652   8.564
  218POPC   D2A 6340  14.397  37.681   8.264
  218POPC   C3A 6341  14.400  37.684   7.964
  218POPC   C4A 6342  14.449  37.664   7.664
  218POPC   C1B 6343  14.358  37.888   8.564
  218POPC   C2B 6344  14.377  37.936   8.264
  218POPC   C3B 6345  14.321  37.894   7.964
  218POPC   C4B 6346  14.383  37.950   7.664
  219POPC   NC3 6347  25.272  37.685   9.464
  219POPC   PO4 6348  25.306  37.665   9.164
  219POPC   GL1 6349  25.273  37.728   8.864
  219POPC   GL2 6350  25.164  37.824   8.864
  219POPC   C1A 6351  25.309  37.719   8.564
  219POPC   D2A 6352  25.305  37.694   8.264
  219POPC   C3A 6353  25.236  37.696   7.964
  219POPC   C4A 6354  25.287  37.711   7.664
  219POPC   C1B 6355  25.160  37.895   8.564
  219POPC   C2B 6356  25.095  37.852   8.264
  219POPC   C3B 6357  25.170  37.923   7.964
  219POPC   C4B 6358  25.092  37.915   7.664
  220POPC   NC3 6359  10.548  22.893   9.464
  220POPC   PO4 6360  10.544  22.915   9.164
  220POPC   GL1 6361  10.539  22.968   8.864
  220POPC   GL2 6362  10.435  23.000   8.864
  220POPC   C1A 6363  10.560  22.947   8.564
  220POPC   D2A 6364  10.549  22.940   8.264
  220POPC   C3A 6365  10.502  22.968   7.964
  220POPC   C4A 6366  10.543  22.936   7.664
  220POPC   C1B 6367  10.320  23.083   8.564
  220POPC   C2B 6368  10.307  23.091   8.264
  220POPC   C3B 6369  10.370  23.129   7.964
  220POPC   C4B 6370  10.324  23.146   7.664
  221POPC   NC3 6371   9.737  17.489   9.464
  221POPC   PO4 6372   9.778  17.508   9.164
  221POPC   GL1 6373   9.794  17.506   8.864
  221POPC   GL2 6374   9.675  17.652   8.864
  221POPC   C1A 6375   9.767  17.491   8.564
  221POPC   D2A 6376   9.778  17.537   8.264
  221POPC   C3A 6377   9.778  17.534   7.964
  221POPC   C4A 6378   9.720  17.487   7.664
  221POPC   C1B 6379   9.616  17.716   8.564
  221POPC   C2B 6380   9.675  17.736   8.264
  221POPC   C3B 6381   9.601  17.683   7.964
  221POPC   C4B 6382   9.631  17.700   7.664
  222POPC   NC3 6383  10.546   4.312   9.464
  222POPC   PO4 6384  10.504   4.275   9.164
  222POPC   GL1 6385  10.485   4.346   8.864
  222POPC   GL2 6386  10.652   4.393   8.864
  222POPC   C1A 6387  10.551   4.366   8.564
  222POPC   D2A 6388  10.482   4.330   8.264
  222POPC   C3A 6389  10.538   4.360   7.964
  222POPC   C4A 6390  10.529   4.317   7.664
  222POPC   C1B 6391  10.721   4.415   8.564
  222POPC   C2B 6392  10.722   4.419   8.264
  222POPC   C3B 6393  10.694   4.388   7.964
  222POPC   C4B 6394  10.724   4.486   7.664
  223POPC   NC3 6395  27.590  16.718   9.464
  223POPC   PO4 6396  27.584  16.744   9.164
  223POPC   GL1 6397  27.587  16.759   8.864
  223POPC   GL2 6398  27.481  16.685   8.864
  223POPC   C1A 6399  27.546  16.741   8.564
  223POPC   D2A 6400  27.624  16.762   8.264
  223POPC   C3A 6401  27.627  16.707   7.964
  223POPC   C4A 6402  27.581  16.736   7.664
  223POPC   C1B 6403  27.405  16.667   8.564
  223POPC   C2B 6404  27.341  16.648   8.264
  223POPC   C3B 6405  27.328  16.654   7.964
  223POPC   C4B 6406  27.363  16.626   7.664
  224POPC   NC3 6407  34.568  32.982   9.464
  224POPC   PO4 6408  34.551  32.999   9.164
  224POPC   GL1 6409  34.578  33.043   8.864
  224POPC   GL2 6410  34.611  32.870   8.864
  224POPC   C1A 6411  34.549  33.005   8.564
  224POPC   D2A 6412  34.602  33.031   8.264
  224POPC   C3A 6413  34.564  33.019   7.964
  224POPC   C4A 6414  34.537  33.020   7.664
  224POPC   C1B 6415  34.500  32.746   8.564
  224POPC   C2B 6416  34.551  32.773   8.264
  224POPC   C3B 6417  34.510  32.787   7.964
  224POPC   C4B 6418  34.529  32.817   7.664
  225POPC   NC3 6419   7.441   8.172   9.464
  225POPC   PO4 6420   7.381   8.191   9.164
  225POPC   GL1 6421   7.446   8.201   8.864
  225POPC   GL2 6422   7.358   8.289   8.864
  225POPC   C1A 6423   7.372   8.151   8.564
  225POPC   D2A 6424   7.454   8.189   8.264
  225POPC   C3A 6425   7.404   8.179   7.964
  225POPC   C4A 6426   7.467   8.205   7.664
  225POPC   C1B 6427   7.343   8.470   8.564
  225POPC   C2B 6428   7.373   8.411   8.264
  225POPC   C3B 6429   7.376   8.479   7.964
  225POPC   C4B 6430   7.421   8.472   7.664
  226POPC   NC3 6431  24.464  24.459   9.464
  226POPC   PO4 6432  24.510  24.532   9.164
  226POPC   GL1 6433  24.486  24.483   8.864
  226POPC   GL2 6434  24.483  24.349   8.864
  226POPC   C1A 6435  24.464  24.470   8.564
  226POPC   D2A 6436  24.461  24.459   8.264
  226POPC   C3A 6437  24.457  24.502   7.964
  226POPC   C4A 6438  24.490  24.509   7.664
  226POPC   C1B 6439  24.477  24.237   8.564
  226POPC   C2B 6440  24.498  24.238   8.264
  226POPC   C3B 6441  24.533  24.203   7.964
  226POPC   C4B 6442  24.451  24.235   7.664
  227POPC   NC3 6443   5.095   3.549   9.464
  227POPC   PO4 6444   5.118   3.574   9.164
  227POPC   GL1 6445   5.136   3.534   8.864
  227POPC   GL2 6446   5.194   3.630   8.864
  227POPC   C1A 6447   5.128   3.564   8.564
  227POPC   D2A 6448   5.078   3.510   8.264
  227POPC   C3A 6449   5.118   3.538   7.964
  227POPC   C4A 6450   5.059   3.522   7.664
  227POPC   C1B 6451   5.238   3.710   8.564
  227POPC   C2B 6452   5.249   3.714   8.264
  227POPC   C3B 6453   5.192   3.774   7.964
  227POPC   C4B 6454   5.245   3.728   7.664
  228POPC   NC3 6455  15.948  25.992   9.464
  228POPC   PO4 6456  15.914  26.091   9.164
  228POPC   GL1 6457  15.919  26.045   8.864
  228POPC   GL2 6458  16.076  26.119   8.864
  228POPC   C1A 6459  15.961  26.068   8.564
  228POPC   D2A 6460  15.948  25.992   8.264
  228POPC   C3A 6461  15.975  26.022   7.964
  228POPC   C4A 6462  15.965  26.000   7.664
  228POPC   C1B 6463  16.120  26.228   8.564
  228POPC   C2B 6464  16.116  26.241   8.264
  228POPC   C3B 6465  16.140  26.198   7.964
  228POPC   C4B 6466  16.106  26.175   7.664
  229POPC   NC3 6467   3.533   0.443   9.464
  229POPC   PO4 6468   3.587   0.391   9.164
  229POPC   GL1 6469   3.549   0.424   8.864
  229POPC   GL2 6470   3.456   0.356   8.864
  229POPC   C1A 6471   3.519   0.466   8.564
  229POPC   D2A 6472   3.498   0.476   8.264
  229POPC   C3A 6473   3.582   0.438   7.964
  229POPC   C4A 6474   3.578   0.455   7.664
  229POPC   C1B 6475   3.322   0.314   8.564
  229POPC   C2B 6476   3.314   0.260   8.264
  229POPC   C3B 6477   3.308   0.334   7.964
  229POPC   C4B 6478   3.299   0.290   7.664
  230POPC   NC3 6479  15.202  19.797   9.464
  230POPC   PO4 6480  15.195  19.800   9.164
  230POPC   GL1 6481  15.153  19.797   8.864
  230POPC   GL2 6482  15.186  19.705   8.864
  230POPC   C1A 6483  15.141  19.799   8.564
  230POPC   D2A 6484  15.221  19.824   8.264
  230POPC   C3A 6485  15.140  19.859   7.964
  230POPC   C4A 6486  15.152  19.847   7.664
  230POPC   C1B 6487  15.215  19.604   8.564
  230POPC   C2B 6488  15.176  19.555   8.264
  230POPC   C3B 6489  15.177  19.563   7.964
  230POPC   C4B 6490  15.227  19.564   7.664
  231POPC   NC3 6491  18.322  15.937   9.464
  231POPC   PO4 6492  18.318  15.975   9.164
  231POPC   GL1 6493  18.272  15.932   8.864
  231POPC   GL2 6494  18.329  15.867   8.864
  231POPC   C1A 6495  18.241  15.933   8.564
  231POPC   D2A 6496  18.260  15.920   8.264
  231POPC   C3A 6497  18.289  15.954   7.964
  231POPC   C4A 6498  18.292  15.940   7.664
  231POPC   C1B 6499  18.481  15.814   8.564
  231POPC   C2B 6500  18.467  15.825   8.264
  231POPC   C3B 6501  18.448  15.770   7.964
  231POPC   C4B 6502  18.475  15.764   7.664
  232POPC   NC3 6503  39.191  22.138   9.464
  232POPC   PO4 6504  39.188  22.141   9.164
  232POPC   GL1 6505  39.280  22.152   8.864
  232POPC   GL2 6506  39.309  22.245   8.864
  232POPC   C1A 6507  39.240  22.152   8.564
  232POPC   D2A 6508  39.250  22.121   8.264
  232POPC   C3A 6509  39.241  22.136   7.964
  232POPC   C4A 6510  39.230  22.197   7.664
  232POPC   C1B 6511  39.325  22.420   8.564
  232POPC   C2B 6512  39.274  22.422   8.264
  232POPC   C3B 6513  39.279  22.397   7.964
  232POPC   C4B 6514  39.341  22.401   7.664
  233POPC   NC3 6515  26.865  20.641   9.464
  233POPC   PO4 6516  26.834  20.605   9.164
  233POPC   GL1 6517  26.848  20.626   8.864
  233POPC   GL2 6518  26.691  20.575   8.864
  233POPC   C1A 6519  26.858  20.628   8.564
  233POPC   D2A 6520  26.768  20.619   8.264
  233POPC   C3A 6521  26.793  20.621   7.964
  233POPC   C4A 6522  26.784  20.634   7.664
  233POPC   C1B 6523  26.577  20.540   8.564
  233POPC   C2B 6524  26.554  20.580   8.264
  233POPC   C3B 6525  26.621  20.550   7.964
  233POPC   C4B 6526  26.603  20.604   7.664
  234POPC   NC3 6527  42.335   8.238   9.464
  234POPC   PO4 6528  42.299   8.224   9.164
  234POPC   GL1 6529  42.318   8.241   8.864
  234POPC   GL2 6530  42.243   8.237   8.864
  234POPC   C1A 6531  42.310   8.197   8.564
  234POPC   D2A 6532  42.350   8.168   8.264
  234POPC   C3A 6533  42.381   8.178   7.964
  234POPC   C4A 6534  42.293   8.184   7.664
  234POPC   C1B 6535  42.079   8.275   8.564
  234POPC   C2B 6536  42.124   8.284   8.264
  234POPC   C3B 6537  42.079   8.308   7.964
  234POPC   C4B 6538  42.099   8.289   7.664
  235POPC   NC3 6539  40.735  36.163   9.464
  235POPC   PO4 6540  40.812  36.089   9.164
  235POPC   GL1 6541  40.758  36.142   8.864
  235POPC   GL2 6542  40.721  36.011   8.864
  235POPC   C1A 6543  40.807  36.091   8.564
  235POPC   D2A 6544  40.777  36.149   8.264
  235POPC   C3A 6545  40.762  36.094   7.964
  235POPC   C4A 6546  40.741  36.171   7.664
  235POPC   C1B 6547  40.729  35.860   8.564
  235POPC   C2B 6548  40.684  35.894   8.264
  235POPC   C3B 6549  40.688  35.895   7.964
  235POPC   C4B 6550  40.703  35.929   7.664
  236POPC   NC3 6551  17.540   1.170   9.464
  236POPC   PO4 6552  17.491   1.188   9.164
  236POPC   GL1 6553  17.501   1.227   8.864
  236POPC   GL2 6554  17.412   1.192   8.864
  236POPC   C1A 6555  17.517   1.192   8.564
  236POPC   D2A 6556  17.498   1.224   8.264
  236POPC   C3A 6557  17.481   1.195   7.964
  236POPC   C4A 6558  17.530   1.168   7.664
  236POPC   C1B 6559  17.315   1.152   8.564
  236POPC   C2B 6560  17.332   1.122   8.264
  236POPC   C3B 6561  17.240   1.151   7.964
  236POPC   C4B 6562  17.250   1.074   7.664
  237POPC   NC3 6563   1.243  16.723   9.464
  237POPC   PO4 6564   1.185  16.711   9.164
  237POPC   GL1 6565   1.254  16.724   8.864
  237POPC   GL2 6566   1.216  16.887   8.864
  237POPC   C1A 6567   1.175  16.693   8.564
  237POPC   D2A 6568   1.193  16.726   8.264
  237POPC   C3A 6569   1.238  16.756   7.964
  237POPC   C4A 6570   1.226  16.777   7.664
  237POPC   C1B 6571   1.190  16.968   8.564
  237POPC   C2B 6572   1.143  16.945   8.264
  237POPC   C3B 6573   1.162  16.971   7.964
  237POPC   C4B 6574   1.203  16.993   7.664
  238POPC   NC3 6575   2.015   7.438   9.464
  238POPC   PO4 6576   1.969   7.376   9.164
  238POPC   GL1 6577   1.985   7.377   8.864
  238POPC   GL2 6578   2.140   7.382   8.864
  238POPC   C1A 6579   1.975   7.456   8.564
  238POPC   D2A 6580   1.968   7.397   8.264
  238POPC   C3A 6581   2.013   7.410   7.964
  238POPC   C4A 6582   1.946   7.382   7.664
  238POPC   C1B 6583   2.243   7.445   8.564
  238POPC   C2B 6584   2.214   7.412   8.264
  238POPC   C3B 6585   2.207   7.387   7.964
  238POPC   C4B 6586   2.196   7.430   7.664
  239POPC   NC3 6587  36.157  12.850   9.464
  239POPC   PO4 6588  36.160  12.833   9.164
  239POPC   GL1 6589  36.146  12.820   8.864
  239POPC   GL2 6590  36.060  12.751   8.864
  239POPC   C1A 6591  36.135  12.847   8.564
  239POPC   D2A 6592  36.141  12.854   8.264
  239POPC   C3A 6593  36.170  12.872   7.964
  239POPC   C4A 6594  36.132  12.883   7.664
  239POPC   C1B 6595  36.044  12.626   8.564
  239POPC   C2B 6596  36.034  12.658   8.264
  239POPC   C3B 6597  36.025  12.647   7.964
  239POPC   C4B 6598  36.053  12.631   7.664
  240POPC   NC3 6599  26.064  30.691   9.464
  240POPC   PO4 6600  26.050  30.656   9.164
  240POPC   GL1 6601  26.016  30.686   8.864
  240POPC   GL2 6602  25.943  30.779   8.864
  240POPC   C1A 6603  26.049  30.743   8.564
  240POPC   D2A 6604  26.022  30.672   8.264
  240POPC   C3A 6605  26.017  30.654   7.964
  240POPC   C4A 6606  26.017  30.731   7.664
  240POPC   C1B 6607  25.873  30.890   8.564
  240POPC   C2B 6608  25.869  30.884   8.264
  240POPC   C3B 6609  25.875  30.847   7.964
  240POPC   C4B 6610  25.849  30.864   7.664
  241POPC   NC3 6611  25.272  19.083   9.464
  241POPC   PO4 6612  25.285  19.108   9.164
  241POPC   GL1 6613  25.315  19.071   8.864
  241POPC   GL2 6614  25.321  18.988   8.864
  241POPC   C1A 6615  25.296  19.080   8.564
  241POPC   D2A 6616  25.221  19.026   8.264
  241POPC   C3A 6617  25.292  19.066   7.964
  241POPC   C4A 6618  25.295  19.080   7.664
  241POPC   C1B 6619  25.352  18.804   8.564
  241POPC   C2B 6620  25.382  18.801   8.264
  241POPC   C3B 6621  25.406  18.828   7.964
  241POPC   C4B 6622  25.371  18.865   7.664
  242POPC   NC3 6623   6.677  15.919   9.464
  242POPC   PO4 6624   6.622  15.937   9.164
  242POPC   GL1 6625   6.689  15.907   8.864
  242POPC   GL2 6626   6.603  15.820   8.864
  242POPC   C1A 6627   6.647  15.960   8.564
  242POPC   D2A 6628   6.654  15.962   8.264
  242POPC   C3A 6629   6.643  15.913   7.964
  242POPC   C4A 6630   6.596  15.955   7.664
  242POPC   C1B 6631   6.522  15.748   8.564
  242POPC   C2B 6632   6.495  15.784   8.264
  242POPC   C3B 6633   6.506  15.722   7.964
  242POPC   C4B 6634   6.506  15.789   7.664
  243POPC   NC3 6635  10.528  19.041   9.464
  243POPC   PO4 6636  10.544  19.037   9.164
  243POPC   GL1 6637  10.539  19.067   8.864
  243POPC   GL2 6638  10.440  18.957   8.864
  243POPC   C1A 6639  10.542  19.092   8.564
  243POPC   D2A 6640  10.563  19.056   8.264
  243POPC   C3A 6641  10.524  19.087   7.964
  243POPC   C4A 6642  10.514  19.047   7.664
  243POPC   C1B 6643  10.434  18.843   8.564
  243POPC   C2B 6644  10.429  18.846   8.264
  243POPC   C3B 6645  10.443  18.834   7.964
  243POPC   C4B 6646  10.440  18.836   7.664
  244POPC   NC3 6647   0.458   1.943   9.464
  244POPC   PO4 6648   0.475   1.999   9.164
  244POPC   GL1 6649   0.456   2.009   8.864
  244POPC   GL2 6650   0.522   2.094   8.864
  244POPC   C1A 6651   0.422   1.985   8.564
  244POPC   D2A 6652   0.420   2.013   8.264
  244POPC   C3A 6653   0.447   2.030   7.964
  244POPC   C4A 6654   0.456   1.999   7.664
  244POPC   C1B 6655   0.527   2.237   8.564
  244POPC   C2B 6656   0.547   2.178   8.264
  244POPC   C3B 6657   0.581   2.245   7.964
  244POPC   C4B 6658   0.507   2.251   7.664
  245POPC   NC3 6659  14.410  40.762   9.464
  245POPC   PO4 6660  14.354  40.747   9.164
  245POPC   GL1 6661  14.389  40.802   8.864
  245POPC   GL2 6662  14.292  40.792   8.864
  245POPC   C1A 6663  14.450  40.791   8.564
  245POPC   D2A 6664  14.446  40.779   8.264
  245POPC   C3A 6665  14.369  40.761   7.964
  245POPC   C4A 6666  14.422  40.795   7.664
  245POPC   C1B 6667  14.155  40.903   8.564
  245POPC   C2B 6668  14.185  40.868   8.264
  245POPC   C3B 6669  14.174  40.887   7.964
  245POPC   C4B 6670  14.218  40.899   7.664
  246POPC   NC3 6671  24.514  17.540   9.464
  246POPC   PO4 6672  24.442  17.515   9.164
  246POPC   GL1 6673  24.482  17.548   8.864
  246POPC   GL2 6674  24.630  17.542   8.864
  246POPC   C1A 6675  24.501  17.460   8.564
  246POPC   D2A 6676  24.474  17.475   8.264
  246POPC   C3A 6677  24.529  17.468   7.964
  246POPC   C4A 6678  24.474  17.530   7.664
  246POPC   C1B 6679  24.761  17.622   8.564
  246POPC   C2B 6680  24.704  17.653   8.264
  246POPC   C3B 6681  24.717  17.664   7.964
  246POPC   C4B 6682  24.740  17.607   7.664
  247POPC   NC3 6683  40.755  20.646   9.464
  247POPC   PO4 6684  40.773  20.658   9.164
  247POPC   GL1 6685  40.825  20.629   8.864
  247POPC   GL2 6686  40.804  20.501   8.864
  247POPC   C1A 6687  40.743  20.644   8.564
  247POPC   D2A 6688  40.825  20.565   8.264
  247POPC   C3A 6689  40.827  20.654   7.964
  247POPC   C4A 6690  40.798  20.612   7.664
  247POPC   C1B 6691  40.790  20.373   8.564
  247POPC   C2B 6692  40.809  20.392   8.264
  247POPC   C3B 6693  40.744  20.380   7.964
  247POPC   C4B 6694  40.742  20.390   7.664
  248POPC   NC3 6695  29.113  42.341   9.464
  248POPC   PO4 6696  29.100  42.310   9.164
  248POPC   GL1 6697  29.163  42.300   8.864
  248POPC   GL2 6698  29.298  42.320   8.864
  248POPC   C1A 6699  29.145  42.349   8.564
  248POPC   D2A 6700  29.184  42.351   8.264
  248POPC   C3A 6701  29.192  42.345   7.964
  248POPC   C4A 6702  29.132  42.365   7.664
  248POPC   C1B 6703  29.435  42.226   8.564
  248POPC   C2B 6704  29.347  42.280   8.264
  248POPC   C3B 6705  29.386  42.306   7.964
  248POPC   C4B 6706  29.369  42.254   7.664
  249POPC   NC3 6707  20.579   2.735   9.464
  249POPC   PO4 6708  20.577   2.772   9.164
  249POPC   GL1 6709  20.627   2.742   8.864
  249POPC   GL2 6710  20.739   2.795   8.864
  249POPC   C1A 6711  20.601   2.738   8.564
  249POPC   D2A 6712  20.626   2.788   8.264
  249POPC   C3A 6713  20.570   2.776   7.964
  249POPC   C4A 6714  20.618   2.740   7.664
  249POPC   C1B 6715  20.775   2.968   8.564
  249POPC   C2B 6716  20.823   2.914   8.264
  249POPC   C3B 6717  20.779   2.874   7.964
  249POPC   C4B 6718  20.791   2.879   7.664
  250POPC   NC3 6719  28.326  42.285   9.464
  250POPC   PO4 6720  28.332  42.351   9.164
  250POPC   GL1 6721  28.340  42.287   8.864
  250POPC   GL2 6722  28.448  42.389   8.864
  250POPC   C1A 6723  28.323  42.348   8.564
  250POPC   D2A 6724  28.368  42.370   8.264
  250POPC   C3A 6725  28.350  42.291   7.964
  250POPC   C4A 6726  28.335  42.302   7.664
  250POPC   C1B 6727  28.524  42.475   8.564
  250POPC   C2B 6728  28.531  42.451   8.264
  250POPC   C3B 6729  28.554  42.532   7.964
  250POPC   C4B 6730  28.601  42.451   7.664
  251POPC   NC3 6731  28.345  31.456   9.464
  251POPC   PO4 6732  28.325  31.477   9.164
  251POPC   GL1 6733  28.368  31.470   8.864
  251POPC   GL2 6734  28.242  31.524   8.864
  251POPC   C1A 6735  28.395  31.497   8.564
  251POPC   D2A 6736  28.377  31.468   8.264
  251POPC   C3A 6737  28.328  31.460   7.964
  251POPC   C4A 6738  28.351  31.487   7.664
  251POPC   C1B 6739  28.143  31.588   8.564
  251POPC   C2B 6740  28.181  31.546   8.264
  251POPC   C3B 6741  28.153  31.604   7.964
  251POPC   C4B 6742  28.189  31.615   7.664
  252POPC   NC3 6743  15.999  30.689   9.464
  252POPC   PO4 6744  15.972  30.654   9.164
  252POPC   GL1 6745  15.969  30.726   8.864
  252POPC   GL2 6746  16.003  30.834   8.864
  252POPC   C1A 6747  15.919  30.671   8.564
  252POPC   D2A 6748  15.983  30.728   8.264
  252POPC   C3A 6749  15.959  30.730   7.964
  252POPC   C4A 6750  15.995  30.663   7.664
  252POPC   C1B 6751  16.086  30.901   8.564
  252POPC   C2B 6752  16.041  30.971   8.264
  252POPC   C3B 6753  16.029  30.957   7.964
  252POPC   C4B 6754  16.080  30.901   7.664
  253POPC   NC3 6755  44.696  39.232   9.464
  253POPC   PO4 6756  44.627  39.203   9.164
  253POPC   GL1 6757  44.705  39.201   8.864
  253POPC   GL2 6758  44.727  39.282   8.864
  253POPC   C1A 6759  44.700  39.278   8.564
  253POPC   D2A 6760  44.682  39.259   8.264
  253POPC   C3A 6761  44.662  39.238   7.964
  253POPC   C4A 6762  44.642  39.194   7.664
  253POPC   C1B 6763  44.832  39.332   8.564
  253POPC   C2B 6764  44.850  39.388   8.264
  253POPC   C3B 6765  44.909  39.336   7.964
  253POPC   C4B 6766  44.818  39.408   7.664
  254POPC   NC3 6767  22.967  30.746   9.464
  254POPC   PO4 6768  22.900  30.670   9.164
  254POPC   GL1 6769  22.910  30.702   8.864
  254POPC   GL2 6770  22.976  30.836   8.864
  254POPC   C1A 6771  22.907  30.686   8.564
  254POPC   D2A 6772  22.976  30.693   8.264
  254POPC   C3A 6773  22.952  30.705   7.964
  254POPC   C4A 6774  22.947  30.703   7.664
  254POPC   C1B 6775  22.947  30.983   8.564
  254POPC   C2B 6776  22.953  30.914   8.264
  254POPC   C3B 6777  22.924  30.974   7.964
  254POPC   C4B 6778  22.913  30.971   7.664
  255POPC   NC3 6779   7.376  21.370   9.464
  255POPC   PO4 6780   7.426  21.345   9.164
  255POPC   GL1 6781   7.455  21.404   8.864
  255POPC   GL2 6782   7.293  21.281   8.864
  255POPC   C1A 6783   7.386  21.395   8.564
  255POPC   D2A 6784   7.412  21.339   8.264
  255POPC   C3A 6785   7.407  21.380   7.964
  255POPC   C4A 6786   7.466  21.433   7.664
  255POPC   C1B 6787   7.246  21.228   8.564
  255POPC   C2B 6788   7.286  21.227   8.264
  255POPC   C3B 6789   7.250  21.175   7.964
  255POPC   C4B 6790   7.203  21.175   7.664
  256POPC   NC3 6791  33.756  15.132   9.464
  256POPC   PO4 6792  33.750  15.211   9.164
  256POPC   GL1 6793  33.792  15.212   8.864
  256POPC   GL2 6794  33.908  15.127   8.864
  256POPC   C1A 6795  33.825  15.194   8.564
  256POPC   D2A 6796  33.786  15.169   8.264
  256POPC   C3A 6797  33.805  15.133   7.964
  256POPC   C4A 6798  33.798  15.162   7.664
  256POPC   C1B 6799  34.034  14.998   8.564
  256POPC   C2B 6800  33.978  15.057   8.264
  256POPC   C3B 6801  34.037  15.029   7.964
  256POPC   C4B 6802  34.008  15.050   7.664
  257POPC   NC3 6803  41.586  34.601   9.464
  257POPC   PO4 6804  41.530  34.581   9.164
  257POPC   GL1 6805  41.561  34.547   8.864
  257POPC   GL2 6806  41.428  34.517   8.864
  257POPC   C1A 6807  41.517  34.614   8.564
  257POPC   D2A 6808  41.570  34.615   8.264
  257POPC   C3A 6809  41.536  34.610   7.964
  257POPC   C4A 6810  41.539  34.602   7.664
  257POPC   C1B 6811  41.301  34.455   8.564
  257POPC   C2B 6812  41.385  34.423   8.264
  257POPC   C3B 6813  41.340  34.403   7.964
  257POPC   C4B 6814  41.364  34.468   7.664
  258POPC   NC3 6815   3.554  35.324   9.464
  258POPC   PO4 6816   3.493  35.377   9.164
  258POPC   GL1 6817   3.506  35.319   8.864
  258POPC   GL2 6818   3.681  35.303   8.864
  258POPC   C1A 6819   3.542  35.357   8.564
  258POPC   D2A 6820   3.505  35.329   8.264
  258POPC   C3A 6821   3.572  35.397   7.964
  258POPC   C4A 6822   3.508  35.312   7.664
  258POPC   C1B 6823   3.767  35.310   8.564
  258POPC   C2B 6824   3.754  35.350   8.264
  258POPC   C3B 6825   3.756  35.336   7.964
  258POPC   C4B 6826   3.797  35.348   7.664
  259POPC   NC3 6827  10.525  23.699   9.464
  259POPC   PO4 6828  10.566  23.715   9.164
  259POPC   GL1 6829  10.545  23.680   8.864
  259POPC   GL2 6830  10.593  23.701   8.864
  259POPC   C1A 6831  10.537  23.672   8.564
  259POPC   D2A 6832  10.547  23.708   8.264
  259POPC   C3A 6833  10.550  23.746   7.964
  259POPC   C4A 6834  10.535  23.761   7.664
  259POPC   C1B 6835  10.797  23.585   8.564
  259POPC   C2B 6836  10.740  23.575   8.264
  259POPC   C3B 6837  10.795  23.646   7.964
  259POPC   C4B 6838  10.767  23.590   7.664
  260POPC   NC3 6839  22.203  19.010   9.464
  260POPC   PO4 6840  22.127  19.095   9.164
  260POPC   GL1 6841  22.136  19.019   8.864
  260POPC   GL2 6842  22.089  18.934   8.864
  260POPC   C1A 6843  22.169  19.031   8.564
  260POPC   D2A 6844  22.136  19.079   8.264
  260POPC   C3A 6845  22.203  19.045   7.964
  260POPC   C4A 6846  22.171  19.009   7.664
  260POPC   C1B 6847  22.092  18.839   8.564
  260POPC   C2B 6848  22.083  18.861   8.264
  260POPC   C3B 6849  22.080  18.806   7.964
  260POPC   C4B 6850  22.073  18.768   7.664
  261POPC   NC3 6851  24.440  31.462   9.464
  261POPC   PO4 6852  24.538  31.474   9.164
  261POPC   GL1 6853  24.495  31.521   8.864
  261POPC   GL2 6854  24.632  31.401   8.864
  261POPC   C1A 6855  24.492  31.467   8.564
  261POPC   D2A 6856  24.523  31.433   8.264
  261POPC   C3A 6857  24.499  31.520   7.964
  261POPC   C4A 6858  24.527  31.444   7.664
  261POPC   C1B 6859  24.674  31.314   8.564
  261POPC   C2B 6860  24.734  31.366   8.264
  261POPC   C3B 6861  24.702  31.383   7.964
  261POPC   C4B 6862  24.685  31.334   7.664
  262POPC   NC3 6863  22.893  22.152   9.464
  262POPC   PO4 6864  22.983  22.132   9.164
  262POPC   GL1 6865  22.899  22.165   8.864
  262POPC   GL2 6866  22.887  22.244   8.864
  262POPC   C1A 6867  22.904  22.159   8.564
  262POPC   D2A 6868  22.941  22.134   8.264
  262POPC   C3A 6869  22.895  22.134   7.964
  262POPC   C4A 6870  22.973  22.127   7.664
  262POPC   C1B 6871  22.833  22.375   8.564
  262POPC   C2B 6872  22.794  22.337   8.264
  262POPC   C3B 6873  22.841  22.429   7.964
  262POPC   C4B 6874  22.824  22.375   7.664
  263POPC   NC3 6875  21.406  40.018   9.464
  263POPC   PO4 6876  21.425  40.026   9.164
  263POPC   GL1 6877  21.400  39.958   8.864
  263POPC   GL2 6878  21.536  40.022   8.864
  263POPC   C1A 6879  21.376  39.981   8.564
  263POPC   D2A 6880  21.360  39.957   8.264
  263POPC   C3A 6881  21.400  39.982   7.964
  263POPC   C4A 6882  21.356  39.961   7.664
  263POPC   C1B 6883  21.638  40.090   8.564
  263POPC   C2B 6884  21.601  40.094   8.264
  263POPC   C3B 6885  21.624  40.053   7.964
  263POPC   C4B 6886  21.631  40.120   7.664
  264POPC   NC3 6887  19.022  44.698   9.464
  264POPC   PO4 6888  19.043  44.644   9.164
  264POPC   GL1 6889  19.037  44.627   8.864
  264POPC   GL2 6890  18.952  44.759   8.864
  264POPC   C1A 6891  19.103  44.641   8.564
  264POPC   D2A 6892  19.040  44.672   8.264
  264POPC   C3A 6893  19.097  44.618   7.964
  264POPC   C4A 6894  19.059  44.654   7.664
  264POPC   C1B 6895  18.831  44.765   8.564
  264POPC   C2B 6896  18.820  44.838   8.264
  264POPC   C3B 6897  18.809  44.813   7.964
  264POPC   C4B 6898  18.875  44.771   7.664
  265POPC   NC3 6899  20.588  20.621   9.464
  265POPC   PO4 6900  20.592  20.598   9.164
  265POPC   GL1 6901  20.615  20.617   8.864
  265POPC   GL2 6902  20.658  20.705   8.864
  265POPC   C1A 6903  20.611  20.604   8.564
  265POPC   D2A 6904  20.655  20.655   8.264
  265POPC   C3A 6905  20.603  20.566   7.964
  265POPC   C4A 6906  20.572  20.581   7.664
  265POPC   C1B 6907  20.629  20.851   8.564
  265POPC   C2B 6908  20.626  20.870   8.264
  265POPC   C3B 6909  20.667  20.835   7.964
  265POPC   C4B 6910  20.682  20.850   7.664
  266POPC   NC3 6911  13.626  34.619   9.464
  266POPC   PO4 6912  13.648  34.577   9.164
  266POPC   GL1 6913  13.625  34.529   8.864
  266POPC   GL2 6914  13.536  34.711   8.864
  266POPC   C1A 6915  13.589  34.618   8.564
  266POPC   D2A 6916  13.628  34.540   8.264
  266POPC   C3A 6917  13.659  34.620   7.964
  266POPC   C4A 6918  13.623  34.608   7.664
  266POPC   C1B 6919  13.440  34.765   8.564
  266POPC   C2B 6920  13.441  34.730   8.264
  266POPC   C3B 6921  13.468  34.735   7.964
  266POPC   C4B 6922  13.439  34.779   7.664
  267POPC   NC3 6923  29.928   6.628   9.464
  267POPC   PO4 6924  29.912   6.608   9.164
  267POPC   GL1 6925  29.924   6.670   8.864
  267POPC   GL2 6926  29.759   6.623   8.864
  267POPC   C1A 6927  29.970   6.597   8.564
  267POPC   D2A 6928  29.898   6.633   8.264
  267POPC   C3A 6929  29.967   6.678   7.964
  267POPC   C4A 6930  29.958   6.683   7.664
  267POPC   C1B 6931  29.670   6.554   8.564
  267POPC   C2B 6932  29.633   6.581   8.264
  267POPC   C3B 6933  29.709   6.638   7.964
  267POPC   C4B 6934  29.720   6.552   7.664
  268POPC   NC3 6935   7.405  39.240   9.464
  268POPC   PO4 6936   7.422  39.267   9.164
  268POPC   GL1 6937   7.397  39.189   8.864
  268POPC   GL2 6938   7.446  39.115   8.864
  268POPC   C1A 6939   7.436  39.271   8.564
  268POPC   D2A 6940   7.437  39.227   8.264
  268POPC   C3A 6941   7.470  39.263   7.964
  268POPC   C4A 6942   7.457  39.198   7.664
  268POPC   C1B 6943   7.572  38.997   8.564
  268POPC   C2B 6944   7.548  38.993   8.264
  268POPC   C3B 6945   7.577  38.975   7.964
  268POPC   C4B 6946   7.545  39.046   7.664
  269POPC   NC3 6947   8.154  18.242   9.464
  269POPC   PO4 6948   8.177  18.289   9.164
  269POPC   GL1 6949   8.173  18.246   8.864
  269POPC   GL2 6950   8.054  18.305   8.864
  269POPC   C1A 6951   8.224  18.257   8.564
  269POPC   D2A 6952   8.169  18.269   8.264
  269POPC   C3A 6953   8.205  18.239   7.964
  269POPC   C4A 6954   8.209  18.234   7.664
  269POPC   C1B 6955   7.948  18.443   8.564
  269POPC   C2B 6956   7.956  18.420   8.264
  269POPC   C3B 6957   8.002  18.401   7.964
  269POPC   C4B 6958   7.997  18.429   7.664
  270POPC   NC3 6959  17.480  42.310   9.464
  270POPC   PO4 6960  17.467  42.370   9.164
  270POPC   GL1 6961  17.518  42.378   8.864
  270POPC   GL2 6962  17.366  42.278   8.864
  270POPC   C1A 6963  17.532  42.286   8.564
  270POPC   D2A 6964  17.543  42.325   8.264
  270POPC   C3A 6965  17.510  42.381   7.964
  270POPC   C4A 6966  17.470  42.328   7.664
  270POPC   C1B 6967  17.264  42.268   8.564
  270POPC   C2B 6968  17.320  42.231   8.264
  270POPC   C3B 6969  17.248  42.189   7.964
  270POPC   C4B 6970  17.240  42.248   7.664
  271POPC   NC3 6971   9.730  12.870   9.464
  271POPC   PO4 6972   9.787  12.858   9.164
  271POPC   GL1 6973   9.746  12.864   8.864
  271POPC   GL2 6974   9.601  12.865   8.864
  271POPC   C1A 6975   9.793  12.834   8.564
  271POPC   D2A 6976   9.767  12.854   8.264
  271POPC   C3A 6977   9.718  12.856   7.964
  271POPC   C4A 6978   9.769  12.832   7.664
  271POPC   C1B 6979   9.480  12.994   8.564
  271POPC   C2B 6980   9.539  12.968   8.264
  271POPC   C3B 6981   9.470  12.937   7.964
  271POPC   C4B 6982   9.481  12.906   7.664
  272POPC   NC3 6983  29.157   1.989   9.464
  272POPC   PO4 6984  29.130   1.981   9.164
  272POPC   GL1 6985  29.112   2.020   8.864
  272POPC   GL2 6986  29.042   2.068   8.864
  272POPC   C1A 6987  29.143   1.968   8.564
  272POPC   D2A 6988  29.177   2.038   8.264
  272POPC   C3A 6989  29.142   2.007   7.964
  272POPC   C4A 6990  29.190   1.965   7.664
  272POPC   C1B 6991  28.881   2.100   8.564
  272POPC   C2B 6992  28.924   2.044   8.264
  272POPC   C3B 6993  28.950   2.039   7.964
  272POPC   C4B 6994  28.946   2.052   7.664
  273POPC   NC3 6995  16.685  29.943   9.464
  273POPC   PO4 6996  16.742  29.936   9.164
  273POPC   GL1 6997  16.765  29.950   8.864
  273POPC   GL2 6998  16.852  29.861   8.864
  273POPC   C1A 6999  16.734  29.932   8.564
  273POPC   D2A 7000  16.755  29.968   8.264
  273POPC   C3A 7001  16.760  29.890   7.964
  273POPC   C4A 7002  16.762  29.887   7.664
  273POPC   C1B 7003  16.984  29.842   8.564
  273POPC   C2B 7004  16.942  29.856   8.264
  273POPC   C3B 7005  16.947  29.851   7.964
  273POPC   C4B 7006  17.020  29.807   7.664
  274POPC   NC3 7007  36.138  21.394   9.464
  274POPC   PO4 7008  36.138  21.380   9.164
  274POPC   GL1 7009  36.110  21.407   8.864
  274POPC   GL2 7010  36.222  21.444   8.864
  274POPC   C1A 7011  36.170  21.376   8.564
  274POPC   D2A 7012  36.113  21.382   8.264
  274POPC   C3A 7013  36.174  21.373   7.964
  274POPC   C4A 7014  36.165  21.347   7.664
  274POPC   C1B 7015  36.279  21.529   8.564
  274POPC   C2B 7016  36.301  21.555   8.264
  274POPC   C3B 7017  36.295  21.526   7.964
  274POPC   C4B 7018  36.344  21.570   7.664
  275POPC   NC3 7019  13.588  29.913   9.464
  275POPC   PO4 7020  13.670  29.946   9.164
  275POPC   GL1 7021  13.612  29.900   8.864
  275POPC   GL2 7022  13.656  30.078   8.864
  275POPC   C1A 7023  13.608  29.969   8.564
  275POPC   D2A 7024  13.584  29.923   8.264
  275POPC   C3A 7025  13.655  29.970   7.964
  275POPC   C4A 7026  13.582  29.924   7.664
  275POPC   C1B 7027  13.664  30.176   8.564
  275POPC   C2B 7028  13.624  30.140   8.264
  275POPC   C3B 7029  13.707  30.136   7.964
  275POPC   C4B 7030  13.647  30.181   7.664
  276POPC   NC3 7031  35.377   0.419   9.464
  276POPC   PO4 7032  35.387   0.401   9.164
  276POPC   GL1 7033  35.360   0.395   8.864
  276POPC   GL2 7034  35.285   0.385   8.864
  276POPC   C1A 7035  35.379   0.439   8.564
  276POPC   D2A 7036  35.354   0.454   8.264
  276POPC   C3A 7037  35.348   0.454   7.964
  276POPC   C4A 7038  35.394   0.440   7.664
  276POPC   C1B 7039  35.120   0.304   8.564
  276POPC   C2B 7040  35.087   0.351   8.264
  276POPC   C3B 7041  35.073   0.383   7.964
  276POPC   C4B 7042  35.103   0.290   7.664
  277POPC   NC3 7043  28.401  14.424   9.464
  277POPC   PO4 7044  28.354  14.423   9.164
  277POPC   GL1 7045  28.368  14.452   8.864
  277POPC   GL2 7046  28.357  14.324   8.864
  277POPC   C1A 7047  28.378  14.404   8.564
  277POPC   D2A 7048  28.396  14.437   8.264
  277POPC   C3A 7049  28.324  14.354   7.964
  277POPC   C4A 7050  28.325  14.383   7.664
  277POPC   C1B 7051  28.316  14.164   8.564
  277POPC   C2B 7052  28.336  14.168   8.264
  277POPC   C3B 7053  28.357  14.132   7.964
  277POPC   C4B 7054  28.264  14.139   7.664
  278POPC   NC3 7055   7.456  15.140   9.464
  278POPC   PO4 7056   7.443  15.155   9.164
  278POPC   GL1 7057   7.392  15.184   8.864
  278POPC   GL2 7058   7.509  15.277   8.864
  278POPC   C1A 7059   7.373  15.184   8.564
  278POPC   D2A 7060   7.449  15.213   8.264
  278POPC   C3A 7061   7.391  15.199   7.964
  278POPC   C4A 7062   7.427  15.143   7.664
  278POPC   C1B 7063   7.684  15.310   8.564
  278POPC   C2B 7064   7.616  15.285   8.264
  278POPC   C3B 7065   7.613  15.301   7.964
  278POPC   C4B 7066   7.667  15.271   7.664
  279POPC   NC3 7067  35.378  39.208   9.464
  279POPC   PO4 7068  35.392  39.266   9.164
  279POPC   GL1 7069  35.312  39.278   8.864
  279POPC   GL2 7070  35.410  39.127   8.864
  279POPC   C1A 7071  35.328  39.262   8.564
  279POPC   D2A 7072  35.339  39.200   8.264
  279POPC   C3A 7073  35.392  39.205   7.964
  279POPC   C4A 7074  35.340  39.240   7.664
  279POPC   C1B 7075  35.404  38.998   8.564
  279POPC   C2B 7076  35.381  38.975   8.264
  279POPC   C3B 7077  35.434  38.974   7.964
  279POPC   C4B 7078  35.455  39.019   7.664
  280POPC   NC3 7079  25.218   8.225   9.464
  280POPC   PO4 7080  25.239   8.225   9.164
  280POPC   GL1 7081  25.241   8.242   8.864
  280POPC   GL2 7082  25.156   8.226   8.864
  280POPC   C1A 7083  25.264   8.241   8.564
  280POPC   D2A 7084  25.279   8.226   8.264
  280POPC   C3A 7085  25.238   8.208   7.964
  280POPC   C4A 7086  25.247   8.157   7.664
  280POPC   C1B 7087  25.005   8.225   8.564
  280POPC   C2B 7088  25.061   8.207   8.264
  280POPC   C3B 7089  24.975   8.232   7.964
  280POPC   C4B 7090  24.979   8.220   7.664
  281POPC   NC3 7091  27.629  29.107   9.464
  281POPC   PO4 7092  27.549  29.130   9.164
  281POPC   GL1 7093  27.631  29.117   8.864
  281POPC   GL2 7094  27.469  29.088   8.864
  281POPC   C1A 7095  27.568  29.127   8.564
  281POPC   D2A 7096  27.545  29.163   8.264
  281POPC   C3A 7097  27.589  29.153   7.964
  281POPC   C4A 7098  27.632  29.175   7.664
  281POPC   C1B 7099  27.449  28.972   8.564
  281POPC   C2B 7100  27.437  28.942   8.264
  281POPC   C3B 7101  27.383  28.987   7.964
  281POPC   C4B 7102  27.433  28.934   7.664
  282POPC   NC3 7103  43.066   8.998   9.464
  282POPC   PO4 7104  43.143   8.924   9.164
  282POPC   GL1 7105  43.130   8.931   8.864
  282POPC   GL2 7106  43.067   8.844   8.864
  282POPC   C1A 7107  43.080   8.946   8.564
  282POPC   D2A 7108  43.069   8.950   8.264
  282POPC   C3A 7109  43.066   8.954   7.964
  282POPC   C4A 7110  43.118   8.947   7.664
  282POPC   C1B 7111  42.927   8.792   8.564
  282POPC   C2B 7112  42.980   8.737   8.264
  282POPC   C3B 7113  42.968   8.768   7.964
  282POPC   C4B 7114  42.951   8.775   7.664
  283POPC   NC3 7115   3.572   8.191   9.464
  283POPC   PO4 7116   3.540   8.243   9.164
  283POPC   GL1 7117   3.524   8.198   8.864
  283POPC   GL2 7118   3.437   8.216   8.864
  283POPC   C1A 7119   3.512   8.245   8.564
  283POPC   D2A 7120   3.534   8.217   8.264
  283POPC   C3A 7121   3.497   8.179   7.964
  283POPC   C4A 7122   3.510   8.184   7.664
  283POPC   C1B 7123   3.253   8.145   8.564
  283POPC   C2B 7124   3.274   8.199   8.264
  283POPC   C3B 7125   3.308   8.193   7.964
  283POPC   C4B 7126   3.339   8.169   7.664
  284POPC   NC3 7127  43.932  29.158   9.464
  284POPC   PO4 7128  43.886  29.175   9.164
  284POPC   GL1 7129  43.879  29.166   8.864
  284POPC   GL2 7130  43.830  29.258   8.864
  284POPC   C1A 7131  43.863  29.125   8.564
  284POPC   D2A 7132  43.906  29.134   8.264
  284POPC   C3A 7133  43.875  29.153   7.964
  284POPC   C4A 7134  43.913  29.119   7.664
  284POPC   C1B 7135  43.706  29.323   8.564
  284POPC   C2B 7136  43.682  29.278   8.264
  284POPC   C3B 7137  43.701  29.331   7.964
  284POPC   C4B 7138  43.677  29.290   7.664
  285POPC   NC3 7139  28.389   2.029   9.464
  285POPC   PO4 7140  28.383   2.019   9.164
  285POPC   GL1 7141  28.339   1.966   8.864
  285POPC   GL2 7142  28.273   1.936   8.864
  285POPC   C1A 7143  28.322   2.039   8.564
  285POPC   D2A 7144  28.390   2.037   8.264
  285POPC   C3A 7145  28.374   1.993   7.964
  285POPC   C4A 7146  28.395   2.039   7.664
  285POPC   C1B 7147  28.097   2.009   8.564
  285POPC   C2B 7148  28.080   1.958   8.264
  285POPC   C3B 7149  28.140   1.940   7.964
  285POPC   C4B 7150  28.149   1.989   7.664
  286POPC   NC3 7151   5.067  43.856   9.464
  286POPC   PO4 7152   5.112  43.848   9.164
  286POPC   GL1 7153   5.076  43.852   8.864
  286POPC   GL2 7154   5.136  43.754   8.864
  286POPC   C1A 7155   5.132  43.926   8.564
  286POPC   D2A 7156   5.091  43.888   8.264
  286POPC   C3A 7157   5.075  43.932   7.964
  286POPC   C4A 7158   5.119  43.844   7.664
  286POPC   C1B 7159   5.103  43.683   8.564
  286POPC   C2B 7160   5.107  43.663   8.264
  286POPC   C3B 7161   5.117  43.601   7.964
  286POPC   C4B 7162   5.164  43.617   7.664
  287POPC   NC3 7163  12.064  18.313   9.464
  287POPC   PO4 7164  12.042  18.315   9.164
  287POPC   GL1 7165  12.103  18.248   8.864
  287POPC   GL2 7166  12.162  18.335   8.864
  287POPC   C1A 7167  12.070  18.242   8.564
  287POPC   D2A 7168  12.104  18.302   8.264
  287POPC   C3A 7169  12.120  18.331   7.964
  287POPC   C4A 7170  12.056  18.264   7.664
  287POPC   C1B 7171  12.289  18.413   8.564
  287POPC   C2B 7172  12.333  18.368   8.264
  287POPC   C3B 7173  12.297  18.330   7.964
  287POPC   C4B 7174  12.300  18.410   7.664
  288POPC   NC3 7175  20.608   1.962   9.464
  288POPC   PO4 7176  20.594   2.030   9.164
  288POPC   GL1 7177  20.561   1.964   8.864
  288POPC   GL2 7178  20.686   1.970   8.864
  288POPC   C1A 7179  20.599   2.004   8.564
  288POPC   D2A 7180  20.608   2.024   8.264
  288POPC   C3A 7181  20.601   1.968   7.964
  288POPC   C4A 7182  20.595   1.951   7.664
  288POPC   C1B 7183  20.861   1.937   8.564
  288POPC   C2B 7184  20.843   1.904   8.264
  288POPC   C3B 7185  20.848   1.907   7.964
  288POPC   C4B 7186  20.844   1.864   7.664
  289POPC   NC3 7187   2.009  11.273   9.464
  289POPC   PO4 7188   2.033  11.304   9.164
  289POPC   GL1 7189   2.024  11.288   8.864
  289POPC   GL2 7190   2.127  11.291   8.864
  289POPC   C1A 7191   2.008  11.337   8.564
  289POPC   D2A 7192   1.947  11.309   8.264
  289POPC   C3A 7193   2.031  11.343   7.964
  289POPC   C4A 7194   2.014  11.341   7.664
  289POPC   C1B 7195   2.179  11.196   8.564
  289POPC   C2B 7196   2.196  11.190   8.264
  289POPC   C3B 7197   2.236  11.153   7.964
  289POPC   C4B 7198   2.223  11.201   7.664
  290POPC   NC3 7199   6.597   5.840   9.464
  290POPC   PO4 7200   6.664   5.861   9.164
  290POPC   GL1 7201   6.689   5.831   8.864
  290POPC   GL2 7202   6.617   6.001   8.864
  290POPC   C1A 7203   6.631   5.898   8.564
  290POPC   D2A 7204   6.597   5.908   8.264
  290POPC   C3A 7205   6.605   5.884   7.964
  290POPC   C4A 7206   6.628   5.913   7.664
  290POPC   C1B 7207   6.582   6.117   8.564
  290POPC   C2B 7208   6.583   6.084   8.264
  290POPC   C3B 7209   6.568   6.112   7.964
  290POPC   C4B 7210   6.541   6.065   7.664
  291POPC   NC3 7211  12.822  22.140   9.464
  291POPC   PO4 7212  12.810  22.159   9.164
  291POPC   GL1 7213  12.831  22.203   8.864
  291POPC   GL2 7214  12.961  22.121   8.864
  291POPC   C1A 7215  12.810  22.202   8.564
  291POPC   D2A 7216  12.863  22.177   8.264
  291POPC   C3A 7217  12.841  22.212   7.964
  291POPC   C4A 7218  12.868  22.140   7.664
  291POPC   C1B 7219  13.091  22.131   8.564
  291POPC   C2B 7220  13.068  22.166   8.264
  291POPC   C3B 7221  13.148  22.157   7.964
  291POPC   C4B 7222  13.098  22.174   7.664
  292POPC   NC3 7223  26.836  26.846   9.464
  292POPC   PO4 7224  26.829  26.808   9.164
  292POPC   GL1 7225  26.830  26.838   8.864
  292POPC   GL2 7226  26.823  26.723   8.864
  292POPC   C1A 7227  26.849  26.834   8.564
  292POPC   D2A 7228  26.793  26.776   8.264
  292POPC   C3A 7229  26.849  26.805   7.964
  292POPC   C4A 7230  26.830  26.817   7.664
  292POPC   C1B 7231  26.829  26.596   8.564
  292POPC   C2B 7232  26.803  26.540   8.264
  292POPC   C3B 7233  26.820  26.592   7.964
  292POPC   C4B 7234  26.792  26.554   7.664
  293POPC   NC3 7235  24.484  19.063   9.464
  293POPC   PO4 7236  24.516  19.060   9.164
  293POPC   GL1 7237  24.483  19.082   8.864
  293POPC   GL2 7238  24.595  19.170   8.864
  293POPC   C1A 7239  24.496  19.094   8.564
  293POPC   D2A 7240  24.458  19.063   8.264
  293POPC   C3A 7241  24.500  19.015   7.964
  293POPC   C4A 7242  24.510  19.091   7.664
  293POPC   C1B 7243  24.703  19.264   8.564
  293POPC   C2B 7244  24.702  19.222   8.264
  293POPC   C3B 7245  24.725  19.182   7.964
  293POPC   C4B 7246  24.730  19.263   7.664
  294POPC   NC3 7247  22.975  12.845   9.464
  294POPC   PO4 7248  22.970  12.837   9.164
  294POPC   GL1 7249  22.948  12.887   8.864
  294POPC   GL2 7250  23.030  12.912   8.864
  294POPC   C1A 7251  22.986  12.900   8.564
  294POPC   D2A 7252  22.912  12.880   8.264
  294POPC   C3A 7253  22.897  12.874   7.964
  294POPC   C4A 7254  22.928  12.870   7.664
  294POPC   C1B 7255  23.146  12.985   8.564
  294POPC   C2B 7256  23.112  12.982   8.264
  294POPC   C3B 7257  23.094  13.017   7.964
  294POPC   C4B 7258  23.084  13.000   7.664
  295POPC   NC3 7259  15.182  23.701   9.464
  295POPC   PO4 7260  15.164  23.716   9.164
  295POPC   GL1 7261  15.206  23.692   8.864
  295POPC   GL2 7262  15.101  23.683   8.864
  295POPC   C1A 7263  15.228  23.681   8.564
  295POPC   D2A 7264  15.225  23.716   8.264
  295POPC   C3A 7265  15.145  23.671   7.964
  295POPC   C4A 7266  15.135  23.687   7.664
  295POPC   C1B 7267  14.925  23.621   8.564
  295POPC   C2B 7268  14.948  23.644   8.264
  295POPC   C3B 7269  14.891  23.646   7.964
  295POPC   C4B 7270  14.917  23.625   7.664
  296POPC   NC3 7271   8.245  24.523   9.464
  296POPC   PO4 7272   8.167  24.539   9.164
  296POPC   GL1 7273   8.193  24.488   8.864
  296POPC   GL2 7274   8.291  24.501   8.864
  296POPC   C1A 7275   8.234  24.481   8.564
  296POPC   D2A 7276   8.200  24.469   8.264
  296POPC   C3A 7277   8.180  24.539   7.964
  296POPC   C4A 7278   8.235  24.502   7.664
  296POPC   C1B 7279   8.447  24.579   8.564
  296POPC   C2B 7280   8.474  24.584   8.264
  296POPC   C3B 7281   8.452  24.599   7.964
  296POPC   C4B 7282   8.430  24.571   7.664
  297POPC   NC3 7283  33.023  34.598   9.464
  297POPC   PO4 7284  32.976  34.538   9.164
  297POPC   GL1 7285  32.982  34.612   8.864
  297POPC   GL2 7286  33.078  34.473   8.864
  297POPC   C1A 7287  33.051  34.580   8.564
  297POPC   D2A 7288  32.975  34.617   8.264
  297POPC   C3A 7289  33.045  34.562   7.964
  297POPC   C4A 7290  33.032  34.562   7.664
  297POPC   C1B 7291  33.056  34.351   8.564
  297POPC   C2B 7292  33.071  34.333   8.264
  297POPC   C3B 7293  33.031  34.287   7.964
  297POPC   C4B 7294  33.088  34.363   7.664
  298POPC   NC3 7295  26.780  28.410   9.464
  298POPC   PO4 7296  26.843  28.370   9.164
  298POPC   GL1 7297  26.823  28.348   8.864
  298POPC   GL2 7298  26.712  28.238   8.864
  298POPC   C1A 7299  26.804  28.363   8.564
  298POPC   D2A 7300  26.773  28.389   8.264
  298POPC   C3A 7301  26.856  28.321   7.964
  298POPC   C4A 7302  26.862  28.328   7.664
  298POPC   C1B 7303  26.628  28.162   8.564
  298POPC   C2B 7304  26.644  28.176   8.264
  298POPC   C3B 7305  26.649  28.170   7.964
  298POPC   C4B 7306  26.673  28.205   7.664
  299POPC   NC3 7307  42.349   5.868   9.464
  299POPC   PO4 7308  42.348   5.885   9.164
  299POPC   GL1 7309  42.326   5.830   8.864
  299POPC   GL2 7310  42.182   5.959   8.864
  299POPC   C1A 7311  42.304   5.866   8.564
  299POPC   D2A 7312  42.352   5.870   8.264
  299POPC   C3A 7313  42.289   5.902   7.964
  299POPC   C4A 7314  42.297   5.900   7.664
  299POPC   C1B 7315  42.125   6.037   8.564
  299POPC   C2B 7316  42.134   5.983   8.264
  299POPC   C3B 7317  42.093   6.047   7.964
  299POPC   C4B 7318  42.114   6.010   7.664
  300POPC   NC3 7319  22.160  35.348   9.464
  300POPC   PO4 7320  22.186  35.364   9.164
  300POPC   GL1 7321  22.187  35.319   8.864
  300POPC   GL2 7322  22.235  35.436   8.864
  300POPC   C1A 7323  22.207  35.341   8.564
  300POPC   D2A 7324  22.179  35.380   8.264
  300POPC   C3A 7325  22.159  35.306   7.964
  300POPC   C4A 7326  22.200  35.340   7.664
  300POPC   C1B 7327  22.276  35.620   8.564
  300POPC   C2B 7328  22.249  35.628   8.264
  300POPC   C3B 7329  22.277  35.615   7.964
  300POPC   C4B 7330  22.183  35.567   7.664
  301POPC   NC3 7331   5.107   5.123   9.464
  301POPC   PO4 7332   5.091   5.081   9.164
  301POPC   GL1 7333   5.105   5.080   8.864
  301POPC   GL2 7334   5.142   5.259   8.864
  301POPC   C1A 7335   5.070   5.058   8.564
  301POPC   D2A 7336   5.116   5.088   8.264
  301POPC   C3A 7337   5.095   5.109   7.964
  301POPC   C4A 7338   5.112   5.049   7.664
  301POPC   C1B 7339   5.172   5.292   8.564
  301POPC   C2B 7340   5.147   5.338   8.264
  301POPC   C3B 7341   5.146   5.319   7.964
  301POPC   C4B 7342   5.181   5.380   7.664
  302POPC   NC3 7343  25.219  14.395   9.464
  302POPC   PO4 7344  25.294  14.370   9.164
  302POPC   GL1 7345  25.286  14.444   8.864
  302POPC   GL2 7346  25.113  14.439   8.864
  302POPC   C1A 7347  25.307  14.436   8.564
  302POPC   D2A 7348  25.312  14.380   8.264
  302POPC   C3A 7349  25.227  14.436   7.964
  302POPC   C4A 7350  25.281  14.435   7.664
  302POPC   C1B 7351  25.044  14.512   8.564
  302POPC   C2B 7352  25.052  14.467   8.264
  302POPC   C3B 7353  25.050  14.463   7.964
  302POPC   C4B 7354  25.019  14.463   7.664
  303POPC   NC3 7355  11.314  10.479   9.464
  303POPC   PO4 7356  11.257  10.541   9.164
  303POPC   GL1 7357  11.268  10.498   8.864
  303POPC   GL2 7358  11.191  10.483   8.864
  303POPC   C1A 7359  11.271  10.493   8.564
  303POPC   D2A 7360  11.317  10.479   8.264
  303POPC   C3A 7361  11.344  10.550   7.964
  303POPC   C4A 7362  11.283  10.520   7.664
  303POPC   C1B 7363  11.094  10.497   8.564
  303POPC   C2B 7364  11.025  10.446   8.264
  303POPC   C3B 7365  11.077  10.497   7.964
  303POPC   C4B 7366  11.058  10.490   7.664
  304POPC   NC3 7367  37.661  29.191   9.464
  304POPC   PO4 7368  37.674  29.122   9.164
  304POPC   GL1 7369  37.665  29.166   8.864
  304POPC   GL2 7370  37.805  29.108   8.864
  304POPC   C1A 7371  37.726  29.165   8.564
  304POPC   D2A 7372  37.657  29.124   8.264
  304POPC   C3A 7373  37.715  29.109   7.964
  304POPC   C4A 7374  37.703  29.124   7.664
  304POPC   C1B 7375  37.875  28.984   8.564
  304POPC   C2B 7376  37.907  29.023   8.264
  304POPC   C3B 7377  37.896  29.003   7.964
  304POPC   C4B 7378  37.921  29.001   7.664
  305POPC   NC3 7379  15.211  31.468   9.464
  305POPC   PO4 7380  15.215  31.423   9.164
  305POPC   GL1 7381  15.168  31.500   8.864
  305POPC   GL2 7382  15.128  31.346   8.864
  305POPC   C1A 7383  15.215  31.448   8.564
  305POPC   D2A 7384  15.166  31.508   8.264
  305POPC   C3A 7385  15.224  31.482   7.964
  305POPC   C4A 7386  15.213  31.486   7.664
  305POPC   C1B 7387  15.092  31.248   8.564
  305POPC   C2B 7388  15.099  31.210   8.264
  305POPC   C3B 7389  15.086  31.219   7.964
  305POPC   C4B 7390  15.099  31.202   7.664
  306POPC   NC3 7391   5.125  39.202   9.464
  306POPC   PO4 7392   5.126  39.240   9.164
  306POPC   GL1 7393   5.131  39.198   8.864
  306POPC   GL2 7394   5.011  39.296   8.864
  306POPC   C1A 7395   5.126  39.251   8.564
  306POPC   D2A 7396   5.095  39.231   8.264
  306POPC   C3A 7397   5.107  39.236   7.964
  306POPC   C4A 7398   5.090  39.268   7.664
  306POPC   C1B 7399   4.841  39.376   8.564
  306POPC   C2B 7400   4.827  39.361   8.264
  306POPC   C3B 7401   4.880  39.323   7.964
  306POPC   C4B 7402   4.901  39.311   7.664
  307POPC   NC3 7403  18.280  15.167   9.464
  307POPC   PO4 7404  18.253  15.155   9.164
  307POPC   GL1 7405  18.237  15.168   8.864
  307POPC   GL2 7406  18.150  15.171   8.864
  307POPC   C1A 7407  18.270  15.218   8.564
  307POPC   D2A 7408  18.273  15.171   8.264
  307POPC   C3A 7409  18.267  15.219   7.964
  307POPC   C4A 7410  18.248  15.222   7.664
  307POPC   C1B 7411  18.061  15.166   8.564
  307POPC   C2B 7412  18.016  15.096   8.264
  307POPC   C3B 7413  18.069  15.120   7.964
  307POPC   C4B 7414  18.069  15.133   7.664
  308POPC   NC3 7415   5.845  38.428   9.464
  308POPC   PO4 7416   5.897  38.481   9.164
  308POPC   GL1 7417   5.868  38.420   8.864
  308POPC   GL2 7418   5.948  38.559   8.864
  308POPC   C1A 7419   5.899  38.485   8.564
  308POPC   D2A 7420   5.874  38.471   8.264
  308POPC   C3A 7421   5.894  38.447   7.964
  308POPC   C4A 7422   5.907  38.475   7.664
  308POPC   C1B 7423   6.040  38.624   8.564
  308POPC   C2B 7424   6.009  38.668   8.264
  308POPC   C3B 7425   6.042  38.706   7.964
  308POPC   C4B 7426   5.957  38.618   7.664
  309POPC   NC3 7427   0.451  10.567   9.464
  309POPC   PO4 7428   0.448  10.475   9.164
  309POPC   GL1 7429   0.449  10.515   8.864
  309POPC   GL2 7430   0.333  10.470   8.864
  309POPC   C1A 7431   0.393  10.517   8.564
  309POPC   D2A 7432   0.409  10.568   8.264
  309POPC   C3A 7433   0.408  10.567   7.964
  309POPC   C4A 7434   0.474  10.496   7.664
  309POPC   C1B 7435   0.172  10.382   8.564
  309POPC   C2B 7436   0.237  10.370   8.264
  309POPC   C3B 7437   0.192  10.453   7.964
  309POPC   C4B 7438   0.241  10.416   7.664
  310POPC   NC3 7439  20.632  10.497   9.464
  310POPC   PO4 7440  20.631  10.510   9.164
  310POPC   GL1 7441  20.653  10.519   8.864
  310POPC   GL2 7442  20.683  10.485   8.864
  310POPC   C1A 7443  20.621  10.524   8.564
  310POPC   D2A 7444  20.570  10.527   8.264
  310POPC   C3A 7445  20.630  10.513   7.964
  310POPC   C4A 7446  20.598  10.532   7.664
  310POPC   C1B 7447  20.821  10.434   8.564
  310POPC   C2B 7448  20.859  10.367   8.264
  310POPC   C3B 7449  20.859  10.362   7.964
  310POPC   C4B 7450  20.849  10.428   7.664
  311POPC   NC3 7451   5.829  20.646   9.464
  311POPC   PO4 7452   5.848  20.646   9.164
  311POPC   GL1 7453   5.831  20.646   8.864
  311POPC   GL2 7454   5.888  20.476   8.864
  311POPC   C1A 7455   5.880  20.658   8.564
  311POPC   D2A 7456   5.824  20.583   8.264
  311POPC   C3A 7457   5.882  20.612   7.964
  311POPC   C4A 7458   5.848  20.659   7.664
  311POPC   C1B 7459   5.976  20.353   8.564
  311POPC   C2B 7460   5.898  20.348   8.264
  311POPC   C3B 7461   5.954  20.340   7.964
  311POPC   C4B 7462   5.968  20.339   7.664
  312POPC   NC3 7463  25.222  28.395   9.464
  312POPC   PO4 7464  25.223  28.322   9.164
  312POPC   GL1 7465  25.292  28.336   8.864
  312POPC   GL2 7466  25.359  28.329   8.864
  312POPC   C1A 7467  25.310  28.376   8.564
  312POPC   D2A 7468  25.246  28.375   8.264
  312POPC   C3A 7469  25.283  28.371   7.964
  312POPC   C4A 7470  25.241  28.344   7.664
  312POPC   C1B 7471  25.547  28.278   8.564
  312POPC   C2B 7472  25.500  28.311   8.264
  312POPC   C3B 7473  25.532  28.280   7.964
  312POPC   C4B 7474  25.536  28.335   7.664
  313POPC   NC3 7475  17.542  43.075   9.464
  313POPC   PO4 7476  17.547  43.092   9.164
  313POPC   GL1 7477  17.462  43.138   8.864
  313POPC   GL2 7478  17.419  42.984   8.864
  313POPC   C1A 7479  17.547  43.087   8.564
  313POPC   D2A 7480  17.536  43.150   8.264
  313POPC   C3A 7481  17.549  43.138   7.964
  313POPC   C4A 7482  17.498  43.079   7.664
  313POPC   C1B 7483  17.394  42.874   8.564
  313POPC   C2B 7484  17.425  42.909   8.264
  313POPC   C3B 7485  17.355  42.858   7.964
  313POPC   C4B 7486  17.346  42.890   7.664
  314POPC   NC3 7487  39.271  26.089   9.464
  314POPC   PO4 7488  39.255  26.071   9.164
  314POPC   GL1 7489  39.252  26.057   8.864
  314POPC   GL2 7490  39.244  25.972   8.864
  314POPC   C1A 7491  39.253  26.083   8.564
  314POPC   D2A 7492  39.206  26.066   8.264
  314POPC   C3A 7493  39.251  26.016   7.964
  314POPC   C4A 7494  39.265  26.067   7.664
  314POPC   C1B 7495  39.295  25.855   8.564
  314POPC   C2B 7496  39.293  25.845   8.264
  314POPC   C3B 7497  39.362  25.803   7.964
  314POPC   C4B 7498  39.311  25.832   7.664
  315POPC   NC3 7499  40.796   1.249   9.464
  315POPC   PO4 7500  40.760   1.185   9.164
  315POPC   GL1 7501  40.771   1.227   8.864
  315POPC   GL2 7502  40.857   1.114   8.864
  315POPC   C1A 7503  40.771   1.203   8.564
  315POPC   D2A 7504  40.762   1.206   8.264
  315POPC   C3A 7505  40.818   1.185   7.964
  315POPC   C4A 7506  40.749   1.244   7.664
  315POPC   C1B 7507  40.964   1.044   8.564
  315POPC   C2B 7508  40.959   1.114   8.264
  315POPC   C3B 7509  41.023   1.050   7.964
  315POPC   C4B 7510  40.972   1.073   7.664
  316POPC   NC3 7511   8.973  31.498   9.464
  316POPC   PO4 7512   8.974  31.448   9.164
  316POPC   GL1 7513   8.945  31.516   8.864
  316POPC   GL2 7514   8.954  31.536   8.864
  316POPC   C1A 7515   8.940  31.496   8.564
  316POPC   D2A 7516   8.951  31.498   8.264
  316POPC   C3A 7517   8.948  31.482   7.964
  316POPC   C4A 7518   8.941  31.497   7.664
  316POPC   C1B 7519   8.853  31.711   8.564
  316POPC   C2B 7520   8.839  31.703   8.264
  316POPC   C3B 7521   8.857  31.705   7.964
  316POPC   C4B 7522   8.895  31.685   7.664
  317POPC   NC3 7523  34.609  43.918   9.464
  317POPC   PO4 7524  34.564  43.860   9.164
  317POPC   GL1 7525  34.626  43.908   8.864
  317POPC   GL2 7526  34.494  43.929   8.864
  317POPC   C1A 7527  34.625  43.886   8.564
  317POPC   D2A 7528  34.597  43.901   8.264
  317POPC   C3A 7529  34.574  43.929   7.964
  317POPC   C4A 7530  34.597  43.861   7.664
  317POPC   C1B 7531  34.373  43.914   8.564
  317POPC   C2B 7532  34.374  43.875   8.264
  317POPC   C3B 7533  34.343  43.837   7.964
  317POPC   C4B 7534  34.352  43.866   7.664
  318POPC   NC3 7535  40.013  33.780   9.464
  318POPC   PO4 7536  40.045  33.837   9.164
  318POPC   GL1 7537  39.978  33.754   8.864
  318POPC   GL2 7538  39.898  33.805   8.864
  318POPC   C1A 7539  39.996  33.797   8.564
  318POPC   D2A 7540  39.983  33.841   8.264
  318POPC   C3A 7541  39.990  33.790   7.964
  318POPC   C4A 7542  39.962  33.843   7.664
  318POPC   C1B 7543  39.784  33.825   8.564
  318POPC   C2B 7544  39.765  33.816   8.264
  318POPC   C3B 7545  39.744  33.904   7.964
  318POPC   C4B 7546  39.769  33.856   7.664
  319POPC   NC3 7547  38.502  26.824   9.464
  319POPC   PO4 7548  38.490  26.862   9.164
  319POPC   GL1 7549  38.411  26.802   8.864
  319POPC   GL2 7550  38.352  26.827   8.864
  319POPC   C1A 7551  38.480  26.844   8.564
  319POPC   D2A 7552  38.456  26.825   8.264
  319POPC   C3A 7553  38.455  26.778   7.964
  319POPC   C4A 7554  38.470  26.808   7.664
  319POPC   C1B 7555  38.201  26.764   8.564
  319POPC   C2B 7556  38.205  26.766   8.264
  319POPC   C3B 7557  38.238  26.726   7.964
  319POPC   C4B 7558  38.204  26.780   7.664
  320POPC   NC3 7559   5.057  33.829   9.464
  320POPC   PO4 7560   5.139  33.799   9.164
  320POPC   GL1 7561   5.099  33.786   8.864
  320POPC   GL2 7562   5.053  33.651   8.864
  320POPC   C1A 7563   5.074  33.800   8.564
  320POPC   D2A 7564   5.080  33.821   8.264
  320POPC   C3A 7565   5.090  33.772   7.964
  320POPC   C4A 7566   5.047  33.842   7.664
  320POPC   C1B 7567   5.009  33.549   8.564
  320POPC   C2B 7568   4.929  33.575   8.264
  320POPC   C3B 7569   4.960  33.544   7.964
  320POPC   C4B 7570   4.931  33.586   7.664
  321POPC   NC3 7571  12.055  23.741   9.464
  321POPC   PO4 7572  12.032  23.686   9.164
  321POPC   GL1 7573  12.076  23.666   8.864
  321POPC   GL2 7574  12.218  23.757   8.864
  321POPC   C1A 7575  12.033  23.742   8.564
  321POPC   D2A 7576  12.125  23.733   8.264
  321POPC   C3A 7577  12.080  23.736   7.964
  321POPC   C4A 7578  12.079  23.751   7.664
  321POPC   C1B 7579  12.265  23.799   8.564
  321POPC   C2B 7580  12.336  23.821   8.264
  321POPC   C3B 7581  12.301  23.851   7.964
  321POPC   C4B 7582  12.334  23.783   7.664
  322POPC   NC3 7583  28.388  36.860   9.464
  322POPC   PO4 7584  28.320  36.930   9.164
  322POPC   GL1 7585  28.404  36.928   8.864
  322POPC   GL2 7586  28.228  37.002   8.864
  322POPC   C1A 7587  28.358  36.937   8.564
  322POPC   D2A 7588  28.403  36.893   8.264
  322POPC   C3A 7589  28.397  36.868   7.964
  322POPC   C4A 7590  28.368  36.920   7.664
  322POPC   C1B 7591  28.153  37.065   8.564
  322POPC   C2B 7592  28.180  37.020   8.264
  322POPC   C3B 7593  28.214  37.046   7.964
  322POPC   C4B 7594  28.143  37.064   7.664
  323POPC   NC3 7595  40.779  36.893   9.464
  323POPC   PO4 7596  40.773  36.923   9.164
  323POPC   GL1 7597  40.781  36.881   8.864
  323POPC   GL2 7598  40.693  36.987   8.864
  323POPC   C1A 7599  40.789  36.901   8.564
  323POPC   D2A 7600  40.760  36.879   8.264
  323POPC   C3A 7601  40.801  36.912   7.964
  323POPC   C4A 7602  40.769  36.855   7.664
  323POPC   C1B 7603  40.606  37.119   8.564
  323POPC   C2B 7604  40.640  37.081   8.264
  323POPC   C3B 7605  40.587  37.089   7.964
  323POPC   C4B 7606  40.599  37.133   7.664
  324POPC   NC3 7607   4.297  24.440   9.464
  324POPC   PO4 7608   4.341  24.529   9.164
  324POPC   GL1 7609   4.359  24.467   8.864
  324POPC   GL2 7610   4.271  24.597   8.864
  324POPC   C1A 7611   4.334  24.517   8.564
  324POPC   D2A 7612   4.289  24.528   8.264
  324POPC   C3A 7613   4.304  24.487   7.964
  324POPC   C4A 7614   4.362  24.486   7.664
  324POPC   C1B 7615   4.268  24.703   8.564
  324POPC   C2B 7616   4.255  24.772   8.264
  324POPC   C3B 7617   4.240  24.724   7.964
  324POPC   C4B 7618   4.253  24.765   7.664
  325POPC   NC3 7619   3.509  26.865   9.464
  325POPC   PO4 7620   3.506  26.852   9.164
  325POPC   GL1 7621   3.572  26.840   8.864
  325POPC   GL2 7622   3.479  26.659   8.864
  325POPC   C1A 7623   3.545  26.774   8.564
  325POPC   D2A 7624   3.537  26.775   8.264
  325POPC   C3A 7625   3.588  26.797   7.964
  325POPC   C4A 7626   3.509  26.820   7.664
  325POPC   C1B 7627   3.480  26.533   8.564
  325POPC   C2B 7628   3.487  26.607   8.264
  325POPC   C3B 7629   3.491  26.568   7.964
  325POPC   C4B 7630   3.542  26.617   7.664
  326POPC   NC3 7631  41.559  35.375   9.464
  326POPC   PO4 7632  41.558  35.342   9.164
  326POPC   GL1 7633  41.600  35.335   8.864
  326POPC   GL2 7634  41.569  35.427   8.864
  326POPC   C1A 7635  41.546  35.316   8.564
  326POPC   D2A 7636  41.516  35.319   8.264
  326POPC   C3A 7637  41.556  35.310   7.964
  326POPC   C4A 7638  41.596  35.361   7.664
  326POPC   C1B 7639  41.588  35.591   8.564
  326POPC   C2B 7640  41.558  35.602   8.264
  326POPC   C3B 7641  41.567  35.579   7.964
  326POPC   C4B 7642  41.554  35.648   7.664
  327POPC   NC3 7643  17.517  12.827   9.464
  327POPC   PO4 7644  17.509  12.891   9.164
  327POPC   GL1 7645  17.553  12.841   8.864
  327POPC   GL2 7646  17.547  12.740   8.864
  327POPC   C1A 7647  17.537  12.839   8.564
  327POPC   D2A 7648  17.550  12.844   8.264
  327POPC   C3A 7649  17.552  12.875   7.964
  327POPC   C4A 7650  17.529  12.878   7.664
  327POPC   C1B 7651  17.667  12.657   8.564
  327POPC   C2B 7652  17.603  12.592   8.264
  327POPC   C3B 7653  17.644  12.599   7.964
  327POPC   C4B 7654  17.579  12.636   7.664
  328POPC   NC3 7655   5.836  10.503   9.464
  328POPC   PO4 7656   5.899  10.478   9.164
  328POPC   GL1 7657   5.872  10.501   8.864
  328POPC   GL2 7658   5.769  10.494   8.864
  328POPC   C1A 7659   5.866  10.522   8.564
  328POPC   D2A 7660   5.828  10.496   8.264
  328POPC   C3A 7661   5.917  10.533   7.964
  328POPC   C4A 7662   5.821  10.539   7.664
  328POPC   C1B 7663   5.636  10.492   8.564
  328POPC   C2B 7664   5.612  10.527   8.264
  328POPC   C3B 7665   5.663  10.530   7.964
  328POPC   C4B 7666   5.625  10.505   7.664
  329POPC   NC3 7667  31.484  22.159   9.464
  329POPC   PO4 7668  31.423  22.134   9.164
  329POPC   GL1 7669  31.464  22.207   8.864
  329POPC   GL2 7670  31.333  22.190   8.864
  329POPC   C1A 7671  31.498  22.151   8.564
  329POPC   D2A 7672  31.516  22.211   8.264
  329POPC   C3A 7673  31.444  22.188   7.964
  329POPC   C4A 7674  31.489  22.192   7.664
  329POPC   C1B 7675  31.283  22.202   8.564
  329POPC   C2B 7676  31.222  22.202   8.264
  329POPC   C3B 7677  31.216  22.267   7.964
  329POPC   C4B 7678  31.265  22.231   7.664
  330POPC   NC3 7679  38.413  41.517   9.464
  330POPC   PO4 7680  38.483  41.570   9.164
  330POPC   GL1 7681  38.442  41.553   8.864
  330POPC   GL2 7682  38.400  41.643   8.864
  330POPC   C1A 7683  38.407  41.514   8.564
  330POPC   D2A 7684  38.437  41.553   8.264
  330POPC   C3A 7685  38.434  41.543   7.964
  330POPC   C4A 7686  38.496  41.534   7.664
  330POPC   C1B 7687  38.423  41.838   8.564
  330POPC   C2B 7688  38.488  41.834   8.264
  330POPC   C3B 7689  38.425  41.851   7.964
  330POPC   C4B 7690  38.444  41.821   7.664
  331POPC   NC3 7691   8.994  36.917   9.464
  331POPC   PO4 7692   8.973  36.938   9.164
  331POPC   GL1 7693   8.975  36.867   8.864
  331POPC   GL2 7694   8.825  36.976   8.864
  331POPC   C1A 7695   9.015  36.882   8.564
  331POPC   D2A 7696   8.960  36.892   8.264
  331POPC   C3A 7697   8.978  36.950   7.964
  331POPC   C4A 7698   8.998  36.934   7.664
  331POPC   C1B 7699   8.720  36.972   8.564
  331POPC   C2B 7700   8.738  36.987   8.264
  331POPC   C3B 7701   8.725  36.984   7.964
  331POPC   C4B 7702   8.779  36.982   7.664
  332POPC   NC3 7703   5.071  22.120   9.464
  332POPC   PO4 7704   5.082  22.139   9.164
  332POPC   GL1 7705   5.113  22.157   8.864
  332POPC   GL2 7706   5.232  22.180   8.864
  332POPC   C1A 7707   5.089  22.140   8.564
  332POPC   D2A 7708   5.062  22.188   8.264
  332POPC   C3A 7709   5.096  22.176   7.964
  332POPC   C4A 7710   5.069  22.143   7.664
  332POPC   C1B 7711   5.342  22.109   8.564
  332POPC   C2B 7712   5.367  22.165   8.264
  332POPC   C3B 7713   5.309  22.153   7.964
  332POPC   C4B 7714   5.388  22.171   7.664
  333POPC   NC3 7715  38.426  44.695   9.464
  333POPC   PO4 7716  38.484  44.683   9.164
  333POPC   GL1 7717  38.474  44.692   8.864
  333POPC   GL2 7718  38.559  44.611   8.864
  333POPC   C1A 7719  38.484  44.701   8.564
  333POPC   D2A 7720  38.485  44.673   8.264
  333POPC   C3A 7721  38.484  44.632   7.964
  333POPC   C4A 7722  38.425  44.643   7.664
  333POPC   C1B 7723  38.733  44.655   8.564
  333POPC   C2B 7724  38.692  44.656   8.264
  333POPC   C3B 7725  38.726  44.613   7.964
  333POPC   C4B 7726  38.662  44.621   7.664
  334POPC   NC3 7727  38.465   8.147   9.464
  334POPC   PO4 7728  38.501   8.203   9.164
  334POPC   GL1 7729  38.425   8.195   8.864
  334POPC   GL2 7730  38.560   8.234   8.864
  334POPC   C1A 7731  38.498   8.231   8.564
  334POPC   D2A 7732  38.423   8.162   8.264
  334POPC   C3A 7733  38.434   8.170   7.964
  334POPC   C4A 7734  38.484   8.206   7.664
  334POPC   C1B 7735  38.717   8.295   8.564
  334POPC   C2B 7736  38.648   8.245   8.264
  334POPC   C3B 7737  38.716   8.286   7.964
  334POPC   C4B 7738  38.673   8.283   7.664
  335POPC   NC3 7739  29.903  24.485   9.464
  335POPC   PO4 7740  29.891  24.518   9.164
  335POPC   GL1 7741  29.888  24.442   8.864
  335POPC   GL2 7742  30.036  24.473   8.864
  335POPC   C1A 7743  29.884  24.537   8.564
  335POPC   D2A 7744  29.917  24.517   8.264
  335POPC   C3A 7745  29.890  24.491   7.964
  335POPC   C4A 7746  29.933  24.529   7.664
  335POPC   C1B 7747  30.199  24.456   8.564
  335POPC   C2B 7748  30.168  24.381   8.264
  335POPC   C3B 7749  30.205  24.462   7.964
  335POPC   C4B 7750  30.207  24.440   7.664
  336POPC   NC3 7751  32.977   0.404   9.464
  336POPC   PO4 7752  33.056   0.397   9.164
  336POPC   GL1 7753  32.996   0.402   8.864
  336POPC   GL2 7754  33.053   0.326   8.864
  336POPC   C1A 7755  33.009   0.465   8.564
  336POPC   D2A 7756  32.983   0.435   8.264
  336POPC   C3A 7757  32.976   0.449   7.964
  336POPC   C4A 7758  33.071   0.417   7.664
  336POPC   C1B 7759  33.100   0.176   8.564
  336POPC   C2B 7760  33.011   0.212   8.264
  336POPC   C3B 7761  33.108   0.231   7.964
  336POPC   C4B 7762  33.048   0.161   7.664
  337POPC   NC3 7763  24.510  42.337   9.464
  337POPC   PO4 7764  24.531  42.344   9.164
  337POPC   GL1 7765  24.510  42.362   8.864
  337POPC   GL2 7766  24.625  42.285   8.864
  337POPC   C1A 7767  24.494  42.356   8.564
  337POPC   D2A 7768  24.520  42.300   8.264
  337POPC   C3A 7769  24.464  42.360   7.964
  337POPC   C4A 7770  24.527  42.324   7.664
  337POPC   C1B 7771  24.672  42.187   8.564
  337POPC   C2B 7772  24.701  42.164   8.264
  337POPC   C3B 7773  24.696  42.184   7.964
  337POPC   C4B 7774  24.708  42.209   7.664
  338POPC   NC3 7775   0.449   5.845   9.464
  338POPC   PO4 7776   0.400   5.860   9.164
  338POPC   GL1 7777   0.415   5.917   8.864
  338POPC   GL2 7778   0.304   5.853   8.864
  338POPC   C1A 7779   0.414   5.844   8.564
  338POPC   D2A 7780   0.438   5.896   8.264
  338POPC   C3A 7781   0.476   5.870   7.964
  338POPC   C4A 7782   0.419   5.840   7.664
  338POPC   C1B 7783   0.209   5.745   8.564
  338POPC   C2B 7784   0.225   5.816   8.264
  338POPC   C3B 7785   0.208   5.739   7.964
  338POPC   C4B 7786   0.231   5.770   7.664
  339POPC   NC3 7787  12.092  24.456   9.464
  339POPC   PO4 7788  12.103  24.446   9.164
  339POPC   GL1 7789  12.112  24.521   8.864
  339POPC   GL2 7790  12.073  24.335   8.864
  339POPC   C1A 7791  12.053  24.513   8.564
  339POPC   D2A 7792  12.054  24.506   8.264
  339POPC   C3A 7793  12.037  24.508   7.964
  339POPC   C4A 7794  12.115  24.463   7.664
  339POPC   C1B 7795  12.172  24.226   8.564
  339POPC   C2B 7796  12.143  24.203   8.264
  339POPC   C3B 7797  12.138  24.276   7.964
  339POPC   C4B 7798  12.108  24.254   7.664
  340POPC   NC3 7799  16.780  29.186   9.464
  340POPC   PO4 7800  16.771  29.187   9.164
  340POPC   GL1 7801  16.779  29.119   8.864
  340POPC   GL2 7802  16.831  29.162   8.864
  340POPC   C1A 7803  16.763  29.186   8.564
  340POPC   D2A 7804  16.733  29.159   8.264
  340POPC   C3A 7805  16.758  29.111   7.964
  340POPC   C4A 7806  16.732  29.188   7.664
  340POPC   C1B 7807  17.005  29.103   8.564
  340POPC   C2B 7808  16.937  29.075   8.264
  340POPC   C3B 7809  16.955  29.055   7.964
  340POPC   C4B 7810  17.003  29.094   7.664
  341POPC   NC3 7811  36.176  26.808   9.464
  341POPC   PO4 7812  36.087  26.779   9.164
  341POPC   GL1 7813  36.096  26.813   8.864
  341POPC   GL2 7814  36.220  26.968   8.864
  341POPC   C1A 7815  36.144  26.781   8.564
  341POPC   D2A 7816  36.128  26.864   8.264
  341POPC   C3A 7817  36.173  26.793   7.964
  341POPC   C4A 7818  36.115  26.849   7.664
  341POPC   C1B 7819  36.282  27.034   8.564
  341POPC   C2B 7820  36.274  27.056   8.264
  341POPC   C3B 7821  36.226  27.035   7.964
  341POPC   C4B 7822  36.258  27.043   7.664
  342POPC   NC3 7823   3.588  43.082   9.464
  342POPC   PO4 7824   3.561  43.158   9.164
  342POPC   GL1 7825   3.495  43.109   8.864
  342POPC   GL2 7826   3.425  43.080   8.864
  342POPC   C1A 7827   3.551  43.132   8.564
  342POPC   D2A 7828   3.492  43.095   8.264
  342POPC   C3A 7829   3.526  43.101   7.964
  342POPC   C4A 7830   3.562  43.141   7.664
  342POPC   C1B 7831   3.256  43.158   8.564
  342POPC   C2B 7832   3.313  43.125   8.264
  342POPC   C3B 7833   3.300  43.189   7.964
  342POPC   C4B 7834   3.330  43.190   7.664
  343POPC   NC3 7835  36.937  29.882   9.464
  343POPC   PO4 7836  36.899  29.937   9.164
  343POPC   GL1 7837  36.879  29.960   8.864
  343POPC   GL2 7838  36.839  30.018   8.864
  343POPC   C1A 7839  36.911  29.955   8.564
  343POPC   D2A 7840  36.928  29.896   8.264
  343POPC   C3A 7841  36.917  29.879   7.964
  343POPC   C4A 7842  36.912  29.960   7.664
  343POPC   C1B 7843  36.875  30.201   8.564
  343POPC   C2B 7844  36.854  30.186   8.264
  343POPC   C3B 7845  36.842  30.214   7.964
  343POPC   C4B 7846  36.865  30.182   7.664
  344POPC   NC3 7847   6.680  23.666   9.464
  344POPC   PO4 7848   6.638  23.762   9.164
  344POPC   GL1 7849   6.684  23.711   8.864
  344POPC   GL2 7850   6.694  23.858   8.864
  344POPC   C1A 7851   6.686  23.736   8.564
  344POPC   D2A 7852   6.625  23.748   8.264
  344POPC   C3A 7853   6.599  23.733   7.964
  344POPC   C4A 7854   6.684  23.758   7.664
  344POPC   C1B 7855   6.732  23.938   8.564
  344POPC   C2B 7856   6.738  23.959   8.264
  344POPC   C3B 7857   6.683  23.929   7.964
  344POPC   C4B 7858   6.749  23.992   7.664
  345POPC   NC3 7859   1.179  44.699   9.464
  345POPC   PO4 7860   1.165  44.677   9.164
  345POPC   GL1 7861   1.262  44.641   8.864
  345POPC   GL2 7862   1.144  44.508   8.864
  345POPC   C1A 7863   1.205  44.642   8.564
  345POPC   D2A 7864   1.207  44.623   8.264
  345POPC   C3A 7865   1.260  44.661   7.964
  345POPC   C4A 7866   1.229  44.628   7.664
  345POPC   C1B 7867   1.135  44.377   8.564
  345POPC   C2B 7868   1.117  44.455   8.264
  345POPC   C3B 7869   1.205  44.429   7.964
  345POPC   C4B 7870   1.141  44.396   7.664
  346POPC   NC3 7871  18.319  29.124   9.464
  346POPC   PO4 7872  18.331  29.154   9.164
  346POPC   GL1 7873  18.248  29.131   8.864
  346POPC   GL2 7874  18.390  29.195   8.864
  346POPC   C1A 7875  18.323  29.147   8.564
  346POPC   D2A 7876  18.265  29.184   8.264
  346POPC   C3A 7877  18.268  29.138   7.964
  346POPC   C4A 7878  18.266  29.184   7.664
  346POPC   C1B 7879  18.486  29.178   8.564
  346POPC   C2B 7880  18.513  29.210   8.264
  346POPC   C3B 7881  18.554  29.151   7.964
  346POPC   C4B 7882  18.517  29.212   7.664
  347POPC   NC3 7883  26.018  36.177   9.464
  347POPC   PO4 7884  26.063  36.125   9.164
  347POPC   GL1 7885  26.059  36.110   8.864
  347POPC   GL2 7886  26.124  36.189   8.864
  347POPC   C1A 7887  26.009  36.147   8.564
  347POPC   D2A 7888  26.017  36.163   8.264
  347POPC   C3A 7889  26.077  36.099   7.964
  347POPC   C4A 7890  26.036  36.175   7.664
  347POPC   C1B 7891  26.281  36.214   8.564
  347POPC   C2B 7892  26.284  36.247   8.264
  347POPC   C3B 7893  26.274  36.259   7.964
  347POPC   C4B 7894  26.261  36.272   7.664
  348POPC   NC3 7895   2.779  40.766   9.464
  348POPC   PO4 7896   2.812  40.828   9.164
  348POPC   GL1 7897   2.780  40.748   8.864
  348POPC   GL2 7898   2.624  40.877   8.864
  348POPC   C1A 7899   2.774  40.734   8.564
  348POPC   D2A 7900   2.730  40.795   8.264
  348POPC   C3A 7901   2.796  40.794   7.964
  348POPC   C4A 7902   2.765  40.796   7.664
  348POPC   C1B 7903   2.598  40.911   8.564
  348POPC   C2B 7904   2.611  40.961   8.264
  348POPC   C3B 7905   2.570  40.973   7.964
  348POPC   C4B 7906   2.583  40.948   7.664
  349POPC   NC3 7907  33.801  12.123   9.464
  349POPC   PO4 7908  33.750  12.063   9.164
  349POPC   GL1 7909  33.827  12.075   8.864
  349POPC   GL2 7910  33.829  12.215   8.864
  349POPC   C1A 7911  33.763  12.054   8.564
  349POPC   D2A 7912  33.779  12.066   8.264
  349POPC   C3A 7913  33.815  12.061   7.964
  349POPC   C4A 7914  33.822  12.062   7.664
  349POPC   C1B 7915  33.889  12.283   8.564
  349POPC   C2B 7916  33.918  12.353   8.264
  349POPC   C3B 7917  33.838  12.341   7.964
  349POPC   C4B 7918  33.822  12.332   7.664
  350POPC   NC3 7919  18.263   5.053   9.464
  350POPC   PO4 7920  18.273   5.075   9.164
  350POPC   GL1 7921  18.258   5.121   8.864
  350POPC   GL2 7922  18.204   5.026   8.864
  350POPC   C1A 7923  18.307   5.121   8.564
  350POPC   D2A 7924  18.310   5.096   8.264
  350POPC   C3A 7925  18.288   5.053   7.964
  350POPC   C4A 7926  18.322   5.083   7.664
  350POPC   C1B 7927  18.208   4.862   8.564
  350POPC   C2B 7928  18.196   4.837   8.264
  350POPC   C3B 7929  18.140   4.849   7.964
  350POPC   C4B 7930  18.145   4.844   7.664
  351POPC   NC3 7931  33.839  39.994   9.464
  351POPC   PO4 7932  33.760  39.986   9.164
  351POPC   GL1 7933  33.761  39.984   8.864
  351POPC   GL2 7934  33.749  40.155   8.864
  351POPC   C1A 7935  33.811  40.054   8.564
  351POPC   D2A 7936  33.838  40.033   8.264
  351POPC   C3A 7937  33.813  39.991   7.964
  351POPC   C4A 7938  33.839  39.976   7.664
  351POPC   C1B 7939  33.679  40.199   8.564
  351POPC   C2B 7940  33.682  40.199   8.264
  351POPC   C3B 7941  33.659  40.210   7.964
  351POPC   C4B 7942  33.679  40.249   7.664
  352POPC   NC3 7943  26.829  43.121   9.464
  352POPC   PO4 7944  26.777  43.076   9.164
  352POPC   GL1 7945  26.836  43.108   8.864
  352POPC   GL2 7946  26.796  42.977   8.864
  352POPC   C1A 7947  26.776  43.079   8.564
  352POPC   D2A 7948  26.779  43.151   8.264
  352POPC   C3A 7949  26.858  43.081   7.964
  352POPC   C4A 7950  26.790  43.123   7.664
  352POPC   C1B 7951  26.886  42.817   8.564
  352POPC   C2B 7952  26.856  42.841   8.264
  352POPC   C3B 7953  26.817  42.895   7.964
  352POPC   C4B 7954  26.839  42.874   7.664
  353POPC   NC3 7955   9.736  19.809   9.464
  353POPC   PO4 7956   9.769  19.858   9.164
  353POPC   GL1 7957   9.723  19.803   8.864
  353POPC   GL2 7958   9.858  19.907   8.864
  353POPC   C1A 7959   9.783  19.850   8.564
  353POPC   D2A 7960   9.737  19.846   8.264
  353POPC   C3A 7961   9.787  19.809   7.964
  353POPC   C4A 7962   9.722  19.831   7.664
  353POPC   C1B 7963   9.872  19.990   8.564
  353POPC   C2B 7964   9.885  20.022   8.264
  353POPC   C3B 7965   9.867  19.997   7.964
  353POPC   C4B 7966   9.882  20.028   7.664
  354POPC   NC3 7967  13.595  12.875   9.464
  354POPC   PO4 7968  13.622  12.817   9.164
  354POPC   GL1 7969  13.613  12.889   8.864
  354POPC   GL2 7970  13.669  12.950   8.864
  354POPC   C1A 7971  13.604  12.873   8.564
  354POPC   D2A 7972  13.584  12.877   8.264
  354POPC   C3A 7973  13.619  12.842   7.964
  354POPC   C4A 7974  13.615  12.882   7.664
  354POPC   C1B 7975  13.776  13.076   8.564
  354POPC   C2B 7976  13.733  13.081   8.264
  354POPC   C3B 7977  13.717  13.118   7.964
  354POPC   C4B 7978  13.705  13.090   7.664
  355POPC   NC3 7979   9.736  22.115   9.464
  355POPC   PO4 7980   9.748  22.194   9.164
  355POPC   GL1 7981   9.788  22.200   8.864
  355POPC   GL2 7982   9.859  22.117   8.864
  355POPC   C1A 7983   9.747  22.149   8.564
  355POPC   D2A 7984   9.706  22.154   8.264
  355POPC   C3A 7985   9.767  22.152   7.964
  355POPC   C4A 7986   9.786  22.139   7.664
  355POPC   C1B 7987   9.939  22.028   8.564
  355POPC   C2B 7988   9.958  22.042   8.264
  355POPC   C3B 7989   9.979  22.040   7.964
  355POPC   C4B 7990   9.996  22.057   7.664
  356POPC   NC3 7991  19.819  29.146   9.464
  356POPC   PO4 7992  19.824  29.124   9.164
  356POPC   GL1 7993  19.806  29.146   8.864
  356POPC   GL2 7994  19.899  29.012   8.864
  356POPC   C1A 7995  19.852  29.181   8.564
  356POPC   D2A 7996  19.827  29.186   8.264
  356POPC   C3A 7997  19.882  29.119   7.964
  356POPC   C4A 7998  19.808  29.139   7.664
  356POPC   C1B 7999  19.891  28.860   8.564
  356POPC   C2B 8000  19.856  28.926   8.264
  356POPC   C3B 8001  19.930  28.948   7.964
  356POPC   C4B 8002  19.858  28.855   7.664
  357POPC   NC3 8003  33.058  22.925   9.464
  357POPC   PO4 8004  32.979  22.974   9.164
  357POPC   GL1 8005  33.071  22.965   8.864
  357POPC   GL2 8006  32.923  22.866   8.864
  357POPC   C1A 8007  33.006  22.889   8.564
  357POPC   D2A 8008  33.074  22.914   8.264
  357POPC   C3A 8009  32.988  22.956   7.964
  357POPC   C4A 8010  33.069  22.949   7.664
  357POPC   C1B 8011  32.862  22.733   8.564
  357POPC   C2B 8012  32.885  22.727   8.264
  357POPC   C3B 8013  32.904  22.669   7.964
  357POPC   C4B 8014  32.881  22.681   7.664
  358POPC   NC3 8015  20.627  42.295   9.464
  358POPC   PO4 8016  20.627  42.343   9.164
  358POPC   GL1 8017  20.610  42.326   8.864
  358POPC   GL2 8018  20.602  42.204   8.864
  358POPC   C1A 8019  20.617  42.340   8.564
  358POPC   D2A 8020  20.566  42.294   8.264
  358POPC   C3A 8021  20.579  42.374   7.964
  358POPC   C4A 8022  20.603  42.342   7.664
  358POPC   C1B 8023  20.605  42.127   8.564
  358POPC   C2B 8024  20.604  42.102   8.264
  358POPC   C3B 8025  20.575  42.109   7.964
  358POPC   C4B 8026  20.651  42.045   7.664
  359POPC   NC3 8027  26.781  39.254   9.464
  359POPC   PO4 8028  26.860  39.212   9.164
  359POPC   GL1 8029  26.775  39.190   8.864
  359POPC   GL2 8030  26.731  39.278   8.864
  359POPC   C1A 8031  26.852  39.223   8.564
  359POPC   D2A 8032  26.816  39.236   8.264
  359POPC   C3A 8033  26.778  39.218   7.964
  359POPC   C4A 8034  26.801  39.251   7.664
  359POPC   C1B 8035  26.585  39.357   8.564
  359POPC   C2B 8036  26.575  39.397   8.264
  359POPC   C3B 8037  26.581  39.372   7.964
  359POPC   C4B 8038  26.581  39.358   7.664
  360POPC   NC3 8039  27.584  14.427   9.464
  360POPC   PO4 8040  27.591  14.383   9.164
  360POPC   GL1 8041  27.611  14.411   8.864
  360POPC   GL2 8042  27.528  14.274   8.864
  360POPC   C1A 8043  27.553  14.368   8.564
  360POPC   D2A 8044  27.548  14.377   8.264
  360POPC   C3A 8045  27.634  14.420   7.964
  360POPC   C4A 8046  27.585  14.370   7.664
  360POPC   C1B 8047  27.445  14.158   8.564
  360POPC   C2B 8048  27.429  14.167   8.264
  360POPC   C3B 8049  27.414  14.237   7.964
  360POPC   C4B 8050  27.456  14.201   7.664
  361POPC   NC3 8051   5.058  12.875   9.464
  361POPC   PO4 8052   5.065  12.809   9.164
  361POPC   GL1 8053   5.069  12.888   8.864
  361POPC   GL2 8054   5.190  12.932   8.864
  361POPC   C1A 8055   5.125  12.886   8.564
  361POPC   D2A 8056   5.128  12.847   8.264
  361POPC   C3A 8057   5.064  12.841   7.964
  361POPC   C4A 8058   5.083  12.830   7.664
  361POPC   C1B 8059   5.331  12.898   8.564
  361POPC   C2B 8060   5.329  12.928   8.264
  361POPC   C3B 8061   5.341  12.904   7.964
  361POPC   C4B 8062   5.332  12.963   7.664
  362POPC   NC3 8063  10.573  11.285   9.464
  362POPC   PO4 8064  10.564  11.322   9.164
  362POPC   GL1 8065  10.507  11.332   8.864
  362POPC   GL2 8066  10.643  11.210   8.864
  362POPC   C1A 8067  10.562  11.316   8.564
  362POPC   D2A 8068  10.551  11.333   8.264
  362POPC   C3A 8069  10.532  11.258   7.964
  362POPC   C4A 8070  10.513  11.279   7.664
  362POPC   C1B 8071  10.686  11.074   8.564
  362POPC   C2B 8072  10.702  11.090   8.264
  362POPC   C3B 8073  10.669  11.115   7.964
  362POPC   C4B 8074  10.681  11.120   7.664
  363POPC   NC3 8075  38.492  33.029   9.464
  363POPC   PO4 8076  38.455  32.986   9.164
  363POPC   GL1 8077  38.435  33.026   8.864
  363POPC   GL2 8078  38.344  33.020   8.864
  363POPC   C1A 8079  38.428  33.063   8.564
  363POPC   D2A 8080  38.488  33.033   8.264
  363POPC   C3A 8081  38.464  33.067   7.964
  363POPC   C4A 8082  38.493  32.980   7.664
  363POPC   C1B 8083  38.192  32.971   8.564
  363POPC   C2B 8084  38.202  33.003   8.264
  363POPC   C3B 8085  38.159  33.044   7.964
  363POPC   C4B 8086  38.224  33.046   7.664
  364POPC   NC3 8087  23.669  22.958   9.464
  364POPC   PO4 8088  23.701  22.941   9.164
  364POPC   GL1 8089  23.684  22.957   8.864
  364POPC   GL2 8090  23.584  23.024   8.864
  364POPC   C1A 8091  23.668  22.963   8.564
  364POPC   D2A 8092  23.720  22.900   8.264
  364POPC   C3A 8093  23.732  22.911   7.964
  364POPC   C4A 8094  23.730  22.900   7.664
  364POPC   C1B 8095  23.549  23.179   8.564
  364POPC   C2B 8096  23.520  23.138   8.264
  364POPC   C3B 8097  23.593  23.129   7.964
  364POPC   C4B 8098  23.566  23.119   7.664
  365POPC   NC3 8099  32.271  31.431   9.464
  365POPC   PO4 8100  32.250  31.480   9.164
  365POPC   GL1 8101  32.255  31.485   8.864
  365POPC   GL2 8102  32.316  31.365   8.864
  365POPC   C1A 8103  32.252  31.438   8.564
  365POPC   D2A 8104  32.215  31.496   8.264
  365POPC   C3A 8105  32.275  31.502   7.964
  365POPC   C4A 8106  32.249  31.475   7.664
  365POPC   C1B 8107  32.325  31.208   8.564
  365POPC   C2B 8108  32.339  31.209   8.264
  365POPC   C3B 8109  32.275  31.223   7.964
  365POPC   C4B 8110  32.260  31.199   7.664
  366POPC   NC3 8111  18.302   7.449   9.464
  366POPC   PO4 8112  18.302   7.433   9.164
  366POPC   GL1 8113  18.313   7.435   8.864
  366POPC   GL2 8114  18.333   7.254   8.864
  366POPC   C1A 8115  18.259   7.460   8.564
  366POPC   D2A 8116  18.282   7.407   8.264
  366POPC   C3A 8117  18.275   7.450   7.964
  366POPC   C4A 8118  18.281   7.400   7.664
  366POPC   C1B 8119  18.339   7.172   8.564
  366POPC   C2B 8120  18.393   7.227   8.264
  366POPC   C3B 8121  18.362   7.177   7.964
  366POPC   C4B 8122  18.375   7.138   7.664
  367POPC   NC3 8123  17.544  26.052   9.464
  367POPC   PO4 8124  17.503  26.065   9.164
  367POPC   GL1 8125  17.545  26.065   8.864
  367POPC   GL2 8126  17.361  26.039   8.864
  367POPC   C1A 8127  17.543  26.039   8.564
  367POPC   D2A 8128  17.515  26.085   8.264
  367POPC   C3A 8129  17.493  26.036   7.964
  367POPC   C4A 8130  17.552  26.017   7.664
  367POPC   C1B 8131  17.303  25.929   8.564
  367POPC   C2B 8132  17.287  25.951   8.264
  367POPC   C3B 8133  17.267  25.973   7.964
  367POPC   C4B 8134  17.237  25.982   7.664
  368POPC   NC3 8135  35.356  12.810   9.464
  368POPC   PO4 8136  35.325  12.806   9.164
  368POPC   GL1 8137  35.361  12.829   8.864
  368POPC   GL2 8138  35.287  12.959   8.864
  368POPC   C1A 8139  35.352  12.835   8.564
  368POPC   D2A 8140  35.357  12.841   8.264
  368POPC   C3A 8141  35.377  12.860   7.964
  368POPC   C4A 8142  35.359  12.850   7.664
  368POPC   C1B 8143  35.134  13.049   8.564
  368POPC   C2B 8144  35.205  12.998   8.264
  368POPC   C3B 8145  35.163  13.015   7.964
  368POPC   C4B 8146  35.201  12.997   7.664
  369POPC   NC3 8147   9.797   8.215   9.464
  369POPC   PO4 8148   9.735   8.211   9.164
  369POPC   GL1 8149   9.751   8.203   8.864
  369POPC   GL2 8150   9.608   8.243   8.864
  369POPC   C1A 8151   9.766   8.171   8.564
  369POPC   D2A 8152   9.795   8.227   8.264
  369POPC   C3A 8153   9.719   8.150   7.964
  369POPC   C4A 8154   9.793   8.153   7.664
  369POPC   C1B 8155   9.587   8.341   8.564
  369POPC   C2B 8156   9.577   8.328   8.264
  369POPC   C3B 8157   9.583   8.327   7.964
  369POPC   C4B 8158   9.570   8.373   7.664
  370POPC   NC3 8159  19.076  29.178   9.464
  370POPC   PO4 8160  19.020  29.100   9.164
  370POPC   GL1 8161  19.074  29.163   8.864
  370POPC   GL2 8162  18.987  29.068   8.864
  370POPC   C1A 8163  19.020  29.170   8.564
  370POPC   D2A 8164  19.107  29.193   8.264
  370POPC   C3A 8165  19.038  29.097   7.964
  370POPC   C4A 8166  19.090  29.140   7.664
  370POPC   C1B 8167  18.848  28.988   8.564
  370POPC   C2B 8168  18.942  28.924   8.264
  370POPC   C3B 8169  18.873  28.922   7.964
  370POPC   C4B 8170  18.874  29.001   7.664
  371POPC   NC3 8171   4.322  25.218   9.464
  371POPC   PO4 8172   4.322  25.268   9.164
  371POPC   GL1 8173   4.364  25.296   8.864
  371POPC   GL2 8174   4.351  25.145   8.864
  371POPC   C1A 8175   4.360  25.262   8.564
  371POPC   D2A 8176   4.279  25.234   8.264
  371POPC   C3A 8177   4.343  25.313   7.964
  371POPC   C4A 8178   4.367  25.292   7.664
  371POPC   C1B 8179   4.333  25.054   8.564
  371POPC   C2B 8180   4.340  24.996   8.264
  371POPC   C3B 8181   4.320  24.978   7.964
  371POPC   C4B 8182   4.372  25.013   7.664
  372POPC   NC3 8183  10.533   7.454   9.464
  372POPC   PO4 8184  10.528   7.380   9.164
  372POPC   GL1 8185  10.495   7.408   8.864
  372POPC   GL2 8186  10.395   7.408   8.864
  372POPC   C1A 8187  10.526   7.378   8.564
  372POPC   D2A 8188  10.483   7.394   8.264
  372POPC   C3A 8189  10.483   7.380   7.964
  372POPC   C4A 8190  10.547   7.448   7.664
  372POPC   C1B 8191  10.242   7.466   8.564
  372POPC   C2B 8192  10.298   7.486   8.264
  372POPC   C3B 8193  10.303   7.430   7.964
  372POPC   C4B 8194  10.268   7.479   7.664
  373POPC   NC3 8195  11.332  39.201   9.464
  373POPC   PO4 8196  11.327  39.200   9.164
  373POPC   GL1 8197  11.308  39.238   8.864
  373POPC   GL2 8198  11.196  39.325   8.864
  373POPC   C1A 8199  11.268  39.204   8.564
  373POPC   D2A 8200  11.269  39.262   8.264
  373POPC   C3A 8201  11.262  39.230   7.964
  373POPC   C4A 8202  11.332  39.274   7.664
  373POPC   C1B 8203  11.101  39.410   8.564
  373POPC   C2B 8204  11.074  39.391   8.264
  373POPC   C3B 8205  11.147  39.392   7.964
  373POPC   C4B 8206  11.145  39.373   7.664
  374POPC   NC3 8207  40.014   7.375   9.464
  374POPC   PO4 8208  40.051   7.426   9.164
  374POPC   GL1 8209  40.053   7.437   8.864
  374POPC   GL2 8210  39.845   7.416   8.864
  374POPC   C1A 8211  40.009   7.401   8.564
  374POPC   D2A 8212  39.967   7.401   8.264
  374POPC   C3A 8213  40.020   7.419   7.964
  374POPC   C4A 8214  40.015   7.390   7.664
  374POPC   C1B 8215  39.782   7.404   8.564
  374POPC   C2B 8216  39.739   7.358   8.264
  374POPC   C3B 8217  39.800   7.361   7.964
  374POPC   C4B 8218  39.790   7.341   7.664
  375POPC   NC3 8219  26.774  30.735   9.464
  375POPC   PO4 8220  26.783  30.731   9.164
  375POPC   GL1 8221  26.860  30.658   8.864
  375POPC   GL2 8222  26.748  30.609   8.864
  375POPC   C1A 8223  26.770  30.712   8.564
  375POPC   D2A 8224  26.830  30.730   8.264
  375POPC   C3A 8225  26.809  30.697   7.964
  375POPC   C4A 8226  26.823  30.742   7.664
  375POPC   C1B 8227  26.692  30.482   8.564
  375POPC   C2B 8228  26.729  30.470   8.264
  375POPC   C3B 8229  26.724  30.434   7.964
  375POPC   C4B 8230  26.724  30.503   7.664
  376POPC   NC3 8231  35.339  19.055   9.464
  376POPC   PO4 8232  35.308  19.102   9.164
  376POPC   GL1 8233  35.308  19.082   8.864
  376POPC   GL2 8234  35.257  19.202   8.864
  376POPC   C1A 8235  35.361  19.025   8.564
  376POPC   D2A 8236  35.384  19.046   8.264
  376POPC   C3A 8237  35.381  19.097   7.964
  376POPC   C4A 8238  35.342  19.022   7.664
  376POPC   C1B 8239  35.243  19.262   8.564
  376POPC   C2B 8240  35.171  19.265   8.264
  376POPC   C3B 8241  35.163  19.286   7.964
  376POPC   C4B 8242  35.190  19.244   7.664
  377POPC   NC3 8243  29.923  19.062   9.464
  377POPC   PO4 8244  29.958  19.043   9.164
  377POPC   GL1 8245  29.931  19.053   8.864
  377POPC   GL2 8246  29.805  19.095   8.864
  377POPC   C1A 8247  29.897  19.070   8.564
  377POPC   D2A 8248  29.876  19.076   8.264
  377POPC   C3A 8249  29.908  19.087   7.964
  377POPC   C4A 8250  29.924  19.087   7.664
  377POPC   C1B 8251  29.623  19.060   8.564
  377POPC   C2B 8252  29.716  19.069   8.264
  377POPC   C3B 8253  29.642  19.123   7.964
  377POPC   C4B 8254  29.704  19.109   7.664
  378POPC   NC3 8255  41.529  12.072   9.464
  378POPC   PO4 8256  41.601  12.066   9.164
  378POPC   GL1 8257  41.542  12.081   8.864
  378POPC   GL2 8258  41.545  11.982   8.864
  378POPC   C1A 8259  41.581  12.118   8.564
  378POPC   D2A 8260  41.562  12.119   8.264
  378POPC   C3A 8261  41.575  12.071   7.964
  378POPC   C4A 8262  41.549  12.116   7.664
  378POPC   C1B 8263  41.441  11.862   8.564
  378POPC   C2B 8264  41.404  11.864   8.264
  378POPC   C3B 8265  41.432  11.830   7.964
  378POPC   C4B 8266  41.404  11.818   7.664
  379POPC   NC3 8267  27.636  32.261   9.464
  379POPC   PO4 8268  27.561  32.231   9.164
  379POPC   GL1 8269  27.629  32.282   8.864
  379POPC   GL2 8270  27.657  32.341   8.864
  379POPC   C1A 8271  27.582  32.264   8.564
  379POPC   D2A 8272  27.588  32.226   8.264
  379POPC   C3A 8273  27.617  32.274   7.964
  379POPC   C4A 8274  27.551  32.267   7.664
  379POPC   C1B 8275  27.848  32.327   8.564
  379POPC   C2B 8276  27.767  32.344   8.264
  379POPC   C3B 8277  27.862  32.415   7.964
  379POPC   C4B 8278  27.834  32.348   7.664
  380POPC   NC3 8279  33.818  33.021   9.464
  380POPC   PO4 8280  33.765  33.073   9.164
  380POPC   GL1 8281  33.776  33.031   8.864
  380POPC   GL2 8282  33.901  32.921   8.864
  380POPC   C1A 8283  33.835  33.044   8.564
  380POPC   D2A 8284  33.827  33.068   8.264
  380POPC   C3A 8285  33.756  33.041   7.964
  380POPC   C4A 8286  33.811  33.062   7.664
  380POPC   C1B 8287  34.022  32.853   8.564
  380POPC   C2B 8288  33.960  32.831   8.264
  380POPC   C3B 8289  34.008  32.880   7.964
  380POPC   C4B 8290  33.935  32.852   7.664
  381POPC   NC3 8291  26.017  12.841   9.464
  381POPC   PO4 8292  26.051  12.848   9.164
  381POPC   GL1 8293  26.053  12.810   8.864
  381POPC   GL2 8294  26.051  12.707   8.864
  381POPC   C1A 8295  26.039  12.876   8.564
  381POPC   D2A 8296  26.027  12.900   8.264
  381POPC   C3A 8297  26.054  12.813   7.964
  381POPC   C4A 8298  26.074  12.818   7.664
  381POPC   C1B 8299  25.967  12.597   8.564
  381POPC   C2B 8300  25.993  12.567   8.264
  381POPC   C3B 8301  26.043  12.563   7.964
  381POPC   C4B 8302  26.041  12.589   7.664
  382POPC   NC3 8303  39.966  32.293   9.464
  382POPC   PO4 8304  40.025  32.241   9.164
  382POPC   GL1 8305  39.999  32.258   8.864
  382POPC   GL2 8306  39.906  32.385   8.864
  382POPC   C1A 8307  39.982  32.245   8.564
  382POPC   D2A 8308  39.980  32.270   8.264
  382POPC   C3A 8309  40.020  32.295   7.964
  382POPC   C4A 8310  39.966  32.229   7.664
  382POPC   C1B 8311  39.851  32.458   8.564
  382POPC   C2B 8312  39.856  32.440   8.264
  382POPC   C3B 8313  39.871  32.463   7.964
  382POPC   C4B 8314  39.847  32.457   7.664
  383POPC   NC3 8315   5.060  13.633   9.464
  383POPC   PO4 8316   5.054  13.668   9.164
  383POPC   GL1 8317   5.082  13.608   8.864
  383POPC   GL2 8318   5.154  13.790   8.864
  383POPC   C1A 8319   5.047  13.650   8.564
  383POPC   D2A 8320   5.107  13.603   8.264
  383POPC   C3A 8321   5.113  13.580   7.964
  383POPC   C4A 8322   5.078  13.630   7.664
  383POPC   C1B 8323   5.161  13.855   8.564
  383POPC   C2B 8324   5.150  13.840   8.264
  383POPC   C3B 8325   5.162  13.880   7.964
  383POPC   C4B 8326   5.143  13.896   7.664
  384POPC   NC3 8327  26.795   5.086   9.464
  384POPC   PO4 8328  26.839   5.118   9.164
  384POPC   GL1 8329  26.817   5.125   8.864
  384POPC   GL2 8330  26.676   5.097   8.864
  384POPC   C1A 8331  26.788   5.064   8.564
  384POPC   D2A 8332  26.770   5.068   8.264
  384POPC   C3A 8333  26.836   5.072   7.964
  384POPC   C4A 8334  26.863   5.132   7.664
  384POPC   C1B 8335  26.539   5.147   8.564
  384POPC   C2B 8336  26.602   5.076   8.264
  384POPC   C3B 8337  26.524   5.086   7.964
  384POPC   C4B 8338  26.594   5.156   7.664
  385POPC   NC3 8339  32.254  26.855   9.464
  385POPC   PO4 8340  32.271  26.799   9.164
  385POPC   GL1 8341  32.199  26.834   8.864
  385POPC   GL2 8342  32.329  26.668   8.864
  385POPC   C1A 8343  32.214  26.841   8.564
  385POPC   D2A 8344  32.227  26.770   8.264
  385POPC   C3A 8345  32.278  26.810   7.964
  385POPC   C4A 8346  32.268  26.849   7.664
  385POPC   C1B 8347  32.314  26.554   8.564
  385POPC   C2B 8348  32.309  26.585   8.264
  385POPC   C3B 8349  32.290  26.562   7.964
  385POPC   C4B 8350  32.293  26.599   7.664
  386POPC   NC3 8351  30.661   4.301   9.464
  386POPC   PO4 8352  30.679   4.295   9.164
  386POPC   GL1 8353  30.684   4.317   8.864
  386POPC   GL2 8354  30.579   4.394   8.864
  386POPC   C1A 8355  30.662   4.300   8.564
  386POPC   D2A 8356  30.656   4.310   8.264
  386POPC   C3A 8357  30.731   4.354   7.964
  386POPC   C4A 8358  30.744   4.315   7.664
  386POPC   C1B 8359  30.479   4.471   8.564
  386POPC   C2B 8360  30.501   4.461   8.264
  386POPC   C3B 8361  30.475   4.430   7.964
  386POPC   C4B 8362  30.486   4.395   7.664
  387POPC   NC3 8363  13.579   6.683   9.464
  387POPC   PO4 8364  13.636   6.627   9.164
  387POPC   GL1 8365  13.592   6.648   8.864
  387POPC   GL2 8366  13.491   6.562   8.864
  387POPC   C1A 8367  13.633   6.618   8.564
  387POPC   D2A 8368  13.610   6.670   8.264
  387POPC   C3A 8369  13.599   6.603   7.964
  387POPC   C4A 8370  13.594   6.676   7.664
  387POPC   C1B 8371  13.350   6.611   8.564
  387POPC   C2B 8372  13.436   6.535   8.264
  387POPC   C3B 8373  13.407   6.563   7.964
  387POPC   C4B 8374  13.436   6.604   7.664
  388POPC   NC3 8375   1.942  14.401   9.464
  388POPC   PO4 8376   2.003  14.356   9.164
  388POPC   GL1 8377   1.990  14.441   8.864
  388POPC   GL2 8378   2.077  14.461   8.864
  388POPC   C1A 8379   2.003  14.437   8.564
  388POPC   D2A 8380   1.989  14.389   8.264
  388POPC   C3A 8381   1.988  14.425   7.964
  388POPC   C4A 8382   2.012  14.376   7.664
  388POPC   C1B 8383   2.115  14.587   8.564
  388POPC   C2B 8384   2.165  14.558   8.264
  388POPC   C3B 8385   2.210  14.607   7.964
  388POPC   C4B 8386   2.200  14.573   7.664
  389POPC   NC3 8387   8.926  39.234   9.464
  389POPC   PO4 8388   8.977  39.280   9.164
  389POPC   GL1 8389   8.945  39.184   8.864
  389POPC   GL2 8390   8.891  39.251   8.864
  389POPC   C1A 8391   8.959  39.186   8.564
  389POPC   D2A 8392   8.943  39.240   8.264
  389POPC   C3A 8393   8.932  39.253   7.964
  389POPC   C4A 8394   9.021  39.263   7.664
  389POPC   C1B 8395   8.724  39.285   8.564
  389POPC   C2B 8396   8.715  39.323   8.264
  389POPC   C3B 8397   8.688  39.314   7.964
  389POPC   C4B 8398   8.715  39.269   7.664
  390POPC   NC3 8399   8.148  20.592   9.464
  390POPC   PO4 8400   8.176  20.582   9.164
  390POPC   GL1 8401   8.176  20.606   8.864
  390POPC   GL2 8402   8.143  20.707   8.864
  390POPC   C1A 8403   8.212  20.598   8.564
  390POPC   D2A 8404   8.175  20.611   8.264
  390POPC   C3A 8405   8.160  20.568   7.964
  390POPC   C4A 8406   8.176  20.641   7.664
  390POPC   C1B 8407   8.054  20.737   8.564
  390POPC   C2B 8408   8.046  20.815   8.264
  390POPC   C3B 8409   7.990  20.782   7.964
  390POPC   C4B 8410   8.047  20.829   7.664
  391POPC   NC3 8411  36.875  41.553   9.464
  391POPC   PO4 8412  36.895  41.510   9.164
  391POPC   GL1 8413  36.946  41.536   8.864
  391POPC   GL2 8414  36.930  41.394   8.864
  391POPC   C1A 8415  36.878  41.539   8.564
  391POPC   D2A 8416  36.892  41.540   8.264
  391POPC   C3A 8417  36.941  41.534   7.964
  391POPC   C4A 8418  36.884  41.559   7.664
  391POPC   C1B 8419  36.916  41.355   8.564
  391POPC   C2B 8420  36.934  41.339   8.264
  391POPC   C3B 8421  36.939  41.290   7.964
  391POPC   C4B 8422  36.949  41.348   7.664
  392POPC   NC3 8423  27.587   2.795   9.464
  392POPC   PO4 8424  27.609   2.806   9.164
  392POPC   GL1 8425  27.570   2.749   8.864
  392POPC   GL2 8426  27.554   2.873   8.864
  392POPC   C1A 8427  27.562   2.804   8.564
  392POPC   D2A 8428  27.620   2.777   8.264
  392POPC   C3A 8429  27.610   2.734   7.964
  392POPC   C4A 8430  27.635   2.805   7.664
  392POPC   C1B 8431  27.483   2.919   8.564
  392POPC   C2B 8432  27.412   2.958   8.264
  392POPC   C3B 8433  27.438   2.949   7.964
  392POPC   C4B 8434  27.457   2.997   7.664
  393POPC   NC3 8435   9.708   2.751   9.464
  393POPC   PO4 8436   9.708   2.725   9.164
  393POPC   GL1 8437   9.772   2.717   8.864
  393POPC   GL2 8438   9.808   2.902   8.864
  393POPC   C1A 8439   9.738   2.762   8.564
  393POPC   D2A 8440   9.736   2.806   8.264
  393POPC   C3A 8441   9.780   2.787   7.964
  393POPC   C4A 8442   9.703   2.768   7.664
  393POPC   C1B 8443   9.884   2.959   8.564
  393POPC   C2B 8444   9.894   3.019   8.264
  393POPC   C3B 8445   9.840   2.942   7.964
  393POPC   C4B 8446   9.914   2.953   7.664
  394POPC   NC3 8447  25.311  32.221   9.464
  394POPC   PO4 8448  25.293  32.247   9.164
  394POPC   GL1 8449  25.315  32.225   8.864
  394POPC   GL2 8450  25.341  32.371   8.864
  394POPC   C1A 8451  25.256  32.237   8.564
  394POPC   D2A 8452  25.233  32.204   8.264
  394POPC   C3A 8453  25.282  32.275   7.964
  394POPC   C4A 8454  25.250  32.292   7.664
  394POPC   C1B 8455  25.450  32.483   8.564
  394POPC   C2B 8456  25.425  32.436   8.264
  394POPC   C3B 8457  25.431  32.399   7.964
  394POPC   C4B 8458  25.471  32.479   7.664
  395POPC   NC3 8459  31.505   3.535   9.464
  395POPC   PO4 8460  31.425   3.577   9.164
  395POPC   GL1 8461  31.423   3.528   8.864
  395POPC   GL2 8462  31.462   3.620   8.864
  395POPC   C1A 8463  31.436   3.569   8.564
  395POPC   D2A 8464  31.426   3.588   8.264
  395POPC   C3A 8465  31.473   3.586   7.964
  395POPC   C4A 8466  31.518   3.524   7.664
  395POPC   C1B 8467  31.353   3.785   8.564
  395POPC   C2B 8468  31.389   3.739   8.264
  395POPC   C3B 8469  31.399   3.795   7.964
  395POPC   C4B 8470  31.386   3.775   7.664
  396POPC   NC3 8471   8.981   9.007   9.464
  396POPC   PO4 8472   8.953   8.928   9.164
  396POPC   GL1 8473   8.993   8.995   8.864
  396POPC   GL2 8474   8.953   8.808   8.864
  396POPC   C1A 8475   9.000   8.977   8.564
  396POPC   D2A 8476   8.972   8.942   8.264
  396POPC   C3A 8477   8.967   8.937   7.964
  396POPC   C4A 8478   8.989   9.005   7.664
  396POPC   C1B 8479   8.952   8.762   8.564
  396POPC   C2B 8480   8.967   8.709   8.264
  396POPC   C3B 8481   8.951   8.756   7.964
  396POPC   C4B 8482   8.925   8.739   7.664
  397POPC   NC3 8483   7.406   1.977   9.464
  397POPC   PO4 8484   7.381   2.030   9.164
  397POPC   GL1 8485   7.397   2.008   8.864
  397POPC   GL2 8486   7.515   1.938   8.864
  397POPC   C1A 8487   7.390   2.034   8.564
  397POPC   D2A 8488   7.410   2.035   8.264
  397POPC   C3A 8489   7.415   1.944   7.964
  397POPC   C4A 8490   7.468   1.946   7.664
  397POPC   C1B 8491   7.624   1.904   8.564
  397POPC   C2B 8492   7.584   1.871   8.264
  397POPC   C3B 8493   7.624   1.864   7.964
  397POPC   C4B 8494   7.591   1.873   7.664
  398POPC   NC3 8495   1.181   2.012   9.464
  398POPC   PO4 8496   1.250   1.974   9.164
  398POPC   GL1 8497   1.193   1.960   8.864
  398POPC   GL2 8498   1.334   2.030   8.864
  398POPC   C1A 8499   1.250   1.992   8.564
  398POPC   D2A 8500   1.180   2.011   8.264
  398POPC   C3A 8501   1.176   1.980   7.964
  398POPC   C4A 8502   1.255   1.962   7.664
  398POPC   C1B 8503   1.411   2.041   8.564
  398POPC   C2B 8504   1.436   2.071   8.264
  398POPC   C3B 8505   1.438   2.048   7.964
  398POPC   C4B 8506   1.414   2.016   7.664
  399POPC   NC3 8507  29.905  29.118   9.464
  399POPC   PO4 8508  29.925  29.165   9.164
  399POPC   GL1 8509  29.964  29.184   8.864
  399POPC   GL2 8510  30.014  29.173   8.864
  399POPC   C1A 8511  29.899  29.137   8.564
  399POPC   D2A 8512  29.894  29.156   8.264
  399POPC   C3A 8513  29.933  29.117   7.964
  399POPC   C4A 8514  29.894  29.166   7.664
  399POPC   C1B 8515  30.184  29.157   8.564
  399POPC   C2B 8516  30.191  29.158   8.264
  399POPC   C3B 8517  30.158  29.106   7.964
  399POPC   C4B 8518  30.188  29.151   7.664
  400POPC   NC3 8519  15.963  33.761   9.464
  400POPC   PO4 8520  15.968  33.779   9.164
  400POPC   GL1 8521  15.961  33.754   8.864
  400POPC   GL2 8522  15.888  33.650   8.864
  400POPC   C1A 8523  15.909  33.772   8.564
  400POPC   D2A 8524  16.005  33.814   8.264
  400POPC   C3A 8525  15.906  33.802   7.964
  400POPC   C4A 8526  15.913  33.819   7.664
  400POPC   C1B 8527  15.854  33.586   8.564
  400POPC   C2B 8528  15.923  33.563   8.264
  400POPC   C3B 8529  15.894  33.580   7.964
  400POPC   C4B 8530  15.887  33.603   7.664
  401POPC   NC3 8531  24.464  15.163   9.464
  401POPC   PO4 8532  24.475  15.226   9.164
  401POPC   GL1 8533  24.459  15.169   8.864
  401POPC   GL2 8534  24.385  15.113   8.864
  401POPC   C1A 8535  24.498  15.222   8.564
  401POPC   D2A 8536  24.469  15.161   8.264
  401POPC   C3A 8537  24.455  15.219   7.964
  401POPC   C4A 8538  24.484  15.202   7.664
  401POPC   C1B 8539  24.341  14.947   8.564
  401POPC   C2B 8540  24.325  14.969   8.264
  401POPC   C3B 8541  24.343  15.003   7.964
  401POPC   C4B 8542  24.329  14.971   7.664
  402POPC   NC3 8543   2.757  42.340   9.464
  402POPC   PO4 8544   2.720  42.297   9.164
  402POPC   GL1 8545   2.732  42.365   8.864
  402POPC   GL2 8546   2.864  42.362   8.864
  402POPC   C1A 8547   2.727  42.364   8.564
  402POPC   D2A 8548   2.757  42.302   8.264
  402POPC   C3A 8549   2.745  42.366   7.964
  402POPC   C4A 8550   2.762  42.335   7.664
  402POPC   C1B 8551   2.982  42.380   8.564
  402POPC   C2B 8552   2.980  42.324   8.264
  402POPC   C3B 8553   2.991  42.335   7.964
  402POPC   C4B 8554   2.981  42.378   7.664
  403POPC   NC3 8555  29.129  34.553   9.464
  403POPC   PO4 8556  29.185  34.574   9.164
  403POPC   GL1 8557  29.103  34.592   8.864
  403POPC   GL2 8558  29.120  34.738   8.864
  403POPC   C1A 8559  29.160  34.569   8.564
  403POPC   D2A 8560  29.139  34.548   8.264
  403POPC   C3A 8561  29.195  34.567   7.964
  403POPC   C4A 8562  29.137  34.624   7.664
  403POPC   C1B 8563  29.171  34.842   8.564
  403POPC   C2B 8564  29.143  34.826   8.264
  403POPC   C3B 8565  29.184  34.782   7.964
  403POPC   C4B 8566  29.158  34.874   7.664
  404POPC   NC3 8567  26.041  42.348   9.464
  404POPC   PO4 8568  26.015  42.301   9.164
  404POPC   GL1 8569  26.040  42.375   8.864
  404POPC   GL2 8570  26.073  42.250   8.864
  404POPC   C1A 8571  25.998  42.288   8.564
  404POPC   D2A 8572  25.998  42.318   8.264
  404POPC   C3A 8573  26.020  42.371   7.964
  404POPC   C4A 8574  26.064  42.366   7.664
  404POPC   C1B 8575  26.058  42.064   8.564
  404POPC   C2B 8576  26.091  42.057   8.264
  404POPC   C3B 8577  26.030  42.122   7.964
  404POPC   C4B 8578  26.065  42.048   7.664
  405POPC   NC3 8579   0.456  19.822   9.464
  405POPC   PO4 8580   0.408  19.818   9.164
  405POPC   GL1 8581   0.472  19.801   8.864
  405POPC   GL2 8582   0.525  19.883   8.864
  405POPC   C1A 8583   0.430  19.810   8.564
  405POPC   D2A 8584   0.435  19.872   8.264
  405POPC   C3A 8585   0.455  19.795   7.964
  405POPC   C4A 8586   0.411  19.824   7.664
  405POPC   C1B 8587   0.641  19.837   8.564
  405POPC   C2B 8588   0.696  19.799   8.264
  405POPC   C3B 8589   0.660  19.846   7.964
  405POPC   C4B 8590   0.691  19.863   7.664
  406POPC   NC3 8591  20.624  12.839   9.464
  406POPC   PO4 8592  20.597  12.820   9.164
  406POPC   GL1 8593  20.601  12.843   8.864
  406POPC   GL2 8594  20.607  12.982   8.864
  406POPC   C1A 8595  20.582  12.880   8.564
  406POPC   D2A 8596  20.633  12.834   8.264
  406POPC   C3A 8597  20.628  12.849   7.964
  406POPC   C4A 8598  20.650  12.870   7.664
  406POPC   C1B 8599  20.543  13.099   8.564
  406POPC   C2B 8600  20.551  13.105   8.264
  406POPC   C3B 8601  20.528  13.088   7.964
  406POPC   C4B 8602  20.572  13.099   7.664
  407POPC   NC3 8603  11.256  35.355   9.464
  407POPC   PO4 8604  11.301  35.391   9.164
  407POPC   GL1 8605  11.320  35.344   8.864
  407POPC   GL2 8606  11.381  35.298   8.864
  407POPC   C1A 8607  11.266  35.372   8.564
  407POPC   D2A 8608  11.293  35.302   8.264
  407POPC   C3A 8609  11.338  35.339   7.964
  407POPC   C4A 8610  11.328  35.400   7.664
  407POPC   C1B 8611  11.547  35.261   8.564
  407POPC   C2B 8612  11.565  35.248   8.264
  407POPC   C3B 8613  11.546  35.242   7.964
  407POPC   C4B 8614  11.481  35.290   7.664
  408POPC   NC3 8615  14.402  12.830   9.464
  408POPC   PO4 8616  14.394  12.890   9.164
  408POPC   GL1 8617  14.359  12.814   8.864
  408POPC   GL2 8618  14.265  12.840   8.864
  408POPC   C1A 8619  14.367  12.882   8.564
  408POPC   D2A 8620  14.374  12.896   8.264
  408POPC   C3A 8621  14.452  12.890   7.964
  408POPC   C4A 8622  14.438  12.900   7.664
  408POPC   C1B 8623  14.123  12.914   8.564
  408POPC   C2B 8624  14.123  12.946   8.264
  408POPC   C3B 8625  14.201  12.890   7.964
  408POPC   C4B 8626  14.156  12.902   7.664
  409POPC   NC3 8627  32.286  16.702   9.464
  409POPC   PO4 8628  32.251  16.705   9.164
  409POPC   GL1 8629  32.273  16.699   8.864
  409POPC   GL2 8630  32.170  16.755   8.864
  409POPC   C1A 8631  32.209  16.753   8.564
  409POPC   D2A 8632  32.230  16.767   8.264
  409POPC   C3A 8633  32.260  16.687   7.964
  409POPC   C4A 8634  32.241  16.740   7.664
  409POPC   C1B 8635  31.978  16.808   8.564
  409POPC   C2B 8636  32.059  16.830   8.264
  409POPC   C3B 8637  31.991  16.793   7.964
  409POPC   C4B 8638  32.054  16.804   7.664
  410POPC   NC3 8639  34.550  30.719   9.464
  410POPC   PO4 8640  34.599  30.689   9.164
  410POPC   GL1 8641  34.565  30.668   8.864
  410POPC   GL2 8642  34.578  30.857   8.864
  410POPC   C1A 8643  34.527  30.676   8.564
  410POPC   D2A 8644  34.529  30.676   8.264
  410POPC   C3A 8645  34.561  30.712   7.964
  410POPC   C4A 8646  34.589  30.720   7.664
  410POPC   C1B 8647  34.559  30.945   8.564
  410POPC   C2B 8648  34.605  30.977   8.264
  410POPC   C3B 8649  34.604  30.954   7.964
  410POPC   C4B 8650  34.526  30.959   7.664
  411POPC   NC3 8651  44.684  12.116   9.464
  411POPC   PO4 8652  44.703  12.031   9.164
  411POPC   GL1 8653  44.670  12.110   8.864
  411POPC   GL2 8654  44.571  12.024   8.864
  411POPC   C1A 8655  44.659  12.032   8.564
  411POPC   D2A 8656  44.622  12.104   8.264
  411POPC   C3A 8657  44.629  12.099   7.964
  411POPC   C4A 8658  44.696  12.083   7.664
  411POPC   C1B 8659  44.510  11.880   8.564
  411POPC   C2B 8660  44.513  11.899   8.264
  411POPC   C3B 8661  44.471  11.896   7.964
  411POPC   C4B 8662  44.521  11.874   7.664
  412POPC   NC3 8663  39.264  16.746   9.464
  412POPC   PO4 8664  39.207  16.711   9.164
  412POPC   GL1 8665  39.238  16.760   8.864
  412POPC   GL2 8666  39.386  16.650   8.864
  412POPC   C1A 8667  39.230  16.716   8.564
  412POPC   D2A 8668  39.239  16.724   8.264
  412POPC   C3A 8669  39.253  16.753   7.964
  412POPC   C4A 8670  39.247  16.682   7.664
  412POPC   C1B 8671  39.499  16.631   8.564
  412POPC   C2B 8672  39.439  16.587   8.264
  412POPC   C3B 8673  39.471  16.655   7.964
  412POPC   C4B 8674  39.432  16.620   7.664
  413POPC   NC3 8675  32.211  25.271   9.464
  413POPC   PO4 8676  32.240  25.293   9.164
  413POPC   GL1 8677  32.248  25.219   8.864
  413POPC   GL2 8678  32.261  25.104   8.864
  413POPC   C1A 8679  32.262  25.294   8.564
  413POPC   D2A 8680  32.237  25.301   8.264
  413POPC   C3A 8681  32.285  25.288   7.964
  413POPC   C4A 8682  32.238  25.219   7.664
  413POPC   C1B 8683  32.338  24.983   8.564
  413POPC   C2B 8684  32.301  25.025   8.264
  413POPC   C3B 8685  32.375  24.993   7.964
  413POPC   C4B 8686  32.383  24.999   7.664
  414POPC   NC3 8687  21.407  41.533   9.464
  414POPC   PO4 8688  21.397  41.528   9.164
  414POPC   GL1 8689  21.342  41.535   8.864
  414POPC   GL2 8690  21.447  41.653   8.864
  414POPC   C1A 8691  21.350  41.541   8.564
  414POPC   D2A 8692  21.345  41.514   8.264
  414POPC   C3A 8693  21.362  41.584   7.964
  414POPC   C4A 8694  21.370  41.558   7.664
  414POPC   C1B 8695  21.481  41.795   8.564
  414POPC   C2B 8696  21.517  41.748   8.264
  414POPC   C3B 8697  21.488  41.777   7.964
  414POPC   C4B 8698  21.470  41.768   7.664
  415POPC   NC3 8699  29.166  29.194   9.464
  415POPC   PO4 8700  29.171  29.104   9.164
  415POPC   GL1 8701  29.136  29.159   8.864
  415POPC   GL2 8702  29.157  29.064   8.864
  415POPC   C1A 8703  29.174  29.187   8.564
  415POPC   D2A 8704  29.114  29.128   8.264
  415POPC   C3A 8705  29.190  29.154   7.964
  415POPC   C4A 8706  29.116  29.116   7.664
  415POPC   C1B 8707  29.058  28.921   8.564
  415POPC   C2B 8708  29.069  28.868   8.264
  415POPC   C3B 8709  29.083  28.871   7.964
  415POPC   C4B 8710  29.086  28.869   7.664
  416POPC   NC3 8711  31.452  33.073   9.464
  416POPC   PO4 8712  31.424  33.009   9.164
  416POPC   GL1 8713  31.449  33.000   8.864
  416POPC   GL2 8714  31.569  32.970   8.864
  416POPC   C1A 8715  31.432  32.988   8.564
  416POPC   D2A 8716  31.428  33.059   8.264
  416POPC   C3A 8717  31.475  33.044   7.964
  416POPC   C4A 8718  31.451  33.035   7.664
  416POPC   C1B 8719  31.651  32.860   8.564
  416POPC   C2B 8720  31.701  32.905   8.264
  416POPC   C3B 8721  31.646  32.919   7.964
  416POPC   C4B 8722  31.632  32.843   7.664
  417POPC   NC3 8723  41.536  36.117   9.464
  417POPC   PO4 8724  41.579  36.115   9.164
  417POPC   GL1 8725  41.605  36.091   8.864
  417POPC   GL2 8726  41.439  35.986   8.864
  417POPC   C1A 8727  41.526  36.108   8.564
  417POPC   D2A 8728  41.595  36.111   8.264
  417POPC   C3A 8729  41.530  36.150   7.964
  417POPC   C4A 8730  41.537  36.136   7.664
  417POPC   C1B 8731  41.380  35.915   8.564
  417POPC   C2B 8732  41.421  35.947   8.264
  417POPC   C3B 8733  41.419  35.962   7.964
  417POPC   C4B 8734  41.390  35.900   7.664
  418POPC   NC3 8735  33.018  28.377   9.464
  418POPC   PO4 8736  32.992  28.415   9.164
  418POPC   GL1 8737  33.024  28.401   8.864
  418POPC   GL2 8738  32.903  28.451   8.864
  418POPC   C1A 8739  32.984  28.349   8.564
  418POPC   D2A 8740  33.054  28.400   8.264
  418POPC   C3A 8741  33.039  28.343   7.964
  418POPC   C4A 8742  33.066  28.337   7.664
  418POPC   C1B 8743  32.866  28.541   8.564
  418POPC   C2B 8744  32.895  28.526   8.264
  418POPC   C3B 8745  32.802  28.533   7.964
  418POPC   C4B 8746  32.871  28.509   7.664
  419POPC   NC3 8747  41.534  37.665   9.464
  419POPC   PO4 8748  41.568  37.680   9.164
  419POPC   GL1 8749  41.576  37.709   8.864
  419POPC   GL2 8750  41.439  37.733   8.864
  419POPC   C1A 8751  41.516  37.689   8.564
  419POPC   D2A 8752  41.545  37.657   8.264
  419POPC   C3A 8753  41.584  37.664   7.964
  419POPC   C4A 8754  41.567  37.649   7.664
  419POPC   C1B 8755  41.291  37.727   8.564
  419POPC   C2B 8756  41.290  37.726   8.264
  419POPC   C3B 8757  41.354  37.741   7.964
  419POPC   C4B 8758  41.353  37.754   7.664
  420POPC   NC3 8759  34.544  21.428   9.464
  420POPC   PO4 8760  34.578  21.354   9.164
  420POPC   GL1 8761  34.594  21.380   8.864
  420POPC   GL2 8762  34.701  21.320   8.864
  420POPC   C1A 8763  34.552  21.338   8.564
  420POPC   D2A 8764  34.616  21.391   8.264
  420POPC   C3A 8765  34.577  21.373   7.964
  420POPC   C4A 8766  34.554  21.370   7.664
  420POPC   C1B 8767  34.841  21.257   8.564
  420POPC   C2B 8768  34.763  21.272   8.264
  420POPC   C3B 8769  34.784  21.247   7.964
  420POPC   C4B 8770  34.846  21.278   7.664
  421POPC   NC3 8771  17.477   9.795   9.464
  421POPC   PO4 8772  17.480   9.790   9.164
  421POPC   GL1 8773  17.552   9.793   8.864
  421POPC   GL2 8774  17.380   9.843   8.864
  421POPC   C1A 8775  17.476   9.707   8.564
  421POPC   D2A 8776  17.551   9.736   8.264
  421POPC   C3A 8777  17.541   9.727   7.964
  421POPC   C4A 8778  17.500   9.749   7.664
  421POPC   C1B 8779  17.303   9.883   8.564
  421POPC   C2B 8780  17.349   9.959   8.264
  421POPC   C3B 8781  17.356   9.886   7.964
  421POPC   C4B 8782  17.309   9.932   7.664
  422POPC   NC3 8783   5.108  31.449   9.464
  422POPC   PO4 8784   5.058  31.502   9.164
  422POPC   GL1 8785   5.108  31.490   8.864
  422POPC   GL2 8786   5.179  31.485   8.864
  422POPC   C1A 8787   5.103  31.470   8.564
  422POPC   D2A 8788   5.094  31.518   8.264
  422POPC   C3A 8789   5.057  31.430   7.964
  422POPC   C4A 8790   5.090  31.507   7.664
  422POPC   C1B 8791   5.293  31.492   8.564
  422POPC   C2B 8792   5.319  31.447   8.264
  422POPC   C3B 8793   5.339  31.503   7.964
  422POPC   C4B 8794   5.356  31.494   7.664
  423POPC   NC3 8795  18.248   0.442   9.464
  423POPC   PO4 8796  18.329   0.474   9.164
  423POPC   GL1 8797  18.325   0.471   8.864
  423POPC   GL2 8798  18.371   0.322   8.864
  423POPC   C1A 8799  18.294   0.418   8.564
  423POPC   D2A 8800  18.267   0.392   8.264
  423POPC   C3A 8801  18.294   0.480   7.964
  423POPC   C4A 8802  18.268   0.446   7.664
  423POPC   C1B 8803  18.414   0.214   8.564
  423POPC   C2B 8804  18.474   0.198   8.264
  423POPC   C3B 8805  18.458   0.240   7.964
  423POPC   C4B 8806  18.459   0.273   7.664
  424POPC   NC3 8807  19.822  40.739   9.464
  424POPC   PO4 8808  19.881  40.827   9.164
  424POPC   GL1 8809  19.871  40.772   8.864
  424POPC   GL2 8810  19.926  40.833   8.864
  424POPC   C1A 8811  19.830  40.803   8.564
  424POPC   D2A 8812  19.878  40.733   8.264
  424POPC   C3A 8813  19.839  40.792   7.964
  424POPC   C4A 8814  19.867  40.782   7.664
  424POPC   C1B 8815  20.076  40.846   8.564
  424POPC   C2B 8816  20.048  40.854   8.264
  424POPC   C3B 8817  20.106  40.847   7.964
  424POPC   C4B 8818  20.033  40.797   7.664
  425POPC   NC3 8819   3.499  12.082   9.464
  425POPC   PO4 8820   3.515  12.106   9.164
  425POPC   GL1 8821   3.493  12.056   8.864
  425POPC   GL2 8822   3.644  12.207   8.864
  425POPC   C1A 8823   3.570  12.030   8.564
  425POPC   D2A 8824   3.574  12.081   8.264
  425POPC   C3A 8825   3.501  12.081   7.964
  425POPC   C4A 8826   3.513  12.083   7.664
  425POPC   C1B 8827   3.747  12.320   8.564
  425POPC   C2B 8828   3.673  12.232   8.264
  425POPC   C3B 8829   3.730  12.302   7.964
  425POPC   C4B 8830   3.737  12.308   7.664
  426POPC   NC3 8831  12.827  30.667   9.464
  426POPC   PO4 8832  12.823  30.683   9.164
  426POPC   GL1 8833  12.812  30.692   8.864
  426POPC   GL2 8834  12.882  30.550   8.864
  426POPC   C1A 8835  12.857  30.659   8.564
  426POPC   D2A 8836  12.850  30.686   8.264
  426POPC   C3A 8837  12.854  30.690   7.964
  426POPC   C4A 8838  12.883  30.693   7.664
  426POPC   C1B 8839  12.859  30.406   8.564
  426POPC   C2B 8840  12.816  30.472   8.264
  426POPC   C3B 8841  12.781  30.400   7.964
  426POPC   C4B 8842  12.838  30.416   7.664
  427POPC   NC3 8843  42.351  32.286   9.464
  427POPC   PO4 8844  42.300  32.218   9.164
  427POPC   GL1 8845  42.309  32.265   8.864
  427POPC   GL2 8846  42.485  32.275   8.864
  427POPC   C1A 8847  42.343  32.294   8.564
  427POPC   D2A 8848  42.381  32.283   8.264
  427POPC   C3A 8849  42.313  32.198   7.964
  427POPC   C4A 8850  42.331  32.202   7.664
  427POPC   C1B 8851  42.560  32.245   8.564
  427POPC   C2B 8852  42.622  32.263   8.264
  427POPC   C3B 8853  42.566  32.271   7.964
  427POPC   C4B 8854  42.604  32.194   7.664
  428POPC   NC3 8855   3.536  29.884   9.464
  428POPC   PO4 8856   3.513  29.932   9.164
  428POPC   GL1 8857   3.544  29.954   8.864
  428POPC   GL2 8858   3.609  30.058   8.864
  428POPC   C1A 8859   3.575  29.944   8.564
  428POPC   D2A 8860   3.497  29.964   8.264
  428POPC   C3A 8861   3.576  29.911   7.964
  428POPC   C4A 8862   3.499  29.913   7.664
  428POPC   C1B 8863   3.689  30.087   8.564
  428POPC   C2B 8864   3.687  30.087   8.264
  428POPC   C3B 8865   3.705  30.086   7.964
  428POPC   C4B 8866   3.727  30.084   7.664
  429POPC   NC3 8867  36.082  24.450   9.464
  429POPC   PO4 8868  36.079  24.528   9.164
  429POPC   GL1 8869  36.110  24.533   8.864
  429POPC   GL2 8870  36.039  24.409   8.864
  429POPC   C1A 8871  36.156  24.484   8.564
  429POPC   D2A 8872  36.107  24.467   8.264
  429POPC   C3A 8873  36.084  24.479   7.964
  429POPC   C4A 8874  36.154  24.526   7.664
  429POPC   C1B 8875  35.880  24.465   8.564
  429POPC   C2B 8876  35.900  24.431   8.264
  429POPC   C3B 8877  35.849  24.371   7.964
  429POPC   C4B 8878  35.844  24.450   7.664
  430POPC   NC3 8879  31.449  31.499   9.464
  430POPC   PO4 8880  31.473  31.445   9.164
  430POPC   GL1 8881  31.493  31.471   8.864
  430POPC   GL2 8882  31.554  31.364   8.864
  430POPC   C1A 8883  31.501  31.484   8.564
  430POPC   D2A 8884  31.425  31.469   8.264
  430POPC   C3A 8885  31.488  31.475   7.964
  430POPC   C4A 8886  31.447  31.433   7.664
  430POPC   C1B 8887  31.592  31.233   8.564
  430POPC   C2B 8888  31.561  31.202   8.264
  430POPC   C3B 8889  31.548  31.229   7.964
  430POPC   C4B 8890  31.506  31.254   7.664
  431POPC   NC3 8891  29.151  11.276   9.464
  431POPC   PO4 8892  29.105  11.266   9.164
  431POPC   GL1 8893  29.136  11.300   8.864
  431POPC   GL2 8894  29.096  11.197   8.864
  431POPC   C1A 8895  29.100  11.258   8.564
  431POPC   D2A 8896  29.162  11.287   8.264
  431POPC   C3A 8897  29.136  11.258   7.964
  431POPC   C4A 8898  29.170  11.331   7.664
  431POPC   C1B 8899  28.905  11.103   8.564
  431POPC   C2B 8900  28.992  11.124   8.264
  431POPC   C3B 8901  28.903  11.139   7.964
  431POPC   C4B 8902  28.907  11.154   7.664
  432POPC   NC3 8903   2.716  22.954   9.464
  432POPC   PO4 8904   2.796  22.984   9.164
  432POPC   GL1 8905   2.791  22.899   8.864
  432POPC   GL2 8906   2.868  22.910   8.864
  432POPC   C1A 8907   2.723  22.965   8.564
  432POPC   D2A 8908   2.718  22.889   8.264
  432POPC   C3A 8909   2.725  22.900   7.964
  432POPC   C4A 8910   2.780  22.910   7.664
  432POPC   C1B 8911   2.925  22.822   8.564
  432POPC   C2B 8912   2.924  22.789   8.264
  432POPC   C3B 8913   3.004  22.778   7.964
  432POPC   C4B 8914   2.947  22.811   7.664
  433POPC   NC3 8915   2.722   0.470   9.464
  433POPC   PO4 8916   2.720   0.445   9.164
  433POPC   GL1 8917   2.792   0.405   8.864
  433POPC   GL2 8918   2.694   0.394   8.864
  433POPC   C1A 8919   2.718   0.404   8.564
  433POPC   D2A 8920   2.793   0.468   8.264
  433POPC   C3A 8921   2.774   0.479   7.964
  433POPC   C4A 8922   2.740   0.414   7.664
  433POPC   C1B 8923   2.506   0.386   8.564
  433POPC   C2B 8924   2.535   0.346   8.264
  433POPC   C3B 8925   2.545   0.407   7.964
  433POPC   C4B 8926   2.479   0.339   7.664
  434POPC   NC3 8927  44.712  28.346   9.464
  434POPC   PO4 8928  44.662  28.348   9.164
  434POPC   GL1 8929  44.709  28.353   8.864
  434POPC   GL2 8930  44.533  28.461   8.864
  434POPC   C1A 8931  44.709  28.406   8.564
  434POPC   D2A 8932  44.711  28.378   8.264
  434POPC   C3A 8933  44.668  28.398   7.964
  434POPC   C4A 8934  44.671  28.372   7.664
  434POPC   C1B 8935  44.500  28.537   8.564
  434POPC   C2B 8936  44.490  28.566   8.264
  434POPC   C3B 8937  44.494  28.560   7.964
  434POPC   C4B 8938  44.515  28.549   7.664
  435POPC   NC3 8939  30.743  40.041   9.464
  435POPC   PO4 8940  30.741  40.039   9.164
  435POPC   GL1 8941  30.721  39.982   8.864
  435POPC   GL2 8942  30.729  40.079   8.864
  435POPC   C1A 8943  30.651  40.014   8.564
  435POPC   D2A 8944  30.657  40.039   8.264
  435POPC   C3A 8945  30.651  40.054   7.964
  435POPC   C4A 8946  30.675  40.026   7.664
  435POPC   C1B 8947  30.765  40.186   8.564
  435POPC   C2B 8948  30.786  40.261   8.264
  435POPC   C3B 8949  30.778  40.241   7.964
  435POPC   C4B 8950  30.849  40.272   7.664
  436POPC   NC3 8951  12.085  29.169   9.464
  436POPC   PO4 8952  12.080  29.179   9.164
  436POPC   GL1 8953  12.041  29.117   8.864
  436POPC   GL2 8954  12.043  29.317   8.864
  436POPC   C1A 8955  12.056  29.179   8.564
  436POPC   D2A 8956  12.107  29.168   8.264
  436POPC   C3A 8957  12.058  29.191   7.964
  436POPC   C4A 8958  12.042  29.159   7.664
  436POPC   C1B 8959  12.013  29.351   8.564
  436POPC   C2B 8960  12.018  29.398   8.264
  436POPC   C3B 8961  12.072  29.437   7.964
  436POPC   C4B 8962  12.056  29.410   7.664
  437POPC   NC3 8963   5.132  29.952   9.464
  437POPC   PO4 8964   5.084  29.937   9.164
  437POPC   GL1 8965   5.062  29.967   8.864
  437POPC   GL2 8966   5.178  30.004   8.864
  437POPC   C1A 8967   5.073  29.903   8.564
  437POPC   D2A 8968   5.123  29.963   8.264
  437POPC   C3A 8969   5.076  29.925   7.964
  437POPC   C4A 8970   5.045  29.948   7.664
  437POPC   C1B 8971   5.118  30.161   8.564
  437POPC   C2B 8972   5.177  30.128   8.264
  437POPC   C3B 8973   5.203  30.114   7.964
  437POPC   C4B 8974   5.151  30.191   7.664
  438POPC   NC3 8975  31.521  36.930   9.464
  438POPC   PO4 8976  31.441  36.949   9.164
  438POPC   GL1 8977  31.459  36.880   8.864
  438POPC   GL2 8978  31.336  36.891   8.864
  438POPC   C1A 8979  31.451  36.928   8.564
  438POPC   D2A 8980  31.449  36.879   8.264
  438POPC   C3A 8981  31.495  36.866   7.964
  438POPC   C4A 8982  31.499  36.917   7.664
  438POPC   C1B 8983  31.198  36.809   8.564
  438POPC   C2B 8984  31.193  36.816   8.264
  438POPC   C3B 8985  31.201  36.805   7.964
  438POPC   C4B 8986  31.245  36.867   7.664
  439POPC   NC3 8987  33.763  22.208   9.464
  439POPC   PO4 8988  33.802  22.204   9.164
  439POPC   GL1 8989  33.791  22.209   8.864
  439POPC   GL2 8990  33.890  22.032   8.864
  439POPC   C1A 8991  33.770  22.120   8.564
  439POPC   D2A 8992  33.756  22.146   8.264
  439POPC   C3A 8993  33.797  22.192   7.964
  439POPC   C4A 8994  33.769  22.185   7.664
  439POPC   C1B 8995  33.921  22.021   8.564
  439POPC   C2B 8996  33.936  21.954   8.264
  439POPC   C3B 8997  33.954  21.990   7.964
  439POPC   C4B 8998  33.998  21.950   7.664
  440POPC   NC3 8999  26.784  13.661   9.464
  440POPC   PO4 9000  26.866  13.644   9.164
  440POPC   GL1 9001  26.807  13.602   8.864
  440POPC   GL2 9002  26.887  13.751   8.864
  440POPC   C1A 9003  26.798  13.666   8.564
  440POPC   D2A 9004  26.817  13.639   8.264
  440POPC   C3A 9005  26.843  13.662   7.964
  440POPC   C4A 9006  26.843  13.651   7.664
  440POPC   C1B 9007  26.934  13.845   8.564
  440POPC   C2B 9008  26.951  13.888   8.264
  440POPC   C3B 9009  26.947  13.892   7.964
  440POPC   C4B 9010  26.909  13.830   7.664
  441POPC   NC3 9011  22.987  43.074   9.464
  441POPC   PO4 9012  22.950  43.061   9.164
  441POPC   GL1 9013  22.947  43.083   8.864
  441POPC   GL2 9014  22.983  42.942   8.864
  441POPC   C1A 9015  22.907  43.136   8.564
  441POPC   D2A 9016  22.948  43.119   8.264
  441POPC   C3A 9017  22.965  43.082   7.964
  441POPC   C4A 9018  22.936  43.105   7.664
  441POPC   C1B 9019  22.985  42.881   8.564
  441POPC   C2B 9020  22.987  42.824   8.264
  441POPC   C3B 9021  22.961  42.829   7.964
  441POPC   C4B 9022  22.999  42.835   7.664
  442POPC   NC3 9023   5.091  17.553   9.464
  442POPC   PO4 9024   5.063  17.479   9.164
  442POPC   GL1 9025   5.103  17.478   8.864
  442POPC   GL2 9026   5.187  17.494   8.864
  442POPC   C1A 9027   5.093  17.484   8.564
  442POPC   D2A 9028   5.134  17.477   8.264
  442POPC   C3A 9029   5.073  17.484   7.964
  442POPC   C4A 9030   5.101  17.481   7.664
  442POPC   C1B 9031   5.291  17.468   8.564
  442POPC   C2B 9032   5.295  17.410   8.264
  442POPC   C3B 9033   5.339  17.424   7.964
  442POPC   C4B 9034   5.353  17.395   7.664
  443POPC   NC3 9035  11.339   8.965   9.464
  443POPC   PO4 9036  11.261   9.016   9.164
  443POPC   GL1 9037  11.339   8.955   8.864
  443POPC   GL2 9038  11.209   9.073   8.864
  443POPC   C1A 9039  11.285   8.990   8.564
  443POPC   D2A 9040  11.287   8.939   8.264
  443POPC   C3A 9041  11.251   8.982   7.964
  443POPC   C4A 9042  11.298   9.012   7.664
  443POPC   C1B 9043  11.211   9.163   8.564
  443POPC   C2B 9044  11.143   9.223   8.264
  443POPC   C3B 9045  11.163   9.152   7.964
  443POPC   C4B 9046  11.163   9.144   7.664
  444POPC   NC3 9047   5.841   6.662   9.464
  444POPC   PO4 9048   5.853   6.654   9.164
  444POPC   GL1 9049   5.904   6.639   8.864
  444POPC   GL2 9050   5.755   6.615   8.864
  444POPC   C1A 9051   5.891   6.664   8.564
  444POPC   D2A 9052   5.875   6.609   8.264
  444POPC   C3A 9053   5.836   6.632   7.964
  444POPC   C4A 9054   5.861   6.686   7.664
  444POPC   C1B 9055   5.590   6.689   8.564
  444POPC   C2B 9056   5.647   6.627   8.264
  444POPC   C3B 9057   5.574   6.697   7.964
  444POPC   C4B 9058   5.573   6.615   7.664
  445POPC   NC3 9059  35.351  10.573   9.464
  445POPC   PO4 9060  35.339  10.508   9.164
  445POPC   GL1 9061  35.347  10.559   8.864
  445POPC   GL2 9062  35.330  10.449   8.864
  445POPC   C1A 9063  35.356  10.524   8.564
  445POPC   D2A 9064  35.310  10.525   8.264
  445POPC   C3A 9065  35.378  10.558   7.964
  445POPC   C4A 9066  35.337  10.493   7.664
  445POPC   C1B 9067  35.256  10.249   8.564
  445POPC   C2B 9068  35.341  10.286   8.264
  445POPC   C3B 9069  35.248  10.286   7.964
  445POPC   C4B 9070  35.329  10.283   7.664
  446POPC   NC3 9071   1.964  39.195   9.464
  446POPC   PO4 9072   2.013  39.227   9.164
  446POPC   GL1 9073   2.022  39.241   8.864
  446POPC   GL2 9074   2.089  39.181   8.864
  446POPC   C1A 9075   2.023  39.203   8.564
  446POPC   D2A 9076   1.994  39.210   8.264
  446POPC   C3A 9077   1.946  39.278   7.964
  446POPC   C4A 9078   2.000  39.266   7.664
  446POPC   C1B 9079   2.242  39.162   8.564
  446POPC   C2B 9080   2.181  39.194   8.264
  446POPC   C3B 9081   2.214  39.172   7.964
  446POPC   C4B 9082   2.192  39.187   7.664
  447POPC   NC3 9083   6.644  30.673   9.464
  447POPC   PO4 9084   6.620  30.724   9.164
  447POPC   GL1 9085   6.656  30.687   8.864
  447POPC   GL2 9086   6.721  30.769   8.864
  447POPC   C1A 9087   6.608  30.711   8.564
  447POPC   D2A 9088   6.625  30.659   8.264
  447POPC   C3A 9089   6.675  30.737   7.964
  447POPC   C4A 9090   6.623  30.707   7.664
  447POPC   C1B 9091   6.839  30.793   8.564
  447POPC   C2B 9092   6.847  30.790   8.264
  447POPC   C3B 9093   6.908  30.766   7.964
  447POPC   C4B 9094   6.883  30.810   7.664
  448POPC   NC3 9095   7.452  38.499   9.464
  448POPC   PO4 9096   7.470  38.449   9.164
  448POPC   GL1 9097   7.375  38.458   8.864
  448POPC   GL2 9098   7.286  38.520   8.864
  448POPC   C1A 9099   7.462  38.492   8.564
  448POPC   D2A 9100   7.377  38.443   8.264
  448POPC   C3A 9101   7.371  38.468   7.964
  448POPC   C4A 9102   7.446  38.434   7.664
  448POPC   C1B 9103   7.209  38.552   8.564
  448POPC   C2B 9104   7.235  38.566   8.264
  448POPC   C3B 9105   7.209  38.626   7.964
  448POPC   C4B 9106   7.243  38.639   7.664
  449POPC   NC3 9107   6.621  21.367   9.464
  449POPC   PO4 9108   6.657  21.433   9.164
  449POPC   GL1 9109   6.638  21.378   8.864
  449POPC   GL2 9110   6.500  21.344   8.864
  449POPC   C1A 9111   6.675  21.416   8.564
  449POPC   D2A 9112   6.639  21.396   8.264
  449POPC   C3A 9113   6.681  21.337   7.964
  449POPC   C4A 9114   6.627  21.383   7.664
  449POPC   C1B 9115   6.458  21.320   8.564
  449POPC   C2B 9116   6.415  21.249   8.264
  449POPC   C3B 9117   6.441  21.238   7.964
  449POPC   C4B 9118   6.411  21.276   7.664
  450POPC   NC3 9119  16.692   9.783   9.464
  450POPC   PO4 9120  16.689   9.701   9.164
  450POPC   GL1 9121  16.695   9.735   8.864
  450POPC   GL2 9122  16.786   9.601   8.864
  450POPC   C1A 9123  16.706   9.742   8.564
  450POPC   D2A 9124  16.701   9.765   8.264
  450POPC   C3A 9125  16.713   9.737   7.964
  450POPC   C4A 9126  16.721   9.753   7.664
  450POPC   C1B 9127  16.818   9.483   8.564
  450POPC   C2B 9128  16.799   9.486   8.264
  450POPC   C3B 9129  16.823   9.477   7.964
  450POPC   C4B 9130  16.733   9.475   7.664
  451POPC   NC3 9131  31.443  21.398   9.464
  451POPC   PO4 9132  31.450  21.343   9.164
  451POPC   GL1 9133  31.512  21.416   8.864
  451POPC   GL2 9134  31.592  21.512   8.864
  451POPC   C1A 9135  31.444  21.376   8.564
  451POPC   D2A 9136  31.460  21.347   8.264
  451POPC   C3A 9137  31.474  21.360   7.964
  451POPC   C4A 9138  31.522  21.434   7.664
  451POPC   C1B 9139  31.616  21.520   8.564
  451POPC   C2B 9140  31.627  21.577   8.264
  451POPC   C3B 9141  31.680  21.534   7.964
  451POPC   C4B 9142  31.668  21.600   7.664
  452POPC   NC3 9143  15.919  38.473   9.464
  452POPC   PO4 9144  16.000  38.412   9.164
  452POPC   GL1 9145  15.955  38.465   8.864
  452POPC   GL2 9146  16.101  38.463   8.864
  452POPC   C1A 9147  15.906  38.467   8.564
  452POPC   D2A 9148  15.994  38.422   8.264
  452POPC   C3A 9149  15.920  38.501   7.964
  452POPC   C4A 9150  15.923  38.496   7.664
  452POPC   C1B 9151  16.157  38.478   8.564
  452POPC   C2B 9152  16.219  38.505   8.264
  452POPC   C3B 9153  16.205  38.453   7.964
  452POPC   C4B 9154  16.246  38.481   7.664
  453POPC   NC3 9155  13.646  30.649   9.464
  453POPC   PO4 9156  13.664  30.655   9.164
  453POPC   GL1 9157  13.597  30.670   8.864
  453POPC   GL2 9158  13.502  30.708   8.864
  453POPC   C1A 9159  13.600  30.722   8.564
  453POPC   D2A 9160  13.622  30.731   8.264
  453POPC   C3A 9161  13.599  30.700   7.964
  453POPC   C4A 9162  13.611  30.672   7.664
  453POPC   C1B 9163  13.383  30.776   8.564
  453POPC   C2B 9164  13.378  30.791   8.264
  453POPC   C3B 9165  13.418  30.752   7.964
  453POPC   C4B 9166  13.351  30.817   7.664
  454POPC   NC3 9167   9.786  37.647   9.464
  454POPC   PO4 9168   9.757  37.699   9.164
  454POPC   GL1 9169   9.764  37.681   8.864
  454POPC   GL2 9170   9.839  37.671   8.864
  454POPC   C1A 9171   9.751  37.631   8.564
  454POPC   D2A 9172   9.717  37.641   8.264
  454POPC   C3A 9173   9.710  37.634   7.964
  454POPC   C4A 9174   9.762  37.712   7.664
  454POPC   C1B 9175   9.951  37.684   8.564
  454POPC   C2B 9176   9.959  37.612   8.264
  454POPC   C3B 9177   9.972  37.612   7.964
  454POPC   C4B 9178   9.955  37.632   7.664
  455POPC   NC3 9179   0.453  17.507   9.464
  455POPC   PO4 9180   0.411  17.531   9.164
  455POPC   GL1 9181   0.487  17.551   8.864
  455POPC   GL2 9182   0.376  17.586   8.864
  455POPC   C1A 9183   0.448  17.485   8.564
  455POPC   D2A 9184   0.432  17.512   8.264
  455POPC   C3A 9185   0.445  17.549   7.964
  455POPC   C4A 9186   0.455  17.555   7.664
  455POPC   C1B 9187   0.261  17.578   8.564
  455POPC   C2B 9188   0.176  17.674   8.264
  455POPC   C3B 9189   0.207  17.600   7.964
  455POPC   C4B 9190   0.239  17.638   7.664
  456POPC   NC3 9191   7.404  20.597   9.464
  456POPC   PO4 9192   7.420  20.581   9.164
  456POPC   GL1 9193   7.411  20.660   8.864
  456POPC   GL2 9194   7.516  20.571   8.864
  456POPC   C1A 9195   7.438  20.650   8.564
  456POPC   D2A 9196   7.469  20.579   8.264
  456POPC   C3A 9197   7.396  20.647   7.964
  456POPC   C4A 9198   7.468  20.626   7.664
  456POPC   C1B 9199   7.658  20.530   8.564
  456POPC   C2B 9200   7.642  20.485   8.264
  456POPC   C3B 9201   7.655  20.470   7.964
  456POPC   C4B 9202   7.637  20.469   7.664
  457POPC   NC3 9203  32.985  39.989   9.464
  457POPC   PO4 9204  32.993  39.977   9.164
  457POPC   GL1 9205  33.001  40.031   8.864
  457POPC   GL2 9206  33.170  39.943   8.864
  457POPC   C1A 9207  33.072  39.997   8.564
  457POPC   D2A 9208  32.990  40.055   8.264
  457POPC   C3A 9209  33.059  39.982   7.964
  457POPC   C4A 9210  33.008  40.017   7.664
  457POPC   C1B 9211  33.267  39.868   8.564
  457POPC   C2B 9212  33.172  39.840   8.264
  457POPC   C3B 9213  33.201  39.811   7.964
  457POPC   C4B 9214  33.264  39.896   7.664
  458POPC   NC3 9215  18.250   9.788   9.464
  458POPC   PO4 9216  18.237   9.775   9.164
  458POPC   GL1 9217  18.305   9.709   8.864
  458POPC   GL2 9218  18.418   9.645   8.864
  458POPC   C1A 9219  18.239   9.752   8.564
  458POPC   D2A 9220  18.236   9.703   8.264
  458POPC   C3A 9221  18.255   9.763   7.964
  458POPC   C4A 9222  18.288   9.779   7.664
  458POPC   C1B 9223  18.523   9.681   8.564
  458POPC   C2B 9224  18.489   9.655   8.264
  458POPC   C3B 9225  18.529   9.659   7.964
  458POPC   C4B 9226  18.465   9.617   7.664
  459POPC   NC3 9227   9.752  44.678   9.464
  459POPC   PO4 9228   9.789  44.647   9.164
  459POPC   GL1 9229   9.723  44.617   8.864
  459POPC   GL2 9230   9.629  44.701   8.864
  459POPC   C1A 9231   9.762  44.656   8.564
  459POPC   D2A 9232   9.750  44.677   8.264
  459POPC   C3A 9233   9.757  44.697   7.964
  459POPC   C4A 9234   9.747  44.629   7.664
  459POPC   C1B 9235   9.518  44.836   8.564
  459POPC   C2B 9236   9.550  44.816   8.264
  459POPC   C3B 9237   9.562  44.802   7.964
  459POPC   C4B 9238   9.572  44.853   7.664
  460POPC   NC3 9239  27.556   1.995   9.464
  460POPC   PO4 9240  27.631   1.965   9.164
  460POPC   GL1 9241  27.590   1.956   8.864
  460POPC   GL2 9242  27.448   2.047   8.864
  460POPC   C1A 9243  27.586   2.032   8.564
  460POPC   D2A 9244  27.627   2.026   8.264
  460POPC   C3A 9245  27.582   2.011   7.964
  460POPC   C4A 9246  27.625   1.952   7.664
  460POPC   C1B 9247  27.316   2.041   8.564
  460POPC   C2B 9248  27.304   2.008   8.264
  460POPC   C3B 9249  27.355   2.078   7.964
  460POPC   C4B 9250  27.339   2.047   7.664
  461POPC   NC3 9251  38.473  32.298   9.464
  461POPC   PO4 9252  38.477  32.245   9.164
  461POPC   GL1 9253  38.493  32.205   8.864
  461POPC   GL2 9254  38.619  32.322   8.864
  461POPC   C1A 9255  38.493  32.275   8.564
  461POPC   D2A 9256  38.450  32.290   8.264
  461POPC   C3A 9257  38.495  32.226   7.964
  461POPC   C4A 9258  38.413  32.225   7.664
  461POPC   C1B 9259  38.681  32.285   8.564
  461POPC   C2B 9260  38.658  32.263   8.264
  461POPC   C3B 9261  38.697  32.344   7.964
  461POPC   C4B 9262  38.715  32.343   7.664
  462POPC   NC3 9263   4.346   4.279   9.464
  462POPC   PO4 9264   4.360   4.341   9.164
  462POPC   GL1 9265   4.287   4.352   8.864
  462POPC   GL2 9266   4.211   4.337   8.864
  462POPC   C1A 9267   4.344   4.311   8.564
  462POPC   D2A 9268   4.270   4.332   8.264
  462POPC   C3A 9269   4.317   4.321   7.964
  462POPC   C4A 9270   4.357   4.337   7.664
  462POPC   C1B 9271   4.032   4.371   8.564
  462POPC   C2B 9272   4.060   4.375   8.264
  462POPC   C3B 9273   4.068   4.445   7.964
  462POPC   C4B 9274   4.058   4.351   7.664
  463POPC   NC3 9275   3.588  15.141   9.464
  463POPC   PO4 9276   3.506  15.155   9.164
  463POPC   GL1 9277   3.551  15.141   8.864
  463POPC   GL2 9278   3.650  15.077   8.864
  463POPC   C1A 9279   3.561  15.145   8.564
  463POPC   D2A 9280   3.574  15.153   8.264
  463POPC   C3A 9281   3.574  15.177   7.964
  463POPC   C4A 9282   3.567  15.184   7.664
  463POPC   C1B 9283   3.634  15.000   8.564
  463POPC   C2B 9284   3.713  14.997   8.264
  463POPC   C3B 9285   3.660  14.960   7.964
  463POPC   C4B 9286   3.711  14.975   7.664
  464POPC   NC3 9287  25.225  16.688   9.464
  464POPC   PO4 9288  25.222  16.767   9.164
  464POPC   GL1 9289  25.224  16.700   8.864
  464POPC   GL2 9290  25.406  16.817   8.864
  464POPC   C1A 9291  25.305  16.701   8.564
  464POPC   D2A 9292  25.277  16.771   8.264
  464POPC   C3A 9293  25.299  16.754   7.964
  464POPC   C4A 9294  25.268  16.755   7.664
  464POPC   C1B 9295  25.440  16.904   8.564
  464POPC   C2B 9296  25.448  16.934   8.264
  464POPC   C3B 9297  25.461  16.939   7.964
  464POPC   C4B 9298  25.493  16.868   7.664
  465POPC   NC3 9299  22.982  29.137   9.464
  465POPC   PO4 9300  22.915  29.097   9.164
  465POPC   GL1 9301  22.916  29.132   8.864
  465POPC   GL2 9302  22.835  29.177   8.864
  465POPC   C1A 9303  22.933  29.130   8.564
  465POPC   D2A 9304  22.987  29.163   8.264
  465POPC   C3A 9305  22.917  29.116   7.964
  465POPC   C4A 9306  22.914  29.142   7.664
  465POPC   C1B 9307  22.748  29.286   8.564
  465POPC   C2B 9308  22.693  29.296   8.264
  465POPC   C3B 9309  22.763  29.254   7.964
  465POPC   C4B 9310  22.766  29.263   7.664
  466POPC   NC3 9311  15.937  12.880   9.464
  466POPC   PO4 9312  15.940  12.860   9.164
  466POPC   GL1 9313  15.969  12.810   8.864
  466POPC   GL2 9314  16.044  12.883   8.864
  466POPC   C1A 9315  15.922  12.810   8.564
  466POPC   D2A 9316  16.002  12.815   8.264
  466POPC   C3A 9317  16.000  12.828   7.964
  466POPC   C4A 9318  15.989  12.894   7.664
  466POPC   C1B 9319  16.204  12.961   8.564
  466POPC   C2B 9320  16.173  12.917   8.264
  466POPC   C3B 9321  16.189  12.918   7.964
  466POPC   C4B 9322  16.208  12.886   7.664
  467POPC   NC3 9323   7.382  27.642   9.464
  467POPC   PO4 9324   7.436  27.605   9.164
  467POPC   GL1 9325   7.388  27.570   8.864
  467POPC   GL2 9326   7.451  27.459   8.864
  467POPC   C1A 9327   7.397  27.627   8.564
  467POPC   D2A 9328   7.469  27.637   8.264
  467POPC   C3A 9329   7.415  27.605   7.964
  467POPC   C4A 9330   7.451  27.638   7.664
  467POPC   C1B 9331   7.433  27.354   8.564
  467POPC   C2B 9332   7.425  27.367   8.264
  467POPC   C3B 9333   7.430  27.363   7.964
  467POPC   C4B 9334   7.380  27.378   7.664
  468POPC   NC3 9335  26.024  16.706   9.464
  468POPC   PO4 9336  26.082  16.695   9.164
  468POPC   GL1 9337  26.027  16.681   8.864
  468POPC   GL2 9338  26.115  16.595   8.864
  468POPC   C1A 9339  26.046  16.694   8.564
  468POPC   D2A 9340  26.002  16.736   8.264
  468POPC   C3A 9341  25.995  16.740   7.964
  468POPC   C4A 9342  26.002  16.725   7.664
  468POPC   C1B 9343  26.130  16.459   8.564
  468POPC   C2B 9344  26.151  16.525   8.264
  468POPC   C3B 9345  26.158  16.534   7.964
  468POPC   C4B 9346  26.123  16.465   7.664
  469POPC   NC3 9347  30.685  34.571   9.464
  469POPC   PO4 9348  30.666  34.553   9.164
  469POPC   GL1 9349  30.745  34.597   8.864
  469POPC   GL2 9350  30.814  34.582   8.864
  469POPC   C1A 9351  30.729  34.548   8.564
  469POPC   D2A 9352  30.745  34.566   8.264
  469POPC   C3A 9353  30.659  34.539   7.964
  469POPC   C4A 9354  30.709  34.622   7.664
  469POPC   C1B 9355  30.887  34.643   8.564
  469POPC   C2B 9356  30.889  34.725   8.264
  469POPC   C3B 9357  30.960  34.727   7.964
  469POPC   C4B 9358  30.879  34.694   7.664
  470POPC   NC3 9359  16.717  43.903   9.464
  470POPC   PO4 9360  16.711  43.847   9.164
  470POPC   GL1 9361  16.733  43.855   8.864
  470POPC   GL2 9362  16.867  43.771   8.864
  470POPC   C1A 9363  16.773  43.918   8.564
  470POPC   D2A 9364  16.766  43.872   8.264
  470POPC   C3A 9365  16.766  43.910   7.964
  470POPC   C4A 9366  16.687  43.929   7.664
  470POPC   C1B 9367  16.948  43.700   8.564
  470POPC   C2B 9368  16.938  43.741   8.264
  470POPC   C3B 9369  16.952  43.693   7.964
  470POPC   C4B 9370  16.921  43.678   7.664
  471POPC   NC3 9371  36.140  15.215   9.464
  471POPC   PO4 9372  36.172  15.152   9.164
  471POPC   GL1 9373  36.164  15.227   8.864
  471POPC   GL2 9374  36.035  15.160   8.864
  471POPC   C1A 9375  36.153  15.208   8.564
  471POPC   D2A 9376  36.097  15.165   8.264
  471POPC   C3A 9377  36.161  15.153   7.964
  471POPC   C4A 9378  36.119  15.209   7.664
  471POPC   C1B 9379  35.834  15.168   8.564
  471POPC   C2B 9380  35.928  15.204   8.264
  471POPC   C3B 9381  35.925  15.233   7.964
  471POPC   C4B 9382  35.850  15.249   7.664
  472POPC   NC3 9383   1.962   3.544   9.464
  472POPC   PO4 9384   1.981   3.548   9.164
  472POPC   GL1 9385   1.946   3.515   8.864
  472POPC   GL2 9386   1.984   3.612   8.864
  472POPC   C1A 9387   2.021   3.551   8.564
  472POPC   D2A 9388   2.039   3.565   8.264
  472POPC   C3A 9389   1.982   3.502   7.964
  472POPC   C4A 9390   2.001   3.566   7.664
  472POPC   C1B 9391   1.937   3.804   8.564
  472POPC   C2B 9392   1.922   3.793   8.264
  472POPC   C3B 9393   1.909   3.786   7.964
  472POPC   C4B 9394   1.859   3.761   7.664
  473POPC   NC3 9395  31.496  13.641   9.464
  473POPC   PO4 9396  31.429  13.658   9.164
  473POPC   GL1 9397  31.444  13.609   8.864
  473POPC   GL2 9398  31.625  13.591   8.864
  473POPC   C1A 9399  31.505  13.634   8.564
  473POPC   D2A 9400  31.436  13.584   8.264
  473POPC   C3A 9401  31.500  13.649   7.964
  473POPC   C4A 9402  31.435  13.656   7.664
  473POPC   C1B 9403  31.719  13.509   8.564
  473POPC   C2B 9404  31.708  13.499   8.264
  473POPC   C3B 9405  31.651  13.470   7.964
  473POPC   C4B 9406  31.664  13.525   7.664
  474POPC   NC3 9407  22.129  27.576   9.464
  474POPC   PO4 9408  22.135  27.631   9.164
  474POPC   GL1 9409  22.128  27.615   8.864
  474POPC   GL2 9410  22.191  27.484   8.864
  474POPC   C1A 9411  22.113  27.550   8.564
  474POPC   D2A 9412  22.163  27.635   8.264
  474POPC   C3A 9413  22.122  27.577   7.964
  474POPC   C4A 9414  22.191  27.607   7.664
  474POPC   C1B 9415  22.250  27.391   8.564
  474POPC   C2B 9416  22.331  27.363   8.264
  474POPC   C3B 9417  22.261  27.428   7.964
  474POPC   C4B 9418  22.287  27.390   7.664
  475POPC   NC3 9419  14.378  32.262   9.464
  475POPC   PO4 9420  14.387  32.243   9.164
  475POPC   GL1 9421  14.398  32.243   8.864
  475POPC   GL2 9422  14.481  32.184   8.864
  475POPC   C1A 9423  14.361  32.207   8.564
  475POPC   D2A 9424  14.362  32.250   8.264
  475POPC   C3A 9425  14.358  32.211   7.964
  475POPC   C4A 9426  14.439  32.286   7.664
  475POPC   C1B 9427  14.503  32.069   8.564
  475POPC   C2B 9428  14.563  32.054   8.264
  475POPC   C3B 9429  14.570  32.071   7.964
  475POPC   C4B 9430  14.566  32.050   7.664
  476POPC   NC3 9431  20.600   8.176   9.464
  476POPC   PO4 9432  20.632   8.246   9.164
  476POPC   GL1 9433  20.570   8.170   8.864
  476POPC   GL2 9434  20.632   8.281   8.864
  476POPC   C1A 9435  20.575   8.153   8.564
  476POPC   D2A 9436  20.645   8.177   8.264
  476POPC   C3A 9437  20.610   8.195   7.964
  476POPC   C4A 9438  20.611   8.223   7.664
  476POPC   C1B 9439  20.669   8.417   8.564
  476POPC   C2B 9440  20.666   8.491   8.264
  476POPC   C3B 9441  20.645   8.432   7.964
  476POPC   C4B 9442  20.624   8.451   7.664
  477POPC   NC3 9443  37.682  26.045   9.464
  477POPC   PO4 9444  37.712  26.088   9.164
  477POPC   GL1 9445  37.713  26.004   8.864
  477POPC   GL2 9446  37.571  25.976   8.864
  477POPC   C1A 9447  37.686  26.055   8.564
  477POPC   D2A 9448  37.635  25.995   8.264
  477POPC   C3A 9449  37.665  26.037   7.964
  477POPC   C4A 9450  37.713  26.052   7.664
  477POPC   C1B 9451  37.567  25.832   8.564
  477POPC   C2B 9452  37.519  25.888   8.264
  477POPC   C3B 9453  37.563  25.874   7.964
  477POPC   C4B 9454  37.532  25.830   7.664
  478POPC   NC3 9455  29.935  12.802   9.464
  478POPC   PO4 9456  29.918  12.850   9.164
  478POPC   GL1 9457  29.924  12.860   8.864
  478POPC   GL2 9458  29.857  12.728   8.864
  478POPC   C1A 9459  29.890  12.887   8.564
  478POPC   D2A 9460  29.879  12.884   8.264
  478POPC   C3A 9461  29.927  12.820   7.964
  478POPC   C4A 9462  29.965  12.885   7.664
  478POPC   C1B 9463  29.847  12.604   8.564
  478POPC   C2B 9464  29.787  12.612   8.264
  478POPC   C3B 9465  29.846  12.628   7.964
  478POPC   C4B 9466  29.838  12.666   7.664
  479POPC   NC3 9467   4.333  32.979   9.464
  479POPC   PO4 9468   4.336  33.020   9.164
  479POPC   GL1 9469   4.290  33.048   8.864
  479POPC   GL2 9470   4.235  33.012   8.864
  479POPC   C1A 9471   4.320  33.060   8.564
  479POPC   D2A 9472   4.276  33.028   8.264
  479POPC   C3A 9473   4.341  33.024   7.964
  479POPC   C4A 9474   4.298  33.048   7.664
  479POPC   C1B 9475   4.107  32.921   8.564
  479POPC   C2B 9476   4.053  32.995   8.264
  479POPC   C3B 9477   4.101  32.942   7.964
  479POPC   C4B 9478   4.113  32.924   7.664
  480POPC   NC3 9479  44.700  14.402   9.464
  480POPC   PO4 9480  44.621  14.385   9.164
  480POPC   GL1 9481  44.709  14.368   8.864
  480POPC   GL2 9482  44.609  14.496   8.864
  480POPC   C1A 9483  44.625  14.452   8.564
  480POPC   D2A 9484  44.642  14.426   8.264
  480POPC   C3A 9485  44.662  14.423   7.964
  480POPC   C4A 9486  44.625  14.438   7.664
  480POPC   C1B 9487  44.590  14.665   8.564
  480POPC   C2B 9488  44.568  14.664   8.264
  480POPC   C3B 9489  44.552  14.641   7.964
  480POPC   C4B 9490  44.509  14.634   7.664
  481POPC   NC3 9491   1.262   2.741   9.464
  481POPC   PO4 9492   1.174   2.753   9.164
  481POPC   GL1 9493   1.164   2.774   8.864
  481POPC   GL2 9494   1.113   2.799   8.864
  481POPC   C1A 9495   1.170   2.755   8.564
  481POPC   D2A 9496   1.236   2.734   8.264
  481POPC   C3A 9497   1.249   2.746   7.964
  481POPC   C4A 9498   1.223   2.815   7.664
  481POPC   C1B 9499   1.006   2.762   8.564
  481POPC   C2B 9500   0.946   2.714   8.264
  481POPC   C3B 9501   0.989   2.754   7.964
  481POPC   C4B 9502   0.989   2.768   7.664
  482POPC   NC3 9503  11.302  23.745   9.464
  482POPC   PO4 9504  11.272  23.723   9.164
  482POPC   GL1 9505  11.288  23.666   8.864
  482POPC   GL2 9506  11.293  23.800   8.864
  482POPC   C1A 9507  11.311  23.738   8.564
  482POPC   D2A 9508  11.310  23.723   8.264
  482POPC   C3A 9509  11.310  23.683   7.964
  482POPC   C4A 9510  11.288  23.697   7.664
  482POPC   C1B 9511  11.365  23.946   8.564
  482POPC   C2B 9512  11.374  23.921   8.264
  482POPC   C3B 9513  11.347  23.968   7.964
  482POPC   C4B 9514  11.400  23.927   7.664
  483POPC   NC3 9515  40.782   9.014   9.464
  483POPC   PO4 9516  40.795   8.990   9.164
  483POPC   GL1 9517  40.810   9.004   8.864
  483POPC   GL2 9518  40.613   9.058   8.864
  483POPC   C1A 9519  40.791   9.010   8.564
  483POPC   D2A 9520  40.823   9.015   8.264
  483POPC   C3A 9521  40.789   8.944   7.964
  483POPC   C4A 9522  40.801   8.999   7.664
  483POPC   C1B 9523  40.586   9.052   8.564
  483POPC   C2B 9524  40.569   9.052   8.264
  483POPC   C3B 9525  40.528   9.090   7.964
  483POPC   C4B 9526  40.501   9.058   7.664
  484POPC   NC3 9527  22.118   5.107   9.464
  484POPC   PO4 9528  22.184   5.068   9.164
  484POPC   GL1 9529  22.209   5.051   8.864
  484POPC   GL2 9530  22.193   5.004   8.864
  484POPC   C1A 9531  22.123   5.139   8.564
  484POPC   D2A 9532  22.151   5.121   8.264
  484POPC   C3A 9533  22.137   5.119   7.964
  484POPC   C4A 9534  22.148   5.069   7.664
  484POPC   C1B 9535  22.204   4.816   8.564
  484POPC   C2B 9536  22.186   4.841   8.264
  484POPC   C3B 9537  22.197   4.831   7.964
  484POPC   C4B 9538  22.207   4.893   7.664
  485POPC   NC3 9539  10.535  37.702   9.464
  485POPC   PO4 9540  10.475  37.681   9.164
  485POPC   GL1 9541  10.500  37.651   8.864
  485POPC   GL2 9542  10.603  37.663   8.864
  485POPC   C1A 9543  10.543  37.666   8.564
  485POPC   D2A 9544  10.547  37.647   8.264
  485POPC   C3A 9545  10.507  37.728   7.964
  485POPC   C4A 9546  10.568  37.719   7.664
  485POPC   C1B 9547  10.765  37.647   8.564
  485POPC   C2B 9548  10.742  37.681   8.264
  485POPC   C3B 9549  10.788  37.651   7.964
  485POPC   C4B 9550  10.822  37.650   7.664
  486POPC   NC3 9551  25.312  20.655   9.464
  486POPC   PO4 9552  25.307  20.561   9.164
  486POPC   GL1 9553  25.272  20.632   8.864
  486POPC   GL2 9554  25.313  20.758   8.864
  486POPC   C1A 9555  25.269  20.594   8.564
  486POPC   D2A 9556  25.240  20.617   8.264
  486POPC   C3A 9557  25.223  20.627   7.964
  486POPC   C4A 9558  25.216  20.599   7.664
  486POPC   C1B 9559  25.313  20.898   8.564
  486POPC   C2B 9560  25.349  20.859   8.264
  486POPC   C3B 9561  25.325  20.806   7.964
  486POPC   C4B 9562  25.389  20.847   7.664
  487POPC   NC3 9563  42.312  38.418   9.464
  487POPC   PO4 9564  42.323  38.438   9.164
  487POPC   GL1 9565  42.327  38.418   8.864
  487POPC   GL2 9566  42.266  38.574   8.864
  487POPC   C1A 9567  42.347  38.494   8.564
  487POPC   D2A 9568  42.348  38.499   8.264
  487POPC   C3A 9569  42.350  38.428   7.964
  487POPC   C4A 9570  42.352  38.500   7.664
  487POPC   C1B 9571  42.276  38.741   8.564
  487POPC   C2B 9572  42.306  38.702   8.264
  487POPC   C3B 9573  42.333  38.736   7.964
  487POPC   C4B 9574  42.294  38.698   7.664
  488POPC   NC3 9575  39.203  23.759   9.464
  488POPC   PO4 9576  39.252  23.763   9.164
  488POPC   GL1 9577  39.197  23.692   8.864
  488POPC   GL2 9578  39.220  23.858   8.864
  488POPC   C1A 9579  39.182  23.753   8.564
  488POPC   D2A 9580  39.224  23.733   8.264
  488POPC   C3A 9581  39.231  23.750   7.964
  488POPC   C4A 9582  39.254  23.667   7.664
  488POPC   C1B 9583  39.137  23.962   8.564
  488POPC   C2B 9584  39.167  23.997   8.264
  488POPC   C3B 9585  39.187  23.927   7.964
  488POPC   C4B 9586  39.139  23.913   7.664
  489POPC   NC3 9587  18.302   1.961   9.464
  489POPC   PO4 9588  18.238   1.969   9.164
  489POPC   GL1 9589  18.259   2.000   8.864
  489POPC   GL2 9590  18.221   2.047   8.864
  489POPC   C1A 9591  18.287   2.024   8.564
  489POPC   D2A 9592  18.242   1.952   8.264
  489POPC   C3A 9593  18.262   2.039   7.964
  489POPC   C4A 9594  18.254   1.959   7.664
  489POPC   C1B 9595  18.089   2.151   8.564
  489POPC   C2B 9596  18.127   2.177   8.264
  489POPC   C3B 9597  18.136   2.198   7.964
  489POPC   C4B 9598  18.083   2.167   7.664
  490POPC   NC3 9599  29.123  33.821   9.464
  490POPC   PO4 9600  29.190  33.802   9.164
  490POPC   GL1 9601  29.179  33.798   8.864
  490POPC   GL2 9602  29.098  33.696   8.864
  490POPC   C1A 9603  29.159  33.817   8.564
  490POPC   D2A 9604  29.109  33.762   8.264
  490POPC   C3A 9605  29.099  33.804   7.964
  490POPC   C4A 9606  29.176  33.774   7.664
  490POPC   C1B 9607  29.101  33.521   8.564
  490POPC   C2B 9608  29.174  33.559   8.264
  490POPC   C3B 9609  29.188  33.548   7.964
  490POPC   C4B 9610  29.152  33.535   7.664
  491POPC   NC3 9611  31.444  15.923   9.464
  491POPC   PO4 9612  31.482  16.002   9.164
  491POPC   GL1 9613  31.480  15.953   8.864
  491POPC   GL2 9614  31.548  16.115   8.864
  491POPC   C1A 9615  31.433  15.938   8.564
  491POPC   D2A 9616  31.516  15.996   8.264
  491POPC   C3A 9617  31.481  15.970   7.964
  491POPC   C4A 9618  31.475  15.950   7.664
  491POPC   C1B 9619  31.557  16.205   8.564
  491POPC   C2B 9620  31.616  16.216   8.264
  491POPC   C3B 9621  31.569  16.218   7.964
  491POPC   C4B 9622  31.540  16.152   7.664
  492POPC   NC3 9623  33.772  30.728   9.464
  492POPC   PO4 9624  33.779  30.713   9.164
  492POPC   GL1 9625  33.806  30.727   8.864
  492POPC   GL2 9626  33.679  30.709   8.864
  492POPC   C1A 9627  33.772  30.719   8.564
  492POPC   D2A 9628  33.788  30.653   8.264
  492POPC   C3A 9629  33.807  30.668   7.964
  492POPC   C4A 9630  33.758  30.734   7.664
  492POPC   C1B 9631  33.593  30.765   8.564
  492POPC   C2B 9632  33.582  30.745   8.264
  492POPC   C3B 9633  33.605  30.789   7.964
  492POPC   C4B 9634  33.527  30.791   7.664
  493POPC   NC3 9635  16.692   6.690   9.464
  493POPC   PO4 9636  16.738   6.611   9.164
  493POPC   GL1 9637  16.713   6.663   8.864
  493POPC   GL2 9638  16.711   6.470   8.864
  493POPC   C1A 9639  16.689   6.676   8.564
  493POPC   D2A 9640  16.744   6.642   8.264
  493POPC   C3A 9641  16.772   6.658   7.964
  493POPC   C4A 9642  16.696   6.644   7.664
  493POPC   C1B 9643  16.726   6.365   8.564
  493POPC   C2B 9644  16.725   6.403   8.264
  493POPC   C3B 9645  16.684   6.431   7.964
  493POPC   C4B 9646  16.690   6.429   7.664
  494POPC   NC3 9647  16.753  26.021   9.464
  494POPC   PO4 9648  16.696  26.035   9.164
  494POPC   GL1 9649  16.741  26.023   8.864
  494POPC   GL2 9650  16.702  26.151   8.864
  494POPC   C1A 9651  16.697  26.015   8.564
  494POPC   D2A 9652  16.713  26.089   8.264
  494POPC   C3A 9653  16.767  26.046   7.964
  494POPC   C4A 9654  16.762  26.082   7.664
  494POPC   C1B 9655  16.680  26.242   8.564
  494POPC   C2B 9656  16.630  26.235   8.264
  494POPC   C3B 9657  16.649  26.246   7.964
  494POPC   C4B 9658  16.682  26.271   7.664
  495POPC   NC3 9659  23.693  12.898   9.464
  495POPC   PO4 9660  23.684  12.817   9.164
  495POPC   GL1 9661  23.664  12.844   8.864
  495POPC   GL2 9662  23.559  12.815   8.864
  495POPC   C1A 9663  23.668  12.815   8.564
  495POPC   D2A 9664  23.691  12.810   8.264
  495POPC   C3A 9665  23.751  12.870   7.964
  495POPC   C4A 9666  23.706  12.854   7.664
  495POPC   C1B 9667  23.478  12.810   8.564
  495POPC   C2B 9668  23.443  12.867   8.264
  495POPC   C3B 9669  23.440  12.778   7.964
  495POPC   C4B 9670  23.443  12.827   7.664
  496POPC   NC3 9671  21.367  36.098   9.464
  496POPC   PO4 9672  21.345  36.165   9.164
  496POPC   GL1 9673  21.389  36.086   8.864
  496POPC   GL2 9674  21.289  36.167   8.864
  496POPC   C1A 9675  21.372  36.102   8.564
  496POPC   D2A 9676  21.415  36.130   8.264
  496POPC   C3A 9677  21.366  36.105   7.964
  496POPC   C4A 9678  21.369  36.151   7.664
  496POPC   C1B 9679  21.162  36.128   8.564
  496POPC   C2B 9680  21.129  36.157   8.264
  496POPC   C3B 9681  21.156  36.152   7.964
  496POPC   C4B 9682  21.099  36.225   7.664
  497POPC   NC3 9683  41.601   7.423   9.464
  497POPC   PO4 9684  41.523   7.381   9.164
  497POPC   GL1 9685  41.523   7.437   8.864
  497POPC   GL2 9686  41.526   7.338   8.864
  497POPC   C1A 9687  41.555   7.415   8.564
  497POPC   D2A 9688  41.565   7.447   8.264
  497POPC   C3A 9689  41.530   7.415   7.964
  497POPC   C4A 9690  41.509   7.416   7.664
  497POPC   C1B 9691  41.513   7.210   8.564
  497POPC   C2B 9692  41.497   7.172   8.264
  497POPC   C3B 9693  41.543   7.143   7.964
  497POPC   C4B 9694  41.527   7.157   7.664
  498POPC   NC3 9695  14.364   7.389   9.464
  498POPC   PO4 9696  14.422   7.416   9.164
  498POPC   GL1 9697  14.446   7.396   8.864
  498POPC   GL2 9698  14.446   7.269   8.864
  498POPC   C1A 9699  14.421   7.376   8.564
  498POPC   D2A 9700  14.364   7.443   8.264
  498POPC   C3A 9701  14.425   7.439   7.964
  498POPC   C4A 9702  14.392   7.381   7.664
  498POPC   C1B 9703  14.551   7.181   8.564
  498POPC   C2B 9704  14.515   7.167   8.264
  498POPC   C3B 9705  14.539   7.149   7.964
  498POPC   C4B 9706  14.539   7.214   7.664
  499POPC   NC3 9707   3.525   2.030   9.464
  499POPC   PO4 9708   3.536   1.948   9.164
  499POPC   GL1 9709   3.559   2.039   8.864
  499POPC   GL2 9710   3.655   1.866   8.864
  499POPC   C1A 9711   3.503   1.979   8.564
  499POPC   D2A 9712   3.506   1.998   8.264
  499POPC   C3A 9713   3.533   1.963   7.964
  499POPC   C4A 9714   3.570   2.037   7.664
  499POPC   C1B 9715   3.634   1.786   8.564
  499POPC   C2B 9716   3.680   1.729   8.264
  499POPC   C3B 9717   3.640   1.796   7.964
  499POPC   C4B 9718   3.676   1.741   7.664
  500POPC   NC3 9719  28.390  30.708   9.464
  500POPC   PO4 9720  28.369  30.657   9.164
  500POPC   GL1 9721  28.320  30.695   8.864
  500POPC   GL2 9722  28.477  30.641   8.864
  500POPC   C1A 9723  28.355  30.695   8.564
  500POPC   D2A 9724  28.344  30.701   8.264
  500POPC   C3A 9725  28.329  30.680   7.964
  500POPC   C4A 9726  28.387  30.660   7.664
  500POPC   C1B 9727  28.556  30.542   8.564
  500POPC   C2B 9728  28.489  30.484   8.264
  500POPC   C3B 9729  28.480  30.507   7.964
  500POPC   C4B 9730  28.482  30.509   7.664
  501POPC   NC3 9731  42.302  33.050   9.464
  501POPC   PO4 9732  42.297  33.073   9.164
  501POPC   GL1 9733  42.345  33.052   8.864
  501POPC   GL2 9734  42.299  32.878   8.864
  501POPC   C1A 9735  42.313  33.015   8.564
  501POPC   D2A 9736  42.313  33.039   8.264
  501POPC   C3A 9737  42.296  32.977   7.964
  501POPC   C4A 9738  42.287  32.979   7.664
  501POPC   C1B 9739  42.358  32.786   8.564
  501POPC   C2B 9740  42.288  32.790   8.264
  501POPC   C3B 9741  42.323  32.747   7.964
  501POPC   C4B 9742  42.305  32.817   7.664
  502POPC   NC3 9743  37.689  12.818   9.464
  502POPC   PO4 9744  37.688  12.862   9.164
  502POPC   GL1 9745  37.692  12.896   8.864
  502POPC   GL2 9746  37.676  12.922   8.864
  502POPC   C1A 9747  37.637  12.896   8.564
  502POPC   D2A 9748  37.683  12.847   8.264
  502POPC   C3A 9749  37.654  12.900   7.964
  502POPC   C4A 9750  37.695  12.867   7.664
  502POPC   C1B 9751  37.575  13.127   8.564
  502POPC   C2B 9752  37.590  13.086   8.264
  502POPC   C3B 9753  37.632  13.108   7.964
  502POPC   C4B 9754  37.546  13.088   7.664
  503POPC   NC3 9755  33.805  26.082   9.464
  503POPC   PO4 9756  33.842  26.032   9.164
  503POPC   GL1 9757  33.792  25.993   8.864
  503POPC   GL2 9758  33.785  25.955   8.864
  503POPC   C1A 9759  33.830  26.067   8.564
  503POPC   D2A 9760  33.797  25.997   8.264
  503POPC   C3A 9761  33.760  26.058   7.964
  503POPC   C4A 9762  33.752  26.054   7.664
  503POPC   C1B 9763  33.818  25.818   8.564
  503POPC   C2B 9764  33.843  25.818   8.264
  503POPC   C3B 9765  33.850  25.756   7.964
  503POPC   C4B 9766  33.839  25.774   7.664
  504POPC   NC3 9767  27.592   3.581   9.464
  504POPC   PO4 9768  27.636   3.579   9.164
  504POPC   GL1 9769  27.633   3.510   8.864
  504POPC   GL2 9770  27.689   3.485   8.864
  504POPC   C1A 9771  27.609   3.556   8.564
  504POPC   D2A 9772  27.588   3.534   8.264
  504POPC   C3A 9773  27.641   3.530   7.964
  504POPC   C4A 9774  27.587   3.504   7.664
  504POPC   C1B 9775  27.756   3.347   8.564
  504POPC   C2B 9776  27.789   3.347   8.264
  504POPC   C3B 9777  27.795   3.321   7.964
  504POPC   C4B 9778  27.780   3.387   7.664
  505POPC   NC3 9779  30.745  42.338   9.464
  505POPC   PO4 9780  30.651  42.373   9.164
  505POPC   GL1 9781  30.693  42.299   8.864
  505POPC   GL2 9782  30.819  42.354   8.864
  505POPC   C1A 9783  30.669  42.339   8.564
  505POPC   D2A 9784  30.657  42.306   8.264
  505POPC   C3A 9785  30.652  42.339   7.964
  505POPC   C4A 9786  30.648  42.382   7.664
  505POPC   C1B 9787  30.955  42.459   8.564
  505POPC   C2B 9788  30.885  42.465   8.264
  505POPC   C3B 9789  30.978  42.455   7.964
  505POPC   C4B 9790  30.968  42.422   7.664
  506POPC   NC3 9791  35.322  34.575   9.464
  506POPC   PO4 9792  35.347  34.591   9.164
  506POPC   GL1 9793  35.347  34.591   8.864
  506POPC   GL2 9794  35.275  34.525   8.864
  506POPC   C1A 9795  35.384  34.614   8.564
  506POPC   D2A 9796  35.306  34.572   8.264
  506POPC   C3A 9797  35.365  34.600   7.964
  506POPC   C4A 9798  35.384  34.590   7.664
  506POPC   C1B 9799  35.130  34.518   8.564
  506POPC   C2B 9800  35.120  34.546   8.264
  506POPC   C3B 9801  35.120  34.549   7.964
  506POPC   C4B 9802  35.110  34.508   7.664
  507POPC   NC3 9803  33.811  37.647   9.464
  507POPC   PO4 9804  33.792  37.727   9.164
  507POPC   GL1 9805  33.796  37.696   8.864
  507POPC   GL2 9806  33.878  37.802   8.864
  507POPC   C1A 9807  33.806  37.710   8.564
  507POPC   D2A 9808  33.819  37.711   8.264
  507POPC   C3A 9809  33.760  37.714   7.964
  507POPC   C4A 9810  33.829  37.729   7.664
  507POPC   C1B 9811  33.993  37.825   8.564
  507POPC   C2B 9812  34.003  37.843   8.264
  507POPC   C3B 9813  34.018  37.843   7.964
  507POPC   C4B 9814  34.023  37.852   7.664
  508POPC   NC3 9815  18.238  40.802   9.464
  508POPC   PO4 9816  18.323  40.750   9.164
  508POPC   GL1 9817  18.293  40.771   8.864
  508POPC   GL2 9818  18.283  40.856   8.864
  508POPC   C1A 9819  18.316  40.806   8.564
  508POPC   D2A 9820  18.275  40.785   8.264
  508POPC   C3A 9821  18.269  40.776   7.964
  508POPC   C4A 9822  18.296  40.783   7.664
  508POPC   C1B 9823  18.217  41.001   8.564
  508POPC   C2B 9824  18.167  40.995   8.264
  508POPC   C3B 9825  18.204  41.009   7.964
  508POPC   C4B 9826  18.188  41.056   7.664
  509POPC   NC3 9827  29.874  36.165   9.464
  509POPC   PO4 9828  29.959  36.142   9.164
  509POPC   GL1 9829  29.950  36.131   8.864
  509POPC   GL2 9830  30.066  36.067   8.864
  509POPC   C1A 9831  29.929  36.090   8.564
  509POPC   D2A 9832  29.874  36.144   8.264
  509POPC   C3A 9833  29.951  36.103   7.964
  509POPC   C4A 9834  29.896  36.080   7.664
  509POPC   C1B 9835  30.129  35.980   8.564
  509POPC   C2B 9836  30.141  36.034   8.264
  509POPC   C3B 9837  30.106  35.969   7.964
  509POPC   C4B 9838  30.128  35.944   7.664
  510POPC   NC3 9839  43.895   7.373   9.464
  510POPC   PO4 9840  43.865   7.469   9.164
  510POPC   GL1 9841  43.837   7.375   8.864
  510POPC   GL2 9842  43.793   7.481   8.864
  510POPC   C1A 9843  43.879   7.377   8.564
  510POPC   D2A 9844  43.928   7.428   8.264
  510POPC   C3A 9845  43.920   7.372   7.964
  510POPC   C4A 9846  43.893   7.445   7.664
  510POPC   C1B 9847  43.639   7.467   8.564
  510POPC   C2B 9848  43.666   7.436   8.264
  510POPC   C3B 9849  43.593   7.480   7.964
  510POPC   C4B 9850  43.658   7.487   7.664
  511POPC   NC3 9851  43.932  28.334   9.464
  511POPC   PO4 9852  43.925  28.338   9.164
  511POPC   GL1 9853  43.927  28.360   8.864
  511POPC   GL2 9854  43.778  28.445   8.864
  511POPC   C1A 9855  43.903  28.370   8.564
  511POPC   D2A 9856  43.915  28.387   8.264
  511POPC   C3A 9857  43.928  28.394   7.964
  511POPC   C4A 9858  43.892  28.371   7.664
  511POPC   C1B 9859  43.722  28.570   8.564
  511POPC   C2B 9860  43.744  28.544   8.264
  511POPC   C3B 9861  43.745  28.581   7.964
  511POPC   C4B 9862  43.666  28.591   7.664
  512POPC   NC3 9863  38.496  34.565   9.464
  512POPC   PO4 9864  38.469  34.571   9.164
  512POPC   GL1 9865  38.406  34.610   8.864
  512POPC   GL2 9866  38.569  34.601   8.864
  512POPC   C1A 9867  38.430  34.598   8.564
  512POPC   D2A 9868  38.433  34.621   8.264
  512POPC   C3A 9869  38.426  34.564   7.964
  512POPC   C4A 9870  38.407  34.572   7.664
  512POPC   C1B 9871  38.647  34.720   8.564
  512POPC   C2B 9872  38.716  34.697   8.264
  512POPC   C3B 9873  38.690  34.637   7.964
  512POPC   C4B 9874  38.703  34.701   7.664
  513POPC   NC3 9875  31.450  41.541   9.464
  513POPC   PO4 9876  31.454  41.527   9.164
  513POPC   GL1 9877  31.505  41.572   8.864
  513POPC   GL2 9878  31.464  41.396   8.864
  513POPC   C1A 9879  31.456  41.579   8.564
  513POPC   D2A 9880  31.468  41.563   8.264
  513POPC   C3A 9881  31.476  41.608   7.964
  513POPC   C4A 9882  31.496  41.596   7.664
  513POPC   C1B 9883  31.455  41.328   8.564
  513POPC   C2B 9884  31.464  41.271   8.264
  513POPC   C3B 9885  31.441  41.314   7.964
  513POPC   C4B 9886  31.507  41.275   7.664
  514POPC   NC3 9887   2.023  44.678   9.464
  514POPC   PO4 9888   2.037  44.635   9.164
  514POPC   GL1 9889   1.989  44.616   8.864
  514POPC   GL2 9890   1.952  44.579   8.864
  514POPC   C1A 9891   2.007  44.643   8.564
  514POPC   D2A 9892   1.988  44.708   8.264
  514POPC   C3A 9893   1.969  44.656   7.964
  514POPC   C4A 9894   1.972  44.622   7.664
  514POPC   C1B 9895   1.865  44.497   8.564
  514POPC   C2B 9896   1.839  44.492   8.264
  514POPC   C3B 9897   1.817  44.489   7.964
  514POPC   C4B 9898   1.835  44.500   7.664
  515POPC   NC3 9899  22.139   7.400   9.464
  515POPC   PO4 9900  22.134   7.378   9.164
  515POPC   GL1 9901  22.160   7.385   8.864
  515POPC   GL2 9902  22.076   7.539   8.864
  515POPC   C1A 9903  22.119   7.449   8.564
  515POPC   D2A 9904  22.151   7.453   8.264
  515POPC   C3A 9905  22.169   7.458   7.964
  515POPC   C4A 9906  22.117   7.390   7.664
  515POPC   C1B 9907  22.039   7.582   8.564
  515POPC   C2B 9908  22.029   7.568   8.264
  515POPC   C3B 9909  22.026   7.593   7.964
  515POPC   C4B 9910  22.039   7.655   7.664
  516POPC   NC3 9911  15.189   8.947   9.464
  516POPC   PO4 9912  15.175   8.994   9.164
  516POPC   GL1 9913  15.150   8.976   8.864
  516POPC   GL2 9914  15.139   8.862   8.864
  516POPC   C1A 9915  15.174   8.957   8.564
  516POPC   D2A 9916  15.167   8.974   8.264
  516POPC   C3A 9917  15.192   8.972   7.964
  516POPC   C4A 9918  15.171   8.957   7.664
  516POPC   C1B 9919  15.033   8.766   8.564
  516POPC   C2B 9920  15.099   8.739   8.264
  516POPC   C3B 9921  15.071   8.737   7.964
  516POPC   C4B 9922  15.059   8.791   7.664
  517POPC   NC3 9923  17.483   2.018   9.464
  517POPC   PO4 9924  17.554   1.951   9.164
  517POPC   GL1 9925  17.517   1.999   8.864
  517POPC   GL2 9926  17.424   2.000   8.864
  517POPC   C1A 9927  17.490   1.959   8.564
  517POPC   D2A 9928  17.528   1.976   8.264
  517POPC   C3A 9929  17.523   1.981   7.964
  517POPC   C4A 9930  17.480   2.027   7.664
  517POPC   C1B 9931  17.273   2.037   8.564
  517POPC   C2B 9932  17.240   1.985   8.264
  517POPC   C3B 9933  17.300   2.036   7.964
  517POPC   C4B 9934  17.283   2.014   7.664
  518POPC   NC3 9935  31.491  30.668   9.464
  518POPC   PO4 9936  31.485  30.647   9.164
  518POPC   GL1 9937  31.441  30.659   8.864
  518POPC   GL2 9938  31.538  30.761   8.864
  518POPC   C1A 9939  31.485  30.684   8.564
  518POPC   D2A 9940  31.435  30.701   8.264
  518POPC   C3A 9941  31.469  30.659   7.964
  518POPC   C4A 9942  31.476  30.717   7.664
  518POPC   C1B 9943  31.676  30.878   8.564
  518POPC   C2B 9944  31.691  30.837   8.264
  518POPC   C3B 9945  31.646  30.841   7.964
  518POPC   C4B 9946  31.650  30.873   7.664
  519POPC   NC3 9947  18.278  34.564   9.464
  519POPC   PO4 9948  18.267  34.569   9.164
  519POPC   GL1 9949  18.319  34.534   8.864
  519POPC   GL2 9950  18.238  34.703   8.864
  519POPC   C1A 9951  18.327  34.542   8.564
  519POPC   D2A 9952  18.245  34.574   8.264
  519POPC   C3A 9953  18.314  34.598   7.964
  519POPC   C4A 9954  18.281  34.534   7.664
  519POPC   C1B 9955  18.179  34.837   8.564
  519POPC   C2B 9956  18.156  34.817   8.264
  519POPC   C3B 9957  18.222  34.796   7.964
  519POPC   C4B 9958  18.181  34.802   7.664
  520POPC   NC3 9959  26.009   8.998   9.464
  520POPC   PO4 9960  26.073   8.930   9.164
  520POPC   GL1 9961  26.033   8.953   8.864
  520POPC   GL2 9962  25.997   8.894   8.864
  520POPC   C1A 9963  26.038   9.012   8.564
  520POPC   D2A 9964  26.009   8.983   8.264
  520POPC   C3A 9965  26.061   8.964   7.964
  520POPC   C4A 9966  26.077   8.977   7.664
  520POPC   C1B 9967  26.006   8.722   8.564
  520POPC   C2B 9968  25.986   8.710   8.264
  520POPC   C3B 9969  25.990   8.729   7.964
  520POPC   C4B 9970  25.954   8.764   7.664
  521POPC   NC3 9971  10.478  42.300   9.464
  521POPC   PO4 9972  10.508  42.382   9.164
  521POPC   GL1 9973  10.545  42.369   8.864
  521POPC   GL2 9974  10.599  42.384   8.864
  521POPC   C1A 9975  10.569  42.354   8.564
  521POPC   D2A 9976  10.534  42.368   8.264
  521POPC   C3A 9977  10.541  42.325   7.964
  521POPC   C4A 9978  10.557  42.324   7.664
  521POPC   C1B 9979  10.706  42.484   8.564
  521POPC   C2B 9980  10.706  42.475   8.264
  521POPC   C3B 9981  10.741  42.518   7.964
  521POPC   C4B 9982  10.710  42.491   7.664
  522POPC   NC3 9983  43.113  22.922   9.464
  522POPC   PO4 9984  43.107  22.980   9.164
  522POPC   GL1 9985  43.105  22.914   8.864
  522POPC   GL2 9986  43.070  23.077   8.864
  522POPC   C1A 9987  43.151  22.940   8.564
  522POPC   D2A 9988  43.103  22.945   8.264
  522POPC   C3A 9989  43.122  22.904   7.964
  522POPC   C4A 9990  43.094  22.962   7.664
  522POPC   C1B 9991  42.936  23.127   8.564
  522POPC   C2B 9992  42.962  23.185   8.264
  522POPC   C3B 9993  43.018  23.140   7.964
  522POPC   C4B 9994  42.933  23.125   7.664
  523POPC   NC3 9995  27.555  41.555   9.464
  523POPC   PO4 9996  27.565  41.510   9.164
  523POPC   GL1 9997  27.629  41.568   8.864
  523POPC   GL2 9998  27.700  41.596   8.864
  523POPC   C1A 9999  27.641  41.598   8.564
  523POPC   D2A10000  27.603  41.580   8.264
  523POPC   C3A10001  27.561  41.570   7.964
  523POPC   C4A10002  27.626  41.559   7.664
  523POPC   C1B10003  27.816  41.725   8.564
  523POPC   C2B10004  27.817  41.666   8.264
  523POPC   C3B10005  27.770  41.678   7.964
  523POPC   C4B10006  27.793  41.639   7.664
  524POPC   NC310007  28.377   5.905   9.464
  524POPC   PO410008  28.406   5.856   9.164
  524POPC   GL110009  28.396   5.917   8.864
  524POPC   GL210010  28.283   5.934   8.864
  524POPC   C1A10011  28.398   5.907   8.564
  524POPC   D2A10012  28.341   5.911   8.264
  524POPC   C3A10013  28.321   5.884   7.964
  524POPC   C4A10014  28.368   5.912   7.664
  524POPC   C1B10015  28.176   5.957   8.564
  524POPC   C2B10016  28.135   5.965   8.264
  524POPC   C3B10017  28.177   6.019   7.964
  524POPC   C4B10018  28.120   6.036   7.664
  525POPC   NC310019   2.788  35.396   9.464
  525POPC   PO410020   2.795  35.341   9.164
  525POPC   GL110021   2.782  35.376   8.864
  525POPC   GL210022   2.893  35.492   8.864
  525POPC   C1A10023   2.727  35.310   8.564
  525POPC   D2A10024   2.752  35.365   8.264
  525POPC   C3A10025   2.773  35.370   7.964
  525POPC   C4A10026   2.783  35.375   7.664
  525POPC   C1B10027   2.918  35.553   8.564
  525POPC   C2B10028   2.898  35.494   8.264
  525POPC   C3B10029   2.903  35.577   7.964
  525POPC   C4B10030   2.911  35.591   7.664
  526POPC   NC310031   8.946  37.729   9.464
  526POPC   PO410032   8.996  37.647   9.164
  526POPC   GL110033   9.018  37.689   8.864
  526POPC   GL210034   9.020  37.815   8.864
  526POPC   C1A10035   8.925  37.669   8.564
  526POPC   D2A10036   9.009  37.633   8.264
  526POPC   C3A10037   9.020  37.683   7.964
  526POPC   C4A10038   8.925  37.710   7.664
  526POPC   C1B10039   8.995  37.956   8.564
  526POPC   C2B10040   9.060  37.953   8.264
  526POPC   C3B10041   8.984  37.889   7.964
  526POPC   C4B10042   8.973  37.886   7.664
  527POPC   NC310043  12.899   8.222   9.464
  527POPC   PO410044  12.817   8.173   9.164
  527POPC   GL110045  12.868   8.164   8.864
  527POPC   GL210046  12.751   8.245   8.864
  527POPC   C1A10047  12.886   8.204   8.564
  527POPC   D2A10048  12.868   8.193   8.264
  527POPC   C3A10049  12.842   8.162   7.964
  527POPC   C4A10050  12.885   8.239   7.664
  527POPC   C1B10051  12.627   8.297   8.564
  527POPC   C2B10052  12.624   8.340   8.264
  527POPC   C3B10053  12.593   8.258   7.964
  527POPC   C4B10054  12.592   8.311   7.664
  528POPC   NC310055  27.571  32.996   9.464
  528POPC   PO410056  27.604  32.985   9.164
  528POPC   GL110057  27.621  32.978   8.864
  528POPC   GL210058  27.644  32.949   8.864
  528POPC   C1A10059  27.575  33.010   8.564
  528POPC   D2A10060  27.622  33.057   8.264
  528POPC   C3A10061  27.629  33.016   7.964
  528POPC   C4A10062  27.571  33.026   7.664
  528POPC   C1B10063  27.718  32.836   8.564
  528POPC   C2B10064  27.745  32.801   8.264
  528POPC   C3B10065  27.755  32.792   7.964
  528POPC   C4B10066  27.782  32.778   7.664
  529POPC   NC310067  15.974   8.182   9.464
  529POPC   PO410068  15.952   8.152   9.164
  529POPC   GL110069  15.920   8.210   8.864
  529POPC   GL210070  15.982   8.274   8.864
  529POPC   C1A10071  15.909   8.174   8.564
  529POPC   D2A10072  15.908   8.231   8.264
  529POPC   C3A10073  15.934   8.182   7.964
  529POPC   C4A10074  15.976   8.224   7.664
  529POPC   C1B10075  16.040   8.397   8.564
  529POPC   C2B10076  16.075   8.381   8.264
  529POPC   C3B10077  16.063   8.387   7.964
  529POPC   C4B10078  16.062   8.453   7.664
  530POPC   NC310079  27.583  44.638   9.464
  530POPC   PO410080  27.588  44.675   9.164
  530POPC   GL110081  27.629  44.697   8.864
  530POPC   GL210082  27.537  44.572   8.864
  530POPC   C1A10083  27.589  44.668   8.564
  530POPC   D2A10084  27.607  44.614   8.264
  530POPC   C3A10085  27.579  44.613   7.964
  530POPC   C4A10086  27.576  44.623   7.664
  530POPC   C1B10087  27.599  44.371   8.564
  530POPC   C2B10088  27.529  44.435   8.264
  530POPC   C3B10089  27.571  44.449   7.964
  530POPC   C4B10090  27.557  44.400   7.664
  531POPC   NC310091   1.942  26.061   9.464
  531POPC   PO410092   1.958  26.049   9.164
  531POPC   GL110093   1.942  26.016   8.864
  531POPC   GL210094   2.041  25.871   8.864
  531POPC   C1A10095   2.020  25.992   8.564
  531POPC   D2A10096   2.006  26.077   8.264
  531POPC   C3A10097   1.950  26.082   7.964
  531POPC   C4A10098   1.983  26.036   7.664
  531POPC   C1B10099   2.078  25.850   8.564
  531POPC   C2B10100   2.025  25.802   8.264
  531POPC   C3B10101   2.091  25.779   7.964
  531POPC   C4B10102   2.035  25.785   7.664
  532POPC   NC310103  35.331  19.846   9.464
  532POPC   PO410104  35.308  19.867   9.164
  532POPC   GL110105  35.379  19.847   8.864
  532POPC   GL210106  35.288  19.874   8.864
  532POPC   C1A10107  35.304  19.866   8.564
  532POPC   D2A10108  35.326  19.812   8.264
  532POPC   C3A10109  35.311  19.848   7.964
  532POPC   C4A10110  35.348  19.854   7.664
  532POPC   C1B10111  35.088  20.002   8.564
  532POPC   C2B10112  35.136  19.943   8.264
  532POPC   C3B10113  35.182  19.948   7.964
  532POPC   C4B10114  35.158  19.949   7.664
  533POPC   NC310115  26.032  13.617   9.464
  533POPC   PO410116  26.056  13.587   9.164
  533POPC   GL110117  26.077  13.594   8.864
  533POPC   GL210118  26.145  13.615   8.864
  533POPC   C1A10119  26.023  13.672   8.564
  533POPC   D2A10120  25.995  13.655   8.264
  533POPC   C3A10121  26.015  13.612   7.964
  533POPC   C4A10122  26.091  13.618   7.664
  533POPC   C1B10123  26.294  13.575   8.564
  533POPC   C2B10124  26.286  13.479   8.264
  533POPC   C3B10125  26.225  13.541   7.964
  533POPC   C4B10126  26.255  13.503   7.664
  534POPC   NC310127   6.676   5.123   9.464
  534POPC   PO410128   6.620   5.076   9.164
  534POPC   GL110129   6.661   5.084   8.864
  534POPC   GL210130   6.581   4.979   8.864
  534POPC   C1A10131   6.626   5.064   8.564
  534POPC   D2A10132   6.598   5.116   8.264
  534POPC   C3A10133   6.641   5.137   7.964
  534POPC   C4A10134   6.612   5.102   7.664
  534POPC   C1B10135   6.565   4.846   8.564
  534POPC   C2B10136   6.514   4.907   8.264
  534POPC   C3B10137   6.585   4.909   7.964
  534POPC   C4B10138   6.520   4.878   7.664
  535POPC   NC310139  29.961  30.676   9.464
  535POPC   PO410140  29.920  30.712   9.164
  535POPC   GL110141  29.957  30.744   8.864
  535POPC   GL210142  29.805  30.716   8.864
  535POPC   C1A10143  29.917  30.663   8.564
  535POPC   D2A10144  29.885  30.716   8.264
  535POPC   C3A10145  29.891  30.740   7.964
  535POPC   C4A10146  29.954  30.684   7.664
  535POPC   C1B10147  29.666  30.866   8.564
  535POPC   C2B10148  29.701  30.847   8.264
  535POPC   C3B10149  29.720  30.821   7.964
  535POPC   C4B10150  29.680  30.868   7.664
  536POPC   NC310151   5.845  21.416   9.464
  536POPC   PO410152   5.883  21.343   9.164
  536POPC   GL110153   5.829  21.346   8.864
  536POPC   GL210154   5.801  21.492   8.864
  536POPC   C1A10155   5.850  21.390   8.564
  536POPC   D2A10156   5.836  21.418   8.264
  536POPC   C3A10157   5.897  21.371   7.964
  536POPC   C4A10158   5.874  21.361   7.664
  536POPC   C1B10159   5.688  21.576   8.564
  536POPC   C2B10160   5.716  21.586   8.264
  536POPC   C3B10161   5.686  21.562   7.964
  536POPC   C4B10162   5.672  21.596   7.664
  537POPC   NC310163   5.861   9.741   9.464
  537POPC   PO410164   5.832   9.773   9.164
  537POPC   GL110165   5.880   9.773   8.864
  537POPC   GL210166   5.774   9.810   8.864
  537POPC   C1A10167   5.872   9.783   8.564
  537POPC   D2A10168   5.886   9.766   8.264
  537POPC   C3A10169   5.910   9.767   7.964
  537POPC   C4A10170   5.895   9.727   7.664
  537POPC   C1B10171   5.606   9.790   8.564
  537POPC   C2B10172   5.666   9.783   8.264
  537POPC   C3B10173   5.650   9.846   7.964
  537POPC   C4B10174   5.672   9.850   7.664
  538POPC   NC310175  33.064  17.474   9.464
  538POPC   PO410176  33.016  17.461   9.164
  538POPC   GL110177  32.993  17.539   8.864
  538POPC   GL210178  32.977  17.390   8.864
  538POPC   C1A10179  33.006  17.547   8.564
  538POPC   D2A10180  33.060  17.459   8.264
  538POPC   C3A10181  32.984  17.462   7.964
  538POPC   C4A10182  33.068  17.463   7.664
  538POPC   C1B10183  32.821  17.346   8.564
  538POPC   C2B10184  32.899  17.332   8.264
  538POPC   C3B10185  32.883  17.321   7.964
  538POPC   C4B10186  32.814  17.293   7.664
  539POPC   NC310187  26.829  26.091   9.464
  539POPC   PO410188  26.776  26.067   9.164
  539POPC   GL110189  26.771  26.037   8.864
  539POPC   GL210190  26.906  25.970   8.864
  539POPC   C1A10191  26.861  26.006   8.564
  539POPC   D2A10192  26.800  26.056   8.264
  539POPC   C3A10193  26.822  26.005   7.964
  539POPC   C4A10194  26.820  25.998   7.664
  539POPC   C1B10195  26.978  25.822   8.564
  539POPC   C2B10196  26.905  25.833   8.264
  539POPC   C3B10197  26.966  25.800   7.964
  539POPC   C4B10198  26.919  25.823   7.664
  540POPC   NC310199  39.967  12.850   9.464
  540POPC   PO410200  39.999  12.898   9.164
  540POPC   GL110201  40.026  12.833   8.864
  540POPC   GL210202  39.927  12.914   8.864
  540POPC   C1A10203  40.003  12.817   8.564
  540POPC   D2A10204  40.006  12.840   8.264
  540POPC   C3A10205  39.985  12.804   7.964
  540POPC   C4A10206  39.966  12.888   7.664
  540POPC   C1B10207  39.822  12.963   8.564
  540POPC   C2B10208  39.828  12.987   8.264
  540POPC   C3B10209  39.769  12.968   7.964
  540POPC   C4B10210  39.812  12.956   7.664
  541POPC   NC310211  34.536   0.464   9.464
  541POPC   PO410212  34.569   0.395   9.164
  541POPC   GL110213  34.602   0.423   8.864
  541POPC   GL210214  34.680   0.442   8.864
  541POPC   C1A10215  34.552   0.423   8.564
  541POPC   D2A10216  34.596   0.442   8.264
  541POPC   C3A10217  34.624   0.452   7.964
  541POPC   C4A10218  34.534   0.480   7.664
  541POPC   C1B10219  34.775   0.443   8.564
  541POPC   C2B10220  34.871   0.439   8.264
  541POPC   C3B10221  34.818   0.468   7.964
  541POPC   C4B10222  34.788   0.484   7.664
  542POPC   NC310223   5.860  42.361   9.464
  542POPC   PO410224   5.906  42.297   9.164
  542POPC   GL110225   5.853  42.381   8.864
  542POPC   GL210226   5.883  42.452   8.864
  542POPC   C1A10227   5.847  42.333   8.564
  542POPC   D2A10228   5.885  42.381   8.264
  542POPC   C3A10229   5.903  42.379   7.964
  542POPC   C4A10230   5.884  42.288   7.664
  542POPC   C1B10231   5.936  42.589   8.564
  542POPC   C2B10232   5.927  42.582   8.264
  542POPC   C3B10233   5.919  42.629   7.964
  542POPC   C4B10234   5.863  42.583   7.664
  543POPC   NC310235  42.380  36.935   9.464
  543POPC   PO410236  42.368  36.888   9.164
  543POPC   GL110237  42.299  36.889   8.864
  543POPC   GL210238  42.301  36.796   8.864
  543POPC   C1A10239  42.286  36.920   8.564
  543POPC   D2A10240  42.305  36.863   8.264
  543POPC   C3A10241  42.361  36.935   7.964
  543POPC   C4A10242  42.335  36.873   7.664
  543POPC   C1B10243  42.269  36.697   8.564
  543POPC   C2B10244  42.259  36.648   8.264
  543POPC   C3B10245  42.246  36.658   7.964
  543POPC   C4B10246  42.302  36.623   7.664
  544POPC   NC310247  18.333  41.516   9.464
  544POPC   PO410248  18.248  41.598   9.164
  544POPC   GL110249  18.305  41.582   8.864
  544POPC   GL210250  18.197  41.447   8.864
  544POPC   C1A10251  18.246  41.592   8.564
  544POPC   D2A10252  18.317  41.568   8.264
  544POPC   C3A10253  18.242  41.535   7.964
  544POPC   C4A10254  18.274  41.607   7.664
  544POPC   C1B10255  18.114  41.330   8.564
  544POPC   C2B10256  18.064  41.361   8.264
  544POPC   C3B10257  18.130  41.420   7.964
  544POPC   C4B10258  18.113  41.396   7.664
  545POPC   NC310259  39.249  12.052   9.464
  545POPC   PO410260  39.195  12.033   9.164
  545POPC   GL110261  39.213  12.098   8.864
  545POPC   GL210262  39.302  12.097   8.864
  545POPC   C1A10263  39.185  12.105   8.564
  545POPC   D2A10264  39.191  12.047   8.264
  545POPC   C3A10265  39.273  12.097   7.964
  545POPC   C4A10266  39.195  12.034   7.664
  545POPC   C1B10267  39.490  12.216   8.564
  545POPC   C2B10268  39.443  12.131   8.264
  545POPC   C3B10269  39.488  12.219   7.964
  545POPC   C4B10270  39.469  12.136   7.664
  546POPC   NC310271  29.181  30.660   9.464
  546POPC   PO410272  29.156  30.675   9.164
  546POPC   GL110273  29.147  30.733   8.864
  546POPC   GL210274  29.015  30.637   8.864
  546POPC   C1A10275  29.129  30.698   8.564
  546POPC   D2A10276  29.192  30.721   8.264
  546POPC   C3A10277  29.097  30.736   7.964
  546POPC   C4A10278  29.125  30.691   7.664
  546POPC   C1B10279  28.889  30.546   8.564
  546POPC   C2B10280  28.933  30.627   8.264
  546POPC   C3B10281  28.942  30.592   7.964
  546POPC   C4B10282  28.948  30.577   7.664
  547POPC   NC310283   2.032  17.460   9.464
  547POPC   PO410284   1.944  17.496   9.164
  547POPC   GL110285   1.998  17.515   8.864
  547POPC   GL210286   1.934  17.373   8.864
  547POPC   C1A10287   1.993  17.498   8.564
  547POPC   D2A10288   2.008  17.533   8.264
  547POPC   C3A10289   1.957  17.552   7.964
  547POPC   C4A10290   1.972  17.498   7.664
  547POPC   C1B10291   1.890  17.239   8.564
  547POPC   C2B10292   1.894  17.239   8.264
  547POPC   C3B10293   1.883  17.264   7.964
  547POPC   C4B10294   1.924  17.291   7.664
  548POPC   NC310295  43.117  33.073   9.464
  548POPC   PO410296  43.109  33.058   9.164
  548POPC   GL110297  43.149  33.035   8.864
  548POPC   GL210298  42.987  33.062   8.864
  548POPC   C1A10299  43.117  33.060   8.564
  548POPC   D2A10300  43.062  32.984   8.264
  548POPC   C3A10301  43.090  32.977   7.964
  548POPC   C4A10302  43.074  33.023   7.664
  548POPC   C1B10303  42.877  33.116   8.564
  548POPC   C2B10304  42.914  33.051   8.264
  548POPC   C3B10305  42.868  33.113   7.964
  548POPC   C4B10306  42.881  33.074   7.664
  549POPC   NC310307  20.592  26.049   9.464
  549POPC   PO410308  20.607  26.043   9.164
  549POPC   GL110309  20.622  26.014   8.864
  549POPC   GL210310  20.725  26.054   8.864
  549POPC   C1A10311  20.606  26.017   8.564
  549POPC   D2A10312  20.608  26.047   8.264
  549POPC   C3A10313  20.628  26.042   7.964
  549POPC   C4A10314  20.608  26.005   7.664
  549POPC   C1B10315  20.844  26.029   8.564
  549POPC   C2B10316  20.883  25.979   8.264
  549POPC   C3B10317  20.835  26.046   7.964
  549POPC   C4B10318  20.832  26.017   7.664
  550POPC   NC310319  22.174  12.093   9.464
  550POPC   PO410320  22.136  12.068   9.164
  550POPC   GL110321  22.180  12.043   8.864
  550POPC   GL210322  22.253  11.987   8.864
  550POPC   C1A10323  22.133  12.057   8.564
  550POPC   D2A10324  22.155  12.050   8.264
  550POPC   C3A10325  22.135  12.125   7.964
  550POPC   C4A10326  22.180  12.061   7.664
  550POPC   C1B10327  22.419  11.929   8.564
  550POPC   C2B10328  22.339  11.983   8.264
  550POPC   C3B10329  22.388  11.978   7.964
  550POPC   C4B10330  22.338  11.921   7.664
  551POPC   NC310331  16.721  35.319   9.464
  551POPC   PO410332  16.686  35.351   9.164
  551POPC   GL110333  16.698  35.380   8.864
  551POPC   GL210334  16.851  35.344   8.864
  551POPC   C1A10335  16.697  35.377   8.564
  551POPC   D2A10336  16.773  35.314   8.264
  551POPC   C3A10337  16.780  35.303   7.964
  551POPC   C4A10338  16.732  35.386   7.664
  551POPC   C1B10339  16.987  35.356   8.564
  551POPC   C2B10340  16.960  35.349   8.264
  551POPC   C3B10341  16.975  35.372   7.964
  551POPC   C4B10342  17.007  35.319   7.664
  552POPC   NC310343  19.069  27.635   9.464
  552POPC   PO410344  19.033  27.572   9.164
  552POPC   GL110345  19.088  27.620   8.864
  552POPC   GL210346  18.995  27.484   8.864
  552POPC   C1A10347  19.067  27.548   8.564
  552POPC   D2A10348  19.106  27.619   8.264
  552POPC   C3A10349  19.071  27.587   7.964
  552POPC   C4A10350  19.101  27.622   7.664
  552POPC   C1B10351  18.942  27.335   8.564
  552POPC   C2B10352  18.882  27.391   8.264
  552POPC   C3B10353  18.885  27.357   7.964
  552POPC   C4B10354  18.931  27.416   7.664
  553POPC   NC310355  36.149  16.753   9.464
  553POPC   PO410356  36.124  16.723   9.164
  553POPC   GL110357  36.120  16.688   8.864
  553POPC   GL210358  36.265  16.770   8.864
  553POPC   C1A10359  36.154  16.730   8.564
  553POPC   D2A10360  36.150  16.700   8.264
  553POPC   C3A10361  36.128  16.763   7.964
  553POPC   C4A10362  36.128  16.729   7.664
  553POPC   C1B10363  36.388  16.808   8.564
  553POPC   C2B10364  36.384  16.823   8.264
  553POPC   C3B10365  36.334  16.784   7.964
  553POPC   C4B10366  36.419  16.749   7.664
  554POPC   NC310367   5.083  19.806   9.464
  554POPC   PO410368   5.123  19.812   9.164
  554POPC   GL110369   5.079  19.794   8.864
  554POPC   GL210370   5.068  19.948   8.864
  554POPC   C1A10371   5.048  19.835   8.564
  554POPC   D2A10372   5.072  19.833   8.264
  554POPC   C3A10373   5.046  19.819   7.964
  554POPC   C4A10374   5.074  19.884   7.664
  554POPC   C1B10375   4.993  20.046   8.564
  554POPC   C2B10376   4.983  20.107   8.264
  554POPC   C3B10377   5.011  20.073   7.964
  554POPC   C4B10378   5.043  20.072   7.664
  555POPC   NC310379  34.543  34.618   9.464
  555POPC   PO410380  34.625  34.558   9.164
  555POPC   GL110381  34.550  34.614   8.864
  555POPC   GL210382  34.557  34.707   8.864
  555POPC   C1A10383  34.577  34.589   8.564
  555POPC   D2A10384  34.593  34.585   8.264
  555POPC   C3A10385  34.542  34.583   7.964
  555POPC   C4A10386  34.597  34.546   7.664
  555POPC   C1B10387  34.514  34.828   8.564
  555POPC   C2B10388  34.512  34.777   8.264
  555POPC   C3B10389  34.480  34.851   7.964
  555POPC   C4B10390  34.472  34.769   7.664
  556POPC   NC310391   9.004  12.063   9.464
  556POPC   PO410392   8.945  12.027   9.164
  556POPC   GL110393   8.983  12.086   8.864
  556POPC   GL210394   9.142  12.111   8.864
  556POPC   C1A10395   8.937  12.035   8.564
  556POPC   D2A10396   8.938  12.029   8.264
  556POPC   C3A10397   8.980  12.091   7.964
  556POPC   C4A10398   8.961  12.103   7.664
  556POPC   C1B10399   9.266  12.052   8.564
  556POPC   C2B10400   9.268  12.049   8.264
  556POPC   C3B10401   9.257  12.042   7.964
  556POPC   C4B10402   9.233  12.121   7.664
  557POPC   NC310403  27.619  31.460   9.464
  557POPC   PO410404  27.559  31.501   9.164
  557POPC   GL110405  27.544  31.476   8.864
  557POPC   GL210406  27.680  31.353   8.864
  557POPC   C1A10407  27.607  31.488   8.564
  557POPC   D2A10408  27.551  31.506   8.264
  557POPC   C3A10409  27.642  31.482   7.964
  557POPC   C4A10410  27.606  31.432   7.664
  557POPC   C1B10411  27.687  31.228   8.564
  557POPC   C2B10412  27.763  31.233   8.264
  557POPC   C3B10413  27.690  31.274   7.964
  557POPC   C4B10414  27.724  31.265   7.664
  558POPC   NC310415  21.389  22.126   9.464
  558POPC   PO410416  21.375  22.131   9.164
  558POPC   GL110417  21.432  22.158   8.864
  558POPC   GL210418  21.451  22.061   8.864
  558POPC   C1A10419  21.348  22.124   8.564
  558POPC   D2A10420  21.435  22.205   8.264
  558POPC   C3A10421  21.408  22.160   7.964
  558POPC   C4A10422  21.403  22.142   7.664
  558POPC   C1B10423  21.575  21.937   8.564
  558POPC   C2B10424  21.539  21.963   8.264
  558POPC   C3B10425  21.588  21.924   7.964
  558POPC   C4B10426  21.509  21.965   7.664
  559POPC   NC310427   8.992  21.393   9.464
  559POPC   PO410428   8.975  21.370   9.164
  559POPC   GL110429   9.021  21.368   8.864
  559POPC   GL210430   8.846  21.379   8.864
  559POPC   C1A10431   8.987  21.424   8.564
  559POPC   D2A10432   8.994  21.348   8.264
  559POPC   C3A10433   8.962  21.413   7.964
  559POPC   C4A10434   8.981  21.431   7.664
  559POPC   C1B10435   8.757  21.343   8.564
  559POPC   C2B10436   8.759  21.323   8.264
  559POPC   C3B10437   8.692  21.335   7.964
  559POPC   C4B10438   8.786  21.332   7.664
  560POPC   NC310439  23.722  32.975   9.464
  560POPC   PO410440  23.724  33.027   9.164
  560POPC   GL110441  23.747  33.072   8.864
  560POPC   GL210442  23.789  33.119   8.864
  560POPC   C1A10443  23.680  33.071   8.564
  560POPC   D2A10444  23.667  33.005   8.264
  560POPC   C3A10445  23.697  33.063   7.964
  560POPC   C4A10446  23.719  33.060   7.664
  560POPC   C1B10447  23.774  33.303   8.564
  560POPC   C2B10448  23.819  33.251   8.264
  560POPC   C3B10449  23.858  33.240   7.964
  560POPC   C4B10450  23.854  33.302   7.664
  561POPC   NC310451  40.795   2.774   9.464
  561POPC   PO410452  40.739   2.736   9.164
  561POPC   GL110453  40.828   2.798   8.864
  561POPC   GL210454  40.705   2.905   8.864
  561POPC   C1A10455  40.816   2.750   8.564
  561POPC   D2A10456  40.751   2.738   8.264
  561POPC   C3A10457  40.748   2.811   7.964
  561POPC   C4A10458  40.744   2.751   7.664
  561POPC   C1B10459  40.717   2.980   8.564
  561POPC   C2B10460  40.726   3.035   8.264
  561POPC   C3B10461  40.696   2.987   7.964
  561POPC   C4B10462  40.702   2.987   7.664
  562POPC   NC310463  25.226  22.172   9.464
  562POPC   PO410464  25.305  22.190   9.164
  562POPC   GL110465  25.312  22.113   8.864
  562POPC   GL210466  25.285  22.307   8.864
  562POPC   C1A10467  25.272  22.136   8.564
  562POPC   D2A10468  25.235  22.159   8.264
  562POPC   C3A10469  25.293  22.151   7.964
  562POPC   C4A10470  25.226  22.162   7.664
  562POPC   C1B10471  25.328  22.388   8.564
  562POPC   C2B10472  25.337  22.381   8.264
  562POPC   C3B10473  25.276  22.412   7.964
  562POPC   C4B10474  25.338  22.413   7.664
  563POPC   NC310475  19.800  12.075   9.464
  563POPC   PO410476  19.857  12.115   9.164
  563POPC   GL110477  19.803  12.084   8.864
  563POPC   GL210478  19.872  12.149   8.864
  563POPC   C1A10479  19.839  12.090   8.564
  563POPC   D2A10480  19.818  12.112   8.264
  563POPC   C3A10481  19.875  12.049   7.964
  563POPC   C4A10482  19.879  12.065   7.664
  563POPC   C1B10483  19.977  12.323   8.564
  563POPC   C2B10484  19.946  12.350   8.264
  563POPC   C3B10485  19.976  12.260   7.964
  563POPC   C4B10486  19.980  12.298   7.664
  564POPC   NC310487  36.171  32.996   9.464
  564POPC   PO410488  36.080  32.989   9.164
  564POPC   GL110489  36.137  33.014   8.864
  564POPC   GL210490  36.133  33.124   8.864
  564POPC   C1A10491  36.150  32.978   8.564
  564POPC   D2A10492  36.132  33.019   8.264
  564POPC   C3A10493  36.177  32.976   7.964
  564POPC   C4A10494  36.110  33.072   7.664
  564POPC   C1B10495  36.192  33.213   8.564
  564POPC   C2B10496  36.186  33.288   8.264
  564POPC   C3B10497  36.205  33.258   7.964
  564POPC   C4B10498  36.182  33.290   7.664
  565POPC   NC310499  42.317  22.127   9.464
  565POPC   PO410500  42.290  22.180   9.164
  565POPC   GL110501  42.384  22.171   8.864
  565POPC   GL210502  42.426  22.287   8.864
  565POPC   C1A10503  42.376  22.179   8.564
  565POPC   D2A10504  42.342  22.113   8.264
  565POPC   C3A10505  42.303  22.122   7.964
  565POPC   C4A10506  42.288  22.135   7.664
  565POPC   C1B10507  42.510  22.337   8.564
  565POPC   C2B10508  42.496  22.334   8.264
  565POPC   C3B10509  42.575  22.337   7.964
  565POPC   C4B10510  42.488  22.283   7.664
  566POPC   NC310511  24.446  12.039   9.464
  566POPC   PO410512  24.520  12.066   9.164
  566POPC   GL110513  24.508  12.072   8.864
  566POPC   GL210514  24.600  12.057   8.864
  566POPC   C1A10515  24.492  12.035   8.564
  566POPC   D2A10516  24.517  12.029   8.264
  566POPC   C3A10517  24.497  12.103   7.964
  566POPC   C4A10518  24.509  12.080   7.664
  566POPC   C1B10519  24.726  12.143   8.564
  566POPC   C2B10520  24.723  12.090   8.264
  566POPC   C3B10521  24.787  12.132   7.964
  566POPC   C4B10522  24.691  12.073   7.664
  567POPC   NC310523  28.319  33.019   9.464
  567POPC   PO410524  28.347  33.021   9.164
  567POPC   GL110525  28.337  32.983   8.864
  567POPC   GL210526  28.460  32.954   8.864
  567POPC   C1A10527  28.384  32.983   8.564
  567POPC   D2A10528  28.338  33.013   8.264
  567POPC   C3A10529  28.368  33.029   7.964
  567POPC   C4A10530  28.363  33.015   7.664
  567POPC   C1B10531  28.530  32.825   8.564
  567POPC   C2B10532  28.531  32.886   8.264
  567POPC   C3B10533  28.550  32.876   7.964
  567POPC   C4B10534  28.531  32.827   7.664
  568POPC   NC310535  26.011  27.584   9.464
  568POPC   PO410536  26.051  27.564   9.164
  568POPC   GL110537  26.021  27.548   8.864
  568POPC   GL210538  26.061  27.484   8.864
  568POPC   C1A10539  26.062  27.618   8.564
  568POPC   D2A10540  26.024  27.585   8.264
  568POPC   C3A10541  26.064  27.638   7.964
  568POPC   C4A10542  26.041  27.611   7.664
  568POPC   C1B10543  26.047  27.336   8.564
  568POPC   C2B10544  25.972  27.339   8.264
  568POPC   C3B10545  26.005  27.349   7.964
  568POPC   C4B10546  26.051  27.359   7.664
  569POPC   NC310547   1.261  42.380   9.464
  569POPC   PO410548   1.210  42.291   9.164
  569POPC   GL110549   1.242  42.370   8.864
  569POPC   GL210550   1.222  42.475   8.864
  569POPC   C1A10551   1.218  42.324   8.564
  569POPC   D2A10552   1.197  42.289   8.264
  569POPC   C3A10553   1.250  42.299   7.964
  569POPC   C4A10554   1.174  42.321   7.664
  569POPC   C1B10555   1.296  42.598   8.564
  569POPC   C2B10556   1.290  42.548   8.264
  569POPC   C3B10557   1.222  42.568   7.964
  569POPC   C4B10558   1.265  42.627   7.664
  570POPC   NC310559   3.558  33.784   9.464
  570POPC   PO410560   3.554  33.834   9.164
  570POPC   GL110561   3.534  33.758   8.864
  570POPC   GL210562   3.688  33.823   8.864
  570POPC   C1A10563   3.570  33.808   8.564
  570POPC   D2A10564   3.552  33.790   8.264
  570POPC   C3A10565   3.517  33.811   7.964
  570POPC   C4A10566   3.535  33.767   7.664
  570POPC   C1B10567   3.806  33.905   8.564
  570POPC   C2B10568   3.775  33.887   8.264
  570POPC   C3B10569   3.740  33.950   7.964
  570POPC   C4B10570   3.733  33.890   7.664
  571POPC   NC310571   7.376   5.048   9.464
  571POPC   PO410572   7.464   5.095   9.164
  571POPC   GL110573   7.440   5.097   8.864
  571POPC   GL210574   7.463   5.147   8.864
  571POPC   C1A10575   7.377   5.126   8.564
  571POPC   D2A10576   7.464   5.094   8.264
  571POPC   C3A10577   7.401   5.117   7.964
  571POPC   C4A10578   7.376   5.066   7.664
  571POPC   C1B10579   7.574   5.288   8.564
  571POPC   C2B10580   7.555   5.268   8.264
  571POPC   C3B10581   7.546   5.259   7.964
  571POPC   C4B10582   7.585   5.232   7.664
  572POPC   NC310583  36.120   3.584   9.464
  572POPC   PO410584  36.116   3.571   9.164
  572POPC   GL110585  36.168   3.569   8.864
  572POPC   GL210586  36.045   3.491   8.864
  572POPC   C1A10587  36.138   3.566   8.564
  572POPC   D2A10588  36.120   3.515   8.264
  572POPC   C3A10589  36.100   3.584   7.964
  572POPC   C4A10590  36.109   3.564   7.664
  572POPC   C1B10591  35.938   3.410   8.564
  572POPC   C2B10592  35.907   3.407   8.264
  572POPC   C3B10593  35.881   3.398   7.964
  572POPC   C4B10594  35.888   3.480   7.664
  573POPC   NC310595  22.960  41.596   9.464
  573POPC   PO410596  22.981  41.564   9.164
  573POPC   GL110597  22.975  41.561   8.864
  573POPC   GL210598  22.876  41.678   8.864
  573POPC   C1A10599  22.919  41.541   8.564
  573POPC   D2A10600  22.975  41.561   8.264
  573POPC   C3A10601  22.921  41.584   7.964
  573POPC   C4A10602  22.964  41.588   7.664
  573POPC   C1B10603  22.744  41.777   8.564
  573POPC   C2B10604  22.763  41.746   8.264
  573POPC   C3B10605  22.779  41.741   7.964
  573POPC   C4B10606  22.779  41.765   7.664
  574POPC   NC310607  24.500   6.666   9.464
  574POPC   PO410608  24.539   6.596   9.164
  574POPC   GL110609  24.447   6.677   8.864
  574POPC   GL210610  24.553   6.748   8.864
  574POPC   C1A10611  24.441   6.612   8.564
  574POPC   D2A10612  24.490   6.680   8.264
  574POPC   C3A10613  24.497   6.597   7.964
  574POPC   C4A10614  24.472   6.662   7.664
  574POPC   C1B10615  24.642   6.790   8.564
  574POPC   C2B10616  24.661   6.810   8.264
  574POPC   C3B10617  24.634   6.869   7.964
  574POPC   C4B10618  24.685   6.820   7.664
  575POPC   NC310619  38.476  40.748   9.464
  575POPC   PO410620  38.482  40.767   9.164
  575POPC   GL110621  38.434  40.756   8.864
  575POPC   GL210622  38.358  40.766   8.864
  575POPC   C1A10623  38.421  40.821   8.564
  575POPC   D2A10624  38.491  40.814   8.264
  575POPC   C3A10625  38.444  40.774   7.964
  575POPC   C4A10626  38.488  40.783   7.664
  575POPC   C1B10627  38.238  40.830   8.564
  575POPC   C2B10628  38.248  40.805   8.264
  575POPC   C3B10629  38.179  40.739   7.964
  575POPC   C4B10630  38.163  40.737   7.664
  576POPC   NC310631  12.044  35.307   9.464
  576POPC   PO410632  12.101  35.326   9.164
  576POPC   GL110633  12.081  35.369   8.864
  576POPC   GL210634  12.142  35.257   8.864
  576POPC   C1A10635  12.078  35.306   8.564
  576POPC   D2A10636  12.048  35.390   8.264
  576POPC   C3A10637  12.076  35.353   7.964
  576POPC   C4A10638  12.050  35.348   7.664
  576POPC   C1B10639  12.329  35.236   8.564
  576POPC   C2B10640  12.333  35.228   8.264
  576POPC   C3B10641  12.272  35.291   7.964
  576POPC   C4B10642  12.315  35.220   7.664
  577POPC   NC310643  36.092  30.674   9.464
  577POPC   PO410644  36.082  30.650   9.164
  577POPC   GL110645  36.157  30.673   8.864
  577POPC   GL210646  36.258  30.763   8.864
  577POPC   C1A10647  36.096  30.722   8.564
  577POPC   D2A10648  36.085  30.693   8.264
  577POPC   C3A10649  36.162  30.702   7.964
  577POPC   C4A10650  36.109  30.659   7.664
  577POPC   C1B10651  36.286  30.868   8.564
  577POPC   C2B10652  36.263  30.869   8.264
  577POPC   C3B10653  36.274  30.924   7.964
  577POPC   C4B10654  36.280  30.880   7.664
  578POPC   NC310655   4.364  39.275   9.464
  578POPC   PO410656   4.366  39.234   9.164
  578POPC   GL110657   4.300  39.248   8.864
  578POPC   GL210658   4.438  39.291   8.864
  578POPC   C1A10659   4.348  39.225   8.564
  578POPC   D2A10660   4.285  39.200   8.264
  578POPC   C3A10661   4.293  39.259   7.964
  578POPC   C4A10662   4.270  39.191   7.664
  578POPC   C1B10663   4.529  39.342   8.564
  578POPC   C2B10664   4.551  39.350   8.264
  578POPC   C3B10665   4.531  39.360   7.964
  578POPC   C4B10666   4.590  39.328   7.664
  579POPC   NC310667  12.885  33.068   9.464
  579POPC   PO410668  12.890  33.049   9.164
  579POPC   GL110669  12.827  33.020   8.864
  579POPC   GL210670  12.811  32.868   8.864
  579POPC   C1A10671  12.893  32.989   8.564
  579POPC   D2A10672  12.885  32.976   8.264
  579POPC   C3A10673  12.879  33.038   7.964
  579POPC   C4A10674  12.821  33.069   7.664
  579POPC   C1B10675  12.777  32.750   8.564
  579POPC   C2B10676  12.781  32.744   8.264
  579POPC   C3B10677  12.755  32.760   7.964
  579POPC   C4B10678  12.802  32.761   7.664
  580POPC   NC310679   8.930  23.701   9.464
  580POPC   PO410680   8.992  23.701   9.164
  580POPC   GL110681   8.924  23.722   8.864
  580POPC   GL210682   8.963  23.878   8.864
  580POPC   C1A10683   9.011  23.674   8.564
  580POPC   D2A10684   8.923  23.718   8.264
  580POPC   C3A10685   8.930  23.698   7.964
  580POPC   C4A10686   8.984  23.735   7.664
  580POPC   C1B10687   9.017  23.952   8.564
  580POPC   C2B10688   8.955  23.967   8.264
  580POPC   C3B10689   8.990  23.923   7.964
  580POPC   C4B10690   8.974  23.975   7.664
  581POPC   NC310691  40.782  40.816   9.464
  581POPC   PO410692  40.819  40.829   9.164
  581POPC   GL110693  40.762  40.812   8.864
  581POPC   GL210694  40.857  40.899   8.864
  581POPC   C1A10695  40.780  40.788   8.564
  581POPC   D2A10696  40.801  40.801   8.264
  581POPC   C3A10697  40.751  40.743   7.964
  581POPC   C4A10698  40.796  40.755   7.664
  581POPC   C1B10699  40.943  40.981   8.564
  581POPC   C2B10700  40.941  41.005   8.264
  581POPC   C3B10701  40.897  40.942   7.964
  581POPC   C4B10702  40.895  40.968   7.664
  582POPC   NC310703   7.406  44.617   9.464
  582POPC   PO410704   7.408  44.660   9.164
  582POPC   GL110705   7.395  44.615   8.864
  582POPC   GL210706   7.564  44.692   8.864
  582POPC   C1A10707   7.462  44.625   8.564
  582POPC   D2A10708   7.393  44.691   8.264
  582POPC   C3A10709   7.422  44.694   7.964
  582POPC   C4A10710   7.456  44.660   7.664
  582POPC   C1B10711   7.663  44.829   8.564
  582POPC   C2B10712   7.603  44.762   8.264
  582POPC   C3B10713   7.654  44.792   7.964
  582POPC   C4B10714   7.592  44.836   7.664
  583POPC   NC310715  16.712  36.169   9.464
  583POPC   PO410716  16.706  36.120   9.164
  583POPC   GL110717  16.682  36.158   8.864
  583POPC   GL210718  16.617  36.064   8.864
  583POPC   C1A10719  16.696  36.158   8.564
  583POPC   D2A10720  16.774  36.081   8.264
  583POPC   C3A10721  16.756  36.165   7.964
  583POPC   C4A10722  16.760  36.161   7.664
  583POPC   C1B10723  16.483  36.075   8.564
  583POPC   C2B10724  16.449  36.038   8.264
  583POPC   C3B10725  16.524  36.056   7.964
  583POPC   C4B10726  16.459  36.094   7.664
  584POPC   NC310727  14.411  19.820   9.464
  584POPC   PO410728  14.436  19.821   9.164
  584POPC   GL110729  14.453  19.819   8.864
  584POPC   GL210730  14.553  19.841   8.864
  584POPC   C1A10731  14.448  19.876   8.564
  584POPC   D2A10732  14.443  19.816   8.264
  584POPC   C3A10733  14.383  19.818   7.964
  584POPC   C4A10734  14.380  19.815   7.664
  584POPC   C1B10735  14.617  19.889   8.564
  584POPC   C2B10736  14.625  19.901   8.264
  584POPC   C3B10737  14.618  19.906   7.964
  584POPC   C4B10738  14.675  19.923   7.664
  585POPC   NC310739   1.229  33.047   9.464
  585POPC   PO410740   1.189  33.015   9.164
  585POPC   GL110741   1.192  32.981   8.864
  585POPC   GL210742   1.151  33.077   8.864
  585POPC   C1A10743   1.200  33.064   8.564
  585POPC   D2A10744   1.204  32.984   8.264
  585POPC   C3A10745   1.240  32.986   7.964
  585POPC   C4A10746   1.183  33.006   7.664
  585POPC   C1B10747   0.994  33.118   8.564
  585POPC   C2B10748   1.047  33.156   8.264
  585POPC   C3B10749   1.049  33.185   7.964
  585POPC   C4B10750   1.049  33.199   7.664
  586POPC   NC310751  19.095  36.915   9.464
  586POPC   PO410752  19.012  36.928   9.164
  586POPC   GL110753  19.092  36.903   8.864
  586POPC   GL210754  19.178  36.957   8.864
  586POPC   C1A10755  19.013  36.893   8.564
  586POPC   D2A10756  19.035  36.944   8.264
  586POPC   C3A10757  19.065  36.952   7.964
  586POPC   C4A10758  19.072  36.933   7.664
  586POPC   C1B10759  19.293  36.928   8.564
  586POPC   C2B10760  19.319  36.875   8.264
  586POPC   C3B10761  19.283  36.871   7.964
  586POPC   C4B10762  19.285  36.928   7.664
  587POPC   NC310763  42.338  25.284   9.464
  587POPC   PO410764  42.383  25.284   9.164
  587POPC   GL110765  42.295  25.264   8.864
  587POPC   GL210766  42.272  25.380   8.864
  587POPC   C1A10767  42.321  25.253   8.564
  587POPC   D2A10768  42.320  25.279   8.264
  587POPC   C3A10769  42.288  25.305   7.964
  587POPC   C4A10770  42.293  25.293   7.664
  587POPC   C1B10771  42.323  25.525   8.564
  587POPC   C2B10772  42.293  25.518   8.264
  587POPC   C3B10773  42.286  25.501   7.964
  587POPC   C4B10774  42.349  25.551   7.664
  588POPC   NC310775  30.732  18.315   9.464
  588POPC   PO410776  30.703  18.302   9.164
  588POPC   GL110777  30.731  18.268   8.864
  588POPC   GL210778  30.671  18.389   8.864
  588POPC   C1A10779  30.732  18.301   8.564
  588POPC   D2A10780  30.682  18.244   8.264
  588POPC   C3A10781  30.719  18.273   7.964
  588POPC   C4A10782  30.684  18.283   7.664
  588POPC   C1B10783  30.581  18.553   8.564
  588POPC   C2B10784  30.619  18.472   8.264
  588POPC   C3B10785  30.606  18.517   7.964
  588POPC   C4B10786  30.592  18.491   7.664
  589POPC   NC310787  31.485  42.346   9.464
  589POPC   PO410788  31.516  42.330   9.164
  589POPC   GL110789  31.506  42.379   8.864
  589POPC   GL210790  31.626  42.292   8.864
  589POPC   C1A10791  31.511  42.289   8.564
  589POPC   D2A10792  31.459  42.310   8.264
  589POPC   C3A10793  31.451  42.365   7.964
  589POPC   C4A10794  31.473  42.368   7.664
  589POPC   C1B10795  31.722  42.173   8.564
  589POPC   C2B10796  31.699  42.179   8.264
  589POPC   C3B10797  31.679  42.258   7.964
  589POPC   C4B10798  31.685  42.254   7.664
  590POPC   NC310799  34.578   7.372   9.464
  590POPC   PO410800  34.594   7.396   9.164
  590POPC   GL110801  34.588   7.470   8.864
  590POPC   GL210802  34.534   7.541   8.864
  590POPC   C1A10803  34.609   7.406   8.564
  590POPC   D2A10804  34.537   7.420   8.264
  590POPC   C3A10805  34.615   7.431   7.964
  590POPC   C4A10806  34.530   7.387   7.664
  590POPC   C1B10807  34.376   7.578   8.564
  590POPC   C2B10808  34.457   7.607   8.264
  590POPC   C3B10809  34.398   7.597   7.964
  590POPC   C4B10810  34.457   7.663   7.664
  591POPC   NC310811  39.274   8.228   9.464
  591POPC   PO410812  39.265   8.227   9.164
  591POPC   GL110813  39.256   8.230   8.864
  591POPC   GL210814  39.370   8.144   8.864
  591POPC   C1A10815  39.226   8.241   8.564
  591POPC   D2A10816  39.243   8.177   8.264
  591POPC   C3A10817  39.190   8.153   7.964
  591POPC   C4A10818  39.196   8.171   7.664
  591POPC   C1B10819  39.429   8.060   8.564
  591POPC   C2B10820  39.429   8.091   8.264
  591POPC   C3B10821  39.444   8.058   7.964
  591POPC   C4B10822  39.453   8.046   7.664
  592POPC   NC310823  25.242   9.744   9.464
  592POPC   PO410824  25.239   9.748   9.164
  592POPC   GL110825  25.239   9.723   8.864
  592POPC   GL210826  25.180   9.735   8.864
  592POPC   C1A10827  25.299   9.764   8.564
  592POPC   D2A10828  25.217   9.761   8.264
  592POPC   C3A10829  25.254   9.790   7.964
  592POPC   C4A10830  25.217   9.736   7.664
  592POPC   C1B10831  25.040   9.667   8.564
  592POPC   C2B10832  25.063   9.727   8.264
  592POPC   C3B10833  25.048   9.689   7.964
  592POPC   C4B10834  25.060   9.713   7.664
  593POPC   NC310835  15.169   5.116   9.464
  593POPC   PO410836  15.170   5.058   9.164
  593POPC   GL110837  15.164   5.124   8.864
  593POPC   GL210838  15.168   5.195   8.864
  593POPC   C1A10839  15.163   5.124   8.564
  593POPC   D2A10840  15.132   5.102   8.264
  593POPC   C3A10841  15.136   5.085   7.964
  593POPC   C4A10842  15.168   5.103   7.664
  593POPC   C1B10843  15.221   5.342   8.564
  593POPC   C2B10844  15.275   5.357   8.264
  593POPC   C3B10845  15.268   5.308   7.964
  593POPC   C4B10846  15.271   5.369   7.664
  594POPC   NC310847  24.474  34.607   9.464
  594POPC   PO410848  24.476  34.577   9.164
  594POPC   GL110849  24.517  34.609   8.864
  594POPC   GL210850  24.356  34.517   8.864
  594POPC   C1A10851  24.447  34.575   8.564
  594POPC   D2A10852  24.499  34.542   8.264
  594POPC   C3A10853  24.483  34.535   7.964
  594POPC   C4A10854  24.491  34.534   7.664
  594POPC   C1B10855  24.265  34.477   8.564
  594POPC   C2B10856  24.234  34.475   8.264
  594POPC   C3B10857  24.269  34.504   7.964
  594POPC   C4B10858  24.217  34.459   7.664
  595POPC   NC310859  22.950  10.475   9.464
  595POPC   PO410860  22.978  10.481   9.164
  595POPC   GL110861  22.952  10.555   8.864
  595POPC   GL210862  22.900  10.411   8.864
  595POPC   C1A10863  22.900  10.540   8.564
  595POPC   D2A10864  22.944  10.500   8.264
  595POPC   C3A10865  22.930  10.480   7.964
  595POPC   C4A10866  22.939  10.552   7.664
  595POPC   C1B10867  22.851  10.292   8.564
  595POPC   C2B10868  22.852  10.242   8.264
  595POPC   C3B10869  22.867  10.288   7.964
  595POPC   C4B10870  22.878  10.267   7.664
  596POPC   NC310871  27.611   9.750   9.464
  596POPC   PO410872  27.566   9.712   9.164
  596POPC   GL110873  27.595   9.776   8.864
  596POPC   GL210874  27.626   9.602   8.864
  596POPC   C1A10875  27.603   9.707   8.564
  596POPC   D2A10876  27.566   9.730   8.264
  596POPC   C3A10877  27.643   9.754   7.964
  596POPC   C4A10878  27.631   9.796   7.664
  596POPC   C1B10879  27.619   9.536   8.564
  596POPC   C2B10880  27.599   9.499   8.264
  596POPC   C3B10881  27.624   9.460   7.964
  596POPC   C4B10882  27.599   9.497   7.664
  597POPC   NC310883  18.329  28.327   9.464
  597POPC   PO410884  18.236  28.403   9.164
  597POPC   GL110885  18.319  28.342   8.864
  597POPC   GL210886  18.220  28.485   8.864
  597POPC   C1A10887  18.254  28.357   8.564
  597POPC   D2A10888  18.307  28.389   8.264
  597POPC   C3A10889  18.323  28.385   7.964
  597POPC   C4A10890  18.254  28.399   7.664
  597POPC   C1B10891  18.102  28.509   8.564
  597POPC   C2B10892  18.097  28.516   8.264
  597POPC   C3B10893  18.083  28.563   7.964
  597POPC   C4B10894  18.121  28.564   7.664
  598POPC   NC310895  43.084   7.455   9.464
  598POPC   PO410896  43.155   7.390   9.164
  598POPC   GL110897  43.152   7.464   8.864
  598POPC   GL210898  43.121   7.260   8.864
  598POPC   C1A10899  43.153   7.415   8.564
  598POPC   D2A10900  43.097   7.445   8.264
  598POPC   C3A10901  43.092   7.445   7.964
  598POPC   C4A10902  43.074   7.413   7.664
  598POPC   C1B10903  43.109   7.183   8.564
  598POPC   C2B10904  43.152   7.154   8.264
  598POPC   C3B10905  43.121   7.201   7.964
  598POPC   C4B10906  43.155   7.192   7.664
  599POPC   NC310907  29.194  29.940   9.464
  599POPC   PO410908  29.165  29.920   9.164
  599POPC   GL110909  29.114  29.886   8.864
  599POPC   GL210910  29.168  30.074   8.864
  599POPC   C1A10911  29.099  29.935   8.564
  599POPC   D2A10912  29.149  29.874   8.264
  599POPC   C3A10913  29.110  29.947   7.964
  599POPC   C4A10914  29.143  29.901   7.664
  599POPC   C1B10915  29.061  30.156   8.564
  599POPC   C2B10916  29.107  30.146   8.264
  599POPC   C3B10917  29.071  30.139   7.964
  599POPC   C4B10918  29.070  30.177   7.664
  600POPC   NC310919   0.429  27.604   9.464
  600POPC   PO410920   0.425  27.574   9.164
  600POPC   GL110921   0.451  27.616   8.864
  600POPC   GL210922   0.365  27.690   8.864
  600POPC   C1A10923   0.453  27.627   8.564
  600POPC   D2A10924   0.444  27.568   8.264
  600POPC   C3A10925   0.485  27.609   7.964
  600POPC   C4A10926   0.447  27.630   7.664
  600POPC   C1B10927   0.259  27.712   8.564
  600POPC   C2B10928   0.232  27.721   8.264
  600POPC   C3B10929   0.242  27.773   7.964
  600POPC   C4B10930   0.288  27.781   7.664
  601POPC   NC310931  16.696   0.441   9.464
  601POPC   PO410932  16.767   0.435   9.164
  601POPC   GL110933  16.683   0.396   8.864
  601POPC   GL210934  16.827   0.313   8.864
  601POPC   C1A10935  16.757   0.483   8.564
  601POPC   D2A10936  16.730   0.478   8.264
  601POPC   C3A10937  16.710   0.415   7.964
  601POPC   C4A10938  16.724   0.469   7.664
  601POPC   C1B10939  16.896   0.214   8.564
  601POPC   C2B10940  16.822   0.263   8.264
  601POPC   C3B10941  16.817   0.248   7.964
  601POPC   C4B10942  16.905   0.263   7.664
  602POPC   NC310943   1.206  25.994   9.464
  602POPC   PO410944   1.167  26.026   9.164
  602POPC   GL110945   1.263  26.079   8.864
  602POPC   GL210946   1.252  25.923   8.864
  602POPC   C1A10947   1.169  26.078   8.564
  602POPC   D2A10948   1.226  26.038   8.264
  602POPC   C3A10949   1.222  26.067   7.964
  602POPC   C4A10950   1.260  26.086   7.664
  602POPC   C1B10951   1.389  25.857   8.564
  602POPC   C2B10952   1.352  25.868   8.264
  602POPC   C3B10953   1.308  25.856   7.964
  602POPC   C4B10954   1.359  25.837   7.664
  603POPC   NC310955  33.028   2.802   9.464
  603POPC   PO410956  32.993   2.799   9.164
  603POPC   GL110957  33.007   2.735   8.864
  603POPC   GL210958  33.154   2.831   8.864
  603POPC   C1A10959  33.024   2.730   8.564
  603POPC   D2A10960  33.017   2.740   8.264
  603POPC   C3A10961  33.072   2.806   7.964
  603POPC   C4A10962  33.043   2.759   7.664
  603POPC   C1B10963  33.285   2.816   8.564
  603POPC   C2B10964  33.314   2.815   8.264
  603POPC   C3B10965  33.287   2.784   7.964
  603POPC   C4B10966  33.257   2.864   7.664
  604POPC   NC310967  11.297  31.483   9.464
  604POPC   PO410968  11.295  31.474   9.164
  604POPC   GL110969  11.344  31.520   8.864
  604POPC   GL210970  11.423  31.596   8.864
  604POPC   C1A10971  11.286  31.452   8.564
  604POPC   D2A10972  11.314  31.431   8.264
  604POPC   C3A10973  11.335  31.491   7.964
  604POPC   C4A10974  11.312  31.497   7.664
  604POPC   C1B10975  11.483  31.647   8.564
  604POPC   C2B10976  11.520  31.680   8.264
  604POPC   C3B10977  11.474  31.589   7.964
  604POPC   C4B10978  11.534  31.632   7.664
  605POPC   NC310979  39.973  22.143   9.464
  605POPC   PO410980  40.023  22.169   9.164
  605POPC   GL110981  40.009  22.129   8.864
  605POPC   GL210982  39.986  22.086   8.864
  605POPC   C1A10983  39.964  22.159   8.564
  605POPC   D2A10984  39.962  22.162   8.264
  605POPC   C3A10985  39.970  22.121   7.964
  605POPC   C4A10986  40.017  22.171   7.664
  605POPC   C1B10987  40.094  21.896   8.564
  605POPC   C2B10988  40.078  21.946   8.264
  605POPC   C3B10989  40.048  21.956   7.964
  605POPC   C4B10990  40.015  21.879   7.664
  606POPC   NC310991  12.860  36.931   9.464
  606POPC   PO410992  12.840  36.928   9.164
  606POPC   GL110993  12.867  36.901   8.864
  606POPC   GL210994  12.971  36.996   8.864
  606POPC   C1A10995  12.834  36.887   8.564
  606POPC   D2A10996  12.879  36.867   8.264
  606POPC   C3A10997  12.893  36.921   7.964
  606POPC   C4A10998  12.899  36.868   7.664
  606POPC   C1B10999  13.067  37.126   8.564
  606POPC   C2B11000  13.069  37.031   8.264
  606POPC   C3B11001  13.035  37.101   7.964
  606POPC   C4B11002  13.054  37.126   7.664
  607POPC   NC311003  28.333  25.272   9.464
  607POPC   PO411004  28.323  25.218   9.164
  607POPC   GL111005  28.355  25.226   8.864
  607POPC   GL211006  28.254  25.151   8.864
  607POPC   C1A11007  28.357  25.234   8.564
  607POPC   D2A11008  28.348  25.273   8.264
  607POPC   C3A11009  28.377  25.264   7.964
  607POPC   C4A11010  28.379  25.266   7.664
  607POPC   C1B11011  28.194  25.080   8.564
  607POPC   C2B11012  28.130  25.085   8.264
  607POPC   C3B11013  28.147  25.120   7.964
  607POPC   C4B11014  28.170  25.144   7.664
  608POPC   NC311015   8.173  17.470   9.464
  608POPC   PO411016   8.183  17.473   9.164
  608POPC   GL111017   8.147  17.515   8.864
  608POPC   GL211018   8.262  17.603   8.864
  608POPC   C1A11019   8.169  17.462   8.564
  608POPC   D2A11020   8.180  17.478   8.264
  608POPC   C3A11021   8.200  17.459   7.964
  608POPC   C4A11022   8.211  17.517   7.664
  608POPC   C1B11023   8.260  17.718   8.564
  608POPC   C2B11024   8.240  17.705   8.264
  608POPC   C3B11025   8.250  17.799   7.964
  608POPC   C4B11026   8.273  17.758   7.664
  609POPC   NC311027  39.970   2.789   9.464
  609POPC   PO411028  40.006   2.795   9.164
  609POPC   GL111029  40.003   2.769   8.864
  609POPC   GL211030  39.928   2.738   8.864
  609POPC   C1A11031  39.979   2.806   8.564
  609POPC   D2A11032  39.957   2.748   8.264
  609POPC   C3A11033  40.023   2.799   7.964
  609POPC   C4A11034  39.973   2.786   7.664
  609POPC   C1B11035  39.776   2.688   8.564
  609POPC   C2B11036  39.800   2.723   8.264
  609POPC   C3B11037  39.747   2.722   7.964
  609POPC   C4B11038  39.753   2.663   7.664
  610POPC   NC311039  14.384  31.456   9.464
  610POPC   PO411040  14.427  31.433   9.164
  610POPC   GL111041  14.404  31.517   8.864
  610POPC   GL211042  14.461  31.416   8.864
  610POPC   C1A11043  14.424  31.480   8.564
  610POPC   D2A11044  14.400  31.471   8.264
  610POPC   C3A11045  14.397  31.446   7.964
  610POPC   C4A11046  14.388  31.511   7.664
  610POPC   C1B11047  14.587  31.267   8.564
  610POPC   C2B11048  14.601  31.260   8.264
  610POPC   C3B11049  14.575  31.270   7.964
  610POPC   C4B11050  14.599  31.275   7.664
  611POPC   NC311051   6.678  19.850   9.464
  611POPC   PO411052   6.686  19.877   9.164
  611POPC   GL111053   6.663  19.853   8.864
  611POPC   GL211054   6.779  19.911   8.864
  611POPC   C1A11055   6.693  19.843   8.564
  611POPC   D2A11056   6.620  19.838   8.264
  611POPC   C3A11057   6.625  19.848   7.964
  611POPC   C4A11058   6.670  19.813   7.664
  611POPC   C1B11059   6.812  20.025   8.564
  611POPC   C2B11060   6.792  20.019   8.264
  611POPC   C3B11061   6.858  20.033   7.964
  611POPC   C4B11062   6.779  19.994   7.664
  612POPC   NC311063   9.016  14.389   9.464
  612POPC   PO411064   8.986  14.391   9.164
  612POPC   GL111065   8.978  14.446   8.864
  612POPC   GL211066   9.001  14.322   8.864
  612POPC   C1A11067   9.007  14.406   8.564
  612POPC   D2A11068   8.947  14.452   8.264
  612POPC   C3A11069   8.935  14.426   7.964
  612POPC   C4A11070   8.931  14.376   7.664
  612POPC   C1B11071   9.015  14.197   8.564
  612POPC   C2B11072   8.950  14.176   8.264
  612POPC   C3B11073   8.924  14.199   7.964
  612POPC   C4B11074   8.921  14.127   7.664
  613POPC   NC311075   0.455  26.770   9.464
  613POPC   PO411076   0.464  26.821   9.164
  613POPC   GL111077   0.474  26.825   8.864
  613POPC   GL211078   0.307  26.794   8.864
  613POPC   C1A11079   0.413  26.856   8.564
  613POPC   D2A11080   0.483  26.855   8.264
  613POPC   C3A11081   0.450  26.818   7.964
  613POPC   C4A11082   0.438  26.801   7.664
  613POPC   C1B11083   0.146  26.790   8.564
  613POPC   C2B11084   0.186  26.868   8.264
  613POPC   C3B11085   0.185  26.844   7.964
  613POPC   C4B11086   0.181  26.862   7.664
  614POPC   NC311087  43.103  39.219   9.464
  614POPC   PO411088  43.087  39.222   9.164
  614POPC   GL111089  43.074  39.182   8.864
  614POPC   GL211090  42.987  39.234   8.864
  614POPC   C1A11091  43.078  39.268   8.564
  614POPC   D2A11092  43.104  39.210   8.264
  614POPC   C3A11093  43.111  39.254   7.964
  614POPC   C4A11094  43.139  39.210   7.664
  614POPC   C1B11095  42.892  39.219   8.564
  614POPC   C2B11096  42.818  39.153   8.264
  614POPC   C3B11097  42.852  39.146   7.964
  614POPC   C4B11098  42.814  39.147   7.664
  615POPC   NC311099  22.958  29.875   9.464
  615POPC   PO411100  22.952  29.932   9.164
  615POPC   GL111101  22.957  29.887   8.864
  615POPC   GL211102  23.107  29.939   8.864
  615POPC   C1A11103  22.892  29.967   8.564
  615POPC   D2A11104  22.942  29.964   8.264
  615POPC   C3A11105  22.897  29.884   7.964
  615POPC   C4A11106  22.921  29.918   7.664
  615POPC   C1B11107  23.179  29.972   8.564
  615POPC   C2B11108  23.175  29.955   8.264
  615POPC   C3B11109  23.224  30.009   7.964
  615POPC   C4B11110  23.220  29.949   7.664
  616POPC   NC311111  27.554  12.859   9.464
  616POPC   PO411112  27.596  12.840   9.164
  616POPC   GL111113  27.614  12.833   8.864
  616POPC   GL211114  27.490  12.844   8.864
  616POPC   C1A11115  27.628  12.854   8.564
  616POPC   D2A11116  27.577  12.865   8.264
  616POPC   C3A11117  27.635  12.831   7.964
  616POPC   C4A11118  27.546  12.817   7.664
  616POPC   C1B11119  27.320  12.796   8.564
  616POPC   C2B11120  27.399  12.758   8.264
  616POPC   C3B11121  27.360  12.735   7.964
  616POPC   C4B11122  27.324  12.767   7.664
  617POPC   NC311123  25.266   6.651   9.464
  617POPC   PO411124  25.276   6.677   9.164
  617POPC   GL111125  25.239   6.607   8.864
  617POPC   GL211126  25.111   6.647   8.864
  617POPC   C1A11127  25.219   6.684   8.564
  617POPC   D2A11128  25.241   6.598   8.264
  617POPC   C3A11129  25.294   6.691   7.964
  617POPC   C4A11130  25.248   6.605   7.664
  617POPC   C1B11131  25.077   6.739   8.564
  617POPC   C2B11132  25.021   6.725   8.264
  617POPC   C3B11133  25.036   6.713   7.964
  617POPC   C4B11134  25.062   6.772   7.664
  618POPC   NC311135   5.051   0.459   9.464
  618POPC   PO411136   5.096   0.471   9.164
  618POPC   GL111137   5.110   0.472   8.864
  618POPC   GL211138   5.041   0.342   8.864
  618POPC   C1A11139   5.058   0.392   8.564
  618POPC   D2A11140   5.070   0.466   8.264
  618POPC   C3A11141   5.074   0.451   7.964
  618POPC   C4A11142   5.111   0.439   7.664
  618POPC   C1B11143   5.096   0.145   8.564
  618POPC   C2B11144   5.032   0.193   8.264
  618POPC   C3B11145   5.011   0.239   7.964
  618POPC   C4B11146   5.091   0.199   7.664
  619POPC   NC311147   8.932  22.935   9.464
  619POPC   PO411148   8.960  22.978   9.164
  619POPC   GL111149   8.942  22.901   8.864
  619POPC   GL211150   9.053  23.038   8.864
  619POPC   C1A11151   8.944  22.936   8.564
  619POPC   D2A11152   8.963  22.890   8.264
  619POPC   C3A11153   8.950  22.922   7.964
  619POPC   C4A11154   8.999  22.928   7.664
  619POPC   C1B11155   9.142  23.126   8.564
  619POPC   C2B11156   9.217  23.064   8.264
  619POPC   C3B11157   9.176  23.092   7.964
  619POPC   C4B11158   9.159  23.050   7.664
  620POPC   NC311159  30.675  24.457   9.464
  620POPC   PO411160  30.744  24.528   9.164
  620POPC   GL111161  30.731  24.520   8.864
  620POPC   GL211162  30.543  24.396   8.864
  620POPC   C1A11163  30.671  24.450   8.564
  620POPC   D2A11164  30.711  24.511   8.264
  620POPC   C3A11165  30.701  24.474   7.964
  620POPC   C4A11166  30.707  24.496   7.664
  620POPC   C1B11167  30.477  24.348   8.564
  620POPC   C2B11168  30.423  24.430   8.264
  620POPC   C3B11169  30.436  24.368   7.964
  620POPC   C4B11170  30.487  24.339   7.664
  621POPC   NC311171  28.336  12.867   9.464
  621POPC   PO411172  28.388  12.820   9.164
  621POPC   GL111173  28.391  12.846   8.864
  621POPC   GL211174  28.242  12.741   8.864
  621POPC   C1A11175  28.334  12.901   8.564
  621POPC   D2A11176  28.338  12.897   8.264
  621POPC   C3A11177  28.399  12.842   7.964
  621POPC   C4A11178  28.401  12.841   7.664
  621POPC   C1B11179  28.131  12.717   8.564
  621POPC   C2B11180  28.178  12.732   8.264
  621POPC   C3B11181  28.179  12.678   7.964
  621POPC   C4B11182  28.133  12.739   7.664
  622POPC   NC311183  37.692   8.182   9.464
  622POPC   PO411184  37.669   8.165   9.164
  622POPC   GL111185  37.708   8.221   8.864
  622POPC   GL211186  37.613   8.343   8.864
  622POPC   C1A11187  37.652   8.173   8.564
  622POPC   D2A11188  37.636   8.207   8.264
  622POPC   C3A11189  37.718   8.158   7.964
  622POPC   C4A11190  37.655   8.157   7.664
  622POPC   C1B11191  37.533   8.422   8.564
  622POPC   C2B11192  37.547   8.457   8.264
  622POPC   C3B11193  37.616   8.472   7.964
  622POPC   C4B11194  37.572   8.392   7.664
  623POPC   NC311195  20.640   9.746   9.464
  623POPC   PO411196  20.654   9.714   9.164
  623POPC   GL111197  20.637   9.765   8.864
  623POPC   GL211198  20.574   9.898   8.864
  623POPC   C1A11199  20.562   9.708   8.564
  623POPC   D2A11200  20.643   9.744   8.264
  623POPC   C3A11201  20.609   9.723   7.964
  623POPC   C4A11202  20.602   9.757   7.664
  623POPC   C1B11203  20.540   9.994   8.564
  623POPC   C2B11204  20.581  10.039   8.264
  623POPC   C3B11205  20.568   9.968   7.964
  623POPC   C4B11206  20.555  10.037   7.664
  624POPC   NC311207  15.166  32.255   9.464
  624POPC   PO411208  15.187  32.204   9.164
  624POPC   GL111209  15.185  32.212   8.864
  624POPC   GL211210  15.235  32.144   8.864
  624POPC   C1A11211  15.161  32.298   8.564
  624POPC   D2A11212  15.182  32.291   8.264
  624POPC   C3A11213  15.177  32.273   7.964
  624POPC   C4A11214  15.149  32.254   7.664
  624POPC   C1B11215  15.307  32.051   8.564
  624POPC   C2B11216  15.369  32.064   8.264
  624POPC   C3B11217  15.287  32.060   7.964
  624POPC   C4B11218  15.318  32.087   7.664
  625POPC   NC311219  33.759  21.366   9.464
  625POPC   PO411220  33.758  21.346   9.164
  625POPC   GL111221  33.821  21.393   8.864
  625POPC   GL211222  33.685  21.329   8.864
  625POPC   C1A11223  33.759  21.398   8.564
  625POPC   D2A11224  33.761  21.351   8.264
  625POPC   C3A11225  33.824  21.395   7.964
  625POPC   C4A11226  33.754  21.364   7.664
  625POPC   C1B11227  33.539  21.333   8.564
  625POPC   C2B11228  33.597  21.371   8.264
  625POPC   C3B11229  33.558  21.391   7.964
  625POPC   C4B11230  33.541  21.380   7.664
  626POPC   NC311231   3.500  40.744   9.464
  626POPC   PO411232   3.559  40.812   9.164
  626POPC   GL111233   3.587  40.802   8.864
  626POPC   GL211234   3.428  40.925   8.864
  626POPC   C1A11235   3.503  40.816   8.564
  626POPC   D2A11236   3.553  40.823   8.264
  626POPC   C3A11237   3.581  40.795   7.964
  626POPC   C4A11238   3.521  40.736   7.664
  626POPC   C1B11239   3.399  41.002   8.564
  626POPC   C2B11240   3.406  40.927   8.264
  626POPC   C3B11241   3.331  40.997   7.964
  626POPC   C4B11242   3.410  40.963   7.664
  627POPC   NC311243  40.759  21.392   9.464
  627POPC   PO411244  40.761  21.343   9.164
  627POPC   GL111245  40.831  21.380   8.864
  627POPC   GL211246  40.904  21.364   8.864
  627POPC   C1A11247  40.779  21.360   8.564
  627POPC   D2A11248  40.769  21.401   8.264
  627POPC   C3A11249  40.737  21.369   7.964
  627POPC   C4A11250  40.748  21.403   7.664
  627POPC   C1B11251  40.988  21.293   8.564
  627POPC   C2B11252  40.974  21.324   8.264
  627POPC   C3B11253  41.049  21.316   7.964
  627POPC   C4B11254  40.965  21.313   7.664
  628POPC   NC311255   1.196  29.958   9.464
  628POPC   PO411256   1.189  29.884   9.164
  628POPC   GL111257   1.182  29.897   8.864
  628POPC   GL211258   1.357  29.868   8.864
  628POPC   C1A11259   1.203  29.954   8.564
  628POPC   D2A11260   1.232  29.877   8.264
  628POPC   C3A11261   1.183  29.929   7.964
  628POPC   C4A11262   1.255  29.879   7.664
  628POPC   C1B11263   1.412  29.774   8.564
  628POPC   C2B11264   1.467  29.787   8.264
  628POPC   C3B11265   1.469  29.801   7.964
  628POPC   C4B11266   1.409  29.826   7.664
  629POPC   NC311267  37.726   4.320   9.464
  629POPC   PO411268  37.651   4.358   9.164
  629POPC   GL111269  37.638   4.323   8.864
  629POPC   GL211270  37.631   4.403   8.864
  629POPC   C1A11271  37.658   4.340   8.564
  629POPC   D2A11272  37.678   4.348   8.264
  629POPC   C3A11273  37.677   4.271   7.964
  629POPC   C4A11274  37.698   4.302   7.664
  629POPC   C1B11275  37.565   4.533   8.564
  629POPC   C2B11276  37.546   4.567   8.264
  629POPC   C3B11277  37.603   4.591   7.964
  629POPC   C4B11278  37.619   4.557   7.664
  630POPC   NC311279  34.563  19.034   9.464
  630POPC   PO411280  34.612  19.063   9.164
  630POPC   GL111281  34.579  19.014   8.864
  630POPC   GL211282  34.689  18.970   8.864
  630POPC   C1A11283  34.576  19.045   8.564
  630POPC   D2A11284  34.579  19.070   8.264
  630POPC   C3A11285  34.607  19.024   7.964
  630POPC   C4A11286  34.619  19.016   7.664
  630POPC   C1B11287  34.715  18.894   8.564
  630POPC   C2B11288  34.696  18.899   8.264
  630POPC   C3B11289  34.741  18.888   7.964
  630POPC   C4B11290  34.758  18.871   7.664
  631POPC   NC311291  37.700  36.157   9.464
  631POPC   PO411292  37.697  36.139   9.164
  631POPC   GL111293  37.690  36.082   8.864
  631POPC   GL211294  37.778  36.084   8.864
  631POPC   C1A11295  37.676  36.107   8.564
  631POPC   D2A11296  37.686  36.141   8.264
  631POPC   C3A11297  37.643  36.161   7.964
  631POPC   C4A11298  37.724  36.123   7.664
  631POPC   C1B11299  37.927  36.088   8.564
  631POPC   C2B11300  37.958  36.081   8.264
  631POPC   C3B11301  37.916  36.126   7.964
  631POPC   C4B11302  37.901  36.125   7.664
  632POPC   NC311303  22.906   5.851   9.464
  632POPC   PO411304  22.974   5.916   9.164
  632POPC   GL111305  22.905   5.838   8.864
  632POPC   GL211306  22.905   5.729   8.864
  632POPC   C1A11307  22.914   5.824   8.564
  632POPC   D2A11308  22.974   5.843   8.264
  632POPC   C3A11309  22.972   5.832   7.964
  632POPC   C4A11310  22.982   5.915   7.664
  632POPC   C1B11311  22.919   5.667   8.564
  632POPC   C2B11312  22.929   5.607   8.264
  632POPC   C3B11313  22.952   5.628   7.964
  632POPC   C4B11314  22.987   5.644   7.664
  633POPC   NC311315  13.624  13.654   9.464
  633POPC   PO411316  13.609  13.666   9.164
  633POPC   GL111317  13.620  13.578   8.864
  633POPC   GL211318  13.702  13.681   8.864
  633POPC   C1A11319  13.668  13.602   8.564
  633POPC   D2A11320  13.580  13.621   8.264
  633POPC   C3A11321  13.650  13.621   7.964
  633POPC   C4A11322  13.641  13.605   7.664
  633POPC   C1B11323  13.898  13.695   8.564
  633POPC   C2B11324  13.878  13.686   8.264
  633POPC   C3B11325  13.831  13.753   7.964
  633POPC   C4B11326  13.826  13.707   7.664
  634POPC   NC311327   9.006  38.469   9.464
  634POPC   PO411328   8.999  38.412   9.164
  634POPC   GL111329   9.016  38.452   8.864
  634POPC   GL211330   8.873  38.520   8.864
  634POPC   C1A11331   8.938  38.493   8.564
  634POPC   D2A11332   8.924  38.424   8.264
  634POPC   C3A11333   8.923  38.475   7.964
  634POPC   C4A11334   8.997  38.455   7.664
  634POPC   C1B11335   8.721  38.558   8.564
  634POPC   C2B11336   8.703  38.531   8.264
  634POPC   C3B11337   8.798  38.530   7.964
  634POPC   C4B11338   8.708  38.574   7.664
  635POPC   NC311339  40.007  31.488   9.464
  635POPC   PO411340  39.977  31.444   9.164
  635POPC   GL111341  39.983  31.465   8.864
  635POPC   GL211342  40.104  31.417   8.864
  635POPC   C1A11343  40.044  31.471   8.564
  635POPC   D2A11344  39.967  31.454   8.264
  635POPC   C3A11345  39.960  31.425   7.964
  635POPC   C4A11346  40.000  31.505   7.664
  635POPC   C1B11347  40.288  31.404   8.564
  635POPC   C2B11348  40.288  31.453   8.264
  635POPC   C3B11349  40.239  31.485   7.964
  635POPC   C4B11350  40.286  31.448   7.664
  636POPC   NC311351  34.584  29.903   9.464
  636POPC   PO411352  34.545  29.912   9.164
  636POPC   GL111353  34.533  29.929   8.864
  636POPC   GL211354  34.456  29.999   8.864
  636POPC   C1A11355  34.612  29.907   8.564
  636POPC   D2A11356  34.551  29.937   8.264
  636POPC   C3A11357  34.612  29.877   7.964
  636POPC   C4A11358  34.593  29.962   7.664
  636POPC   C1B11359  34.362  30.067   8.564
  636POPC   C2B11360  34.447  30.055   8.264
  636POPC   C3B11361  34.437  30.145   7.964
  636POPC   C4B11362  34.446  30.099   7.664
  637POPC   NC311363   2.740  28.343   9.464
  637POPC   PO411364   2.774  28.396   9.164
  637POPC   GL111365   2.740  28.388   8.864
  637POPC   GL211366   2.702  28.301   8.864
  637POPC   C1A11367   2.794  28.377   8.564
  637POPC   D2A11368   2.744  28.335   8.264
  637POPC   C3A11369   2.717  28.330   7.964
  637POPC   C4A11370   2.762  28.418   7.664
  637POPC   C1B11371   2.618  28.203   8.564
  637POPC   C2B11372   2.671  28.178   8.264
  637POPC   C3B11373   2.599  28.171   7.964
  637POPC   C4B11374   2.593  28.137   7.664
  638POPC   NC311375  29.104   4.277   9.464
  638POPC   PO411376  29.097   4.290   9.164
  638POPC   GL111377  29.118   4.348   8.864
  638POPC   GL211378  29.264   4.215   8.864
  638POPC   C1A11379  29.163   4.345   8.564
  638POPC   D2A11380  29.131   4.296   8.264
  638POPC   C3A11381  29.120   4.337   7.964
  638POPC   C4A11382  29.153   4.329   7.664
  638POPC   C1B11383  29.307   4.142   8.564
  638POPC   C2B11384  29.314   4.171   8.264
  638POPC   C3B11385  29.307   4.121   7.964
  638POPC   C4B11386  29.330   4.135   7.664
  639POPC   NC311387  44.666  13.663   9.464
  639POPC   PO411388  44.697  13.664   9.164
  639POPC   GL111389  44.706  13.667   8.864
  639POPC   GL211390  44.812  13.618   8.864
  639POPC   C1A11391  44.671  13.674   8.564
  639POPC   D2A11392  44.692  13.675   8.264
  639POPC   C3A11393  44.705  13.627   7.964
  639POPC   C4A11394  44.615  13.604   7.664
  639POPC   C1B11395  44.936  13.716   8.564
  639POPC   C2B11396  44.941  13.627   8.264
  639POPC   C3B11397  44.870  13.723   7.964
  639POPC   C4B11398  44.930  13.663   7.664
  640POPC   NC311399  39.965   9.771   9.464
  640POPC   PO411400  40.028   9.729   9.164
  640POPC   GL111401  40.042   9.707   8.864
  640POPC   GL211402  39.943   9.599   8.864
  640POPC   C1A11403  39.959   9.797   8.564
  640POPC   D2A11404  40.015   9.770   8.264
  640POPC   C3A11405  40.057   9.753   7.964
  640POPC   C4A11406  39.996   9.712   7.664
  640POPC   C1B11407  39.963   9.522   8.564
  640POPC   C2B11408  40.002   9.493   8.264
  640POPC   C3B11409  39.971   9.450   7.964
  640POPC   C4B11410  39.949   9.480   7.664
  641POPC   NC311411  15.986   0.463   9.464
  641POPC   PO411412  15.930   0.468   9.164
  641POPC   GL111413  15.976   0.402   8.864
  641POPC   GL211414  15.894   0.583   8.864
  641POPC   C1A11415  15.933   0.406   8.564
  641POPC   D2A11416  15.982   0.463   8.264
  641POPC   C3A11417  15.987   0.437   7.964
  641POPC   C4A11418  15.953   0.398   7.664
  641POPC   C1B11419  15.796   0.682   8.564
  641POPC   C2B11420  15.854   0.639   8.264
  641POPC   C3B11421  15.826   0.689   7.964
  641POPC   C4B11422  15.848   0.681   7.664
  642POPC   NC311423  40.054  26.800   9.464
  642POPC   PO411424  39.979  26.854   9.164
  642POPC   GL111425  39.982  26.857   8.864
  642POPC   GL211426  40.016  26.711   8.864
  642POPC   C1A11427  39.997  26.852   8.564
  642POPC   D2A11428  40.009  26.864   8.264
  642POPC   C3A11429  39.966  26.789   7.964
  642POPC   C4A11430  40.014  26.801   7.664
  642POPC   C1B11431  39.945  26.560   8.564
  642POPC   C2B11432  39.938  26.526   8.264
  642POPC   C3B11433  40.017  26.541   7.964
  642POPC   C4B11434  39.947  26.572   7.664
  643POPC   NC311435   8.154   0.442   9.464
  643POPC   PO411436   8.216   0.433   9.164
  643POPC   GL111437   8.180   0.395   8.864
  643POPC   GL211438   8.060   0.477   8.864
  643POPC   C1A11439   8.160   0.459   8.564
  643POPC   D2A11440   8.176   0.393   8.264
  643POPC   C3A11441   8.225   0.419   7.964
  643POPC   C4A11442   8.175   0.478   7.664
  643POPC   C1B11443   7.991   0.453   8.564
  643POPC   C2B11444   7.959   0.479   8.264
  643POPC   C3B11445   7.928   0.474   7.964
  643POPC   C4B11446   7.916   0.425   7.664
  644POPC   NC311447  24.490   8.973   9.464
  644POPC   PO411448  24.456   8.951   9.164
  644POPC   GL111449  24.534   8.923   8.864
  644POPC   GL211450  24.624   8.946   8.864
  644POPC   C1A11451  24.458   9.001   8.564
  644POPC   D2A11452  24.489   8.991   8.264
  644POPC   C3A11453  24.444   8.931   7.964
  644POPC   C4A11454  24.492   8.996   7.664
  644POPC   C1B11455  24.729   9.011   8.564
  644POPC   C2B11456  24.751   8.990   8.264
  644POPC   C3B11457  24.758   8.967   7.964
  644POPC   C4B11458  24.776   8.953   7.664
  645POPC   NC311459  19.035  28.348   9.464
  645POPC   PO411460  19.021  28.349   9.164
  645POPC   GL111461  19.102  28.406   8.864
  645POPC   GL211462  19.148  28.204   8.864
  645POPC   C1A11463  19.047  28.351   8.564
  645POPC   D2A11464  19.009  28.361   8.264
  645POPC   C3A11465  19.086  28.375   7.964
  645POPC   C4A11466  19.035  28.418   7.664
  645POPC   C1B11467  19.154  28.127   8.564
  645POPC   C2B11468  19.149  28.089   8.264
  645POPC   C3B11469  19.145  28.163   7.964
  645POPC   C4B11470  19.187  28.176   7.664
  646POPC   NC311471  39.969  29.890   9.464
  646POPC   PO411472  39.978  29.887   9.164
  646POPC   GL111473  40.045  29.943   8.864
  646POPC   GL211474  40.101  29.997   8.864
  646POPC   C1A11475  40.026  29.875   8.564
  646POPC   D2A11476  39.993  29.924   8.264
  646POPC   C3A11477  40.055  29.941   7.964
  646POPC   C4A11478  39.968  29.920   7.664
  646POPC   C1B11479  40.255  30.034   8.564
  646POPC   C2B11480  40.247  30.012   8.264
  646POPC   C3B11481  40.234  30.051   7.964
  646POPC   C4B11482  40.242  29.997   7.664
  647POPC   NC311483   4.311  29.927   9.464
  647POPC   PO411484   4.295  29.951   9.164
  647POPC   GL111485   4.310  29.878   8.864
  647POPC   GL211486   4.239  29.925   8.864
  647POPC   C1A11487   4.314  29.900   8.564
  647POPC   D2A11488   4.301  29.897   8.264
  647POPC   C3A11489   4.313  29.922   7.964
  647POPC   C4A11490   4.325  29.895   7.664
  647POPC   C1B11491   4.044  29.975   8.564
  647POPC   C2B11492   4.041  29.944   8.264
  647POPC   C3B11493   4.047  29.936   7.964
  647POPC   C4B11494   4.047  29.973   7.664
  648POPC   NC311495   7.390   2.730   9.464
  648POPC   PO411496   7.457   2.809   9.164
  648POPC   GL111497   7.464   2.789   8.864
  648POPC   GL211498   7.427   2.643   8.864
  648POPC   C1A11499   7.421   2.774   8.564
  648POPC   D2A11500   7.397   2.780   8.264
  648POPC   C3A11501   7.460   2.716   7.964
  648POPC   C4A11502   7.388   2.739   7.664
  648POPC   C1B11503   7.509   2.531   8.564
  648POPC   C2B11504   7.537   2.542   8.264
  648POPC   C3B11505   7.539   2.540   7.964
  648POPC   C4B11506   7.456   2.490   7.664
  649POPC   NC311507  26.072   2.771   9.464
  649POPC   PO411508  26.042   2.771   9.164
  649POPC   GL111509  26.028   2.734   8.864
  649POPC   GL211510  26.037   2.874   8.864
  649POPC   C1A11511  25.993   2.793   8.564
  649POPC   D2A11512  26.051   2.718   8.264
  649POPC   C3A11513  26.055   2.745   7.964
  649POPC   C4A11514  26.053   2.744   7.664
  649POPC   C1B11515  26.133   3.009   8.564
  649POPC   C2B11516  26.156   2.994   8.264
  649POPC   C3B11517  26.149   2.975   7.964
  649POPC   C4B11518  26.130   2.979   7.664
  650POPC   NC311519  22.170  39.963   9.464
  650POPC   PO411520  22.178  40.009   9.164
  650POPC   GL111521  22.138  39.980   8.864
  650POPC   GL211522  22.231  40.061   8.864
  650POPC   C1A11523  22.120  40.040   8.564
  650POPC   D2A11524  22.136  40.004   8.264
  650POPC   C3A11525  22.114  39.962   7.964
  650POPC   C4A11526  22.172  39.959   7.664
  650POPC   C1B11527  22.438  40.126   8.564
  650POPC   C2B11528  22.410  40.135   8.264
  650POPC   C3B11529  22.379  40.095   7.964
  650POPC   C4B11530  22.431  40.123   7.664
  651POPC   NC311531  23.733  20.631   9.464
  651POPC   PO411532  23.751  20.592   9.164
  651POPC   GL111533  23.729  20.578   8.864
  651POPC   GL211534  23.792  20.607   8.864
  651POPC   C1A11535  23.720  20.618   8.564
  651POPC   D2A11536  23.752  20.658   8.264
  651POPC   C3A11537  23.679  20.602   7.964
  651POPC   C4A11538  23.715  20.641   7.664
  651POPC   C1B11539  23.959  20.567   8.564
  651POPC   C2B11540  23.903  20.565   8.264
  651POPC   C3B11541  23.930  20.573   7.964
  651POPC   C4B11542  23.924  20.488   7.664
  652POPC   NC311543  18.268  42.313   9.464
  652POPC   PO411544  18.247  42.308   9.164
  652POPC   GL111545  18.307  42.317   8.864
  652POPC   GL211546  18.339  42.414   8.864
  652POPC   C1A11547  18.305  42.305   8.564
  652POPC   D2A11548  18.265  42.336   8.264
  652POPC   C3A11549  18.264  42.338   7.964
  652POPC   C4A11550  18.241  42.338   7.664
  652POPC   C1B11551  18.319  42.536   8.564
  652POPC   C2B11552  18.320  42.593   8.264
  652POPC   C3B11553  18.380  42.618   7.964
  652POPC   C4B11554  18.336  42.565   7.664
  653POPC   NC311555  38.462  37.720   9.464
  653POPC   PO411556  38.440  37.665   9.164
  653POPC   GL111557  38.487  37.653   8.864
  653POPC   GL211558  38.387  37.759   8.864
  653POPC   C1A11559  38.458  37.683   8.564
  653POPC   D2A11560  38.470  37.679   8.264
  653POPC   C3A11561  38.450  37.701   7.964
  653POPC   C4A11562  38.477  37.694   7.664
  653POPC   C1B11563  38.250  37.774   8.564
  653POPC   C2B11564  38.189  37.725   8.264
  653POPC   C3B11565  38.262  37.799   7.964
  653POPC   C4B11566  38.241  37.815   7.664
  654POPC   NC311567  40.020  21.407   9.464
  654POPC   PO411568  40.031  21.379   9.164
  654POPC   GL111569  39.994  21.424   8.864
  654POPC   GL211570  39.968  21.527   8.864
  654POPC   C1A11571  39.960  21.396   8.564
  654POPC   D2A11572  39.965  21.420   8.264
  654POPC   C3A11573  40.042  21.428   7.964
  654POPC   C4A11574  39.965  21.353   7.664
  654POPC   C1B11575  39.875  21.568   8.564
  654POPC   C2B11576  39.898  21.543   8.264
  654POPC   C3B11577  39.856  21.590   7.964
  654POPC   C4B11578  39.871  21.604   7.664
  655POPC   NC311579   2.725   5.903   9.464
  655POPC   PO411580   2.803   5.903   9.164
  655POPC   GL111581   2.759   5.894   8.864
  655POPC   GL211582   2.671   5.797   8.864
  655POPC   C1A11583   2.777   5.862   8.564
  655POPC   D2A11584   2.793   5.901   8.264
  655POPC   C3A11585   2.757   5.820   7.964
  655POPC   C4A11586   2.799   5.843   7.664
  655POPC   C1B11587   2.593   5.726   8.564
  655POPC   C2B11588   2.576   5.701   8.264
  655POPC   C3B11589   2.590   5.707   7.964
  655POPC   C4B11590   2.595   5.708   7.664
  656POPC   NC311591  36.899  21.338   9.464
  656POPC   PO411592  36.934  21.388   9.164
  656POPC   GL111593  36.944  21.340   8.864
  656POPC   GL211594  36.819  21.230   8.864
  656POPC   C1A11595  36.869  21.376   8.564
  656POPC   D2A11596  36.939  21.416   8.264
  656POPC   C3A11597  36.884  21.349   7.964
  656POPC   C4A11598  36.932  21.347   7.664
  656POPC   C1B11599  36.768  21.178   8.564
  656POPC   C2B11600  36.769  21.159   8.264
  656POPC   C3B11601  36.824  21.192   7.964
  656POPC   C4B11602  36.766  21.148   7.664
  657POPC   NC311603  25.307  33.053   9.464
  657POPC   PO411604  25.235  33.039   9.164
  657POPC   GL111605  25.279  33.040   8.864
  657POPC   GL211606  25.386  33.030   8.864
  657POPC   C1A11607  25.280  33.022   8.564
  657POPC   D2A11608  25.291  32.984   8.264
  657POPC   C3A11609  25.309  33.026   7.964
  657POPC   C4A11610  25.221  32.986   7.664
  657POPC   C1B11611  25.485  33.165   8.564
  657POPC   C2B11612  25.455  33.142   8.264
  657POPC   C3B11613  25.522  33.079   7.964
  657POPC   C4B11614  25.526  33.115   7.664
  658POPC   NC311615   1.222  15.190   9.464
  658POPC   PO411616   1.178  15.155   9.164
  658POPC   GL111617   1.206  15.201   8.864
  658POPC   GL211618   1.313  15.141   8.864
  658POPC   C1A11619   1.195  15.137   8.564
  658POPC   D2A11620   1.253  15.139   8.264
  658POPC   C3A11621   1.262  15.132   7.964
  658POPC   C4A11622   1.233  15.188   7.664
  658POPC   C1B11623   1.467  15.188   8.564
  658POPC   C2B11624   1.478  15.103   8.264
  658POPC   C3B11625   1.470  15.127   7.964
  658POPC   C4B11626   1.478  15.167   7.664
  659POPC   NC311627  44.662  12.860   9.464
  659POPC   PO411628  44.692  12.803   9.164
  659POPC   GL111629  44.652  12.806   8.864
  659POPC   GL211630  44.595  12.973   8.864
  659POPC   C1A11631  44.625  12.863   8.564
  659POPC   D2A11632  44.621  12.807   8.264
  659POPC   C3A11633  44.659  12.861   7.964
  659POPC   C4A11634  44.698  12.888   7.664
  659POPC   C1B11635  44.547  13.055   8.564
  659POPC   C2B11636  44.534  13.036   8.264
  659POPC   C3B11637  44.544  13.069   7.964
  659POPC   C4B11638  44.511  13.015   7.664
  660POPC   NC311639  39.995  40.028   9.464
  660POPC   PO411640  40.021  39.964   9.164
  660POPC   GL111641  39.980  40.012   8.864
  660POPC   GL211642  40.102  39.892   8.864
  660POPC   C1A11643  40.047  40.028   8.564
  660POPC   D2A11644  40.038  40.026   8.264
  660POPC   C3A11645  40.042  39.957   7.964
  660POPC   C4A11646  40.034  40.018   7.664
  660POPC   C1B11647  40.123  39.741   8.564
  660POPC   C2B11648  40.062  39.742   8.264
  660POPC   C3B11649  40.074  39.793   7.964
  660POPC   C4B11650  40.131  39.820   7.664
  661POPC   NC311651  43.098  21.384   9.464
  661POPC   PO411652  43.153  21.354   9.164
  661POPC   GL111653  43.116  21.420   8.864
  661POPC   GL211654  43.183  21.379   8.864
  661POPC   C1A11655  43.113  21.432   8.564
  661POPC   D2A11656  43.072  21.381   8.264
  661POPC   C3A11657  43.135  21.409   7.964
  661POPC   C4A11658  43.139  21.371   7.664
  661POPC   C1B11659  43.312  21.286   8.564
  661POPC   C2B11660  43.376  21.278   8.264
  661POPC   C3B11661  43.333  21.310   7.964
  661POPC   C4B11662  43.327  21.314   7.664
  662POPC   NC311663   4.277  12.811   9.464
  662POPC   PO411664   4.277  12.844   9.164
  662POPC   GL111665   4.347  12.879   8.864
  662POPC   GL211666   4.209  12.781   8.864
  662POPC   C1A11667   4.328  12.827   8.564
  662POPC   D2A11668   4.330  12.849   8.264
  662POPC   C3A11669   4.341  12.867   7.964
  662POPC   C4A11670   4.328  12.846   7.664
  662POPC   C1B11671   4.119  12.716   8.564
  662POPC   C2B11672   4.136  12.713   8.264
  662POPC   C3B11673   4.093  12.700   7.964
  662POPC   C4B11674   4.126  12.758   7.664
  663POPC   NC311675  12.819  12.826   9.464
  663POPC   PO411676  12.804  12.820   9.164
  663POPC   GL111677  12.829  12.864   8.864
  663POPC   GL211678  12.946  12.814   8.864
  663POPC   C1A11679  12.864  12.815   8.564
  663POPC   D2A11680  12.886  12.848   8.264
  663POPC   C3A11681  12.806  12.857   7.964
  663POPC   C4A11682  12.809  12.871   7.664
  663POPC   C1B11683  13.037  12.670   8.564
  663POPC   C2B11684  13.083  12.702   8.264
  663POPC   C3B11685  13.005  12.704   7.964
  663POPC   C4B11686  13.036  12.724   7.664
  664POPC   NC311687   2.776  39.214   9.464
  664POPC   PO411688   2.744  39.267   9.164
  664POPC   GL111689   2.787  39.251   8.864
  664POPC   GL211690   2.779  39.364   8.864
  664POPC   C1A11691   2.737  39.191   8.564
  664POPC   D2A11692   2.803  39.256   8.264
  664POPC   C3A11693   2.779  39.199   7.964
  664POPC   C4A11694   2.719  39.203   7.664
  664POPC   C1B11695   2.894  39.466   8.564
  664POPC   C2B11696   2.844  39.447   8.264
  664POPC   C3B11697   2.908  39.427   7.964
  664POPC   C4B11698   2.856  39.419   7.664
  665POPC   NC311699  33.067  36.174   9.464
  665POPC   PO411700  33.047  36.110   9.164
  665POPC   GL111701  33.030  36.108   8.864
  665POPC   GL211702  33.177  36.075   8.864
  665POPC   C1A11703  33.012  36.088   8.564
  665POPC   D2A11704  33.011  36.147   8.264
  665POPC   C3A11705  33.066  36.163   7.964
  665POPC   C4A11706  32.999  36.095   7.664
  665POPC   C1B11707  33.310  36.082   8.564
  665POPC   C2B11708  33.232  36.051   8.264
  665POPC   C3B11709  33.284  36.061   7.964
  665POPC   C4B11710  33.258  36.050   7.664
  666POPC   NC311711  32.256  43.840   9.464
  666POPC   PO411712  32.209  43.844   9.164
  666POPC   GL111713  32.253  43.909   8.864
  666POPC   GL211714  32.279  43.734   8.864
  666POPC   C1A11715  32.247  43.907   8.564
  666POPC   D2A11716  32.267  43.895   8.264
  666POPC   C3A11717  32.218  43.898   7.964
  666POPC   C4A11718  32.269  43.881   7.664
  666POPC   C1B11719  32.382  43.684   8.564
  666POPC   C2B11720  32.301  43.652   8.264
  666POPC   C3B11721  32.370  43.692   7.964
  666POPC   C4B11722  32.299  43.677   7.664
  667POPC   NC311723  43.076  15.164   9.464
  667POPC   PO411724  43.096  15.220   9.164
  667POPC   GL111725  43.096  15.155   8.864
  667POPC   GL211726  43.132  15.347   8.864
  667POPC   C1A11727  43.131  15.148   8.564
  667POPC   D2A11728  43.133  15.216   8.264
  667POPC   C3A11729  43.135  15.185   7.964
  667POPC   C4A11730  43.121  15.208   7.664
  667POPC   C1B11731  43.106  15.387   8.564
  667POPC   C2B11732  43.111  15.432   8.264
  667POPC   C3B11733  43.031  15.439   7.964
  667POPC   C4B11734  43.079  15.429   7.664
  668POPC   NC311735  29.954   4.315   9.464
  668POPC   PO411736  29.895   4.326   9.164
  668POPC   GL111737  29.943   4.344   8.864
  668POPC   GL211738  30.034   4.296   8.864
  668POPC   C1A11739  29.960   4.366   8.564
  668POPC   D2A11740  29.950   4.367   8.264
  668POPC   C3A11741  29.943   4.290   7.964
  668POPC   C4A11742  29.915   4.358   7.664
  668POPC   C1B11743  30.167   4.398   8.564
  668POPC   C2B11744  30.173   4.334   8.264
  668POPC   C3B11745  30.119   4.343   7.964
  668POPC   C4B11746  30.127   4.319   7.664
  669POPC   NC311747  22.139  25.232   9.464
  669POPC   PO411748  22.156  25.268   9.164
  669POPC   GL111749  22.117  25.231   8.864
  669POPC   GL211750  22.121  25.116   8.864
  669POPC   C1A11751  22.135  25.304   8.564
  669POPC   D2A11752  22.133  25.223   8.264
  669POPC   C3A11753  22.114  25.250   7.964
  669POPC   C4A11754  22.137  25.217   7.664
  669POPC   C1B11755  22.077  25.017   8.564
  669POPC   C2B11756  22.138  25.048   8.264
  669POPC   C3B11757  22.117  25.068   7.964
  669POPC   C4B11758  22.108  25.003   7.664
  670POPC   NC311759   2.730  37.671   9.464
  670POPC   PO411760   2.751  37.642   9.164
  670POPC   GL111761   2.772  37.656   8.864
  670POPC   GL211762   2.864  37.605   8.864
  670POPC   C1A11763   2.815  37.694   8.564
  670POPC   D2A11764   2.748  37.686   8.264
  670POPC   C3A11765   2.810  37.715   7.964
  670POPC   C4A11766   2.737  37.711   7.664
  670POPC   C1B11767   2.990  37.575   8.564
  670POPC   C2B11768   3.017  37.580   8.264
  670POPC   C3B11769   3.014  37.546   7.964
  670POPC   C4B11770   3.000  37.567   7.664
  671POPC   NC311771  12.109  37.642   9.464
  671POPC   PO411772  12.072  37.710   9.164
  671POPC   GL111773  12.081  37.658   8.864
  671POPC   GL211774  11.969  37.592   8.864
  671POPC   C1A11775  12.039  37.655   8.564
  671POPC   D2A11776  12.050  37.667   8.264
  671POPC   C3A11777  12.122  37.674   7.964
  671POPC   C4A11778  12.114  37.722   7.664
  671POPC   C1B11779  11.859  37.496   8.564
  671POPC   C2B11780  11.917  37.490   8.264
  671POPC   C3B11781  11.909  37.554   7.964
  671POPC   C4B11782  11.869  37.506   7.664
  672POPC   NC311783  15.939  36.134   9.464
  672POPC   PO411784  15.969  36.114   9.164
  672POPC   GL111785  15.993  36.114   8.864
  672POPC   GL211786  15.860  36.192   8.864
  672POPC   C1A11787  15.925  36.104   8.564
  672POPC   D2A11788  15.913  36.172   8.264
  672POPC   C3A11789  15.919  36.156   7.964
  672POPC   C4A11790  15.910  36.130   7.664
  672POPC   C1B11791  15.787  36.286   8.564
  672POPC   C2B11792  15.754  36.285   8.264
  672POPC   C3B11793  15.749  36.284   7.964
  672POPC   C4B11794  15.819  36.310   7.664
  673POPC   NC311795  26.016   1.243   9.464
  673POPC   PO411796  26.003   1.228   9.164
  673POPC   GL111797  26.017   1.183   8.864
  673POPC   GL211798  25.915   1.200   8.864
  673POPC   C1A11799  26.025   1.204   8.564
  673POPC   D2A11800  25.994   1.252   8.264
  673POPC   C3A11801  26.010   1.222   7.964
  673POPC   C4A11802  26.003   1.198   7.664
  673POPC   C1B11803  25.845   1.205   8.564
  673POPC   C2B11804  25.817   1.145   8.264
  673POPC   C3B11805  25.835   1.184   7.964
  673POPC   C4B11806  25.817   1.127   7.664
  674POPC   NC311807  26.859  37.702   9.464
  674POPC   PO411808  26.788  37.723   9.164
  674POPC   GL111809  26.805  37.630   8.864
  674POPC   GL211810  26.920  37.687   8.864
  674POPC   C1A11811  26.769  37.722   8.564
  674POPC   D2A11812  26.861  37.652   8.264
  674POPC   C3A11813  26.797  37.698   7.964
  674POPC   C4A11814  26.812  37.716   7.664
  674POPC   C1B11815  27.022  37.782   8.564
  674POPC   C2B11816  27.013  37.707   8.264
  674POPC   C3B11817  27.023  37.714   7.964
  674POPC   C4B11818  27.035  37.720   7.664
  675POPC   NC311819  40.026  14.446   9.464
  675POPC   PO411820  40.025  14.389   9.164
  675POPC   GL111821  39.995  14.403   8.864
  675POPC   GL211822  40.055  14.501   8.864
  675POPC   C1A11823  40.044  14.423   8.564
  675POPC   D2A11824  40.043  14.357   8.264
  675POPC   C3A11825  39.960  14.409   7.964
  675POPC   C4A11826  39.978  14.409   7.664
  675POPC   C1B11827  40.106  14.600   8.564
  675POPC   C2B11828  40.071  14.621   8.264
  675POPC   C3B11829  40.118  14.638   7.964
  675POPC   C4B11830  40.112  14.652   7.664
  676POPC   NC311831  42.294  22.950   9.464
  676POPC   PO411832  42.328  22.938   9.164
  676POPC   GL111833  42.343  22.944   8.864
  676POPC   GL211834  42.444  22.884   8.864
  676POPC   C1A11835  42.381  22.948   8.564
  676POPC   D2A11836  42.312  22.974   8.264
  676POPC   C3A11837  42.316  22.981   7.964
  676POPC   C4A11838  42.343  22.900   7.664
  676POPC   C1B11839  42.542  22.753   8.564
  676POPC   C2B11840  42.520  22.758   8.264
  676POPC   C3B11841  42.557  22.777   7.964
  676POPC   C4B11842  42.518  22.818   7.664
  677POPC   NC311843  12.898  29.938   9.464
  677POPC   PO411844  12.805  29.902   9.164
  677POPC   GL111845  12.820  29.927   8.864
  677POPC   GL211846  12.889  30.042   8.864
  677POPC   C1A11847  12.857  29.905   8.564
  677POPC   D2A11848  12.867  29.906   8.264
  677POPC   C3A11849  12.811  29.929   7.964
  677POPC   C4A11850  12.854  29.881   7.664
  677POPC   C1B11851  12.906  30.152   8.564
  677POPC   C2B11852  12.944  30.152   8.264
  677POPC   C3B11853  12.907  30.165   7.964
  677POPC   C4B11854  12.910  30.126   7.664
  678POPC   NC311855  10.505  29.955   9.464
  678POPC   PO411856  10.556  29.955   9.164
  678POPC   GL111857  10.563  29.916   8.864
  678POPC   GL211858  10.636  30.002   8.864
  678POPC   C1A11859  10.498  29.925   8.564
  678POPC   D2A11860  10.538  29.929   8.264
  678POPC   C3A11861  10.481  29.945   7.964
  678POPC   C4A11862  10.502  29.937   7.664
  678POPC   C1B11863  10.665  30.128   8.564
  678POPC   C2B11864  10.672  30.103   8.264
  678POPC   C3B11865  10.700  30.155   7.964
  678POPC   C4B11866  10.697  30.084   7.664
  679POPC   NC311867  21.428  39.198   9.464
  679POPC   PO411868  21.383  39.258   9.164
  679POPC   GL111869  21.371  39.268   8.864
  679POPC   GL211870  21.454  39.099   8.864
  679POPC   C1A11871  21.417  39.280   8.564
  679POPC   D2A11872  21.390  39.275   8.264
  679POPC   C3A11873  21.355  39.213   7.964
  679POPC   C4A11874  21.411  39.199   7.664
  679POPC   C1B11875  21.496  39.049   8.564
  679POPC   C2B11876  21.467  38.992   8.264
  679POPC   C3B11877  21.480  38.970   7.964
  679POPC   C4B11878  21.477  39.040   7.664
  680POPC   NC311879  12.096  40.802   9.464
  680POPC   PO411880  12.110  40.789   9.164
  680POPC   GL111881  12.063  40.810   8.864
  680POPC   GL211882  12.111  40.875   8.864
  680POPC   C1A11883  12.044  40.736   8.564
  680POPC   D2A11884  12.105  40.750   8.264
  680POPC   C3A11885  12.028  40.820   7.964
  680POPC   C4A11886  12.036  40.795   7.664
  680POPC   C1B11887  12.060  41.039   8.564
  680POPC   C2B11888  12.033  40.995   8.264
  680POPC   C3B11889  12.103  41.050   7.964
  680POPC   C4B11890  12.084  41.065   7.664
  681POPC   NC311891  30.716  37.630   9.464
  681POPC   PO411892  30.736  37.724   9.164
  681POPC   GL111893  30.674  37.694   8.864
  681POPC   GL211894  30.552  37.600   8.864
  681POPC   C1A11895  30.652  37.695   8.564
  681POPC   D2A11896  30.704  37.657   8.264
  681POPC   C3A11897  30.684  37.674   7.964
  681POPC   C4A11898  30.649  37.709   7.664
  681POPC   C1B11899  30.455  37.619   8.564
  681POPC   C2B11900  30.517  37.548   8.264
  681POPC   C3B11901  30.432  37.574   7.964
  681POPC   C4B11902  30.503  37.579   7.664
  682POPC   NC311903  14.398  30.673   9.464
  682POPC   PO411904  14.430  30.714   9.164
  682POPC   GL111905  14.367  30.698   8.864
  682POPC   GL211906  14.410  30.601   8.864
  682POPC   C1A11907  14.364  30.664   8.564
  682POPC   D2A11908  14.431  30.664   8.264
  682POPC   C3A11909  14.366  30.691   7.964
  682POPC   C4A11910  14.395  30.680   7.664
  682POPC   C1B11911  14.382  30.424   8.564
  682POPC   C2B11912  14.394  30.471   8.264
  682POPC   C3B11913  14.426  30.495   7.964
  682POPC   C4B11914  14.396  30.440   7.664
  683POPC   NC311915  44.678  27.586   9.464
  683POPC   PO411916  44.638  27.604   9.164
  683POPC   GL111917  44.675  27.638   8.864
  683POPC   GL211918  44.563  27.526   8.864
  683POPC   C1A11919  44.705  27.615   8.564
  683POPC   D2A11920  44.649  27.623   8.264
  683POPC   C3A11921  44.662  27.624   7.964
  683POPC   C4A11922  44.658  27.634   7.664
  683POPC   C1B11923  44.444  27.549   8.564
  683POPC   C2B11924  44.415  27.565   8.264
  683POPC   C3B11925  44.438  27.549   7.964
  683POPC   C4B11926  44.388  27.579   7.664
  684POPC   NC311927   5.093  14.424   9.464
  684POPC   PO411928   5.089  14.440   9.164
  684POPC   GL111929   5.089  14.421   8.864
  684POPC   GL211930   4.933  14.456   8.864
  684POPC   C1A11931   5.072  14.430   8.564
  684POPC   D2A11932   5.116  14.429   8.264
  684POPC   C3A11933   5.089  14.445   7.964
  684POPC   C4A11934   5.105  14.418   7.664
  684POPC   C1B11935   4.898  14.459   8.564
  684POPC   C2B11936   4.864  14.476   8.264
  684POPC   C3B11937   4.859  14.503   7.964
  684POPC   C4B11938   4.900  14.533   7.664
  685POPC   NC311939  16.716  25.237   9.464
  685POPC   PO411940  16.769  25.314   9.164
  685POPC   GL111941  16.700  25.271   8.864
  685POPC   GL211942  16.895  25.256   8.864
  685POPC   C1A11943  16.743  25.258   8.564
  685POPC   D2A11944  16.697  25.305   8.264
  685POPC   C3A11945  16.776  25.244   7.964
  685POPC   C4A11946  16.696  25.283   7.664
  685POPC   C1B11947  17.020  25.252   8.564
  685POPC   C2B11948  16.961  25.263   8.264
  685POPC   C3B11949  16.982  25.270   7.964
  685POPC   C4B11950  16.978  25.281   7.664
  686POPC   NC311951  21.344  10.526   9.464
  686POPC   PO411952  21.351  10.521   9.164
  686POPC   GL111953  21.373  10.546   8.864
  686POPC   GL211954  21.300  10.549   8.864
  686POPC   C1A11955  21.365  10.534   8.564
  686POPC   D2A11956  21.339  10.557   8.264
  686POPC   C3A11957  21.373  10.512   7.964
  686POPC   C4A11958  21.380  10.504   7.664
  686POPC   C1B11959  21.145  10.464   8.564
  686POPC   C2B11960  21.105  10.534   8.264
  686POPC   C3B11961  21.131  10.547   7.964
  686POPC   C4B11962  21.184  10.480   7.664
  687POPC   NC311963  11.345  13.599   9.464
  687POPC   PO411964  11.325  13.601   9.164
  687POPC   GL111965  11.261  13.638   8.864
  687POPC   GL211966  11.454  13.621   8.864
  687POPC   C1A11967  11.333  13.616   8.564
  687POPC   D2A11968  11.274  13.636   8.264
  687POPC   C3A11969  11.327  13.677   7.964
  687POPC   C4A11970  11.296  13.657   7.664
  687POPC   C1B11971  11.519  13.645   8.564
  687POPC   C2B11972  11.539  13.601   8.264
  687POPC   C3B11973  11.535  13.639   7.964
  687POPC   C4B11974  11.598  13.651   7.664
  688POPC   NC311975  29.145  10.522   9.464
  688POPC   PO411976  29.161  10.564   9.164
  688POPC   GL111977  29.164  10.561   8.864
  688POPC   GL211978  29.274  10.569   8.864
  688POPC   C1A11979  29.115  10.521   8.564
  688POPC   D2A11980  29.107  10.572   8.264
  688POPC   C3A11981  29.182  10.511   7.964
  688POPC   C4A11982  29.157  10.503   7.664
  688POPC   C1B11983  29.410  10.554   8.564
  688POPC   C2B11984  29.381  10.496   8.264
  688POPC   C3B11985  29.437  10.489   7.964
  688POPC   C4B11986  29.433  10.532   7.664
  689POPC   NC311987  30.723  12.055   9.464
  689POPC   PO411988  30.687  12.117   9.164
  689POPC   GL111989  30.682  12.034   8.864
  689POPC   GL211990  30.839  12.102   8.864
  689POPC   C1A11991  30.705  12.101   8.564
  689POPC   D2A11992  30.720  12.055   8.264
  689POPC   C3A11993  30.687  12.051   7.964
  689POPC   C4A11994  30.659  12.055   7.664
  689POPC   C1B11995  30.958  12.053   8.564
  689POPC   C2B11996  30.914  12.104   8.264
  689POPC   C3B11997  30.949  12.106   7.964
  689POPC   C4B11998  30.924  12.026   7.664
  690POPC   NC311999  20.642  29.950   9.464
  690POPC   PO412000  20.652  29.944   9.164
  690POPC   GL112001  20.593  29.967   8.864
  690POPC   GL212002  20.584  30.082   8.864
  690POPC   C1A12003  20.642  29.961   8.564
  690POPC   D2A12004  20.596  29.962   8.264
  690POPC   C3A12005  20.630  29.946   7.964
  690POPC   C4A12006  20.592  29.958   7.664
  690POPC   C1B12007  20.477  30.121   8.564
  690POPC   C2B12008  20.482  30.149   8.264
  690POPC   C3B12009  20.538  30.147   7.964
  690POPC   C4B12010  20.550  30.113   7.664
  691POPC   NC312011   5.844  39.250   9.464
  691POPC   PO412012   5.887  39.268   9.164
  691POPC   GL112013   5.845  39.240   8.864
  691POPC   GL212014   5.924  39.310   8.864
  691POPC   C1A12015   5.872  39.204   8.564
  691POPC   D2A12016   5.853  39.186   8.264
  691POPC   C3A12017   5.900  39.280   7.964
  691POPC   C4A12018   5.829  39.272   7.664
  691POPC   C1B12019   6.000  39.405   8.564
  691POPC   C2B12020   5.957  39.481   8.264
  691POPC   C3B12021   5.981  39.428   7.964
  691POPC   C4B12022   5.962  39.431   7.664
  692POPC   NC312023   8.970  40.794   9.464
  692POPC   PO412024   8.973  40.814   9.164
  692POPC   GL112025   8.934  40.830   8.864
  692POPC   GL212026   9.017  40.843   8.864
  692POPC   C1A12027   9.015  40.773   8.564
  692POPC   D2A12028   8.990  40.736   8.264
  692POPC   C3A12029   8.985  40.761   7.964
  692POPC   C4A12030   8.989  40.814   7.664
  692POPC   C1B12031   9.131  40.971   8.564
  692POPC   C2B12032   9.086  40.971   8.264
  692POPC   C3B12033   9.059  41.011   7.964
  692POPC   C4B12034   9.078  41.041   7.664
  693POPC   NC312035  29.930  41.527   9.464
  693POPC   PO412036  29.926  41.525   9.164
  693POPC   GL112037  29.944  41.553   8.864
  693POPC   GL212038  30.061  41.586   8.864
  693POPC   C1A12039  29.900  41.571   8.564
  693POPC   D2A12040  29.962  41.517   8.264
  693POPC   C3A12041  29.967  41.536   7.964
  693POPC   C4A12042  29.873  41.581   7.664
  693POPC   C1B12043  30.178  41.510   8.564
  693POPC   C2B12044  30.160  41.582   8.264
  693POPC   C3B12045  30.152  41.564   7.964
  693POPC   C4B12046  30.179  41.589   7.664
  694POPC   NC312047   5.882  37.653   9.464
  694POPC   PO412048   5.835  37.704   9.164
  694POPC   GL112049   5.894  37.654   8.864
  694POPC   GL212050   5.849  37.570   8.864
  694POPC   C1A12051   5.919  37.675   8.564
  694POPC   D2A12052   5.850  37.662   8.264
  694POPC   C3A12053   5.907  37.665   7.964
  694POPC   C4A12054   5.878  37.662   7.664
  694POPC   C1B12055   5.785  37.465   8.564
  694POPC   C2B12056   5.719  37.420   8.264
  694POPC   C3B12057   5.766  37.499   7.964
  694POPC   C4B12058   5.782  37.490   7.664
  695POPC   NC312059  23.709  43.840   9.464
  695POPC   PO412060  23.694  43.900   9.164
  695POPC   GL112061  23.741  43.928   8.864
  695POPC   GL212062  23.770  43.820   8.864
  695POPC   C1A12063  23.719  43.880   8.564
  695POPC   D2A12064  23.753  43.862   8.264
  695POPC   C3A12065  23.693  43.888   7.964
  695POPC   C4A12066  23.680  43.923   7.664
  695POPC   C1B12067  23.800  43.687   8.564
  695POPC   C2B12068  23.851  43.685   8.264
  695POPC   C3B12069  23.808  43.680   7.964
  695POPC   C4B12070  23.842  43.679   7.664
  696POPC   NC312071  24.531  43.935   9.464
  696POPC   PO412072  24.488  43.866   9.164
  696POPC   GL112073  24.539  43.866   8.864
  696POPC   GL212074  24.582  43.820   8.864
  696POPC   C1A12075  24.518  43.904   8.564
  696POPC   D2A12076  24.467  43.848   8.264
  696POPC   C3A12077  24.519  43.918   7.964
  696POPC   C4A12078  24.504  43.924   7.664
  696POPC   C1B12079  24.783  43.836   8.564
  696POPC   C2B12080  24.767  43.830   8.264
  696POPC   C3B12081  24.710  43.871   7.964
  696POPC   C4B12082  24.778  43.845   7.664
  697POPC   NC312083  41.523  29.876   9.464
  697POPC   PO412084  41.589  29.938   9.164
  697POPC   GL112085  41.592  29.900   8.864
  697POPC   GL212086  41.576  30.007   8.864
  697POPC   C1A12087  41.538  29.896   8.564
  697POPC   D2A12088  41.514  29.889   8.264
  697POPC   C3A12089  41.532  29.946   7.964
  697POPC   C4A12090  41.511  29.918   7.664
  697POPC   C1B12091  41.703  30.193   8.564
  697POPC   C2B12092  41.651  30.173   8.264
  697POPC   C3B12093  41.633  30.148   7.964
  697POPC   C4B12094  41.680  30.135   7.664
  698POPC   NC312095  10.494  15.930   9.464
  698POPC   PO412096  10.547  15.953   9.164
  698POPC   GL112097  10.550  15.917   8.864
  698POPC   GL212098  10.399  16.070   8.864
  698POPC   C1A12099  10.504  15.985   8.564
  698POPC   D2A12100  10.573  15.917   8.264
  698POPC   C3A12101  10.486  15.915   7.964
  698POPC   C4A12102  10.529  15.972   7.664
  698POPC   C1B12103  10.372  16.113   8.564
  698POPC   C2B12104  10.355  16.088   8.264
  698POPC   C3B12105  10.403  16.123   7.964
  698POPC   C4B12106  10.395  16.147   7.664
  699POPC   NC312107  30.722   5.083   9.464
  699POPC   PO412108  30.715   5.070   9.164
  699POPC   GL112109  30.713   5.078   8.864
  699POPC   GL212110  30.766   5.046   8.864
  699POPC   C1A12111  30.725   5.133   8.564
  699POPC   D2A12112  30.739   5.104   8.264
  699POPC   C3A12113  30.701   5.091   7.964
  699POPC   C4A12114  30.738   5.104   7.664
  699POPC   C1B12115  30.865   4.950   8.564
  699POPC   C2B12116  30.840   4.898   8.264
  699POPC   C3B12117  30.863   4.910   7.964
  699POPC   C4B12118  30.877   4.940   7.664
  700POPC   NC312119  35.327  26.785   9.464
  700POPC   PO412120  35.318  26.847   9.164
  700POPC   GL112121  35.359  26.835   8.864
  700POPC   GL212122  35.427  26.717   8.864
  700POPC   C1A12123  35.334  26.798   8.564
  700POPC   D2A12124  35.361  26.828   8.264
  700POPC   C3A12125  35.383  26.839   7.964
  700POPC   C4A12126  35.329  26.775   7.664
  700POPC   C1B12127  35.520  26.621   8.564
  700POPC   C2B12128  35.478  26.626   8.264
  700POPC   C3B12129  35.459  26.647   7.964
  700POPC   C4B12130  35.443  26.609   7.664
  701POPC   NC312131  26.795  38.414   9.464
  701POPC   PO412132  26.841  38.435   9.164
  701POPC   GL112133  26.810  38.453   8.864
  701POPC   GL212134  26.690  38.397   8.864
  701POPC   C1A12135  26.866  38.420   8.564
  701POPC   D2A12136  26.836  38.436   8.264
  701POPC   C3A12137  26.857  38.501   7.964
  701POPC   C4A12138  26.791  38.451   7.664
  701POPC   C1B12139  26.542  38.413   8.564
  701POPC   C2B12140  26.607  38.431   8.264
  701POPC   C3B12141  26.602  38.428   7.964
  701POPC   C4B12142  26.563  38.424   7.664
  702POPC   NC312143   4.338  36.895   9.464
  702POPC   PO412144   4.341  36.937   9.164
  702POPC   GL112145   4.299  36.879   8.864
  702POPC   GL212146   4.202  36.863   8.864
  702POPC   C1A12147   4.336  36.943   8.564
  702POPC   D2A12148   4.291  36.904   8.264
  702POPC   C3A12149   4.270  36.909   7.964
  702POPC   C4A12150   4.364  36.855   7.664
  702POPC   C1B12151   4.176  36.750   8.564
  702POPC   C2B12152   4.131  36.743   8.264
  702POPC   C3B12153   4.098  36.769   7.964
  702POPC   C4B12154   4.157  36.709   7.664
  703POPC   NC312155  37.682   3.523   9.464
  703POPC   PO412156  37.705   3.550   9.164
  703POPC   GL112157  37.652   3.501   8.864
  703POPC   GL212158  37.796   3.555   8.864
  703POPC   C1A12159  37.699   3.553   8.564
  703POPC   D2A12160  37.728   3.492   8.264
  703POPC   C3A12161  37.713   3.571   7.964
  703POPC   C4A12162  37.636   3.571   7.664
  703POPC   C1B12163  37.891   3.660   8.564
  703POPC   C2B12164  37.903   3.674   8.264
  703POPC   C3B12165  37.884   3.661   7.964
  703POPC   C4B12166  37.874   3.629   7.664
  704POPC   NC312167   6.658   8.981   9.464
  704POPC   PO412168   6.598   9.013   9.164
  704POPC   GL112169   6.599   9.022   8.864
  704POPC   GL212170   6.550   8.911   8.864
  704POPC   C1A12171   6.658   9.002   8.564
  704POPC   D2A12172   6.595   8.946   8.264
  704POPC   C3A12173   6.647   8.966   7.964
  704POPC   C4A12174   6.692   8.970   7.664
  704POPC   C1B12175   6.471   8.800   8.564
  704POPC   C2B12176   6.538   8.806   8.264
  704POPC   C3B12177   6.542   8.783   7.964
  704POPC   C4B12178   6.513   8.788   7.664
  705POPC   NC312179   8.156  26.812   9.464
  705POPC   PO412180   8.225  26.799   9.164
  705POPC   GL112181   8.246  26.835   8.864
  705POPC   GL212182   8.065  26.873   8.864
  705POPC   C1A12183   8.162  26.846   8.564
  705POPC   D2A12184   8.225  26.822   8.264
  705POPC   C3A12185   8.226  26.858   7.964
  705POPC   C4A12186   8.155  26.837   7.664
  705POPC   C1B12187   7.920  26.834   8.564
  705POPC   C2B12188   7.993  26.886   8.264
  705POPC   C3B12189   7.957  26.827   7.964
  705POPC   C4B12190   7.934  26.877   7.664
  706POPC   NC312191   8.958   9.779   9.464
  706POPC   PO412192   8.994   9.708   9.164
  706POPC   GL112193   8.988   9.776   8.864
  706POPC   GL212194   8.877   9.714   8.864
  706POPC   C1A12195   8.930   9.743   8.564
  706POPC   D2A12196   8.972   9.711   8.264
  706POPC   C3A12197   9.018   9.731   7.964
  706POPC   C4A12198   8.962   9.763   7.664
  706POPC   C1B12199   8.715   9.765   8.564
  706POPC   C2B12200   8.693   9.712   8.264
  706POPC   C3B12201   8.738   9.717   7.964
  706POPC   C4B12202   8.762   9.734   7.664
  707POPC   NC312203  30.647  22.195   9.464
  707POPC   PO412204  30.691  22.206   9.164
  707POPC   GL112205  30.739  22.164   8.864
  707POPC   GL212206  30.693  22.269   8.864
  707POPC   C1A12207  30.661  22.203   8.564
  707POPC   D2A12208  30.713  22.114   8.264
  707POPC   C3A12209  30.732  22.196   7.964
  707POPC   C4A12210  30.711  22.202   7.664
  707POPC   C1B12211  30.581  22.362   8.564
  707POPC   C2B12212  30.623  22.372   8.264
  707POPC   C3B12213  30.587  22.446   7.964
  707POPC   C4B12214  30.662  22.369   7.664
  708POPC   NC312215  12.845   7.459   9.464
  708POPC   PO412216  12.843   7.395   9.164
  708POPC   GL112217  12.885   7.419   8.864
  708POPC   GL212218  12.780   7.270   8.864
  708POPC   C1A12219  12.851   7.460   8.564
  708POPC   D2A12220  12.897   7.373   8.264
  708POPC   C3A12221  12.825   7.402   7.964
  708POPC   C4A12222  12.887   7.453   7.664
  708POPC   C1B12223  12.796   7.196   8.564
  708POPC   C2B12224  12.809   7.190   8.264
  708POPC   C3B12225  12.742   7.168   7.964
  708POPC   C4B12226  12.728   7.164   7.664
  709POPC   NC312227  24.456  26.828   9.464
  709POPC   PO412228  24.476  26.856   9.164
  709POPC   GL112229  24.482  26.833   8.864
  709POPC   GL212230  24.579  26.959   8.864
  709POPC   C1A12231  24.459  26.836   8.564
  709POPC   D2A12232  24.486  26.808   8.264
  709POPC   C3A12233  24.508  26.769   7.964
  709POPC   C4A12234  24.532  26.811   7.664
  709POPC   C1B12235  24.655  27.044   8.564
  709POPC   C2B12236  24.695  27.042   8.264
  709POPC   C3B12237  24.702  27.029   7.964
  709POPC   C4B12238  24.699  26.991   7.664
  710POPC   NC312239   2.801  22.206   9.464
  710POPC   PO412240   2.723  22.142   9.164
  710POPC   GL112241   2.757  22.138   8.864
  710POPC   GL212242   2.850  22.265   8.864
  710POPC   C1A12243   2.755  22.201   8.564
  710POPC   D2A12244   2.733  22.140   8.264
  710POPC   C3A12245   2.798  22.204   7.964
  710POPC   C4A12246   2.759  22.180   7.664
  710POPC   C1B12247   2.938  22.315   8.564
  710POPC   C2B12248   3.015  22.277   8.264
  710POPC   C3B12249   3.010  22.331   7.964
  710POPC   C4B12250   3.004  22.334   7.664
  711POPC   NC312251  26.048  36.923   9.464
  711POPC   PO412252  26.062  36.952   9.164
  711POPC   GL112253  26.040  36.922   8.864
  711POPC   GL212254  26.040  37.002   8.864
  711POPC   C1A12255  26.059  36.922   8.564
  711POPC   D2A12256  26.020  36.940   8.264
  711POPC   C3A12257  26.064  36.916   7.964
  711POPC   C4A12258  26.087  36.915   7.664
  711POPC   C1B12259  26.088  37.109   8.564
  711POPC   C2B12260  26.159  37.131   8.264
  711POPC   C3B12261  26.084  37.170   7.964
  711POPC   C4B12262  26.089  37.128   7.664
  712POPC   NC312263   0.469  31.520   9.464
  712POPC   PO412264   0.438  31.468   9.164
  712POPC   GL112265   0.460  31.428   8.864
  712POPC   GL212266   0.355  31.360   8.864
  712POPC   C1A12267   0.447  31.442   8.564
  712POPC   D2A12268   0.458  31.501   8.264
  712POPC   C3A12269   0.467  31.429   7.964
  712POPC   C4A12270   0.417  31.514   7.664
  712POPC   C1B12271   0.341  31.259   8.564
  712POPC   C2B12272   0.321  31.233   8.264
  712POPC   C3B12273   0.373  31.245   7.964
  712POPC   C4B12274   0.296  31.269   7.664
  713POPC   NC312275  37.660  20.624   9.464
  713POPC   PO412276  37.678  20.627   9.164
  713POPC   GL112277  37.711  20.593   8.864
  713POPC   GL212278  37.639  20.476   8.864
  713POPC   C1A12279  37.660  20.585   8.564
  713POPC   D2A12280  37.633  20.624   8.264
  713POPC   C3A12281  37.718  20.647   7.964
  713POPC   C4A12282  37.659  20.630   7.664
  713POPC   C1B12283  37.551  20.370   8.564
  713POPC   C2B12284  37.552  20.403   8.264
  713POPC   C3B12285  37.574  20.366   7.964
  713POPC   C4B12286  37.630  20.356   7.664
  714POPC   NC312287  40.026   3.538   9.464
  714POPC   PO412288  40.017   3.532   9.164
  714POPC   GL112289  40.026   3.549   8.864
  714POPC   GL212290  39.989   3.682   8.864
  714POPC   C1A12291  40.040   3.561   8.564
  714POPC   D2A12292  39.987   3.590   8.264
  714POPC   C3A12293  40.029   3.507   7.964
  714POPC   C4A12294  40.012   3.581   7.664
  714POPC   C1B12295  40.039   3.817   8.564
  714POPC   C2B12296  40.048   3.771   8.264
  714POPC   C3B12297  40.061   3.819   7.964
  714POPC   C4B12298  39.981   3.824   7.664
  715POPC   NC312299  29.930   7.447   9.464
  715POPC   PO412300  29.898   7.441   9.164
  715POPC   GL112301  29.926   7.456   8.864
  715POPC   GL212302  29.920   7.266   8.864
  715POPC   C1A12303  29.893   7.401   8.564
  715POPC   D2A12304  29.966   7.375   8.264
  715POPC   C3A12305  29.938   7.373   7.964
  715POPC   C4A12306  29.915   7.423   7.664
  715POPC   C1B12307  29.881   7.217   8.564
  715POPC   C2B12308  29.846   7.173   8.264
  715POPC   C3B12309  29.870   7.137   7.964
  715POPC   C4B12310  29.890   7.223   7.664
  716POPC   NC312311  32.265   5.055   9.464
  716POPC   PO412312  32.245   5.110   9.164
  716POPC   GL112313  32.263   5.124   8.864
  716POPC   GL212314  32.203   5.210   8.864
  716POPC   C1A12315  32.284   5.055   8.564
  716POPC   D2A12316  32.228   5.045   8.264
  716POPC   C3A12317  32.263   5.060   7.964
  716POPC   C4A12318  32.230   5.111   7.664
  716POPC   C1B12319  32.187   5.356   8.564
  716POPC   C2B12320  32.206   5.345   8.264
  716POPC   C3B12321  32.215   5.367   7.964
  716POPC   C4B12322  32.206   5.290   7.664
  717POPC   NC312323  13.647   7.387   9.464
  717POPC   PO412324  13.588   7.375   9.164
  717POPC   GL112325  13.668   7.395   8.864
  717POPC   GL212326  13.567   7.366   8.864
  717POPC   C1A12327  13.618   7.428   8.564
  717POPC   D2A12328  13.598   7.398   8.264
  717POPC   C3A12329  13.621   7.440   7.964
  717POPC   C4A12330  13.651   7.383   7.664
  717POPC   C1B12331  13.461   7.218   8.564
  717POPC   C2B12332  13.496   7.258   8.264
  717POPC   C3B12333  13.470   7.205   7.964
  717POPC   C4B12334  13.430   7.190   7.664
  718POPC   NC312335  29.149  12.879   9.464
  718POPC   PO412336  29.146  12.876   9.164
  718POPC   GL112337  29.157  12.872   8.864
  718POPC   GL212338  29.096  12.714   8.864
  718POPC   C1A12339  29.139  12.818   8.564
  718POPC   D2A12340  29.136  12.884   8.264
  718POPC   C3A12341  29.180  12.901   7.964
  718POPC   C4A12342  29.192  12.885   7.664
  718POPC   C1B12343  28.986  12.622   8.564
  718POPC   C2B12344  28.994  12.633   8.264
  718POPC   C3B12345  29.061  12.593   7.964
  718POPC   C4B12346  29.069  12.602   7.664
  719POPC   NC312347  22.954  26.041   9.464
  719POPC   PO412348  22.915  26.089   9.164
  719POPC   GL112349  22.908  26.023   8.864
  719POPC   GL212350  22.849  26.008   8.864
  719POPC   C1A12351  22.933  26.039   8.564
  719POPC   D2A12352  22.971  26.049   8.264
  719POPC   C3A12353  22.914  26.011   7.964
  719POPC   C4A12354  22.969  26.011   7.664
  719POPC   C1B12355  22.717  26.027   8.564
  719POPC   C2B12356  22.667  26.025   8.264
  719POPC   C3B12357  22.645  26.077   7.964
  719POPC   C4B12358  22.693  26.022   7.664
  720POPC   NC312359  12.874   5.899   9.464
  720POPC   PO412360  12.895   5.900   9.164
  720POPC   GL112361  12.811   5.916   8.864
  720POPC   GL212362  12.760   5.927   8.864
  720POPC   C1A12363  12.829   5.853   8.564
  720POPC   D2A12364  12.826   5.836   8.264
  720POPC   C3A12365  12.900   5.864   7.964
  720POPC   C4A12366  12.809   5.896   7.664
  720POPC   C1B12367  12.579   5.882   8.564
  720POPC   C2B12368  12.616   5.943   8.264
  720POPC   C3B12369  12.629   5.925   7.964
  720POPC   C4B12370  12.626   5.874   7.664
  721POPC   NC312371   3.563  31.455   9.464
  721POPC   PO412372   3.582  31.492   9.164
  721POPC   GL112373   3.499  31.440   8.864
  721POPC   GL212374   3.444  31.474   8.864
  721POPC   C1A12375   3.532  31.500   8.564
  721POPC   D2A12376   3.552  31.468   8.264
  721POPC   C3A12377   3.528  31.495   7.964
  721POPC   C4A12378   3.512  31.461   7.664
  721POPC   C1B12379   3.284  31.505   8.564
  721POPC   C2B12380   3.266  31.564   8.264
  721POPC   C3B12381   3.313  31.541   7.964
  721POPC   C4B12382   3.272  31.557   7.664
  722POPC   NC312383   8.175  30.665   9.464
  722POPC   PO412384   8.184  30.662   9.164
  722POPC   GL112385   8.190  30.711   8.864
  722POPC   GL212386   8.208  30.822   8.864
  722POPC   C1A12387   8.158  30.662   8.564
  722POPC   D2A12388   8.217  30.692   8.264
  722POPC   C3A12389   8.193  30.742   7.964
  722POPC   C4A12390   8.220  30.690   7.664
  722POPC   C1B12391   8.110  30.910   8.564
  722POPC   C2B12392   8.182  30.992   8.264
  722POPC   C3B12393   8.140  30.954   7.964
  722POPC   C4B12394   8.197  30.943   7.664
  723POPC   NC312395  15.930  10.475   9.464
  723POPC   PO412396  15.988  10.479   9.164
  723POPC   GL112397  15.994  10.491   8.864
  723POPC   GL212398  16.060  10.545   8.864
  723POPC   C1A12399  15.931  10.515   8.564
  723POPC   D2A12400  15.983  10.561   8.264
  723POPC   C3A12401  15.967  10.532   7.964
  723POPC   C4A12402  15.944  10.535   7.664
  723POPC   C1B12403  16.195  10.613   8.564
  723POPC   C2B12404  16.169  10.560   8.264
  723POPC   C3B12405  16.167  10.592   7.964
  723POPC   C4B12406  16.178  10.549   7.664
  724POPC   NC312407  33.768   2.039   9.464
  724POPC   PO412408  33.769   1.943   9.164
  724POPC   GL112409  33.836   1.968   8.864
  724POPC   GL212410  33.934   2.001   8.864
  724POPC   C1A12411  33.766   1.999   8.564
  724POPC   D2A12412  33.761   2.004   8.264
  724POPC   C3A12413  33.799   1.981   7.964
  724POPC   C4A12414  33.764   2.025   7.664
  724POPC   C1B12415  34.070   1.990   8.564
  724POPC   C2B12416  34.013   1.959   8.264
  724POPC   C3B12417  34.008   1.924   7.964
  724POPC   C4B12418  34.097   1.985   7.664
  725POPC   NC312419  36.104  39.182   9.464
  725POPC   PO412420  36.176  39.182   9.164
  725POPC   GL112421  36.127  39.218   8.864
  725POPC   GL212422  36.186  39.358   8.864
  725POPC   C1A12423  36.086  39.243   8.564
  725POPC   D2A12424  36.140  39.259   8.264
  725POPC   C3A12425  36.163  39.234   7.964
  725POPC   C4A12426  36.147  39.266   7.664
  725POPC   C1B12427  36.282  39.452   8.564
  725POPC   C2B12428  36.236  39.406   8.264
  725POPC   C3B12429  36.215  39.455   7.964
  725POPC   C4B12430  36.229  39.417   7.664
  726POPC   NC312431   9.788  20.652   9.464
  726POPC   PO412432   9.701  20.607   9.164
  726POPC   GL112433   9.734  20.616   8.864
  726POPC   GL212434   9.638  20.564   8.864
  726POPC   C1A12435   9.721  20.562   8.564
  726POPC   D2A12436   9.713  20.568   8.264
  726POPC   C3A12437   9.705  20.572   7.964
  726POPC   C4A12438   9.768  20.575   7.664
  726POPC   C1B12439   9.520  20.512   8.564
  726POPC   C2B12440   9.523  20.568   8.264
  726POPC   C3B12441   9.545  20.553   7.964
  726POPC   C4B12442   9.517  20.574   7.664
  727POPC   NC312443  31.459  27.543   9.464
  727POPC   PO412444  31.452  27.545   9.164
  727POPC   GL112445  31.471  27.636   8.864
  727POPC   GL212446  31.499  27.739   8.864
  727POPC   C1A12447  31.515  27.578   8.564
  727POPC   D2A12448  31.447  27.610   8.264
  727POPC   C3A12449  31.478  27.598   7.964
  727POPC   C4A12450  31.488  27.634   7.664
  727POPC   C1B12451  31.574  27.757   8.564
  727POPC   C2B12452  31.646  27.787   8.264
  727POPC   C3B12453  31.623  27.807   7.964
  727POPC   C4B12454  31.621  27.829   7.664
  728POPC   NC312455  10.528  35.387   9.464
  728POPC   PO412456  10.560  35.346   9.164
  728POPC   GL112457  10.515  35.310   8.864
  728POPC   GL212458  10.445  35.417   8.864
  728POPC   C1A12459  10.551  35.306   8.564
  728POPC   D2A12460  10.501  35.312   8.264
  728POPC   C3A12461  10.565  35.347   7.964
  728POPC   C4A12462  10.563  35.350   7.664
  728POPC   C1B12463  10.369  35.515   8.564
  728POPC   C2B12464  10.328  35.512   8.264
  728POPC   C3B12465  10.296  35.554   7.964
  728POPC   C4B12466  10.336  35.519   7.664
  729POPC   NC312467  22.168  42.333   9.464
  729POPC   PO412468  22.114  42.327   9.164
  729POPC   GL112469  22.208  42.295   8.864
  729POPC   GL212470  22.273  42.411   8.864
  729POPC   C1A12471  22.197  42.352   8.564
  729POPC   D2A12472  22.133  42.314   8.264
  729POPC   C3A12473  22.183  42.378   7.964
  729POPC   C4A12474  22.195  42.340   7.664
  729POPC   C1B12475  22.379  42.430   8.564
  729POPC   C2B12476  22.412  42.428   8.264
  729POPC   C3B12477  22.413  42.423   7.964
  729POPC   C4B12478  22.361  42.409   7.664
  730POPC   NC312479  10.494  40.004   9.464
  730POPC   PO412480  10.546  40.037   9.164
  730POPC   GL112481  10.475  39.988   8.864
  730POPC   GL212482  10.600  39.905   8.864
  730POPC   C1A12483  10.566  39.984   8.564
  730POPC   D2A12484  10.528  40.021   8.264
  730POPC   C3A12485  10.550  39.992   7.964
  730POPC   C4A12486  10.543  39.989   7.664
  730POPC   C1B12487  10.709  39.875   8.564
  730POPC   C2B12488  10.703  39.782   8.264
  730POPC   C3B12489  10.685  39.816   7.964
  730POPC   C4B12490  10.653  39.850   7.664
  731POPC   NC312491  17.527  25.251   9.464
  731POPC   PO412492  17.505  25.275   9.164
  731POPC   GL112493  17.519  25.308   8.864
  731POPC   GL212494  17.657  25.190   8.864
  731POPC   C1A12495  17.488  25.221   8.564
  731POPC   D2A12496  17.487  25.234   8.264
  731POPC   C3A12497  17.470  25.273   7.964
  731POPC   C4A12498  17.522  25.270   7.664
  731POPC   C1B12499  17.665  25.118   8.564
  731POPC   C2B12500  17.728  25.132   8.264
  731POPC   C3B12501  17.707  25.127   7.964
  731POPC   C4B12502  17.744  25.127   7.664
  732POPC   NC312503  34.584  36.919   9.464
  732POPC   PO412504  34.532  36.863   9.164
  732POPC   GL112505  34.566  36.898   8.864
  732POPC   GL212506  34.530  36.785   8.864
  732POPC   C1A12507  34.554  36.920   8.564
  732POPC   D2A12508  34.609  36.931   8.264
  732POPC   C3A12509  34.599  36.929   7.964
  732POPC   C4A12510  34.582  36.907   7.664
  732POPC   C1B12511  34.375  36.735   8.564
  732POPC   C2B12512  34.387  36.713   8.264
  732POPC   C3B12513  34.437  36.684   7.964
  732POPC   C4B12514  34.433  36.754   7.664
  733POPC   NC312515  13.604  39.194   9.464
  733POPC   PO412516  13.663  39.225   9.164
  733POPC   GL112517  13.648  39.220   8.864
  733POPC   GL212518  13.581  39.088   8.864
  733POPC   C1A12519  13.588  39.263   8.564
  733POPC   D2A12520  13.608  39.195   8.264
  733POPC   C3A12521  13.673  39.270   7.964
  733POPC   C4A12522  13.600  39.218   7.664
  733POPC   C1B12523  13.563  38.986   8.564
  733POPC   C2B12524  13.532  38.979   8.264
  733POPC   C3B12525  13.528  39.030   7.964
  733POPC   C4B12526  13.564  38.994   7.664
  734POPC   NC312527  39.204  39.264   9.464
  734POPC   PO412528  39.260  39.231   9.164
  734POPC   GL112529  39.280  39.205   8.864
  734POPC   GL212530  39.123  39.273   8.864
  734POPC   C1A12531  39.277  39.182   8.564
  734POPC   D2A12532  39.207  39.202   8.264
  734POPC   C3A12533  39.275  39.232   7.964
  734POPC   C4A12534  39.245  39.220   7.664
  734POPC   C1B12535  39.096  39.407   8.564
  734POPC   C2B12536  39.066  39.377   8.264
  734POPC   C3B12537  39.015  39.440   7.964
  734POPC   C4B12538  39.101  39.381   7.664
  735POPC   NC312539  33.841  43.153   9.464
  735POPC   PO412540  33.796  43.071   9.164
  735POPC   GL112541  33.765  43.067   8.864
  735POPC   GL212542  33.745  43.231   8.864
  735POPC   C1A12543  33.766  43.110   8.564
  735POPC   D2A12544  33.835  43.086   8.264
  735POPC   C3A12545  33.761  43.076   7.964
  735POPC   C4A12546  33.760  43.090   7.664
  735POPC   C1B12547  33.591  43.284   8.564
  735POPC   C2B12548  33.632  43.300   8.264
  735POPC   C3B12549  33.670  43.320   7.964
  735POPC   C4B12550  33.649  43.293   7.664
  736POPC   NC312551  26.818  42.379   9.464
  736POPC   PO412552  26.836  42.364   9.164
  736POPC   GL112553  26.855  42.375   8.864
  736POPC   GL212554  26.760  42.425   8.864
  736POPC   C1A12555  26.797  42.383   8.564
  736POPC   D2A12556  26.818  42.335   8.264
  736POPC   C3A12557  26.845  42.363   7.964
  736POPC   C4A12558  26.812  42.319   7.664
  736POPC   C1B12559  26.631  42.496   8.564
  736POPC   C2B12560  26.674  42.524   8.264
  736POPC   C3B12561  26.647  42.478   7.964
  736POPC   C4B12562  26.647  42.533   7.664
  737POPC   NC312563  20.644  14.439   9.464
  737POPC   PO412564  20.577  14.404   9.164
  737POPC   GL112565  20.607  14.391   8.864
  737POPC   GL212566  20.560  14.289   8.864
  737POPC   C1A12567  20.568  14.363   8.564
  737POPC   D2A12568  20.583  14.435   8.264
  737POPC   C3A12569  20.588  14.446   7.964
  737POPC   C4A12570  20.622  14.394   7.664
  737POPC   C1B12571  20.459  14.170   8.564
  737POPC   C2B12572  20.452  14.194   8.264
  737POPC   C3B12573  20.452  14.186   7.964
  737POPC   C4B12574  20.471  14.215   7.664
  738POPC   NC312575  41.594  15.972   9.464
  738POPC   PO412576  41.582  15.935   9.164
  738POPC   GL112577  41.542  15.987   8.864
  738POPC   GL212578  41.669  15.967   8.864
  738POPC   C1A12579  41.532  15.960   8.564
  738POPC   D2A12580  41.520  15.935   8.264
  738POPC   C3A12581  41.558  16.004   7.964
  738POPC   C4A12582  41.605  15.967   7.664
  738POPC   C1B12583  41.781  15.935   8.564
  738POPC   C2B12584  41.810  15.915   8.264
  738POPC   C3B12585  41.825  15.966   7.964
  738POPC   C4B12586  41.834  15.899   7.664
  739POPC   NC312587  25.267   5.118   9.464
  739POPC   PO412588  25.286   5.098   9.164
  739POPC   GL112589  25.284   5.078   8.864
  739POPC   GL212590  25.134   5.050   8.864
  739POPC   C1A12591  25.243   5.131   8.564
  739POPC   D2A12592  25.279   5.103   8.264
  739POPC   C3A12593  25.281   5.114   7.964
  739POPC   C4A12594  25.270   5.047   7.664
  739POPC   C1B12595  25.031   5.005   8.564
  739POPC   C2B12596  25.048   4.931   8.264
  739POPC   C3B12597  25.035   4.999   7.964
  739POPC   C4B12598  25.005   4.926   7.664
  740POPC   NC312599  11.341  32.213   9.464
  740POPC   PO412600  11.253  32.228   9.164
  740POPC   GL112601  11.340  32.287   8.864
  740POPC   GL212602  11.356  32.161   8.864
  740POPC   C1A12603  11.342  32.268   8.564
  740POPC   D2A12604  11.289  32.248   8.264
  740POPC   C3A12605  11.290  32.232   7.964
  740POPC   C4A12606  11.300  32.267   7.664
  740POPC   C1B12607  11.398  32.050   8.564
  740POPC   C2B12608  11.398  32.030   8.264
  740POPC   C3B12609  11.371  32.025   7.964
  740POPC   C4B12610  11.360  32.014   7.664
  741POPC   NC312611  25.268  36.949   9.464
  741POPC   PO412612  25.278  36.871   9.164
  741POPC   GL112613  25.281  36.865   8.864
  741POPC   GL212614  25.341  36.981   8.864
  741POPC   C1A12615  25.245  36.892   8.564
  741POPC   D2A12616  25.218  36.890   8.264
  741POPC   C3A12617  25.261  36.857   7.964
  741POPC   C4A12618  25.296  36.883   7.664
  741POPC   C1B12619  25.414  37.084   8.564
  741POPC   C2B12620  25.407  37.100   8.264
  741POPC   C3B12621  25.410  37.076   7.964
  741POPC   C4B12622  25.437  37.143   7.664
  742POPC   NC312623   3.524  42.343   9.464
  742POPC   PO412624   3.590  42.376   9.164
  742POPC   GL112625   3.521  42.373   8.864
  742POPC   GL212626   3.483  42.319   8.864
  742POPC   C1A12627   3.570  42.326   8.564
  742POPC   D2A12628   3.495  42.349   8.264
  742POPC   C3A12629   3.559  42.341   7.964
  742POPC   C4A12630   3.515  42.288   7.664
  742POPC   C1B12631   3.353  42.248   8.564
  742POPC   C2B12632   3.278  42.193   8.264
  742POPC   C3B12633   3.328  42.208   7.964
  742POPC   C4B12634   3.359  42.197   7.664
  743POPC   NC312635  44.638  26.819   9.464
  743POPC   PO412636  44.681  26.826   9.164
  743POPC   GL112637  44.669  26.805   8.864
  743POPC   GL212638  44.618  26.976   8.864
  743POPC   C1A12639  44.679  26.815   8.564
  743POPC   D2A12640  44.710  26.850   8.264
  743POPC   C3A12641  44.615  26.821   7.964
  743POPC   C4A12642  44.619  26.783   7.664
  743POPC   C1B12643  44.636  27.025   8.564
  743POPC   C2B12644  44.594  27.020   8.264
  743POPC   C3B12645  44.607  27.078   7.964
  743POPC   C4B12646  44.657  27.034   7.664
  744POPC   NC312647  40.008   5.852   9.464
  744POPC   PO412648  39.995   5.867   9.164
  744POPC   GL112649  39.979   5.906   8.864
  744POPC   GL212650  40.093   5.907   8.864
  744POPC   C1A12651  40.047   5.900   8.564
  744POPC   D2A12652  39.983   5.900   8.264
  744POPC   C3A12653  40.037   5.841   7.964
  744POPC   C4A12654  39.983   5.870   7.664
  744POPC   C1B12655  40.289   5.884   8.564
  744POPC   C2B12656  40.213   5.831   8.264
  744POPC   C3B12657  40.261   5.899   7.964
  744POPC   C4B12658  40.285   5.828   7.664
  745POPC   NC312659  37.673  33.793   9.464
  745POPC   PO412660  37.715  33.774   9.164
  745POPC   GL112661  37.718  33.758   8.864
  745POPC   GL212662  37.711  33.884   8.864
  745POPC   C1A12663  37.699  33.818   8.564
  745POPC   D2A12664  37.678  33.794   8.264
  745POPC   C3A12665  37.688  33.759   7.964
  745POPC   C4A12666  37.716  33.818   7.664
  745POPC   C1B12667  37.779  34.051   8.564
  745POPC   C2B12668  37.791  34.006   8.264
  745POPC   C3B12669  37.789  34.058   7.964
  745POPC   C4B12670  37.772  34.022   7.664
  746POPC   NC312671   5.081  11.308   9.464
  746POPC   PO412672   5.060  11.269   9.164
  746POPC   GL112673   5.076  11.317   8.864
  746POPC   GL212674   5.071  11.396   8.864
  746POPC   C1A12675   5.079  11.300   8.564
  746POPC   D2A12676   5.093  11.284   8.264
  746POPC   C3A12677   5.117  11.271   7.964
  746POPC   C4A12678   5.085  11.308   7.664
  746POPC   C1B12679   5.118  11.554   8.564
  746POPC   C2B12680   5.097  11.555   8.264
  746POPC   C3B12681   5.049  11.566   7.964
  746POPC   C4B12682   5.100  11.593   7.664
  747POPC   NC312683  29.141   6.650   9.464
  747POPC   PO412684  29.181   6.620   9.164
  747POPC   GL112685  29.163   6.628   8.864
  747POPC   GL212686  29.129   6.563   8.864
  747POPC   C1A12687  29.142   6.643   8.564
  747POPC   D2A12688  29.178   6.653   8.264
  747POPC   C3A12689  29.101   6.685   7.964
  747POPC   C4A12690  29.137   6.612   7.664
  747POPC   C1B12691  29.084   6.383   8.564
  747POPC   C2B12692  29.113   6.450   8.264
  747POPC   C3B12693  29.075   6.369   7.964
  747POPC   C4B12694  29.042   6.451   7.664
  748POPC   NC312695  32.250  32.288   9.464
  748POPC   PO412696  32.295  32.284   9.164
  748POPC   GL112697  32.249  32.261   8.864
  748POPC   GL212698  32.099  32.237   8.864
  748POPC   C1A12699  32.213  32.257   8.564
  748POPC   D2A12700  32.292  32.227   8.264
  748POPC   C3A12701  32.220  32.205   7.964
  748POPC   C4A12702  32.294  32.259   7.664
  748POPC   C1B12703  32.003  32.285   8.564
  748POPC   C2B12704  32.002  32.311   8.264
  748POPC   C3B12705  32.020  32.335   7.964
  748POPC   C4B12706  32.045  32.326   7.664
  749POPC   NC312707  33.047   6.692   9.464
  749POPC   PO412708  32.990   6.609   9.164
  749POPC   GL112709  33.024   6.604   8.864
  749POPC   GL212710  32.883   6.722   8.864
  749POPC   C1A12711  32.996   6.634   8.564
  749POPC   D2A12712  33.062   6.677   8.264
  749POPC   C3A12713  32.987   6.625   7.964
  749POPC   C4A12714  33.064   6.679   7.664
  749POPC   C1B12715  32.819   6.748   8.564
  749POPC   C2B12716  32.759   6.748   8.264
  749POPC   C3B12717  32.827   6.673   7.964
  749POPC   C4B12718  32.822   6.683   7.664
  750POPC   NC312719  18.300  37.669   9.464
  750POPC   PO412720  18.238  37.685   9.164
  750POPC   GL112721  18.304  37.651   8.864
  750POPC   GL212722  18.298  37.532   8.864
  750POPC   C1A12723  18.296  37.682   8.564
  750POPC   D2A12724  18.235  37.634   8.264
  750POPC   C3A12725  18.278  37.718   7.964
  750POPC   C4A12726  18.307  37.703   7.664
  750POPC   C1B12727  18.351  37.455   8.564
  750POPC   C2B12728  18.341  37.395   8.264
  750POPC   C3B12729  18.345  37.414   7.964
  750POPC   C4B12730  18.363  37.486   7.664
  751POPC   NC312731  40.736  12.836   9.464
  751POPC   PO412732  40.828  12.817   9.164
  751POPC   GL112733  40.830  12.902   8.864
  751POPC   GL212734  40.924  12.818   8.864
  751POPC   C1A12735  40.801  12.805   8.564
  751POPC   D2A12736  40.751  12.835   8.264
  751POPC   C3A12737  40.739  12.887   7.964
  751POPC   C4A12738  40.805  12.828   7.664
  751POPC   C1B12739  40.955  12.696   8.564
  751POPC   C2B12740  41.047  12.706   8.264
  751POPC   C3B12741  40.968  12.772   7.964
  751POPC   C4B12742  40.990  12.771   7.664
  752POPC   NC312743  20.567  28.347   9.464
  752POPC   PO412744  20.585  28.348   9.164
  752POPC   GL112745  20.561  28.346   8.864
  752POPC   GL212746  20.529  28.305   8.864
  752POPC   C1A12747  20.617  28.380   8.564
  752POPC   D2A12748  20.617  28.353   8.264
  752POPC   C3A12749  20.602  28.329   7.964
  752POPC   C4A12750  20.650  28.344   7.664
  752POPC   C1B12751  20.428  28.255   8.564
  752POPC   C2B12752  20.368  28.289   8.264
  752POPC   C3B12753  20.343  28.301   7.964
  752POPC   C4B12754  20.380  28.249   7.664
  753POPC   NC312755  36.174   8.926   9.464
  753POPC   PO412756  36.144   8.923   9.164
  753POPC   GL112757  36.173   8.928   8.864
  753POPC   GL212758  36.075   9.057   8.864
  753POPC   C1A12759  36.152   8.958   8.564
  753POPC   D2A12760  36.146   8.938   8.264
  753POPC   C3A12761  36.112   8.941   7.964
  753POPC   C4A12762  36.160   8.965   7.664
  753POPC   C1B12763  35.968   9.142   8.564
  753POPC   C2B12764  35.998   9.137   8.264
  753POPC   C3B12765  35.948   9.142   7.964
  753POPC   C4B12766  35.951   9.132   7.664
  754POPC   NC312767  30.661  17.501   9.464
  754POPC   PO412768  30.695  17.555   9.164
  754POPC   GL112769  30.673  17.503   8.864
  754POPC   GL212770  30.565  17.442   8.864
  754POPC   C1A12771  30.655  17.544   8.564
  754POPC   D2A12772  30.696  17.524   8.264
  754POPC   C3A12773  30.740  17.483   7.964
  754POPC   C4A12774  30.675  17.520   7.664
  754POPC   C1B12775  30.480  17.374   8.564
  754POPC   C2B12776  30.480  17.422   8.264
  754POPC   C3B12777  30.505  17.379   7.964
  754POPC   C4B12778  30.435  17.371   7.664
  755POPC   NC312779   1.203   9.752   9.464
  755POPC   PO412780   1.187   9.741   9.164
  755POPC   GL112781   1.247   9.776   8.864
  755POPC   GL212782   1.127   9.630   8.864
  755POPC   C1A12783   1.248   9.722   8.564
  755POPC   D2A12784   1.165   9.711   8.264
  755POPC   C3A12785   1.229   9.721   7.964
  755POPC   C4A12786   1.193   9.776   7.664
  755POPC   C1B12787   1.075   9.553   8.564
  755POPC   C2B12788   1.104   9.533   8.264
  755POPC   C3B12789   1.110   9.482   7.964
  755POPC   C4B12790   1.078   9.535   7.664
  756POPC   NC312791   8.944  26.082   9.464
  756POPC   PO412792   8.992  26.059   9.164
  756POPC   GL112793   8.949  26.007   8.864
  756POPC   GL212794   8.830  26.162   8.864
  756POPC   C1A12795   8.930  26.061   8.564
  756POPC   D2A12796   9.007  26.048   8.264
  756POPC   C3A12797   8.967  26.047   7.964
  756POPC   C4A12798   8.952  26.018   7.664
  756POPC   C1B12799   8.804  26.155   8.564
  756POPC   C2B12800   8.743  26.169   8.264
  756POPC   C3B12801   8.770  26.146   7.964
  756POPC   C4B12802   8.754  26.197   7.664
  757POPC   NC312803  42.358  40.749   9.464
  757POPC   PO412804  42.358  40.826   9.164
  757POPC   GL112805  42.328  40.807   8.864
  757POPC   GL212806  42.412  40.851   8.864
  757POPC   C1A12807  42.363  40.743   8.564
  757POPC   D2A12808  42.310  40.804   8.264
  757POPC   C3A12809  42.366  40.831   7.964
  757POPC   C4A12810  42.305  40.818   7.664
  757POPC   C1B12811  42.563  40.876   8.564
  757POPC   C2B12812  42.536  40.849   8.264
  757POPC   C3B12813  42.579  40.876   7.964
  757POPC   C4B12814  42.587  40.859   7.664
  758POPC   NC312815   7.417   7.403   9.464
  758POPC   PO412816   7.456   7.458   9.164
  758POPC   GL112817   7.415   7.435   8.864
  758POPC   GL212818   7.497   7.514   8.864
  758POPC   C1A12819   7.377   7.413   8.564
  758POPC   D2A12820   7.412   7.435   8.264
  758POPC   C3A12821   7.383   7.398   7.964
  758POPC   C4A12822   7.450   7.443   7.664
  758POPC   C1B12823   7.563   7.643   8.564
  758POPC   C2B12824   7.606   7.601   8.264
  758POPC   C3B12825   7.541   7.626   7.964
  758POPC   C4B12826   7.591   7.605   7.664
  759POPC   NC312827  14.366  36.157   9.464
  759POPC   PO412828  14.442  36.081   9.164
  759POPC   GL112829  14.430  36.097   8.864
  759POPC   GL212830  14.512  36.230   8.864
  759POPC   C1A12831  14.406  36.156   8.564
  759POPC   D2A12832  14.438  36.109   8.264
  759POPC   C3A12833  14.411  36.078   7.964
  759POPC   C4A12834  14.448  36.097   7.664
  759POPC   C1B12835  14.562  36.299   8.564
  759POPC   C2B12836  14.595  36.314   8.264
  759POPC   C3B12837  14.609  36.294   7.964
  759POPC   C4B12838  14.535  36.354   7.664
  760POPC   NC312839  11.271  28.394   9.464
  760POPC   PO412840  11.279  28.394   9.164
  760POPC   GL112841  11.307  28.373   8.864
  760POPC   GL212842  11.411  28.289   8.864
  760POPC   C1A12843  11.313  28.418   8.564
  760POPC   D2A12844  11.310  28.376   8.264
  760POPC   C3A12845  11.272  28.363   7.964
  760POPC   C4A12846  11.295  28.397   7.664
  760POPC   C1B12847  11.473  28.259   8.564
  760POPC   C2B12848  11.550  28.211   8.264
  760POPC   C3B12849  11.526  28.226   7.964
  760POPC   C4B12850  11.484  28.249   7.664
  761POPC   NC312851  30.663  36.858   9.464
  761POPC   PO412852  30.721  36.871   9.164
  761POPC   GL112853  30.734  36.935   8.864
  761POPC   GL212854  30.833  36.999   8.864
  761POPC   C1A12855  30.744  36.877   8.564
  761POPC   D2A12856  30.706  36.879   8.264
  761POPC   C3A12857  30.675  36.906   7.964
  761POPC   C4A12858  30.664  36.877   7.664
  761POPC   C1B12859  30.904  37.061   8.564
  761POPC   C2B12860  30.935  37.024   8.264
  761POPC   C3B12861  30.909  37.055   7.964
  761POPC   C4B12862  30.947  37.024   7.664
  762POPC   NC312863   8.931   0.397   9.464
  762POPC   PO412864   8.923   0.436   9.164
  762POPC   GL112865   8.941   0.456   8.864
  762POPC   GL212866   8.969   0.544   8.864
  762POPC   C1A12867   8.941   0.470   8.564
  762POPC   D2A12868   8.988   0.440   8.264
  762POPC   C3A12869   8.976   0.411   7.964
  762POPC   C4A12870   8.930   0.424   7.664
  762POPC   C1B12871   9.054   0.628   8.564
  762POPC   C2B12872   9.082   0.671   8.264
  762POPC   C3B12873   9.060   0.677   7.964
  762POPC   C4B12874   9.045   0.659   7.664
  763POPC   NC312875  29.149  19.858   9.464
  763POPC   PO412876  29.164  19.845   9.164
  763POPC   GL112877  29.123  19.816   8.864
  763POPC   GL212878  29.233  19.897   8.864
  763POPC   C1A12879  29.097  19.862   8.564
  763POPC   D2A12880  29.124  19.859   8.264
  763POPC   C3A12881  29.177  19.825   7.964
  763POPC   C4A12882  29.164  19.834   7.664
  763POPC   C1B12883  29.356  19.870   8.564
  763POPC   C2B12884  29.384  19.848   8.264
  763POPC   C3B12885  29.410  19.937   7.964
  763POPC   C4B12886  29.355  19.908   7.664
  764POPC   NC312887  35.335   5.092   9.464
  764POPC   PO412888  35.363   5.069   9.164
  764POPC   GL112889  35.388   5.118   8.864
  764POPC   GL212890  35.425   5.208   8.864
  764POPC   C1A12891  35.361   5.056   8.564
  764POPC   D2A12892  35.362   5.078   8.264
  764POPC   C3A12893  35.370   5.081   7.964
  764POPC   C4A12894  35.354   5.058   7.664
  764POPC   C1B12895  35.501   5.305   8.564
  764POPC   C2B12896  35.486   5.301   8.264
  764POPC   C3B12897  35.551   5.299   7.964
  764POPC   C4B12898  35.534   5.268   7.664
  765POPC   NC312899  11.273  40.817   9.464
  765POPC   PO412900  11.266  40.734   9.164
  765POPC   GL112901  11.312  40.780   8.864
  765POPC   GL212902  11.212  40.755   8.864
  765POPC   C1A12903  11.320  40.818   8.564
  765POPC   D2A12904  11.271  40.807   8.264
  765POPC   C3A12905  11.260  40.760   7.964
  765POPC   C4A12906  11.276  40.770   7.664
  765POPC   C1B12907  11.008  40.783   8.564
  765POPC   C2B12908  11.075  40.799   8.264
  765POPC   C3B12909  11.050  40.741   7.964
  765POPC   C4B12910  11.065  40.779   7.664
  766POPC   NC312911  22.981  14.409   9.464
  766POPC   PO412912  22.918  14.385   9.164
  766POPC   GL112913  22.974  14.359   8.864
  766POPC   GL212914  22.883  14.266   8.864
  766POPC   C1A12915  22.972  14.425   8.564
  766POPC   D2A12916  22.971  14.413   8.264
  766POPC   C3A12917  22.969  14.445   7.964
  766POPC   C4A12918  22.952  14.395   7.664
  766POPC   C1B12919  22.838  14.227   8.564
  766POPC   C2B12920  22.788  14.168   8.264
  766POPC   C3B12921  22.846  14.233   7.964
  766POPC   C4B12922  22.773  14.155   7.664
  767POPC   NC312923   7.391  18.321   9.464
  767POPC   PO412924   7.411  18.242   9.164
  767POPC   GL112925   7.467  18.249   8.864
  767POPC   GL212926   7.305  18.147   8.864
  767POPC   C1A12927   7.441  18.241   8.564
  767POPC   D2A12928   7.419  18.309   8.264
  767POPC   C3A12929   7.378  18.304   7.964
  767POPC   C4A12930   7.469  18.240   7.664
  767POPC   C1B12931   7.275  18.052   8.564
  767POPC   C2B12932   7.248  18.087   8.264
  767POPC   C3B12933   7.224  18.097   7.964
  767POPC   C4B12934   7.237  18.132   7.664
  768POPC   NC312935   8.994  24.492   9.464
  768POPC   PO412936   8.968  24.498   9.164
  768POPC   GL112937   9.017  24.521   8.864
  768POPC   GL212938   9.024  24.391   8.864
  768POPC   C1A12939   8.982  24.474   8.564
  768POPC   D2A12940   8.944  24.443   8.264
  768POPC   C3A12941   8.998  24.452   7.964
  768POPC   C4A12942   9.022  24.516   7.664
  768POPC   C1B12943   9.061  24.280   8.564
  768POPC   C2B12944   9.059  24.232   8.264
  768POPC   C3B12945   9.078  24.300   7.964
  768POPC   C4B12946   9.019  24.243   7.664
  769POPC   NC312947  28.344  40.006   9.464
  769POPC   PO412948  28.335  39.970   9.164
  769POPC   GL112949  28.319  40.028   8.864
  769POPC   GL212950  28.476  40.065   8.864
  769POPC   C1A12951  28.418  40.040   8.564
  769POPC   D2A12952  28.386  40.040   8.264
  769POPC   C3A12953  28.336  40.017   7.964
  769POPC   C4A12954  28.331  40.048   7.664
  769POPC   C1B12955  28.623  40.123   8.564
  769POPC   C2B12956  28.635  40.102   8.264
  769POPC   C3B12957  28.575  40.114   7.964
  769POPC   C4B12958  28.564  40.116   7.664
  770POPC   NC312959  11.251  26.005   9.464
  770POPC   PO412960  11.281  26.073   9.164
  770POPC   GL112961  11.315  26.068   8.864
  770POPC   GL212962  11.394  26.039   8.864
  770POPC   C1A12963  11.263  26.024   8.564
  770POPC   D2A12964  11.304  26.078   8.264
  770POPC   C3A12965  11.326  26.030   7.964
  770POPC   C4A12966  11.286  26.058   7.664
  770POPC   C1B12967  11.570  25.980   8.564
  770POPC   C2B12968  11.567  26.017   8.264
  770POPC   C3B12969  11.587  26.020   7.964
  770POPC   C4B12970  11.514  26.021   7.664
  771POPC   NC312971  17.483  30.650   9.464
  771POPC   PO412972  17.473  30.664   9.164
  771POPC   GL112973  17.479  30.730   8.864
  771POPC   GL212974  17.344  30.717   8.864
  771POPC   C1A12975  17.467  30.694   8.564
  771POPC   D2A12976  17.459  30.728   8.264
  771POPC   C3A12977  17.465  30.707   7.964
  771POPC   C4A12978  17.503  30.689   7.664
  771POPC   C1B12979  17.293  30.715   8.564
  771POPC   C2B12980  17.226  30.721   8.264
  771POPC   C3B12981  17.290  30.708   7.964
  771POPC   C4B12982  17.265  30.719   7.664
  772POPC   NC312983  32.225  29.889   9.464
  772POPC   PO412984  32.293  29.885   9.164
  772POPC   GL112985  32.247  29.947   8.864
  772POPC   GL212986  32.333  29.781   8.864
  772POPC   C1A12987  32.242  29.955   8.564
  772POPC   D2A12988  32.201  29.899   8.264
  772POPC   C3A12989  32.294  29.944   7.964
  772POPC   C4A12990  32.258  29.872   7.664
  772POPC   C1B12991  32.372  29.700   8.564
  772POPC   C2B12992  32.288  29.722   8.264
  772POPC   C3B12993  32.279  29.658   7.964
  772POPC   C4B12994  32.277  29.691   7.664
  773POPC   NC312995  18.264  10.544   9.464
  773POPC   PO412996  18.297  10.509   9.164
  773POPC   GL112997  18.291  10.516   8.864
  773POPC   GL212998  18.150  10.575   8.864
  773POPC   C1A12999  18.254  10.546   8.564
  773POPC   D2A13000  18.282  10.522   8.264
  773POPC   C3A13001  18.280  10.532   7.964
  773POPC   C4A13002  18.274  10.553   7.664
  773POPC   C1B13003  18.050  10.703   8.564
  773POPC   C2B13004  18.063  10.710   8.264
  773POPC   C3B13005  18.026  10.641   7.964
  773POPC   C4B13006  18.072  10.630   7.664
  774POPC   NC313007  12.062  21.401   9.464
  774POPC   PO413008  12.105  21.412   9.164
  774POPC   GL113009  12.070  21.389   8.864
  774POPC   GL213010  12.178  21.455   8.864
  774POPC   C1A13011  12.036  21.374   8.564
  774POPC   D2A13012  12.057  21.398   8.264
  774POPC   C3A13013  12.051  21.372   7.964
  774POPC   C4A13014  12.034  21.343   7.664
  774POPC   C1B13015  12.258  21.523   8.564
  774POPC   C2B13016  12.257  21.501   8.264
  774POPC   C3B13017  12.236  21.482   7.964
  774POPC   C4B13018  12.242  21.520   7.664
  775POPC   NC313019   9.012  17.502   9.464
  775POPC   PO413020   8.928  17.543   9.164
  775POPC   GL113021   8.941  17.521   8.864
  775POPC   GL213022   9.141  17.512   8.864
  775POPC   C1A13023   8.990  17.463   8.564
  775POPC   D2A13024   9.021  17.544   8.264
  775POPC   C3A13025   8.959  17.489   7.964
  775POPC   C4A13026   8.960  17.555   7.664
  775POPC   C1B13027   9.254  17.471   8.564
  775POPC   C2B13028   9.233  17.453   8.264
  775POPC   C3B13029   9.249  17.457   7.964
  775POPC   C4B13030   9.239  17.414   7.664
  776POPC   NC313031   1.980   8.993   9.464
  776POPC   PO413032   1.998   9.002   9.164
  776POPC   GL113033   1.968   8.955   8.864
  776POPC   GL213034   1.903   9.033   8.864
  776POPC   C1A13035   1.947   9.003   8.564
  776POPC   D2A13036   1.965   8.927   8.264
  776POPC   C3A13037   1.986   8.927   7.964
  776POPC   C4A13038   1.985   8.977   7.664
  776POPC   C1B13039   1.736   9.020   8.564
  776POPC   C2B13040   1.734   9.024   8.264
  776POPC   C3B13041   1.768   8.979   7.964
  776POPC   C4B13042   1.703   9.045   7.664
  777POPC   NC313043  15.220  44.647   9.464
  777POPC   PO413044  15.178  44.641   9.164
  777POPC   GL113045  15.168  44.616   8.864
  777POPC   GL213046  15.258  44.610   8.864
  777POPC   C1A13047  15.195  44.658   8.564
  777POPC   D2A13048  15.135  44.681   8.264
  777POPC   C3A13049  15.162  44.613   7.964
  777POPC   C4A13050  15.176  44.677   7.664
  777POPC   C1B13051  15.372  44.457   8.564
  777POPC   C2B13052  15.309  44.525   8.264
  777POPC   C3B13053  15.313  44.467   7.964
  777POPC   C4B13054  15.310  44.439   7.664
  778POPC   NC313055   3.530  23.731   9.464
  778POPC   PO413056   3.512  23.699   9.164
  778POPC   GL113057   3.552  23.699   8.864
  778POPC   GL213058   3.620  23.823   8.864
  778POPC   C1A13059   3.495  23.714   8.564
  778POPC   D2A13060   3.578  23.734   8.264
  778POPC   C3A13061   3.516  23.714   7.964
  778POPC   C4A13062   3.515  23.691   7.664
  778POPC   C1B13063   3.728  23.900   8.564
  778POPC   C2B13064   3.690  23.881   8.264
  778POPC   C3B13065   3.699  23.875   7.964
  778POPC   C4B13066   3.689  23.927   7.664
  779POPC   NC313067  35.312  15.196   9.464
  779POPC   PO413068  35.333  15.176   9.164
  779POPC   GL113069  35.389  15.184   8.864
  779POPC   GL213070  35.301  15.286   8.864
  779POPC   C1A13071  35.358  15.138   8.564
  779POPC   D2A13072  35.320  15.228   8.264
  779POPC   C3A13073  35.325  15.132   7.964
  779POPC   C4A13074  35.400  15.144   7.664
  779POPC   C1B13075  35.193  15.401   8.564
  779POPC   C2B13076  35.204  15.367   8.264
  779POPC   C3B13077  35.187  15.377   7.964
  779POPC   C4B13078  35.196  15.375   7.664
  780POPC   NC313079  12.056  43.898   9.464
  780POPC   PO413080  12.093  43.895   9.164
  780POPC   GL113081  12.058  43.904   8.864
  780POPC   GL213082  12.039  43.717   8.864
  780POPC   C1A13083  12.053  43.895   8.564
  780POPC   D2A13084  12.110  43.925   8.264
  780POPC   C3A13085  12.091  43.922   7.964
  780POPC   C4A13086  12.099  43.866   7.664
  780POPC   C1B13087  11.960  43.620   8.564
  780POPC   C2B13088  11.994  43.679   8.264
  780POPC   C3B13089  12.050  43.627   7.964
  780POPC   C4B13090  11.997  43.667   7.664
  781POPC   NC313091  29.969  26.784   9.464
  781POPC   PO413092  29.914  26.786   9.164
  781POPC   GL113093  29.932  26.853   8.864
  781POPC   GL213094  29.975  26.933   8.864
  781POPC   C1A13095  29.909  26.784   8.564
  781POPC   D2A13096  29.927  26.797   8.264
  781POPC   C3A13097  29.880  26.786   7.964
  781POPC   C4A13098  29.882  26.821   7.664
  781POPC   C1B13099  30.150  26.946   8.564
  781POPC   C2B13100  30.118  26.960   8.264
  781POPC   C3B13101  30.095  26.933   7.964
  781POPC   C4B13102  30.095  26.988   7.664
  782POPC   NC313103  29.096  39.961   9.464
  782POPC   PO413104  29.129  40.029   9.164
  782POPC   GL113105  29.182  40.019   8.864
  782POPC   GL213106  29.250  40.095   8.864
  782POPC   C1A13107  29.139  39.964   8.564
  782POPC   D2A13108  29.125  40.044   8.264
  782POPC   C3A13109  29.107  39.962   7.964
  782POPC   C4A13110  29.105  39.966   7.664
  782POPC   C1B13111  29.347  40.214   8.564
  782POPC   C2B13112  29.355  40.182   8.264
  782POPC   C3B13113  29.310  40.178   7.964
  782POPC   C4B13114  29.329  40.189   7.664
  783POPC   NC313115  12.082  12.045   9.464
  783POPC   PO413116  12.091  12.085   9.164
  783POPC   GL113117  12.114  12.118   8.864
  783POPC   GL213118  12.007  12.186   8.864
  783POPC   C1A13119  12.053  12.081   8.564
  783POPC   D2A13120  12.056  12.044   8.264
  783POPC   C3A13121  12.102  12.064   7.964
  783POPC   C4A13122  12.095  12.076   7.664
  783POPC   C1B13123  11.871  12.252   8.564
  783POPC   C2B13124  11.917  12.294   8.264
  783POPC   C3B13125  11.855  12.296   7.964
  783POPC   C4B13126  11.861  12.217   7.664
  784POPC   NC313127   5.894  19.874   9.464
  784POPC   PO413128   5.910  19.859   9.164
  784POPC   GL113129   5.839  19.792   8.864
  784POPC   GL213130   6.042  19.823   8.864
  784POPC   C1A13131   5.876  19.799   8.564
  784POPC   D2A13132   5.836  19.789   8.264
  784POPC   C3A13133   5.881  19.853   7.964
  784POPC   C4A13134   5.910  19.801   7.664
  784POPC   C1B13135   6.083  19.891   8.564
  784POPC   C2B13136   6.092  19.876   8.264
  784POPC   C3B13137   6.135  19.826   7.964
  784POPC   C4B13138   6.112  19.860   7.664
  785POPC   NC313139  24.446  35.371   9.464
  785POPC   PO413140  24.504  35.341   9.164
  785POPC   GL113141  24.471  35.382   8.864
  785POPC   GL213142  24.354  35.317   8.864
  785POPC   C1A13143  24.513  35.382   8.564
  785POPC   D2A13144  24.519  35.356   8.264
  785POPC   C3A13145  24.493  35.344   7.964
  785POPC   C4A13146  24.532  35.372   7.664
  785POPC   C1B13147  24.233  35.290   8.564
  785POPC   C2B13148  24.277  35.305   8.264
  785POPC   C3B13149  24.268  35.322   7.964
  785POPC   C4B13150  24.247  35.385   7.664
  786POPC   NC313151  28.369   5.084   9.464
  786POPC   PO413152  28.368   5.058   9.164
  786POPC   GL113153  28.341   5.073   8.864
  786POPC   GL213154  28.263   4.990   8.864
  786POPC   C1A13155  28.359   5.043   8.564
  786POPC   D2A13156  28.359   5.115   8.264
  786POPC   C3A13157  28.414   5.077   7.964
  786POPC   C4A13158  28.346   5.078   7.664
  786POPC   C1B13159  28.219   4.879   8.564
  786POPC   C2B13160  28.256   4.902   8.264
  786POPC   C3B13161  28.249   4.916   7.964
  786POPC   C4B13162  28.218   4.905   7.664
  787POPC   NC313163  26.849  11.269   9.464
  787POPC   PO413164  26.850  11.278   9.164
  787POPC   GL113165  26.828  11.340   8.864
  787POPC   GL213166  26.868  11.157   8.864
  787POPC   C1A13167  26.854  11.305   8.564
  787POPC   D2A13168  26.861  11.270   8.264
  787POPC   C3A13169  26.801  11.265   7.964
  787POPC   C4A13170  26.801  11.270   7.664
  787POPC   C1B13171  26.860  11.057   8.564
  787POPC   C2B13172  26.865  11.103   8.264
  787POPC   C3B13173  26.861  11.087   7.964
  787POPC   C4B13174  26.886  11.048   7.664
  788POPC   NC313175   2.787  10.503   9.464
  788POPC   PO413176   2.742  10.515   9.164
  788POPC   GL113177   2.751  10.557   8.864
  788POPC   GL213178   2.872  10.456   8.864
  788POPC   C1A13179   2.752  10.486   8.564
  788POPC   D2A13180   2.759  10.500   8.264
  788POPC   C3A13181   2.722  10.502   7.964
  788POPC   C4A13182   2.774  10.560   7.664
  788POPC   C1B13183   3.049  10.438   8.564
  788POPC   C2B13184   2.977  10.490   8.264
  788POPC   C3B13185   2.978  10.491   7.964
  788POPC   C4B13186   2.976  10.520   7.664
  789POPC   NC313187  13.645   8.172   9.464
  789POPC   PO413188  13.624   8.240   9.164
  789POPC   GL113189  13.643   8.237   8.864
  789POPC   GL213190  13.591   8.038   8.864
  789POPC   C1A13191  13.603   8.223   8.564
  789POPC   D2A13192  13.626   8.158   8.264
  789POPC   C3A13193  13.588   8.177   7.964
  789POPC   C4A13194  13.592   8.164   7.664
  789POPC   C1B13195  13.599   7.995   8.564
  789POPC   C2B13196  13.555   7.954   8.264
  789POPC   C3B13197  13.571   7.912   7.964
  789POPC   C4B13198  13.594   7.997   7.664
  790POPC   NC313199  36.907  22.148   9.464
  790POPC   PO413200  36.885  22.162   9.164
  790POPC   GL113201  36.867  22.202   8.864
  790POPC   GL213202  36.764  22.204   8.864
  790POPC   C1A13203  36.944  22.208   8.564
  790POPC   D2A13204  36.862  22.134   8.264
  790POPC   C3A13205  36.933  22.156   7.964
  790POPC   C4A13206  36.923  22.129   7.664
  790POPC   C1B13207  36.699  22.120   8.564
  790POPC   C2B13208  36.608  22.119   8.264
  790POPC   C3B13209  36.621  22.128   7.964
  790POPC   C4B13210  36.605  22.186   7.664
  791POPC   NC313211   5.868  26.026   9.464
  791POPC   PO413212   5.830  26.068   9.164
  791POPC   GL113213   5.917  26.018   8.864
  791POPC   GL213214   5.954  25.965   8.864
  791POPC   C1A13215   5.901  26.001   8.564
  791POPC   D2A13216   5.851  26.016   8.264
  791POPC   C3A13217   5.843  26.029   7.964
  791POPC   C4A13218   5.824  26.076   7.664
  791POPC   C1B13219   5.964  25.816   8.564
  791POPC   C2B13220   5.982  25.864   8.264
  791POPC   C3B13221   5.950  25.865   7.964
  791POPC   C4B13222   6.014  25.808   7.664
  792POPC   NC313223  12.892   1.184   9.464
  792POPC   PO413224  12.889   1.232   9.164
  792POPC   GL113225  12.859   1.184   8.864
  792POPC   GL213226  12.849   1.301   8.864
  792POPC   C1A13227  12.896   1.219   8.564
  792POPC   D2A13228  12.848   1.262   8.264
  792POPC   C3A13229  12.811   1.203   7.964
  792POPC   C4A13230  12.896   1.178   7.664
  792POPC   C1B13231  12.812   1.433   8.564
  792POPC   C2B13232  12.750   1.490   8.264
  792POPC   C3B13233  12.797   1.447   7.964
  792POPC   C4B13234  12.740   1.451   7.664
  793POPC   NC313235  41.544   3.494   9.464
  793POPC   PO413236  41.527   3.575   9.164
  793POPC   GL113237  41.598   3.557   8.864
  793POPC   GL213238  41.416   3.593   8.864
  793POPC   C1A13239  41.586   3.504   8.564
  793POPC   D2A13240  41.524   3.561   8.264
  793POPC   C3A13241  41.544   3.505   7.964
  793POPC   C4A13242  41.595   3.539   7.664
  793POPC   C1B13243  41.342   3.612   8.564
  793POPC   C2B13244  41.284   3.660   8.264
  793POPC   C3B13245  41.353   3.679   7.964
  793POPC   C4B13246  41.365   3.675   7.664
  794POPC   NC313247  27.576   7.449   9.464
  794POPC   PO413248  27.630   7.466   9.164
  794POPC   GL113249  27.564   7.417   8.864
  794POPC   GL213250  27.615   7.276   8.864
  794POPC   C1A13251  27.602   7.440   8.564
  794POPC   D2A13252  27.544   7.416   8.264
  794POPC   C3A13253  27.564   7.421   7.964
  794POPC   C4A13254  27.600   7.380   7.664
  794POPC   C1B13255  27.705   7.183   8.564
  794POPC   C2B13256  27.693   7.235   8.264
  794POPC   C3B13257  27.662   7.155   7.964
  794POPC   C4B13258  27.691   7.235   7.664
  795POPC   NC313259  22.207  33.811   9.464
  795POPC   PO413260  22.194  33.811   9.164
  795POPC   GL113261  22.185  33.820   8.864
  795POPC   GL213262  22.101  33.723   8.864
  795POPC   C1A13263  22.158  33.811   8.564
  795POPC   D2A13264  22.180  33.805   8.264
  795POPC   C3A13265  22.146  33.775   7.964
  795POPC   C4A13266  22.142  33.832   7.664
  795POPC   C1B13267  21.985  33.631   8.564
  795POPC   C2B13268  22.032  33.561   8.264
  795POPC   C3B13269  22.016  33.623   7.964
  795POPC   C4B13270  22.011  33.565   7.664
  796POPC   NC313271  19.031  25.234   9.464
  796POPC   PO413272  19.026  25.305   9.164
  796POPC   GL113273  19.107  25.303   8.864
  796POPC   GL213274  18.978  25.270   8.864
  796POPC   C1A13275  19.081  25.315   8.564
  796POPC   D2A13276  19.063  25.303   8.264
  796POPC   C3A13277  19.068  25.243   7.964
  796POPC   C4A13278  19.107  25.270   7.664
  796POPC   C1B13279  18.853  25.220   8.564
  796POPC   C2B13280  18.831  25.218   8.264
  796POPC   C3B13281  18.789  25.224   7.964
  796POPC   C4B13282  18.799  25.257   7.664
  797POPC   NC313283   8.965  27.560   9.464
  797POPC   PO413284   8.987  27.551   9.164
  797POPC   GL113285   9.002  27.637   8.864
  797POPC   GL213286   9.082  27.600   8.864
  797POPC   C1A13287   8.978  27.571   8.564
  797POPC   D2A13288   8.977  27.600   8.264
  797POPC   C3A13289   8.933  27.629   7.964
  797POPC   C4A13290   8.941  27.568   7.664
  797POPC   C1B13291   9.214  27.539   8.564
  797POPC   C2B13292   9.252  27.613   8.264
  797POPC   C3B13293   9.223  27.531   7.964
  797POPC   C4B13294   9.260  27.592   7.664
  798POPC   NC313295  17.539  36.867   9.464
  798POPC   PO413296  17.511  36.890   9.164
  798POPC   GL113297  17.466  36.894   8.864
  798POPC   GL213298  17.670  36.909   8.864
  798POPC   C1A13299  17.474  36.946   8.564
  798POPC   D2A13300  17.464  36.863   8.264
  798POPC   C3A13301  17.485  36.920   7.964
  798POPC   C4A13302  17.486  36.864   7.664
  798POPC   C1B13303  17.753  37.002   8.564
  798POPC   C2B13304  17.788  37.012   8.264
  798POPC   C3B13305  17.763  36.979   7.964
  798POPC   C4B13306  17.702  37.007   7.664
  799POPC   NC313307  40.754  22.976   9.464
  799POPC   PO413308  40.799  22.898   9.164
  799POPC   GL113309  40.740  22.960   8.864
  799POPC   GL213310  40.762  23.073   8.864
  799POPC   C1A13311  40.774  22.940   8.564
  799POPC   D2A13312  40.741  22.985   8.264
  799POPC   C3A13313  40.778  22.920   7.964
  799POPC   C4A13314  40.799  22.924   7.664
  799POPC   C1B13315  40.820  23.174   8.564
  799POPC   C2B13316  40.826  23.144   8.264
  799POPC   C3B13317  40.840  23.157   7.964
  799POPC   C4B13318  40.777  23.187   7.664
  800POPC   NC313319  23.722  36.930   9.464
  800POPC   PO413320  23.704  36.934   9.164
  800POPC   GL113321  23.676  36.916   8.864
  800POPC   GL213322  23.755  36.735   8.864
  800POPC   C1A13323  23.673  36.906   8.564
  800POPC   D2A13324  23.690  36.911   8.264
  800POPC   C3A13325  23.687  36.926   7.964
  800POPC   C4A13326  23.700  36.910   7.664
  800POPC   C1B13327  23.677  36.623   8.564
  800POPC   C2B13328  23.666  36.609   8.264
  800POPC   C3B13329  23.664  36.687   7.964
  800POPC   C4B13330  23.715  36.701   7.664
  801POPC   NC313331  33.803   8.931   9.464
  801POPC   PO413332  33.828   9.004   9.164
  801POPC   GL113333  33.800   8.935   8.864
  801POPC   GL213334  33.713   8.894   8.864
  801POPC   C1A13335  33.787   9.016   8.564
  801POPC   D2A13336  33.842   8.951   8.264
  801POPC   C3A13337  33.783   8.996   7.964
  801POPC   C4A13338  33.751   8.982   7.664
  801POPC   C1B13339  33.542   8.898   8.564
  801POPC   C2B13340  33.551   8.889   8.264
  801POPC   C3B13341  33.548   8.906   7.964
  801POPC   C4B13342  33.540   8.943   7.664
  802POPC   NC313343  40.773  13.667   9.464
  802POPC   PO413344  40.821  13.593   9.164
  802POPC   GL113345  40.812  13.629   8.864
  802POPC   GL213346  40.845  13.756   8.864
  802POPC   C1A13347  40.829  13.625   8.564
  802POPC   D2A13348  40.782  13.584   8.264
  802POPC   C3A13349  40.743  13.676   7.964
  802POPC   C4A13350  40.817  13.657   7.664
  802POPC   C1B13351  40.812  13.850   8.564
  802POPC   C2B13352  40.872  13.903   8.264
  802POPC   C3B13353  40.889  13.881   7.964
  802POPC   C4B13354  40.849  13.837   7.664
  803POPC   NC313355  38.433   9.731   9.464
  803POPC   PO413356  38.409   9.701   9.164
  803POPC   GL113357  38.486   9.781   8.864
  803POPC   GL213358  38.434   9.882   8.864
  803POPC   C1A13359  38.485   9.722   8.564
  803POPC   D2A13360  38.442   9.730   8.264
  803POPC   C3A13361  38.440   9.714   7.964
  803POPC   C4A13362  38.493   9.795   7.664
  803POPC   C1B13363  38.418   9.997   8.564
  803POPC   C2B13364  38.478   9.990   8.264
  803POPC   C3B13365  38.480   9.993   7.964
  803POPC   C4B13366  38.480   9.996   7.664
  804POPC   NC313367  11.292  11.295   9.464
  804POPC   PO413368  11.301  11.344   9.164
  804POPC   GL113369  11.293  11.292   8.864
  804POPC   GL213370  11.130  11.304   8.864
  804POPC   C1A13371  11.289  11.304   8.564
  804POPC   D2A13372  11.322  11.273   8.264
  804POPC   C3A13373  11.326  11.288   7.964
  804POPC   C4A13374  11.304  11.341   7.664
  804POPC   C1B13375  11.026  11.319   8.564
  804POPC   C2B13376  11.005  11.254   8.264
  804POPC   C3B13377  11.050  11.259   7.964
  804POPC   C4B13378  11.047  11.265   7.664
  805POPC   NC313379  12.034  42.364   9.464
  805POPC   PO413380  12.096  42.379   9.164
  805POPC   GL113381  12.055  42.317   8.864
  805POPC   GL213382  12.121  42.236   8.864
  805POPC   C1A13383  12.032  42.312   8.564
  805POPC   D2A13384  12.052  42.341   8.264
  805POPC   C3A13385  12.033  42.301   7.964
  805POPC   C4A13386  12.037  42.381   7.664
  805POPC   C1B13387  12.176  42.080   8.564
  805POPC   C2B13388  12.195  42.133   8.264
  805POPC   C3B13389  12.211  42.081   7.964
  805POPC   C4B13390  12.159  42.113   7.664
  806POPC   NC313391  12.066   6.689   9.464
  806POPC   PO413392  12.066   6.684   9.164
  806POPC   GL113393  12.122   6.619   8.864
  806POPC   GL213394  12.001   6.536   8.864
  806POPC   C1A13395  12.071   6.627   8.564
  806POPC   D2A13396  12.119   6.599   8.264
  806POPC   C3A13397  12.052   6.685   7.964
  806POPC   C4A13398  12.109   6.599   7.664
  806POPC   C1B13399  11.931   6.491   8.564
  806POPC   C2B13400  11.934   6.410   8.264
  806POPC   C3B13401  11.963   6.490   7.964
  806POPC   C4B13402  11.893   6.454   7.664
  807POPC   NC313403  14.402  13.600   9.464
  807POPC   PO413404  14.445  13.591   9.164
  807POPC   GL113405  14.355  13.601   8.864
  807POPC   GL213406  14.466  13.695   8.864
  807POPC   C1A13407  14.367  13.621   8.564
  807POPC   D2A13408  14.377  13.625   8.264
  807POPC   C3A13409  14.425  13.642   7.964
  807POPC   C4A13410  14.380  13.619   7.664
  807POPC   C1B13411  14.482  13.824   8.564
  807POPC   C2B13412  14.514  13.822   8.264
  807POPC   C3B13413  14.506  13.800   7.964
  807POPC   C4B13414  14.574  13.889   7.664
  808POPC   NC313415   7.457  29.917   9.464
  808POPC   PO413416   7.428  29.923   9.164
  808POPC   GL113417   7.463  29.911   8.864
  808POPC   GL213418   7.308  29.903   8.864
  808POPC   C1A13419   7.435  29.888   8.564
  808POPC   D2A13420   7.397  29.871   8.264
  808POPC   C3A13421   7.457  29.961   7.964
  808POPC   C4A13422   7.409  29.898   7.664
  808POPC   C1B13423   7.148  29.887   8.564
  808POPC   C2B13424   7.199  29.941   8.264
  808POPC   C3B13425   7.194  29.865   7.964
  808POPC   C4B13426   7.208  29.932   7.664
  809POPC   NC313427  13.607   9.776   9.464
  809POPC   PO413428  13.600   9.793   9.164
  809POPC   GL113429  13.590   9.707   8.864
  809POPC   GL213430  13.713   9.774   8.864
  809POPC   C1A13431  13.659   9.739   8.564
  809POPC   D2A13432  13.617   9.737   8.264
  809POPC   C3A13433  13.588   9.733   7.964
  809POPC   C4A13434  13.606   9.716   7.664
  809POPC   C1B13435  13.896   9.881   8.564
  809POPC   C2B13436  13.836   9.825   8.264
  809POPC   C3B13437  13.889   9.849   7.964
  809POPC   C4B13438  13.902   9.853   7.664
  810POPC   NC313439  16.703  36.890   9.464
  810POPC   PO413440  16.724  36.875   9.164
  810POPC   GL113441  16.707  36.914   8.864
  810POPC   GL213442  16.660  36.951   8.864
  810POPC   C1A13443  16.737  36.883   8.564
  810POPC   D2A13444  16.777  36.946   8.264
  810POPC   C3A13445  16.723  36.951   7.964
  810POPC   C4A13446  16.746  36.923   7.664
  810POPC   C1B13447  16.451  36.954   8.564
  810POPC   C2B13448  16.484  36.970   8.264
  810POPC   C3B13449  16.462  37.021   7.964
  810POPC   C4B13450  16.535  36.964   7.664
  811POPC   NC313451  23.759   9.755   9.464
  811POPC   PO413452  23.712   9.702   9.164
  811POPC   GL113453  23.737   9.724   8.864
  811POPC   GL213454  23.793   9.681   8.864
  811POPC   C1A13455  23.697   9.737   8.564
  811POPC   D2A13456  23.694   9.758   8.264
  811POPC   C3A13457  23.694   9.763   7.964
  811POPC   C4A13458  23.726   9.788   7.664
  811POPC   C1B13459  23.956   9.699   8.564
  811POPC   C2B13460  23.995   9.648   8.264
  811POPC   C3B13461  23.980   9.704   7.964
  811POPC   C4B13462  23.980   9.697   7.664
  812POPC   NC313463   5.057   8.246   9.464
  812POPC   PO413464   5.096   8.226   9.164
  812POPC   GL113465   5.083   8.240   8.864
  812POPC   GL213466   4.994   8.124   8.864
  812POPC   C1A13467   5.102   8.148   8.564
  812POPC   D2A13468   5.070   8.153   8.264
  812POPC   C3A13469   5.064   8.193   7.964
  812POPC   C4A13470   5.130   8.244   7.664
  812POPC   C1B13471   4.876   8.096   8.564
  812POPC   C2B13472   4.810   8.104   8.264
  812POPC   C3B13473   4.874   8.172   7.964
  812POPC   C4B13474   4.820   8.135   7.664
  813POPC   NC313475   5.143   4.361   9.464
  813POPC   PO413476   5.103   4.279   9.164
  813POPC   GL113477   5.070   4.311   8.864
  813POPC   GL213478   4.949   4.285   8.864
  813POPC   C1A13479   5.065   4.363   8.564
  813POPC   D2A13480   5.132   4.331   8.264
  813POPC   C3A13481   5.067   4.357   7.964
  813POPC   C4A13482   5.079   4.281   7.664
  813POPC   C1B13483   4.797   4.371   8.564
  813POPC   C2B13484   4.886   4.324   8.264
  813POPC   C3B13485   4.806   4.287   7.964
  813POPC   C4B13486   4.823   4.359   7.664
  814POPC   NC313487  16.740  15.229   9.464
  814POPC   PO413488  16.775  15.152   9.164
  814POPC   GL113489  16.714  15.145   8.864
  814POPC   GL213490  16.805  15.182   8.864
  814POPC   C1A13491  16.702  15.205   8.564
  814POPC   D2A13492  16.765  15.171   8.264
  814POPC   C3A13493  16.702  15.177   7.964
  814POPC   C4A13494  16.683  15.142   7.664
  814POPC   C1B13495  16.984  15.282   8.564
  814POPC   C2B13496  16.979  15.306   8.264
  814POPC   C3B13497  16.975  15.316   7.964
  814POPC   C4B13498  16.915  15.236   7.664
  815POPC   NC313499   6.596   8.161   9.464
  815POPC   PO413500   6.659   8.199   9.164
  815POPC   GL113501   6.667   8.191   8.864
  815POPC   GL213502   6.480   8.170   8.864
  815POPC   C1A13503   6.626   8.213   8.564
  815POPC   D2A13504   6.596   8.237   8.264
  815POPC   C3A13505   6.678   8.174   7.964
  815POPC   C4A13506   6.647   8.187   7.664
  815POPC   C1B13507   6.449   8.140   8.564
  815POPC   C2B13508   6.380   8.121   8.264
  815POPC   C3B13509   6.408   8.112   7.964
  815POPC   C4B13510   6.427   8.105   7.664
  816POPC   NC313511   2.747  31.454   9.464
  816POPC   PO413512   2.758  31.482   9.164
  816POPC   GL113513   2.775  31.505   8.864
  816POPC   GL213514   2.704  31.382   8.864
  816POPC   C1A13515   2.743  31.471   8.564
  816POPC   D2A13516   2.743  31.499   8.264
  816POPC   C3A13517   2.811  31.477   7.964
  816POPC   C4A13518   2.729  31.520   7.664
  816POPC   C1B13519   2.749  31.199   8.564
  816POPC   C2B13520   2.691  31.236   8.264
  816POPC   C3B13521   2.673  31.230   7.964
  816POPC   C4B13522   2.678  31.240   7.664
  817POPC   NC313523  20.610  24.476   9.464
  817POPC   PO413524  20.627  24.456   9.164
  817POPC   GL113525  20.639  24.534   8.864
  817POPC   GL213526  20.559  24.393   8.864
  817POPC   C1A13527  20.581  24.450   8.564
  817POPC   D2A13528  20.636  24.511   8.264
  817POPC   C3A13529  20.600  24.530   7.964
  817POPC   C4A13530  20.584  24.533   7.664
  817POPC   C1B13531  20.574  24.242   8.564
  817POPC   C2B13532  20.498  24.238   8.264
  817POPC   C3B13533  20.502  24.218   7.964
  817POPC   C4B13534  20.545  24.291   7.664
  818POPC   NC313535  31.510   5.861   9.464
  818POPC   PO413536  31.487   5.853   9.164
  818POPC   GL113537  31.513   5.890   8.864
  818POPC   GL213538  31.299   5.900   8.864
  818POPC   C1A13539  31.441   5.899   8.564
  818POPC   D2A13540  31.470   5.884   8.264
  818POPC   C3A13541  31.465   5.868   7.964
  818POPC   C4A13542  31.451   5.888   7.664
  818POPC   C1B13543  31.202   5.850   8.564
  818POPC   C2B13544  31.213   5.915   8.264
  818POPC   C3B13545  31.229   5.828   7.964
  818POPC   C4B13546  31.179   5.826   7.664
  819POPC   NC313547   4.343  14.413   9.464
  819POPC   PO413548   4.324  14.448   9.164
  819POPC   GL113549   4.327  14.428   8.864
  819POPC   GL213550   4.402  14.274   8.864
  819POPC   C1A13551   4.286  14.416   8.564
  819POPC   D2A13552   4.337  14.452   8.264
  819POPC   C3A13553   4.320  14.396   7.964
  819POPC   C4A13554   4.283  14.405   7.664
  819POPC   C1B13555   4.478  14.223   8.564
  819POPC   C2B13556   4.428  14.214   8.264
  819POPC   C3B13557   4.426  14.156   7.964
  819POPC   C4B13558   4.397  14.202   7.664
  820POPC   NC313559   6.644  40.819   9.464
  820POPC   PO413560   6.610  40.791   9.164
  820POPC   GL113561   6.657  40.825   8.864
  820POPC   GL213562   6.663  40.642   8.864
  820POPC   C1A13563   6.693  40.811   8.564
  820POPC   D2A13564   6.608  40.776   8.264
  820POPC   C3A13565   6.694  40.757   7.964
  820POPC   C4A13566   6.605  40.773   7.664
  820POPC   C1B13567   6.576  40.513   8.564
  820POPC   C2B13568   6.626  40.532   8.264
  820POPC   C3B13569   6.581  40.518   7.964
  820POPC   C4B13570   6.618  40.519   7.664
  821POPC   NC313571  11.267   5.072   9.464
  821POPC   PO413572  11.253   5.061   9.164
  821POPC   GL113573  11.346   5.073   8.864
  821POPC   GL213574  11.252   5.193   8.864
  821POPC   C1A13575  11.283   5.110   8.564
  821POPC   D2A13576  11.341   5.133   8.264
  821POPC   C3A13577  11.349   5.090   7.964
  821POPC   C4A13578  11.288   5.077   7.664
  821POPC   C1B13579  11.105   5.343   8.564
  821POPC   C2B13580  11.165   5.282   8.264
  821POPC   C3B13581  11.136   5.331   7.964
  821POPC   C4B13582  11.122   5.264   7.664
  822POPC   NC313583  42.351   7.375   9.464
  822POPC   PO413584  42.288   7.435   9.164
  822POPC   GL113585  42.372   7.460   8.864
  822POPC   GL213586  42.282   7.542   8.864
  822POPC   C1A13587  42.359   7.382   8.564
  822POPC   D2A13588  42.311   7.453   8.264
  822POPC   C3A13589  42.330   7.405   7.964
  822POPC   C4A13590  42.364   7.434   7.664
  822POPC   C1B13591  42.228   7.615   8.564
  822POPC   C2B13592  42.235   7.655   8.264
  822POPC   C3B13593  42.254   7.628   7.964
  822POPC   C4B13594  42.204   7.678   7.664
  823POPC   NC313595  33.842  18.241   9.464
  823POPC   PO413596  33.769  18.300   9.164
  823POPC   GL113597  33.819  18.270   8.864
  823POPC   GL213598  33.923  18.181   8.864
  823POPC   C1A13599  33.833  18.284   8.564
  823POPC   D2A13600  33.777  18.302   8.264
  823POPC   C3A13601  33.820  18.267   7.964
  823POPC   C4A13602  33.819  18.261   7.664
  823POPC   C1B13603  33.941  18.112   8.564
  823POPC   C2B13604  33.960  18.098   8.264
  823POPC   C3B13605  33.944  18.103   7.964
  823POPC   C4B13606  34.027  18.104   7.664
  824POPC   NC313607   5.096  19.071   9.464
  824POPC   PO413608   5.046  19.034   9.164
  824POPC   GL113609   5.114  19.034   8.864
  824POPC   GL213610   4.964  19.066   8.864
  824POPC   C1A13611   5.118  19.077   8.564
  824POPC   D2A13612   5.054  19.032   8.264
  824POPC   C3A13613   5.091  19.066   7.964
  824POPC   C4A13614   5.093  19.025   7.664
  824POPC   C1B13615   4.833  19.086   8.564
  824POPC   C2B13616   4.819  19.155   8.264
  824POPC   C3B13617   4.889  19.164   7.964
  824POPC   C4B13618   4.838  19.106   7.664
  825POPC   NC313619  19.799  42.323   9.464
  825POPC   PO413620  19.844  42.325   9.164
  825POPC   GL113621  19.788  42.381   8.864
  825POPC   GL213622  19.692  42.303   8.864
  825POPC   C1A13623  19.785  42.349   8.564
  825POPC   D2A13624  19.865  42.358   8.264
  825POPC   C3A13625  19.800  42.295   7.964
  825POPC   C4A13626  19.847  42.356   7.664
  825POPC   C1B13627  19.599  42.371   8.564
  825POPC   C2B13628  19.543  42.340   8.264
  825POPC   C3B13629  19.542  42.357   7.964
  825POPC   C4B13630  19.550  42.371   7.664
  826POPC   NC313631   7.377  37.711   9.464
  826POPC   PO413632   7.397  37.632   9.164
  826POPC   GL113633   7.422  37.639   8.864
  826POPC   GL213634   7.432  37.762   8.864
  826POPC   C1A13635   7.389  37.707   8.564
  826POPC   D2A13636   7.401  37.680   8.264
  826POPC   C3A13637   7.434  37.632   7.964
  826POPC   C4A13638   7.404  37.668   7.664
  826POPC   C1B13639   7.430  37.909   8.564
  826POPC   C2B13640   7.437  37.960   8.264
  826POPC   C3B13641   7.435  37.960   7.964
  826POPC   C4B13642   7.350  37.932   7.664
  827POPC   NC313643  22.979  32.237   9.464
  827POPC   PO413644  22.949  32.295   9.164
  827POPC   GL113645  22.922  32.241   8.864
  827POPC   GL213646  22.825  32.324   8.864
  827POPC   C1A13647  22.965  32.217   8.564
  827POPC   D2A13648  22.965  32.281   8.264
  827POPC   C3A13649  22.968  32.292   7.964
  827POPC   C4A13650  22.928  32.266   7.664
  827POPC   C1B13651  22.684  32.417   8.564
  827POPC   C2B13652  22.743  32.396   8.264
  827POPC   C3B13653  22.773  32.388   7.964
  827POPC   C4B13654  22.719  32.394   7.664
  828POPC   NC313655  29.957  26.010   9.464
  828POPC   PO413656  29.959  26.062   9.164
  828POPC   GL113657  29.941  26.068   8.864
  828POPC   GL213658  29.879  26.114   8.864
  828POPC   C1A13659  29.965  26.082   8.564
  828POPC   D2A13660  29.964  26.034   8.264
  828POPC   C3A13661  29.935  26.042   7.964
  828POPC   C4A13662  29.904  26.080   7.664
  828POPC   C1B13663  29.803  26.278   8.564
  828POPC   C2B13664  29.786  26.217   8.264
  828POPC   C3B13665  29.752  26.245   7.964
  828POPC   C4B13666  29.809  26.234   7.664
  829POPC   NC313667   0.479  29.176   9.464
  829POPC   PO413668   0.473  29.140   9.164
  829POPC   GL113669   0.402  29.119   8.864
  829POPC   GL213670   0.547  29.157   8.864
  829POPC   C1A13671   0.436  29.166   8.564
  829POPC   D2A13672   0.480  29.117   8.264
  829POPC   C3A13673   0.397  29.139   7.964
  829POPC   C4A13674   0.422  29.121   7.664
  829POPC   C1B13675   0.675  29.037   8.564
  829POPC   C2B13676   0.706  29.123   8.264
  829POPC   C3B13677   0.685  29.075   7.964
  829POPC   C4B13678   0.633  29.067   7.664
  830POPC   NC313679  26.793  16.004   9.464
  830POPC   PO413680  26.835  15.907   9.164
  830POPC   GL113681  26.804  15.928   8.864
  830POPC   GL213682  26.716  15.959   8.864
  830POPC   C1A13683  26.854  15.976   8.564
  830POPC   D2A13684  26.817  15.975   8.264
  830POPC   C3A13685  26.804  15.971   7.964
  830POPC   C4A13686  26.821  16.003   7.664
  830POPC   C1B13687  26.537  15.961   8.564
  830POPC   C2B13688  26.589  16.043   8.264
  830POPC   C3B13689  26.533  16.041   7.964
  830POPC   C4B13690  26.617  15.967   7.664
  831POPC   NC313691   4.358   5.106   9.464
  831POPC   PO413692   4.278   5.104   9.164
  831POPC   GL113693   4.319   5.124   8.864
  831POPC   GL213694   4.351   4.948   8.864
  831POPC   C1A13695   4.344   5.133   8.564
  831POPC   D2A13696   4.313   5.076   8.264
  831POPC   C3A13697   4.313   5.046   7.964
  831POPC   C4A13698   4.318   5.065   7.664
  831POPC   C1B13699   4.346   4.863   8.564
  831POPC   C2B13700   4.417   4.805   8.264
  831POPC   C3B13701   4.400   4.810   7.964
  831POPC   C4B13702   4.351   4.845   7.664
  832POPC   NC313703   1.993  26.809   9.464
  832POPC   PO413704   2.037  26.839   9.164
  832POPC   GL113705   2.005  26.863   8.864
  832POPC   GL213706   2.000  26.901   8.864
  832POPC   C1A13707   1.944  26.827   8.564
  832POPC   D2A13708   1.973  26.788   8.264
  832POPC   C3A13709   2.007  26.849   7.964
  832POPC   C4A13710   2.022  26.782   7.664
  832POPC   C1B13711   2.041  27.101   8.564
  832POPC   C2B13712   2.006  27.107   8.264
  832POPC   C3B13713   1.998  27.101   7.964
  832POPC   C4B13714   2.013  27.055   7.664
  833POPC   NC313715   5.876   1.223   9.464
  833POPC   PO413716   5.853   1.166   9.164
  833POPC   GL113717   5.882   1.225   8.864
  833POPC   GL213718   5.746   1.248   8.864
  833POPC   C1A13719   5.844   1.263   8.564
  833POPC   D2A13720   5.887   1.217   8.264
  833POPC   C3A13721   5.830   1.176   7.964
  833POPC   C4A13722   5.885   1.175   7.664
  833POPC   C1B13723   5.583   1.239   8.564
  833POPC   C2B13724   5.589   1.168   8.264
  833POPC   C3B13725   5.632   1.163   7.964
  833POPC   C4B13726   5.611   1.232   7.664
  834POPC   NC313727  28.404  11.287   9.464
  834POPC   PO413728  28.383  11.268   9.164
  834POPC   GL113729  28.325  11.277   8.864
  834POPC   GL213730  28.478  11.274   8.864
  834POPC   C1A13731  28.348  11.349   8.564
  834POPC   D2A13732  28.334  11.260   8.264
  834POPC   C3A13733  28.338  11.258   7.964
  834POPC   C4A13734  28.351  11.295   7.664
  834POPC   C1B13735  28.613  11.184   8.564
  834POPC   C2B13736  28.575  11.193   8.264
  834POPC   C3B13737  28.625  11.239   7.964
  834POPC   C4B13738  28.626  11.164   7.664
  835POPC   NC313739  36.089  17.508   9.464
  835POPC   PO413740  36.148  17.524   9.164
  835POPC   GL113741  36.115  17.539   8.864
  835POPC   GL213742  36.159  17.428   8.864
  835POPC   C1A13743  36.092  17.515   8.564
  835POPC   D2A13744  36.115  17.480   8.264
  835POPC   C3A13745  36.160  17.476   7.964
  835POPC   C4A13746  36.136  17.552   7.664
  835POPC   C1B13747  36.188  17.311   8.564
  835POPC   C2B13748  36.198  17.270   8.264
  835POPC   C3B13749  36.224  17.328   7.964
  835POPC   C4B13750  36.235  17.273   7.664
  836POPC   NC313751   9.735  39.205   9.464
  836POPC   PO413752   9.742  39.214   9.164
  836POPC   GL113753   9.736  39.215   8.864
  836POPC   GL213754   9.828  39.209   8.864
  836POPC   C1A13755   9.745  39.219   8.564
  836POPC   D2A13756   9.712  39.207   8.264
  836POPC   C3A13757   9.776  39.246   7.964
  836POPC   C4A13758   9.793  39.278   7.664
  836POPC   C1B13759   9.991  39.137   8.564
  836POPC   C2B13760   9.983  39.102   8.264
  836POPC   C3B13761   9.953  39.114   7.964
  836POPC   C4B13762   9.979  39.113   7.664
  837POPC   NC313763  30.706  15.229   9.464
  837POPC   PO413764  30.651  15.166   9.164
  837POPC   GL113765  30.668  15.156   8.864
  837POPC   GL213766  30.642  15.306   8.864
  837POPC   C1A13767  30.729  15.163   8.564
  837POPC   D2A13768  30.721  15.223   8.264
  837POPC   C3A13769  30.679  15.228   7.964
  837POPC   C4A13770  30.689  15.158   7.664
  837POPC   C1B13771  30.573  15.396   8.564
  837POPC   C2B13772  30.563  15.415   8.264
  837POPC   C3B13773  30.571  15.423   7.964
  837POPC   C4B13774  30.629  15.394   7.664
  838POPC   NC313775  33.824  19.796   9.464
  838POPC   PO413776  33.810  19.822   9.164
  838POPC   GL113777  33.832  19.850   8.864
  838POPC   GL213778  33.829  19.967   8.864
  838POPC   C1A13779  33.789  19.793   8.564
  838POPC   D2A13780  33.808  19.849   8.264
  838POPC   C3A13781  33.767  19.821   7.964
  838POPC   C4A13782  33.785  19.864   7.664
  838POPC   C1B13783  33.979  20.089   8.564
  838POPC   C2B13784  33.965  20.088   8.264
  838POPC   C3B13785  33.923  20.068   7.964
  838POPC   C4B13786  33.881  20.062   7.664
  839POPC   NC313787   7.405  40.010   9.464
  839POPC   PO413788   7.431  39.991   9.164
  839POPC   GL113789   7.417  40.008   8.864
  839POPC   GL213790   7.312  40.033   8.864
  839POPC   C1A13791   7.405  40.017   8.564
  839POPC   D2A13792   7.424  39.991   8.264
  839POPC   C3A13793   7.432  40.048   7.964
  839POPC   C4A13794   7.457  39.995   7.664
  839POPC   C1B13795   7.198  40.171   8.564
  839POPC   C2B13796   7.208  40.141   8.264
  839POPC   C3B13797   7.199  40.181   7.964
  839POPC   C4B13798   7.165  40.185   7.664
  840POPC   NC313799   0.455   2.757   9.464
  840POPC   PO413800   0.395   2.747   9.164
  840POPC   GL113801   0.419   2.782   8.864
  840POPC   GL213802   0.348   2.818   8.864
  840POPC   C1A13803   0.461   2.752   8.564
  840POPC   D2A13804   0.416   2.790   8.264
  840POPC   C3A13805   0.475   2.717   7.964
  840POPC   C4A13806   0.408   2.791   7.664
  840POPC   C1B13807   0.190   2.824   8.564
  840POPC   C2B13808   0.238   2.846   8.264
  840POPC   C3B13809   0.212   2.887   7.964
  840POPC   C4B13810   0.225   2.838   7.664
  841POPC   NC313811  43.866  39.991   9.464
  841POPC   PO413812  43.916  40.038   9.164
  841POPC   GL113813  43.855  39.981   8.864
  841POPC   GL213814  43.899  39.942   8.864
  841POPC   C1A13815  43.911  40.027   8.564
  841POPC   D2A13816  43.881  40.037   8.264
  841POPC   C3A13817  43.863  40.027   7.964
  841POPC   C4A13818  43.863  39.998   7.664
  841POPC   C1B13819  44.038  39.807   8.564
  841POPC   C2B13820  44.003  39.816   8.264
  841POPC   C3B13821  44.020  39.833   7.964
  841POPC   C4B13822  43.993  39.803   7.664
  842POPC   NC313823  26.053  14.398   9.464
  842POPC   PO413824  26.036  14.357   9.164
  842POPC   GL113825  26.009  14.380   8.864
  842POPC   GL213826  26.020  14.251   8.864
  842POPC   C1A13827  26.089  14.380   8.564
  842POPC   D2A13828  26.058  14.365   8.264
  842POPC   C3A13829  26.029  14.407   7.964
  842POPC   C4A13830  26.000  14.392   7.664
  842POPC   C1B13831  25.968  14.161   8.564
  842POPC   C2B13832  26.009  14.111   8.264
  842POPC   C3B13833  25.996  14.128   7.964
  842POPC   C4B13834  26.039  14.107   7.664
  843POPC   NC313835  40.778  25.267   9.464
  843POPC   PO413836  40.821  25.315   9.164
  843POPC   GL113837  40.744  25.223   8.864
  843POPC   GL213838  40.857  25.265   8.864
  843POPC   C1A13839  40.797  25.299   8.564
  843POPC   D2A13840  40.777  25.304   8.264
  843POPC   C3A13841  40.763  25.308   7.964
  843POPC   C4A13842  40.765  25.262   7.664
  843POPC   C1B13843  41.069  25.170   8.564
  843POPC   C2B13844  41.042  25.251   8.264
  843POPC   C3B13845  41.017  25.215   7.964
  843POPC   C4B13846  40.983  25.206   7.664
  844POPC   NC313847  28.380  40.779   9.464
  844POPC   PO413848  28.409  40.782   9.164
  844POPC   GL113849  28.399  40.746   8.864
  844POPC   GL213850  28.422  40.881   8.864
  844POPC   C1A13851  28.405  40.776   8.564
  844POPC   D2A13852  28.319  40.750   8.264
  844POPC   C3A13853  28.333  40.735   7.964
  844POPC   C4A13854  28.321  40.782   7.664
  844POPC   C1B13855  28.472  41.040   8.564
  844POPC   C2B13856  28.398  41.063   8.264
  844POPC   C3B13857  28.396  41.047   7.964
  844POPC   C4B13858  28.402  41.034   7.664
  845POPC   NC313859  16.704  14.424   9.464
  845POPC   PO413860  16.747  14.355   9.164
  845POPC   GL113861  16.726  14.379   8.864
  845POPC   GL213862  16.874  14.329   8.864
  845POPC   C1A13863  16.774  14.381   8.564
  845POPC   D2A13864  16.766  14.389   8.264
  845POPC   C3A13865  16.689  14.441   7.964
  845POPC   C4A13866  16.739  14.362   7.664
  845POPC   C1B13867  16.931  14.276   8.564
  845POPC   C2B13868  16.920  14.302   8.264
  845POPC   C3B13869  16.946  14.354   7.964
  845POPC   C4B13870  16.973  14.345   7.664
  846POPC   NC313871  26.780  36.901   9.464
  846POPC   PO413872  26.862  36.938   9.164
  846POPC   GL113873  26.823  36.868   8.864
  846POPC   GL213874  26.885  36.999   8.864
  846POPC   C1A13875  26.843  36.856   8.564
  846POPC   D2A13876  26.782  36.924   8.264
  846POPC   C3A13877  26.827  36.864   7.964
  846POPC   C4A13878  26.834  36.937   7.664
  846POPC   C1B13879  27.057  37.028   8.564
  846POPC   C2B13880  27.042  37.002   8.264
  846POPC   C3B13881  27.033  37.033   7.964
  846POPC   C4B13882  27.044  37.006   7.664
  847POPC   NC313883  36.879  37.696   9.464
  847POPC   PO413884  36.888  37.631   9.164
  847POPC   GL113885  36.874  37.647   8.864
  847POPC   GL213886  36.999  37.715   8.864
  847POPC   C1A13887  36.891  37.652   8.564
  847POPC   D2A13888  36.949  37.653   8.264
  847POPC   C3A13889  36.891  37.712   7.964
  847POPC   C4A13890  36.897  37.654   7.664
  847POPC   C1B13891  37.108  37.786   8.564
  847POPC   C2B13892  37.095  37.765   8.264
  847POPC   C3B13893  37.090  37.818   7.964
  847POPC   C4B13894  37.122  37.773   7.664
  848POPC   NC313895  42.314  26.831   9.464
  848POPC   PO413896  42.353  26.794   9.164
  848POPC   GL113897  42.285  26.811   8.864
  848POPC   GL213898  42.232  26.719   8.864
  848POPC   C1A13899  42.295  26.781   8.564
  848POPC   D2A13900  42.309  26.777   8.264
  848POPC   C3A13901  42.302  26.786   7.964
  848POPC   C4A13902  42.380  26.768   7.664
  848POPC   C1B13903  42.153  26.669   8.564
  848POPC   C2B13904  42.156  26.620   8.264
  848POPC   C3B13905  42.136  26.643   7.964
  848POPC   C4B13906  42.139  26.621   7.664
  849POPC   NC313907   9.720  15.987   9.464
  849POPC   PO413908   9.714  15.973   9.164
  849POPC   GL113909   9.745  15.984   8.864
  849POPC   GL213910   9.812  16.118   8.864
  849POPC   C1A13911   9.734  15.964   8.564
  849POPC   D2A13912   9.707  15.928   8.264
  849POPC   C3A13913   9.782  15.975   7.964
  849POPC   C4A13914   9.736  15.916   7.664
  849POPC   C1B13915   9.791  16.214   8.564
  849POPC   C2B13916   9.739  16.224   8.264
  849POPC   C3B13917   9.754  16.182   7.964
  849POPC   C4B13918   9.831  16.203   7.664
  850POPC   NC313919  31.436   5.055   9.464
  850POPC   PO413920  31.452   5.135   9.164
  850POPC   GL113921  31.442   5.142   8.864
  850POPC   GL213922  31.401   5.204   8.864
  850POPC   C1A13923  31.429   5.081   8.564
  850POPC   D2A13924  31.444   5.133   8.264
  850POPC   C3A13925  31.473   5.083   7.964
  850POPC   C4A13926  31.445   5.130   7.664
  850POPC   C1B13927  31.340   5.305   8.564
  850POPC   C2B13928  31.294   5.219   8.264
  850POPC   C3B13929  31.248   5.245   7.964
  850POPC   C4B13930  31.246   5.236   7.664
  851POPC   NC313931  40.796  16.701   9.464
  851POPC   PO413932  40.767  16.725   9.164
  851POPC   GL113933  40.816  16.698   8.864
  851POPC   GL213934  40.893  16.769   8.864
  851POPC   C1A13935  40.749  16.704   8.564
  851POPC   D2A13936  40.829  16.738   8.264
  851POPC   C3A13937  40.737  16.697   7.964
  851POPC   C4A13938  40.780  16.717   7.664
  851POPC   C1B13939  40.991  16.787   8.564
  851POPC   C2B13940  40.983  16.801   8.264
  851POPC   C3B13941  41.047  16.827   7.964
  851POPC   C4B13942  41.050  16.883   7.664
  852POPC   NC313943  13.610  26.834   9.464
  852POPC   PO413944  13.673  26.811   9.164
  852POPC   GL113945  13.606  26.784   8.864
  852POPC   GL213946  13.494  26.917   8.864
  852POPC   C1A13947  13.622  26.851   8.564
  852POPC   D2A13948  13.629  26.844   8.264
  852POPC   C3A13949  13.644  26.773   7.964
  852POPC   C4A13950  13.648  26.802   7.664
  852POPC   C1B13951  13.450  27.004   8.564
  852POPC   C2B13952  13.408  26.935   8.264
  852POPC   C3B13953  13.394  26.918   7.964
  852POPC   C4B13954  13.469  26.978   7.664
  853POPC   NC313955  32.232  22.943   9.464
  853POPC   PO413956  32.281  22.944   9.164
  853POPC   GL113957  32.258  22.954   8.864
  853POPC   GL213958  32.341  22.918   8.864
  853POPC   C1A13959  32.201  22.945   8.564
  853POPC   D2A13960  32.264  22.985   8.264
  853POPC   C3A13961  32.271  22.925   7.964
  853POPC   C4A13962  32.232  22.896   7.664
  853POPC   C1B13963  32.503  22.805   8.564
  853POPC   C2B13964  32.445  22.809   8.264
  853POPC   C3B13965  32.441  22.847   7.964
  853POPC   C4B13966  32.487  22.847   7.664
  854POPC   NC313967  37.681   2.735   9.464
  854POPC   PO413968  37.715   2.716   9.164
  854POPC   GL113969  37.701   2.735   8.864
  854POPC   GL213970  37.643   2.638   8.864
  854POPC   C1A13971  37.703   2.767   8.564
  854POPC   D2A13972  37.694   2.815   8.264
  854POPC   C3A13973  37.704   2.727   7.964
  854POPC   C4A13974  37.726   2.784   7.664
  854POPC   C1B13975  37.614   2.504   8.564
  854POPC   C2B13976  37.679   2.500   8.264
  854POPC   C3B13977  37.607   2.555   7.964
  854POPC   C4B13978  37.598   2.502   7.664
  855POPC   NC313979  29.177  27.576   9.464
  855POPC   PO413980  29.192  27.595   9.164
  855POPC   GL113981  29.113  27.582   8.864
  855POPC   GL213982  29.185  27.754   8.864
  855POPC   C1A13983  29.096  27.545   8.564
  855POPC   D2A13984  29.122  27.630   8.264
  855POPC   C3A13985  29.159  27.608   7.964
  855POPC   C4A13986  29.181  27.623   7.664
  855POPC   C1B13987  29.264  27.837   8.564
  855POPC   C2B13988  29.254  27.821   8.264
  855POPC   C3B13989  29.239  27.843   7.964
  855POPC   C4B13990  29.277  27.790   7.664
  856POPC   NC313991  23.690  28.322   9.464
  856POPC   PO413992  23.729  28.338   9.164
  856POPC   GL113993  23.692  28.360   8.864
  856POPC   GL213994  23.562  28.396   8.864
  856POPC   C1A13995  23.689  28.336   8.564
  856POPC   D2A13996  23.742  28.343   8.264
  856POPC   C3A13997  23.679  28.360   7.964
  856POPC   C4A13998  23.730  28.404   7.664
  856POPC   C1B13999  23.495  28.391   8.564
  856POPC   C2B14000  23.426  28.343   8.264
  856POPC   C3B14001  23.498  28.381   7.964
  856POPC   C4B14002  23.476  28.397   7.664
  857POPC   NC314003  12.026   5.044   9.464
  857POPC   PO414004  12.119   5.097   9.164
  857POPC   GL114005  12.060   5.075   8.864
  857POPC   GL214006  12.184   5.018   8.864
  857POPC   C1A14007  12.076   5.103   8.564
  857POPC   D2A14008  12.065   5.071   8.264
  857POPC   C3A14009  12.115   5.092   7.964
  857POPC   C4A14010  12.038   5.119   7.664
  857POPC   C1B14011  12.305   4.936   8.564
  857POPC   C2B14012  12.295   4.921   8.264
  857POPC   C3B14013  12.243   4.983   7.964
  857POPC   C4B14014  12.314   4.922   7.664
  858POPC   NC314015  41.533  30.665   9.464
  858POPC   PO414016  41.565  30.650   9.164
  858POPC   GL114017  41.572  30.735   8.864
  858POPC   GL214018  41.519  30.589   8.864
  858POPC   C1A14019  41.509  30.662   8.564
  858POPC   D2A14020  41.526  30.714   8.264
  858POPC   C3A14021  41.608  30.746   7.964
  858POPC   C4A14022  41.511  30.654   7.664
  858POPC   C1B14023  41.482  30.448   8.564
  858POPC   C2B14024  41.575  30.497   8.264
  858POPC   C3B14025  41.493  30.486   7.964
  858POPC   C4B14026  41.512  30.428   7.664
  859POPC   NC314027  31.449  26.001   9.464
  859POPC   PO414028  31.446  26.039   9.164
  859POPC   GL114029  31.470  26.079   8.864
  859POPC   GL214030  31.371  26.082   8.864
  859POPC   C1A14031  31.471  26.085   8.564
  859POPC   D2A14032  31.498  26.031   8.264
  859POPC   C3A14033  31.504  26.008   7.964
  859POPC   C4A14034  31.427  26.031   7.664
  859POPC   C1B14035  31.257  26.189   8.564
  859POPC   C2B14036  31.322  26.216   8.264
  859POPC   C3B14037  31.281  26.186   7.964
  859POPC   C4B14038  31.262  26.184   7.664
  860POPC   NC314039  19.797   9.721   9.464
  860POPC   PO414040  19.833   9.742   9.164
  860POPC   GL114041  19.812   9.751   8.864
  860POPC   GL214042  19.863   9.587   8.864
  860POPC   C1A14043  19.847   9.746   8.564
  860POPC   D2A14044  19.809   9.762   8.264
  860POPC   C3A14045  19.811   9.787   7.964
  860POPC   C4A14046  19.876   9.703   7.664
  860POPC   C1B14047  19.801   9.480   8.564
  860POPC   C2B14048  19.837   9.499   8.264
  860POPC   C3B14049  19.810   9.454   7.964
  860POPC   C4B14050  19.776   9.546   7.664
  861POPC   NC314051  16.753  43.083   9.464
  861POPC   PO414052  16.722  43.066   9.164
  861POPC   GL114053  16.775  43.096   8.864
  861POPC   GL214054  16.661  42.952   8.864
  861POPC   C1A14055  16.735  43.114   8.564
  861POPC   D2A14056  16.721  43.065   8.264
  861POPC   C3A14057  16.765  43.078   7.964
  861POPC   C4A14058  16.779  43.103   7.664
  861POPC   C1B14059  16.591  42.894   8.564
  861POPC   C2B14060  16.613  42.899   8.264
  861POPC   C3B14061  16.642  42.860   7.964
  861POPC   C4B14062  16.657  42.895   7.664
  862POPC   NC314063  37.723   5.852   9.464
  862POPC   PO414064  37.678   5.910   9.164
  862POPC   GL114065  37.687   5.916   8.864
  862POPC   GL214066  37.611   6.002   8.864
  862POPC   C1A14067  37.682   5.847   8.564
  862POPC   D2A14068  37.655   5.902   8.264
  862POPC   C3A14069  37.697   5.877   7.964
  862POPC   C4A14070  37.654   5.876   7.664
  862POPC   C1B14071  37.501   6.028   8.564
  862POPC   C2B14072  37.550   6.072   8.264
  862POPC   C3B14073  37.576   6.105   7.964
  862POPC   C4B14074  37.580   6.073   7.664
  863POPC   NC314075  36.115  36.946   9.464
  863POPC   PO414076  36.128  36.866   9.164
  863POPC   GL114077  36.092  36.946   8.864
  863POPC   GL214078  35.992  36.833   8.864
  863POPC   C1A14079  36.132  36.912   8.564
  863POPC   D2A14080  36.158  36.946   8.264
  863POPC   C3A14081  36.156  36.884   7.964
  863POPC   C4A14082  36.088  36.874   7.664
  863POPC   C1B14083  35.870  36.811   8.564
  863POPC   C2B14084  35.835  36.851   8.264
  863POPC   C3B14085  35.842  36.869   7.964
  863POPC   C4B14086  35.892  36.886   7.664
  864POPC   NC314087  21.360  29.190   9.464
  864POPC   PO414088  21.353  29.188   9.164
  864POPC   GL114089  21.417  29.178   8.864
  864POPC   GL214090  21.302  29.121   8.864
  864POPC   C1A14091  21.369  29.187   8.564
  864POPC   D2A14092  21.339  29.174   8.264
  864POPC   C3A14093  21.405  29.115   7.964
  864POPC   C4A14094  21.407  29.152   7.664
  864POPC   C1B14095  21.134  29.009   8.564
  864POPC   C2B14096  21.150  28.992   8.264
  864POPC   C3B14097  21.159  29.064   7.964
  864POPC   C4B14098  21.121  28.995   7.664
  865POPC   NC314099  14.429  21.415   9.464
  865POPC   PO414100  14.434  21.354   9.164
  865POPC   GL114101  14.362  21.341   8.864
  865POPC   GL214102  14.428  21.241   8.864
  865POPC   C1A14103  14.389  21.390   8.564
  865POPC   D2A14104  14.371  21.380   8.264
  865POPC   C3A14105  14.363  21.425   7.964
  865POPC   C4A14106  14.413  21.363   7.664
  865POPC   C1B14107  14.495  21.176   8.564
  865POPC   C2B14108  14.434  21.090   8.264
  865POPC   C3B14109  14.410  21.143   7.964
  865POPC   C4B14110  14.436  21.178   7.664
  866POPC   NC314111  39.209   3.557   9.464
  866POPC   PO414112  39.210   3.501   9.164
  866POPC   GL114113  39.202   3.588   8.864
  866POPC   GL214114  39.170   3.703   8.864
  866POPC   C1A14115  39.195   3.518   8.564
  866POPC   D2A14116  39.221   3.538   8.264
  866POPC   C3A14117  39.266   3.570   7.964
  866POPC   C4A14118  39.184   3.496   7.664
  866POPC   C1B14119  39.168   3.761   8.564
  866POPC   C2B14120  39.156   3.778   8.264
  866POPC   C3B14121  39.113   3.734   7.964
  866POPC   C4B14122  39.174   3.735   7.664
  867POPC   NC314123   2.748  25.276   9.464
  867POPC   PO414124   2.807  25.284   9.164
  867POPC   GL114125   2.800  25.255   8.864
  867POPC   GL214126   2.693  25.173   8.864
  867POPC   C1A14127   2.810  25.275   8.564
  867POPC   D2A14128   2.773  25.231   8.264
  867POPC   C3A14129   2.814  25.254   7.964
  867POPC   C4A14130   2.789  25.246   7.664
  867POPC   C1B14131   2.612  25.040   8.564
  867POPC   C2B14132   2.650  25.090   8.264
  867POPC   C3B14133   2.683  25.073   7.964
  867POPC   C4B14134   2.667  25.092   7.664
  868POPC   NC314135  23.689  15.948   9.464
  868POPC   PO414136  23.763  15.970   9.164
  868POPC   GL114137  23.715  15.908   8.864
  868POPC   GL214138  23.575  15.873   8.864
  868POPC   C1A14139  23.716  15.907   8.564
  868POPC   D2A14140  23.759  15.933   8.264
  868POPC   C3A14141  23.737  15.922   7.964
  868POPC   C4A14142  23.758  15.964   7.664
  868POPC   C1B14143  23.521  15.915   8.564
  868POPC   C2B14144  23.467  15.898   8.264
  868POPC   C3B14145  23.474  15.862   7.964
  868POPC   C4B14146  23.490  15.839   7.664
  869POPC   NC314147  26.851  31.451   9.464
  869POPC   PO414148  26.792  31.487   9.164
  869POPC   GL114149  26.774  31.427   8.864
  869POPC   GL214150  26.768  31.385   8.864
  869POPC   C1A14151  26.853  31.506   8.564
  869POPC   D2A14152  26.852  31.471   8.264
  869POPC   C3A14153  26.768  31.462   7.964
  869POPC   C4A14154  26.847  31.429   7.664
  869POPC   C1B14155  26.776  31.182   8.564
  869POPC   C2B14156  26.785  31.266   8.264
  869POPC   C3B14157  26.792  31.186   7.964
  869POPC   C4B14158  26.790  31.268   7.664
  870POPC   NC314159   7.437   0.481   9.464
  870POPC   PO414160   7.445   0.400   9.164
  870POPC   GL114161   7.407   0.459   8.864
  870POPC   GL214162   7.346   0.586   8.864
  870POPC   C1A14163   7.414   0.480   8.564
  870POPC   D2A14164   7.383   0.422   8.264
  870POPC   C3A14165   7.384   0.444   7.964
  870POPC   C4A14166   7.454   0.448   7.664
  870POPC   C1B14167   7.319   0.686   8.564
  870POPC   C2B14168   7.239   0.681   8.264
  870POPC   C3B14169   7.294   0.642   7.964
  870POPC   C4B14170   7.274   0.611   7.664
  871POPC   NC314171  42.291   5.100   9.464
  871POPC   PO414172  42.309   5.073   9.164
  871POPC   GL114173  42.358   5.084   8.864
  871POPC   GL214174  42.454   5.145   8.864
  871POPC   C1A14175  42.336   5.110   8.564
  871POPC   D2A14176  42.319   5.097   8.264
  871POPC   C3A14177  42.375   5.067   7.964
  871POPC   C4A14178  42.373   5.095   7.664
  871POPC   C1B14179  42.509   5.248   8.564
  871POPC   C2B14180  42.571   5.306   8.264
  871POPC   C3B14181  42.499   5.243   7.964
  871POPC   C4B14182  42.531   5.254   7.664
  872POPC   NC314183  22.944  22.927   9.464
  872POPC   PO414184  22.911  22.984   9.164
  872POPC   GL114185  22.924  22.909   8.864
  872POPC   GL214186  22.938  22.786   8.864
  872POPC   C1A14187  22.924  22.921   8.564
  872POPC   D2A14188  22.960  22.939   8.264
  872POPC   C3A14189  22.945  22.940   7.964
  872POPC   C4A14190  22.932  22.906   7.664
  872POPC   C1B14191  22.934  22.691   8.564
  872POPC   C2B14192  22.985  22.736   8.264
  872POPC   C3B14193  22.980  22.694   7.964
  872POPC   C4B14194  22.933  22.644   7.664
  873POPC   NC314195  34.568  29.100   9.464
  873POPC   PO414196  34.575  29.183   9.164
  873POPC   GL114197  34.600  29.119   8.864
  873POPC   GL214198  34.694  29.071   8.864
  873POPC   C1A14199  34.535  29.144   8.564
  873POPC   D2A14200  34.537  29.193   8.264
  873POPC   C3A14201  34.559  29.145   7.964
  873POPC   C4A14202  34.597  29.110   7.664
  873POPC   C1B14203  34.748  28.993   8.564
  873POPC   C2B14204  34.778  29.011   8.264
  873POPC   C3B14205  34.737  29.029   7.964
  873POPC   C4B14206  34.813  29.000   7.664
  874POPC   NC314207   3.538  36.879   9.464
  874POPC   PO414208   3.544  36.913   9.164
  874POPC   GL114209   3.589  36.860   8.864
  874POPC   GL214210   3.453  37.016   8.864
  874POPC   C1A14211   3.585  36.902   8.564
  874POPC   D2A14212   3.519  36.876   8.264
  874POPC   C3A14213   3.498  36.929   7.964
  874POPC   C4A14214   3.499  36.870   7.664
  874POPC   C1B14215   3.408  37.165   8.564
  874POPC   C2B14216   3.461  37.137   8.264
  874POPC   C3B14217   3.457  37.169   7.964
  874POPC   C4B14218   3.477  37.084   7.664
  875POPC   NC314219  37.677  19.845   9.464
  875POPC   PO414220  37.673  19.864   9.164
  875POPC   GL114221  37.716  19.790   8.864
  875POPC   GL214222  37.701  19.750   8.864
  875POPC   C1A14223  37.706  19.788   8.564
  875POPC   D2A14224  37.666  19.875   8.264
  875POPC   C3A14225  37.670  19.812   7.964
  875POPC   C4A14226  37.671  19.791   7.664
  875POPC   C1B14227  37.669  19.555   8.564
  875POPC   C2B14228  37.684  19.592   8.264
  875POPC   C3B14229  37.654  19.632   7.964
  875POPC   C4B14230  37.636  19.575   7.664
  876POPC   NC314231  43.852   5.090   9.464
  876POPC   PO414232  43.854   5.063   9.164
  876POPC   GL114233  43.927   5.118   8.864
  876POPC   GL214234  43.976   5.194   8.864
  876POPC   C1A14235  43.870   5.122   8.564
  876POPC   D2A14236  43.837   5.099   8.264
  876POPC   C3A14237  43.901   5.065   7.964
  876POPC   C4A14238  43.848   5.081   7.664
  876POPC   C1B14239  44.067   5.287   8.564
  876POPC   C2B14240  43.997   5.277   8.264
  876POPC   C3B14241  44.076   5.330   7.964
  876POPC   C4B14242  44.036   5.292   7.664
  877POPC   NC314243  18.327  14.443   9.464
  877POPC   PO414244  18.257  14.432   9.164
  877POPC   GL114245  18.327  14.413   8.864
  877POPC   GL214246  18.316  14.326   8.864
  877POPC   C1A14247  18.323  14.430   8.564
  877POPC   D2A14248  18.318  14.433   8.264
  877POPC   C3A14249  18.244  14.390   7.964
  877POPC   C4A14250  18.244  14.354   7.664
  877POPC   C1B14251  18.391  14.166   8.564
  877POPC   C2B14252  18.372  14.130   8.264
  877POPC   C3B14253  18.394  14.155   7.964
  877POPC   C4B14254  18.327  14.150   7.664
  878POPC   NC314255  22.897  19.035   9.464
  878POPC   PO414256  22.917  19.088   9.164
  878POPC   GL114257  22.983  19.020   8.864
  878POPC   GL214258  22.802  19.139   8.864
  878POPC   C1A14259  22.968  19.034   8.564
  878POPC   D2A14260  22.959  19.063   8.264
  878POPC   C3A14261  22.917  19.078   7.964
  878POPC   C4A14262  22.938  19.018   7.664
  878POPC   C1B14263  22.697  19.262   8.564
  878POPC   C2B14264  22.769  19.202   8.264
  878POPC   C3B14265  22.725  19.214   7.964
  878POPC   C4B14266  22.704  19.233   7.664
  879POPC   NC314267   5.914  26.814   9.464
  879POPC   PO414268   5.835  26.773   9.164
  879POPC   GL114269   5.870  26.826   8.864
  879POPC   GL214270   5.762  26.868   8.864
  879POPC   C1A14271   5.859  26.799   8.564
  879POPC   D2A14272   5.915  26.791   8.264
  879POPC   C3A14273   5.907  26.792   7.964
  879POPC   C4A14274   5.846  26.858   7.664
  879POPC   C1B14275   5.647  26.952   8.564
  879POPC   C2B14276   5.678  27.025   8.264
  879POPC   C3B14277   5.716  26.984   7.964
  879POPC   C4B14278   5.702  26.992   7.664
  880POPC   NC314279  15.138  29.924   9.464
  880POPC   PO414280  15.160  29.917   9.164
  880POPC   GL114281  15.174  29.890   8.864
  880POPC   GL214282  15.115  30.041   8.864
  880POPC   C1A14283  15.136  29.968   8.564
  880POPC   D2A14284  15.138  29.910   8.264
  880POPC   C3A14285  15.206  29.961   7.964
  880POPC   C4A14286  15.177  29.947   7.664
  880POPC   C1B14287  15.105  30.113   8.564
  880POPC   C2B14288  15.070  30.153   8.264
  880POPC   C3B14289  15.045  30.172   7.964
  880POPC   C4B14290  15.042  30.131   7.664
  881POPC   NC314291  36.136  22.186   9.464
  881POPC   PO414292  36.154  22.143   9.164
  881POPC   GL114293  36.137  22.207   8.864
  881POPC   GL214294  36.154  22.316   8.864
  881POPC   C1A14295  36.127  22.128   8.564
  881POPC   D2A14296  36.164  22.172   8.264
  881POPC   C3A14297  36.103  22.140   7.964
  881POPC   C4A14298  36.106  22.174   7.664
  881POPC   C1B14299  36.177  22.416   8.564
  881POPC   C2B14300  36.132  22.363   8.264
  881POPC   C3B14301  36.130  22.431   7.964
  881POPC   C4B14302  36.124  22.387   7.664
  882POPC   NC314303   0.462  43.913   9.464
  882POPC   PO414304   0.468  43.855   9.164
  882POPC   GL114305   0.462  43.875   8.864
  882POPC   GL214306   0.423  43.743   8.864
  882POPC   C1A14307   0.432  43.923   8.564
  882POPC   D2A14308   0.459  43.894   8.264
  882POPC   C3A14309   0.440  43.901   7.964
  882POPC   C4A14310   0.462  43.860   7.664
  882POPC   C1B14311   0.359  43.607   8.564
  882POPC   C2B14312   0.371  43.676   8.264
  882POPC   C3B14313   0.396  43.652   7.964
  882POPC   C4B14314   0.400  43.645   7.664
  883POPC   NC314315  19.868  15.992   9.464
  883POPC   PO414316  19.828  15.940   9.164
  883POPC   GL114317  19.850  15.968   8.864
  883POPC   GL214318  19.744  15.871   8.864
  883POPC   C1A14319  19.839  15.950   8.564
  883POPC   D2A14320  19.832  15.982   8.264
  883POPC   C3A14321  19.795  15.987   7.964
  883POPC   C4A14322  19.857  15.970   7.664
  883POPC   C1B14323  19.669  15.746   8.564
  883POPC   C2B14324  19.630  15.766   8.264
  883POPC   C3B14325  19.601  15.751   7.964
  883POPC   C4B14326  19.668  15.741   7.664
  884POPC   NC314327  33.031  36.946   9.464
  884POPC   PO414328  33.055  36.933   9.164
  884POPC   GL114329  33.051  36.864   8.864
  884POPC   GL214330  32.940  36.849   8.864
  884POPC   C1A14331  32.981  36.887   8.564
  884POPC   D2A14332  33.055  36.904   8.264
  884POPC   C3A14333  32.997  36.901   7.964
  884POPC   C4A14334  32.980  36.905   7.664
  884POPC   C1B14335  32.853  36.742   8.564
  884POPC   C2B14336  32.834  36.811   8.264
  884POPC   C3B14337  32.765  36.811   7.964
  884POPC   C4B14338  32.776  36.829   7.664
  885POPC   NC314339   1.972  25.242   9.464
  885POPC   PO414340   1.998  25.311   9.164
  885POPC   GL114341   1.941  25.297   8.864
  885POPC   GL214342   2.020  25.394   8.864
  885POPC   C1A14343   1.992  25.222   8.564
  885POPC   D2A14344   2.001  25.269   8.264
  885POPC   C3A14345   2.028  25.297   7.964
  885POPC   C4A14346   1.965  25.264   7.664
  885POPC   C1B14347   2.031  25.509   8.564
  885POPC   C2B14348   2.057  25.478   8.264
  885POPC   C3B14349   2.072  25.520   7.964
  885POPC   C4B14350   2.086  25.496   7.664
  886POPC   NC314351  23.674  12.040   9.464
  886POPC   PO414352  23.719  12.116   9.164
  886POPC   GL114353  23.739  12.077   8.864
  886POPC   GL214354  23.597  12.000   8.864
  886POPC   C1A14355  23.689  12.112   8.564
  886POPC   D2A14356  23.698  12.029   8.264
  886POPC   C3A14357  23.706  12.067   7.964
  886POPC   C4A14358  23.743  12.123   7.664
  886POPC   C1B14359  23.463  11.953   8.564
  886POPC   C2B14360  23.514  12.005   8.264
  886POPC   C3B14361  23.468  12.002   7.964
  886POPC   C4B14362  23.484  11.979   7.664
  887POPC   NC314363   6.644   1.977   9.464
  887POPC   PO414364   6.688   1.970   9.164
  887POPC   GL114365   6.666   2.025   8.864
  887POPC   GL214366   6.737   2.117   8.864
  887POPC   C1A14367   6.605   1.980   8.564
  887POPC   D2A14368   6.619   1.991   8.264
  887POPC   C3A14369   6.646   1.997   7.964
  887POPC   C4A14370   6.673   1.990   7.664
  887POPC   C1B14371   6.830   2.149   8.564
  887POPC   C2B14372   6.837   2.158   8.264
  887POPC   C3B14373   6.842   2.210   7.964
  887POPC   C4B14374   6.837   2.145   7.664
  888POPC   NC314375  15.144  37.670   9.464
  888POPC   PO414376  15.206  37.696   9.164
  888POPC   GL114377  15.194  37.715   8.864
  888POPC   GL214378  15.019  37.630   8.864
  888POPC   C1A14379  15.189  37.643   8.564
  888POPC   D2A14380  15.168  37.713   8.264
  888POPC   C3A14381  15.201  37.720   7.964
  888POPC   C4A14382  15.199  37.669   7.664
  888POPC   C1B14383  14.944  37.619   8.564
  888POPC   C2B14384  14.907  37.618   8.264
  888POPC   C3B14385  14.957  37.651   7.964
  888POPC   C4B14386  14.896  37.647   7.664
  889POPC   NC314387   6.642  31.479   9.464
  889POPC   PO414388   6.682  31.482   9.164
  889POPC   GL114389   6.677  31.462   8.864
  889POPC   GL214390   6.618  31.312   8.864
  889POPC   C1A14391   6.695  31.500   8.564
  889POPC   D2A14392   6.687  31.442   8.264
  889POPC   C3A14393   6.674  31.490   7.964
  889POPC   C4A14394   6.645  31.425   7.664
  889POPC   C1B14395   6.598  31.251   8.564
  889POPC   C2B14396   6.601  31.198   8.264
  889POPC   C3B14397   6.629  31.260   7.964
  889POPC   C4B14398   6.640  31.175   7.664
  890POPC   NC314399  30.695   0.479   9.464
  890POPC   PO414400  30.735   0.424   9.164
  890POPC   GL114401  30.682   0.477   8.864
  890POPC   GL214402  30.601   0.317   8.864
  890POPC   C1A14403  30.689   0.468   8.564
  890POPC   D2A14404  30.734   0.463   8.264
  890POPC   C3A14405  30.687   0.441   7.964
  890POPC   C4A14406  30.714   0.413   7.664
  890POPC   C1B14407  30.563   0.250   8.564
  890POPC   C2B14408  30.550   0.212   8.264
  890POPC   C3B14409  30.598   0.182   7.964
  890POPC   C4B14410  30.546   0.180   7.664
  891POPC   NC314411  26.854  44.635   9.464
  891POPC   PO414412  26.778  44.699   9.164
  891POPC   GL114413  26.825  44.668   8.864
  891POPC   GL214414  26.867  44.568   8.864
  891POPC   C1A14415  26.833  44.676   8.564
  891POPC   D2A14416  26.799  44.638   8.264
  891POPC   C3A14417  26.842  44.690   7.964
  891POPC   C4A14418  26.788  44.697   7.664
  891POPC   C1B14419  26.829  44.436   8.564
  891POPC   C2B14420  26.818  44.397   8.264
  891POPC   C3B14421  26.811  44.461   7.964
  891POPC   C4B14422  26.792  44.416   7.664
  892POPC   NC314423  29.115  38.491   9.464
  892POPC   PO414424  29.125  38.460   9.164
  892POPC   GL114425  29.168  38.476   8.864
  892POPC   GL214426  29.157  38.285   8.864
  892POPC   C1A14427  29.126  38.420   8.564
  892POPC   D2A14428  29.135  38.446   8.264
  892POPC   C3A14429  29.148  38.431   7.964
  892POPC   C4A14430  29.148  38.415   7.664
  892POPC   C1B14431  29.093  38.168   8.564
  892POPC   C2B14432  29.101  38.224   8.264
  892POPC   C3B14433  29.146  38.247   7.964
  892POPC   C4B14434  29.088  38.203   7.664
  893POPC   NC314435  19.797  12.811   9.464
  893POPC   PO414436  19.874  12.894   9.164
  893POPC   GL114437  19.839  12.851   8.864
  893POPC   GL214438  20.008  12.821   8.864
  893POPC   C1A14439  19.817  12.820   8.564
  893POPC   D2A14440  19.861  12.834   8.264
  893POPC   C3A14441  19.786  12.857   7.964
  893POPC   C4A14442  19.860  12.848   7.664
  893POPC   C1B14443  20.113  12.900   8.564
  893POPC   C2B14444  20.071  12.876   8.264
  893POPC   C3B14445  20.041  12.919   7.964
  893POPC   C4B14446  20.039  12.925   7.664
  894POPC   NC314447  40.043  34.542   9.464
  894POPC   PO414448  40.055  34.566   9.164
  894POPC   GL114449  40.054  34.624   8.864
  894POPC   GL214450  40.082  34.494   8.864
  894POPC   C1A14451  40.041  34.542   8.564
  894POPC   D2A14452  40.023  34.540   8.264
  894POPC   C3A14453  40.022  34.557   7.964
  894POPC   C4A14454  39.965  34.618   7.664
  894POPC   C1B14455  40.132  34.373   8.564
  894POPC   C2B14456  40.198  34.347   8.264
  894POPC   C3B14457  40.224  34.369   7.964
  894POPC   C4B14458  40.215  34.442   7.664
  895POPC   NC314459  36.918   5.840   9.464
  895POPC   PO414460  36.886   5.849   9.164
  895POPC   GL114461  36.927   5.863   8.864
  895POPC   GL214462  37.052   5.816   8.864
  895POPC   C1A14463  36.947   5.909   8.564
  895POPC   D2A14464  36.894   5.839   8.264
  895POPC   C3A14465  36.858   5.897   7.964
  895POPC   C4A14466  36.901   5.823   7.664
  895POPC   C1B14467  37.190   5.839   8.564
  895POPC   C2B14468  37.121   5.754   8.264
  895POPC   C3B14469  37.132   5.753   7.964
  895POPC   C4B14470  37.110   5.820   7.664
  896POPC   NC314471   2.815   8.996   9.464
  896POPC   PO414472   2.727   8.975   9.164
  896POPC   GL114473   2.800   8.923   8.864
  896POPC   GL214474   2.756   8.813   8.864
  896POPC   C1A14475   2.748   8.989   8.564
  896POPC   D2A14476   2.745   9.009   8.264
  896POPC   C3A14477   2.795   9.003   7.964
  896POPC   C4A14478   2.783   9.002   7.664
  896POPC   C1B14479   2.720   8.698   8.564
  896POPC   C2B14480   2.689   8.731   8.264
  896POPC   C3B14481   2.768   8.690   7.964
  896POPC   C4B14482   2.719   8.687   7.664
  897POPC   NC314483   7.452  40.743   9.464
  897POPC   PO414484   7.387  40.770   9.164
  897POPC   GL114485   7.449  40.740   8.864
  897POPC   GL214486   7.324  40.762   8.864
  897POPC   C1A14487   7.411  40.791   8.564
  897POPC   D2A14488   7.394  40.743   8.264
  897POPC   C3A14489   7.465  40.785   7.964
  897POPC   C4A14490   7.380  40.830   7.664
  897POPC   C1B14491   7.185  40.803   8.564
  897POPC   C2B14492   7.180  40.862   8.264
  897POPC   C3B14493   7.146  40.862   7.964
  897POPC   C4B14494   7.151  40.810   7.664
  898POPC   NC314495   0.414  37.716   9.464
  898POPC   PO414496   0.488  37.728   9.164
  898POPC   GL114497   0.461  37.640   8.864
  898POPC   GL214498   0.505  37.817   8.864
  898POPC   C1A14499   0.426  37.647   8.564
  898POPC   D2A14500   0.395  37.698   8.264
  898POPC   C3A14501   0.388  37.687   7.964
  898POPC   C4A14502   0.467  37.697   7.664
  898POPC   C1B14503   0.561  37.929   8.564
  898POPC   C2B14504   0.527  37.945   8.264
  898POPC   C3B14505   0.577  37.913   7.964
  898POPC   C4B14506   0.507  37.951   7.664
  899POPC   NC314507  34.590  22.951   9.464
  899POPC   PO414508  34.602  22.961   9.164
  899POPC   GL114509  34.539  22.933   8.864
  899POPC   GL214510  34.458  22.918   8.864
  899POPC   C1A14511  34.605  22.987   8.564
  899POPC   D2A14512  34.557  22.962   8.264
  899POPC   C3A14513  34.569  22.905   7.964
  899POPC   C4A14514  34.575  22.988   7.664
  899POPC   C1B14515  34.365  22.841   8.564
  899POPC   C2B14516  34.368  22.896   8.264
  899POPC   C3B14517  34.335  22.834   7.964
  899POPC   C4B14518  34.349  22.917   7.664
  900POPC   NC314519  44.673   3.576   9.464
  900POPC   PO414520  44.686   3.543   9.164
  900POPC   GL114521  44.709   3.518   8.864
  900POPC   GL214522  44.676   3.642   8.864
  900POPC   C1A14523  44.667   3.566   8.564
  900POPC   D2A14524  44.652   3.536   8.264
  900POPC   C3A14525  44.642   3.509   7.964
  900POPC   C4A14526  44.684   3.548   7.664
  900POPC   C1B14527  44.811   3.803   8.564
  900POPC   C2B14528  44.785   3.794   8.264
  900POPC   C3B14529  44.788   3.750   7.964
  900POPC   C4B14530  44.812   3.765   7.664
  901POPC   NC314531   4.288  43.078   9.464
  901POPC   PO414532   4.271  43.079   9.164
  901POPC   GL114533   4.353  43.065   8.864
  901POPC   GL214534   4.334  42.980   8.864
  901POPC   C1A14535   4.352  43.083   8.564
  901POPC   D2A14536   4.319  43.065   8.264
  901POPC   C3A14537   4.296  43.086   7.964
  901POPC   C4A14538   4.293  43.102   7.664
  901POPC   C1B14539   4.319  42.876   8.564
  901POPC   C2B14540   4.325  42.834   8.264
  901POPC   C3B14541   4.359  42.902   7.964
  901POPC   C4B14542   4.264  42.870   7.664
  902POPC   NC314543   4.367  32.242   9.464
  902POPC   PO414544   4.301  32.280   9.164
  902POPC   GL114545   4.343  32.290   8.864
  902POPC   GL214546   4.313  32.335   8.864
  902POPC   C1A14547   4.362  32.227   8.564
  902POPC   D2A14548   4.365  32.273   8.264
  902POPC   C3A14549   4.271  32.233   7.964
  902POPC   C4A14550   4.318  32.217   7.664
  902POPC   C1B14551   4.224  32.476   8.564
  902POPC   C2B14552   4.189  32.451   8.264
  902POPC   C3B14553   4.199  32.504   7.964
  902POPC   C4B14554   4.186  32.526   7.664
  903POPC   NC314555  15.175  41.571   9.464
  903POPC   PO414556  15.207  41.563   9.164
  903POPC   GL114557  15.176  41.590   8.864
  903POPC   GL214558  15.104  41.661   8.864
  903POPC   C1A14559  15.185  41.601   8.564
  903POPC   D2A14560  15.131  41.552   8.264
  903POPC   C3A14561  15.182  41.597   7.964
  903POPC   C4A14562  15.152  41.551   7.664
  903POPC   C1B14563  14.997  41.794   8.564
  903POPC   C2B14564  15.032  41.750   8.264
  903POPC   C3B14565  15.023  41.789   7.964
  903POPC   C4B14566  14.991  41.727   7.664
  904POPC   NC314567  14.354  15.220   9.464
  904POPC   PO414568  14.431  15.141   9.164
  904POPC   GL114569  14.394  15.165   8.864
  904POPC   GL214570  14.350  15.342   8.864
  904POPC   C1A14571  14.421  15.176   8.564
  904POPC   D2A14572  14.433  15.168   8.264
  904POPC   C3A14573  14.434  15.174   7.964
  904POPC   C4A14574  14.451  15.220   7.664
  904POPC   C1B14575  14.312  15.380   8.564
  904POPC   C2B14576  14.349  15.381   8.264
  904POPC   C3B14577  14.315  15.395   7.964
  904POPC   C4B14578  14.384  15.423   7.664
  905POPC   NC314579  42.320  30.695   9.464
  905POPC   PO414580  42.297  30.653   9.164
  905POPC   GL114581  42.304  30.688   8.864
  905POPC   GL214582  42.271  30.720   8.864
  905POPC   C1A14583  42.371  30.743   8.564
  905POPC   D2A14584  42.314  30.676   8.264
  905POPC   C3A14585  42.328  30.649   7.964
  905POPC   C4A14586  42.296  30.729   7.664
  905POPC   C1B14587  42.110  30.879   8.564
  905POPC   C2B14588  42.116  30.868   8.264
  905POPC   C3B14589  42.150  30.803   7.964
  905POPC   C4B14590  42.154  30.865   7.664
  906POPC   NC314591  29.168  19.057   9.464
  906POPC   PO414592  29.162  19.034   9.164
  906POPC   GL114593  29.141  19.094   8.864
  906POPC   GL214594  29.008  19.117   8.864
  906POPC   C1A14595  29.148  19.058   8.564
  906POPC   D2A14596  29.164  19.053   8.264
  906POPC   C3A14597  29.156  19.079   7.964
  906POPC   C4A14598  29.163  19.084   7.664
  906POPC   C1B14599  28.941  19.193   8.564
  906POPC   C2B14600  28.941  19.170   8.264
  906POPC   C3B14601  28.953  19.187   7.964
  906POPC   C4B14602  28.920  19.223   7.664
  907POPC   NC314603   1.988  13.648   9.464
  907POPC   PO414604   2.012  13.601   9.164
  907POPC   GL114605   2.004  13.607   8.864
  907POPC   GL214606   2.073  13.508   8.864
  907POPC   C1A14607   1.968  13.671   8.564
  907POPC   D2A14608   1.952  13.661   8.264
  907POPC   C3A14609   1.960  13.661   7.964
  907POPC   C4A14610   1.940  13.657   7.664
  907POPC   C1B14611   2.073  13.404   8.564
  907POPC   C2B14612   2.110  13.444   8.264
  907POPC   C3B14613   2.085  13.364   7.964
  907POPC   C4B14614   2.121  13.394   7.664
  908POPC   NC314615  12.071  40.026   9.464
  908POPC   PO414616  12.101  40.053   9.164
  908POPC   GL114617  12.124  39.982   8.864
  908POPC   GL214618  12.183  39.949   8.864
  908POPC   C1A14619  12.113  39.997   8.564
  908POPC   D2A14620  12.040  39.986   8.264
  908POPC   C3A14621  12.067  39.980   7.964
  908POPC   C4A14622  12.067  39.959   7.664
  908POPC   C1B14623  12.288  39.831   8.564
  908POPC   C2B14624  12.256  39.857   8.264
  908POPC   C3B14625  12.297  39.838   7.964
  908POPC   C4B14626  12.224  39.858   7.664
  909POPC   NC314627  15.190   0.436   9.464
  909POPC   PO414628  15.206   0.422   9.164
  909POPC   GL114629  15.196   0.454   8.864
  909POPC   GL214630  15.154   0.328   8.864
  909POPC   C1A14631  15.207   0.403   8.564
  909POPC   D2A14632  15.151   0.435   8.264
  909POPC   C3A14633  15.197   0.429   7.964
  909POPC   C4A14634  15.158   0.462   7.664
  909POPC   C1B14635  15.088   0.204   8.564
  909POPC   C2B14636  15.055   0.181   8.264
  909POPC   C3B14637  15.058   0.174   7.964
  909POPC   C4B14638  15.029   0.206   7.664
  910POPC   NC314639  27.556  12.040   9.464
  910POPC   PO414640  27.546  12.102   9.164
  910POPC   GL114641  27.597  12.095   8.864
  910POPC   GL214642  27.564  12.175   8.864
  910POPC   C1A14643  27.591  12.102   8.564
  910POPC   D2A14644  27.614  12.089   8.264
  910POPC   C3A14645  27.633  12.043   7.964
  910POPC   C4A14646  27.557  12.053   7.664
  910POPC   C1B14647  27.626  12.371   8.564
  910POPC   C2B14648  27.663  12.368   8.264
  910POPC   C3B14649  27.607  12.300   7.964
  910POPC   C4B14650  27.592  12.287   7.664
  911POPC   NC314651  15.161  40.042   9.464
  911POPC   PO414652  15.160  40.000   9.164
  911POPC   GL114653  15.148  40.055   8.864
  911POPC   GL214654  15.347  39.960   8.864
  911POPC   C1A14655  15.177  40.007   8.564
  911POPC   D2A14656  15.174  39.995   8.264
  911POPC   C3A14657  15.145  40.038   7.964
  911POPC   C4A14658  15.147  40.049   7.664
  911POPC   C1B14659  15.383  39.988   8.564
  911POPC   C2B14660  15.443  39.979   8.264
  911POPC   C3B14661  15.375  39.895   7.964
  911POPC   C4B14662  15.468  39.987   7.664
  912POPC   NC314663  39.248  22.987   9.464
  912POPC   PO414664  39.215  22.924   9.164
  912POPC   GL114665  39.249  22.966   8.864
  912POPC   GL214666  39.140  22.847   8.864
  912POPC   C1A14667  39.222  22.941   8.564
  912POPC   D2A14668  39.182  22.939   8.264
  912POPC   C3A14669  39.247  22.902   7.964
  912POPC   C4A14670  39.239  22.927   7.664
  912POPC   C1B14671  39.090  22.700   8.564
  912POPC   C2B14672  39.111  22.756   8.264
  912POPC   C3B14673  39.080  22.718   7.964
  912POPC   C4B14674  39.080  22.746   7.664
  913POPC   NC314675  44.697  22.967   9.464
  913POPC   PO414676  44.697  22.938   9.164
  913POPC   GL114677  44.682  22.973   8.864
  913POPC   GL214678  44.770  22.885   8.864
  913POPC   C1A14679  44.710  22.972   8.564
  913POPC   D2A14680  44.613  22.950   8.264
  913POPC   C3A14681  44.683  22.940   7.964
  913POPC   C4A14682  44.691  22.907   7.664
  913POPC   C1B14683  44.843  22.731   8.564
  913POPC   C2B14684  44.784  22.750   8.264
  913POPC   C3B14685  44.797  22.761   7.964
  913POPC   C4B14686  44.805  22.705   7.664
  914POPC   NC314687  13.675  20.565   9.464
  914POPC   PO414688  13.594  20.564   9.164
  914POPC   GL114689  13.590  20.600   8.864
  914POPC   GL214690  13.714  20.608   8.864
  914POPC   C1A14691  13.637  20.587   8.564
  914POPC   D2A14692  13.623  20.572   8.264
  914POPC   C3A14693  13.641  20.609   7.964
  914POPC   C4A14694  13.586  20.647   7.664
  914POPC   C1B14695  13.899  20.541   8.564
  914POPC   C2B14696  13.888  20.522   8.264
  914POPC   C3B14697  13.889  20.510   7.964
  914POPC   C4B14698  13.906  20.524   7.664
  915POPC   NC314699  11.264  40.036   9.464
  915POPC   PO414700  11.304  39.979   9.164
  915POPC   GL114701  11.260  40.054   8.864
  915POPC   GL214702  11.361  39.956   8.864
  915POPC   C1A14703  11.306  39.968   8.564
  915POPC   D2A14704  11.256  40.051   8.264
  915POPC   C3A14705  11.276  39.992   7.964
  915POPC   C4A14706  11.288  40.014   7.664
  915POPC   C1B14707  11.468  39.801   8.564
  915POPC   C2B14708  11.477  39.813   8.264
  915POPC   C3B14709  11.491  39.851   7.964
  915POPC   C4B14710  11.530  39.878   7.664
  916POPC   NC314711  16.760   5.861   9.464
  916POPC   PO414712  16.755   5.849   9.164
  916POPC   GL114713  16.760   5.853   8.864
  916POPC   GL214714  16.791   5.761   8.864
  916POPC   C1A14715  16.754   5.832   8.564
  916POPC   D2A14716  16.732   5.821   8.264
  916POPC   C3A14717  16.702   5.821   7.964
  916POPC   C4A14718  16.759   5.905   7.664
  916POPC   C1B14719  16.841   5.693   8.564
  916POPC   C2B14720  16.872   5.600   8.264
  916POPC   C3B14721  16.849   5.681   7.964
  916POPC   C4B14722  16.817   5.672   7.664
  917POPC   NC314723   2.743  17.493   9.464
  917POPC   PO414724   2.727  17.459   9.164
  917POPC   GL114725   2.770  17.482   8.864
  917POPC   GL214726   2.704  17.403   8.864
  917POPC   C1A14727   2.756  17.515   8.564
  917POPC   D2A14728   2.777  17.501   8.264
  917POPC   C3A14729   2.771  17.458   7.964
  917POPC   C4A14730   2.808  17.510   7.664
  917POPC   C1B14731   2.754  17.241   8.564
  917POPC   C2B14732   2.732  17.261   8.264
  917POPC   C3B14733   2.719  17.251   7.964
  917POPC   C4B14734   2.755  17.305   7.664
  918POPC   NC314735  26.784   6.637   9.464
  918POPC   PO414736  26.856   6.676   9.164
  918POPC   GL114737  26.865   6.624   8.864
  918POPC   GL214738  26.719   6.740   8.864
  918POPC   C1A14739  26.846   6.684   8.564
  918POPC   D2A14740  26.842   6.661   8.264
  918POPC   C3A14741  26.831   6.626   7.964
  918POPC   C4A14742  26.862   6.657   7.664
  918POPC   C1B14743  26.606   6.854   8.564
  918POPC   C2B14744  26.649   6.868   8.264
  918POPC   C3B14745  26.627   6.856   7.964
  918POPC   C4B14746  26.614   6.836   7.664
  919POPC   NC314747   5.100  32.222   9.464
  919POPC   PO414748   5.069  32.261   9.164
  919POPC   GL114749   5.112  32.277   8.864
  919POPC   GL214750   5.250  32.281   8.864
  919POPC   C1A14751   5.083  32.269   8.564
  919POPC   D2A14752   5.091  32.282   8.264
  919POPC   C3A14753   5.083  32.259   7.964
  919POPC   C4A14754   5.106  32.232   7.664
  919POPC   C1B14755   5.334  32.361   8.564
  919POPC   C2B14756   5.294  32.361   8.264
  919POPC   C3B14757   5.316  32.377   7.964
  919POPC   C4B14758   5.312  32.357   7.664
  920POPC   NC314759  12.827  43.882   9.464
  920POPC   PO414760  12.861  43.871   9.164
  920POPC   GL114761  12.856  43.866   8.864
  920POPC   GL214762  12.770  43.891   8.864
  920POPC   C1A14763  12.884  43.876   8.564
  920POPC   D2A14764  12.842  43.855   8.264
  920POPC   C3A14765  12.868  43.853   7.964
  920POPC   C4A14766  12.886  43.837   7.664
  920POPC   C1B14767  12.627  43.770   8.564
  920POPC   C2B14768  12.586  43.763   8.264
  920POPC   C3B14769  12.582  43.854   7.964
  920POPC   C4B14770  12.663  43.775   7.664
  921POPC   NC314771  36.176  38.429   9.464
  921POPC   PO414772  36.143  38.490   9.164
  921POPC   GL114773  36.126  38.422   8.864
  921POPC   GL214774  36.299  38.463   8.864
  921POPC   C1A14775  36.155  38.464   8.564
  921POPC   D2A14776  36.167  38.439   8.264
  921POPC   C3A14777  36.149  38.434   7.964
  921POPC   C4A14778  36.083  38.472   7.664
  921POPC   C1B14779  36.385  38.490   8.564
  921POPC   C2B14780  36.347  38.563   8.264
  921POPC   C3B14781  36.360  38.555   7.964
  921POPC   C4B14782  36.390  38.512   7.664
  922POPC   NC314783   3.562  34.592   9.464
  922POPC   PO414784   3.576  34.590   9.164
  922POPC   GL114785   3.491  34.573   8.864
  922POPC   GL214786   3.522  34.723   8.864
  922POPC   C1A14787   3.562  34.604   8.564
  922POPC   D2A14788   3.569  34.613   8.264
  922POPC   C3A14789   3.561  34.589   7.964
  922POPC   C4A14790   3.572  34.542   7.664
  922POPC   C1B14791   3.573  34.799   8.564
  922POPC   C2B14792   3.582  34.814   8.264
  922POPC   C3B14793   3.511  34.808   7.964
  922POPC   C4B14794   3.521  34.815   7.664
  923POPC   NC314795   1.233  18.319   9.464
  923POPC   PO414796   1.167  18.281   9.164
  923POPC   GL114797   1.183  18.289   8.864
  923POPC   GL214798   1.162  18.329   8.864
  923POPC   C1A14799   1.203  18.250   8.564
  923POPC   D2A14800   1.228  18.290   8.264
  923POPC   C3A14801   1.218  18.284   7.964
  923POPC   C4A14802   1.167  18.247   7.664
  923POPC   C1B14803   1.005  18.431   8.564
  923POPC   C2B14804   1.044  18.432   8.264
  923POPC   C3B14805   1.033  18.483   7.964
  923POPC   C4B14806   1.017  18.499   7.664
  924POPC   NC314807  32.292   7.448   9.464
  924POPC   PO414808  32.227   7.458   9.164
  924POPC   GL114809  32.289   7.401   8.864
  924POPC   GL214810  32.298   7.530   8.864
  924POPC   C1A14811  32.211   7.465   8.564
  924POPC   D2A14812  32.247   7.399   8.264
  924POPC   C3A14813  32.213   7.445   7.964
  924POPC   C4A14814  32.255   7.382   7.664
  924POPC   C1B14815  32.336   7.654   8.564
  924POPC   C2B14816  32.240   7.713   8.264
  924POPC   C3B14817  32.264   7.633   7.964
  924POPC   C4B14818  32.279   7.692   7.664
  925POPC   NC314819  33.824  43.836   9.464
  925POPC   PO414820  33.793  43.842   9.164
  925POPC   GL114821  33.813  43.927   8.864
  925POPC   GL214822  33.814  43.973   8.864
  925POPC   C1A14823  33.811  43.896   8.564
  925POPC   D2A14824  33.779  43.895   8.264
  925POPC   C3A14825  33.772  43.895   7.964
  925POPC   C4A14826  33.805  43.854   7.664
  925POPC   C1B14827  33.790  44.113   8.564
  925POPC   C2B14828  33.844  44.121   8.264
  925POPC   C3B14829  33.792  44.110   7.964
  925POPC   C4B14830  33.856  44.163   7.664
  926POPC   NC314831  41.604  22.890   9.464
  926POPC   PO414832  41.587  22.913   9.164
  926POPC   GL114833  41.596  22.958   8.864
  926POPC   GL214834  41.721  22.875   8.864
  926POPC   C1A14835  41.594  22.913   8.564
  926POPC   D2A14836  41.527  22.940   8.264
  926POPC   C3A14837  41.583  22.976   7.964
  926POPC   C4A14838  41.511  22.912   7.664
  926POPC   C1B14839  41.790  22.884   8.564
  926POPC   C2B14840  41.799  22.845   8.264
  926POPC   C3B14841  41.754  22.862   7.964
  926POPC   C4B14842  41.776  22.849   7.664
  927POPC   NC314843  12.105  31.495   9.464
  927POPC   PO414844  12.097  31.490   9.164
  927POPC   GL114845  12.038  31.431   8.864
  927POPC   GL214846  12.134  31.576   8.864
  927POPC   C1A14847  12.107  31.442   8.564
  927POPC   D2A14848  12.049  31.466   8.264
  927POPC   C3A14849  12.124  31.471   7.964
  927POPC   C4A14850  12.096  31.442   7.664
  927POPC   C1B14851  12.237  31.591   8.564
  927POPC   C2B14852  12.274  31.649   8.264
  927POPC   C3B14853  12.223  31.672   7.964
  927POPC   C4B14854  12.275  31.666   7.664
  928POPC   NC314855   0.486  32.219   9.464
  928POPC   PO414856   0.423  32.242   9.164
  928POPC   GL114857   0.401  32.268   8.864
  928POPC   GL214858   0.585  32.362   8.864
  928POPC   C1A14859   0.483  32.264   8.564
  928POPC   D2A14860   0.412  32.237   8.264
  928POPC   C3A14861   0.458  32.252   7.964
  928POPC   C4A14862   0.452  32.264   7.664
  928POPC   C1B14863   0.603  32.404   8.564
  928POPC   C2B14864   0.650  32.408   8.264
  928POPC   C3B14865   0.586  32.377   7.964
  928POPC   C4B14866   0.594  32.431   7.664
  929POPC   NC314867  18.319   5.873   9.464
  929POPC   PO414868  18.239   5.828   9.164
  929POPC   GL114869  18.266   5.822   8.864
  929POPC   GL214870  18.197   5.777   8.864
  929POPC   C1A14871  18.303   5.914   8.564
  929POPC   D2A14872  18.300   5.832   8.264
  929POPC   C3A14873  18.316   5.917   7.964
  929POPC   C4A14874  18.253   5.844   7.664
  929POPC   C1B14875  18.121   5.642   8.564
  929POPC   C2B14876  18.110   5.696   8.264
  929POPC   C3B14877  18.121   5.687   7.964
  929POPC   C4B14878  18.116   5.697   7.664
  930POPC   NC314879  37.682  22.184   9.464
  930POPC   PO414880  37.634  22.184   9.164
  930POPC   GL114881  37.632  22.140   8.864
  930POPC   GL214882  37.557  22.116   8.864
  930POPC   C1A14883  37.715  22.169   8.564
  930POPC   D2A14884  37.721  22.208   8.264
  930POPC   C3A14885  37.636  22.181   7.964
  930POPC   C4A14886  37.656  22.156   7.664
  930POPC   C1B14887  37.438  22.188   8.564
  930POPC   C2B14888  37.403  22.152   8.264
  930POPC   C3B14889  37.438  22.141   7.964
  930POPC   C4B14890  37.403  22.206   7.664
  931POPC   NC314891   0.469  24.481   9.464
  931POPC   PO414892   0.469  24.506   9.164
  931POPC   GL114893   0.440  24.491   8.864
  931POPC   GL214894   0.492  24.414   8.864
  931POPC   C1A14895   0.448  24.475   8.564
  931POPC   D2A14896   0.479  24.515   8.264
  931POPC   C3A14897   0.421  24.449   7.964
  931POPC   C4A14898   0.471  24.532   7.664
  931POPC   C1B14899   0.460  24.287   8.564
  931POPC   C2B14900   0.434  24.227   8.264
  931POPC   C3B14901   0.425  24.286   7.964
  931POPC   C4B14902   0.423  24.227   7.664
  932POPC   NC314903  36.949   8.925   9.464
  932POPC   PO414904  36.945   8.934   9.164
  932POPC   GL114905  36.864   9.006   8.864
  932POPC   GL214906  36.857   8.878   8.864
  932POPC   C1A14907  36.866   8.982   8.564
  932POPC   D2A14908  36.862   8.938   8.264
  932POPC   C3A14909  36.872   8.968   7.964
  932POPC   C4A14910  36.868   8.967   7.664
  932POPC   C1B14911  36.824   8.687   8.564
  932POPC   C2B14912  36.917   8.712   8.264
  932POPC   C3B14913  36.877   8.745   7.964
  932POPC   C4B14914  36.840   8.700   7.664
  933POPC   NC314915  33.751  29.920   9.464
  933POPC   PO414916  33.752  29.942   9.164
  933POPC   GL114917  33.842  29.894   8.864
  933POPC   GL214918  33.705  29.846   8.864
  933POPC   C1A14919  33.795  29.948   8.564
  933POPC   D2A14920  33.811  29.914   8.264
  933POPC   C3A14921  33.798  29.873   7.964
  933POPC   C4A14922  33.818  29.932   7.664
  933POPC   C1B14923  33.589  29.796   8.564
  933POPC   C2B14924  33.517  29.878   8.264
  933POPC   C3B14925  33.573  29.800   7.964
  933POPC   C4B14926  33.572  29.865   7.664
  934POPC   NC314927  39.219   1.176   9.464
  934POPC   PO414928  39.236   1.188   9.164
  934POPC   GL114929  39.279   1.203   8.864
  934POPC   GL214930  39.209   1.296   8.864
  934POPC   C1A14931  39.276   1.208   8.564
  934POPC   D2A14932  39.230   1.264   8.264
  934POPC   C3A14933  39.265   1.213   7.964
  934POPC   C4A14934  39.265   1.164   7.664
  934POPC   C1B14935  39.168   1.447   8.564
  934POPC   C2B14936  39.137   1.493   8.264
  934POPC   C3B14937  39.122   1.420   7.964
  934POPC   C4B14938  39.170   1.449   7.664
  935POPC   NC314939   1.964  27.564   9.464
  935POPC   PO414940   2.006  27.596   9.164
  935POPC   GL114941   1.983  27.630   8.864
  935POPC   GL214942   2.093  27.547   8.864
  935POPC   C1A14943   2.018  27.614   8.564
  935POPC   D2A14944   1.979  27.638   8.264
  935POPC   C3A14945   1.973  27.632   7.964
  935POPC   C4A14946   2.003  27.616   7.664
  935POPC   C1B14947   2.154  27.394   8.564
  935POPC   C2B14948   2.181  27.436   8.264
  935POPC   C3B14949   2.138  27.435   7.964
  935POPC   C4B14950   2.164  27.410   7.664
  936POPC   NC314951  21.400  37.639   9.464
  936POPC   PO414952  21.436  37.633   9.164
  936POPC   GL114953  21.392  37.633   8.864
  936POPC   GL214954  21.318  37.559   8.864
  936POPC   C1A14955  21.359  37.632   8.564
  936POPC   D2A14956  21.431  37.665   8.264
  936POPC   C3A14957  21.354  37.689   7.964
  936POPC   C4A14958  21.396  37.694   7.664
  936POPC   C1B14959  21.246  37.503   8.564
  936POPC   C2B14960  21.223  37.485   8.264
  936POPC   C3B14961  21.227  37.467   7.964
  936POPC   C4B14962  21.238  37.534   7.664
  937POPC   NC314963  34.556  35.316   9.464
  937POPC   PO414964  34.550  35.325   9.164
  937POPC   GL114965  34.571  35.331   8.864
  937POPC   GL214966  34.584  35.496   8.864
  937POPC   C1A14967  34.537  35.396   8.564
  937POPC   D2A14968  34.614  35.390   8.264
  937POPC   C3A14969  34.592  35.329   7.964
  937POPC   C4A14970  34.530  35.351   7.664
  937POPC   C1B14971  34.646  35.615   8.564
  937POPC   C2B14972  34.624  35.608   8.264
  937POPC   C3B14973  34.598  35.593   7.964
  937POPC   C4B14974  34.667  35.581   7.664
  938POPC   NC314975  20.605  13.609   9.464
  938POPC   PO414976  20.656  13.677   9.164
  938POPC   GL114977  20.567  13.650   8.864
  938POPC   GL214978  20.562  13.497   8.864
  938POPC   C1A14979  20.643  13.624   8.564
  938POPC   D2A14980  20.647  13.607   8.264
  938POPC   C3A14981  20.624  13.624   7.964
  938POPC   C4A14982  20.628  13.659   7.664
  938POPC   C1B14983  20.450  13.465   8.564
  938POPC   C2B14984  20.480  13.416   8.264
  938POPC   C3B14985  20.392  13.483   7.964
  938POPC   C4B14986  20.395  13.439   7.664
  939POPC   NC314987  26.076  29.141   9.464
  939POPC   PO414988  26.055  29.127   9.164
  939POPC   GL114989  26.058  29.135   8.864
  939POPC   GL214990  25.927  29.166   8.864
  939POPC   C1A14991  26.077  29.143   8.564
  939POPC   D2A14992  26.005  29.168   8.264
  939POPC   C3A14993  26.006  29.095   7.964
  939POPC   C4A14994  25.994  29.185   7.664
  939POPC   C1B14995  25.765  29.173   8.564
  939POPC   C2B14996  25.827  29.257   8.264
  939POPC   C3B14997  25.835  29.188   7.964
  939POPC   C4B14998  25.785  29.168   7.664
  940POPC   NC314999  30.716  29.956   9.464
  940POPC   PO415000  30.724  29.891   9.164
  940POPC   GL115001  30.671  29.927   8.864
  940POPC   GL215002  30.612  29.980   8.864
  940POPC   C1A15003  30.656  29.881   8.564
  940POPC   D2A15004  30.651  29.920   8.264
  940POPC   C3A15005  30.705  29.908   7.964
  940POPC   C4A15006  30.729  29.873   7.664
  940POPC   C1B15007  30.493  30.070   8.564
  940POPC   C2B15008  30.437  30.001   8.264
  940POPC   C3B15009  30.468  30.045   7.964
  940POPC   C4B15010  30.466  30.070   7.664
  941POPC   NC315011   5.874   9.003   9.464
  941POPC   PO415012   5.906   9.021   9.164
  941POPC   GL115013   5.892   8.927   8.864
  941POPC   GL215014   5.940   8.922   8.864
  941POPC   C1A15015   5.849   8.931   8.564
  941POPC   D2A15016   5.914   9.014   8.264
  941POPC   C3A15017   5.835   8.992   7.964
  941POPC   C4A15018   5.893   9.021   7.664
  941POPC   C1B15019   6.080   8.788   8.564
  941POPC   C2B15020   6.059   8.835   8.264
  941POPC   C3B15021   6.097   8.770   7.964
  941POPC   C4B15022   6.060   8.821   7.664
  942POPC   NC315023  42.333   2.777   9.464
  942POPC   PO415024  42.376   2.809   9.164
  942POPC   GL115025  42.308   2.733   8.864
  942POPC   GL215026  42.209   2.760   8.864
  942POPC   C1A15027  42.303   2.791   8.564
  942POPC   D2A15028  42.295   2.725   8.264
  942POPC   C3A15029  42.318   2.733   7.964
  942POPC   C4A15030  42.286   2.803   7.664
  942POPC   C1B15031  42.103   2.656   8.564
  942POPC   C2B15032  42.121   2.733   8.264
  942POPC   C3B15033  42.094   2.659   7.964
  942POPC   C4B15034  42.133   2.686   7.664
  943POPC   NC315035  39.280   5.081   9.464
  943POPC   PO415036  39.254   5.115   9.164
  943POPC   GL115037  39.231   5.088   8.864
  943POPC   GL215038  39.272   5.166   8.864
  943POPC   C1A15039  39.217   5.089   8.564
  943POPC   D2A15040  39.254   5.122   8.264
  943POPC   C3A15041  39.221   5.121   7.964
  943POPC   C4A15042  39.194   5.117   7.664
  943POPC   C1B15043  39.440   5.292   8.564
  943POPC   C2B15044  39.429   5.326   8.264
  943POPC   C3B15045  39.412   5.265   7.964
  943POPC   C4B15046  39.361   5.235   7.664
  944POPC   NC315047  24.538  39.220   9.464
  944POPC   PO415048  24.526  39.225   9.164
  944POPC   GL115049  24.538  39.203   8.864
  944POPC   GL215050  24.344  39.172   8.864
  944POPC   C1A15051  24.510  39.264   8.564
  944POPC   D2A15052  24.515  39.263   8.264
  944POPC   C3A15053  24.538  39.237   7.964
  944POPC   C4A15054  24.497  39.247   7.664
  944POPC   C1B15055  24.270  39.107   8.564
  944POPC   C2B15056  24.255  39.054   8.264
  944POPC   C3B15057  24.267  39.076   7.964
  944POPC   C4B15058  24.265  39.075   7.664
  945POPC   NC315059  33.057  32.214   9.464
  945POPC   PO415060  33.006  32.278   9.164
  945POPC   GL115061  33.003  32.274   8.864
  945POPC   GL215062  33.016  32.149   8.864
  945POPC   C1A15063  32.994  32.215   8.564
  945POPC   D2A15064  33.045  32.211   8.264
  945POPC   C3A15065  33.025  32.282   7.964
  945POPC   C4A15066  33.042  32.249   7.664
  945POPC   C1B15067  33.010  32.009   8.564
  945POPC   C2B15068  33.058  31.980   8.264
  945POPC   C3B15069  33.022  32.042   7.964
  945POPC   C4B15070  32.986  32.043   7.664
  946POPC   NC315071   9.738  26.796   9.464
  946POPC   PO415072   9.727  26.808   9.164
  946POPC   GL115073   9.788  26.852   8.864
  946POPC   GL215074   9.653  26.847   8.864
  946POPC   C1A15075   9.732  26.772   8.564
  946POPC   D2A15076   9.728  26.801   8.264
  946POPC   C3A15077   9.704  26.838   7.964
  946POPC   C4A15078   9.765  26.794   7.664
  946POPC   C1B15079   9.518  26.858   8.564
  946POPC   C2B15080   9.508  26.864   8.264
  946POPC   C3B15081   9.548  26.876   7.964
  946POPC   C4B15082   9.487  26.856   7.664
  947POPC   NC315083  18.234   2.770   9.464
  947POPC   PO415084  18.236   2.741   9.164
  947POPC   GL115085  18.305   2.776   8.864
  947POPC   GL215086  18.154   2.721   8.864
  947POPC   C1A15087  18.258   2.815   8.564
  947POPC   D2A15088  18.255   2.740   8.264
  947POPC   C3A15089  18.323   2.771   7.964
  947POPC   C4A15090  18.315   2.805   7.664
  947POPC   C1B15091  18.014   2.798   8.564
  947POPC   C2B15092  17.999   2.773   8.264
  947POPC   C3B15093  17.990   2.807   7.964
  947POPC   C4B15094  18.070   2.735   7.664
  948POPC   NC315095  41.595  23.696   9.464
  948POPC   PO415096  41.566  23.683   9.164
  948POPC   GL115097  41.526  23.727   8.864
  948POPC   GL215098  41.479  23.758   8.864
  948POPC   C1A15099  41.605  23.721   8.564
  948POPC   D2A15100  41.539  23.716   8.264
  948POPC   C3A15101  41.594  23.675   7.964
  948POPC   C4A15102  41.520  23.700   7.664
  948POPC   C1B15103  41.307  23.757   8.564
  948POPC   C2B15104  41.346  23.758   8.264
  948POPC   C3B15105  41.291  23.809   7.964
  948POPC   C4B15106  41.343  23.723   7.664
  949POPC   NC315107  29.936  43.841   9.464
  949POPC   PO415108  29.927  43.910   9.164
  949POPC   GL115109  29.871  43.898   8.864
  949POPC   GL215110  30.024  43.945   8.864
  949POPC   C1A15111  29.939  43.862   8.564
  949POPC   D2A15112  29.969  43.906   8.264
  949POPC   C3A15113  29.910  43.882   7.964
  949POPC   C4A15114  29.908  43.879   7.664
  949POPC   C1B15115  30.120  43.989   8.564
  949POPC   C2B15116  30.176  43.956   8.264
  949POPC   C3B15117  30.200  43.928   7.964
  949POPC   C4B15118  30.167  43.967   7.664
  950POPC   NC315119  29.915  25.252   9.464
  950POPC   PO415120  29.895  25.268   9.164
  950POPC   GL115121  29.924  25.274   8.864
  950POPC   GL215122  29.905  25.329   8.864
  950POPC   C1A15123  29.955  25.295   8.564
  950POPC   D2A15124  29.933  25.305   8.264
  950POPC   C3A15125  29.889  25.251   7.964
  950POPC   C4A15126  29.908  25.244   7.664
  950POPC   C1B15127  29.852  25.507   8.564
  950POPC   C2B15128  29.852  25.453   8.264
  950POPC   C3B15129  29.804  25.454   7.964
  950POPC   C4B15130  29.851  25.501   7.664
  951POPC   NC315131  33.066  35.333   9.464
  951POPC   PO415132  33.034  35.325   9.164
  951POPC   GL115133  33.053  35.328   8.864
  951POPC   GL215134  33.038  35.222   8.864
  951POPC   C1A15135  32.979  35.378   8.564
  951POPC   D2A15136  32.986  35.400   8.264
  951POPC   C3A15137  33.000  35.336   7.964
  951POPC   C4A15138  32.985  35.324   7.664
  951POPC   C1B15139  33.068  35.089   8.564
  951POPC   C2B15140  33.065  35.113   8.264
  951POPC   C3B15141  33.079  35.139   7.964
  951POPC   C4B15142  33.113  35.162   7.664
  952POPC   NC315143  33.834   4.339   9.464
  952POPC   PO415144  33.838   4.310   9.164
  952POPC   GL115145  33.778   4.325   8.864
  952POPC   GL215146  33.885   4.195   8.864
  952POPC   C1A15147  33.786   4.300   8.564
  952POPC   D2A15148  33.816   4.273   8.264
  952POPC   C3A15149  33.761   4.323   7.964
  952POPC   C4A15150  33.757   4.326   7.664
  952POPC   C1B15151  34.041   4.150   8.564
  952POPC   C2B15152  34.002   4.140   8.264
  952POPC   C3B15153  34.006   4.189   7.964
  952POPC   C4B15154  33.978   4.183   7.664
  953POPC   NC315155  24.476  11.298   9.464
  953POPC   PO415156  24.468  11.338   9.164
  953POPC   GL115157  24.539  11.252   8.864
  953POPC   GL215158  24.567  11.350   8.864
  953POPC   C1A15159  24.450  11.256   8.564
  953POPC   D2A15160  24.443  11.262   8.264
  953POPC   C3A15161  24.500  11.328   7.964
  953POPC   C4A15162  24.497  11.284   7.664
  953POPC   C1B15163  24.735  11.461   8.564
  953POPC   C2B15164  24.706  11.387   8.264
  953POPC   C3B15165  24.746  11.467   7.964
  953POPC   C4B15166  24.752  11.393   7.664
  954POPC   NC315167  21.403  35.313   9.464
  954POPC   PO415168  21.377  35.304   9.164
  954POPC   GL115169  21.404  35.359   8.864
  954POPC   GL215170  21.539  35.290   8.864
  954POPC   C1A15171  21.353  35.312   8.564
  954POPC   D2A15172  21.421  35.388   8.264
  954POPC   C3A15173  21.369  35.398   7.964
  954POPC   C4A15174  21.371  35.386   7.664
  954POPC   C1B15175  21.663  35.282   8.564
  954POPC   C2B15176  21.648  35.265   8.264
  954POPC   C3B15177  21.622  35.316   7.964
  954POPC   C4B15178  21.646  35.312   7.664
  955POPC   NC315179  23.747  22.127   9.464
  955POPC   PO415180  23.695  22.182   9.164
  955POPC   GL115181  23.693  22.116   8.864
  955POPC   GL215182  23.675  22.067   8.864
  955POPC   C1A15183  23.740  22.188   8.564
  955POPC   D2A15184  23.715  22.170   8.264
  955POPC   C3A15185  23.679  22.129   7.964
  955POPC   C4A15186  23.703  22.142   7.664
  955POPC   C1B15187  23.607  21.958   8.564
  955POPC   C2B15188  23.578  21.917   8.264
  955POPC   C3B15189  23.626  21.949   7.964
  955POPC   C4B15190  23.593  21.924   7.664
  956POPC   NC315191  40.826  29.954   9.464
  956POPC   PO415192  40.801  29.916   9.164
  956POPC   GL115193  40.831  29.969   8.864
  956POPC   GL215194  40.681  30.046   8.864
  956POPC   C1A15195  40.787  29.914   8.564
  956POPC   D2A15196  40.815  29.920   8.264
  956POPC   C3A15197  40.754  29.886   7.964
  956POPC   C4A15198  40.807  29.957   7.664
  956POPC   C1B15199  40.604  30.110   8.564
  956POPC   C2B15200  40.674  30.098   8.264
  956POPC   C3B15201  40.649  30.146   7.964
  956POPC   C4B15202  40.633  30.153   7.664
  957POPC   NC315203  22.986  34.571   9.464
  957POPC   PO415204  22.897  34.620   9.164
  957POPC   GL115205  22.918  34.544   8.864
  957POPC   GL215206  23.059  34.621   8.864
  957POPC   C1A15207  22.948  34.580   8.564
  957POPC   D2A15208  22.983  34.544   8.264
  957POPC   C3A15209  22.959  34.575   7.964
  957POPC   C4A15210  22.952  34.579   7.664
  957POPC   C1B15211  23.177  34.630   8.564
  957POPC   C2B15212  23.159  34.653   8.264
  957POPC   C3B15213  23.140  34.641   7.964
  957POPC   C4B15214  23.190  34.667   7.664
  958POPC   NC315215  37.714  36.855   9.464
  958POPC   PO415216  37.634  36.938   9.164
  958POPC   GL115217  37.655  36.887   8.864
  958POPC   GL215218  37.528  36.923   8.864
  958POPC   C1A15219  37.634  36.880   8.564
  958POPC   D2A15220  37.639  36.921   8.264
  958POPC   C3A15221  37.672  36.936   7.964
  958POPC   C4A15222  37.663  36.874   7.664
  958POPC   C1B15223  37.417  37.021   8.564
  958POPC   C2B15224  37.490  37.034   8.264
  958POPC   C3B15225  37.450  37.011   7.964
  958POPC   C4B15226  37.474  36.969   7.664
  959POPC   NC315227  35.315   8.931   9.464
  959POPC   PO415228  35.321   8.984   9.164
  959POPC   GL115229  35.315   9.007   8.864
  959POPC   GL215230  35.447   8.918   8.864
  959POPC   C1A15231  35.307   8.973   8.564
  959POPC   D2A15232  35.306   9.009   8.264
  959POPC   C3A15233  35.384   9.011   7.964
  959POPC   C4A15234  35.401   8.951   7.664
  959POPC   C1B15235  35.576   8.914   8.564
  959POPC   C2B15236  35.589   8.896   8.264
  959POPC   C3B15237  35.571   8.872   7.964
  959POPC   C4B15238  35.542   8.828   7.664
  960POPC   NC315239  33.793  11.261   9.464
  960POPC   PO415240  33.778  11.343   9.164
  960POPC   GL115241  33.834  11.348   8.864
  960POPC   GL215242  33.854  11.470   8.864
  960POPC   C1A15243  33.781  11.255   8.564
  960POPC   D2A15244  33.816  11.346   8.264
  960POPC   C3A15245  33.765  11.349   7.964
  960POPC   C4A15246  33.794  11.287   7.664
  960POPC   C1B15247  33.816  11.562   8.564
  960POPC   C2B15248  33.881  11.523   8.264
  960POPC   C3B15249  33.842  11.556   7.964
  960POPC   C4B15250  33.895  11.501   7.664
  961POPC   NC315251   7.468  42.379   9.464
  961POPC   PO415252   7.398  42.317   9.164
  961POPC   GL115253   7.467  42.323   8.864
  961POPC   GL215254   7.400  42.507   8.864
  961POPC   C1A15255   7.398  42.340   8.564
  961POPC   D2A15256   7.453  42.328   8.264
  961POPC   C3A15257   7.397  42.378   7.964
  961POPC   C4A15258   7.459  42.309   7.664
  961POPC   C1B15259   7.440  42.595   8.564
  961POPC   C2B15260   7.443  42.579   8.264
  961POPC   C3B15261   7.421  42.580   7.964
  961POPC   C4B15262   7.409  42.584   7.664
  962POPC   NC315263  34.607  20.659   9.464
  962POPC   PO415264  34.562  20.596   9.164
  962POPC   GL115265  34.625  20.646   8.864
  962POPC   GL215266  34.527  20.709   8.864
  962POPC   C1A15267  34.526  20.593   8.564
  962POPC   D2A15268  34.555  20.600   8.264
  962POPC   C3A15269  34.621  20.595   7.964
  962POPC   C4A15270  34.621  20.634   7.664
  962POPC   C1B15271  34.350  20.722   8.564
  962POPC   C2B15272  34.420  20.753   8.264
  962POPC   C3B15273  34.370  20.749   7.964
  962POPC   C4B15274  34.351  20.820   7.664
  963POPC   NC315275  22.986  16.773   9.464
  963POPC   PO415276  22.938  16.685   9.164
  963POPC   GL115277  22.901  16.684   8.864
  963POPC   GL215278  22.978  16.847   8.864
  963POPC   C1A15279  22.943  16.686   8.564
  963POPC   D2A15280  22.985  16.736   8.264
  963POPC   C3A15281  22.916  16.759   7.964
  963POPC   C4A15282  22.962  16.712   7.664
  963POPC   C1B15283  23.114  16.921   8.564
  963POPC   C2B15284  23.116  16.917   8.264
  963POPC   C3B15285  23.111  16.879   7.964
  963POPC   C4B15286  23.109  16.939   7.664
  964POPC   NC315287  43.897  31.440   9.464
  964POPC   PO415288  43.856  31.451   9.164
  964POPC   GL115289  43.859  31.496   8.864
  964POPC   GL215290  43.955  31.522   8.864
  964POPC   C1A15291  43.904  31.498   8.564
  964POPC   D2A15292  43.918  31.444   8.264
  964POPC   C3A15293  43.917  31.521   7.964
  964POPC   C4A15294  43.843  31.473   7.664
  964POPC   C1B15295  44.115  31.607   8.564
  964POPC   C2B15296  44.148  31.609   8.264
  964POPC   C3B15297  44.103  31.579   7.964
  964POPC   C4B15298  44.120  31.574   7.664
  965POPC   NC315299  26.003  34.586   9.464
  965POPC   PO415300  25.997  34.546   9.164
  965POPC   GL115301  26.070  34.614   8.864
  965POPC   GL215302  26.168  34.575   8.864
  965POPC   C1A15303  26.050  34.610   8.564
  965POPC   D2A15304  26.084  34.587   8.264
  965POPC   C3A15305  26.059  34.538   7.964
  965POPC   C4A15306  26.042  34.602   7.664
  965POPC   C1B15307  26.299  34.517   8.564
  965POPC   C2B15308  26.288  34.501   8.264
  965POPC   C3B15309  26.316  34.489   7.964
  965POPC   C4B15310  26.264  34.530   7.664
  966POPC   NC315311   5.909  16.004   9.464
  966POPC   PO415312   5.912  15.943   9.164
  966POPC   GL115313   5.918  15.925   8.864
  966POPC   GL215314   5.942  15.919   8.864
  966POPC   C1A15315   5.851  15.989   8.564
  966POPC   D2A15316   5.857  15.993   8.264
  966POPC   C3A15317   5.882  15.972   7.964
  966POPC   C4A15318   5.904  15.999   7.664
  966POPC   C1B15319   6.077  15.905   8.564
  966POPC   C2B15320   6.069  15.922   8.264
  966POPC   C3B15321   6.080  15.914   7.964
  966POPC   C4B15322   6.065  15.856   7.664
  967POPC   NC315323   1.256   4.318   9.464
  967POPC   PO415324   1.183   4.273   9.164
  967POPC   GL115325   1.165   4.280   8.864
  967POPC   GL215326   1.228   4.424   8.864
  967POPC   C1A15327   1.213   4.353   8.564
  967POPC   D2A15328   1.251   4.330   8.264
  967POPC   C3A15329   1.173   4.332   7.964
  967POPC   C4A15330   1.246   4.291   7.664
  967POPC   C1B15331   1.302   4.505   8.564
  967POPC   C2B15332   1.267   4.546   8.264
  967POPC   C3B15333   1.330   4.510   7.964
  967POPC   C4B15334   1.288   4.596   7.664
  968POPC   NC315335   5.911  25.236   9.464
  968POPC   PO415336   5.868  25.304   9.164
  968POPC   GL115337   5.860  25.262   8.864
  968POPC   GL215338   5.760  25.265   8.864
  968POPC   C1A15339   5.916  25.315   8.564
  968POPC   D2A15340   5.860  25.309   8.264
  968POPC   C3A15341   5.864  25.275   7.964
  968POPC   C4A15342   5.830  25.254   7.664
  968POPC   C1B15343   5.630  25.316   8.564
  968POPC   C2B15344   5.581  25.340   8.264
  968POPC   C3B15345   5.637  25.308   7.964
  968POPC   C4B15346   5.650  25.283   7.664
  969POPC   NC315347  39.981  29.133   9.464
  969POPC   PO415348  40.031  29.109   9.164
  969POPC   GL115349  39.968  29.136   8.864
  969POPC   GL215350  39.934  29.050   8.864
  969POPC   C1A15351  40.036  29.150   8.564
  969POPC   D2A15352  39.976  29.138   8.264
  969POPC   C3A15353  40.031  29.190   7.964
  969POPC   C4A15354  40.038  29.167   7.664
  969POPC   C1B15355  39.897  28.920   8.564
  969POPC   C2B15356  39.896  28.869   8.264
  969POPC   C3B15357  39.904  28.871   7.964
  969POPC   C4B15358  39.888  28.931   7.664
  970POPC   NC315359  19.033   7.439   9.464
  970POPC   PO415360  19.093   7.457   9.164
  970POPC   GL115361  19.068   7.430   8.864
  970POPC   GL215362  18.941   7.528   8.864
  970POPC   C1A15363  19.060   7.397   8.564
  970POPC   D2A15364  19.016   7.423   8.264
  970POPC   C3A15365  19.041   7.412   7.964
  970POPC   C4A15366  19.069   7.436   7.664
  970POPC   C1B15367  18.905   7.632   8.564
  970POPC   C2B15368  18.936   7.602   8.264
  970POPC   C3B15369  18.889   7.581   7.964
  970POPC   C4B15370  18.958   7.651   7.664
  971POPC   NC315371  43.117   6.641   9.464
  971POPC   PO415372  43.075   6.650   9.164
  971POPC   GL115373  43.065   6.646   8.864
  971POPC   GL215374  43.046   6.733   8.864
  971POPC   C1A15375  43.099   6.683   8.564
  971POPC   D2A15376  43.087   6.656   8.264
  971POPC   C3A15377  43.095   6.621   7.964
  971POPC   C4A15378  43.082   6.661   7.664
  971POPC   C1B15379  42.962   6.818   8.564
  971POPC   C2B15380  42.967   6.784   8.264
  971POPC   C3B15381  42.955   6.802   7.964
  971POPC   C4B15382  42.886   6.780   7.664
  972POPC   NC315383   5.878  33.029   9.464
  972POPC   PO415384   5.837  33.011   9.164
  972POPC   GL115385   5.857  33.013   8.864
  972POPC   GL215386   5.939  32.948   8.864
  972POPC   C1A15387   5.822  33.074   8.564
  972POPC   D2A15388   5.903  33.035   8.264
  972POPC   C3A15389   5.880  33.002   7.964
  972POPC   C4A15390   5.906  32.992   7.664
  972POPC   C1B15391   6.020  32.837   8.564
  972POPC   C2B15392   6.092  32.823   8.264
  972POPC   C3B15393   6.017  32.820   7.964
  972POPC   C4B15394   6.075  32.807   7.664
  973POPC   NC315395  36.857  14.387   9.464
  973POPC   PO415396  36.865  14.411   9.164
  973POPC   GL115397  36.877  14.426   8.864
  973POPC   GL215398  37.021  14.410   8.864
  973POPC   C1A15399  36.857  14.414   8.564
  973POPC   D2A15400  36.904  14.415   8.264
  973POPC   C3A15401  36.912  14.380   7.964
  973POPC   C4A15402  36.922  14.447   7.664
  973POPC   C1B15403  37.180  14.455   8.564
  973POPC   C2B15404  37.117  14.434   8.264
  973POPC   C3B15405  37.121  14.452   7.964
  973POPC   C4B15406  37.125  14.448   7.664
  974POPC   NC315407  22.155  44.653   9.464
  974POPC   PO415408  22.158  44.710   9.164
  974POPC   GL115409  22.128  44.677   8.864
  974POPC   GL215410  22.199  44.559   8.864
  974POPC   C1A15411  22.141  44.664   8.564
  974POPC   D2A15412  22.205  44.643   8.264
  974POPC   C3A15413  22.145  44.639   7.964
  974POPC   C4A15414  22.199  44.632   7.664
  974POPC   C1B15415  22.189  44.397   8.564
  974POPC   C2B15416  22.180  44.459   8.264
  974POPC   C3B15417  22.186  44.408   7.964
  974POPC   C4B15418  22.167  44.411   7.664
  975POPC   NC315419  22.932   8.160   9.464
  975POPC   PO415420  22.889   8.158   9.164
  975POPC   GL115421  22.901   8.233   8.864
  975POPC   GL215422  22.901   8.061   8.864
  975POPC   C1A15423  22.927   8.207   8.564
  975POPC   D2A15424  22.893   8.152   8.264
  975POPC   C3A15425  22.984   8.153   7.964
  975POPC   C4A15426  22.942   8.222   7.664
  975POPC   C1B15427  22.842   8.012   8.564
  975POPC   C2B15428  22.854   7.993   8.264
  975POPC   C3B15429  22.842   7.931   7.964
  975POPC   C4B15430  22.811   7.987   7.664
  976POPC   NC315431   9.737  10.507   9.464
  976POPC   PO415432   9.762  10.565   9.164
  976POPC   GL115433   9.758  10.492   8.864
  976POPC   GL215434   9.728  10.696   8.864
  976POPC   C1A15435   9.716  10.476   8.564
  976POPC   D2A15436   9.715  10.572   8.264
  976POPC   C3A15437   9.765  10.479   7.964
  976POPC   C4A15438   9.783  10.567   7.664
  976POPC   C1B15439   9.747  10.786   8.564
  976POPC   C2B15440   9.789  10.779   8.264
  976POPC   C3B15441   9.795  10.817   7.964
  976POPC   C4B15442   9.793  10.741   7.664
  977POPC   NC315443  20.624  29.149   9.464
  977POPC   PO415444  20.640  29.109   9.164
  977POPC   GL115445  20.614  29.185   8.864
  977POPC   GL215446  20.589  29.299   8.864
  977POPC   C1A15447  20.581  29.100   8.564
  977POPC   D2A15448  20.620  29.108   8.264
  977POPC   C3A15449  20.570  29.151   7.964
  977POPC   C4A15450  20.632  29.146   7.664
  977POPC   C1B15451  20.519  29.389   8.564
  977POPC   C2B15452  20.465  29.350   8.264
  977POPC   C3B15453  20.476  29.341   7.964
  977POPC   C4B15454  20.441  29.390   7.664
  978POPC   NC315455  33.025  25.264   9.464
  978POPC   PO415456  33.064  25.262   9.164
  978POPC   GL115457  33.056  25.286   8.864
  978POPC   GL215458  33.171  25.200   8.864
  978POPC   C1A15459  33.044  25.264   8.564
  978POPC   D2A15460  33.050  25.260   8.264
  978POPC   C3A15461  33.039  25.254   7.964
  978POPC   C4A15462  33.043  25.268   7.664
  978POPC   C1B15463  33.250  25.207   8.564
  978POPC   C2B15464  33.260  25.212   8.264
  978POPC   C3B15465  33.302  25.241   7.964
  978POPC   C4B15466  33.271  25.226   7.664
  979POPC   NC315467  21.416   9.703   9.464
  979POPC   PO415468  21.431   9.789   9.164
  979POPC   GL115469  21.400   9.797   8.864
  979POPC   GL215470  21.490   9.846   8.864
  979POPC   C1A15471  21.358   9.750   8.564
  979POPC   D2A15472  21.352   9.724   8.264
  979POPC   C3A15473  21.430   9.709   7.964
  979POPC   C4A15474  21.338   9.699   7.664
  979POPC   C1B15475  21.585   9.855   8.564
  979POPC   C2B15476  21.621   9.864   8.264
  979POPC   C3B15477  21.605   9.863   7.964
  979POPC   C4B15478  21.569   9.937   7.664
  980POPC   NC315479  30.732   3.565   9.464
  980POPC   PO415480  30.656   3.569   9.164
  980POPC   GL115481  30.657   3.527   8.864
  980POPC   GL215482  30.712   3.625   8.864
  980POPC   C1A15483  30.742   3.576   8.564
  980POPC   D2A15484  30.731   3.535   8.264
  980POPC   C3A15485  30.740   3.584   7.964
  980POPC   C4A15486  30.684   3.514   7.664
  980POPC   C1B15487  30.679   3.831   8.564
  980POPC   C2B15488  30.661   3.825   8.264
  980POPC   C3B15489  30.702   3.839   7.964
  980POPC   C4B15490  30.684   3.811   7.664
  981POPC   NC315491   5.081  37.666   9.464
  981POPC   PO415492   5.055  37.719   9.164
  981POPC   GL115493   5.086  37.704   8.864
  981POPC   GL215494   5.096  37.815   8.864
  981POPC   C1A15495   5.053  37.686   8.564
  981POPC   D2A15496   5.126  37.655   8.264
  981POPC   C3A15497   5.078  37.673   7.964
  981POPC   C4A15498   5.086  37.719   7.664
  981POPC   C1B15499   5.221  37.956   8.564
  981POPC   C2B15500   5.187  37.915   8.264
  981POPC   C3B15501   5.204  37.912   7.964
  981POPC   C4B15502   5.182  37.900   7.664
  982POPC   NC315503  44.676  43.157   9.464
  982POPC   PO415504  44.652  43.066   9.164
  982POPC   GL115505  44.641  43.064   8.864
  982POPC   GL215506  44.564  43.251   8.864
  982POPC   C1A15507  44.644  43.141   8.564
  982POPC   D2A15508  44.636  43.112   8.264
  982POPC   C3A15509  44.649  43.064   7.964
  982POPC   C4A15510  44.661  43.098   7.664
  982POPC   C1B15511  44.567  43.296   8.564
  982POPC   C2B15512  44.571  43.372   8.264
  982POPC   C3B15513  44.606  43.331   7.964
  982POPC   C4B15514  44.537  43.376   7.664
  983POPC   NC315515  34.617  24.533   9.464
  983POPC   PO415516  34.538  24.523   9.164
  983POPC   GL115517  34.595  24.478   8.864
  983POPC   GL215518  34.452  24.474   8.864
  983POPC   C1A15519  34.559  24.456   8.564
  983POPC   D2A15520  34.622  24.530   8.264
  983POPC   C3A15521  34.560  24.447   7.964
  983POPC   C4A15522  34.616  24.517   7.664
  983POPC   C1B15523  34.296  24.483   8.564
  983POPC   C2B15524  34.375  24.471   8.264
  983POPC   C3B15525  34.337  24.473   7.964
  983POPC   C4B15526  34.338  24.547   7.664
  984POPC   NC315527  41.543   9.013   9.464
  984POPC   PO415528  41.595   8.986   9.164
  984POPC   GL115529  41.535   8.998   8.864
  984POPC   GL215530  41.635   9.051   8.864
  984POPC   C1A15531  41.575   8.941   8.564
  984POPC   D2A15532  41.573   8.947   8.264
  984POPC   C3A15533  41.515   8.986   7.964
  984POPC   C4A15534  41.540   8.924   7.664
  984POPC   C1B15535  41.773   9.069   8.564
  984POPC   C2B15536  41.834   8.995   8.264
  984POPC   C3B15537  41.810   9.010   7.964
  984POPC   C4B15538  41.807   9.043   7.664
  985POPC   NC315539  43.929  23.717   9.464
  985POPC   PO415540  43.845  23.698   9.164
  985POPC   GL115541  43.892  23.717   8.864
  985POPC   GL215542  44.036  23.614   8.864
  985POPC   C1A15543  43.878  23.680   8.564
  985POPC   D2A15544  43.892  23.675   8.264
  985POPC   C3A15545  43.893  23.726   7.964
  985POPC   C4A15546  43.838  23.710   7.664
  985POPC   C1B15547  44.061  23.609   8.564
  985POPC   C2B15548  44.138  23.579   8.264
  985POPC   C3B15549  44.083  23.559   7.964
  985POPC   C4B15550  44.104  23.616   7.664
  986POPC   NC315551  34.597  41.572   9.464
  986POPC   PO415552  34.541  41.562   9.164
  986POPC   GL115553  34.527  41.577   8.864
  986POPC   GL215554  34.524  41.683   8.864
  986POPC   C1A15555  34.586  41.556   8.564
  986POPC   D2A15556  34.570  41.594   8.264
  986POPC   C3A15557  34.551  41.587   7.964
  986POPC   C4A15558  34.538  41.600   7.664
  986POPC   C1B15559  34.424  41.810   8.564
  986POPC   C2B15560  34.395  41.784   8.264
  986POPC   C3B15561  34.459  41.733   7.964
  986POPC   C4B15562  34.478  41.730   7.664
  987POPC   NC315563   7.418  28.360   9.464
  987POPC   PO415564   7.418  28.387   9.164
  987POPC   GL115565   7.397  28.406   8.864
  987POPC   GL215566   7.438  28.295   8.864
  987POPC   C1A15567   7.379  28.326   8.564
  987POPC   D2A15568   7.392  28.374   8.264
  987POPC   C3A15569   7.386  28.414   7.964
  987POPC   C4A15570   7.463  28.400   7.664
  987POPC   C1B15571   7.408  28.088   8.564
  987POPC   C2B15572   7.423  28.104   8.264
  987POPC   C3B15573   7.375  28.097   7.964
  987POPC   C4B15574   7.427  28.127   7.664
  988POPC   NC315575   9.013  30.726   9.464
  988POPC   PO415576   8.978  30.734   9.164
  988POPC   GL115577   9.005  30.659   8.864
  988POPC   GL215578   8.939  30.799   8.864
  988POPC   C1A15579   8.965  30.685   8.564
  988POPC   D2A15580   9.002  30.741   8.264
  988POPC   C3A15581   8.996  30.726   7.964
  988POPC   C4A15582   8.969  30.650   7.664
  988POPC   C1B15583   8.869  30.856   8.564
  988POPC   C2B15584   8.822  30.949   8.264
  988POPC   C3B15585   8.807  30.865   7.964
  988POPC   C4B15586   8.778  30.858   7.664
  989POPC   NC315587  14.443  39.187   9.464
  989POPC   PO415588  14.451  39.269   9.164
  989POPC   GL115589  14.359  39.204   8.864
  989POPC   GL215590  14.499  39.221   8.864
  989POPC   C1A15591  14.417  39.252   8.564
  989POPC   D2A15592  14.442  39.215   8.264
  989POPC   C3A15593  14.366  39.274   7.964
  989POPC   C4A15594  14.448  39.257   7.664
  989POPC   C1B15595  14.596  39.064   8.564
  989POPC   C2B15596  14.630  39.107   8.264
  989POPC   C3B15597  14.670  39.126   7.964
  989POPC   C4B15598  14.629  39.103   7.664
  990POPC   NC315599  24.537  13.664   9.464
  990POPC   PO415600  24.537  13.641   9.164
  990POPC   GL115601  24.538  13.610   8.864
  990POPC   GL215602  24.395  13.704   8.864
  990POPC   C1A15603  24.451  13.664   8.564
  990POPC   D2A15604  24.497  13.622   8.264
  990POPC   C3A15605  24.498  13.622   7.964
  990POPC   C4A15606  24.465  13.673   7.664
  990POPC   C1B15607  24.285  13.807   8.564
  990POPC   C2B15608  24.304  13.821   8.264
  990POPC   C3B15609  24.300  13.836   7.964
  990POPC   C4B15610  24.336  13.792   7.664
  991POPC   NC315611   3.565  21.361   9.464
  991POPC   PO415612   3.495  21.373   9.164
  991POPC   GL115613   3.549  21.343   8.864
  991POPC   GL215614   3.690  21.411   8.864
  991POPC   C1A15615   3.586  21.361   8.564
  991POPC   D2A15616   3.569  21.400   8.264
  991POPC   C3A15617   3.493  21.396   7.964
  991POPC   C4A15618   3.515  21.375   7.664
  991POPC   C1B15619   3.773  21.483   8.564
  991POPC   C2B15620   3.804  21.513   8.264
  991POPC   C3B15621   3.733  21.471   7.964
  991POPC   C4B15622   3.724  21.477   7.664
  992POPC   NC315623   9.019  19.087   9.464
  992POPC   PO415624   8.985  19.094   9.164
  992POPC   GL115625   9.009  19.019   8.864
  992POPC   GL215626   8.923  19.146   8.864
  992POPC   C1A15627   8.929  19.039   8.564
  992POPC   D2A15628   8.997  19.095   8.264
  992POPC   C3A15629   8.956  19.036   7.964
  992POPC   C4A15630   9.009  19.022   7.664
  992POPC   C1B15631   8.913  19.250   8.564
  992POPC   C2B15632   8.878  19.312   8.264
  992POPC   C3B15633   8.850  19.324   7.964
  992POPC   C4B15634   8.835  19.310   7.664
  993POPC   NC315635  43.104   5.849   9.464
  993POPC   PO415636  43.101   5.861   9.164
  993POPC   GL115637  43.158   5.872   8.864
  993POPC   GL215638  43.081   6.001   8.864
  993POPC   C1A15639  43.122   5.843   8.564
  993POPC   D2A15640  43.078   5.837   8.264
  993POPC   C3A15641  43.069   5.908   7.964
  993POPC   C4A15642  43.105   5.910   7.664
  993POPC   C1B15643  43.117   6.090   8.564
  993POPC   C2B15644  43.185   6.159   8.264
  993POPC   C3B15645  43.105   6.108   7.964
  993POPC   C4B15646  43.123   6.098   7.664
  994POPC   NC315647  36.094  28.418   9.464
  994POPC   PO415648  36.086  28.356   9.164
  994POPC   GL115649  36.146  28.325   8.864
  994POPC   GL215650  36.247  28.414   8.864
  994POPC   C1A15651  36.130  28.380   8.564
  994POPC   D2A15652  36.089  28.402   8.264
  994POPC   C3A15653  36.170  28.388   7.964
  994POPC   C4A15654  36.171  28.367   7.664
  994POPC   C1B15655  36.368  28.336   8.564
  994POPC   C2B15656  36.360  28.341   8.264
  994POPC   C3B15657  36.339  28.372   7.964
  994POPC   C4B15658  36.330  28.339   7.664
  995POPC   NC315659  40.003   5.081   9.464
  995POPC   PO415660  40.041   5.102   9.164
  995POPC   GL115661  40.013   5.044   8.864
  995POPC   GL215662  40.132   5.090   8.864
  995POPC   C1A15663  39.990   5.133   8.564
  995POPC   D2A15664  40.033   5.062   8.264
  995POPC   C3A15665  40.054   5.103   7.964
  995POPC   C4A15666  39.987   5.076   7.664
  995POPC   C1B15667  40.281   5.042   8.564
  995POPC   C2B15668  40.283   5.019   8.264
  995POPC   C3B15669  40.293   5.063   7.964
  995POPC   C4B15670  40.283   5.045   7.664
  996POPC   NC315671  37.634  42.360   9.464
  996POPC   PO415672  37.678  42.323   9.164
  996POPC   GL115673  37.712  42.362   8.864
  996POPC   GL215674  37.635  42.402   8.864
  996POPC   C1A15675  37.721  42.346   8.564
  996POPC   D2A15676  37.723  42.300   8.264
  996POPC   C3A15677  37.686  42.352   7.964
  996POPC   C4A15678  37.659  42.335   7.664
  996POPC   C1B15679  37.494  42.507   8.564
  996POPC   C2B15680  37.509  42.584   8.264
  996POPC   C3B15681  37.489  42.563   7.964
  996POPC   C4B15682  37.587  42.544   7.664
  997POPC   NC315683  15.960  23.677   9.464
  997POPC   PO415684  15.977  23.750   9.164
  997POPC   GL115685  15.987  23.676   8.864
  997POPC   GL215686  16.001  23.622   8.864
  997POPC   C1A15687  15.993  23.762   8.564
  997POPC   D2A15688  15.993  23.745   8.264
  997POPC   C3A15689  15.937  23.707   7.964
  997POPC   C4A15690  15.946  23.680   7.664
  997POPC   C1B15691  16.090  23.514   8.564
  997POPC   C2B15692  16.053  23.523   8.264
  997POPC   C3B15693  16.039  23.528   7.964
  997POPC   C4B15694  16.014  23.517   7.664
  998POPC   NC315695  10.567  26.782   9.464
  998POPC   PO415696  10.563  26.789   9.164
  998POPC   GL115697  10.478  26.857   8.864
  998POPC   GL215698  10.537  26.737   8.864
  998POPC   C1A15699  10.476  26.785   8.564
  998POPC   D2A15700  10.538  26.808   8.264
  998POPC   C3A15701  10.496  26.795   7.964
  998POPC   C4A15702  10.482  26.801   7.664
  998POPC   C1B15703  10.620  26.585   8.564
  998POPC   C2B15704  10.640  26.617   8.264
  998POPC   C3B15705  10.598  26.547   7.964
  998POPC   C4B15706  10.587  26.626   7.664
  999POPC   NC315707  12.102   8.176   9.464
  999POPC   PO415708  12.056   8.200   9.164
  999POPC   GL115709  12.105   8.182   8.864
  999POPC   GL215710  12.171   8.299   8.864
  999POPC   C1A15711  12.108   8.246   8.564
  999POPC   D2A15712  12.068   8.231   8.264
  999POPC   C3A15713  12.061   8.244   7.964
  999POPC   C4A15714  12.121   8.237   7.664
  999POPC   C1B15715  12.263   8.329   8.564
  999POPC   C2B15716  12.247   8.368   8.264
  999POPC   C3B15717  12.251   8.352   7.964
  999POPC   C4B15718  12.213   8.388   7.664
 1000POPC   NC315719  10.487  21.373   9.464
 1000POPC   PO415720  10.507  21.370   9.164
 1000POPC   GL115721  10.497  21.348   8.864
 1000POPC   GL215722  10.359  21.368   8.864
 1000POPC   C1A15723  10.480  21.436   8.564
 1000POPC   D2A15724  10.510  21.426   8.264
 1000POPC   C3A15725  10.529  21.413   7.964
 1000POPC   C4A15726  10.521  21.422   7.664
 1000POPC   C1B15727  10.233  21.445   8.564
 1000POPC   C2B15728  10.305  21.480   8.264
 1000POPC   C3B15729  10.309  21.468   7.964
 1000POPC   C4B15730  10.252  21.462   7.664
 1001POPC   NC315731  35.365  31.510   9.464
 1001POPC   PO415732  35.367  31.506   9.164
 1001POPC   GL115733  35.361  31.486   8.864
 1001POPC   GL215734  35.404  31.632   8.864
 1001POPC   C1A15735  35.358  31.468   8.564
 1001POPC   D2A15736  35.310  31.522   8.264
 1001POPC   C3A15737  35.375  31.429   7.964
 1001POPC   C4A15738  35.381  31.517   7.664
 1001POPC   C1B15739  35.470  31.698   8.564
 1001POPC   C2B15740  35.467  31.698   8.264
 1001POPC   C3B15741  35.458  31.660   7.964
 1001POPC   C4B15742  35.436  31.706   7.664
 1002POPC   NC315743  15.993   6.611   9.464
 1002POPC   PO415744  15.966   6.670   9.164
 1002POPC   GL115745  15.925   6.608   8.864
 1002POPC   GL215746  16.062   6.518   8.864
 1002POPC   C1A15747  15.959   6.659   8.564
 1002POPC   D2A15748  15.979   6.666   8.264
 1002POPC   C3A15749  15.954   6.669   7.964
 1002POPC   C4A15750  15.922   6.685   7.664
 1002POPC   C1B15751  16.087   6.427   8.564
 1002POPC   C2B15752  16.085   6.415   8.264
 1002POPC   C3B15753  16.055   6.455   7.964
 1002POPC   C4B15754  16.078   6.408   7.664
 1003POPC   NC315755  29.158  32.242   9.464
 1003POPC   PO415756  29.097  32.241   9.164
 1003POPC   GL115757  29.107  32.200   8.864
 1003POPC   GL215758  29.268  32.264   8.864
 1003POPC   C1A15759  29.136  32.232   8.564
 1003POPC   D2A15760  29.095  32.229   8.264
 1003POPC   C3A15761  29.106  32.266   7.964
 1003POPC   C4A15762  29.096  32.254   7.664
 1003POPC   C1B15763  29.368  32.278   8.564
 1003POPC   C2B15764  29.410  32.289   8.264
 1003POPC   C3B15765  29.357  32.243   7.964
 1003POPC   C4B15766  29.388  32.294   7.664
 1004POPC   NC315767  15.167  12.043   9.464
 1004POPC   PO415768  15.220  12.119   9.164
 1004POPC   GL115769  15.169  12.084   8.864
 1004POPC   GL215770  15.162  12.233   8.864
 1004POPC   C1A15771  15.170  12.115   8.564
 1004POPC   D2A15772  15.162  12.035   8.264
 1004POPC   C3A15773  15.162  12.044   7.964
 1004POPC   C4A15774  15.184  12.125   7.664
 1004POPC   C1B15775  15.103  12.286   8.564
 1004POPC   C2B15776  15.097  12.302   8.264
 1004POPC   C3B15777  15.104  12.252   7.964
 1004POPC   C4B15778  15.034  12.242   7.664
 1005POPC   NC315779  38.483  36.863   9.464
 1005POPC   PO415780  38.419  36.873   9.164
 1005POPC   GL115781  38.493  36.912   8.864
 1005POPC   GL215782  38.409  36.773   8.864
 1005POPC   C1A15783  38.438  36.929   8.564
 1005POPC   D2A15784  38.434  36.945   8.264
 1005POPC   C3A15785  38.452  36.908   7.964
 1005POPC   C4A15786  38.480  36.902   7.664
 1005POPC   C1B15787  38.357  36.692   8.564
 1005POPC   C2B15788  38.360  36.705   8.264
 1005POPC   C3B15789  38.333  36.712   7.964
 1005POPC   C4B15790  38.353  36.724   7.664
 1006POPC   NC315791  22.175  32.253   9.464
 1006POPC   PO415792  22.193  32.218   9.164
 1006POPC   GL115793  22.143  32.242   8.864
 1006POPC   GL215794  22.042  32.334   8.864
 1006POPC   C1A15795  22.155  32.228   8.564
 1006POPC   D2A15796  22.203  32.297   8.264
 1006POPC   C3A15797  22.198  32.271   7.964
 1006POPC   C4A15798  22.119  32.215   7.664
 1006POPC   C1B15799  21.900  32.314   8.564
 1006POPC   C2B15800  21.904  32.372   8.264
 1006POPC   C3B15801  21.889  32.379   7.964
 1006POPC   C4B15802  21.882  32.349   7.664
 1007POPC   NC315803  21.375  21.344   9.464
 1007POPC   PO415804  21.366  21.421   9.164
 1007POPC   GL115805  21.393  21.349   8.864
 1007POPC   GL215806  21.438  21.489   8.864
 1007POPC   C1A15807  21.432  21.386   8.564
 1007POPC   D2A15808  21.392  21.345   8.264
 1007POPC   C3A15809  21.373  21.392   7.964
 1007POPC   C4A15810  21.416  21.415   7.664
 1007POPC   C1B15811  21.495  21.578   8.564
 1007POPC   C2B15812  21.462  21.611   8.264
 1007POPC   C3B15813  21.453  21.653   7.964
 1007POPC   C4B15814  21.507  21.644   7.664
 1008POPC   NC315815   5.868  14.398   9.464
 1008POPC   PO415816   5.912  14.450   9.164
 1008POPC   GL115817   5.893  14.420   8.864
 1008POPC   GL215818   5.851  14.313   8.864
 1008POPC   C1A15819   5.847  14.434   8.564
 1008POPC   D2A15820   5.897  14.423   8.264
 1008POPC   C3A15821   5.865  14.445   7.964
 1008POPC   C4A15822   5.866  14.421   7.664
 1008POPC   C1B15823   5.742  14.167   8.564
 1008POPC   C2B15824   5.720  14.171   8.264
 1008POPC   C3B15825   5.726  14.131   7.964
 1008POPC   C4B15826   5.797  14.133   7.664
 1009POPC   NC315827  14.389  43.078   9.464
 1009POPC   PO415828  14.407  43.103   9.164
 1009POPC   GL115829  14.450  43.119   8.864
 1009POPC   GL215830  14.560  43.093   8.864
 1009POPC   C1A15831  14.368  43.084   8.564
 1009POPC   D2A15832  14.433  43.156   8.264
 1009POPC   C3A15833  14.396  43.072   7.964
 1009POPC   C4A15834  14.360  43.090   7.664
 1009POPC   C1B15835  14.621  43.115   8.564
 1009POPC   C2B15836  14.644  43.111   8.264
 1009POPC   C3B15837  14.650  43.184   7.964
 1009POPC   C4B15838  14.623  43.164   7.664
 1010POPC   NC315839   4.339  41.589   9.464
 1010POPC   PO415840   4.342  41.606   9.164
 1010POPC   GL115841   4.344  41.541   8.864
 1010POPC   GL215842   4.474  41.542   8.864
 1010POPC   C1A15843   4.366  41.562   8.564
 1010POPC   D2A15844   4.310  41.571   8.264
 1010POPC   C3A15845   4.324  41.513   7.964
 1010POPC   C4A15846   4.319  41.594   7.664
 1010POPC   C1B15847   4.532  41.570   8.564
 1010POPC   C2B15848   4.548  41.626   8.264
 1010POPC   C3B15849   4.540  41.633   7.964
 1010POPC   C4B15850   4.606  41.591   7.664
 1011POPC   NC315851  34.602  31.429   9.464
 1011POPC   PO415852  34.535  31.477   9.164
 1011POPC   GL115853  34.568  31.436   8.864
 1011POPC   GL215854  34.478  31.463   8.864
 1011POPC   C1A15855  34.530  31.500   8.564
 1011POPC   D2A15856  34.609  31.466   8.264
 1011POPC   C3A15857  34.568  31.439   7.964
 1011POPC   C4A15858  34.581  31.469   7.664
 1011POPC   C1B15859  34.372  31.377   8.564
 1011POPC   C2B15860  34.336  31.416   8.264
 1011POPC   C3B15861  34.354  31.405   7.964
 1011POPC   C4B15862  34.369  31.364   7.664
 1012POPC   NC315863  44.627  15.995   9.464
 1012POPC   PO415864  44.647  15.925   9.164
 1012POPC   GL115865  44.707  15.964   8.864
 1012POPC   GL215866  44.780  15.990   8.864
 1012POPC   C1A15867  44.697  15.957   8.564
 1012POPC   D2A15868  44.636  15.923   8.264
 1012POPC   C3A15869  44.670  15.906   7.964
 1012POPC   C4A15870  44.618  15.944   7.664
 1012POPC   C1B15871  44.944  15.997   8.564
 1012POPC   C2B15872  44.946  16.031   8.264
 1012POPC   C3B15873  44.917  16.033   7.964
 1012POPC   C4B15874  44.905  16.009   7.664
 1013POPC   NC315875  25.297  19.802   9.464
 1013POPC   PO415876  25.220  19.789   9.164
 1013POPC   GL115877  25.271  19.795   8.864
 1013POPC   GL215878  25.137  19.874   8.864
 1013POPC   C1A15879  25.315  19.826   8.564
 1013POPC   D2A15880  25.259  19.786   8.264
 1013POPC   C3A15881  25.293  19.789   7.964
 1013POPC   C4A15882  25.270  19.814   7.664
 1013POPC   C1B15883  25.010  19.964   8.564
 1013POPC   C2B15884  25.084  19.967   8.264
 1013POPC   C3B15885  25.023  19.949   7.964
 1013POPC   C4B15886  25.083  19.982   7.664
 1014POPC   NC315887  30.725  19.022   9.464
 1014POPC   PO415888  30.688  19.017   9.164
 1014POPC   GL115889  30.664  19.079   8.864
 1014POPC   GL215890  30.565  19.006   8.864
 1014POPC   C1A15891  30.648  19.074   8.564
 1014POPC   D2A15892  30.714  19.032   8.264
 1014POPC   C3A15893  30.705  19.089   7.964
 1014POPC   C4A15894  30.700  19.092   7.664
 1014POPC   C1B15895  30.535  18.927   8.564
 1014POPC   C2B15896  30.471  18.935   8.264
 1014POPC   C3B15897  30.488  18.864   7.964
 1014POPC   C4B15898  30.552  18.840   7.664
 1015POPC   NC315899  15.945  31.514   9.464
 1015POPC   PO415900  15.921  31.467   9.164
 1015POPC   GL115901  15.964  31.425   8.864
 1015POPC   GL215902  16.072  31.430   8.864
 1015POPC   C1A15903  15.929  31.513   8.564
 1015POPC   D2A15904  15.936  31.506   8.264
 1015POPC   C3A15905  15.993  31.453   7.964
 1015POPC   C4A15906  15.924  31.429   7.664
 1015POPC   C1B15907  16.106  31.317   8.564
 1015POPC   C2B15908  16.155  31.299   8.264
 1015POPC   C3B15909  16.134  31.301   7.964
 1015POPC   C4B15910  16.099  31.258   7.664
 1016POPC   NC315911  42.295  39.985   9.464
 1016POPC   PO415912  42.377  40.002   9.164
 1016POPC   GL115913  42.356  40.050   8.864
 1016POPC   GL215914  42.410  40.044   8.864
 1016POPC   C1A15915  42.382  39.976   8.564
 1016POPC   D2A15916  42.325  40.037   8.264
 1016POPC   C3A15917  42.317  40.038   7.964
 1016POPC   C4A15918  42.351  39.994   7.664
 1016POPC   C1B15919  42.514  40.135   8.564
 1016POPC   C2B15920  42.534  40.144   8.264
 1016POPC   C3B15921  42.511  40.204   7.964
 1016POPC   C4B15922  42.490  40.189   7.664
 1017POPC   NC315923  36.098  12.095   9.464
 1017POPC   PO415924  36.136  12.045   9.164
 1017POPC   GL115925  36.080  12.054   8.864
 1017POPC   GL215926  36.034  11.968   8.864
 1017POPC   C1A15927  36.144  12.118   8.564
 1017POPC   D2A15928  36.129  12.063   8.264
 1017POPC   C3A15929  36.087  12.035   7.964
 1017POPC   C4A15930  36.158  12.120   7.664
 1017POPC   C1B15931  35.967  11.908   8.564
 1017POPC   C2B15932  35.912  11.914   8.264
 1017POPC   C3B15933  35.884  11.931   7.964
 1017POPC   C4B15934  35.935  11.926   7.664
 1018POPC   NC315935  41.566  33.068   9.464
 1018POPC   PO415936  41.570  33.015   9.164
 1018POPC   GL115937  41.600  33.032   8.864
 1018POPC   GL215938  41.559  33.141   8.864
 1018POPC   C1A15939  41.546  33.017   8.564
 1018POPC   D2A15940  41.510  33.004   8.264
 1018POPC   C3A15941  41.605  33.041   7.964
 1018POPC   C4A15942  41.557  33.015   7.664
 1018POPC   C1B15943  41.460  33.295   8.564
 1018POPC   C2B15944  41.528  33.241   8.264
 1018POPC   C3B15945  41.545  33.245   7.964
 1018POPC   C4B15946  41.514  33.272   7.664
 1019POPC   NC315947  40.015  10.479   9.464
 1019POPC   PO415948  39.966  10.528   9.164
 1019POPC   GL115949  39.997  10.536   8.864
 1019POPC   GL215950  40.089  10.646   8.864
 1019POPC   C1A15951  39.998  10.538   8.564
 1019POPC   D2A15952  39.982  10.549   8.264
 1019POPC   C3A15953  40.046  10.500   7.964
 1019POPC   C4A15954  39.972  10.491   7.664
 1019POPC   C1B15955  40.185  10.718   8.564
 1019POPC   C2B15956  40.150  10.698   8.264
 1019POPC   C3B15957  40.145  10.726   7.964
 1019POPC   C4B15958  40.145  10.678   7.664
 1020POPC   NC315959  32.267  37.714   9.464
 1020POPC   PO415960  32.235  37.663   9.164
 1020POPC   GL115961  32.252  37.720   8.864
 1020POPC   GL215962  32.277  37.759   8.864
 1020POPC   C1A15963  32.237  37.639   8.564
 1020POPC   D2A15964  32.248  37.718   8.264
 1020POPC   C3A15965  32.221  37.638   7.964
 1020POPC   C4A15966  32.274  37.702   7.664
 1020POPC   C1B15967  32.351  37.904   8.564
 1020POPC   C2B15968  32.352  37.967   8.264
 1020POPC   C3B15969  32.327  37.916   7.964
 1020POPC   C4B15970  32.354  37.930   7.664
 1021POPC   NC315971  23.678  24.487   9.464
 1021POPC   PO415972  23.697  24.449   9.164
 1021POPC   GL115973  23.664  24.515   8.864
 1021POPC   GL215974  23.618  24.432   8.864
 1021POPC   C1A15975  23.698  24.477   8.564
 1021POPC   D2A15976  23.744  24.522   8.264
 1021POPC   C3A15977  23.764  24.484   7.964
 1021POPC   C4A15978  23.698  24.526   7.664
 1021POPC   C1B15979  23.517  24.421   8.564
 1021POPC   C2B15980  23.479  24.419   8.264
 1021POPC   C3B15981  23.472  24.438   7.964
 1021POPC   C4B15982  23.455  24.446   7.664
 1022POPC   NC315983  40.783   9.734   9.464
 1022POPC   PO415984  40.812   9.777   9.164
 1022POPC   GL115985  40.773   9.796   8.864
 1022POPC   GL215986  40.815   9.893   8.864
 1022POPC   C1A15987  40.753   9.754   8.564
 1022POPC   D2A15988  40.805   9.706   8.264
 1022POPC   C3A15989  40.789   9.756   7.964
 1022POPC   C4A15990  40.756   9.733   7.664
 1022POPC   C1B15991  40.815   9.974   8.564
 1022POPC   C2B15992  40.836  10.007   8.264
 1022POPC   C3B15993  40.805   9.979   7.964
 1022POPC   C4B15994  40.818   9.989   7.664
 1023POPC   NC315995   1.961  21.398   9.464
 1023POPC   PO415996   1.952  21.383   9.164
 1023POPC   GL115997   2.012  21.427   8.864
 1023POPC   GL215998   1.882  21.478   8.864
 1023POPC   C1A15999   2.027  21.400   8.564
 1023POPC   D2A16000   2.028  21.361   8.264
 1023POPC   C3A16001   2.038  21.410   7.964
 1023POPC   C4A16002   1.964  21.381   7.664
 1023POPC   C1B16003   1.880  21.592   8.564
 1023POPC   C2B16004   1.923  21.630   8.264
 1023POPC   C3B16005   1.862  21.588   7.964
 1023POPC   C4B16006   1.839  21.601   7.664
 1024POPC   NC316007  23.725   6.628   9.464
 1024POPC   PO416008  23.699   6.658   9.164
 1024POPC   GL116009  23.763   6.624   8.864
 1024POPC   GL216010  23.810   6.712   8.864
 1024POPC   C1A16011  23.705   6.689   8.564
 1024POPC   D2A16012  23.728   6.665   8.264
 1024POPC   C3A16013  23.713   6.615   7.964
 1024POPC   C4A16014  23.721   6.650   7.664
 1024POPC   C1B16015  23.892   6.812   8.564
 1024POPC   C2B16016  23.869   6.802   8.264
 1024POPC   C3B16017  23.887   6.788   7.964
 1024POPC   C4B16018  23.940   6.806   7.664
 1025POPC   NC316019  32.249  22.121   9.464
 1025POPC   PO416020  32.224  22.162   9.164
 1025POPC   GL116021  32.225  22.186   8.864
 1025POPC   GL216022  32.214  22.084   8.864
 1025POPC   C1A16023  32.228  22.116   8.564
 1025POPC   D2A16024  32.209  22.114   8.264
 1025POPC   C3A16025  32.262  22.193   7.964
 1025POPC   C4A16026  32.201  22.165   7.664
 1025POPC   C1B16027  32.255  21.939   8.564
 1025POPC   C2B16028  32.246  21.911   8.264
 1025POPC   C3B16029  32.253  21.934   7.964
 1025POPC   C4B16030  32.176  21.954   7.664
 1026POPC   NC316031  13.583  28.412   9.464
 1026POPC   PO416032  13.588  28.367   9.164
 1026POPC   GL116033  13.585  28.379   8.864
 1026POPC   GL216034  13.568  28.501   8.864
 1026POPC   C1A16035  13.585  28.321   8.564
 1026POPC   D2A16036  13.664  28.390   8.264
 1026POPC   C3A16037  13.656  28.412   7.964
 1026POPC   C4A16038  13.658  28.356   7.664
 1026POPC   C1B16039  13.506  28.522   8.564
 1026POPC   C2B16040  13.453  28.579   8.264
 1026POPC   C3B16041  13.482  28.532   7.964
 1026POPC   C4B16042  13.459  28.572   7.664
 1027POPC   NC316043  31.450  39.239   9.464
 1027POPC   PO416044  31.475  39.223   9.164
 1027POPC   GL116045  31.505  39.245   8.864
 1027POPC   GL216046  31.490  39.358   8.864
 1027POPC   C1A16047  31.434  39.272   8.564
 1027POPC   D2A16048  31.506  39.280   8.264
 1027POPC   C3A16049  31.511  39.224   7.964
 1027POPC   C4A16050  31.427  39.185   7.664
 1027POPC   C1B16051  31.522  39.420   8.564
 1027POPC   C2B16052  31.586  39.426   8.264
 1027POPC   C3B16053  31.526  39.475   7.964
 1027POPC   C4B16054  31.602  39.467   7.664
 1028POPC   NC316055  34.619  25.299   9.464
 1028POPC   PO416056  34.586  25.242   9.164
 1028POPC   GL116057  34.577  25.267   8.864
 1028POPC   GL216058  34.500  25.239   8.864
 1028POPC   C1A16059  34.598  25.277   8.564
 1028POPC   D2A16060  34.547  25.267   8.264
 1028POPC   C3A16061  34.531  25.246   7.964
 1028POPC   C4A16062  34.607  25.280   7.664
 1028POPC   C1B16063  34.343  25.244   8.564
 1028POPC   C2B16064  34.348  25.315   8.264
 1028POPC   C3B16065  34.280  25.288   7.964
 1028POPC   C4B16066  34.368  25.251   7.664
 1029POPC   NC316067   3.539  36.091   9.464
 1029POPC   PO416068   3.521  36.165   9.164
 1029POPC   GL116069   3.524  36.089   8.864
 1029POPC   GL216070   3.421  36.000   8.864
 1029POPC   C1A16071   3.575  36.106   8.564
 1029POPC   D2A16072   3.516  36.155   8.264
 1029POPC   C3A16073   3.584  36.155   7.964
 1029POPC   C4A16074   3.589  36.138   7.664
 1029POPC   C1B16075   3.380  35.935   8.564
 1029POPC   C2B16076   3.392  36.014   8.264
 1029POPC   C3B16077   3.338  36.011   7.964
 1029POPC   C4B16078   3.346  36.000   7.664
 1030POPC   NC316079  15.161  26.080   9.464
 1030POPC   PO416080  15.178  26.059   9.164
 1030POPC   GL116081  15.200  26.007   8.864
 1030POPC   GL216082  15.268  26.118   8.864
 1030POPC   C1A16083  15.146  26.051   8.564
 1030POPC   D2A16084  15.222  26.033   8.264
 1030POPC   C3A16085  15.183  26.061   7.964
 1030POPC   C4A16086  15.168  26.025   7.664
 1030POPC   C1B16087  15.342  26.239   8.564
 1030POPC   C2B16088  15.354  26.204   8.264
 1030POPC   C3B16089  15.398  26.192   7.964
 1030POPC   C4B16090  15.374  26.205   7.664
 1031POPC   NC316091  35.365  24.516   9.464
 1031POPC   PO416092  35.355  24.493   9.164
 1031POPC   GL116093  35.324  24.488   8.864
 1031POPC   GL216094  35.244  24.552   8.864
 1031POPC   C1A16095  35.327  24.515   8.564
 1031POPC   D2A16096  35.331  24.514   8.264
 1031POPC   C3A16097  35.313  24.459   7.964
 1031POPC   C4A16098  35.397  24.464   7.664
 1031POPC   C1B16099  35.181  24.679   8.564
 1031POPC   C2B16100  35.276  24.751   8.264
 1031POPC   C3B16101  35.252  24.755   7.964
 1031POPC   C4B16102  35.223  24.721   7.664
 1032POPC   NC316103  15.970  33.048   9.464
 1032POPC   PO416104  15.955  33.048   9.164
 1032POPC   GL116105  15.996  33.028   8.864
 1032POPC   GL216106  15.907  32.887   8.864
 1032POPC   C1A16107  15.976  33.073   8.564
 1032POPC   D2A16108  15.941  33.010   8.264
 1032POPC   C3A16109  15.955  33.049   7.964
 1032POPC   C4A16110  15.935  32.975   7.664
 1032POPC   C1B16111  15.759  32.870   8.564
 1032POPC   C2B16112  15.754  32.816   8.264
 1032POPC   C3B16113  15.794  32.779   7.964
 1032POPC   C4B16114  15.776  32.873   7.664
 1033POPC   NC316115  32.211  35.346   9.464
 1033POPC   PO416116  32.206  35.371   9.164
 1033POPC   GL116117  32.258  35.306   8.864
 1033POPC   GL216118  32.148  35.304   8.864
 1033POPC   C1A16119  32.250  35.400   8.564
 1033POPC   D2A16120  32.247  35.320   8.264
 1033POPC   C3A16121  32.238  35.390   7.964
 1033POPC   C4A16122  32.200  35.351   7.664
 1033POPC   C1B16123  32.134  35.129   8.564
 1033POPC   C2B16124  32.119  35.125   8.264
 1033POPC   C3B16125  32.081  35.199   7.964
 1033POPC   C4B16126  32.079  35.166   7.664
 1034POPC   NC316127  36.858  34.544   9.464
 1034POPC   PO416128  36.863  34.555   9.164
 1034POPC   GL116129  36.938  34.537   8.864
 1034POPC   GL216130  36.870  34.486   8.864
 1034POPC   C1A16131  36.924  34.601   8.564
 1034POPC   D2A16132  36.860  34.554   8.264
 1034POPC   C3A16133  36.950  34.618   7.964
 1034POPC   C4A16134  36.881  34.542   7.664
 1034POPC   C1B16135  36.884  34.321   8.564
 1034POPC   C2B16136  36.853  34.378   8.264
 1034POPC   C3B16137  36.856  34.373   7.964
 1034POPC   C4B16138  36.796  34.319   7.664
 1035POPC   NC316139   6.689  10.478   9.464
 1035POPC   PO416140   6.623  10.561   9.164
 1035POPC   GL116141   6.611  10.539   8.864
 1035POPC   GL216142   6.763  10.552   8.864
 1035POPC   C1A16143   6.679  10.554   8.564
 1035POPC   D2A16144   6.683  10.484   8.264
 1035POPC   C3A16145   6.652  10.574   7.964
 1035POPC   C4A16146   6.648  10.544   7.664
 1035POPC   C1B16147   6.870  10.584   8.564
 1035POPC   C2B16148   6.882  10.584   8.264
 1035POPC   C3B16149   6.851  10.611   7.964
 1035POPC   C4B16150   6.849  10.593   7.664
 1036POPC   NC316151   6.656  29.100   9.464
 1036POPC   PO416152   6.601  29.114   9.164
 1036POPC   GL116153   6.680  29.164   8.864
 1036POPC   GL216154   6.524  29.247   8.864
 1036POPC   C1A16155   6.614  29.095   8.564
 1036POPC   D2A16156   6.607  29.150   8.264
 1036POPC   C3A16157   6.616  29.123   7.964
 1036POPC   C4A16158   6.669  29.131   7.664
 1036POPC   C1B16159   6.495  29.289   8.564
 1036POPC   C2B16160   6.510  29.302   8.264
 1036POPC   C3B16161   6.536  29.356   7.964
 1036POPC   C4B16162   6.481  29.378   7.664
 1037POPC   NC316163  14.375  24.492   9.464
 1037POPC   PO416164  14.450  24.462   9.164
 1037POPC   GL116165  14.380  24.539   8.864
 1037POPC   GL216166  14.373  24.563   8.864
 1037POPC   C1A16167  14.437  24.488   8.564
 1037POPC   D2A16168  14.433  24.527   8.264
 1037POPC   C3A16169  14.354  24.446   7.964
 1037POPC   C4A16170  14.445  24.479   7.664
 1037POPC   C1B16171  14.293  24.739   8.564
 1037POPC   C2B16172  14.292  24.697   8.264
 1037POPC   C3B16173  14.278  24.744   7.964
 1037POPC   C4B16174  14.363  24.708   7.664
 1038POPC   NC316175  17.468  19.064   9.464
 1038POPC   PO416176  17.547  19.039   9.164
 1038POPC   GL116177  17.498  19.055   8.864
 1038POPC   GL216178  17.449  19.179   8.864
 1038POPC   C1A16179  17.479  19.025   8.564
 1038POPC   D2A16180  17.554  19.017   8.264
 1038POPC   C3A16181  17.512  19.051   7.964
 1038POPC   C4A16182  17.474  19.042   7.664
 1038POPC   C1B16183  17.372  19.211   8.564
 1038POPC   C2B16184  17.294  19.270   8.264
 1038POPC   C3B16185  17.323  19.214   7.964
 1038POPC   C4B16186  17.367  19.224   7.664
 1039POPC   NC316187   7.392  12.099   9.464
 1039POPC   PO416188   7.465  12.070   9.164
 1039POPC   GL116189   7.391  12.096   8.864
 1039POPC   GL216190   7.354  12.154   8.864
 1039POPC   C1A16191   7.463  12.031   8.564
 1039POPC   D2A16192   7.432  12.046   8.264
 1039POPC   C3A16193   7.382  12.080   7.964
 1039POPC   C4A16194   7.412  12.034   7.664
 1039POPC   C1B16195   7.393  12.290   8.564
 1039POPC   C2B16196   7.403  12.275   8.264
 1039POPC   C3B16197   7.404  12.279   7.964
 1039POPC   C4B16198   7.397  12.277   7.664
 1040POPC   NC316199  29.142  36.099   9.464
 1040POPC   PO416200  29.152  36.086   9.164
 1040POPC   GL116201  29.137  36.099   8.864
 1040POPC   GL216202  29.108  36.279   8.864
 1040POPC   C1A16203  29.152  36.132   8.564
 1040POPC   D2A16204  29.113  36.128   8.264
 1040POPC   C3A16205  29.135  36.106   7.964
 1040POPC   C4A16206  29.147  36.131   7.664
 1040POPC   C1B16207  29.039  36.334   8.564
 1040POPC   C2B16208  29.033  36.318   8.264
 1040POPC   C3B16209  29.028  36.376   7.964
 1040POPC   C4B16210  29.089  36.345   7.664
 1041POPC   NC316211  26.024  35.369   9.464
 1041POPC   PO416212  26.088  35.376   9.164
 1041POPC   GL116213  26.055  35.334   8.864
 1041POPC   GL216214  25.951  35.300   8.864
 1041POPC   C1A16215  26.025  35.348   8.564
 1041POPC   D2A16216  26.037  35.347   8.264
 1041POPC   C3A16217  26.064  35.378   7.964
 1041POPC   C4A16218  26.021  35.337   7.664
 1041POPC   C1B16219  25.807  35.318   8.564
 1041POPC   C2B16220  25.804  35.302   8.264
 1041POPC   C3B16221  25.771  35.344   7.964
 1041POPC   C4B16222  25.814  35.332   7.664
 1042POPC   NC316223  43.840   4.342   9.464
 1042POPC   PO416224  43.843   4.319   9.164
 1042POPC   GL116225  43.868   4.341   8.864
 1042POPC   GL216226  43.870   4.435   8.864
 1042POPC   C1A16227  43.862   4.331   8.564
 1042POPC   D2A16228  43.884   4.350   8.264
 1042POPC   C3A16229  43.904   4.318   7.964
 1042POPC   C4A16230  43.917   4.278   7.664
 1042POPC   C1B16231  43.794   4.537   8.564
 1042POPC   C2B16232  43.766   4.547   8.264
 1042POPC   C3B16233  43.735   4.481   7.964
 1042POPC   C4B16234  43.788   4.508   7.664
 1043POPC   NC316235  39.220  44.649   9.464
 1043POPC   PO416236  39.279  44.647   9.164
 1043POPC   GL116237  39.280  44.696   8.864
 1043POPC   GL216238  39.171  44.729   8.864
 1043POPC   C1A16239  39.203  44.641   8.564
 1043POPC   D2A16240  39.190  44.662   8.264
 1043POPC   C3A16241  39.222  44.664   7.964
 1043POPC   C4A16242  39.185  44.694   7.664
 1043POPC   C1B16243  39.002  44.825   8.564
 1043POPC   C2B16244  38.965  44.745   8.264
 1043POPC   C3B16245  38.995  44.814   7.964
 1043POPC   C4B16246  39.049  44.744   7.664
 1044POPC   NC316247   0.450  38.410   9.464
 1044POPC   PO416248   0.420  38.447   9.164
 1044POPC   GL116249   0.487  38.490   8.864
 1044POPC   GL216250   0.520  38.519   8.864
 1044POPC   C1A16251   0.442  38.424   8.564
 1044POPC   D2A16252   0.481  38.478   8.264
 1044POPC   C3A16253   0.409  38.495   7.964
 1044POPC   C4A16254   0.453  38.446   7.664
 1044POPC   C1B16255   0.594  38.723   8.564
 1044POPC   C2B16256   0.510  38.676   8.264
 1044POPC   C3B16257   0.555  38.633   7.964
 1044POPC   C4B16258   0.582  38.650   7.664
 1045POPC   NC316259  40.041  36.131   9.464
 1045POPC   PO416260  40.035  36.084   9.164
 1045POPC   GL116261  40.031  36.168   8.864
 1045POPC   GL216262  40.061  36.042   8.864
 1045POPC   C1A16263  39.996  36.102   8.564
 1045POPC   D2A16264  40.018  36.165   8.264
 1045POPC   C3A16265  40.027  36.104   7.964
 1045POPC   C4A16266  40.046  36.096   7.664
 1045POPC   C1B16267  40.067  35.899   8.564
 1045POPC   C2B16268  40.110  35.923   8.264
 1045POPC   C3B16269  40.121  35.841   7.964
 1045POPC   C4B16270  40.093  35.930   7.664
 1046POPC   NC316271  22.195  23.690   9.464
 1046POPC   PO416272  22.179  23.753   9.164
 1046POPC   GL116273  22.163  23.665   8.864
 1046POPC   GL216274  22.280  23.763   8.864
 1046POPC   C1A16275  22.136  23.715   8.564
 1046POPC   D2A16276  22.137  23.749   8.264
 1046POPC   C3A16277  22.188  23.752   7.964
 1046POPC   C4A16278  22.152  23.692   7.664
 1046POPC   C1B16279  22.455  23.711   8.564
 1046POPC   C2B16280  22.398  23.770   8.264
 1046POPC   C3B16281  22.417  23.768   7.964
 1046POPC   C4B16282  22.439  23.762   7.664
 1047POPC   NC316283  23.725  26.077   9.464
 1047POPC   PO416284  23.679  26.045   9.164
 1047POPC   GL116285  23.718  26.005   8.864
 1047POPC   GL216286  23.799  26.132   8.864
 1047POPC   C1A16287  23.680  26.087   8.564
 1047POPC   D2A16288  23.721  26.041   8.264
 1047POPC   C3A16289  23.762  26.038   7.964
 1047POPC   C4A16290  23.707  26.070   7.664
 1047POPC   C1B16291  23.898  26.280   8.564
 1047POPC   C2B16292  23.850  26.199   8.264
 1047POPC   C3B16293  23.861  26.232   7.964
 1047POPC   C4B16294  23.858  26.252   7.664
 1048POPC   NC316295  21.422  15.909   9.464
 1048POPC   PO416296  21.415  15.984   9.164
 1048POPC   GL116297  21.426  15.939   8.864
 1048POPC   GL216298  21.305  15.927   8.864
 1048POPC   C1A16299  21.387  15.916   8.564
 1048POPC   D2A16300  21.338  15.927   8.264
 1048POPC   C3A16301  21.374  16.000   7.964
 1048POPC   C4A16302  21.355  15.970   7.664
 1048POPC   C1B16303  21.162  15.865   8.564
 1048POPC   C2B16304  21.152  15.873   8.264
 1048POPC   C3B16305  21.189  15.818   7.964
 1048POPC   C4B16306  21.108  15.818   7.664
 1049POPC   NC316307  40.749  19.805   9.464
 1049POPC   PO416308  40.762  19.875   9.164
 1049POPC   GL116309  40.770  19.795   8.864
 1049POPC   GL216310  40.723  19.909   8.864
 1049POPC   C1A16311  40.787  19.825   8.564
 1049POPC   D2A16312  40.808  19.798   8.264
 1049POPC   C3A16313  40.775  19.817   7.964
 1049POPC   C4A16314  40.738  19.849   7.664
 1049POPC   C1B16315  40.691  20.086   8.564
 1049POPC   C2B16316  40.723  20.029   8.264
 1049POPC   C3B16317  40.691  20.037   7.964
 1049POPC   C4B16318  40.708  20.081   7.664
 1050POPC   NC316319  33.800  29.126   9.464
 1050POPC   PO416320  33.833  29.184   9.164
 1050POPC   GL116321  33.835  29.172   8.864
 1050POPC   GL216322  33.900  29.009   8.864
 1050POPC   C1A16323  33.807  29.144   8.564
 1050POPC   D2A16324  33.838  29.134   8.264
 1050POPC   C3A16325  33.831  29.171   7.964
 1050POPC   C4A16326  33.764  29.143   7.664
 1050POPC   C1B16327  33.944  28.918   8.564
 1050POPC   C2B16328  33.978  28.915   8.264
 1050POPC   C3B16329  33.964  29.008   7.964
 1050POPC   C4B16330  33.984  28.962   7.664
 1051POPC   NC316331   6.629   0.481   9.464
 1051POPC   PO416332   6.683   0.459   9.164
 1051POPC   GL116333   6.645   0.434   8.864
 1051POPC   GL216334   6.563   0.499   8.864
 1051POPC   C1A16335   6.605   0.453   8.564
 1051POPC   D2A16336   6.613   0.465   8.264
 1051POPC   C3A16337   6.643   0.414   7.964
 1051POPC   C4A16338   6.691   0.485   7.664
 1051POPC   C1B16339   6.493   0.684   8.564
 1051POPC   C2B16340   6.528   0.611   8.264
 1051POPC   C3B16341   6.557   0.671   7.964
 1051POPC   C4B16342   6.531   0.666   7.664
 1052POPC   NC316343  10.486  12.876   9.464
 1052POPC   PO416344  10.565  12.881   9.164
 1052POPC   GL116345  10.571  12.894   8.864
 1052POPC   GL216346  10.594  12.772   8.864
 1052POPC   C1A16347  10.505  12.844   8.564
 1052POPC   D2A16348  10.545  12.861   8.264
 1052POPC   C3A16349  10.512  12.809   7.964
 1052POPC   C4A16350  10.511  12.855   7.664
 1052POPC   C1B16351  10.572  12.605   8.564
 1052POPC   C2B16352  10.604  12.612   8.264
 1052POPC   C3B16353  10.637  12.595   7.964
 1052POPC   C4B16354  10.649  12.620   7.664
 1053POPC   NC316355  12.062   8.996   9.464
 1053POPC   PO416356  12.108   8.933   9.164
 1053POPC   GL116357  12.066   8.925   8.864
 1053POPC   GL216358  12.176   8.851   8.864
 1053POPC   C1A16359  12.049   9.011   8.564
 1053POPC   D2A16360  12.087   9.001   8.264
 1053POPC   C3A16361  12.072   9.020   7.964
 1053POPC   C4A16362  12.073   8.958   7.664
 1053POPC   C1B16363  12.238   8.769   8.564
 1053POPC   C2B16364  12.272   8.760   8.264
 1053POPC   C3B16365  12.192   8.753   7.964
 1053POPC   C4B16366  12.249   8.797   7.664
 1054POPC   NC316367   6.627  32.269   9.464
 1054POPC   PO416368   6.656  32.250   9.164
 1054POPC   GL116369   6.675  32.203   8.864
 1054POPC   GL216370   6.618  32.387   8.864
 1054POPC   C1A16371   6.685  32.284   8.564
 1054POPC   D2A16372   6.672  32.271   8.264
 1054POPC   C3A16373   6.638  32.271   7.964
 1054POPC   C4A16374   6.616  32.222   7.664
 1054POPC   C1B16375   6.661  32.474   8.564
 1054POPC   C2B16376   6.637  32.467   8.264
 1054POPC   C3B16377   6.639  32.459   7.964
 1054POPC   C4B16378   6.598  32.474   7.664
 1055POPC   NC316379  25.224  26.037   9.464
 1055POPC   PO416380  25.285  26.032   9.164
 1055POPC   GL116381  25.247  26.042   8.864
 1055POPC   GL216382  25.128  26.163   8.864
 1055POPC   C1A16383  25.229  26.063   8.564
 1055POPC   D2A16384  25.237  26.025   8.264
 1055POPC   C3A16385  25.262  26.056   7.964
 1055POPC   C4A16386  25.254  25.994   7.664
 1055POPC   C1B16387  25.078  26.260   8.564
 1055POPC   C2B16388  25.065  26.258   8.264
 1055POPC   C3B16389  25.109  26.260   7.964
 1055POPC   C4B16390  25.105  26.168   7.664
 1056POPC   NC316391  22.127  20.650   9.464
 1056POPC   PO416392  22.174  20.646   9.164
 1056POPC   GL116393  22.205  20.575   8.864
 1056POPC   GL216394  22.242  20.505   8.864
 1056POPC   C1A16395  22.138  20.642   8.564
 1056POPC   D2A16396  22.188  20.644   8.264
 1056POPC   C3A16397  22.139  20.620   7.964
 1056POPC   C4A16398  22.144  20.570   7.664
 1056POPC   C1B16399  22.330  20.368   8.564
 1056POPC   C2B16400  22.331  20.407   8.264
 1056POPC   C3B16401  22.245  20.379   7.964
 1056POPC   C4B16402  22.271  20.443   7.664
 1057POPC   NC316403   6.691  26.809   9.464
 1057POPC   PO416404   6.671  26.805   9.164
 1057POPC   GL116405   6.644  26.809   8.864
 1057POPC   GL216406   6.604  26.895   8.864
 1057POPC   C1A16407   6.603  26.812   8.564
 1057POPC   D2A16408   6.656  26.784   8.264
 1057POPC   C3A16409   6.644  26.801   7.964
 1057POPC   C4A16410   6.649  26.859   7.664
 1057POPC   C1B16411   6.516  27.016   8.564
 1057POPC   C2B16412   6.437  27.037   8.264
 1057POPC   C3B16413   6.504  26.954   7.964
 1057POPC   C4B16414   6.466  27.002   7.664
 1058POPC   NC316415   6.673  20.596   9.464
 1058POPC   PO416416   6.597  20.603   9.164
 1058POPC   GL116417   6.679  20.645   8.864
 1058POPC   GL216418   6.794  20.510   8.864
 1058POPC   C1A16419   6.621  20.581   8.564
 1058POPC   D2A16420   6.664  20.583   8.264
 1058POPC   C3A16421   6.694  20.574   7.964
 1058POPC   C4A16422   6.650  20.633   7.664
 1058POPC   C1B16423   6.838  20.455   8.564
 1058POPC   C2B16424   6.817  20.470   8.264
 1058POPC   C3B16425   6.904  20.478   7.964
 1058POPC   C4B16426   6.830  20.446   7.664
 1059POPC   NC316427  24.467   0.435   9.464
 1059POPC   PO416428  24.448   0.405   9.164
 1059POPC   GL116429  24.524   0.426   8.864
 1059POPC   GL216430  24.414   0.538   8.864
 1059POPC   C1A16431  24.535   0.430   8.564
 1059POPC   D2A16432  24.482   0.397   8.264
 1059POPC   C3A16433  24.458   0.459   7.964
 1059POPC   C4A16434  24.442   0.405   7.664
 1059POPC   C1B16435  24.316   0.579   8.564
 1059POPC   C2B16436  24.335   0.603   8.264
 1059POPC   C3B16437  24.363   0.599   7.964
 1059POPC   C4B16438  24.283   0.584   7.664
 1060POPC   NC316439  40.040  19.877   9.464
 1060POPC   PO416440  40.053  19.869   9.164
 1060POPC   GL116441  40.043  19.861   8.864
 1060POPC   GL216442  39.906  19.862   8.864
 1060POPC   C1A16443  40.035  19.881   8.564
 1060POPC   D2A16444  40.056  19.820   8.264
 1060POPC   C3A16445  40.039  19.820   7.964
 1060POPC   C4A16446  39.965  19.818   7.664
 1060POPC   C1B16447  39.770  19.839   8.564
 1060POPC   C2B16448  39.732  19.784   8.264
 1060POPC   C3B16449  39.756  19.861   7.964
 1060POPC   C4B16450  39.766  19.876   7.664
 1061POPC   NC316451  23.715   7.458   9.464
 1061POPC   PO416452  23.737   7.375   9.164
 1061POPC   GL116453  23.755   7.427   8.864
 1061POPC   GL216454  23.822   7.414   8.864
 1061POPC   C1A16455  23.666   7.418   8.564
 1061POPC   D2A16456  23.730   7.412   8.264
 1061POPC   C3A16457  23.677   7.459   7.964
 1061POPC   C4A16458  23.728   7.389   7.664
 1061POPC   C1B16459  23.965   7.470   8.564
 1061POPC   C2B16460  23.960   7.441   8.264
 1061POPC   C3B16461  23.966   7.495   7.964
 1061POPC   C4B16462  23.938   7.494   7.664
 1062POPC   NC316463  31.459  22.976   9.464
 1062POPC   PO416464  31.481  22.952   9.164
 1062POPC   GL116465  31.498  22.955   8.864
 1062POPC   GL216466  31.546  22.824   8.864
 1062POPC   C1A16467  31.468  22.958   8.564
 1062POPC   D2A16468  31.476  22.907   8.264
 1062POPC   C3A16469  31.452  22.959   7.964
 1062POPC   C4A16470  31.457  22.956   7.664
 1062POPC   C1B16471  31.666  22.750   8.564
 1062POPC   C2B16472  31.685  22.836   8.264
 1062POPC   C3B16473  31.676  22.762   7.964
 1062POPC   C4B16474  31.663  22.785   7.664
 1063POPC   NC316475  40.022   6.657   9.464
 1063POPC   PO416476  39.991   6.674   9.164
 1063POPC   GL116477  39.994   6.614   8.864
 1063POPC   GL216478  39.982   6.488   8.864
 1063POPC   C1A16479  40.041   6.619   8.564
 1063POPC   D2A16480  39.960   6.649   8.264
 1063POPC   C3A16481  39.978   6.595   7.964
 1063POPC   C4A16482  40.054   6.665   7.664
 1063POPC   C1B16483  39.915   6.367   8.564
 1063POPC   C2B16484  39.936   6.439   8.264
 1063POPC   C3B16485  39.949   6.435   7.964
 1063POPC   C4B16486  39.968   6.397   7.664
 1064POPC   NC316487   9.763  13.587   9.464
 1064POPC   PO416488   9.785  13.629   9.164
 1064POPC   GL116489   9.794  13.579   8.864
 1064POPC   GL216490   9.825  13.609   8.864
 1064POPC   C1A16491   9.726  13.662   8.564
 1064POPC   D2A16492   9.717  13.629   8.264
 1064POPC   C3A16493   9.729  13.630   7.964
 1064POPC   C4A16494   9.738  13.651   7.664
 1064POPC   C1B16495   9.969  13.481   8.564
 1064POPC   C2B16496   9.962  13.487   8.264
 1064POPC   C3B16497   9.935  13.505   7.964
 1064POPC   C4B16498  10.004  13.557   7.664
 1065POPC   NC316499  15.179  15.974   9.464
 1065POPC   PO416500  15.167  16.001   9.164
 1065POPC   GL116501  15.193  15.956   8.864
 1065POPC   GL216502  15.256  15.834   8.864
 1065POPC   C1A16503  15.147  15.986   8.564
 1065POPC   D2A16504  15.215  15.994   8.264
 1065POPC   C3A16505  15.199  15.922   7.964
 1065POPC   C4A16506  15.173  15.947   7.664
 1065POPC   C1B16507  15.416  15.860   8.564
 1065POPC   C2B16508  15.344  15.843   8.264
 1065POPC   C3B16509  15.406  15.806   7.964
 1065POPC   C4B16510  15.353  15.795   7.664
 1066POPC   NC316511  37.671  18.312   9.464
 1066POPC   PO416512  37.689  18.291   9.164
 1066POPC   GL116513  37.710  18.248   8.864
 1066POPC   GL216514  37.698  18.184   8.864
 1066POPC   C1A16515  37.660  18.312   8.564
 1066POPC   D2A16516  37.706  18.308   8.264
 1066POPC   C3A16517  37.635  18.295   7.964
 1066POPC   C4A16518  37.658  18.274   7.664
 1066POPC   C1B16519  37.700  18.035   8.564
 1066POPC   C2B16520  37.637  18.000   8.264
 1066POPC   C3B16521  37.653  18.078   7.964
 1066POPC   C4B16522  37.643  18.015   7.664
 1067POPC   NC316523  32.988  42.373   9.464
 1067POPC   PO416524  33.040  42.319   9.164
 1067POPC   GL116525  33.007  42.381   8.864
 1067POPC   GL216526  33.125  42.225   8.864
 1067POPC   C1A16527  33.012  42.296   8.564
 1067POPC   D2A16528  33.051  42.384   8.264
 1067POPC   C3A16529  33.033  42.341   7.964
 1067POPC   C4A16530  32.979  42.368   7.664
 1067POPC   C1B16531  33.184  42.112   8.564
 1067POPC   C2B16532  33.119  42.129   8.264
 1067POPC   C3B16533  33.133  42.101   7.964
 1067POPC   C4B16534  33.135  42.125   7.664
 1068POPC   NC316535  36.896   8.155   9.464
 1068POPC   PO416536  36.952   8.222   9.164
 1068POPC   GL116537  36.939   8.216   8.864
 1068POPC   GL216538  37.037   8.270   8.864
 1068POPC   C1A16539  36.889   8.217   8.564
 1068POPC   D2A16540  36.953   8.151   8.264
 1068POPC   C3A16541  36.869   8.246   7.964
 1068POPC   C4A16542  36.923   8.185   7.664
 1068POPC   C1B16543  37.074   8.391   8.564
 1068POPC   C2B16544  37.055   8.393   8.264
 1068POPC   C3B16545  37.045   8.391   7.964
 1068POPC   C4B16546  37.124   8.357   7.664
 1069POPC   NC316547  17.555  17.551   9.464
 1069POPC   PO416548  17.550  17.528   9.164
 1069POPC   GL116549  17.502  17.507   8.864
 1069POPC   GL216550  17.664  17.517   8.864
 1069POPC   C1A16551  17.506  17.492   8.564
 1069POPC   D2A16552  17.478  17.474   8.264
 1069POPC   C3A16553  17.468  17.515   7.964
 1069POPC   C4A16554  17.489  17.492   7.664
 1069POPC   C1B16555  17.784  17.536   8.564
 1069POPC   C2B16556  17.726  17.619   8.264
 1069POPC   C3B16557  17.779  17.584   7.964
 1069POPC   C4B16558  17.787  17.573   7.664
 1070POPC   NC316559  29.943  40.035   9.464
 1070POPC   PO416560  29.932  39.989   9.164
 1070POPC   GL116561  29.957  40.048   8.864
 1070POPC   GL216562  29.947  39.920   8.864
 1070POPC   C1A16563  29.970  39.972   8.564
 1070POPC   D2A16564  29.902  40.048   8.264
 1070POPC   C3A16565  29.896  39.992   7.964
 1070POPC   C4A16566  29.948  40.019   7.664
 1070POPC   C1B16567  29.928  39.783   8.564
 1070POPC   C2B16568  29.976  39.741   8.264
 1070POPC   C3B16569  29.896  39.775   7.964
 1070POPC   C4B16570  29.941  39.745   7.664
 1071POPC   NC316571  26.025  44.634   9.464
 1071POPC   PO416572  26.030  44.633   9.164
 1071POPC   GL116573  26.001  44.637   8.864
 1071POPC   GL216574  25.924  44.588   8.864
 1071POPC   C1A16575  26.057  44.628   8.564
 1071POPC   D2A16576  26.057  44.670   8.264
 1071POPC   C3A16577  26.071  44.664   7.964
 1071POPC   C4A16578  26.044  44.636   7.664
 1071POPC   C1B16579  25.768  44.568   8.564
 1071POPC   C2B16580  25.805  44.606   8.264
 1071POPC   C3B16581  25.817  44.583   7.964
 1071POPC   C4B16582  25.833  44.603   7.664
 1072POPC   NC316583  14.372  23.755   9.464
 1072POPC   PO416584  14.423  23.757   9.164
 1072POPC   GL116585  14.451  23.737   8.864
 1072POPC   GL216586  14.436  23.585   8.864
 1072POPC   C1A16587  14.393  23.701   8.564
 1072POPC   D2A16588  14.372  23.681   8.264
 1072POPC   C3A16589  14.399  23.687   7.964
 1072POPC   C4A16590  14.447  23.752   7.664
 1072POPC   C1B16591  14.542  23.475   8.564
 1072POPC   C2B16592  14.472  23.532   8.264
 1072POPC   C3B16593  14.519  23.468   7.964
 1072POPC   C4B16594  14.513  23.451   7.664
 1073POPC   NC316595  22.936  42.381   9.464
 1073POPC   PO416596  22.924  42.334   9.164
 1073POPC   GL116597  22.901  42.315   8.864
 1073POPC   GL216598  22.960  42.230   8.864
 1073POPC   C1A16599  22.933  42.367   8.564
 1073POPC   D2A16600  22.961  42.377   8.264
 1073POPC   C3A16601  22.915  42.328   7.964
 1073POPC   C4A16602  22.912  42.298   7.664
 1073POPC   C1B16603  22.995  42.117   8.564
 1073POPC   C2B16604  22.976  42.067   8.264
 1073POPC   C3B16605  22.965  42.053   7.964
 1073POPC   C4B16606  23.029  42.093   7.664
 1074POPC   NC316607  40.739  40.004   9.464
 1074POPC   PO416608  40.739  39.964   9.164
 1074POPC   GL116609  40.804  40.055   8.864
 1074POPC   GL216610  40.881  39.910   8.864
 1074POPC   C1A16611  40.805  40.020   8.564
 1074POPC   D2A16612  40.823  40.050   8.264
 1074POPC   C3A16613  40.786  40.040   7.964
 1074POPC   C4A16614  40.770  40.055   7.664
 1074POPC   C1B16615  40.933  39.796   8.564
 1074POPC   C2B16616  40.932  39.874   8.264
 1074POPC   C3B16617  41.002  39.817   7.964
 1074POPC   C4B16618  40.986  39.832   7.664
 1075POPC   NC316619  37.723  37.648   9.464
 1075POPC   PO416620  37.710  37.724   9.164
 1075POPC   GL116621  37.725  37.684   8.864
 1075POPC   GL216622  37.782  37.738   8.864
 1075POPC   C1A16623  37.695  37.634   8.564
 1075POPC   D2A16624  37.676  37.724   8.264
 1075POPC   C3A16625  37.688  37.708   7.964
 1075POPC   C4A16626  37.651  37.681   7.664
 1075POPC   C1B16627  37.858  37.910   8.564
 1075POPC   C2B16628  37.861  37.883   8.264
 1075POPC   C3B16629  37.809  37.868   7.964
 1075POPC   C4B16630  37.804  37.906   7.664
 1076POPC   NC316631  37.631  38.478   9.464
 1076POPC   PO416632  37.702  38.455   9.164
 1076POPC   GL116633  37.656  38.488   8.864
 1076POPC   GL216634  37.768  38.546   8.864
 1076POPC   C1A16635  37.692  38.456   8.564
 1076POPC   D2A16636  37.645  38.437   8.264
 1076POPC   C3A16637  37.667  38.419   7.964
 1076POPC   C4A16638  37.707  38.495   7.664
 1076POPC   C1B16639  37.742  38.644   8.564
 1076POPC   C2B16640  37.733  38.653   8.264
 1076POPC   C3B16641  37.777  38.697   7.964
 1076POPC   C4B16642  37.728  38.667   7.664
 1077POPC   NC316643   9.742   9.786   9.464
 1077POPC   PO416644   9.766   9.755   9.164
 1077POPC   GL116645   9.781   9.797   8.864
 1077POPC   GL216646   9.634   9.726   8.864
 1077POPC   C1A16647   9.787   9.784   8.564
 1077POPC   D2A16648   9.773   9.778   8.264
 1077POPC   C3A16649   9.721   9.701   7.964
 1077POPC   C4A16650   9.760   9.731   7.664
 1077POPC   C1B16651   9.482   9.720   8.564
 1077POPC   C2B16652   9.516   9.677   8.264
 1077POPC   C3B16653   9.544   9.679   7.964
 1077POPC   C4B16654   9.515   9.684   7.664
 1078POPC   NC316655  16.682  27.629   9.464
 1078POPC   PO416656  16.755  27.633   9.164
 1078POPC   GL116657  16.723  27.615   8.864
 1078POPC   GL216658  16.807  27.519   8.864
 1078POPC   C1A16659  16.769  27.555   8.564
 1078POPC   D2A16660  16.683  27.561   8.264
 1078POPC   C3A16661  16.682  27.639   7.964
 1078POPC   C4A16662  16.714  27.623   7.664
 1078POPC   C1B16663  16.933  27.538   8.564
 1078POPC   C2B16664  17.007  27.461   8.264
 1078POPC   C3B16665  16.999  27.466   7.964
 1078POPC   C4B16666  16.917  27.507   7.664
 1079POPC   NC316667   1.171   5.824   9.464
 1079POPC   PO416668   1.225   5.857   9.164
 1079POPC   GL116669   1.166   5.887   8.864
 1079POPC   GL216670   1.266   5.732   8.864
 1079POPC   C1A16671   1.172   5.907   8.564
 1079POPC   D2A16672   1.194   5.912   8.264
 1079POPC   C3A16673   1.219   5.902   7.964
 1079POPC   C4A16674   1.197   5.883   7.664
 1079POPC   C1B16675   1.347   5.640   8.564
 1079POPC   C2B16676   1.385   5.674   8.264
 1079POPC   C3B16677   1.333   5.624   7.964
 1079POPC   C4B16678   1.353   5.632   7.664
 1080POPC   NC316679  41.559  10.487   9.464
 1080POPC   PO416680  41.525  10.479   9.164
 1080POPC   GL116681  41.558  10.546   8.864
 1080POPC   GL216682  41.485  10.683   8.864
 1080POPC   C1A16683  41.515  10.539   8.564
 1080POPC   D2A16684  41.546  10.565   8.264
 1080POPC   C3A16685  41.518  10.516   7.964
 1080POPC   C4A16686  41.571  10.526   7.664
 1080POPC   C1B16687  41.452  10.742   8.564
 1080POPC   C2B16688  41.472  10.768   8.264
 1080POPC   C3B16689  41.508  10.775   7.964
 1080POPC   C4B16690  41.497  10.737   7.664
 1081POPC   NC316691  16.755  26.775   9.464
 1081POPC   PO416692  16.705  26.859   9.164
 1081POPC   GL116693  16.734  26.806   8.864
 1081POPC   GL216694  16.707  26.726   8.864
 1081POPC   C1A16695  16.730  26.812   8.564
 1081POPC   D2A16696  16.724  26.782   8.264
 1081POPC   C3A16697  16.717  26.800   7.964
 1081POPC   C4A16698  16.757  26.818   7.664
 1081POPC   C1B16699  16.629  26.590   8.564
 1081POPC   C2B16700  16.629  26.568   8.264
 1081POPC   C3B16701  16.610  26.626   7.964
 1081POPC   C4B16702  16.621  26.536   7.664
 1082POPC   NC316703   9.706  29.119   9.464
 1082POPC   PO416704   9.728  29.153   9.164
 1082POPC   GL116705   9.740  29.175   8.864
 1082POPC   GL216706   9.740  29.224   8.864
 1082POPC   C1A16707   9.739  29.164   8.564
 1082POPC   D2A16708   9.742  29.164   8.264
 1082POPC   C3A16709   9.784  29.108   7.964
 1082POPC   C4A16710   9.721  29.182   7.664
 1082POPC   C1B16711   9.775  29.435   8.564
 1082POPC   C2B16712   9.726  29.425   8.264
 1082POPC   C3B16713   9.766  29.434   7.964
 1082POPC   C4B16714   9.779  29.405   7.664
 1083POPC   NC316715   1.984  19.806   9.464
 1083POPC   PO416716   1.942  19.817   9.164
 1083POPC   GL116717   1.978  19.804   8.864
 1083POPC   GL216718   1.966  19.736   8.864
 1083POPC   C1A16719   2.013  19.846   8.564
 1083POPC   D2A16720   2.026  19.849   8.264
 1083POPC   C3A16721   2.006  19.842   7.964
 1083POPC   C4A16722   1.940  19.826   7.664
 1083POPC   C1B16723   1.985  19.546   8.564
 1083POPC   C2B16724   1.966  19.553   8.264
 1083POPC   C3B16725   1.977  19.538   7.964
 1083POPC   C4B16726   2.038  19.557   7.664
 1084POPC   NC316727   8.924  26.855   9.464
 1084POPC   PO416728   9.002  26.824   9.164
 1084POPC   GL116729   8.998  26.842   8.864
 1084POPC   GL216730   9.076  26.882   8.864
 1084POPC   C1A16731   8.944  26.829   8.564
 1084POPC   D2A16732   8.967  26.845   8.264
 1084POPC   C3A16733   8.959  26.853   7.964
 1084POPC   C4A16734   9.018  26.860   7.664
 1084POPC   C1B16735   9.254  26.840   8.564
 1084POPC   C2B16736   9.171  26.863   8.264
 1084POPC   C3B16737   9.249  26.820   7.964
 1084POPC   C4B16738   9.267  26.849   7.664
 1085POPC   NC316739  39.222  41.571   9.464
 1085POPC   PO416740  39.201  41.529   9.164
 1085POPC   GL116741  39.269  41.586   8.864
 1085POPC   GL216742  39.391  41.574   8.864
 1085POPC   C1A16743  39.196  41.597   8.564
 1085POPC   D2A16744  39.218  41.596   8.264
 1085POPC   C3A16745  39.184  41.575   7.964
 1085POPC   C4A16746  39.184  41.581   7.664
 1085POPC   C1B16747  39.481  41.639   8.564
 1085POPC   C2B16748  39.423  41.610   8.264
 1085POPC   C3B16749  39.467  41.633   7.964
 1085POPC   C4B16750  39.473  41.678   7.664
 1086POPC   NC316751  24.441  40.028   9.464
 1086POPC   PO416752  24.534  40.048   9.164
 1086POPC   GL116753  24.532  39.966   8.864
 1086POPC   GL216754  24.639  40.032   8.864
 1086POPC   C1A16755  24.468  40.006   8.564
 1086POPC   D2A16756  24.515  39.969   8.264
 1086POPC   C3A16757  24.455  40.037   7.964
 1086POPC   C4A16758  24.491  39.973   7.664
 1086POPC   C1B16759  24.679  40.109   8.564
 1086POPC   C2B16760  24.665  40.145   8.264
 1086POPC   C3B16761  24.659  40.121   7.964
 1086POPC   C4B16762  24.717  40.127   7.664
 1087POPC   NC316763  12.886  32.234   9.464
 1087POPC   PO416764  12.897  32.237   9.164
 1087POPC   GL116765  12.833  32.287   8.864
 1087POPC   GL216766  12.754  32.221   8.864
 1087POPC   C1A16767  12.862  32.244   8.564
 1087POPC   D2A16768  12.825  32.291   8.264
 1087POPC   C3A16769  12.806  32.275   7.964
 1087POPC   C4A16770  12.853  32.285   7.664
 1087POPC   C1B16771  12.584  32.170   8.564
 1087POPC   C2B16772  12.588  32.182   8.264
 1087POPC   C3B16773  12.610  32.129   7.964
 1087POPC   C4B16774  12.635  32.119   7.664
 1088POPC   NC316775  34.536  40.012   9.464
 1088POPC   PO416776  34.550  40.020   9.164
 1088POPC   GL116777  34.572  39.994   8.864
 1088POPC   GL216778  34.683  39.996   8.864
 1088POPC   C1A16779  34.589  40.019   8.564
 1088POPC   D2A16780  34.579  40.033   8.264
 1088POPC   C3A16781  34.612  40.055   7.964
 1088POPC   C4A16782  34.566  39.971   7.664
 1088POPC   C1B16783  34.842  39.852   8.564
 1088POPC   C2B16784  34.818  39.864   8.264
 1088POPC   C3B16785  34.768  39.934   7.964
 1088POPC   C4B16786  34.851  39.885   7.664
 1089POPC   NC316787  38.471  12.844   9.464
 1089POPC   PO416788  38.480  12.885   9.164
 1089POPC   GL116789  38.434  12.803   8.864
 1089POPC   GL216790  38.453  12.979   8.864
 1089POPC   C1A16791  38.464  12.891   8.564
 1089POPC   D2A16792  38.424  12.846   8.264
 1089POPC   C3A16793  38.413  12.809   7.964
 1089POPC   C4A16794  38.452  12.845   7.664
 1089POPC   C1B16795  38.403  13.110   8.564
 1089POPC   C2B16796  38.343  13.094   8.264
 1089POPC   C3B16797  38.426  13.130   7.964
 1089POPC   C4B16798  38.335  13.140   7.664
 1090POPC   NC316799  29.929   2.725   9.464
 1090POPC   PO416800  29.916   2.743   9.164
 1090POPC   GL116801  29.962   2.753   8.864
 1090POPC   GL216802  29.938   2.619   8.864
 1090POPC   C1A16803  29.894   2.747   8.564
 1090POPC   D2A16804  29.934   2.745   8.264
 1090POPC   C3A16805  29.922   2.752   7.964
 1090POPC   C4A16806  29.961   2.800   7.664
 1090POPC   C1B16807  29.909   2.539   8.564
 1090POPC   C2B16808  29.898   2.506   8.264
 1090POPC   C3B16809  29.931   2.547   7.964
 1090POPC   C4B16810  29.934   2.469   7.664
 1091POPC   NC316811   4.350  13.597   9.464
 1091POPC   PO416812   4.364  13.625   9.164
 1091POPC   GL116813   4.309  13.630   8.864
 1091POPC   GL216814   4.467  13.628   8.864
 1091POPC   C1A16815   4.284  13.675   8.564
 1091POPC   D2A16816   4.312  13.610   8.264
 1091POPC   C3A16817   4.291  13.647   7.964
 1091POPC   C4A16818   4.278  13.646   7.664
 1091POPC   C1B16819   4.551  13.694   8.564
 1091POPC   C2B16820   4.581  13.673   8.264
 1091POPC   C3B16821   4.543  13.685   7.964
 1091POPC   C4B16822   4.529  13.637   7.664
 1092POPC   NC316823  10.486  41.520   9.464
 1092POPC   PO416824  10.555  41.517   9.164
 1092POPC   GL116825  10.496  41.566   8.864
 1092POPC   GL216826  10.553  41.440   8.864
 1092POPC   C1A16827  10.567  41.521   8.564
 1092POPC   D2A16828  10.566  41.572   8.264
 1092POPC   C3A16829  10.484  41.584   7.964
 1092POPC   C4A16830  10.538  41.591   7.664
 1092POPC   C1B16831  10.559  41.315   8.564
 1092POPC   C2B16832  10.515  41.291   8.264
 1092POPC   C3B16833  10.600  41.289   7.964
 1092POPC   C4B16834  10.530  41.325   7.664
 1093POPC   NC316835  30.743  30.727   9.464
 1093POPC   PO416836  30.706  30.734   9.164
 1093POPC   GL116837  30.728  30.741   8.864
 1093POPC   GL216838  30.749  30.773   8.864
 1093POPC   C1A16839  30.743  30.737   8.564
 1093POPC   D2A16840  30.667  30.652   8.264
 1093POPC   C3A16841  30.712  30.703   7.964
 1093POPC   C4A16842  30.677  30.676   7.664
 1093POPC   C1B16843  30.721  30.986   8.564
 1093POPC   C2B16844  30.660  30.971   8.264
 1093POPC   C3B16845  30.725  30.959   7.964
 1093POPC   C4B16846  30.678  30.991   7.664
 1094POPC   NC316847  29.176  40.769   9.464
 1094POPC   PO416848  29.134  40.753   9.164
 1094POPC   GL116849  29.120  40.769   8.864
 1094POPC   GL216850  29.268  40.771   8.864
 1094POPC   C1A16851  29.138  40.743   8.564
 1094POPC   D2A16852  29.186  40.767   8.264
 1094POPC   C3A16853  29.171  40.737   7.964
 1094POPC   C4A16854  29.111  40.763   7.664
 1094POPC   C1B16855  29.377  40.709   8.564
 1094POPC   C2B16856  29.404  40.709   8.264
 1094POPC   C3B16857  29.366  40.714   7.964
 1094POPC   C4B16858  29.364  40.648   7.664
 1095POPC   NC316859  34.602  15.938   9.464
 1095POPC   PO416860  34.577  15.924   9.164
 1095POPC   GL116861  34.538  15.978   8.864
 1095POPC   GL216862  34.451  15.882   8.864
 1095POPC   C1A16863  34.537  15.947   8.564
 1095POPC   D2A16864  34.601  15.921   8.264
 1095POPC   C3A16865  34.566  15.950   7.964
 1095POPC   C4A16866  34.533  15.990   7.664
 1095POPC   C1B16867  34.341  15.848   8.564
 1095POPC   C2B16868  34.346  15.843   8.264
 1095POPC   C3B16869  34.338  15.871   7.964
 1095POPC   C4B16870  34.357  15.895   7.664
 1096POPC   NC316871  41.522  13.666   9.464
 1096POPC   PO416872  41.539  13.610   9.164
 1096POPC   GL116873  41.534  13.596   8.864
 1096POPC   GL216874  41.673  13.522   8.864
 1096POPC   C1A16875  41.524  13.676   8.564
 1096POPC   D2A16876  41.568  13.628   8.264
 1096POPC   C3A16877  41.595  13.637   7.964
 1096POPC   C4A16878  41.567  13.675   7.664
 1096POPC   C1B16879  41.746  13.457   8.564
 1096POPC   C2B16880  41.745  13.507   8.264
 1096POPC   C3B16881  41.759  13.500   7.964
 1096POPC   C4B16882  41.760  13.513   7.664
 1097POPC   NC316883  26.070  40.803   9.464
 1097POPC   PO416884  26.000  40.795   9.164
 1097POPC   GL116885  26.053  40.801   8.864
 1097POPC   GL216886  26.170  40.739   8.864
 1097POPC   C1A16887  26.032  40.805   8.564
 1097POPC   D2A16888  26.004  40.813   8.264
 1097POPC   C3A16889  26.048  40.779   7.964
 1097POPC   C4A16890  26.046  40.771   7.664
 1097POPC   C1B16891  26.240  40.788   8.564
 1097POPC   C2B16892  26.300  40.709   8.264
 1097POPC   C3B16893  26.250  40.755   7.964
 1097POPC   C4B16894  26.267  40.699   7.664
 1098POPC   NC316895  12.900  41.527   9.464
 1098POPC   PO416896  12.814  41.577   9.164
 1098POPC   GL116897  12.875  41.510   8.864
 1098POPC   GL216898  12.845  41.684   8.864
 1098POPC   C1A16899  12.844  41.575   8.564
 1098POPC   D2A16900  12.841  41.525   8.264
 1098POPC   C3A16901  12.889  41.582   7.964
 1098POPC   C4A16902  12.852  41.607   7.664
 1098POPC   C1B16903  12.809  41.838   8.564
 1098POPC   C2B16904  12.801  41.848   8.264
 1098POPC   C3B16905  12.886  41.792   7.964
 1098POPC   C4B16906  12.871  41.855   7.664
 1099POPC   NC316907  29.129  26.028   9.464
 1099POPC   PO416908  29.115  26.082   9.164
 1099POPC   GL116909  29.175  26.056   8.864
 1099POPC   GL216910  29.233  26.081   8.864
 1099POPC   C1A16911  29.166  26.042   8.564
 1099POPC   D2A16912  29.095  26.010   8.264
 1099POPC   C3A16913  29.187  26.051   7.964
 1099POPC   C4A16914  29.142  26.023   7.664
 1099POPC   C1B16915  29.401  26.085   8.564
 1099POPC   C2B16916  29.403  26.061   8.264
 1099POPC   C3B16917  29.423  26.095   7.964
 1099POPC   C4B16918  29.417  26.120   7.664
 1100POPC   NC316919   7.431  23.698   9.464
 1100POPC   PO416920   7.383  23.698   9.164
 1100POPC   GL116921   7.398  23.667   8.864
 1100POPC   GL216922   7.453  23.588   8.864
 1100POPC   C1A16923   7.459  23.686   8.564
 1100POPC   D2A16924   7.420  23.712   8.264
 1100POPC   C3A16925   7.410  23.688   7.964
 1100POPC   C4A16926   7.381  23.724   7.664
 1100POPC   C1B16927   7.493  23.471   8.564
 1100POPC   C2B16928   7.486  23.436   8.264
 1100POPC   C3B16929   7.491  23.485   7.964
 1100POPC   C4B16930   7.481  23.432   7.664
 1101POPC   NC316931  21.398  43.921   9.464
 1101POPC   PO416932  21.362  43.928   9.164
 1101POPC   GL116933  21.380  43.935   8.864
 1101POPC   GL216934  21.359  43.789   8.864
 1101POPC   C1A16935  21.376  43.854   8.564
 1101POPC   D2A16936  21.386  43.909   8.264
 1101POPC   C3A16937  21.417  43.924   7.964
 1101POPC   C4A16938  21.368  43.921   7.664
 1101POPC   C1B16939  21.270  43.647   8.564
 1101POPC   C2B16940  21.337  43.617   8.264
 1101POPC   C3B16941  21.324  43.681   7.964
 1101POPC   C4B16942  21.264  43.610   7.664
 1102POPC   NC316943  33.830   3.552   9.464
 1102POPC   PO416944  33.800   3.507   9.164
 1102POPC   GL116945  33.787   3.493   8.864
 1102POPC   GL216946  33.779   3.465   8.864
 1102POPC   C1A16947  33.780   3.499   8.564
 1102POPC   D2A16948  33.795   3.532   8.264
 1102POPC   C3A16949  33.823   3.548   7.964
 1102POPC   C4A16950  33.776   3.517   7.664
 1102POPC   C1B16951  33.776   3.299   8.564
 1102POPC   C2B16952  33.779   3.315   8.264
 1102POPC   C3B16953  33.799   3.283   7.964
 1102POPC   C4B16954  33.769   3.244   7.664
 1103POPC   NC316955  10.548   3.537   9.464
 1103POPC   PO416956  10.515   3.496   9.164
 1103POPC   GL116957  10.519   3.542   8.864
 1103POPC   GL216958  10.534   3.419   8.864
 1103POPC   C1A16959  10.494   3.503   8.564
 1103POPC   D2A16960  10.516   3.570   8.264
 1103POPC   C3A16961  10.493   3.558   7.964
 1103POPC   C4A16962  10.488   3.534   7.664
 1103POPC   C1B16963  10.471   3.248   8.564
 1103POPC   C2B16964  10.535   3.280   8.264
 1103POPC   C3B16965  10.523   3.323   7.964
 1103POPC   C4B16966  10.480   3.256   7.664
 1104POPC   NC316967  12.813  10.521   9.464
 1104POPC   PO416968  12.869  10.525   9.164
 1104POPC   GL116969  12.869  10.540   8.864
 1104POPC   GL216970  12.916  10.667   8.864
 1104POPC   C1A16971  12.859  10.508   8.564
 1104POPC   D2A16972  12.870  10.503   8.264
 1104POPC   C3A16973  12.898  10.515   7.964
 1104POPC   C4A16974  12.898  10.539   7.664
 1104POPC   C1B16975  13.032  10.717   8.564
 1104POPC   C2B16976  12.974  10.763   8.264
 1104POPC   C3B16977  12.966  10.705   7.964
 1104POPC   C4B16978  13.036  10.688   7.664
 1105POPC   NC316979  33.804  12.892   9.464
 1105POPC   PO416980  33.794  12.859   9.164
 1105POPC   GL116981  33.796  12.854   8.864
 1105POPC   GL216982  33.785  12.998   8.864
 1105POPC   C1A16983  33.834  12.824   8.564
 1105POPC   D2A16984  33.773  12.836   8.264
 1105POPC   C3A16985  33.809  12.858   7.964
 1105POPC   C4A16986  33.844  12.820   7.664
 1105POPC   C1B16987  33.709  13.078   8.564
 1105POPC   C2B16988  33.661  13.070   8.264
 1105POPC   C3B16989  33.674  13.059   7.964
 1105POPC   C4B16990  33.652  13.067   7.664
 1106POPC   NC316991  19.029  10.528   9.464
 1106POPC   PO416992  19.095  10.490   9.164
 1106POPC   GL116993  19.099  10.513   8.864
 1106POPC   GL216994  19.180  10.409   8.864
 1106POPC   C1A16995  19.034  10.539   8.564
 1106POPC   D2A16996  19.066  10.541   8.264
 1106POPC   C3A16997  19.087  10.554   7.964
 1106POPC   C4A16998  19.018  10.494   7.664
 1106POPC   C1B16999  19.235  10.387   8.564
 1106POPC   C2B17000  19.263  10.306   8.264
 1106POPC   C3B17001  19.263  10.363   7.964
 1106POPC   C4B17002  19.219  10.341   7.664
 1107POPC   NC317003  10.523  32.256   9.464
 1107POPC   PO417004  10.566  32.251   9.164
 1107POPC   GL117005  10.515  32.202   8.864
 1107POPC   GL217006  10.664  32.342   8.864
 1107POPC   C1A17007  10.546  32.260   8.564
 1107POPC   D2A17008  10.486  32.230   8.264
 1107POPC   C3A17009  10.510  32.257   7.964
 1107POPC   C4A17010  10.484  32.199   7.664
 1107POPC   C1B17011  10.720  32.323   8.564
 1107POPC   C2B17012  10.744  32.344   8.264
 1107POPC   C3B17013  10.734  32.363   7.964
 1107POPC   C4B17014  10.715  32.328   7.664
 1108POPC   NC317015   8.171   7.385   9.464
 1108POPC   PO417016   8.208   7.391   9.164
 1108POPC   GL117017   8.236   7.394   8.864
 1108POPC   GL217018   8.223   7.543   8.864
 1108POPC   C1A17019   8.160   7.434   8.564
 1108POPC   D2A17020   8.194   7.435   8.264
 1108POPC   C3A17021   8.245   7.380   7.964
 1108POPC   C4A17022   8.210   7.371   7.664
 1108POPC   C1B17023   8.260   7.675   8.564
 1108POPC   C2B17024   8.251   7.627   8.264
 1108POPC   C3B17025   8.271   7.680   7.964
 1108POPC   C4B17026   8.240   7.662   7.664
 1109POPC   NC317027  22.127  43.090   9.464
 1109POPC   PO417028  22.160  43.108   9.164
 1109POPC   GL117029  22.119  43.121   8.864
 1109POPC   GL217030  22.332  43.101   8.864
 1109POPC   C1A17031  22.196  43.091   8.564
 1109POPC   D2A17032  22.169  43.087   8.264
 1109POPC   C3A17033  22.193  43.104   7.964
 1109POPC   C4A17034  22.153  43.158   7.664
 1109POPC   C1B17035  22.435  43.050   8.564
 1109POPC   C2B17036  22.366  43.117   8.264
 1109POPC   C3B17037  22.440  43.095   7.964
 1109POPC   C4B17038  22.456  43.106   7.664
 1110POPC   NC317039  15.218   1.182   9.464
 1110POPC   PO417040  15.216   1.260   9.164
 1110POPC   GL117041  15.184   1.231   8.864
 1110POPC   GL217042  15.195   1.086   8.864
 1110POPC   C1A17043  15.143   1.168   8.564
 1110POPC   D2A17044  15.167   1.254   8.264
 1110POPC   C3A17045  15.198   1.238   7.964
 1110POPC   C4A17046  15.215   1.224   7.664
 1110POPC   C1B17047  15.161   0.916   8.564
 1110POPC   C2B17048  15.200   0.961   8.264
 1110POPC   C3B17049  15.145   0.939   7.964
 1110POPC   C4B17050  15.211   0.923   7.664
 1111POPC   NC317051  14.373   0.452   9.464
 1111POPC   PO417052  14.451   0.414   9.164
 1111POPC   GL117053  14.357   0.395   8.864
 1111POPC   GL217054  14.503   0.331   8.864
 1111POPC   C1A17055  14.377   0.419   8.564
 1111POPC   D2A17056  14.403   0.457   8.264
 1111POPC   C3A17057  14.394   0.421   7.964
 1111POPC   C4A17058  14.405   0.452   7.664
 1111POPC   C1B17059  14.459   0.255   8.564
 1111POPC   C2B17060  14.458   0.224   8.264
 1111POPC   C3B17061  14.534   0.211   7.964
 1111POPC   C4B17062  14.546   0.225   7.664
 1112POPC   NC317063   8.210  22.162   9.464
 1112POPC   PO417064   8.218  22.159   9.164
 1112POPC   GL117065   8.186  22.114   8.864
 1112POPC   GL217066   8.150  22.292   8.864
 1112POPC   C1A17067   8.190  22.126   8.564
 1112POPC   D2A17068   8.216  22.164   8.264
 1112POPC   C3A17069   8.237  22.211   7.964
 1112POPC   C4A17070   8.236  22.211   7.664
 1112POPC   C1B17071   7.967  22.371   8.564
 1112POPC   C2B17072   8.061  22.321   8.264
 1112POPC   C3B17073   7.992  22.362   7.964
 1112POPC   C4B17074   8.033  22.380   7.664
 1113POPC   NC317075  26.842   4.294   9.464
 1113POPC   PO417076  26.801   4.334   9.164
 1113POPC   GL117077  26.806   4.324   8.864
 1113POPC   GL217078  26.881   4.440   8.864
 1113POPC   C1A17079  26.788   4.271   8.564
 1113POPC   D2A17080  26.849   4.360   8.264
 1113POPC   C3A17081  26.789   4.296   7.964
 1113POPC   C4A17082  26.783   4.313   7.664
 1113POPC   C1B17083  26.833   4.518   8.564
 1113POPC   C2B17084  26.820   4.596   8.264
 1113POPC   C3B17085  26.825   4.533   7.964
 1113POPC   C4B17086  26.869   4.611   7.664
 1114POPC   NC317087   1.227  31.434   9.464
 1114POPC   PO417088   1.241  31.478   9.164
 1114POPC   GL117089   1.167  31.459   8.864
 1114POPC   GL217090   1.284  31.396   8.864
 1114POPC   C1A17091   1.229  31.491   8.564
 1114POPC   D2A17092   1.194  31.457   8.264
 1114POPC   C3A17093   1.202  31.432   7.964
 1114POPC   C4A17094   1.166  31.473   7.664
 1114POPC   C1B17095   1.365  31.276   8.564
 1114POPC   C2B17096   1.360  31.202   8.264
 1114POPC   C3B17097   1.367  31.289   7.964
 1114POPC   C4B17098   1.371  31.257   7.664
 1115POPC   NC317099   8.219  39.223   9.464
 1115POPC   PO417100   8.173  39.241   9.164
 1115POPC   GL117101   8.227  39.197   8.864
 1115POPC   GL217102   8.041  39.170   8.864
 1115POPC   C1A17103   8.175  39.260   8.564
 1115POPC   D2A17104   8.243  39.248   8.264
 1115POPC   C3A17105   8.177  39.246   7.964
 1115POPC   C4A17106   8.225  39.185   7.664
 1115POPC   C1B17107   8.008  39.147   8.564
 1115POPC   C2B17108   8.013  39.053   8.264
 1115POPC   C3B17109   7.957  39.069   7.964
 1115POPC   C4B17110   7.964  39.112   7.664
 1116POPC   NC317111  42.312  13.604   9.464
 1116POPC   PO417112  42.370  13.614   9.164
 1116POPC   GL117113  42.319  13.630   8.864
 1116POPC   GL217114  42.277  13.676   8.864
 1116POPC   C1A17115  42.342  13.621   8.564
 1116POPC   D2A17116  42.290  13.670   8.264
 1116POPC   C3A17117  42.330  13.642   7.964
 1116POPC   C4A17118  42.301  13.629   7.664
 1116POPC   C1B17119  42.113  13.773   8.564
 1116POPC   C2B17120  42.133  13.780   8.264
 1116POPC   C3B17121  42.135  13.841   7.964
 1116POPC   C4B17122  42.124  13.836   7.664
 1117POPC   NC317123  17.537  10.543   9.464
 1117POPC   PO417124  17.500  10.484   9.164
 1117POPC   GL117125  17.516  10.534   8.864
 1117POPC   GL217126  17.506  10.693   8.864
 1117POPC   C1A17127  17.556  10.564   8.564
 1117POPC   D2A17128  17.509  10.514   8.264
 1117POPC   C3A17129  17.468  10.563   7.964
 1117POPC   C4A17130  17.500  10.528   7.664
 1117POPC   C1B17131  17.451  10.723   8.564
 1117POPC   C2B17132  17.418  10.802   8.264
 1117POPC   C3B17133  17.424  10.754   7.964
 1117POPC   C4B17134  17.455  10.767   7.664
 1118POPC   NC317135  33.062   7.418   9.464
 1118POPC   PO417136  33.051   7.372   9.164
 1118POPC   GL117137  33.033   7.443   8.864
 1118POPC   GL217138  33.092   7.293   8.864
 1118POPC   C1A17139  32.997   7.389   8.564
 1118POPC   D2A17140  32.976   7.437   8.264
 1118POPC   C3A17141  33.035   7.413   7.964
 1118POPC   C4A17142  32.975   7.449   7.664
 1118POPC   C1B17143  33.106   7.238   8.564
 1118POPC   C2B17144  33.131   7.185   8.264
 1118POPC   C3B17145  33.118   7.230   7.964
 1118POPC   C4B17146  33.158   7.240   7.664
 1119POPC   NC317147  24.512  18.266   9.464
 1119POPC   PO417148  24.469  18.313   9.164
 1119POPC   GL117149  24.525  18.255   8.864
 1119POPC   GL217150  24.557  18.379   8.864
 1119POPC   C1A17151  24.450  18.244   8.564
 1119POPC   D2A17152  24.524  18.322   8.264
 1119POPC   C3A17153  24.538  18.306   7.964
 1119POPC   C4A17154  24.441  18.298   7.664
 1119POPC   C1B17155  24.523  18.542   8.564
 1119POPC   C2B17156  24.543  18.491   8.264
 1119POPC   C3B17157  24.565  18.486   7.964
 1119POPC   C4B17158  24.519  18.544   7.664
 1120POPC   NC317159  38.422  40.039   9.464
 1120POPC   PO417160  38.473  39.969   9.164
 1120POPC   GL117161  38.423  40.026   8.864
 1120POPC   GL217162  38.523  39.852   8.864
 1120POPC   C1A17163  38.416  39.979   8.564
 1120POPC   D2A17164  38.472  40.052   8.264
 1120POPC   C3A17165  38.456  39.984   7.964
 1120POPC   C4A17166  38.408  40.022   7.664
 1120POPC   C1B17167  38.604  39.745   8.564
 1120POPC   C2B17168  38.587  39.816   8.264
 1120POPC   C3B17169  38.532  39.817   7.964
 1120POPC   C4B17170  38.531  39.798   7.664
 1121POPC   NC317171  27.573   0.465   9.464
 1121POPC   PO417172  27.564   0.446   9.164
 1121POPC   GL117173  27.600   0.414   8.864
 1121POPC   GL217174  27.690   0.408   8.864
 1121POPC   C1A17175  27.564   0.436   8.564
 1121POPC   D2A17176  27.608   0.426   8.264
 1121POPC   C3A17177  27.564   0.464   7.964
 1121POPC   C4A17178  27.604   0.470   7.664
 1121POPC   C1B17179  27.865   0.450   8.564
 1121POPC   C2B17180  27.837   0.470   8.264
 1121POPC   C3B17181  27.817   0.449   7.964
 1121POPC   C4B17182  27.836   0.415   7.664
 1122POPC   NC317183  13.640  32.258   9.464
 1122POPC   PO417184  13.596  32.248   9.164
 1122POPC   GL117185  13.614  32.235   8.864
 1122POPC   GL217186  13.631  32.377   8.864
 1122POPC   C1A17187  13.670  32.216   8.564
 1122POPC   D2A17188  13.624  32.276   8.264
 1122POPC   C3A17189  13.619  32.262   7.964
 1122POPC   C4A17190  13.598  32.225   7.664
 1122POPC   C1B17191  13.583  32.474   8.564
 1122POPC   C2B17192  13.596  32.515   8.264
 1122POPC   C3B17193  13.677  32.534   7.964
 1122POPC   C4B17194  13.601  32.496   7.664
 1123POPC   NC317195  28.403  18.326   9.464
 1123POPC   PO417196  28.368  18.316   9.164
 1123POPC   GL117197  28.403  18.266   8.864
 1123POPC   GL217198  28.512  18.326   8.864
 1123POPC   C1A17199  28.413  18.265   8.564
 1123POPC   D2A17200  28.373  18.249   8.264
 1123POPC   C3A17201  28.323  18.254   7.964
 1123POPC   C4A17202  28.389  18.239   7.664
 1123POPC   C1B17203  28.606  18.464   8.564
 1123POPC   C2B17204  28.589  18.406   8.264
 1123POPC   C3B17205  28.541  18.408   7.964
 1123POPC   C4B17206  28.601  18.397   7.664
 1124POPC   NC317207  29.143   5.820   9.464
 1124POPC   PO417208  29.129   5.849   9.164
 1124POPC   GL117209  29.165   5.868   8.864
 1124POPC   GL217210  29.041   5.800   8.864
 1124POPC   C1A17211  29.159   5.846   8.564
 1124POPC   D2A17212  29.140   5.908   8.264
 1124POPC   C3A17213  29.156   5.906   7.964
 1124POPC   C4A17214  29.096   5.846   7.664
 1124POPC   C1B17215  28.882   5.803   8.564
 1124POPC   C2B17216  28.906   5.758   8.264
 1124POPC   C3B17217  28.908   5.798   7.964
 1124POPC   C4B17218  28.872   5.754   7.664
 1125POPC   NC317219  42.375   9.739   9.464
 1125POPC   PO417220  42.290   9.741   9.164
 1125POPC   GL117221  42.379   9.797   8.864
 1125POPC   GL217222  42.423   9.666   8.864
 1125POPC   C1A17223  42.346   9.764   8.564
 1125POPC   D2A17224  42.324   9.733   8.264
 1125POPC   C3A17225  42.330   9.699   7.964
 1125POPC   C4A17226  42.310   9.793   7.664
 1125POPC   C1B17227  42.568   9.639   8.564
 1125POPC   C2B17228  42.522   9.656   8.264
 1125POPC   C3B17229  42.598   9.590   7.964
 1125POPC   C4B17230  42.582   9.592   7.664
 1126POPC   NC317231  10.477  36.931   9.464
 1126POPC   PO417232  10.564  36.897   9.164
 1126POPC   GL117233  10.556  36.886   8.864
 1126POPC   GL217234  10.444  36.821   8.864
 1126POPC   C1A17235  10.545  36.871   8.564
 1126POPC   D2A17236  10.534  36.881   8.264
 1126POPC   C3A17237  10.534  36.893   7.964
 1126POPC   C4A17238  10.538  36.942   7.664
 1126POPC   C1B17239  10.344  36.717   8.564
 1126POPC   C2B17240  10.306  36.728   8.264
 1126POPC   C3B17241  10.301  36.781   7.964
 1126POPC   C4B17242  10.329  36.781   7.664
 1127POPC   NC317243  25.216  40.785   9.464
 1127POPC   PO417244  25.297  40.752   9.164
 1127POPC   GL117245  25.242  40.738   8.864
 1127POPC   GL217246  25.299  40.867   8.864
 1127POPC   C1A17247  25.230  40.808   8.564
 1127POPC   D2A17248  25.257  40.774   8.264
 1127POPC   C3A17249  25.244  40.740   7.964
 1127POPC   C4A17250  25.305  40.769   7.664
 1127POPC   C1B17251  25.230  41.067   8.564
 1127POPC   C2B17252  25.268  40.994   8.264
 1127POPC   C3B17253  25.277  41.059   7.964
 1127POPC   C4B17254  25.229  41.052   7.664
 1128POPC   NC317255  20.592  36.157   9.464
 1128POPC   PO417256  20.576  36.163   9.164
 1128POPC   GL117257  20.627  36.082   8.864
 1128POPC   GL217258  20.629  36.026   8.864
 1128POPC   C1A17259  20.561  36.170   8.564
 1128POPC   D2A17260  20.638  36.109   8.264
 1128POPC   C3A17261  20.614  36.122   7.964
 1128POPC   C4A17262  20.639  36.166   7.664
 1128POPC   C1B17263  20.774  35.862   8.564
 1128POPC   C2B17264  20.727  35.954   8.264
 1128POPC   C3B17265  20.760  35.916   7.964
 1128POPC   C4B17266  20.757  35.890   7.664
 1129POPC   NC317267  17.504  35.355   9.464
 1129POPC   PO417268  17.513  35.380   9.164
 1129POPC   GL117269  17.504  35.370   8.864
 1129POPC   GL217270  17.639  35.360   8.864
 1129POPC   C1A17271  17.485  35.344   8.564
 1129POPC   D2A17272  17.493  35.314   8.264
 1129POPC   C3A17273  17.543  35.312   7.964
 1129POPC   C4A17274  17.517  35.399   7.664
 1129POPC   C1B17275  17.804  35.307   8.564
 1129POPC   C2B17276  17.773  35.280   8.264
 1129POPC   C3B17277  17.720  35.329   7.964
 1129POPC   C4B17278  17.757  35.340   7.664
 1130POPC   NC317279  43.856  42.339   9.464
 1130POPC   PO417280  43.905  42.349   9.164
 1130POPC   GL117281  43.862  42.382   8.864
 1130POPC   GL217282  44.000  42.268   8.864
 1130POPC   C1A17283  43.936  42.302   8.564
 1130POPC   D2A17284  43.841  42.358   8.264
 1130POPC   C3A17285  43.915  42.365   7.964
 1130POPC   C4A17286  43.887  42.327   7.664
 1130POPC   C1B17287  44.039  42.164   8.564
 1130POPC   C2B17288  44.046  42.164   8.264
 1130POPC   C3B17289  44.090  42.132   7.964
 1130POPC   C4B17290  44.071  42.094   7.664
 1131POPC   NC317291   9.755  41.601   9.464
 1131POPC   PO417292   9.746  41.590   9.164
 1131POPC   GL117293   9.708  41.567   8.864
 1131POPC   GL217294   9.766  41.669   8.864
 1131POPC   C1A17295   9.726  41.535   8.564
 1131POPC   D2A17296   9.733  41.576   8.264
 1131POPC   C3A17297   9.727  41.543   7.964
 1131POPC   C4A17298   9.705  41.601   7.664
 1131POPC   C1B17299   9.853  41.816   8.564
 1131POPC   C2B17300   9.885  41.800   8.264
 1131POPC   C3B17301   9.849  41.835   7.964
 1131POPC   C4B17302   9.879  41.744   7.664
 1132POPC   NC317303  22.145  21.425   9.464
 1132POPC   PO417304  22.124  21.406   9.164
 1132POPC   GL117305  22.128  21.362   8.864
 1132POPC   GL217306  22.186  21.530   8.864
 1132POPC   C1A17307  22.207  21.376   8.564
 1132POPC   D2A17308  22.148  21.399   8.264
 1132POPC   C3A17309  22.171  21.377   7.964
 1132POPC   C4A17310  22.183  21.405   7.664
 1132POPC   C1B17311  22.152  21.660   8.564
 1132POPC   C2B17312  22.232  21.628   8.264
 1132POPC   C3B17313  22.174  21.618   7.964
 1132POPC   C4B17314  22.232  21.681   7.664
 1133POPC   NC317315  26.805  39.989   9.464
 1133POPC   PO417316  26.776  40.028   9.164
 1133POPC   GL117317  26.842  39.994   8.864
 1133POPC   GL217318  26.777  40.106   8.864
 1133POPC   C1A17319  26.832  40.027   8.564
 1133POPC   D2A17320  26.827  39.959   8.264
 1133POPC   C3A17321  26.831  39.993   7.964
 1133POPC   C4A17322  26.849  40.011   7.664
 1133POPC   C1B17323  26.711  40.217   8.564
 1133POPC   C2B17324  26.699  40.177   8.264
 1133POPC   C3B17325  26.658  40.177   7.964
 1133POPC   C4B17326  26.712  40.168   7.664
 1134POPC   NC317327  39.189   2.775   9.464
 1134POPC   PO417328  39.259   2.735   9.164
 1134POPC   GL117329  39.261   2.792   8.864
 1134POPC   GL217330  39.151   2.639   8.864
 1134POPC   C1A17331  39.250   2.802   8.564
 1134POPC   D2A17332  39.217   2.717   8.264
 1134POPC   C3A17333  39.258   2.774   7.964
 1134POPC   C4A17334  39.260   2.761   7.664
 1134POPC   C1B17335  39.181   2.526   8.564
 1134POPC   C2B17336  39.178   2.505   8.264
 1134POPC   C3B17337  39.099   2.493   7.964
 1134POPC   C4B17338  39.166   2.559   7.664
 1135POPC   NC317339  29.108   1.186   9.464
 1135POPC   PO417340  29.135   1.261   9.164
 1135POPC   GL117341  29.115   1.250   8.864
 1135POPC   GL217342  29.229   1.082   8.864
 1135POPC   C1A17343  29.171   1.237   8.564
 1135POPC   D2A17344  29.143   1.194   8.264
 1135POPC   C3A17345  29.165   1.260   7.964
 1135POPC   C4A17346  29.148   1.176   7.664
 1135POPC   C1B17347  29.253   0.965   8.564
 1135POPC   C2B17348  29.196   1.019   8.264
 1135POPC   C3B17349  29.246   0.941   7.964
 1135POPC   C4B17350  29.275   0.981   7.664
 1136POPC   NC317351  10.554  16.694   9.464
 1136POPC   PO417352  10.551  16.692   9.164
 1136POPC   GL117353  10.493  16.756   8.864
 1136POPC   GL217354  10.614  16.593   8.864
 1136POPC   C1A17355  10.480  16.755   8.564
 1136POPC   D2A17356  10.529  16.763   8.264
 1136POPC   C3A17357  10.512  16.734   7.964
 1136POPC   C4A17358  10.499  16.704   7.664
 1136POPC   C1B17359  10.633  16.485   8.564
 1136POPC   C2B17360  10.687  16.536   8.264
 1136POPC   C3B17361  10.687  16.498   7.964
 1136POPC   C4B17362  10.607  16.548   7.664
 1137POPC   NC317363  35.308  40.008   9.464
 1137POPC   PO417364  35.328  40.006   9.164
 1137POPC   GL117365  35.325  39.980   8.864
 1137POPC   GL217366  35.494  39.924   8.864
 1137POPC   C1A17367  35.402  39.966   8.564
 1137POPC   D2A17368  35.304  39.989   8.264
 1137POPC   C3A17369  35.358  40.005   7.964
 1137POPC   C4A17370  35.325  40.006   7.664
 1137POPC   C1B17371  35.569  39.938   8.564
 1137POPC   C2B17372  35.582  39.864   8.264
 1137POPC   C3B17373  35.536  39.939   7.964
 1137POPC   C4B17374  35.611  39.863   7.664
 1138POPC   NC317375  19.018  38.488   9.464
 1138POPC   PO417376  19.031  38.495   9.164
 1138POPC   GL117377  19.016  38.434   8.864
 1138POPC   GL217378  19.041  38.332   8.864
 1138POPC   C1A17379  19.058  38.416   8.564
 1138POPC   D2A17380  19.098  38.450   8.264
 1138POPC   C3A17381  19.078  38.465   7.964
 1138POPC   C4A17382  19.080  38.434   7.664
 1138POPC   C1B17383  19.148  38.163   8.564
 1138POPC   C2B17384  19.107  38.232   8.264
 1138POPC   C3B17385  19.086  38.201   7.964
 1138POPC   C4B17386  19.089  38.188   7.664
 1139POPC   NC317387  39.271   8.982   9.464
 1139POPC   PO417388  39.244   9.016   9.164
 1139POPC   GL117389  39.203   8.937   8.864
 1139POPC   GL217390  39.361   8.980   8.864
 1139POPC   C1A17391  39.218   8.952   8.564
 1139POPC   D2A17392  39.206   8.967   8.264
 1139POPC   C3A17393  39.238   8.961   7.964
 1139POPC   C4A17394  39.245   8.925   7.664
 1139POPC   C1B17395  39.447   9.081   8.564
 1139POPC   C2B17396  39.485   9.009   8.264
 1139POPC   C3B17397  39.423   8.988   7.964
 1139POPC   C4B17398  39.479   9.016   7.664
 1140POPC   NC317399   5.088  30.729   9.464
 1140POPC   PO417400   5.073  30.690   9.164
 1140POPC   GL117401   5.072  30.685   8.864
 1140POPC   GL217402   5.176  30.636   8.864
 1140POPC   C1A17403   5.105  30.737   8.564
 1140POPC   D2A17404   5.096  30.685   8.264
 1140POPC   C3A17405   5.063  30.734   7.964
 1140POPC   C4A17406   5.106  30.708   7.664
 1140POPC   C1B17407   5.367  30.592   8.564
 1140POPC   C2B17408   5.371  30.582   8.264
 1140POPC   C3B17409   5.360  30.597   7.964
 1140POPC   C4B17410   5.278  30.603   7.664
 1141POPC   NC317411  11.273  38.432   9.464
 1141POPC   PO417412  11.296  38.454   9.164
 1141POPC   GL117413  11.283  38.462   8.864
 1141POPC   GL217414  11.231  38.310   8.864
 1141POPC   C1A17415  11.335  38.426   8.564
 1141POPC   D2A17416  11.321  38.467   8.264
 1141POPC   C3A17417  11.268  38.424   7.964
 1141POPC   C4A17418  11.254  38.480   7.664
 1141POPC   C1B17419  11.207  38.242   8.564
 1141POPC   C2B17420  11.183  38.213   8.264
 1141POPC   C3B17421  11.174  38.202   7.964
 1141POPC   C4B17422  11.226  38.276   7.664
 1142POPC   NC317423  21.345  43.123   9.464
 1142POPC   PO417424  21.415  43.138   9.164
 1142POPC   GL117425  21.420  43.091   8.864
 1142POPC   GL217426  21.340  43.016   8.864
 1142POPC   C1A17427  21.363  43.144   8.564
 1142POPC   D2A17428  21.352  43.084   8.264
 1142POPC   C3A17429  21.414  43.114   7.964
 1142POPC   C4A17430  21.357  43.061   7.664
 1142POPC   C1B17431  21.336  42.857   8.564
 1142POPC   C2B17432  21.277  42.872   8.264
 1142POPC   C3B17433  21.319  42.887   7.964
 1142POPC   C4B17434  21.333  42.833   7.664
 1143POPC   NC317435  14.381  10.554   9.464
 1143POPC   PO417436  14.418  10.493   9.164
 1143POPC   GL117437  14.394  10.530   8.864
 1143POPC   GL217438  14.243  10.540   8.864
 1143POPC   C1A17439  14.376  10.476   8.564
 1143POPC   D2A17440  14.360  10.563   8.264
 1143POPC   C3A17441  14.438  10.541   7.964
 1143POPC   C4A17442  14.435  10.551   7.664
 1143POPC   C1B17443  14.150  10.538   8.564
 1143POPC   C2B17444  14.180  10.587   8.264
 1143POPC   C3B17445  14.197  10.599   7.964
 1143POPC   C4B17446  14.131  10.594   7.664
 1144POPC   NC317447  20.657  27.547   9.464
 1144POPC   PO417448  20.610  27.573   9.164
 1144POPC   GL117449  20.596  27.617   8.864
 1144POPC   GL217450  20.706  27.708   8.864
 1144POPC   C1A17451  20.642  27.641   8.564
 1144POPC   D2A17452  20.574  27.627   8.264
 1144POPC   C3A17453  20.592  27.564   7.964
 1144POPC   C4A17454  20.569  27.638   7.664
 1144POPC   C1B17455  20.770  27.773   8.564
 1144POPC   C2B17456  20.724  27.772   8.264
 1144POPC   C3B17457  20.778  27.830   7.964
 1144POPC   C4B17458  20.725  27.787   7.664
 1145POPC   NC317459  44.701   5.111   9.464
 1145POPC   PO417460  44.655   5.126   9.164
 1145POPC   GL117461  44.642   5.135   8.864
 1145POPC   GL217462  44.699   5.025   8.864
 1145POPC   C1A17463  44.703   5.061   8.564
 1145POPC   D2A17464  44.623   5.059   8.264
 1145POPC   C3A17465  44.697   5.101   7.964
 1145POPC   C4A17466  44.663   5.115   7.664
 1145POPC   C1B17467  44.838   4.923   8.564
 1145POPC   C2B17468  44.799   4.871   8.264
 1145POPC   C3B17469  44.816   4.850   7.964
 1145POPC   C4B17470  44.854   4.917   7.664
 1146POPC   NC317471   3.565  32.205   9.464
 1146POPC   PO417472   3.560  32.231   9.164
 1146POPC   GL117473   3.587  32.211   8.864
 1146POPC   GL217474   3.467  32.154   8.864
 1146POPC   C1A17475   3.577  32.212   8.564
 1146POPC   D2A17476   3.573  32.289   8.264
 1146POPC   C3A17477   3.498  32.266   7.964
 1146POPC   C4A17478   3.572  32.203   7.664
 1146POPC   C1B17479   3.370  32.085   8.564
 1146POPC   C2B17480   3.357  32.051   8.264
 1146POPC   C3B17481   3.355  32.040   7.964
 1146POPC   C4B17482   3.394  32.009   7.664
 1147POPC   NC317483   2.816   2.000   9.464
 1147POPC   PO417484   2.744   2.001   9.164
 1147POPC   GL117485   2.788   1.968   8.864
 1147POPC   GL217486   2.662   2.023   8.864
 1147POPC   C1A17487   2.722   2.028   8.564
 1147POPC   D2A17488   2.795   1.990   8.264
 1147POPC   C3A17489   2.810   2.012   7.964
 1147POPC   C4A17490   2.760   2.038   7.664
 1147POPC   C1B17491   2.539   2.049   8.564
 1147POPC   C2B17492   2.505   2.100   8.264
 1147POPC   C3B17493   2.491   2.071   7.964
 1147POPC   C4B17494   2.547   2.124   7.664
 1148POPC   NC317495  38.474  20.597   9.464
 1148POPC   PO417496  38.426  20.602   9.164
 1148POPC   GL117497  38.478  20.635   8.864
 1148POPC   GL217498  38.407  20.763   8.864
 1148POPC   C1A17499  38.427  20.618   8.564
 1148POPC   D2A17500  38.439  20.580   8.264
 1148POPC   C3A17501  38.494  20.601   7.964
 1148POPC   C4A17502  38.438  20.652   7.664
 1148POPC   C1B17503  38.413  20.819   8.564
 1148POPC   C2B17504  38.441  20.837   8.264
 1148POPC   C3B17505  38.397  20.825   7.964
 1148POPC   C4B17506  38.437  20.816   7.664
 1149POPC   NC317507   2.020  32.987   9.464
 1149POPC   PO417508   2.003  33.021   9.164
 1149POPC   GL117509   1.944  33.055   8.864
 1149POPC   GL217510   1.942  33.156   8.864
 1149POPC   C1A17511   2.021  33.062   8.564
 1149POPC   D2A17512   2.009  33.039   8.264
 1149POPC   C3A17513   2.016  33.050   7.964
 1149POPC   C4A17514   1.996  33.045   7.664
 1149POPC   C1B17515   1.887  33.295   8.564
 1149POPC   C2B17516   1.910  33.237   8.264
 1149POPC   C3B17517   1.857  33.236   7.964
 1149POPC   C4B17518   1.889  33.226   7.664
 1150POPC   NC317519   5.860  39.989   9.464
 1150POPC   PO417520   5.828  39.984   9.164
 1150POPC   GL117521   5.901  39.991   8.864
 1150POPC   GL217522   5.719  40.022   8.864
 1150POPC   C1A17523   5.888  40.042   8.564
 1150POPC   D2A17524   5.856  39.993   8.264
 1150POPC   C3A17525   5.918  39.971   7.964
 1150POPC   C4A17526   5.834  40.017   7.664
 1150POPC   C1B17527   5.660  40.025   8.564
 1150POPC   C2B17528   5.589  39.936   8.264
 1150POPC   C3B17529   5.625  39.945   7.964
 1150POPC   C4B17530   5.626  40.007   7.664
 1151POPC   NC317531  16.700  41.606   9.464
 1151POPC   PO417532  16.757  41.546   9.164
 1151POPC   GL117533  16.762  41.530   8.864
 1151POPC   GL217534  16.824  41.503   8.864
 1151POPC   C1A17535  16.756  41.564   8.564
 1151POPC   D2A17536  16.740  41.514   8.264
 1151POPC   C3A17537  16.751  41.510   7.964
 1151POPC   C4A17538  16.772  41.553   7.664
 1151POPC   C1B17539  16.974  41.516   8.564
 1151POPC   C2B17540  16.999  41.527   8.264
 1151POPC   C3B17541  16.961  41.478   7.964
 1151POPC   C4B17542  17.011  41.534   7.664
 1152POPC   NC317543  22.199  34.575   9.464
 1152POPC   PO417544  22.195  34.607   9.164
 1152POPC   GL117545  22.164  34.609   8.864
 1152POPC   GL217546  22.044  34.513   8.864
 1152POPC   C1A17547  22.210  34.623   8.564
 1152POPC   D2A17548  22.191  34.590   8.264
 1152POPC   C3A17549  22.176  34.607   7.964
 1152POPC   C4A17550  22.134  34.616   7.664
 1152POPC   C1B17551  22.045  34.415   8.564
 1152POPC   C2B17552  21.992  34.377   8.264
 1152POPC   C3B17553  21.982  34.432   7.964
 1152POPC   C4B17554  22.048  34.344   7.664
 1153POPC   NC317555   8.948   1.251   9.464
 1153POPC   PO417556   8.945   1.215   9.164
 1153POPC   GL117557   9.015   1.259   8.864
 1153POPC   GL217558   9.072   1.189   8.864
 1153POPC   C1A17559   8.930   1.235   8.564
 1153POPC   D2A17560   8.970   1.179   8.264
 1153POPC   C3A17561   9.005   1.197   7.964
 1153POPC   C4A17562   8.963   1.227   7.664
 1153POPC   C1B17563   9.240   1.199   8.564
 1153POPC   C2B17564   9.259   1.240   8.264
 1153POPC   C3B17565   9.227   1.278   7.964
 1153POPC   C4B17566   9.216   1.225   7.664
 1154POPC   NC317567  26.826  15.165   9.464
 1154POPC   PO417568  26.820  15.196   9.164
 1154POPC   GL117569  26.844  15.190   8.864
 1154POPC   GL217570  26.744  15.039   8.864
 1154POPC   C1A17571  26.823  15.139   8.564
 1154POPC   D2A17572  26.802  15.172   8.264
 1154POPC   C3A17573  26.786  15.163   7.964
 1154POPC   C4A17574  26.838  15.208   7.664
 1154POPC   C1B17575  26.676  14.992   8.564
 1154POPC   C2B17576  26.633  14.958   8.264
 1154POPC   C3B17577  26.655  14.928   7.964
 1154POPC   C4B17578  26.721  14.970   7.664
 1155POPC   NC317579   0.414   9.698   9.464
 1155POPC   PO417580   0.464   9.779   9.164
 1155POPC   GL117581   0.454   9.731   8.864
 1155POPC   GL217582   0.349   9.662   8.864
 1155POPC   C1A17583   0.480   9.735   8.564
 1155POPC   D2A17584   0.458   9.769   8.264
 1155POPC   C3A17585   0.428   9.702   7.964
 1155POPC   C4A17586   0.479   9.770   7.664
 1155POPC   C1B17587   0.351   9.480   8.564
 1155POPC   C2B17588   0.288   9.544   8.264
 1155POPC   C3B17589   0.361   9.549   7.964
 1155POPC   C4B17590   0.364   9.560   7.664
 1156POPC   NC317591   5.840   2.756   9.464
 1156POPC   PO417592   5.882   2.806   9.164
 1156POPC   GL117593   5.828   2.755   8.864
 1156POPC   GL217594   5.953   2.664   8.864
 1156POPC   C1A17595   5.883   2.795   8.564
 1156POPC   D2A17596   5.895   2.756   8.264
 1156POPC   C3A17597   5.861   2.726   7.964
 1156POPC   C4A17598   5.840   2.779   7.664
 1156POPC   C1B17599   6.112   2.583   8.564
 1156POPC   C2B17600   6.046   2.647   8.264
 1156POPC   C3B17601   6.036   2.629   7.964
 1156POPC   C4B17602   6.026   2.666   7.664
 1157POPC   NC317603   9.006  32.256   9.464
 1157POPC   PO417604   8.925  32.234   9.164
 1157POPC   GL117605   8.980  32.257   8.864
 1157POPC   GL217606   8.937  32.126   8.864
 1157POPC   C1A17607   9.000  32.286   8.564
 1157POPC   D2A17608   8.935  32.296   8.264
 1157POPC   C3A17609   8.991  32.250   7.964
 1157POPC   C4A17610   9.016  32.226   7.664
 1157POPC   C1B17611   8.819  32.045   8.564
 1157POPC   C2B17612   8.803  31.996   8.264
 1157POPC   C3B17613   8.812  32.014   7.964
 1157POPC   C4B17614   8.805  32.008   7.664
 1158POPC   NC317615   1.184  27.551   9.464
 1158POPC   PO417616   1.222  27.609   9.164
 1158POPC   GL117617   1.234  27.612   8.864
 1158POPC   GL217618   1.314  27.645   8.864
 1158POPC   C1A17619   1.171  27.598   8.564
 1158POPC   D2A17620   1.182  27.572   8.264
 1158POPC   C3A17621   1.193  27.638   7.964
 1158POPC   C4A17622   1.216  27.616   7.664
 1158POPC   C1B17623   1.461  27.657   8.564
 1158POPC   C2B17624   1.415  27.709   8.264
 1158POPC   C3B17625   1.475  27.728   7.964
 1158POPC   C4B17626   1.397  27.705   7.664
 1159POPC   NC317627  38.492   1.214   9.464
 1159POPC   PO417628  38.475   1.184   9.164
 1159POPC   GL117629  38.496   1.223   8.864
 1159POPC   GL217630  38.350   1.283   8.864
 1159POPC   C1A17631  38.430   1.177   8.564
 1159POPC   D2A17632  38.468   1.200   8.264
 1159POPC   C3A17633  38.413   1.235   7.964
 1159POPC   C4A17634  38.499   1.262   7.664
 1159POPC   C1B17635  38.242   1.382   8.564
 1159POPC   C2B17636  38.209   1.406   8.264
 1159POPC   C3B17637  38.258   1.368   7.964
 1159POPC   C4B17638  38.224   1.394   7.664
 1160POPC   NC317639  29.096  20.651   9.464
 1160POPC   PO417640  29.179  20.575   9.164
 1160POPC   GL117641  29.125  20.631   8.864
 1160POPC   GL217642  29.275  20.661   8.864
 1160POPC   C1A17643  29.098  20.564   8.564
 1160POPC   D2A17644  29.149  20.655   8.264
 1160POPC   C3A17645  29.134  20.592   7.964
 1160POPC   C4A17646  29.099  20.639   7.664
 1160POPC   C1B17647  29.402  20.693   8.564
 1160POPC   C2B17648  29.375  20.737   8.264
 1160POPC   C3B17649  29.419  20.689   7.964
 1160POPC   C4B17650  29.364  20.690   7.664
 1161POPC   NC317651  11.270   1.229   9.464
 1161POPC   PO417652  11.298   1.236   9.164
 1161POPC   GL117653  11.298   1.178   8.864
 1161POPC   GL217654  11.429   1.111   8.864
 1161POPC   C1A17655  11.271   1.224   8.564
 1161POPC   D2A17656  11.318   1.257   8.264
 1161POPC   C3A17657  11.259   1.186   7.964
 1161POPC   C4A17658  11.257   1.198   7.664
 1161POPC   C1B17659  11.467   1.048   8.564
 1161POPC   C2B17660  11.513   1.001   8.264
 1161POPC   C3B17661  11.512   0.995   7.964
 1161POPC   C4B17662  11.439   1.019   7.664
 1162POPC   NC317663   2.012  29.879   9.464
 1162POPC   PO417664   1.954  29.896   9.164
 1162POPC   GL117665   1.941  29.969   8.864
 1162POPC   GL217666   1.967  30.072   8.864
 1162POPC   C1A17667   1.951  29.887   8.564
 1162POPC   D2A17668   1.973  29.915   8.264
 1162POPC   C3A17669   2.036  29.961   7.964
 1162POPC   C4A17670   1.961  29.874   7.664
 1162POPC   C1B17671   1.975  30.177   8.564
 1162POPC   C2B17672   1.933  30.187   8.264
 1162POPC   C3B17673   1.925  30.121   7.964
 1162POPC   C4B17674   1.932  30.125   7.664
 1163POPC   NC317675   2.773  36.884   9.464
 1163POPC   PO417676   2.806  36.866   9.164
 1163POPC   GL117677   2.717  36.904   8.864
 1163POPC   GL217678   2.808  36.980   8.864
 1163POPC   C1A17679   2.764  36.865   8.564
 1163POPC   D2A17680   2.770  36.932   8.264
 1163POPC   C3A17681   2.722  36.864   7.964
 1163POPC   C4A17682   2.748  36.932   7.664
 1163POPC   C1B17683   2.897  37.132   8.564
 1163POPC   C2B17684   2.970  37.058   8.264
 1163POPC   C3B17685   2.974  37.037   7.964
 1163POPC   C4B17686   2.946  37.110   7.664
 1164POPC   NC317687  36.140   6.640   9.464
 1164POPC   PO417688  36.154   6.595   9.164
 1164POPC   GL117689  36.096   6.661   8.864
 1164POPC   GL217690  36.041   6.666   8.864
 1164POPC   C1A17691  36.151   6.612   8.564
 1164POPC   D2A17692  36.169   6.674   8.264
 1164POPC   C3A17693  36.142   6.643   7.964
 1164POPC   C4A17694  36.135   6.599   7.664
 1164POPC   C1B17695  35.888   6.811   8.564
 1164POPC   C2B17696  35.867   6.813   8.264
 1164POPC   C3B17697  35.876   6.763   7.964
 1164POPC   C4B17698  35.901   6.771   7.664
 1165POPC   NC317699  39.971  43.125   9.464
 1165POPC   PO417700  39.960  43.132   9.164
 1165POPC   GL117701  40.043  43.137   8.864
 1165POPC   GL217702  39.871  43.181   8.864
 1165POPC   C1A17703  40.039  43.090   8.564
 1165POPC   D2A17704  39.982  43.072   8.264
 1165POPC   C3A17705  39.987  43.107   7.964
 1165POPC   C4A17706  40.033  43.094   7.664
 1165POPC   C1B17707  39.797  43.216   8.564
 1165POPC   C2B17708  39.792  43.191   8.264
 1165POPC   C3B17709  39.732  43.247   7.964
 1165POPC   C4B17710  39.781  43.197   7.664
 1166POPC   NC317711  37.637  28.413   9.464
 1166POPC   PO417712  37.697  28.392   9.164
 1166POPC   GL117713  37.718  28.377   8.864
 1166POPC   GL217714  37.543  28.380   8.864
 1166POPC   C1A17715  37.728  28.374   8.564
 1166POPC   D2A17716  37.647  28.373   8.264
 1166POPC   C3A17717  37.644  28.382   7.964
 1166POPC   C4A17718  37.649  28.412   7.664
 1166POPC   C1B17719  37.412  28.483   8.564
 1166POPC   C2B17720  37.413  28.454   8.264
 1166POPC   C3B17721  37.418  28.427   7.964
 1166POPC   C4B17722  37.433  28.484   7.664
 1167POPC   NC317723  15.188  22.972   9.464
 1167POPC   PO417724  15.172  22.927   9.164
 1167POPC   GL117725  15.204  22.970   8.864
 1167POPC   GL217726  15.323  22.901   8.864
 1167POPC   C1A17727  15.185  22.919   8.564
 1167POPC   D2A17728  15.190  22.956   8.264
 1167POPC   C3A17729  15.225  22.895   7.964
 1167POPC   C4A17730  15.214  22.930   7.664
 1167POPC   C1B17731  15.427  22.758   8.564
 1167POPC   C2B17732  15.376  22.802   8.264
 1167POPC   C3B17733  15.372  22.835   7.964
 1167POPC   C4B17734  15.414  22.796   7.664
 1168POPC   NC317735  20.586  43.923   9.464
 1168POPC   PO417736  20.646  43.867   9.164
 1168POPC   GL117737  20.584  43.928   8.864
 1168POPC   GL217738  20.476  43.835   8.864
 1168POPC   C1A17739  20.599  43.896   8.564
 1168POPC   D2A17740  20.568  43.846   8.264
 1168POPC   C3A17741  20.601  43.876   7.964
 1168POPC   C4A17742  20.570  43.919   7.664
 1168POPC   C1B17743  20.466  43.664   8.564
 1168POPC   C2B17744  20.437  43.663   8.264
 1168POPC   C3B17745  20.429  43.655   7.964
 1168POPC   C4B17746  20.476  43.714   7.664
 1169POPC   NC317747  13.619   8.953   9.464
 1169POPC   PO417748  13.650   8.923   9.164
 1169POPC   GL117749  13.621   8.932   8.864
 1169POPC   GL217750  13.747   8.918   8.864
 1169POPC   C1A17751  13.659   8.979   8.564
 1169POPC   D2A17752  13.652   9.021   8.264
 1169POPC   C3A17753  13.602   8.946   7.964
 1169POPC   C4A17754  13.580   8.984   7.664
 1169POPC   C1B17755  13.860   8.876   8.564
 1169POPC   C2B17756  13.852   8.885   8.264
 1169POPC   C3B17757  13.872   8.881   7.964
 1169POPC   C4B17758  13.845   8.887   7.664
 1170POPC   NC317759   7.460  29.161   9.464
 1170POPC   PO417760   7.462  29.161   9.164
 1170POPC   GL117761   7.426  29.174   8.864
 1170POPC   GL217762   7.290  29.238   8.864
 1170POPC   C1A17763   7.393  29.142   8.564
 1170POPC   D2A17764   7.467  29.136   8.264
 1170POPC   C3A17765   7.430  29.154   7.964
 1170POPC   C4A17766   7.442  29.180   7.664
 1170POPC   C1B17767   7.220  29.257   8.564
 1170POPC   C2B17768   7.254  29.342   8.264
 1170POPC   C3B17769   7.177  29.271   7.964
 1170POPC   C4B17770   7.200  29.309   7.664
 1171POPC   NC317771  42.362  29.918   9.464
 1171POPC   PO417772  42.367  29.957   9.164
 1171POPC   GL117773  42.321  29.950   8.864
 1171POPC   GL217774  42.377  29.985   8.864
 1171POPC   C1A17775  42.304  29.963   8.564
 1171POPC   D2A17776  42.318  29.924   8.264
 1171POPC   C3A17777  42.365  29.962   7.964
 1171POPC   C4A17778  42.321  29.895   7.664
 1171POPC   C1B17779  42.456  30.099   8.564
 1171POPC   C2B17780  42.436  30.117   8.264
 1171POPC   C3B17781  42.523  30.076   7.964
 1171POPC   C4B17782  42.527  30.115   7.664
 1172POPC   NC317783  29.177   2.762   9.464
 1172POPC   PO417784  29.195   2.808   9.164
 1172POPC   GL117785  29.148   2.751   8.864
 1172POPC   GL217786  29.054   2.830   8.864
 1172POPC   C1A17787  29.178   2.782   8.564
 1172POPC   D2A17788  29.125   2.732   8.264
 1172POPC   C3A17789  29.132   2.757   7.964
 1172POPC   C4A17790  29.133   2.800   7.664
 1172POPC   C1B17791  28.930   2.924   8.564
 1172POPC   C2B17792  28.954   2.961   8.264
 1172POPC   C3B17793  28.987   2.932   7.964
 1172POPC   C4B17794  29.004   2.950   7.664
 1173POPC   NC317795  19.797  34.548   9.464
 1173POPC   PO417796  19.842  34.609   9.164
 1173POPC   GL117797  19.800  34.600   8.864
 1173POPC   GL217798  19.859  34.684   8.864
 1173POPC   C1A17799  19.795  34.549   8.564
 1173POPC   D2A17800  19.805  34.567   8.264
 1173POPC   C3A17801  19.821  34.621   7.964
 1173POPC   C4A17802  19.825  34.575   7.664
 1173POPC   C1B17803  19.838  34.794   8.564
 1173POPC   C2B17804  19.832  34.822   8.264
 1173POPC   C3B17805  19.757  34.808   7.964
 1173POPC   C4B17806  19.795  34.781   7.664
 1174POPC   NC317807  35.365  42.306   9.464
 1174POPC   PO417808  35.377  42.346   9.164
 1174POPC   GL117809  35.367  42.312   8.864
 1174POPC   GL217810  35.245  42.438   8.864
 1174POPC   C1A17811  35.309  42.314   8.564
 1174POPC   D2A17812  35.372  42.313   8.264
 1174POPC   C3A17813  35.337  42.350   7.964
 1174POPC   C4A17814  35.325  42.374   7.664
 1174POPC   C1B17815  35.155  42.496   8.564
 1174POPC   C2B17816  35.150  42.537   8.264
 1174POPC   C3B17817  35.136  42.461   7.964
 1174POPC   C4B17818  35.180  42.473   7.664
 1175POPC   NC317819  25.233  39.227   9.464
 1175POPC   PO417820  25.244  39.243   9.164
 1175POPC   GL117821  25.288  39.204   8.864
 1175POPC   GL217822  25.155  39.255   8.864
 1175POPC   C1A17823  25.247  39.184   8.564
 1175POPC   D2A17824  25.273  39.218   8.264
 1175POPC   C3A17825  25.273  39.200   7.964
 1175POPC   C4A17826  25.286  39.258   7.664
 1175POPC   C1B17827  24.974  39.231   8.564
 1175POPC   C2B17828  25.001  39.234   8.264
 1175POPC   C3B17829  25.044  39.218   7.964
 1175POPC   C4B17830  25.025  39.202   7.664
 1176POPC   NC317831  26.851   0.426   9.464
 1176POPC   PO417832  26.789   0.473   9.164
 1176POPC   GL117833  26.867   0.396   8.864
 1176POPC   GL217834  26.736   0.388   8.864
 1176POPC   C1A17835  26.815   0.454   8.564
 1176POPC   D2A17836  26.866   0.425   8.264
 1176POPC   C3A17837  26.779   0.456   7.964
 1176POPC   C4A17838  26.789   0.431   7.664
 1176POPC   C1B17839  26.588   0.431   8.564
 1176POPC   C2B17840  26.526   0.396   8.264
 1176POPC   C3B17841  26.608   0.337   7.964
 1176POPC   C4B17842  26.565   0.398   7.664
 1177POPC   NC317843  18.234   3.585   9.464
 1177POPC   PO417844  18.307   3.519   9.164
 1177POPC   GL117845  18.282   3.552   8.864
 1177POPC   GL217846  18.358   3.445   8.864
 1177POPC   C1A17847  18.331   3.588   8.564
 1177POPC   D2A17848  18.289   3.509   8.264
 1177POPC   C3A17849  18.253   3.549   7.964
 1177POPC   C4A17850  18.266   3.586   7.664
 1177POPC   C1B17851  18.402   3.268   8.564
 1177POPC   C2B17852  18.435   3.364   8.264
 1177POPC   C3B17853  18.423   3.351   7.964
 1177POPC   C4B17854  18.417   3.351   7.664
 1178POPC   NC317855  40.763  22.205   9.464
 1178POPC   PO417856  40.817  22.153   9.164
 1178POPC   GL117857  40.782  22.207   8.864
 1178POPC   GL217858  40.841  22.047   8.864
 1178POPC   C1A17859  40.822  22.144   8.564
 1178POPC   D2A17860  40.776  22.117   8.264
 1178POPC   C3A17861  40.811  22.145   7.964
 1178POPC   C4A17862  40.773  22.118   7.664
 1178POPC   C1B17863  40.906  21.976   8.564
 1178POPC   C2B17864  40.922  21.958   8.264
 1178POPC   C3B17865  40.924  21.917   7.964
 1178POPC   C4B17866  40.912  21.903   7.664
 1179POPC   NC317867  43.893  21.347   9.464
 1179POPC   PO417868  43.847  21.355   9.164
 1179POPC   GL117869  43.921  21.361   8.864
 1179POPC   GL217870  43.733  21.280   8.864
 1179POPC   C1A17871  43.867  21.434   8.564
 1179POPC   D2A17872  43.906  21.357   8.264
 1179POPC   C3A17873  43.847  21.355   7.964
 1179POPC   C4A17874  43.912  21.342   7.664
 1179POPC   C1B17875  43.662  21.260   8.564
 1179POPC   C2B17876  43.662  21.228   8.264
 1179POPC   C3B17877  43.644  21.238   7.964
 1179POPC   C4B17878  43.691  21.205   7.664
 1180POPC   NC317879  20.589  39.991   9.464
 1180POPC   PO417880  20.635  39.994   9.164
 1180POPC   GL117881  20.655  40.033   8.864
 1180POPC   GL217882  20.565  39.876   8.864
 1180POPC   C1A17883  20.565  39.982   8.564
 1180POPC   D2A17884  20.649  40.008   8.264
 1180POPC   C3A17885  20.605  40.048   7.964
 1180POPC   C4A17886  20.614  40.053   7.664
 1180POPC   C1B17887  20.485  39.804   8.564
 1180POPC   C2B17888  20.529  39.797   8.264
 1180POPC   C3B17889  20.457  39.783   7.964
 1180POPC   C4B17890  20.466  39.783   7.664
 1181POPC   NC317891  17.504  15.984   9.464
 1181POPC   PO417892  17.506  15.942   9.164
 1181POPC   GL117893  17.518  15.981   8.864
 1181POPC   GL217894  17.405  15.960   8.864
 1181POPC   C1A17895  17.511  15.930   8.564
 1181POPC   D2A17896  17.479  15.909   8.264
 1181POPC   C3A17897  17.547  15.965   7.964
 1181POPC   C4A17898  17.550  15.914   7.664
 1181POPC   C1B17899  17.319  15.871   8.564
 1181POPC   C2B17900  17.261  15.912   8.264
 1181POPC   C3B17901  17.268  15.893   7.964
 1181POPC   C4B17902  17.305  15.911   7.664
 1182POPC   NC317903   3.543  26.055   9.464
 1182POPC   PO417904   3.509  26.028   9.164
 1182POPC   GL117905   3.573  26.070   8.864
 1182POPC   GL217906   3.639  25.937   8.864
 1182POPC   C1A17907   3.583  26.066   8.564
 1182POPC   D2A17908   3.520  26.080   8.264
 1182POPC   C3A17909   3.554  26.026   7.964
 1182POPC   C4A17910   3.572  26.023   7.664
 1182POPC   C1B17911   3.705  25.868   8.564
 1182POPC   C2B17912   3.635  25.777   8.264
 1182POPC   C3B17913   3.671  25.826   7.964
 1182POPC   C4B17914   3.638  25.838   7.664
 1183POPC   NC317915  43.918   8.951   9.464
 1183POPC   PO417916  43.871   8.984   9.164
 1183POPC   GL117917  43.839   8.936   8.864
 1183POPC   GL217918  43.921   8.878   8.864
 1183POPC   C1A17919  43.881   8.999   8.564
 1183POPC   D2A17920  43.927   8.992   8.264
 1183POPC   C3A17921  43.837   9.010   7.964
 1183POPC   C4A17922  43.924   8.962   7.664
 1183POPC   C1B17923  44.000   8.762   8.564
 1183POPC   C2B17924  44.015   8.706   8.264
 1183POPC   C3B17925  44.015   8.723   7.964
 1183POPC   C4B17926  44.043   8.792   7.664
 1184POPC   NC317927  12.877  40.047   9.464
 1184POPC   PO417928  12.897  39.991   9.164
 1184POPC   GL117929  12.803  39.999   8.864
 1184POPC   GL217930  12.935  40.134   8.864
 1184POPC   C1A17931  12.892  40.054   8.564
 1184POPC   D2A17932  12.809  40.004   8.264
 1184POPC   C3A17933  12.882  40.050   7.964
 1184POPC   C4A17934  12.883  39.997   7.664
 1184POPC   C1B17935  13.037  40.223   8.564
 1184POPC   C2B17936  13.052  40.162   8.264
 1184POPC   C3B17937  13.040  40.137   7.964
 1184POPC   C4B17938  13.067  40.182   7.664
 1185POPC   NC317939  13.615  12.065   9.464
 1185POPC   PO417940  13.640  12.049   9.164
 1185POPC   GL117941  13.655  12.038   8.864
 1185POPC   GL217942  13.758  12.165   8.864
 1185POPC   C1A17943  13.631  12.042   8.564
 1185POPC   D2A17944  13.665  12.114   8.264
 1185POPC   C3A17945  13.638  12.100   7.964
 1185POPC   C4A17946  13.611  12.081   7.664
 1185POPC   C1B17947  13.762  12.239   8.564
 1185POPC   C2B17948  13.779  12.203   8.264
 1185POPC   C3B17949  13.777  12.218   7.964
 1185POPC   C4B17950  13.771  12.225   7.664
 1186POPC   NC317951  34.536  16.727   9.464
 1186POPC   PO417952  34.591  16.768   9.164
 1186POPC   GL117953  34.574  16.777   8.864
 1186POPC   GL217954  34.708  16.638   8.864
 1186POPC   C1A17955  34.604  16.766   8.564
 1186POPC   D2A17956  34.589  16.714   8.264
 1186POPC   C3A17957  34.559  16.780   7.964
 1186POPC   C4A17958  34.591  16.692   7.664
 1186POPC   C1B17959  34.743  16.570   8.564
 1186POPC   C2B17960  34.717  16.590   8.264
 1186POPC   C3B17961  34.729  16.547   7.964
 1186POPC   C4B17962  34.712  16.589   7.664
 1187POPC   NC317963  26.844  36.137   9.464
 1187POPC   PO417964  26.801  36.149   9.164
 1187POPC   GL117965  26.816  36.086   8.864
 1187POPC   GL217966  26.903  36.054   8.864
 1187POPC   C1A17967  26.861  36.156   8.564
 1187POPC   D2A17968  26.836  36.082   8.264
 1187POPC   C3A17969  26.829  36.160   7.964
 1187POPC   C4A17970  26.774  36.090   7.664
 1187POPC   C1B17971  26.996  35.872   8.564
 1187POPC   C2B17972  26.960  35.914   8.264
 1187POPC   C3B17973  26.939  35.900   7.964
 1187POPC   C4B17974  26.964  35.914   7.664
 1188POPC   NC317975  15.228   8.204   9.464
 1188POPC   PO417976  15.173   8.229   9.164
 1188POPC   GL117977  15.144   8.148   8.864
 1188POPC   GL217978  15.253   8.115   8.864
 1188POPC   C1A17979  15.163   8.156   8.564
 1188POPC   D2A17980  15.136   8.224   8.264
 1188POPC   C3A17981  15.133   8.178   7.964
 1188POPC   C4A17982  15.140   8.183   7.664
 1188POPC   C1B17983  15.311   7.979   8.564
 1188POPC   C2B17984  15.248   7.979   8.264
 1188POPC   C3B17985  15.299   7.999   7.964
 1188POPC   C4B17986  15.260   7.996   7.664
 1189POPC   NC317987   1.983   4.274   9.464
 1189POPC   PO417988   2.000   4.333   9.164
 1189POPC   GL117989   2.009   4.329   8.864
 1189POPC   GL217990   1.932   4.428   8.864
 1189POPC   C1A17991   1.953   4.335   8.564
 1189POPC   D2A17992   1.954   4.322   8.264
 1189POPC   C3A17993   1.965   4.360   7.964
 1189POPC   C4A17994   1.974   4.361   7.664
 1189POPC   C1B17995   1.892   4.532   8.564
 1189POPC   C2B17996   1.823   4.531   8.264
 1189POPC   C3B17997   1.834   4.511   7.964
 1189POPC   C4B17998   1.880   4.542   7.664
 1190POPC   NC317999  12.082  36.916   9.464
 1190POPC   PO418000  12.097  36.883   9.164
 1190POPC   GL118001  12.078  36.865   8.864
 1190POPC   GL218002  12.234  36.915   8.864
 1190POPC   C1A18003  12.053  36.951   8.564
 1190POPC   D2A18004  12.120  36.874   8.264
 1190POPC   C3A18005  12.083  36.880   7.964
 1190POPC   C4A18006  12.036  36.876   7.664
 1190POPC   C1B18007  12.312  36.816   8.564
 1190POPC   C2B18008  12.289  36.878   8.264
 1190POPC   C3B18009  12.365  36.793   7.964
 1190POPC   C4B18010  12.321  36.871   7.664
 1191POPC   NC318011  10.488  34.622   9.464
 1191POPC   PO418012  10.568  34.561   9.164
 1191POPC   GL118013  10.527  34.561   8.864
 1191POPC   GL218014  10.436  34.698   8.864
 1191POPC   C1A18015  10.499  34.583   8.564
 1191POPC   D2A18016  10.532  34.559   8.264
 1191POPC   C3A18017  10.484  34.558   7.964
 1191POPC   C4A18018  10.523  34.582   7.664
 1191POPC   C1B18019  10.444  34.841   8.564
 1191POPC   C2B18020  10.445  34.824   8.264
 1191POPC   C3B18021  10.391  34.757   7.964
 1191POPC   C4B18022  10.451  34.822   7.664
 1192POPC   NC318023   2.722  26.864   9.464
 1192POPC   PO418024   2.815  26.814   9.164
 1192POPC   GL118025   2.763  26.796   8.864
 1192POPC   GL218026   2.848  26.913   8.864
 1192POPC   C1A18027   2.813  26.782   8.564
 1192POPC   D2A18028   2.814  26.826   8.264
 1192POPC   C3A18029   2.766  26.801   7.964
 1192POPC   C4A18030   2.729  26.848   7.664
 1192POPC   C1B18031   2.981  27.001   8.564
 1192POPC   C2B18032   2.911  26.989   8.264
 1192POPC   C3B18033   2.991  26.991   7.964
 1192POPC   C4B18034   2.940  26.946   7.664
 1193POPC   NC318035  29.110  33.040   9.464
 1193POPC   PO418036  29.130  32.984   9.164
 1193POPC   GL118037  29.110  33.059   8.864
 1193POPC   GL218038  29.151  33.136   8.864
 1193POPC   C1A18039  29.177  33.005   8.564
 1193POPC   D2A18040  29.155  33.057   8.264
 1193POPC   C3A18041  29.135  32.999   7.964
 1193POPC   C4A18042  29.134  33.016   7.664
 1193POPC   C1B18043  29.110  33.226   8.564
 1193POPC   C2B18044  29.117  33.236   8.264
 1193POPC   C3B18045  29.204  33.309   7.964
 1193POPC   C4B18046  29.122  33.290   7.664
 1194POPC   NC318047  15.950  22.949   9.464
 1194POPC   PO418048  15.926  22.952   9.164
 1194POPC   GL118049  15.987  22.922   8.864
 1194POPC   GL218050  16.104  22.922   8.864
 1194POPC   C1A18051  15.998  22.977   8.564
 1194POPC   D2A18052  15.962  22.916   8.264
 1194POPC   C3A18053  15.907  22.944   7.964
 1194POPC   C4A18054  15.933  22.941   7.664
 1194POPC   C1B18055  16.230  22.917   8.564
 1194POPC   C2B18056  16.220  22.949   8.264
 1194POPC   C3B18057  16.173  22.917   7.964
 1194POPC   C4B18058  16.158  22.919   7.664
 1195POPC   NC318059  44.680  29.174   9.464
 1195POPC   PO418060  44.692  29.190   9.164
 1195POPC   GL118061  44.644  29.139   8.864
 1195POPC   GL218062  44.780  29.169   8.864
 1195POPC   C1A18063  44.662  29.097   8.564
 1195POPC   D2A18064  44.705  29.146   8.264
 1195POPC   C3A18065  44.681  29.108   7.964
 1195POPC   C4A18066  44.690  29.135   7.664
 1195POPC   C1B18067  44.939  29.127   8.564
 1195POPC   C2B18068  44.950  29.170   8.264
 1195POPC   C3B18069  44.917  29.153   7.964
 1195POPC   C4B18070  44.868  29.106   7.664
 1196POPC   NC318071  21.360  19.014   9.464
 1196POPC   PO418072  21.349  19.104   9.164
 1196POPC   GL118073  21.428  19.027   8.864
 1196POPC   GL218074  21.219  19.041   8.864
 1196POPC   C1A18075  21.425  19.086   8.564
 1196POPC   D2A18076  21.423  19.054   8.264
 1196POPC   C3A18077  21.352  19.101   7.964
 1196POPC   C4A18078  21.368  19.065   7.664
 1196POPC   C1B18079  21.143  19.095   8.564
 1196POPC   C2B18080  21.157  19.043   8.264
 1196POPC   C3B18081  21.141  19.068   7.964
 1196POPC   C4B18082  21.114  19.019   7.664
 1197POPC   NC318083   3.578  12.888   9.464
 1197POPC   PO418084   3.513  12.829   9.164
 1197POPC   GL118085   3.580  12.837   8.864
 1197POPC   GL218086   3.555  12.690   8.864
 1197POPC   C1A18087   3.565  12.876   8.564
 1197POPC   D2A18088   3.504  12.878   8.264
 1197POPC   C3A18089   3.515  12.899   7.964
 1197POPC   C4A18090   3.562  12.889   7.664
 1197POPC   C1B18091   3.656  12.677   8.564
 1197POPC   C2B18092   3.692  12.623   8.264
 1197POPC   C3B18093   3.698  12.625   7.964
 1197POPC   C4B18094   3.618  12.667   7.664
 1198POPC   NC318095   9.779  32.277   9.464
 1198POPC   PO418096   9.781  32.244   9.164
 1198POPC   GL118097   9.729  32.227   8.864
 1198POPC   GL218098   9.854  32.282   8.864
 1198POPC   C1A18099   9.703  32.266   8.564
 1198POPC   D2A18100   9.751  32.276   8.264
 1198POPC   C3A18101   9.761  32.247   7.964
 1198POPC   C4A18102   9.731  32.278   7.664
 1198POPC   C1B18103   9.975  32.241   8.564
 1198POPC   C2B18104   9.977  32.238   8.264
 1198POPC   C3B18105  10.015  32.203   7.964
 1198POPC   C4B18106   9.983  32.226   7.664
 1199POPC   NC318107   3.538  16.757   9.464
 1199POPC   PO418108   3.581  16.691   9.164
 1199POPC   GL118109   3.535  16.778   8.864
 1199POPC   GL218110   3.597  16.830   8.864
 1199POPC   C1A18111   3.582  16.774   8.564
 1199POPC   D2A18112   3.585  16.776   8.264
 1199POPC   C3A18113   3.564  16.754   7.964
 1199POPC   C4A18114   3.569  16.730   7.664
 1199POPC   C1B18115   3.619  16.972   8.564
 1199POPC   C2B18116   3.613  16.988   8.264
 1199POPC   C3B18117   3.551  16.989   7.964
 1199POPC   C4B18118   3.629  16.982   7.664
 1200POPC   NC318119  15.982  14.445   9.464
 1200POPC   PO418120  15.982  14.437   9.164
 1200POPC   GL118121  15.975  14.406   8.864
 1200POPC   GL218122  15.882  14.502   8.864
 1200POPC   C1A18123  15.932  14.401   8.564
 1200POPC   D2A18124  15.938  14.408   8.264
 1200POPC   C3A18125  15.926  14.413   7.964
 1200POPC   C4A18126  15.925  14.449   7.664
 1200POPC   C1B18127  15.707  14.515   8.564
 1200POPC   C2B18128  15.691  14.462   8.264
 1200POPC   C3B18129  15.778  14.468   7.964
 1200POPC   C4B18130  15.749  14.476   7.664
 1201POPC   NC318131  17.476  43.906   9.464
 1201POPC   PO418132  17.518  43.851   9.164
 1201POPC   GL118133  17.457  43.845   8.864
 1201POPC   GL218134  17.455  43.962   8.864
 1201POPC   C1A18135  17.484  43.845   8.564
 1201POPC   D2A18136  17.475  43.903   8.264
 1201POPC   C3A18137  17.464  43.893   7.964
 1201POPC   C4A18138  17.491  43.862   7.664
 1201POPC   C1B18139  17.444  44.140   8.564
 1201POPC   C2B18140  17.471  44.108   8.264
 1201POPC   C3B18141  17.493  44.109   7.964
 1201POPC   C4B18142  17.462  44.109   7.664
 1202POPC   NC318143  35.324  13.596   9.464
 1202POPC   PO418144  35.366  13.610   9.164
 1202POPC   GL118145  35.398  13.646   8.864
 1202POPC   GL218146  35.291  13.525   8.864
 1202POPC   C1A18147  35.328  13.659   8.564
 1202POPC   D2A18148  35.321  13.618   8.264
 1202POPC   C3A18149  35.308  13.658   7.964
 1202POPC   C4A18150  35.303  13.616   7.664
 1202POPC   C1B18151  35.344  13.423   8.564
 1202POPC   C2B18152  35.341  13.338   8.264
 1202POPC   C3B18153  35.320  13.370   7.964
 1202POPC   C4B18154  35.306  13.421   7.664
 1203POPC   NC318155  19.035  37.694   9.464
 1203POPC   PO418156  19.077  37.712   9.164
 1203POPC   GL118157  19.074  37.700   8.864
 1203POPC   GL218158  18.998  37.770   8.864
 1203POPC   C1A18159  19.097  37.667   8.564
 1203POPC   D2A18160  19.028  37.686   8.264
 1203POPC   C3A18161  19.038  37.703   7.964
 1203POPC   C4A18162  19.069  37.702   7.664
 1203POPC   C1B18163  18.968  37.874   8.564
 1203POPC   C2B18164  18.902  37.890   8.264
 1203POPC   C3B18165  18.901  37.860   7.964
 1203POPC   C4B18166  18.951  37.944   7.664
 1204POPC   NC318167  16.005  32.216   9.464
 1204POPC   PO418168  15.970  32.246   9.164
 1204POPC   GL118169  15.963  32.227   8.864
 1204POPC   GL218170  15.904  32.310   8.864
 1204POPC   C1A18171  15.908  32.278   8.564
 1204POPC   D2A18172  15.923  32.225   8.264
 1204POPC   C3A18173  15.935  32.261   7.964
 1204POPC   C4A18174  15.937  32.253   7.664
 1204POPC   C1B18175  15.766  32.439   8.564
 1204POPC   C2B18176  15.775  32.474   8.264
 1204POPC   C3B18177  15.814  32.450   7.964
 1204POPC   C4B18178  15.829  32.441   7.664
 1205POPC   NC318179  18.268  29.962   9.464
 1205POPC   PO418180  18.261  29.902   9.164
 1205POPC   GL118181  18.282  29.955   8.864
 1205POPC   GL218182  18.171  30.011   8.864
 1205POPC   C1A18183  18.234  29.963   8.564
 1205POPC   D2A18184  18.243  29.888   8.264
 1205POPC   C3A18185  18.290  29.904   7.964
 1205POPC   C4A18186  18.254  29.935   7.664
 1205POPC   C1B18187  18.075  29.989   8.564
 1205POPC   C2B18188  18.087  30.071   8.264
 1205POPC   C3B18189  18.075  30.018   7.964
 1205POPC   C4B18190  18.022  30.055   7.664
 1206POPC   NC318191  22.145  30.718   9.464
 1206POPC   PO418192  22.176  30.655   9.164
 1206POPC   GL118193  22.203  30.717   8.864
 1206POPC   GL218194  22.335  30.670   8.864
 1206POPC   C1A18195  22.152  30.687   8.564
 1206POPC   D2A18196  22.169  30.712   8.264
 1206POPC   C3A18197  22.192  30.722   7.964
 1206POPC   C4A18198  22.204  30.739   7.664
 1206POPC   C1B18199  22.401  30.630   8.564
 1206POPC   C2B18200  22.382  30.626   8.264
 1206POPC   C3B18201  22.401  30.644   7.964
 1206POPC   C4B18202  22.443  30.662   7.664
 1207POPC   NC318203   5.092  27.641   9.464
 1207POPC   PO418204   5.107  27.548   9.164
 1207POPC   GL118205   5.084  27.567   8.864
 1207POPC   GL218206   5.196  27.577   8.864
 1207POPC   C1A18207   5.117  27.545   8.564
 1207POPC   D2A18208   5.113  27.626   8.264
 1207POPC   C3A18209   5.102  27.615   7.964
 1207POPC   C4A18210   5.115  27.624   7.664
 1207POPC   C1B18211   5.328  27.632   8.564
 1207POPC   C2B18212   5.360  27.623   8.264
 1207POPC   C3B18213   5.378  27.625   7.964
 1207POPC   C4B18214   5.364  27.636   7.664
 1208POPC   NC318215  38.429  43.094   9.464
 1208POPC   PO418216  38.455  43.116   9.164
 1208POPC   GL118217  38.504  43.139   8.864
 1208POPC   GL218218  38.490  43.187   8.864
 1208POPC   C1A18219  38.491  43.118   8.564
 1208POPC   D2A18220  38.498  43.154   8.264
 1208POPC   C3A18221  38.503  43.154   7.964
 1208POPC   C4A18222  38.408  43.118   7.664
 1208POPC   C1B18223  38.418  43.394   8.564
 1208POPC   C2B18224  38.423  43.363   8.264
 1208POPC   C3B18225  38.489  43.343   7.964
 1208POPC   C4B18226  38.453  43.326   7.664
 1209POPC   NC318227  24.514  29.184   9.464
 1209POPC   PO418228  24.468  29.129   9.164
 1209POPC   GL118229  24.491  29.188   8.864
 1209POPC   GL218230  24.529  29.263   8.864
 1209POPC   C1A18231  24.487  29.172   8.564
 1209POPC   D2A18232  24.452  29.097   8.264
 1209POPC   C3A18233  24.505  29.174   7.964
 1209POPC   C4A18234  24.503  29.108   7.664
 1209POPC   C1B18235  24.595  29.360   8.564
 1209POPC   C2B18236  24.533  29.354   8.264
 1209POPC   C3B18237  24.544  29.347   7.964
 1209POPC   C4B18238  24.586  29.336   7.664
 1210POPC   NC318239  11.326  24.481   9.464
 1210POPC   PO418240  11.288  24.497   9.164
 1210POPC   GL118241  11.332  24.536   8.864
 1210POPC   GL218242  11.388  24.588   8.864
 1210POPC   C1A18243  11.306  24.476   8.564
 1210POPC   D2A18244  11.324  24.488   8.264
 1210POPC   C3A18245  11.325  24.504   7.964
 1210POPC   C4A18246  11.342  24.482   7.664
 1210POPC   C1B18247  11.512  24.636   8.564
 1210POPC   C2B18248  11.505  24.595   8.264
 1210POPC   C3B18249  11.502  24.587   7.964
 1210POPC   C4B18250  11.512  24.653   7.664
 1211POPC   NC318251  29.917  44.618   9.464
 1211POPC   PO418252  29.911  44.697   9.164
 1211POPC   GL118253  29.903  44.703   8.864
 1211POPC   GL218254  29.902  44.821   8.864
 1211POPC   C1A18255  29.941  44.706   8.564
 1211POPC   D2A18256  29.945  44.679   8.264
 1211POPC   C3A18257  29.911  44.652   7.964
 1211POPC   C4A18258  29.930  44.641   7.664
 1211POPC   C1B18259  29.915  44.876   8.564
 1211POPC   C2B18260  29.963  44.913   8.264
 1211POPC   C3B18261  29.912  44.869   7.964
 1211POPC   C4B18262  29.887  44.952   7.664
 1212POPC   NC318263   8.171  11.333   9.464
 1212POPC   PO418264   8.205  11.320   9.164
 1212POPC   GL118265   8.220  11.337   8.864
 1212POPC   GL218266   8.041  11.287   8.864
 1212POPC   C1A18267   8.238  11.306   8.564
 1212POPC   D2A18268   8.203  11.260   8.264
 1212POPC   C3A18269   8.210  11.330   7.964
 1212POPC   C4A18270   8.154  11.292   7.664
 1212POPC   C1B18271   7.979  11.227   8.564
 1212POPC   C2B18272   7.921  11.261   8.264
 1212POPC   C3B18273   7.977  11.252   7.964
 1212POPC   C4B18274   7.937  11.236   7.664
 1213POPC   NC318275  17.486  11.331   9.464
 1213POPC   PO418276  17.467  11.342   9.164
 1213POPC   GL118277  17.537  11.284   8.864
 1213POPC   GL218278  17.588  11.316   8.864
 1213POPC   C1A18279  17.514  11.294   8.564
 1213POPC   D2A18280  17.522  11.332   8.264
 1213POPC   C3A18281  17.491  11.263   7.964
 1213POPC   C4A18282  17.511  11.304   7.664
 1213POPC   C1B18283  17.702  11.314   8.564
 1213POPC   C2B18284  17.720  11.346   8.264
 1213POPC   C3B18285  17.770  11.346   7.964
 1213POPC   C4B18286  17.706  11.407   7.664
 1214POPC   NC318287  39.218  25.233   9.464
 1214POPC   PO418288  39.250  25.278   9.164
 1214POPC   GL118289  39.187  25.267   8.864
 1214POPC   GL218290  39.347  25.230   8.864
 1214POPC   C1A18291  39.255  25.294   8.564
 1214POPC   D2A18292  39.237  25.237   8.264
 1214POPC   C3A18293  39.280  25.230   7.964
 1214POPC   C4A18294  39.257  25.305   7.664
 1214POPC   C1B18295  39.431  25.190   8.564
 1214POPC   C2B18296  39.479  25.200   8.264
 1214POPC   C3B18297  39.443  25.232   7.964
 1214POPC   C4B18298  39.486  25.266   7.664
 1215POPC   NC318299  21.400   7.420   9.464
 1215POPC   PO418300  21.410   7.388   9.164
 1215POPC   GL118301  21.340   7.461   8.864
 1215POPC   GL218302  21.398   7.302   8.864
 1215POPC   C1A18303  21.419   7.437   8.564
 1215POPC   D2A18304  21.338   7.420   8.264
 1215POPC   C3A18305  21.361   7.398   7.964
 1215POPC   C4A18306  21.347   7.470   7.664
 1215POPC   C1B18307  21.533   7.180   8.564
 1215POPC   C2B18308  21.529   7.249   8.264
 1215POPC   C3B18309  21.520   7.235   7.964
 1215POPC   C4B18310  21.471   7.170   7.664
 1216POPC   NC318311  14.365   9.793   9.464
 1216POPC   PO418312  14.412   9.779   9.164
 1216POPC   GL118313  14.399   9.797   8.864
 1216POPC   GL218314  14.281   9.889   8.864
 1216POPC   C1A18315  14.396   9.767   8.564
 1216POPC   D2A18316  14.366   9.746   8.264
 1216POPC   C3A18317  14.431   9.773   7.964
 1216POPC   C4A18318  14.390   9.742   7.664
 1216POPC   C1B18319  14.252   9.926   8.564
 1216POPC   C2B18320  14.231   9.929   8.264
 1216POPC   C3B18321  14.278   9.901   7.964
 1216POPC   C4B18322  14.219   9.908   7.664
 1217POPC   NC318323  39.195  10.500   9.464
 1217POPC   PO418324  39.267  10.480   9.164
 1217POPC   GL118325  39.266  10.538   8.864
 1217POPC   GL218326  39.306  10.679   8.864
 1217POPC   C1A18327  39.254  10.545   8.564
 1217POPC   D2A18328  39.207  10.484   8.264
 1217POPC   C3A18329  39.272  10.518   7.964
 1217POPC   C4A18330  39.183  10.571   7.664
 1217POPC   C1B18331  39.280  10.768   8.564
 1217POPC   C2B18332  39.333  10.790   8.264
 1217POPC   C3B18333  39.299  10.721   7.964
 1217POPC   C4B18334  39.296  10.715   7.664
 1218POPC   NC318335  29.946   5.898   9.464
 1218POPC   PO418336  29.938   5.904   9.164
 1218POPC   GL118337  29.908   5.875   8.864
 1218POPC   GL218338  29.972   5.791   8.864
 1218POPC   C1A18339  29.902   5.846   8.564
 1218POPC   D2A18340  29.938   5.850   8.264
 1218POPC   C3A18341  29.949   5.911   7.964
 1218POPC   C4A18342  29.887   5.896   7.664
 1218POPC   C1B18343  30.071   5.598   8.564
 1218POPC   C2B18344  30.009   5.690   8.264
 1218POPC   C3B18345  30.029   5.614   7.964
 1218POPC   C4B18346  30.048   5.597   7.664
 1219POPC   NC318347  40.050  11.317   9.464
 1219POPC   PO418348  40.025  11.336   9.164
 1219POPC   GL118349  40.032  11.295   8.864
 1219POPC   GL218350  40.021  11.434   8.864
 1219POPC   C1A18351  40.055  11.252   8.564
 1219POPC   D2A18352  40.044  11.262   8.264
 1219POPC   C3A18353  40.032  11.348   7.964
 1219POPC   C4A18354  39.965  11.348   7.664
 1219POPC   C1B18355  39.954  11.494   8.564
 1219POPC   C2B18356  39.949  11.491   8.264
 1219POPC   C3B18357  39.911  11.583   7.964
 1219POPC   C4B18358  39.896  11.554   7.664
 1220POPC   NC318359  20.565  25.302   9.464
 1220POPC   PO418360  20.575  25.258   9.164
 1220POPC   GL118361  20.628  25.232   8.864
 1220POPC   GL218362  20.743  25.375   8.864
 1220POPC   C1A18363  20.587  25.300   8.564
 1220POPC   D2A18364  20.573  25.304   8.264
 1220POPC   C3A18365  20.593  25.263   7.964
 1220POPC   C4A18366  20.571  25.287   7.664
 1220POPC   C1B18367  20.789  25.462   8.564
 1220POPC   C2B18368  20.837  25.418   8.264
 1220POPC   C3B18369  20.838  25.458   7.964
 1220POPC   C4B18370  20.811  25.448   7.664
 1221POPC   NC318371  14.442  26.073   9.464
 1221POPC   PO418372  14.398  26.086   9.164
 1221POPC   GL118373  14.418  26.066   8.864
 1221POPC   GL218374  14.407  25.897   8.864
 1221POPC   C1A18375  14.368  26.023   8.564
 1221POPC   D2A18376  14.388  26.075   8.264
 1221POPC   C3A18377  14.386  26.053   7.964
 1221POPC   C4A18378  14.398  25.991   7.664
 1221POPC   C1B18379  14.348  25.818   8.564
 1221POPC   C2B18380  14.340  25.778   8.264
 1221POPC   C3B18381  14.356  25.750   7.964
 1221POPC   C4B18382  14.431  25.823   7.664
 1222POPC   NC318383  37.694  43.924   9.464
 1222POPC   PO418384  37.694  43.887   9.164
 1222POPC   GL118385  37.709  43.849   8.864
 1222POPC   GL218386  37.617  43.984   8.864
 1222POPC   C1A18387  37.650  43.891   8.564
 1222POPC   D2A18388  37.672  43.871   8.264
 1222POPC   C3A18389  37.660  43.845   7.964
 1222POPC   C4A18390  37.699  43.880   7.664
 1222POPC   C1B18391  37.478  44.023   8.564
 1222POPC   C2B18392  37.501  44.080   8.264
 1222POPC   C3B18393  37.540  44.058   7.964
 1222POPC   C4B18394  37.459  44.027   7.664
 1223POPC   NC318395  33.032   4.317   9.464
 1223POPC   PO418396  33.057   4.335   9.164
 1223POPC   GL118397  33.073   4.340   8.864
 1223POPC   GL218398  33.104   4.220   8.864
 1223POPC   C1A18399  32.996   4.314   8.564
 1223POPC   D2A18400  33.047   4.348   8.264
 1223POPC   C3A18401  32.985   4.361   7.964
 1223POPC   C4A18402  32.992   4.308   7.664
 1223POPC   C1B18403  33.180   4.151   8.564
 1223POPC   C2B18404  33.214   4.178   8.264
 1223POPC   C3B18405  33.184   4.133   7.964
 1223POPC   C4B18406  33.174   4.139   7.664
 1224POPC   NC318407  13.628  29.107   9.464
 1224POPC   PO418408  13.579  29.165   9.164
 1224POPC   GL118409  13.589  29.157   8.864
 1224POPC   GL218410  13.577  29.227   8.864
 1224POPC   C1A18411  13.610  29.127   8.564
 1224POPC   D2A18412  13.660  29.185   8.264
 1224POPC   C3A18413  13.607  29.125   7.964
 1224POPC   C4A18414  13.620  29.103   7.664
 1224POPC   C1B18415  13.565  29.427   8.564
 1224POPC   C2B18416  13.623  29.376   8.264
 1224POPC   C3B18417  13.638  29.389   7.964
 1224POPC   C4B18418  13.581  29.391   7.664
 1225POPC   NC318419  18.265  25.995   9.464
 1225POPC   PO418420  18.310  26.054   9.164
 1225POPC   GL118421  18.316  26.018   8.864
 1225POPC   GL218422  18.226  26.134   8.864
 1225POPC   C1A18423  18.256  26.027   8.564
 1225POPC   D2A18424  18.290  25.992   8.264
 1225POPC   C3A18425  18.249  26.013   7.964
 1225POPC   C4A18426  18.274  26.071   7.664
 1225POPC   C1B18427  18.185  26.265   8.564
 1225POPC   C2B18428  18.236  26.231   8.264
 1225POPC   C3B18429  18.152  26.235   7.964
 1225POPC   C4B18430  18.180  26.264   7.664
 1226POPC   NC318431   6.666   7.408   9.464
 1226POPC   PO418432   6.666   7.374   9.164
 1226POPC   GL118433   6.625   7.420   8.864
 1226POPC   GL218434   6.489   7.373   8.864
 1226POPC   C1A18435   6.657   7.382   8.564
 1226POPC   D2A18436   6.637   7.408   8.264
 1226POPC   C3A18437   6.621   7.377   7.964
 1226POPC   C4A18438   6.644   7.423   7.664
 1226POPC   C1B18439   6.464   7.313   8.564
 1226POPC   C2B18440   6.441   7.345   8.264
 1226POPC   C3B18441   6.452   7.371   7.964
 1226POPC   C4B18442   6.373   7.304   7.664
 1227POPC   NC318443  10.497   0.429   9.464
 1227POPC   PO418444  10.498   0.436   9.164
 1227POPC   GL118445  10.514   0.455   8.864
 1227POPC   GL218446  10.496   0.552   8.864
 1227POPC   C1A18447  10.540   0.396   8.564
 1227POPC   D2A18448  10.493   0.436   8.264
 1227POPC   C3A18449  10.513   0.432   7.964
 1227POPC   C4A18450  10.509   0.465   7.664
 1227POPC   C1B18451  10.455   0.678   8.564
 1227POPC   C2B18452  10.450   0.692   8.264
 1227POPC   C3B18453  10.471   0.679   7.964
 1227POPC   C4B18454  10.468   0.703   7.664
 1228POPC   NC318455  29.115  44.661   9.464
 1228POPC   PO418456  29.154  44.686   9.164
 1228POPC   GL118457  29.152  44.664   8.864
 1228POPC   GL218458  29.227  44.601   8.864
 1228POPC   C1A18459  29.168  44.635   8.564
 1228POPC   D2A18460  29.123  44.648   8.264
 1228POPC   C3A18461  29.140  44.680   7.964
 1228POPC   C4A18462  29.155  44.621   7.664
 1228POPC   C1B18463  29.393  44.572   8.564
 1228POPC   C2B18464  29.425  44.578   8.264
 1228POPC   C3B18465  29.392  44.633   7.964
 1228POPC   C4B18466  29.360  44.618   7.664
 1229POPC   NC318467  20.612  15.917   9.464
 1229POPC   PO418468  20.631  15.915   9.164
 1229POPC   GL118469  20.600  16.002   8.864
 1229POPC   GL218470  20.758  15.979   8.864
 1229POPC   C1A18471  20.615  15.940   8.564
 1229POPC   D2A18472  20.607  15.928   8.264
 1229POPC   C3A18473  20.629  15.985   7.964
 1229POPC   C4A18474  20.597  15.992   7.664
 1229POPC   C1B18475  20.891  15.995   8.564
 1229POPC   C2B18476  20.885  16.023   8.264
 1229POPC   C3B18477  20.827  16.013   7.964
 1229POPC   C4B18478  20.816  16.018   7.664
 1230POPC   NC318479   1.235   1.231   9.464
 1230POPC   PO418480   1.224   1.188   9.164
 1230POPC   GL118481   1.222   1.253   8.864
 1230POPC   GL218482   1.293   1.151   8.864
 1230POPC   C1A18483   1.255   1.213   8.564
 1230POPC   D2A18484   1.173   1.197   8.264
 1230POPC   C3A18485   1.213   1.202   7.964
 1230POPC   C4A18486   1.243   1.206   7.664
 1230POPC   C1B18487   1.402   1.056   8.564
 1230POPC   C2B18488   1.426   1.070   8.264
 1230POPC   C3B18489   1.393   1.033   7.964
 1230POPC   C4B18490   1.447   1.040   7.664
 1231POPC   NC318491   1.227  34.596   9.464
 1231POPC   PO418492   1.185  34.602   9.164
 1231POPC   GL118493   1.205  34.579   8.864
 1231POPC   GL218494   1.270  34.488   8.864
 1231POPC   C1A18495   1.257  34.549   8.564
 1231POPC   D2A18496   1.207  34.603   8.264
 1231POPC   C3A18497   1.201  34.605   7.964
 1231POPC   C4A18498   1.208  34.561   7.664
 1231POPC   C1B18499   1.355  34.396   8.564
 1231POPC   C2B18500   1.394  34.360   8.264
 1231POPC   C3B18501   1.354  34.380   7.964
 1231POPC   C4B18502   1.340  34.345   7.664
 1232POPC   NC318503   2.748   4.316   9.464
 1232POPC   PO418504   2.777   4.312   9.164
 1232POPC   GL118505   2.766   4.334   8.864
 1232POPC   GL218506   2.823   4.184   8.864
 1232POPC   C1A18507   2.779   4.321   8.564
 1232POPC   D2A18508   2.732   4.360   8.264
 1232POPC   C3A18509   2.809   4.279   7.964
 1232POPC   C4A18510   2.782   4.288   7.664
 1232POPC   C1B18511   2.876   4.051   8.564
 1232POPC   C2B18512   2.896   4.077   8.264
 1232POPC   C3B18513   2.830   4.125   7.964
 1232POPC   C4B18514   2.814   4.063   7.664
 1233POPC   NC318515  19.090  43.876   9.464
 1233POPC   PO418516  19.018  43.931   9.164
 1233POPC   GL118517  19.037  43.902   8.864
 1233POPC   GL218518  19.159  43.761   8.864
 1233POPC   C1A18519  19.098  43.844   8.564
 1233POPC   D2A18520  19.032  43.921   8.264
 1233POPC   C3A18521  19.088  43.839   7.964
 1233POPC   C4A18522  19.010  43.838   7.664
 1233POPC   C1B18523  19.261  43.747   8.564
 1233POPC   C2B18524  19.239  43.680   8.264
 1233POPC   C3B18525  19.204  43.715   7.964
 1233POPC   C4B18526  19.187  43.718   7.664
 1234POPC   NC318527  39.219  40.739   9.464
 1234POPC   PO418528  39.272  40.748   9.164
 1234POPC   GL118529  39.251  40.831   8.864
 1234POPC   GL218530  39.372  40.693   8.864
 1234POPC   C1A18531  39.238  40.751   8.564
 1234POPC   D2A18532  39.223  40.771   8.264
 1234POPC   C3A18533  39.264  40.754   7.964
 1234POPC   C4A18534  39.222  40.736   7.664
 1234POPC   C1B18535  39.444  40.623   8.564
 1234POPC   C2B18536  39.461  40.662   8.264
 1234POPC   C3B18537  39.498  40.686   7.964
 1234POPC   C4B18538  39.424  40.631   7.664
 1235POPC   NC318539   3.573  29.189   9.464
 1235POPC   PO418540   3.556  29.188   9.164
 1235POPC   GL118541   3.556  29.129   8.864
 1235POPC   GL218542   3.470  29.286   8.864
 1235POPC   C1A18543   3.557  29.145   8.564
 1235POPC   D2A18544   3.587  29.110   8.264
 1235POPC   C3A18545   3.565  29.116   7.964
 1235POPC   C4A18546   3.580  29.177   7.664
 1235POPC   C1B18547   3.373  29.352   8.564
 1235POPC   C2B18548   3.413  29.380   8.264
 1235POPC   C3B18549   3.403  29.327   7.964
 1235POPC   C4B18550   3.350  29.336   7.664
 1236POPC   NC318551  19.102  19.797   9.464
 1236POPC   PO418552  19.075  19.867   9.164
 1236POPC   GL118553  19.076  19.824   8.864
 1236POPC   GL218554  19.099  19.735   8.864
 1236POPC   C1A18555  19.017  19.787   8.564
 1236POPC   D2A18556  19.031  19.876   8.264
 1236POPC   C3A18557  19.076  19.808   7.964
 1236POPC   C4A18558  19.031  19.817   7.664
 1236POPC   C1B18559  19.069  19.634   8.564
 1236POPC   C2B18560  19.118  19.583   8.264
 1236POPC   C3B18561  19.075  19.567   7.964
 1236POPC   C4B18562  19.112  19.561   7.664
 1237POPC   NC318563   1.193  19.812   9.464
 1237POPC   PO418564   1.202  19.845   9.164
 1237POPC   GL118565   1.238  19.871   8.864
 1237POPC   GL218566   1.164  19.697   8.864
 1237POPC   C1A18567   1.233  19.821   8.564
 1237POPC   D2A18568   1.248  19.790   8.264
 1237POPC   C3A18569   1.193  19.804   7.964
 1237POPC   C4A18570   1.257  19.845   7.664
 1237POPC   C1B18571   1.126  19.636   8.564
 1237POPC   C2B18572   1.061  19.648   8.264
 1237POPC   C3B18573   1.141  19.578   7.964
 1237POPC   C4B18574   1.096  19.589   7.664
 1238POPC   NC318575  26.065  26.816   9.464
 1238POPC   PO418576  26.090  26.779   9.164
 1238POPC   GL118577  26.059  26.811   8.864
 1238POPC   GL218578  25.966  26.672   8.864
 1238POPC   C1A18579  26.019  26.775   8.564
 1238POPC   D2A18580  26.068  26.784   8.264
 1238POPC   C3A18581  26.070  26.843   7.964
 1238POPC   C4A18582  26.023  26.820   7.664
 1238POPC   C1B18583  25.883  26.562   8.564
 1238POPC   C2B18584  25.894  26.579   8.264
 1238POPC   C3B18585  25.884  26.558   7.964
 1238POPC   C4B18586  25.891  26.588   7.664
 1239POPC   NC318587  28.395   8.195   9.464
 1239POPC   PO418588  28.396   8.175   9.164
 1239POPC   GL118589  28.406   8.169   8.864
 1239POPC   GL218590  28.324   8.106   8.864
 1239POPC   C1A18591  28.329   8.156   8.564
 1239POPC   D2A18592  28.350   8.153   8.264
 1239POPC   C3A18593  28.395   8.213   7.964
 1239POPC   C4A18594  28.365   8.177   7.664
 1239POPC   C1B18595  28.200   8.012   8.564
 1239POPC   C2B18596  28.199   8.023   8.264
 1239POPC   C3B18597  28.218   8.037   7.964
 1239POPC   C4B18598  28.249   7.966   7.664
 1240POPC   NC318599  16.717   4.295   9.464
 1240POPC   PO418600  16.763   4.333   9.164
 1240POPC   GL118601  16.716   4.302   8.864
 1240POPC   GL218602  16.815   4.185   8.864
 1240POPC   C1A18603  16.684   4.268   8.564
 1240POPC   D2A18604  16.744   4.328   8.264
 1240POPC   C3A18605  16.764   4.273   7.964
 1240POPC   C4A18606  16.732   4.318   7.664
 1240POPC   C1B18607  16.891   4.171   8.564
 1240POPC   C2B18608  16.914   4.122   8.264
 1240POPC   C3B18609  16.846   4.177   7.964
 1240POPC   C4B18610  16.933   4.153   7.664
 1241POPC   NC318611   4.287  43.867   9.464
 1241POPC   PO418612   4.268  43.919   9.164
 1241POPC   GL118613   4.297  43.936   8.864
 1241POPC   GL218614   4.358  43.795   8.864
 1241POPC   C1A18615   4.346  43.839   8.564
 1241POPC   D2A18616   4.365  43.927   8.264
 1241POPC   C3A18617   4.270  43.853   7.964
 1241POPC   C4A18618   4.353  43.836   7.664
 1241POPC   C1B18619   4.277  43.592   8.564
 1241POPC   C2B18620   4.360  43.642   8.264
 1241POPC   C3B18621   4.352  43.684   7.964
 1241POPC   C4B18622   4.296  43.645   7.664
 1242POPC   NC318623  35.395  15.954   9.464
 1242POPC   PO418624  35.335  15.979   9.164
 1242POPC   GL118625  35.384  15.932   8.864
 1242POPC   GL218626  35.311  16.092   8.864
 1242POPC   C1A18627  35.376  15.907   8.564
 1242POPC   D2A18628  35.388  15.981   8.264
 1242POPC   C3A18629  35.324  16.003   7.964
 1242POPC   C4A18630  35.371  15.925   7.664
 1242POPC   C1B18631  35.347  16.227   8.564
 1242POPC   C2B18632  35.319  16.176   8.264
 1242POPC   C3B18633  35.362  16.178   7.964
 1242POPC   C4B18634  35.361  16.198   7.664
 1243POPC   NC318635   3.502  28.348   9.464
 1243POPC   PO418636   3.521  28.369   9.164
 1243POPC   GL118637   3.536  28.363   8.864
 1243POPC   GL218638   3.608  28.310   8.864
 1243POPC   C1A18639   3.576  28.333   8.564
 1243POPC   D2A18640   3.502  28.338   8.264
 1243POPC   C3A18641   3.562  28.341   7.964
 1243POPC   C4A18642   3.515  28.342   7.664
 1243POPC   C1B18643   3.682  28.197   8.564
 1243POPC   C2B18644   3.685  28.172   8.264
 1243POPC   C3B18645   3.744  28.168   7.964
 1243POPC   C4B18646   3.755  28.200   7.664
 1244POPC   NC318647  35.322  23.758   9.464
 1244POPC   PO418648  35.311  23.687   9.164
 1244POPC   GL118649  35.346  23.683   8.864
 1244POPC   GL218650  35.434  23.738   8.864
 1244POPC   C1A18651  35.364  23.721   8.564
 1244POPC   D2A18652  35.363  23.753   8.264
 1244POPC   C3A18653  35.379  23.711   7.964
 1244POPC   C4A18654  35.346  23.691   7.664
 1244POPC   C1B18655  35.546  23.788   8.564
 1244POPC   C2B18656  35.593  23.807   8.264
 1244POPC   C3B18657  35.561  23.816   7.964
 1244POPC   C4B18658  35.572  23.803   7.664
 1245POPC   NC318659  17.545   4.296   9.464
 1245POPC   PO418660  17.505   4.339   9.164
 1245POPC   GL118661  17.461   4.276   8.864
 1245POPC   GL218662  17.441   4.427   8.864
 1245POPC   C1A18663  17.486   4.282   8.564
 1245POPC   D2A18664  17.487   4.312   8.264
 1245POPC   C3A18665  17.506   4.312   7.964
 1245POPC   C4A18666  17.544   4.354   7.664
 1245POPC   C1B18667  17.367   4.492   8.564
 1245POPC   C2B18668  17.321   4.485   8.264
 1245POPC   C3B18669  17.311   4.509   7.964
 1245POPC   C4B18670  17.312   4.531   7.664
 1246POPC   NC318671  31.450  44.668   9.464
 1246POPC   PO418672  31.466  44.655   9.164
 1246POPC   GL118673  31.499  44.613   8.864
 1246POPC   GL218674  31.582  44.719   8.864
 1246POPC   C1A18675  31.490  44.651   8.564
 1246POPC   D2A18676  31.485  44.679   8.264
 1246POPC   C3A18677  31.445  44.682   7.964
 1246POPC   C4A18678  31.451  44.624   7.664
 1246POPC   C1B18679  31.707  44.817   8.564
 1246POPC   C2B18680  31.653  44.807   8.264
 1246POPC   C3B18681  31.709  44.855   7.964
 1246POPC   C4B18682  31.626  44.823   7.664
 1247POPC   NC318683  41.548  38.408   9.464
 1247POPC   PO418684  41.593  38.468   9.164
 1247POPC   GL118685  41.560  38.495   8.864
 1247POPC   GL218686  41.523  38.369   8.864
 1247POPC   C1A18687  41.587  38.435   8.564
 1247POPC   D2A18688  41.578  38.437   8.264
 1247POPC   C3A18689  41.539  38.409   7.964
 1247POPC   C4A18690  41.598  38.412   7.664
 1247POPC   C1B18691  41.501  38.259   8.564
 1247POPC   C2B18692  41.549  38.222   8.264
 1247POPC   C3B18693  41.512  38.193   7.964
 1247POPC   C4B18694  41.485  38.167   7.664
 1248POPC   NC318695  43.926  41.607   9.464
 1248POPC   PO418696  43.860  41.587   9.164
 1248POPC   GL118697  43.872  41.514   8.864
 1248POPC   GL218698  43.773  41.631   8.864
 1248POPC   C1A18699  43.866  41.553   8.564
 1248POPC   D2A18700  43.892  41.518   8.264
 1248POPC   C3A18701  43.919  41.556   7.964
 1248POPC   C4A18702  43.885  41.569   7.664
 1248POPC   C1B18703  43.698  41.725   8.564
 1248POPC   C2B18704  43.755  41.774   8.264
 1248POPC   C3B18705  43.791  41.783   7.964
 1248POPC   C4B18706  43.760  41.798   7.664
 1249POPC   NC318707  28.402   9.720   9.464
 1249POPC   PO418708  28.363   9.731   9.164
 1249POPC   GL118709  28.326   9.710   8.864
 1249POPC   GL218710  28.503   9.868   8.864
 1249POPC   C1A18711  28.372   9.792   8.564
 1249POPC   D2A18712  28.373   9.756   8.264
 1249POPC   C3A18713  28.411   9.762   7.964
 1249POPC   C4A18714  28.410   9.710   7.664
 1249POPC   C1B18715  28.575   9.911   8.564
 1249POPC   C2B18716  28.580   9.888   8.264
 1249POPC   C3B18717  28.589   9.944   7.964
 1249POPC   C4B18718  28.545   9.935   7.664
 1250POPC   NC318719  22.937  36.912   9.464
 1250POPC   PO418720  22.952  36.947   9.164
 1250POPC   GL118721  22.938  36.953   8.864
 1250POPC   GL218722  22.881  37.008   8.864
 1250POPC   C1A18723  22.909  36.947   8.564
 1250POPC   D2A18724  22.971  36.856   8.264
 1250POPC   C3A18725  22.909  36.863   7.964
 1250POPC   C4A18726  22.961  36.859   7.664
 1250POPC   C1B18727  22.737  36.999   8.564
 1250POPC   C2B18728  22.731  36.994   8.264
 1250POPC   C3B18729  22.743  37.005   7.964
 1250POPC   C4B18730  22.763  36.991   7.664
 1251POPC   NC318731   0.425  30.709   9.464
 1251POPC   PO418732   0.449  30.653   9.164
 1251POPC   GL118733   0.454  30.701   8.864
 1251POPC   GL218734   0.539  30.605   8.864
 1251POPC   C1A18735   0.391  30.692   8.564
 1251POPC   D2A18736   0.451  30.683   8.264
 1251POPC   C3A18737   0.446  30.672   7.964
 1251POPC   C4A18738   0.471  30.709   7.664
 1251POPC   C1B18739   0.528  30.499   8.564
 1251POPC   C2B18740   0.568  30.454   8.264
 1251POPC   C3B18741   0.572  30.477   7.964
 1251POPC   C4B18742   0.577  30.532   7.664
 1252POPC   NC318743  13.580  37.680   9.464
 1252POPC   PO418744  13.670  37.704   9.164
 1252POPC   GL118745  13.658  37.636   8.864
 1252POPC   GL218746  13.598  37.546   8.864
 1252POPC   C1A18747  13.594  37.645   8.564
 1252POPC   D2A18748  13.581  37.639   8.264
 1252POPC   C3A18749  13.668  37.692   7.964
 1252POPC   C4A18750  13.605  37.729   7.664
 1252POPC   C1B18751  13.585  37.414   8.564
 1252POPC   C2B18752  13.601  37.467   8.264
 1252POPC   C3B18753  13.593  37.425   7.964
 1252POPC   C4B18754  13.606  37.397   7.664
 1253POPC   NC318755  43.877  26.061   9.464
 1253POPC   PO418756  43.869  26.053   9.164
 1253POPC   GL118757  43.906  26.087   8.864
 1253POPC   GL218758  43.767  26.076   8.864
 1253POPC   C1A18759  43.840  26.090   8.564
 1253POPC   D2A18760  43.853  26.082   8.264
 1253POPC   C3A18761  43.892  25.992   7.964
 1253POPC   C4A18762  43.856  26.050   7.664
 1253POPC   C1B18763  43.656  26.107   8.564
 1253POPC   C2B18764  43.640  26.068   8.264
 1253POPC   C3B18765  43.630  26.142   7.964
 1253POPC   C4B18766  43.651  26.096   7.664
 1254POPC   NC318767  16.750  44.685   9.464
 1254POPC   PO418768  16.757  44.620   9.164
 1254POPC   GL118769  16.705  44.685   8.864
 1254POPC   GL218770  16.783  44.585   8.864
 1254POPC   C1A18771  16.712  44.618   8.564
 1254POPC   D2A18772  16.766  44.632   8.264
 1254POPC   C3A18773  16.708  44.692   7.964
 1254POPC   C4A18774  16.704  44.663   7.664
 1254POPC   C1B18775  16.815  44.454   8.564
 1254POPC   C2B18776  16.811  44.460   8.264
 1254POPC   C3B18777  16.885  44.407   7.964
 1254POPC   C4B18778  16.800  44.438   7.664
 1255POPC   NC318779  36.858  32.224   9.464
 1255POPC   PO418780  36.921  32.216   9.164
 1255POPC   GL118781  36.882  32.237   8.864
 1255POPC   GL218782  37.006  32.336   8.864
 1255POPC   C1A18783  36.906  32.260   8.564
 1255POPC   D2A18784  36.911  32.249   8.264
 1255POPC   C3A18785  36.860  32.207   7.964
 1255POPC   C4A18786  36.881  32.206   7.664
 1255POPC   C1B18787  37.044  32.379   8.564
 1255POPC   C2B18788  37.124  32.385   8.264
 1255POPC   C3B18789  37.074  32.411   7.964
 1255POPC   C4B18790  37.125  32.462   7.664
 1256POPC   NC318791  32.980  22.132   9.464
 1256POPC   PO418792  33.066  22.211   9.164
 1256POPC   GL118793  33.053  22.130   8.864
 1256POPC   GL218794  33.026  22.265   8.864
 1256POPC   C1A18795  32.982  22.193   8.564
 1256POPC   D2A18796  33.018  22.171   8.264
 1256POPC   C3A18797  33.043  22.174   7.964
 1256POPC   C4A18798  32.985  22.160   7.664
 1256POPC   C1B18799  33.126  22.409   8.564
 1256POPC   C2B18800  33.109  22.353   8.264
 1256POPC   C3B18801  33.139  22.354   7.964
 1256POPC   C4B18802  33.150  22.369   7.664
 1257POPC   NC318803  11.282  26.807   9.464
 1257POPC   PO418804  11.309  26.803   9.164
 1257POPC   GL118805  11.273  26.778   8.864
 1257POPC   GL218806  11.370  26.758   8.864
 1257POPC   C1A18807  11.348  26.837   8.564
 1257POPC   D2A18808  11.325  26.839   8.264
 1257POPC   C3A18809  11.302  26.791   7.964
 1257POPC   C4A18810  11.345  26.836   7.664
 1257POPC   C1B18811  11.489  26.605   8.564
 1257POPC   C2B18812  11.502  26.622   8.264
 1257POPC   C3B18813  11.427  26.647   7.964
 1257POPC   C4B18814  11.439  26.668   7.664
 1258POPC   NC318815   1.216  30.727   9.464
 1258POPC   PO418816   1.211  30.721   9.164
 1258POPC   GL118817   1.182  30.667   8.864
 1258POPC   GL218818   1.189  30.567   8.864
 1258POPC   C1A18819   1.188  30.695   8.564
 1258POPC   D2A18820   1.188  30.690   8.264
 1258POPC   C3A18821   1.217  30.735   7.964
 1258POPC   C4A18822   1.258  30.695   7.664
 1258POPC   C1B18823   1.128  30.453   8.564
 1258POPC   C2B18824   1.062  30.508   8.264
 1258POPC   C3B18825   1.039  30.440   7.964
 1258POPC   C4B18826   1.081  30.486   7.664
 1259POPC   NC318827  28.372  33.815   9.464
 1259POPC   PO418828  28.388  33.760   9.164
 1259POPC   GL118829  28.361  33.827   8.864
 1259POPC   GL218830  28.224  33.865   8.864
 1259POPC   C1A18831  28.400  33.786   8.564
 1259POPC   D2A18832  28.364  33.848   8.264
 1259POPC   C3A18833  28.411  33.793   7.964
 1259POPC   C4A18834  28.361  33.840   7.664
 1259POPC   C1B18835  28.146  33.882   8.564
 1259POPC   C2B18836  28.185  33.925   8.264
 1259POPC   C3B18837  28.156  33.906   7.964
 1259POPC   C4B18838  28.160  33.912   7.664
 1260POPC   NC318839  33.780  22.960   9.464
 1260POPC   PO418840  33.834  22.977   9.164
 1260POPC   GL118841  33.784  22.980   8.864
 1260POPC   GL218842  33.682  22.891   8.864
 1260POPC   C1A18843  33.791  22.919   8.564
 1260POPC   D2A18844  33.772  22.964   8.264
 1260POPC   C3A18845  33.782  22.923   7.964
 1260POPC   C4A18846  33.840  22.966   7.664
 1260POPC   C1B18847  33.572  22.896   8.564
 1260POPC   C2B18848  33.600  22.877   8.264
 1260POPC   C3B18849  33.580  22.879   7.964
 1260POPC   C4B18850  33.560  22.923   7.664
 1261POPC   NC318851   7.375  13.663   9.464
 1261POPC   PO418852   7.455  13.635   9.164
 1261POPC   GL118853   7.406  13.661   8.864
 1261POPC   GL218854   7.392  13.544   8.864
 1261POPC   C1A18855   7.464  13.627   8.564
 1261POPC   D2A18856   7.376  13.587   8.264
 1261POPC   C3A18857   7.397  13.606   7.964
 1261POPC   C4A18858   7.418  13.601   7.664
 1261POPC   C1B18859   7.336  13.422   8.564
 1261POPC   C2B18860   7.241  13.399   8.264
 1261POPC   C3B18861   7.258  13.449   7.964
 1261POPC   C4B18862   7.322  13.427   7.664
 1262POPC   NC318863  17.527  37.663   9.464
 1262POPC   PO418864  17.550  37.718   9.164
 1262POPC   GL118865  17.458  37.659   8.864
 1262POPC   GL218866  17.535  37.810   8.864
 1262POPC   C1A18867  17.492  37.702   8.564
 1262POPC   D2A18868  17.472  37.633   8.264
 1262POPC   C3A18869  17.517  37.703   7.964
 1262POPC   C4A18870  17.481  37.696   7.664
 1262POPC   C1B18871  17.611  37.868   8.564
 1262POPC   C2B18872  17.636  37.924   8.264
 1262POPC   C3B18873  17.644  37.934   7.964
 1262POPC   C4B18874  17.631  37.940   7.664
 1263POPC   NC318875  30.673  26.039   9.464
 1263POPC   PO418876  30.671  26.052   9.164
 1263POPC   GL118877  30.658  26.079   8.864
 1263POPC   GL218878  30.630  26.161   8.864
 1263POPC   C1A18879  30.658  26.019   8.564
 1263POPC   D2A18880  30.672  26.070   8.264
 1263POPC   C3A18881  30.666  26.089   7.964
 1263POPC   C4A18882  30.669  25.992   7.664
 1263POPC   C1B18883  30.635  26.292   8.564
 1263POPC   C2B18884  30.562  26.246   8.264
 1263POPC   C3B18885  30.632  26.258   7.964
 1263POPC   C4B18886  30.635  26.246   7.664
 1264POPC   NC318887  15.967   5.822   9.464
 1264POPC   PO418888  15.915   5.870   9.164
 1264POPC   GL118889  15.964   5.851   8.864
 1264POPC   GL218890  16.001   6.021   8.864
 1264POPC   C1A18891  15.911   5.862   8.564
 1264POPC   D2A18892  15.938   5.836   8.264
 1264POPC   C3A18893  15.985   5.840   7.964
 1264POPC   C4A18894  15.957   5.859   7.664
 1264POPC   C1B18895  16.019   6.117   8.564
 1264POPC   C2B18896  16.029   6.085   8.264
 1264POPC   C3B18897  16.017   6.055   7.964
 1264POPC   C4B18898  16.018   6.105   7.664
 1265POPC   NC318899  15.166  43.070   9.464
 1265POPC   PO418900  15.189  43.078   9.164
 1265POPC   GL118901  15.195  43.108   8.864
 1265POPC   GL218902  15.264  43.068   8.864
 1265POPC   C1A18903  15.162  43.141   8.564
 1265POPC   D2A18904  15.178  43.134   8.264
 1265POPC   C3A18905  15.171  43.130   7.964
 1265POPC   C4A18906  15.177  43.129   7.664
 1265POPC   C1B18907  15.477  43.101   8.564
 1265POPC   C2B18908  15.424  43.071   8.264
 1265POPC   C3B18909  15.445  43.074   7.964
 1265POPC   C4B18910  15.467  43.085   7.664
 1266POPC   NC318911  25.996  19.792   9.464
 1266POPC   PO418912  26.064  19.851   9.164
 1266POPC   GL118913  26.090  19.841   8.864
 1266POPC   GL218914  25.895  19.781   8.864
 1266POPC   C1A18915  26.012  19.819   8.564
 1266POPC   D2A18916  26.068  19.820   8.264
 1266POPC   C3A18917  26.034  19.794   7.964
 1266POPC   C4A18918  26.018  19.790   7.664
 1266POPC   C1B18919  25.796  19.661   8.564
 1266POPC   C2B18920  25.788  19.671   8.264
 1266POPC   C3B18921  25.873  19.663   7.964
 1266POPC   C4B18922  25.806  19.732   7.664
 1267POPC   NC318923   5.894  40.822   9.464
 1267POPC   PO418924   5.903  40.812   9.164
 1267POPC   GL118925   5.843  40.762   8.864
 1267POPC   GL218926   5.987  40.772   8.864
 1267POPC   C1A18927   5.898  40.735   8.564
 1267POPC   D2A18928   5.884  40.787   8.264
 1267POPC   C3A18929   5.847  40.827   7.964
 1267POPC   C4A18930   5.825  40.749   7.664
 1267POPC   C1B18931   6.080  40.863   8.564
 1267POPC   C2B18932   6.111  40.802   8.264
 1267POPC   C3B18933   6.062  40.822   7.964
 1267POPC   C4B18934   6.110  40.846   7.664
 1268POPC   NC318935   8.943   6.607   9.464
 1268POPC   PO418936   9.020   6.668   9.164
 1268POPC   GL118937   8.941   6.631   8.864
 1268POPC   GL218938   8.882   6.738   8.864
 1268POPC   C1A18939   9.008   6.606   8.564
 1268POPC   D2A18940   8.961   6.610   8.264
 1268POPC   C3A18941   8.959   6.682   7.964
 1268POPC   C4A18942   8.961   6.663   7.664
 1268POPC   C1B18943   8.839   6.850   8.564
 1268POPC   C2B18944   8.798   6.814   8.264
 1268POPC   C3B18945   8.824   6.886   7.964
 1268POPC   C4B18946   8.840   6.866   7.664
 1269POPC   NC318947  25.308  29.152   9.464
 1269POPC   PO418948  25.285  29.106   9.164
 1269POPC   GL118949  25.272  29.181   8.864
 1269POPC   GL218950  25.351  29.044   8.864
 1269POPC   C1A18951  25.231  29.112   8.564
 1269POPC   D2A18952  25.239  29.173   8.264
 1269POPC   C3A18953  25.250  29.152   7.964
 1269POPC   C4A18954  25.299  29.123   7.664
 1269POPC   C1B18955  25.363  28.949   8.564
 1269POPC   C2B18956  25.321  28.943   8.264
 1269POPC   C3B18957  25.335  28.941   7.964
 1269POPC   C4B18958  25.363  28.927   7.664
 1270POPC   NC318959  18.234   1.246   9.464
 1270POPC   PO418960  18.251   1.170   9.164
 1270POPC   GL118961  18.244   1.204   8.864
 1270POPC   GL218962  18.261   1.130   8.864
 1270POPC   C1A18963  18.241   1.228   8.564
 1270POPC   D2A18964  18.309   1.229   8.264
 1270POPC   C3A18965  18.293   1.253   7.964
 1270POPC   C4A18966  18.312   1.181   7.664
 1270POPC   C1B18967  18.229   0.991   8.564
 1270POPC   C2B18968  18.175   0.996   8.264
 1270POPC   C3B18969  18.233   0.981   7.964
 1270POPC   C4B18970  18.157   0.978   7.664
 1271POPC   NC318971  27.617  15.994   9.464
 1271POPC   PO418972  27.559  15.938   9.164
 1271POPC   GL118973  27.610  15.981   8.864
 1271POPC   GL218974  27.487  15.904   8.864
 1271POPC   C1A18975  27.592  15.924   8.564
 1271POPC   D2A18976  27.561  15.953   8.264
 1271POPC   C3A18977  27.571  15.981   7.964
 1271POPC   C4A18978  27.564  15.966   7.664
 1271POPC   C1B18979  27.359  15.852   8.564
 1271POPC   C2B18980  27.400  15.813   8.264
 1271POPC   C3B18981  27.385  15.821   7.964
 1271POPC   C4B18982  27.344  15.831   7.664
 1272POPC   NC318983  33.810   7.381   9.464
 1272POPC   PO418984  33.824   7.382   9.164
 1272POPC   GL118985  33.776   7.404   8.864
 1272POPC   GL218986  33.938   7.445   8.864
 1272POPC   C1A18987  33.791   7.422   8.564
 1272POPC   D2A18988  33.795   7.431   8.264
 1272POPC   C3A18989  33.763   7.463   7.964
 1272POPC   C4A18990  33.799   7.376   7.664
 1272POPC   C1B18991  34.097   7.450   8.564
 1272POPC   C2B18992  34.042   7.465   8.264
 1272POPC   C3B18993  34.090   7.388   7.964
 1272POPC   C4B18994  34.097   7.418   7.664
 1273POPC   NC318995  27.584   1.238   9.464
 1273POPC   PO418996  27.612   1.171   9.164
 1273POPC   GL118997  27.548   1.199   8.864
 1273POPC   GL218998  27.744   1.293   8.864
 1273POPC   C1A18999  27.559   1.212   8.564
 1273POPC   D2A19000  27.589   1.205   8.264
 1273POPC   C3A19001  27.630   1.210   7.964
 1273POPC   C4A19002  27.638   1.262   7.664
 1273POPC   C1B19003  27.851   1.290   8.564
 1273POPC   C2B19004  27.855   1.311   8.264
 1273POPC   C3B19005  27.838   1.349   7.964
 1273POPC   C4B19006  27.801   1.289   7.664
 1274POPC   NC319007  14.413  22.134   9.464
 1274POPC   PO419008  14.390  22.113   9.164
 1274POPC   GL119009  14.366  22.132   8.864
 1274POPC   GL219010  14.432  22.237   8.864
 1274POPC   C1A19011  14.415  22.207   8.564
 1274POPC   D2A19012  14.427  22.193   8.264
 1274POPC   C3A19013  14.360  22.113   7.964
 1274POPC   C4A19014  14.428  22.147   7.664
 1274POPC   C1B19015  14.523  22.396   8.564
 1274POPC   C2B19016  14.507  22.413   8.264
 1274POPC   C3B19017  14.501  22.392   7.964
 1274POPC   C4B19018  14.544  22.354   7.664
 1275POPC   NC319019  32.991  43.095   9.464
 1275POPC   PO419020  33.011  43.151   9.164
 1275POPC   GL119021  33.032  43.104   8.864
 1275POPC   GL219022  33.134  43.136   8.864
 1275POPC   C1A19023  32.984  43.100   8.564
 1275POPC   D2A19024  33.063  43.095   8.264
 1275POPC   C3A19025  33.016  43.110   7.964
 1275POPC   C4A19026  33.016  43.107   7.664
 1275POPC   C1B19027  33.205  43.238   8.564
 1275POPC   C2B19028  33.218  43.278   8.264
 1275POPC   C3B19029  33.272  43.212   7.964
 1275POPC   C4B19030  33.235  43.284   7.664
 1276POPC   NC319031  13.615  19.076   9.464
 1276POPC   PO419032  13.648  19.017   9.164
 1276POPC   GL119033  13.586  19.037   8.864
 1276POPC   GL219034  13.651  18.997   8.864
 1276POPC   C1A19035  13.587  19.080   8.564
 1276POPC   D2A19036  13.620  19.058   8.264
 1276POPC   C3A19037  13.641  19.059   7.964
 1276POPC   C4A19038  13.582  19.065   7.664
 1276POPC   C1B19039  13.748  18.842   8.564
 1276POPC   C2B19040  13.797  18.892   8.264
 1276POPC   C3B19041  13.769  18.835   7.964
 1276POPC   C4B19042  13.769  18.850   7.664
 1277POPC   NC319043   4.330  37.691   9.464
 1277POPC   PO419044   4.366  37.708   9.164
 1277POPC   GL119045   4.274  37.716   8.864
 1277POPC   GL219046   4.225  37.661   8.864
 1277POPC   C1A19047   4.353  37.705   8.564
 1277POPC   D2A19048   4.336  37.650   8.264
 1277POPC   C3A19049   4.299  37.727   7.964
 1277POPC   C4A19050   4.304  37.692   7.664
 1277POPC   C1B19051   4.037  37.595   8.564
 1277POPC   C2B19052   4.122  37.587   8.264
 1277POPC   C3B19053   4.101  37.555   7.964
 1277POPC   C4B19054   4.082  37.597   7.664
 1278POPC   NC319055  24.535  22.938   9.464
 1278POPC   PO419056  24.479  22.908   9.164
 1278POPC   GL119057  24.467  22.931   8.864
 1278POPC   GL219058  24.481  23.081   8.864
 1278POPC   C1A19059  24.488  22.953   8.564
 1278POPC   D2A19060  24.478  22.905   8.264
 1278POPC   C3A19061  24.474  22.949   7.964
 1278POPC   C4A19062  24.519  22.954   7.664
 1278POPC   C1B19063  24.377  23.225   8.564
 1278POPC   C2B19064  24.411  23.198   8.264
 1278POPC   C3B19065  24.369  23.164   7.964
 1278POPC   C4B19066  24.440  23.174   7.664
 1279POPC   NC319067  19.799   0.444   9.464
 1279POPC   PO419068  19.790   0.436   9.164
 1279POPC   GL119069  19.883   0.409   8.864
 1279POPC   GL219070  19.788   0.549   8.864
 1279POPC   C1A19071  19.843   0.467   8.564
 1279POPC   D2A19072  19.796   0.464   8.264
 1279POPC   C3A19073  19.857   0.461   7.964
 1279POPC   C4A19074  19.816   0.436   7.664
 1279POPC   C1B19075  19.753   0.682   8.564
 1279POPC   C2B19076  19.742   0.633   8.264
 1279POPC   C3B19077  19.753   0.723   7.964
 1279POPC   C4B19078  19.758   0.675   7.664
 1280POPC   NC319079  39.964   8.232   9.464
 1280POPC   PO419080  39.997   8.214   9.164
 1280POPC   GL119081  39.982   8.149   8.864
 1280POPC   GL219082  39.978   8.308   8.864
 1280POPC   C1A19083  40.007   8.157   8.564
 1280POPC   D2A19084  39.979   8.238   8.264
 1280POPC   C3A19085  39.982   8.189   7.964
 1280POPC   C4A19086  39.982   8.155   7.664
 1280POPC   C1B19087  39.851   8.410   8.564
 1280POPC   C2B19088  39.829   8.418   8.264
 1280POPC   C3B19089  39.850   8.443   7.964
 1280POPC   C4B19090  39.906   8.374   7.664
 1281POPC   NC319091  23.746  32.255   9.464
 1281POPC   PO419092  23.707  32.225   9.164
 1281POPC   GL119093  23.754  32.212   8.864
 1281POPC   GL219094  23.674  32.343   8.864
 1281POPC   C1A19095  23.706  32.220   8.564
 1281POPC   D2A19096  23.723  32.273   8.264
 1281POPC   C3A19097  23.758  32.217   7.964
 1281POPC   C4A19098  23.714  32.225   7.664
 1281POPC   C1B19099  23.566  32.456   8.564
 1281POPC   C2B19100  23.546  32.392   8.264
 1281POPC   C3B19101  23.594  32.463   7.964
 1281POPC   C4B19102  23.555  32.433   7.664
 1282POPC   NC319103  36.856  15.955   9.464
 1282POPC   PO419104  36.920  15.930   9.164
 1282POPC   GL119105  36.941  15.921   8.864
 1282POPC   GL219106  37.040  16.036   8.864
 1282POPC   C1A19107  36.901  15.991   8.564
 1282POPC   D2A19108  36.871  16.003   8.264
 1282POPC   C3A19109  36.862  15.923   7.964
 1282POPC   C4A19110  36.896  15.995   7.664
 1282POPC   C1B19111  37.094  16.068   8.564
 1282POPC   C2B19112  37.123  16.093   8.264
 1282POPC   C3B19113  37.098  16.107   7.964
 1282POPC   C4B19114  37.094  16.088   7.664
 1283POPC   NC319115  27.641  36.939   9.464
 1283POPC   PO419116  27.614  36.886   9.164
 1283POPC   GL119117  27.607  36.950   8.864
 1283POPC   GL219118  27.521  36.948   8.864
 1283POPC   C1A19119  27.600  36.917   8.564
 1283POPC   D2A19120  27.641  36.870   8.264
 1283POPC   C3A19121  27.585  36.898   7.964
 1283POPC   C4A19122  27.551  36.880   7.664
 1283POPC   C1B19123  27.325  36.953   8.564
 1283POPC   C2B19124  27.341  37.047   8.264
 1283POPC   C3B19125  27.406  37.031   7.964
 1283POPC   C4B19126  27.377  36.972   7.664
 1284POPC   NC319127   7.454  16.780   9.464
 1284POPC   PO419128   7.431  16.771   9.164
 1284POPC   GL119129   7.436  16.693   8.864
 1284POPC   GL219130   7.420  16.610   8.864
 1284POPC   C1A19131   7.428  16.696   8.564
 1284POPC   D2A19132   7.396  16.732   8.264
 1284POPC   C3A19133   7.425  16.752   7.964
 1284POPC   C4A19134   7.380  16.728   7.664
 1284POPC   C1B19135   7.488  16.516   8.564
 1284POPC   C2B19136   7.509  16.474   8.264
 1284POPC   C3B19137   7.451  16.505   7.964
 1284POPC   C4B19138   7.521  16.456   7.664
 1285POPC   NC319139  26.812  41.567   9.464
 1285POPC   PO419140  26.832  41.509   9.164
 1285POPC   GL119141  26.828  41.598   8.864
 1285POPC   GL219142  26.945  41.525   8.864
 1285POPC   C1A19143  26.774  41.540   8.564
 1285POPC   D2A19144  26.830  41.584   8.264
 1285POPC   C3A19145  26.796  41.551   7.964
 1285POPC   C4A19146  26.833  41.518   7.664
 1285POPC   C1B19147  27.038  41.498   8.564
 1285POPC   C2B19148  27.097  41.497   8.264
 1285POPC   C3B19149  27.052  41.513   7.964
 1285POPC   C4B19150  27.064  41.498   7.664
 1286POPC   NC319151  13.646  42.356   9.464
 1286POPC   PO419152  13.590  42.383   9.164
 1286POPC   GL119153  13.642  42.340   8.864
 1286POPC   GL219154  13.685  42.274   8.864
 1286POPC   C1A19155  13.656  42.370   8.564
 1286POPC   D2A19156  13.644  42.300   8.264
 1286POPC   C3A19157  13.651  42.338   7.964
 1286POPC   C4A19158  13.631  42.329   7.664
 1286POPC   C1B19159  13.751  42.161   8.564
 1286POPC   C2B19160  13.829  42.180   8.264
 1286POPC   C3B19161  13.775  42.198   7.964
 1286POPC   C4B19162  13.826  42.185   7.664
 1287POPC   NC319163  23.729  29.925   9.464
 1287POPC   PO419164  23.671  29.909   9.164
 1287POPC   GL119165  23.745  29.898   8.864
 1287POPC   GL219166  23.596  29.985   8.864
 1287POPC   C1A19167  23.741  29.936   8.564
 1287POPC   D2A19168  23.733  29.956   8.264
 1287POPC   C3A19169  23.692  29.875   7.964
 1287POPC   C4A19170  23.683  29.872   7.664
 1287POPC   C1B19171  23.578  30.067   8.564
 1287POPC   C2B19172  23.551  30.109   8.264
 1287POPC   C3B19173  23.553  30.078   7.964
 1287POPC   C4B19174  23.551  30.089   7.664
 1288POPC   NC319175   5.898   8.205   9.464
 1288POPC   PO419176   5.889   8.174   9.164
 1288POPC   GL119177   5.880   8.201   8.864
 1288POPC   GL219178   5.994   8.304   8.864
 1288POPC   C1A19179   5.918   8.181   8.564
 1288POPC   D2A19180   5.830   8.227   8.264
 1288POPC   C3A19181   5.903   8.152   7.964
 1288POPC   C4A19182   5.820   8.214   7.664
 1288POPC   C1B19183   6.039   8.435   8.564
 1288POPC   C2B19184   6.053   8.423   8.264
 1288POPC   C3B19185   6.023   8.430   7.964
 1288POPC   C4B19186   5.974   8.368   7.664
 1289POPC   NC319187  36.164  18.250   9.464
 1289POPC   PO419188  36.154  18.289   9.164
 1289POPC   GL119189  36.122  18.299   8.864
 1289POPC   GL219190  35.984  18.332   8.864
 1289POPC   C1A19191  36.086  18.304   8.564
 1289POPC   D2A19192  36.154  18.271   8.264
 1289POPC   C3A19193  36.163  18.314   7.964
 1289POPC   C4A19194  36.142  18.251   7.664
 1289POPC   C1B19195  35.861  18.375   8.564
 1289POPC   C2B19196  35.904  18.387   8.264
 1289POPC   C3B19197  35.926  18.336   7.964
 1289POPC   C4B19198  35.869  18.331   7.664
 1290POPC   NC319199  24.514   5.876   9.464
 1290POPC   PO419200  24.529   5.845   9.164
 1290POPC   GL119201  24.470   5.858   8.864
 1290POPC   GL219202  24.362   5.954   8.864
 1290POPC   C1A19203  24.514   5.918   8.564
 1290POPC   D2A19204  24.466   5.873   8.264
 1290POPC   C3A19205  24.524   5.884   7.964
 1290POPC   C4A19206  24.516   5.862   7.664
 1290POPC   C1B19207  24.275   6.051   8.564
 1290POPC   C2B19208  24.298   6.089   8.264
 1290POPC   C3B19209  24.301   6.092   7.964
 1290POPC   C4B19210  24.335   6.029   7.664
 1291POPC   NC319211  40.050   4.319   9.464
 1291POPC   PO419212  40.057   4.272   9.164
 1291POPC   GL119213  39.969   4.269   8.864
 1291POPC   GL219214  39.897   4.268   8.864
 1291POPC   C1A19215  40.026   4.366   8.564
 1291POPC   D2A19216  40.000   4.291   8.264
 1291POPC   C3A19217  40.054   4.353   7.964
 1291POPC   C4A19218  40.044   4.304   7.664
 1291POPC   C1B19219  39.785   4.141   8.564
 1291POPC   C2B19220  39.776   4.134   8.264
 1291POPC   C3B19221  39.839   4.205   7.964
 1291POPC   C4B19222  39.766   4.161   7.664
 1292POPC   NC319223   5.112  16.747   9.464
 1292POPC   PO419224   5.135  16.726   9.164
 1292POPC   GL119225   5.111  16.773   8.864
 1292POPC   GL219226   4.956  16.749   8.864
 1292POPC   C1A19227   5.055  16.703   8.564
 1292POPC   D2A19228   5.131  16.735   8.264
 1292POPC   C3A19229   5.044  16.781   7.964
 1292POPC   C4A19230   5.138  16.727   7.664
 1292POPC   C1B19231   4.854  16.642   8.564
 1292POPC   C2B19232   4.851  16.691   8.264
 1292POPC   C3B19233   4.829  16.678   7.964
 1292POPC   C4B19234   4.868  16.678   7.664
 1293POPC   NC319235  18.308  35.366   9.464
 1293POPC   PO419236  18.279  35.314   9.164
 1293POPC   GL119237  18.290  35.327   8.864
 1293POPC   GL219238  18.342  35.272   8.864
 1293POPC   C1A19239  18.256  35.386   8.564
 1293POPC   D2A19240  18.256  35.358   8.264
 1293POPC   C3A19241  18.329  35.397   7.964
 1293POPC   C4A19242  18.310  35.399   7.664
 1293POPC   C1B19243  18.398  35.111   8.564
 1293POPC   C2B19244  18.397  35.140   8.264
 1293POPC   C3B19245  18.381  35.084   7.964
 1293POPC   C4B19246  18.332  35.133   7.664
 1294POPC   NC319247   9.759  16.726   9.464
 1294POPC   PO419248   9.782  16.723   9.164
 1294POPC   GL119249   9.753  16.775   8.864
 1294POPC   GL219250   9.784  16.808   8.864
 1294POPC   C1A19251   9.744  16.698   8.564
 1294POPC   D2A19252   9.750  16.710   8.264
 1294POPC   C3A19253   9.758  16.725   7.964
 1294POPC   C4A19254   9.753  16.751   7.664
 1294POPC   C1B19255   9.728  16.940   8.564
 1294POPC   C2B19256   9.714  16.954   8.264
 1294POPC   C3B19257   9.725  16.940   7.964
 1294POPC   C4B19258   9.749  17.017   7.664
 1295POPC   NC319259  38.499  39.200   9.464
 1295POPC   PO419260  38.423  39.233   9.164
 1295POPC   GL119261  38.407  39.267   8.864
 1295POPC   GL219262  38.618  39.231   8.864
 1295POPC   C1A19263  38.455  39.270   8.564
 1295POPC   D2A19264  38.409  39.192   8.264
 1295POPC   C3A19265  38.430  39.224   7.964
 1295POPC   C4A19266  38.427  39.224   7.664
 1295POPC   C1B19267  38.720  39.093   8.564
 1295POPC   C2B19268  38.709  39.189   8.264
 1295POPC   C3B19269  38.677  39.106   7.964
 1295POPC   C4B19270  38.659  39.092   7.664
 1296POPC   NC319271  43.897  19.799   9.464
 1296POPC   PO419272  43.853  19.861   9.164
 1296POPC   GL119273  43.856  19.812   8.864
 1296POPC   GL219274  43.771  19.862   8.864
 1296POPC   C1A19275  43.931  19.859   8.564
 1296POPC   D2A19276  43.892  19.841   8.264
 1296POPC   C3A19277  43.931  19.846   7.964
 1296POPC   C4A19278  43.887  19.874   7.664
 1296POPC   C1B19279  43.598  19.877   8.564
 1296POPC   C2B19280  43.674  19.894   8.264
 1296POPC   C3B19281  43.595  19.843   7.964
 1296POPC   C4B19282  43.667  19.865   7.664
 1297POPC   NC319283  16.718  37.644   9.464
 1297POPC   PO419284  16.690  37.716   9.164
 1297POPC   GL119285  16.744  37.702   8.864
 1297POPC   GL219286  16.617  37.568   8.864
 1297POPC   C1A19287  16.706  37.675   8.564
 1297POPC   D2A19288  16.702  37.675   8.264
 1297POPC   C3A19289  16.691  37.638   7.964
 1297POPC   C4A19290  16.717  37.655   7.664
 1297POPC   C1B19291  16.616  37.483   8.564
 1297POPC   C2B19292  16.571  37.493   8.264
 1297POPC   C3B19293  16.643  37.495   7.964
 1297POPC   C4B19294  16.559  37.432   7.664
 1298POPC   NC319295  19.795   1.992   9.464
 1298POPC   PO419296  19.803   2.034   9.164
 1298POPC   GL119297  19.843   1.974   8.864
 1298POPC   GL219298  19.977   2.067   8.864
 1298POPC   C1A19299  19.866   1.953   8.564
 1298POPC   D2A19300  19.867   1.976   8.264
 1298POPC   C3A19301  19.867   1.945   7.964
 1298POPC   C4A19302  19.796   2.028   7.664
 1298POPC   C1B19303  19.985   2.164   8.564
 1298POPC   C2B19304  19.999   2.169   8.264
 1298POPC   C3B19305  20.005   2.119   7.964
 1298POPC   C4B19306  20.017   2.144   7.664
 1299POPC   NC319307  29.908  38.434   9.464
 1299POPC   PO419308  29.887  38.437   9.164
 1299POPC   GL119309  29.928  38.436   8.864
 1299POPC   GL219310  29.928  38.308   8.864
 1299POPC   C1A19311  29.871  38.451   8.564
 1299POPC   D2A19312  29.937  38.439   8.264
 1299POPC   C3A19313  29.954  38.479   7.964
 1299POPC   C4A19314  29.899  38.436   7.664
 1299POPC   C1B19315  29.912  38.222   8.564
 1299POPC   C2B19316  29.933  38.179   8.264
 1299POPC   C3B19317  29.896  38.217   7.964
 1299POPC   C4B19318  29.969  38.200   7.664
 1300POPC   NC319319  21.403  23.738   9.464
 1300POPC   PO419320  21.423  23.675   9.164
 1300POPC   GL119321  21.401  23.707   8.864
 1300POPC   GL219322  21.443  23.748   8.864
 1300POPC   C1A19323  21.417  23.741   8.564
 1300POPC   D2A19324  21.365  23.696   8.264
 1300POPC   C3A19325  21.346  23.750   7.964
 1300POPC   C4A19326  21.374  23.678   7.664
 1300POPC   C1B19327  21.548  23.835   8.564
 1300POPC   C2B19328  21.572  23.891   8.264
 1300POPC   C3B19329  21.554  23.811   7.964
 1300POPC   C4B19330  21.592  23.820   7.664
 1301POPC   NC319331   9.753  27.556   9.464
 1301POPC   PO419332   9.793  27.571   9.164
 1301POPC   GL119333   9.737  27.587   8.864
 1301POPC   GL219334   9.838  27.475   8.864
 1301POPC   C1A19335   9.711  27.564   8.564
 1301POPC   D2A19336   9.786  27.562   8.264
 1301POPC   C3A19337   9.729  27.638   7.964
 1301POPC   C4A19338   9.782  27.545   7.664
 1301POPC   C1B19339   9.920  27.372   8.564
 1301POPC   C2B19340   9.946  27.384   8.264
 1301POPC   C3B19341   9.916  27.445   7.964
 1301POPC   C4B19342   9.881  27.406   7.664
 1302POPC   NC319343   5.135  12.078   9.464
 1302POPC   PO419344   5.053  12.066   9.164
 1302POPC   GL119345   5.126  12.065   8.864
 1302POPC   GL219346   5.209  12.194   8.864
 1302POPC   C1A19347   5.118  12.116   8.564
 1302POPC   D2A19348   5.050  12.100   8.264
 1302POPC   C3A19349   5.079  12.081   7.964
 1302POPC   C4A19350   5.053  12.033   7.664
 1302POPC   C1B19351   5.260  12.213   8.564
 1302POPC   C2B19352   5.243  12.283   8.264
 1302POPC   C3B19353   5.312  12.262   7.964
 1302POPC   C4B19354   5.251  12.237   7.664
 1303POPC   NC319355  40.744  38.451   9.464
 1303POPC   PO419356  40.736  38.504   9.164
 1303POPC   GL119357  40.803  38.448   8.864
 1303POPC   GL219358  40.723  38.563   8.864
 1303POPC   C1A19359  40.736  38.462   8.564
 1303POPC   D2A19360  40.802  38.501   8.264
 1303POPC   C3A19361  40.768  38.495   7.964
 1303POPC   C4A19362  40.780  38.501   7.664
 1303POPC   C1B19363  40.669  38.660   8.564
 1303POPC   C2B19364  40.723  38.639   8.264
 1303POPC   C3B19365  40.691  38.696   7.964
 1303POPC   C4B19366  40.665  38.656   7.664
 1304POPC   NC319367  36.176  39.995   9.464
 1304POPC   PO419368  36.103  39.988   9.164
 1304POPC   GL119369  36.158  40.018   8.864
 1304POPC   GL219370  36.043  40.023   8.864
 1304POPC   C1A19371  36.117  39.976   8.564
 1304POPC   D2A19372  36.158  40.049   8.264
 1304POPC   C3A19373  36.143  39.991   7.964
 1304POPC   C4A19374  36.125  39.960   7.664
 1304POPC   C1B19375  35.839  39.933   8.564
 1304POPC   C2B19376  35.836  39.944   8.264
 1304POPC   C3B19377  35.864  40.000   7.964
 1304POPC   C4B19378  35.875  40.008   7.664
 1305POPC   NC319379  28.341  29.188   9.464
 1305POPC   PO419380  28.371  29.106   9.164
 1305POPC   GL119381  28.405  29.156   8.864
 1305POPC   GL219382  28.211  29.046   8.864
 1305POPC   C1A19383  28.409  29.116   8.564
 1305POPC   D2A19384  28.336  29.186   8.264
 1305POPC   C3A19385  28.352  29.186   7.964
 1305POPC   C4A19386  28.405  29.188   7.664
 1305POPC   C1B19387  28.136  29.028   8.564
 1305POPC   C2B19388  28.189  29.039   8.264
 1305POPC   C3B19389  28.122  29.006   7.964
 1305POPC   C4B19390  28.133  28.997   7.664
 1306POPC   NC319391  35.339  11.262   9.464
 1306POPC   PO419392  35.333  11.335   9.164
 1306POPC   GL119393  35.364  11.260   8.864
 1306POPC   GL219394  35.459  11.389   8.864
 1306POPC   C1A19395  35.342  11.255   8.564
 1306POPC   D2A19396  35.317  11.278   8.264
 1306POPC   C3A19397  35.383  11.253   7.964
 1306POPC   C4A19398  35.364  11.275   7.664
 1306POPC   C1B19399  35.553  11.465   8.564
 1306POPC   C2B19400  35.501  11.436   8.264
 1306POPC   C3B19401  35.514  11.486   7.964
 1306POPC   C4B19402  35.532  11.496   7.664
 1307POPC   NC319403  14.392  28.409   9.464
 1307POPC   PO419404  14.428  28.334   9.164
 1307POPC   GL119405  14.354  28.345   8.864
 1307POPC   GL219406  14.543  28.436   8.864
 1307POPC   C1A19407  14.386  28.326   8.564
 1307POPC   D2A19408  14.375  28.410   8.264
 1307POPC   C3A19409  14.373  28.356   7.964
 1307POPC   C4A19410  14.430  28.402   7.664
 1307POPC   C1B19411  14.592  28.454   8.564
 1307POPC   C2B19412  14.658  28.493   8.264
 1307POPC   C3B19413  14.642  28.438   7.964
 1307POPC   C4B19414  14.657  28.500   7.664
 1308POPC   NC319415   4.339  15.176   9.464
 1308POPC   PO419416   4.363  15.186   9.164
 1308POPC   GL119417   4.335  15.170   8.864
 1308POPC   GL219418   4.281  15.088   8.864
 1308POPC   C1A19419   4.308  15.213   8.564
 1308POPC   D2A19420   4.300  15.228   8.264
 1308POPC   C3A19421   4.327  15.186   7.964
 1308POPC   C4A19422   4.334  15.159   7.664
 1308POPC   C1B19423   4.170  15.005   8.564
 1308POPC   C2B19424   4.146  14.936   8.264
 1308POPC   C3B19425   4.184  15.003   7.964
 1308POPC   C4B19426   4.197  14.953   7.664
 1309POPC   NC319427   2.812  39.959   9.464
 1309POPC   PO419428   2.798  39.969   9.164
 1309POPC   GL119429   2.764  39.999   8.864
 1309POPC   GL219430   2.619  40.006   8.864
 1309POPC   C1A19431   2.740  40.048   8.564
 1309POPC   D2A19432   2.766  39.998   8.264
 1309POPC   C3A19433   2.762  39.998   7.964
 1309POPC   C4A19434   2.804  40.034   7.664
 1309POPC   C1B19435   2.518  40.012   8.564
 1309POPC   C2B19436   2.472  40.030   8.264
 1309POPC   C3B19437   2.564  39.995   7.964
 1309POPC   C4B19438   2.510  40.004   7.664
 1310POPC   NC319439   8.178   8.162   9.464
 1310POPC   PO419440   8.243   8.172   9.164
 1310POPC   GL119441   8.224   8.176   8.864
 1310POPC   GL219442   8.069   8.127   8.864
 1310POPC   C1A19443   8.218   8.225   8.564
 1310POPC   D2A19444   8.189   8.234   8.264
 1310POPC   C3A19445   8.201   8.169   7.964
 1310POPC   C4A19446   8.187   8.172   7.664
 1310POPC   C1B19447   8.049   8.004   8.564
 1310POPC   C2B19448   7.997   8.055   8.264
 1310POPC   C3B19449   7.989   7.980   7.964
 1310POPC   C4B19450   8.001   8.013   7.664
 1311POPC   NC319451   9.780  19.063   9.464
 1311POPC   PO419452   9.742  19.051   9.164
 1311POPC   GL119453   9.756  19.079   8.864
 1311POPC   GL219454   9.880  18.976   8.864
 1311POPC   C1A19455   9.775  19.053   8.564
 1311POPC   D2A19456   9.734  19.107   8.264
 1311POPC   C3A19457   9.745  19.108   7.964
 1311POPC   C4A19458   9.742  19.078   7.664
 1311POPC   C1B19459   9.951  18.872   8.564
 1311POPC   C2B19460   9.972  18.846   8.264
 1311POPC   C3B19461   9.968  18.857   7.964
 1311POPC   C4B19462   9.898  18.919   7.664
 1312POPC   NC319463  12.870  35.330   9.464
 1312POPC   PO419464  12.857  35.393   9.164
 1312POPC   GL119465  12.852  35.362   8.864
 1312POPC   GL219466  12.837  35.225   8.864
 1312POPC   C1A19467  12.813  35.316   8.564
 1312POPC   D2A19468  12.806  35.385   8.264
 1312POPC   C3A19469  12.877  35.309   7.964
 1312POPC   C4A19470  12.819  35.345   7.664
 1312POPC   C1B19471  12.874  35.100   8.564
 1312POPC   C2B19472  12.909  35.107   8.264
 1312POPC   C3B19473  12.886  35.080   7.964
 1312POPC   C4B19474  12.913  35.098   7.664
 1313POPC   NC319475  30.737  31.483   9.464
 1313POPC   PO419476  30.742  31.424   9.164
 1313POPC   GL119477  30.649  31.439   8.864
 1313POPC   GL219478  30.767  31.567   8.864
 1313POPC   C1A19479  30.666  31.502   8.564
 1313POPC   D2A19480  30.715  31.442   8.264
 1313POPC   C3A19481  30.740  31.497   7.964
 1313POPC   C4A19482  30.658  31.512   7.664
 1313POPC   C1B19483  30.899  31.584   8.564
 1313POPC   C2B19484  30.872  31.616   8.264
 1313POPC   C3B19485  30.947  31.622   7.964
 1313POPC   C4B19486  30.947  31.641   7.664
 1314POPC   NC319487  16.683  42.344   9.464
 1314POPC   PO419488  16.742  42.373   9.164
 1314POPC   GL119489  16.722  42.341   8.864
 1314POPC   GL219490  16.812  42.420   8.864
 1314POPC   C1A19491  16.686  42.287   8.564
 1314POPC   D2A19492  16.739  42.310   8.264
 1314POPC   C3A19493  16.739  42.382   7.964
 1314POPC   C4A19494  16.734  42.360   7.664
 1314POPC   C1B19495  16.918  42.490   8.564
 1314POPC   C2B19496  16.960  42.443   8.264
 1314POPC   C3B19497  16.896  42.487   7.964
 1314POPC   C4B19498  16.962  42.472   7.664
 1315POPC   NC319499  34.567   5.076   9.464
 1315POPC   PO419500  34.544   5.103   9.164
 1315POPC   GL119501  34.538   5.050   8.864
 1315POPC   GL219502  34.573   5.233   8.864
 1315POPC   C1A19503  34.576   5.084   8.564
 1315POPC   D2A19504  34.547   5.045   8.264
 1315POPC   C3A19505  34.625   5.079   7.964
 1315POPC   C4A19506  34.567   5.109   7.664
 1315POPC   C1B19507  34.606   5.323   8.564
 1315POPC   C2B19508  34.566   5.364   8.264
 1315POPC   C3B19509  34.584   5.333   7.964
 1315POPC   C4B19510  34.579   5.366   7.664
 1316POPC   NC319511   7.455  10.480   9.464
 1316POPC   PO419512   7.452  10.543   9.164
 1316POPC   GL119513   7.432  10.494   8.864
 1316POPC   GL219514   7.486  10.433   8.864
 1316POPC   C1A19515   7.405  10.479   8.564
 1316POPC   D2A19516   7.433  10.491   8.264
 1316POPC   C3A19517   7.427  10.511   7.964
 1316POPC   C4A19518   7.401  10.543   7.664
 1316POPC   C1B19519   7.613  10.390   8.564
 1316POPC   C2B19520   7.588  10.371   8.264
 1316POPC   C3B19521   7.625  10.329   7.964
 1316POPC   C4B19522   7.595  10.406   7.664
 1317POPC   NC319523  43.124  11.252   9.464
 1317POPC   PO419524  43.089  11.292   9.164
 1317POPC   GL119525  43.072  11.289   8.864
 1317POPC   GL219526  43.032  11.409   8.864
 1317POPC   C1A19527  43.120  11.290   8.564
 1317POPC   D2A19528  43.124  11.282   8.264
 1317POPC   C3A19529  43.070  11.288   7.964
 1317POPC   C4A19530  43.148  11.349   7.664
 1317POPC   C1B19531  42.963  11.560   8.564
 1317POPC   C2B19532  43.006  11.485   8.264
 1317POPC   C3B19533  43.007  11.565   7.964
 1317POPC   C4B19534  43.032  11.505   7.664
 1318POPC   NC319535  29.912  36.898   9.464
 1318POPC   PO419536  29.908  36.878   9.164
 1318POPC   GL119537  29.931  36.880   8.864
 1318POPC   GL219538  29.945  37.016   8.864
 1318POPC   C1A19539  29.950  36.876   8.564
 1318POPC   D2A19540  29.909  36.903   8.264
 1318POPC   C3A19541  29.877  36.877   7.964
 1318POPC   C4A19542  29.888  36.872   7.664
 1318POPC   C1B19543  29.994  37.172   8.564
 1318POPC   C2B19544  30.005  37.106   8.264
 1318POPC   C3B19545  29.988  37.136   7.964
 1318POPC   C4B19546  30.011  37.186   7.664
 1319POPC   NC319547  12.827  11.316   9.464
 1319POPC   PO419548  12.874  11.324   9.164
 1319POPC   GL119549  12.850  11.325   8.864
 1319POPC   GL219550  12.721  11.437   8.864
 1319POPC   C1A19551  12.853  11.250   8.564
 1319POPC   D2A19552  12.901  11.253   8.264
 1319POPC   C3A19553  12.813  11.285   7.964
 1319POPC   C4A19554  12.804  11.261   7.664
 1319POPC   C1B19555  12.644  11.482   8.564
 1319POPC   C2B19556  12.657  11.440   8.264
 1319POPC   C3B19557  12.650  11.504   7.964
 1319POPC   C4B19558  12.712  11.472   7.664
 1320POPC   NC319559   5.093  23.672   9.464
 1320POPC   PO419560   5.119  23.702   9.164
 1320POPC   GL119561   5.045  23.745   8.864
 1320POPC   GL219562   4.993  23.630   8.864
 1320POPC   C1A19563   5.071  23.729   8.564
 1320POPC   D2A19564   5.093  23.700   8.264
 1320POPC   C3A19565   5.079  23.715   7.964
 1320POPC   C4A19566   5.099  23.740   7.664
 1320POPC   C1B19567   5.019  23.457   8.564
 1320POPC   C2B19568   4.937  23.511   8.264
 1320POPC   C3B19569   4.979  23.511   7.964
 1320POPC   C4B19570   4.970  23.466   7.664
 1321POPC   NC319571   5.057   9.781   9.464
 1321POPC   PO419572   5.140   9.787   9.164
 1321POPC   GL119573   5.110   9.737   8.864
 1321POPC   GL219574   5.060   9.665   8.864
 1321POPC   C1A19575   5.117   9.788   8.564
 1321POPC   D2A19576   5.049   9.771   8.264
 1321POPC   C3A19577   5.074   9.781   7.964
 1321POPC   C4A19578   5.132   9.779   7.664
 1321POPC   C1B19579   4.987   9.545   8.564
 1321POPC   C2B19580   4.954   9.494   8.264
 1321POPC   C3B19581   5.042   9.542   7.964
 1321POPC   C4B19582   4.995   9.476   7.664
 1322POPC   NC319583   1.969   2.724   9.464
 1322POPC   PO419584   2.015   2.795   9.164
 1322POPC   GL119585   1.969   2.781   8.864
 1322POPC   GL219586   1.916   2.625   8.864
 1322POPC   C1A19587   1.995   2.791   8.564
 1322POPC   D2A19588   2.012   2.764   8.264
 1322POPC   C3A19589   1.962   2.724   7.964
 1322POPC   C4A19590   1.970   2.759   7.664
 1322POPC   C1B19591   1.795   2.611   8.564
 1322POPC   C2B19592   1.804   2.578   8.264
 1322POPC   C3B19593   1.832   2.538   7.964
 1322POPC   C4B19594   1.788   2.545   7.664
 1323POPC   NC319595  35.400   3.522   9.464
 1323POPC   PO419596  35.340   3.529   9.164
 1323POPC   GL119597  35.376   3.543   8.864
 1323POPC   GL219598  35.410   3.384   8.864
 1323POPC   C1A19599  35.307   3.493   8.564
 1323POPC   D2A19600  35.336   3.590   8.264
 1323POPC   C3A19601  35.383   3.545   7.964
 1323POPC   C4A19602  35.323   3.527   7.664
 1323POPC   C1B19603  35.458   3.299   8.564
 1323POPC   C2B19604  35.428   3.333   8.264
 1323POPC   C3B19605  35.441   3.252   7.964
 1323POPC   C4B19606  35.432   3.285   7.664
 1324POPC   NC319607  19.802   1.232   9.464
 1324POPC   PO419608  19.862   1.174   9.164
 1324POPC   GL119609  19.884   1.194   8.864
 1324POPC   GL219610  19.806   1.091   8.864
 1324POPC   C1A19611  19.802   1.201   8.564
 1324POPC   D2A19612  19.884   1.236   8.264
 1324POPC   C3A19613  19.849   1.202   7.964
 1324POPC   C4A19614  19.857   1.173   7.664
 1324POPC   C1B19615  19.877   0.930   8.564
 1324POPC   C2B19616  19.836   0.980   8.264
 1324POPC   C3B19617  19.827   0.952   7.964
 1324POPC   C4B19618  19.845   0.970   7.664
 1325POPC   NC319619  21.402  13.677   9.464
 1325POPC   PO419620  21.355  13.592   9.164
 1325POPC   GL119621  21.414  13.670   8.864
 1325POPC   GL219622  21.306  13.516   8.864
 1325POPC   C1A19623  21.432  13.586   8.564
 1325POPC   D2A19624  21.387  13.632   8.264
 1325POPC   C3A19625  21.375  13.609   7.964
 1325POPC   C4A19626  21.371  13.597   7.664
 1325POPC   C1B19627  21.212  13.454   8.564
 1325POPC   C2B19628  21.172  13.443   8.264
 1325POPC   C3B19629  21.161  13.479   7.964
 1325POPC   C4B19630  21.241  13.445   7.664
 1326POPC   NC319631   1.218  40.815   9.464
 1326POPC   PO419632   1.193  40.750   9.164
 1326POPC   GL119633   1.171  40.744   8.864
 1326POPC   GL219634   1.138  40.758   8.864
 1326POPC   C1A19635   1.245  40.794   8.564
 1326POPC   D2A19636   1.205  40.772   8.264
 1326POPC   C3A19637   1.208  40.832   7.964
 1326POPC   C4A19638   1.165  40.800   7.664
 1326POPC   C1B19639   0.982  40.678   8.564
 1326POPC   C2B19640   0.963  40.635   8.264
 1326POPC   C3B19641   1.030  40.706   7.964
 1326POPC   C4B19642   0.945  40.650   7.664
 1327POPC   NC319643  19.062  40.794   9.464
 1327POPC   PO419644  19.043  40.784   9.164
 1327POPC   GL119645  19.098  40.809   8.864
 1327POPC   GL219646  19.175  40.715   8.864
 1327POPC   C1A19647  19.079  40.807   8.564
 1327POPC   D2A19648  19.058  40.831   8.264
 1327POPC   C3A19649  19.077  40.831   7.964
 1327POPC   C4A19650  19.102  40.769   7.664
 1327POPC   C1B19651  19.230  40.673   8.564
 1327POPC   C2B19652  19.323  40.652   8.264
 1327POPC   C3B19653  19.304  40.633   7.964
 1327POPC   C4B19654  19.305  40.702   7.664
 1328POPC   NC319655  33.018  29.139   9.464
 1328POPC   PO419656  33.055  29.100   9.164
 1328POPC   GL119657  33.027  29.109   8.864
 1328POPC   GL219658  33.103  29.091   8.864
 1328POPC   C1A19659  33.016  29.110   8.564
 1328POPC   D2A19660  33.029  29.124   8.264
 1328POPC   C3A19661  33.041  29.103   7.964
 1328POPC   C4A19662  32.996  29.122   7.664
 1328POPC   C1B19663  33.191  28.987   8.564
 1328POPC   C2B19664  33.251  28.956   8.264
 1328POPC   C3B19665  33.222  28.987   7.964
 1328POPC   C4B19666  33.210  28.966   7.664
 1329POPC   NC319667  32.212  13.661   9.464
 1329POPC   PO419668  32.226  13.662   9.164
 1329POPC   GL119669  32.217  13.605   8.864
 1329POPC   GL219670  32.363  13.626   8.864
 1329POPC   C1A19671  32.288  13.625   8.564
 1329POPC   D2A19672  32.248  13.664   8.264
 1329POPC   C3A19673  32.241  13.656   7.964
 1329POPC   C4A19674  32.273  13.651   7.664
 1329POPC   C1B19675  32.477  13.705   8.564
 1329POPC   C2B19676  32.531  13.692   8.264
 1329POPC   C3B19677  32.510  13.633   7.964
 1329POPC   C4B19678  32.507  13.675   7.664
 1330POPC   NC319679  29.954  20.574   9.464
 1330POPC   PO419680  29.911  20.594   9.164
 1330POPC   GL119681  29.932  20.597   8.864
 1330POPC   GL219682  29.853  20.595   8.864
 1330POPC   C1A19683  29.970  20.569   8.564
 1330POPC   D2A19684  29.910  20.605   8.264
 1330POPC   C3A19685  29.914  20.633   7.964
 1330POPC   C4A19686  29.902  20.651   7.664
 1330POPC   C1B19687  29.734  20.542   8.564
 1330POPC   C2B19688  29.717  20.475   8.264
 1330POPC   C3B19689  29.734  20.489   7.964
 1330POPC   C4B19690  29.672  20.569   7.664
 1331POPC   NC319691   5.860  43.933   9.464
 1331POPC   PO419692   5.819  43.838   9.164
 1331POPC   GL119693   5.887  43.868   8.864
 1331POPC   GL219694   5.832  43.830   8.864
 1331POPC   C1A19695   5.884  43.867   8.564
 1331POPC   D2A19696   5.824  43.905   8.264
 1331POPC   C3A19697   5.840  43.870   7.964
 1331POPC   C4A19698   5.906  43.906   7.664
 1331POPC   C1B19699   5.680  43.727   8.564
 1331POPC   C2B19700   5.706  43.744   8.264
 1331POPC   C3B19701   5.672  43.687   7.964
 1331POPC   C4B19702   5.699  43.730   7.664
 1332POPC   NC319703   7.388   8.969   9.464
 1332POPC   PO419704   7.450   8.955   9.164
 1332POPC   GL119705   7.447   8.982   8.864
 1332POPC   GL219706   7.402   8.865   8.864
 1332POPC   C1A19707   7.445   8.943   8.564
 1332POPC   D2A19708   7.423   9.016   8.264
 1332POPC   C3A19709   7.399   8.983   7.964
 1332POPC   C4A19710   7.445   8.932   7.664
 1332POPC   C1B19711   7.342   8.788   8.564
 1332POPC   C2B19712   7.327   8.759   8.264
 1332POPC   C3B19713   7.345   8.695   7.964
 1332POPC   C4B19714   7.373   8.693   7.664
 1333POPC   NC319715   3.497   6.659   9.464
 1333POPC   PO419716   3.574   6.691   9.164
 1333POPC   GL119717   3.492   6.678   8.864
 1333POPC   GL219718   3.687   6.602   8.864
 1333POPC   C1A19719   3.541   6.609   8.564
 1333POPC   D2A19720   3.517   6.643   8.264
 1333POPC   C3A19721   3.521   6.651   7.964
 1333POPC   C4A19722   3.561   6.597   7.664
 1333POPC   C1B19723   3.776   6.554   8.564
 1333POPC   C2B19724   3.782   6.556   8.264
 1333POPC   C3B19725   3.743   6.562   7.964
 1333POPC   C4B19726   3.802   6.574   7.664
 1334POPC   NC319727  22.151  29.100   9.464
 1334POPC   PO419728  22.173  29.181   9.164
 1334POPC   GL119729  22.170  29.162   8.864
 1334POPC   GL219730  22.226  29.212   8.864
 1334POPC   C1A19731  22.146  29.154   8.564
 1334POPC   D2A19732  22.196  29.158   8.264
 1334POPC   C3A19733  22.198  29.149   7.964
 1334POPC   C4A19734  22.205  29.165   7.664
 1334POPC   C1B19735  22.362  29.320   8.564
 1334POPC   C2B19736  22.366  29.325   8.264
 1334POPC   C3B19737  22.312  29.343   7.964
 1334POPC   C4B19738  22.373  29.319   7.664
 1335POPC   NC319739  43.153  29.161   9.464
 1335POPC   PO419740  43.072  29.188   9.164
 1335POPC   GL119741  43.131  29.107   8.864
 1335POPC   GL219742  43.193  29.165   8.864
 1335POPC   C1A19743  43.071  29.180   8.564
 1335POPC   D2A19744  43.134  29.106   8.264
 1335POPC   C3A19745  43.107  29.186   7.964
 1335POPC   C4A19746  43.097  29.169   7.664
 1335POPC   C1B19747  43.352  29.166   8.564
 1335POPC   C2B19748  43.317  29.222   8.264
 1335POPC   C3B19749  43.310  29.186   7.964
 1335POPC   C4B19750  43.321  29.248   7.664
 1336POPC   NC319751  27.563  11.311   9.464
 1336POPC   PO419752  27.623  11.306   9.164
 1336POPC   GL119753  27.585  11.350   8.864
 1336POPC   GL219754  27.653  11.138   8.864
 1336POPC   C1A19755  27.587  11.270   8.564
 1336POPC   D2A19756  27.554  11.349   8.264
 1336POPC   C3A19757  27.597  11.255   7.964
 1336POPC   C4A19758  27.550  11.327   7.664
 1336POPC   C1B19759  27.678  11.064   8.564
 1336POPC   C2B19760  27.637  11.104   8.264
 1336POPC   C3B19761  27.704  11.072   7.964
 1336POPC   C4B19762  27.630  11.035   7.664
 1337POPC   NC319763  32.221  23.740   9.464
 1337POPC   PO419764  32.262  23.678   9.164
 1337POPC   GL119765  32.298  23.712   8.864
 1337POPC   GL219766  32.141  23.798   8.864
 1337POPC   C1A19767  32.246  23.729   8.564
 1337POPC   D2A19768  32.256  23.731   8.264
 1337POPC   C3A19769  32.210  23.713   7.964
 1337POPC   C4A19770  32.250  23.760   7.664
 1337POPC   C1B19771  31.987  23.839   8.564
 1337POPC   C2B19772  31.965  23.825   8.264
 1337POPC   C3B19773  32.023  23.843   7.964
 1337POPC   C4B19774  31.983  23.809   7.664
 1338POPC   NC319775  13.654   5.839   9.464
 1338POPC   PO419776  13.639   5.897   9.164
 1338POPC   GL119777  13.658   5.896   8.864
 1338POPC   GL219778  13.531   5.806   8.864
 1338POPC   C1A19779  13.649   5.855   8.564
 1338POPC   D2A19780  13.673   5.899   8.264
 1338POPC   C3A19781  13.607   5.820   7.964
 1338POPC   C4A19782  13.641   5.846   7.664
 1338POPC   C1B19783  13.337   5.829   8.564
 1338POPC   C2B19784  13.396   5.781   8.264
 1338POPC   C3B19785  13.338   5.849   7.964
 1338POPC   C4B19786  13.409   5.864   7.664
 1339POPC   NC319787  43.892  24.468   9.464
 1339POPC   PO419788  43.913  24.468   9.164
 1339POPC   GL119789  43.912  24.481   8.864
 1339POPC   GL219790  44.037  24.515   8.864
 1339POPC   C1A19791  43.872  24.444   8.564
 1339POPC   D2A19792  43.878  24.445   8.264
 1339POPC   C3A19793  43.840  24.500   7.964
 1339POPC   C4A19794  43.916  24.524   7.664
 1339POPC   C1B19795  44.180  24.465   8.564
 1339POPC   C2B19796  44.118  24.518   8.264
 1339POPC   C3B19797  44.175  24.463   7.964
 1339POPC   C4B19798  44.122  24.534   7.664
 1340POPC   NC319799  29.931  42.295   9.464
 1340POPC   PO419800  29.907  42.350   9.164
 1340POPC   GL119801  29.942  42.327   8.864
 1340POPC   GL219802  30.001  42.448   8.864
 1340POPC   C1A19803  29.910  42.292   8.564
 1340POPC   D2A19804  29.883  42.351   8.264
 1340POPC   C3A19805  29.959  42.300   7.964
 1340POPC   C4A19806  29.926  42.354   7.664
 1340POPC   C1B19807  30.007  42.587   8.564
 1340POPC   C2B19808  30.036  42.529   8.264
 1340POPC   C3B19809  29.996  42.615   7.964
 1340POPC   C4B19810  29.963  42.619   7.664
 1341POPC   NC319811  12.883  29.184   9.464
 1341POPC   PO419812  12.862  29.160   9.164
 1341POPC   GL119813  12.833  29.166   8.864
 1341POPC   GL219814  12.972  29.016   8.864
 1341POPC   C1A19815  12.823  29.163   8.564
 1341POPC   D2A19816  12.869  29.173   8.264
 1341POPC   C3A19817  12.846  29.151   7.964
 1341POPC   C4A19818  12.813  29.184   7.664
 1341POPC   C1B19819  12.984  28.921   8.564
 1341POPC   C2B19820  13.015  29.008   8.264
 1341POPC   C3B19821  13.037  28.986   7.964
 1341POPC   C4B19822  12.993  28.963   7.664
 1342POPC   NC319823   4.354  19.857   9.464
 1342POPC   PO419824   4.296  19.788   9.164
 1342POPC   GL119825   4.364  19.839   8.864
 1342POPC   GL219826   4.401  19.744   8.864
 1342POPC   C1A19827   4.350  19.796   8.564
 1342POPC   D2A19828   4.363  19.881   8.264
 1342POPC   C3A19829   4.304  19.844   7.964
 1342POPC   C4A19830   4.362  19.802   7.664
 1342POPC   C1B19831   4.557  19.713   8.564
 1342POPC   C2B19832   4.528  19.686   8.264
 1342POPC   C3B19833   4.518  19.723   7.964
 1342POPC   C4B19834   4.533  19.696   7.664
 1343POPC   NC319835  33.051  23.726   9.464
 1343POPC   PO419836  33.032  23.720   9.164
 1343POPC   GL119837  33.019  23.689   8.864
 1343POPC   GL219838  32.979  23.804   8.864
 1343POPC   C1A19839  33.072  23.746   8.564
 1343POPC   D2A19840  33.000  23.742   8.264
 1343POPC   C3A19841  33.071  23.718   7.964
 1343POPC   C4A19842  33.070  23.680   7.664
 1343POPC   C1B19843  32.824  23.951   8.564
 1343POPC   C2B19844  32.854  23.884   8.264
 1343POPC   C3B19845  32.848  23.892   7.964
 1343POPC   C4B19846  32.905  23.950   7.664
 1344POPC   NC319847   2.750  20.590   9.464
 1344POPC   PO419848   2.797  20.575   9.164
 1344POPC   GL119849   2.736  20.583   8.864
 1344POPC   GL219850   2.719  20.707   8.864
 1344POPC   C1A19851   2.749  20.571   8.564
 1344POPC   D2A19852   2.793  20.620   8.264
 1344POPC   C3A19853   2.793  20.613   7.964
 1344POPC   C4A19854   2.779  20.650   7.664
 1344POPC   C1B19855   2.566  20.801   8.564
 1344POPC   C2B19856   2.568  20.728   8.264
 1344POPC   C3B19857   2.617  20.755   7.964
 1344POPC   C4B19858   2.596  20.779   7.664
 1345POPC   NC319859  26.039  25.234   9.464
 1345POPC   PO419860  26.034  25.308   9.164
 1345POPC   GL119861  26.082  25.298   8.864
 1345POPC   GL219862  26.023  25.152   8.864
 1345POPC   C1A19863  26.073  25.304   8.564
 1345POPC   D2A19864  26.000  25.266   8.264
 1345POPC   C3A19865  26.016  25.296   7.964
 1345POPC   C4A19866  26.026  25.237   7.664
 1345POPC   C1B19867  26.083  25.034   8.564
 1345POPC   C2B19868  26.122  25.055   8.264
 1345POPC   C3B19869  26.062  25.037   7.964
 1345POPC   C4B19870  26.083  24.980   7.664
 1346POPC   NC319871   9.009  41.567   9.464
 1346POPC   PO419872   8.926  41.516   9.164
 1346POPC   GL119873   8.996  41.590   8.864
 1346POPC   GL219874   8.951  41.454   8.864
 1346POPC   C1A19875   8.993  41.515   8.564
 1346POPC   D2A19876   9.013  41.542   8.264
 1346POPC   C3A19877   8.926  41.511   7.964
 1346POPC   C4A19878   9.019  41.530   7.664
 1346POPC   C1B19879   8.829  41.348   8.564
 1346POPC   C2B19880   8.860  41.360   8.264
 1346POPC   C3B19881   8.857  41.340   7.964
 1346POPC   C4B19882   8.793  41.310   7.664
 1347POPC   NC319883  28.418  44.663   9.464
 1347POPC   PO419884  28.403  44.687   9.164
 1347POPC   GL119885  28.389  44.677   8.864
 1347POPC   GL219886  28.362  44.585   8.864
 1347POPC   C1A19887  28.329  44.693   8.564
 1347POPC   D2A19888  28.384  44.659   8.264
 1347POPC   C3A19889  28.405  44.667   7.964
 1347POPC   C4A19890  28.370  44.664   7.664
 1347POPC   C1B19891  28.289  44.421   8.564
 1347POPC   C2B19892  28.242  44.430   8.264
 1347POPC   C3B19893  28.243  44.461   7.964
 1347POPC   C4B19894  28.282  44.473   7.664
 1348POPC   NC319895  15.208  39.213   9.464
 1348POPC   PO419896  15.181  39.280   9.164
 1348POPC   GL119897  15.135  39.212   8.864
 1348POPC   GL219898  15.082  39.238   8.864
 1348POPC   C1A19899  15.146  39.194   8.564
 1348POPC   D2A19900  15.214  39.187   8.264
 1348POPC   C3A19901  15.168  39.223   7.964
 1348POPC   C4A19902  15.145  39.267   7.664
 1348POPC   C1B19903  14.938  39.325   8.564
 1348POPC   C2B19904  14.894  39.302   8.264
 1348POPC   C3B19905  14.961  39.346   7.964
 1348POPC   C4B19906  14.896  39.324   7.664
 1349POPC   NC319907  30.718  35.377   9.464
 1349POPC   PO419908  30.725  35.376   9.164
 1349POPC   GL119909  30.671  35.308   8.864
 1349POPC   GL219910  30.859  35.408   8.864
 1349POPC   C1A19911  30.716  35.388   8.564
 1349POPC   D2A19912  30.692  35.393   8.264
 1349POPC   C3A19913  30.688  35.390   7.964
 1349POPC   C4A19914  30.660  35.324   7.664
 1349POPC   C1B19915  30.952  35.437   8.564
 1349POPC   C2B19916  30.957  35.424   8.264
 1349POPC   C3B19917  30.980  35.466   7.964
 1349POPC   C4B19918  30.951  35.411   7.664
 1350POPC   NC319919  27.548  43.093   9.464
 1350POPC   PO419920  27.582  43.120   9.164
 1350POPC   GL119921  27.573  43.063   8.864
 1350POPC   GL219922  27.457  43.080   8.864
 1350POPC   C1A19923  27.566  43.113   8.564
 1350POPC   D2A19924  27.601  43.081   8.264
 1350POPC   C3A19925  27.575  43.128   7.964
 1350POPC   C4A19926  27.571  43.147   7.664
 1350POPC   C1B19927  27.354  43.147   8.564
 1350POPC   C2B19928  27.351  43.079   8.264
 1350POPC   C3B19929  27.313  43.088   7.964
 1350POPC   C4B19930  27.348  43.066   7.664
 1351POPC   NC319931  43.900  11.256   9.464
 1351POPC   PO419932  43.887  11.332   9.164
 1351POPC   GL119933  43.880  11.278   8.864
 1351POPC   GL219934  43.813  11.354   8.864
 1351POPC   C1A19935  43.912  11.287   8.564
 1351POPC   D2A19936  43.838  11.313   8.264
 1351POPC   C3A19937  43.882  11.342   7.964
 1351POPC   C4A19938  43.851  11.300   7.664
 1351POPC   C1B19939  43.609  11.393   8.564
 1351POPC   C2B19940  43.687  11.335   8.264
 1351POPC   C3B19941  43.688  11.330   7.964
 1351POPC   C4B19942  43.609  11.403   7.664
 1352POPC   NC319943  20.633  17.525   9.464
 1352POPC   PO419944  20.625  17.557   9.164
 1352POPC   GL119945  20.595  17.483   8.864
 1352POPC   GL219946  20.437  17.495   8.864
 1352POPC   C1A19947  20.600  17.546   8.564
 1352POPC   D2A19948  20.608  17.463   8.264
 1352POPC   C3A19949  20.562  17.500   7.964
 1352POPC   C4A19950  20.589  17.526   7.664
 1352POPC   C1B19951  20.348  17.489   8.564
 1352POPC   C2B19952  20.318  17.546   8.264
 1352POPC   C3B19953  20.327  17.574   7.964
 1352POPC   C4B19954  20.378  17.548   7.664
 1353POPC   NC319955  24.459  22.113   9.464
 1353POPC   PO419956  24.487  22.197   9.164
 1353POPC   GL119957  24.444  22.211   8.864
 1353POPC   GL219958  24.578  22.043   8.864
 1353POPC   C1A19959  24.536  22.193   8.564
 1353POPC   D2A19960  24.468  22.183   8.264
 1353POPC   C3A19961  24.501  22.123   7.964
 1353POPC   C4A19962  24.469  22.169   7.664
 1353POPC   C1B19963  24.667  21.970   8.564
 1353POPC   C2B19964  24.666  22.004   8.264
 1353POPC   C3B19965  24.647  21.942   7.964
 1353POPC   C4B19966  24.657  21.953   7.664
 1354POPC   NC319967  32.289  18.313   9.464
 1354POPC   PO419968  32.218  18.313   9.164
 1354POPC   GL119969  32.243  18.308   8.864
 1354POPC   GL219970  32.325  18.364   8.864
 1354POPC   C1A19971  32.285  18.279   8.564
 1354POPC   D2A19972  32.215  18.266   8.264
 1354POPC   C3A19973  32.200  18.326   7.964
 1354POPC   C4A19974  32.284  18.235   7.664
 1354POPC   C1B19975  32.356  18.481   8.564
 1354POPC   C2B19976  32.377  18.465   8.264
 1354POPC   C3B19977  32.370  18.473   7.964
 1354POPC   C4B19978  32.367  18.508   7.664
 1355POPC   NC319979  15.217  13.604   9.464
 1355POPC   PO419980  15.153  13.623   9.164
 1355POPC   GL119981  15.178  13.581   8.864
 1355POPC   GL219982  15.134  13.513   8.864
 1355POPC   C1A19983  15.133  13.670   8.564
 1355POPC   D2A19984  15.146  13.661   8.264
 1355POPC   C3A19985  15.183  13.632   7.964
 1355POPC   C4A19986  15.178  13.583   7.664
 1355POPC   C1B19987  15.082  13.409   8.564
 1355POPC   C2B19988  15.080  13.385   8.264
 1355POPC   C3B19989  15.121  13.343   7.964
 1355POPC   C4B19990  15.139  13.365   7.664
 1356POPC   NC319991  21.386   8.152   9.464
 1356POPC   PO419992  21.381   8.234   9.164
 1356POPC   GL119993  21.424   8.178   8.864
 1356POPC   GL219994  21.304   8.106   8.864
 1356POPC   C1A19995  21.400   8.222   8.564
 1356POPC   D2A19996  21.357   8.147   8.264
 1356POPC   C3A19997  21.379   8.194   7.964
 1356POPC   C4A19998  21.351   8.175   7.664
 1356POPC   C1B19999  21.138   8.066   8.564
 1356POPC   C2B20000  21.117   8.035   8.264
 1356POPC   C3B20001  21.188   8.065   7.964
 1356POPC   C4B20002  21.163   8.074   7.664
 1357POPC   NC320003   2.746  33.025   9.464
 1357POPC   PO420004   2.771  33.060   9.164
 1357POPC   GL120005   2.802  33.048   8.864
 1357POPC   GL220006   2.643  33.045   8.864
 1357POPC   C1A20007   2.734  33.038   8.564
 1357POPC   D2A20008   2.756  33.035   8.264
 1357POPC   C3A20009   2.724  33.023   7.964
 1357POPC   C4A20010   2.758  33.068   7.664
 1357POPC   C1B20011   2.500  33.040   8.564
 1357POPC   C2B20012   2.480  32.975   8.264
 1357POPC   C3B20013   2.476  33.039   7.964
 1357POPC   C4B20014   2.483  32.979   7.664
 1358POPC   NC320015   5.872   7.469   9.464
 1358POPC   PO420016   5.873   7.381   9.164
 1358POPC   GL120017   5.900   7.464   8.864
 1358POPC   GL220018   6.038   7.374   8.864
 1358POPC   C1A20019   5.839   7.424   8.564
 1358POPC   D2A20020   5.824   7.445   8.264
 1358POPC   C3A20021   5.820   7.437   7.964
 1358POPC   C4A20022   5.901   7.449   7.664
 1358POPC   C1B20023   6.118   7.431   8.564
 1358POPC   C2B20024   6.142   7.444   8.264
 1358POPC   C3B20025   6.087   7.445   7.964
 1358POPC   C4B20026   6.121   7.414   7.664
 1359POPC   NC320027  28.387   4.318   9.464
 1359POPC   PO420028  28.414   4.331   9.164
 1359POPC   GL120029  28.361   4.282   8.864
 1359POPC   GL220030  28.274   4.395   8.864
 1359POPC   C1A20031  28.399   4.360   8.564
 1359POPC   D2A20032  28.411   4.320   8.264
 1359POPC   C3A20033  28.344   4.303   7.964
 1359POPC   C4A20034  28.367   4.348   7.664
 1359POPC   C1B20035  28.190   4.418   8.564
 1359POPC   C2B20036  28.136   4.383   8.264
 1359POPC   C3B20037  28.139   4.392   7.964
 1359POPC   C4B20038  28.145   4.390   7.664
 1360POPC   NC320039  19.046  24.539   9.464
 1360POPC   PO420040  19.073  24.463   9.164
 1360POPC   GL120041  19.012  24.467   8.864
 1360POPC   GL220042  18.994  24.577   8.864
 1360POPC   C1A20043  19.073  24.490   8.564
 1360POPC   D2A20044  19.066  24.537   8.264
 1360POPC   C3A20045  19.053  24.473   7.964
 1360POPC   C4A20046  19.069  24.523   7.664
 1360POPC   C1B20047  18.811  24.579   8.564
 1360POPC   C2B20048  18.826  24.629   8.264
 1360POPC   C3B20049  18.861  24.607   7.964
 1360POPC   C4B20050  18.854  24.577   7.664
 1361POPC   NC320051  22.158   8.212   9.464
 1361POPC   PO420052  22.160   8.165   9.164
 1361POPC   GL120053  22.167   8.161   8.864
 1361POPC   GL220054  22.186   8.272   8.864
 1361POPC   C1A20055  22.195   8.221   8.564
 1361POPC   D2A20056  22.112   8.152   8.264
 1361POPC   C3A20057  22.129   8.227   7.964
 1361POPC   C4A20058  22.168   8.164   7.664
 1361POPC   C1B20059  22.120   8.408   8.564
 1361POPC   C2B20060  22.137   8.481   8.264
 1361POPC   C3B20061  22.087   8.455   7.964
 1361POPC   C4B20062  22.115   8.424   7.664
 1362POPC   NC320063  19.798  43.866   9.464
 1362POPC   PO420064  19.863  43.933   9.164
 1362POPC   GL120065  19.822  43.851   8.864
 1362POPC   GL220066  19.939  43.936   8.864
 1362POPC   C1A20067  19.834  43.912   8.564
 1362POPC   D2A20068  19.801  43.862   8.264
 1362POPC   C3A20069  19.808  43.866   7.964
 1362POPC   C4A20070  19.867  43.934   7.664
 1362POPC   C1B20071  19.963  44.079   8.564
 1362POPC   C2B20072  19.959  44.114   8.264
 1362POPC   C3B20073  19.956  44.058   7.964
 1362POPC   C4B20074  19.974  44.097   7.664
 1363POPC   NC320075  10.531   8.151   9.464
 1363POPC   PO420076  10.541   8.216   9.164
 1363POPC   GL120077  10.550   8.220   8.864
 1363POPC   GL220078  10.413   8.331   8.864
 1363POPC   C1A20079  10.518   8.229   8.564
 1363POPC   D2A20080  10.557   8.238   8.264
 1363POPC   C3A20081  10.519   8.189   7.964
 1363POPC   C4A20082  10.526   8.150   7.664
 1363POPC   C1B20083  10.340   8.334   8.564
 1363POPC   C2B20084  10.319   8.414   8.264
 1363POPC   C3B20085  10.315   8.392   7.964
 1363POPC   C4B20086  10.317   8.378   7.664
 1364POPC   NC320087  24.479  12.805   9.464
 1364POPC   PO420088  24.456  12.840   9.164
 1364POPC   GL120089  24.459  12.871   8.864
 1364POPC   GL220090  24.420  12.681   8.864
 1364POPC   C1A20091  24.494  12.830   8.564
 1364POPC   D2A20092  24.538  12.880   8.264
 1364POPC   C3A20093  24.458  12.868   7.964
 1364POPC   C4A20094  24.494  12.885   7.664
 1364POPC   C1B20095  24.392  12.635   8.564
 1364POPC   C2B20096  24.435  12.595   8.264
 1364POPC   C3B20097  24.470  12.634   7.964
 1364POPC   C4B20098  24.404  12.654   7.664
 1365POPC   NC320099  41.563   5.126   9.464
 1365POPC   PO420100  41.558   5.046   9.164
 1365POPC   GL120101  41.549   5.133   8.864
 1365POPC   GL220102  41.581   5.001   8.864
 1365POPC   C1A20103  41.528   5.105   8.564
 1365POPC   D2A20104  41.537   5.048   8.264
 1365POPC   C3A20105  41.548   5.126   7.964
 1365POPC   C4A20106  41.529   5.052   7.664
 1365POPC   C1B20107  41.525   4.843   8.564
 1365POPC   C2B20108  41.486   4.807   8.264
 1365POPC   C3B20109  41.573   4.842   7.964
 1365POPC   C4B20110  41.572   4.872   7.664
 1366POPC   NC320111  38.453  11.256   9.464
 1366POPC   PO420112  38.435  11.316   9.164
 1366POPC   GL120113  38.411  11.287   8.864
 1366POPC   GL220114  38.533  11.335   8.864
 1366POPC   C1A20115  38.457  11.268   8.564
 1366POPC   D2A20116  38.495  11.342   8.264
 1366POPC   C3A20117  38.422  11.329   7.964
 1366POPC   C4A20118  38.424  11.280   7.664
 1366POPC   C1B20119  38.698  11.328   8.564
 1366POPC   C2B20120  38.709  11.346   8.264
 1366POPC   C3B20121  38.660  11.352   7.964
 1366POPC   C4B20122  38.677  11.397   7.664
 1367POPC   NC320123  12.116  25.302   9.464
 1367POPC   PO420124  12.121  25.273   9.164
 1367POPC   GL120125  12.055  25.252   8.864
 1367POPC   GL220126  12.192  25.209   8.864
 1367POPC   C1A20127  12.092  25.224   8.564
 1367POPC   D2A20128  12.053  25.260   8.264
 1367POPC   C3A20129  12.125  25.300   7.964
 1367POPC   C4A20130  12.085  25.287   7.664
 1367POPC   C1B20131  12.280  25.108   8.564
 1367POPC   C2B20132  12.309  25.122   8.264
 1367POPC   C3B20133  12.329  25.095   7.964
 1367POPC   C4B20134  12.336  25.146   7.664
 1368POPC   NC320135   9.016   4.317   9.464
 1368POPC   PO420136   9.021   4.300   9.164
 1368POPC   GL120137   9.022   4.314   8.864
 1368POPC   GL220138   8.995   4.452   8.864
 1368POPC   C1A20139   8.993   4.308   8.564
 1368POPC   D2A20140   8.923   4.338   8.264
 1368POPC   C3A20141   8.970   4.325   7.964
 1368POPC   C4A20142   8.972   4.318   7.664
 1368POPC   C1B20143   9.063   4.558   8.564
 1368POPC   C2B20144   9.053   4.590   8.264
 1368POPC   C3B20145   9.057   4.570   7.964
 1368POPC   C4B20146   9.118   4.507   7.664
 1369POPC   NC320147  38.455   4.276   9.464
 1369POPC   PO420148  38.415   4.314   9.164
 1369POPC   GL120149  38.483   4.300   8.864
 1369POPC   GL220150  38.531   4.289   8.864
 1369POPC   C1A20151  38.496   4.325   8.564
 1369POPC   D2A20152  38.500   4.339   8.264
 1369POPC   C3A20153  38.458   4.367   7.964
 1369POPC   C4A20154  38.472   4.333   7.664
 1369POPC   C1B20155  38.708   4.190   8.564
 1369POPC   C2B20156  38.660   4.272   8.264
 1369POPC   C3B20157  38.656   4.261   7.964
 1369POPC   C4B20158  38.728   4.281   7.664
 1370POPC   NC320159  37.726  22.927   9.464
 1370POPC   PO420160  37.710  22.918   9.164
 1370POPC   GL120161  37.639  22.913   8.864
 1370POPC   GL220162  37.768  22.889   8.864
 1370POPC   C1A20163  37.689  22.897   8.564
 1370POPC   D2A20164  37.691  22.943   8.264
 1370POPC   C3A20165  37.687  22.892   7.964
 1370POPC   C4A20166  37.669  22.948   7.664
 1370POPC   C1B20167  37.910  22.907   8.564
 1370POPC   C2B20168  37.929  22.897   8.264
 1370POPC   C3B20169  37.936  22.820   7.964
 1370POPC   C4B20170  37.957  22.872   7.664
 1371POPC   NC320171  38.467  18.324   9.464
 1371POPC   PO420172  38.420  18.277   9.164
 1371POPC   GL120173  38.491  18.293   8.864
 1371POPC   GL220174  38.381  18.211   8.864
 1371POPC   C1A20175  38.498  18.276   8.564
 1371POPC   D2A20176  38.473  18.250   8.264
 1371POPC   C3A20177  38.446  18.269   7.964
 1371POPC   C4A20178  38.493  18.279   7.664
 1371POPC   C1B20179  38.272  18.145   8.564
 1371POPC   C2B20180  38.243  18.187   8.264
 1371POPC   C3B20181  38.274  18.153   7.964
 1371POPC   C4B20182  38.263  18.129   7.664
 1372POPC   NC320183   3.525  11.329   9.464
 1372POPC   PO420184   3.581  11.266   9.164
 1372POPC   GL120185   3.584  11.296   8.864
 1372POPC   GL220186   3.670  11.267   8.864
 1372POPC   C1A20187   3.562  11.326   8.564
 1372POPC   D2A20188   3.552  11.317   8.264
 1372POPC   C3A20189   3.580  11.275   7.964
 1372POPC   C4A20190   3.547  11.286   7.664
 1372POPC   C1B20191   3.796  11.315   8.564
 1372POPC   C2B20192   3.768  11.332   8.264
 1372POPC   C3B20193   3.743  11.285   7.964
 1372POPC   C4B20194   3.766  11.364   7.664
 1373POPC   NC320195  32.261   4.306   9.464
 1373POPC   PO420196  32.254   4.308   9.164
 1373POPC   GL120197  32.232   4.301   8.864
 1373POPC   GL220198  32.330   4.372   8.864
 1373POPC   C1A20199  32.286   4.337   8.564
 1373POPC   D2A20200  32.269   4.299   8.264
 1373POPC   C3A20201  32.258   4.356   7.964
 1373POPC   C4A20202  32.280   4.359   7.664
 1373POPC   C1B20203  32.482   4.325   8.564
 1373POPC   C2B20204  32.475   4.346   8.264
 1373POPC   C3B20205  32.528   4.348   7.964
 1373POPC   C4B20206  32.465   4.323   7.664
 1374POPC   NC320207  10.559   1.946   9.464
 1374POPC   PO420208  10.504   2.009   9.164
 1374POPC   GL120209  10.502   2.032   8.864
 1374POPC   GL220210  10.608   2.136   8.864
 1374POPC   C1A20211  10.478   1.962   8.564
 1374POPC   D2A20212  10.536   1.942   8.264
 1374POPC   C3A20213  10.494   1.940   7.964
 1374POPC   C4A20214  10.541   1.971   7.664
 1374POPC   C1B20215  10.599   2.215   8.564
 1374POPC   C2B20216  10.593   2.245   8.264
 1374POPC   C3B20217  10.610   2.174   7.964
 1374POPC   C4B20218  10.592   2.172   7.664
 1375POPC   NC320219  19.018  15.963   9.464
 1375POPC   PO420220  19.077  15.937   9.164
 1375POPC   GL120221  19.106  15.999   8.864
 1375POPC   GL220222  19.070  15.803   8.864
 1375POPC   C1A20223  19.011  15.998   8.564
 1375POPC   D2A20224  19.030  15.923   8.264
 1375POPC   C3A20225  19.088  15.975   7.964
 1375POPC   C4A20226  19.073  15.991   7.664
 1375POPC   C1B20227  19.061  15.724   8.564
 1375POPC   C2B20228  19.012  15.709   8.264
 1375POPC   C3B20229  19.021  15.735   7.964
 1375POPC   C4B20230  19.061  15.679   7.664
 1376POPC   NC320231  30.681  16.691   9.464
 1376POPC   PO420232  30.682  16.717   9.164
 1376POPC   GL120233  30.714  16.755   8.864
 1376POPC   GL220234  30.787  16.809   8.864
 1376POPC   C1A20235  30.735  16.773   8.564
 1376POPC   D2A20236  30.677  16.685   8.264
 1376POPC   C3A20237  30.713  16.776   7.964
 1376POPC   C4A20238  30.654  16.739   7.664
 1376POPC   C1B20239  30.969  16.829   8.564
 1376POPC   C2B20240  30.913  16.856   8.264
 1376POPC   C3B20241  30.886  16.789   7.964
 1376POPC   C4B20242  30.948  16.841   7.664
 1377POPC   NC320243  40.827  26.071   9.464
 1377POPC   PO420244  40.797  26.041   9.164
 1377POPC   GL120245  40.803  26.089   8.864
 1377POPC   GL220246  40.786  26.122   8.864
 1377POPC   C1A20247  40.818  26.043   8.564
 1377POPC   D2A20248  40.788  26.062   8.264
 1377POPC   C3A20249  40.797  26.032   7.964
 1377POPC   C4A20250  40.796  26.059   7.664
 1377POPC   C1B20251  40.874  26.307   8.564
 1377POPC   C2B20252  40.883  26.261   8.264
 1377POPC   C3B20253  40.916  26.259   7.964
 1377POPC   C4B20254  40.858  26.305   7.664
 1378POPC   NC320255  19.851  40.006   9.464
 1378POPC   PO420256  19.869  40.049   9.164
 1378POPC   GL120257  19.842  39.999   8.864
 1378POPC   GL220258  19.703  39.984   8.864
 1378POPC   C1A20259  19.860  39.998   8.564
 1378POPC   D2A20260  19.842  40.001   8.264
 1378POPC   C3A20261  19.877  39.988   7.964
 1378POPC   C4A20262  19.877  39.975   7.664
 1378POPC   C1B20263  19.608  40.027   8.564
 1378POPC   C2B20264  19.570  40.026   8.264
 1378POPC   C3B20265  19.605  40.046   7.964
 1378POPC   C4B20266  19.552  40.020   7.664
 1379POPC   NC320267   9.747   2.001   9.464
 1379POPC   PO420268   9.784   2.012   9.164
 1379POPC   GL120269   9.726   1.996   8.864
 1379POPC   GL220270   9.808   1.943   8.864
 1379POPC   C1A20271   9.730   2.028   8.564
 1379POPC   D2A20272   9.737   1.959   8.264
 1379POPC   C3A20273   9.782   2.009   7.964
 1379POPC   C4A20274   9.722   1.997   7.664
 1379POPC   C1B20275  10.008   1.866   8.564
 1379POPC   C2B20276   9.926   1.895   8.264
 1379POPC   C3B20277   9.943   1.824   7.964
 1379POPC   C4B20278   9.985   1.840   7.664
 1380POPC   NC320279  29.935  32.221   9.464
 1380POPC   PO420280  29.949  32.204   9.164
 1380POPC   GL120281  29.876  32.213   8.864
 1380POPC   GL220282  30.031  32.342   8.864
 1380POPC   C1A20283  29.932  32.219   8.564
 1380POPC   D2A20284  29.904  32.203   8.264
 1380POPC   C3A20285  29.969  32.260   7.964
 1380POPC   C4A20286  29.944  32.279   7.664
 1380POPC   C1B20287  30.071  32.376   8.564
 1380POPC   C2B20288  30.099  32.444   8.264
 1380POPC   C3B20289  30.090  32.441   7.964
 1380POPC   C4B20290  30.140  32.430   7.664
 1381POPC   NC320291  36.861  30.681   9.464
 1381POPC   PO420292  36.869  30.695   9.164
 1381POPC   GL120293  36.863  30.651   8.864
 1381POPC   GL220294  36.842  30.638   8.864
 1381POPC   C1A20295  36.862  30.664   8.564
 1381POPC   D2A20296  36.876  30.678   8.264
 1381POPC   C3A20297  36.924  30.743   7.964
 1381POPC   C4A20298  36.880  30.713   7.664
 1381POPC   C1B20299  36.694  30.618   8.564
 1381POPC   C2B20300  36.734  30.592   8.264
 1381POPC   C3B20301  36.640  30.530   7.964
 1381POPC   C4B20302  36.670  30.545   7.664
 1382POPC   NC320303  39.214  39.981   9.464
 1382POPC   PO420304  39.262  40.003   9.164
 1382POPC   GL120305  39.257  40.012   8.864
 1382POPC   GL220306  39.332  39.981   8.864
 1382POPC   C1A20307  39.205  39.964   8.564
 1382POPC   D2A20308  39.210  40.035   8.264
 1382POPC   C3A20309  39.184  39.979   7.964
 1382POPC   C4A20310  39.184  40.042   7.664
 1382POPC   C1B20311  39.452  40.032   8.564
 1382POPC   C2B20312  39.484  39.989   8.264
 1382POPC   C3B20313  39.507  39.967   7.964
 1382POPC   C4B20314  39.486  40.051   7.664
 1383POPC   NC320315  22.962  12.124   9.464
 1383POPC   PO420316  22.932  12.048   9.164
 1383POPC   GL120317  22.977  12.053   8.864
 1383POPC   GL220318  23.002  12.118   8.864
 1383POPC   C1A20319  22.901  12.094   8.564
 1383POPC   D2A20320  22.981  12.050   8.264
 1383POPC   C3A20321  22.888  12.072   7.964
 1383POPC   C4A20322  22.895  12.095   7.664
 1383POPC   C1B20323  23.169  12.176   8.564
 1383POPC   C2B20324  23.135  12.161   8.264
 1383POPC   C3B20325  23.173  12.152   7.964
 1383POPC   C4B20326  23.121  12.195   7.664
 1384POPC   NC320327  29.969  40.780   9.464
 1384POPC   PO420328  29.911  40.818   9.164
 1384POPC   GL120329  29.873  40.817   8.864
 1384POPC   GL220330  29.936  40.705   8.864
 1384POPC   C1A20331  29.960  40.740   8.564
 1384POPC   D2A20332  29.891  40.795   8.264
 1384POPC   C3A20333  29.924  40.795   7.964
 1384POPC   C4A20334  29.897  40.814   7.664
 1384POPC   C1B20335  29.834  40.525   8.564
 1384POPC   C2B20336  29.899  40.520   8.264
 1384POPC   C3B20337  29.864  40.544   7.964
 1384POPC   C4B20338  29.845  40.521   7.664
 1385POPC   NC320339  29.184  43.080   9.464
 1385POPC   PO420340  29.111  43.148   9.164
 1385POPC   GL120341  29.120  43.095   8.864
 1385POPC   GL220342  29.034  43.060   8.864
 1385POPC   C1A20343  29.166  43.067   8.564
 1385POPC   D2A20344  29.194  43.113   8.264
 1385POPC   C3A20345  29.173  43.159   7.964
 1385POPC   C4A20346  29.165  43.090   7.664
 1385POPC   C1B20347  28.927  43.006   8.564
 1385POPC   C2B20348  28.878  43.082   8.264
 1385POPC   C3B20349  28.893  43.053   7.964
 1385POPC   C4B20350  28.947  43.011   7.664
 1386POPC   NC320351   3.535   1.263   9.464
 1386POPC   PO420352   3.566   1.192   9.164
 1386POPC   GL120353   3.523   1.227   8.864
 1386POPC   GL220354   3.585   1.368   8.864
 1386POPC   C1A20355   3.547   1.256   8.564
 1386POPC   D2A20356   3.580   1.209   8.264
 1386POPC   C3A20357   3.548   1.179   7.964
 1386POPC   C4A20358   3.586   1.243   7.664
 1386POPC   C1B20359   3.567   1.447   8.564
 1386POPC   C2B20360   3.603   1.425   8.264
 1386POPC   C3B20361   3.556   1.435   7.964
 1386POPC   C4B20362   3.512   1.481   7.664
 1387POPC   NC320363   8.955  29.947   9.464
 1387POPC   PO420364   8.925  29.941   9.164
 1387POPC   GL120365   8.989  29.927   8.864
 1387POPC   GL220366   8.942  29.774   8.864
 1387POPC   C1A20367   8.999  29.931   8.564
 1387POPC   D2A20368   8.964  29.888   8.264
 1387POPC   C3A20369   8.932  29.873   7.964
 1387POPC   C4A20370   8.997  29.949   7.664
 1387POPC   C1B20371   9.000  29.690   8.564
 1387POPC   C2B20372   8.965  29.646   8.264
 1387POPC   C3B20373   8.987  29.720   7.964
 1387POPC   C4B20374   8.973  29.669   7.664
 1388POPC   NC320375  31.474  33.780   9.464
 1388POPC   PO420376  31.512  33.835   9.164
 1388POPC   GL120377  31.437  33.794   8.864
 1388POPC   GL220378  31.559  33.873   8.864
 1388POPC   C1A20379  31.509  33.757   8.564
 1388POPC   D2A20380  31.470  33.801   8.264
 1388POPC   C3A20381  31.510  33.798   7.964
 1388POPC   C4A20382  31.517  33.848   7.664
 1388POPC   C1B20383  31.711  33.839   8.564
 1388POPC   C2B20384  31.764  33.898   8.264
 1388POPC   C3B20385  31.681  33.807   7.964
 1388POPC   C4B20386  31.743  33.899   7.664
 1389POPC   NC320387  23.679  30.657   9.464
 1389POPC   PO420388  23.696  30.701   9.164
 1389POPC   GL120389  23.716  30.743   8.864
 1389POPC   GL220390  23.849  30.692   8.864
 1389POPC   C1A20391  23.710  30.713   8.564
 1389POPC   D2A20392  23.732  30.742   8.264
 1389POPC   C3A20393  23.687  30.707   7.964
 1389POPC   C4A20394  23.717  30.657   7.664
 1389POPC   C1B20395  23.964  30.662   8.564
 1389POPC   C2B20396  23.928  30.738   8.264
 1389POPC   C3B20397  23.975  30.686   7.964
 1389POPC   C4B20398  23.942  30.720   7.664
 1390POPC   NC320399  36.859   6.637   9.464
 1390POPC   PO420400  36.862   6.637   9.164
 1390POPC   GL120401  36.898   6.628   8.864
 1390POPC   GL220402  37.009   6.588   8.864
 1390POPC   C1A20403  36.900   6.627   8.564
 1390POPC   D2A20404  36.923   6.607   8.264
 1390POPC   C3A20405  36.895   6.614   7.964
 1390POPC   C4A20406  36.912   6.695   7.664
 1390POPC   C1B20407  37.122   6.584   8.564
 1390POPC   C2B20408  37.107   6.514   8.264
 1390POPC   C3B20409  37.149   6.546   7.964
 1390POPC   C4B20410  37.146   6.516   7.664
 1391POPC   NC320411  40.043  15.156   9.464
 1391POPC   PO420412  39.967  15.200   9.164
 1391POPC   GL120413  39.967  15.185   8.864
 1391POPC   GL220414  40.122  15.269   8.864
 1391POPC   C1A20415  39.994  15.138   8.564
 1391POPC   D2A20416  39.994  15.149   8.264
 1391POPC   C3A20417  40.038  15.160   7.964
 1391POPC   C4A20418  39.964  15.153   7.664
 1391POPC   C1B20419  40.231  15.262   8.564
 1391POPC   C2B20420  40.216  15.294   8.264
 1391POPC   C3B20421  40.281  15.239   7.964
 1391POPC   C4B20422  40.243  15.280   7.664
 1392POPC   NC320423   3.504  14.397   9.464
 1392POPC   PO420424   3.580  14.416   9.164
 1392POPC   GL120425   3.508  14.377   8.864
 1392POPC   GL220426   3.689  14.312   8.864
 1392POPC   C1A20427   3.565  14.450   8.564
 1392POPC   D2A20428   3.578  14.452   8.264
 1392POPC   C3A20429   3.527  14.396   7.964
 1392POPC   C4A20430   3.554  14.413   7.664
 1392POPC   C1B20431   3.762  14.273   8.564
 1392POPC   C2B20432   3.734  14.363   8.264
 1392POPC   C3B20433   3.789  14.345   7.964
 1392POPC   C4B20434   3.784  14.333   7.664
 1393POPC   NC320435  36.125   9.750   9.464
 1393POPC   PO420436  36.164   9.754   9.164
 1393POPC   GL120437  36.130   9.740   8.864
 1393POPC   GL220438  36.266   9.815   8.864
 1393POPC   C1A20439  36.093   9.715   8.564
 1393POPC   D2A20440  36.153   9.724   8.264
 1393POPC   C3A20441  36.177   9.699   7.964
 1393POPC   C4A20442  36.140   9.769   7.664
 1393POPC   C1B20443  36.349   9.921   8.564
 1393POPC   C2B20444  36.313   9.874   8.264
 1393POPC   C3B20445  36.298   9.866   7.964
 1393POPC   C4B20446  36.335   9.932   7.664
 1394POPC   NC320447  40.774  12.102   9.464
 1394POPC   PO420448  40.771  12.057   9.164
 1394POPC   GL120449  40.807  12.088   8.864
 1394POPC   GL220450  40.917  12.126   8.864
 1394POPC   C1A20451  40.786  12.105   8.564
 1394POPC   D2A20452  40.800  12.086   8.264
 1394POPC   C3A20453  40.812  12.047   7.964
 1394POPC   C4A20454  40.750  12.051   7.664
 1394POPC   C1B20455  40.982  12.299   8.564
 1394POPC   C2B20456  40.942  12.270   8.264
 1394POPC   C3B20457  40.935  12.242   7.964
 1394POPC   C4B20458  41.002  12.225   7.664
 1395POPC   NC320459  26.019  25.995   9.464
 1395POPC   PO420460  26.088  25.999   9.164
 1395POPC   GL120461  26.061  25.994   8.864
 1395POPC   GL220462  26.129  26.056   8.864
 1395POPC   C1A20463  26.016  26.066   8.564
 1395POPC   D2A20464  26.050  26.008   8.264
 1395POPC   C3A20465  25.996  26.045   7.964
 1395POPC   C4A20466  26.057  26.065   7.664
 1395POPC   C1B20467  26.251  26.074   8.564
 1395POPC   C2B20468  26.294  26.102   8.264
 1395POPC   C3B20469  26.286  26.087   7.964
 1395POPC   C4B20470  26.277  26.088   7.664
 1396POPC   NC320471   7.391  43.116   9.464
 1396POPC   PO420472   7.383  43.101   9.164
 1396POPC   GL120473   7.372  43.089   8.864
 1396POPC   GL220474   7.326  43.269   8.864
 1396POPC   C1A20475   7.442  43.101   8.564
 1396POPC   D2A20476   7.384  43.142   8.264
 1396POPC   C3A20477   7.420  43.100   7.964
 1396POPC   C4A20478   7.457  43.111   7.664
 1396POPC   C1B20479   7.315  43.379   8.564
 1396POPC   C2B20480   7.309  43.360   8.264
 1396POPC   C3B20481   7.319  43.319   7.964
 1396POPC   C4B20482   7.356  43.313   7.664
 1397POPC   NC320483  41.593  26.846   9.464
 1397POPC   PO420484  41.604  26.858   9.164
 1397POPC   GL120485  41.537  26.814   8.864
 1397POPC   GL220486  41.398  26.812   8.864
 1397POPC   C1A20487  41.538  26.846   8.564
 1397POPC   D2A20488  41.581  26.799   8.264
 1397POPC   C3A20489  41.562  26.818   7.964
 1397POPC   C4A20490  41.592  26.845   7.664
 1397POPC   C1B20491  41.294  26.891   8.564
 1397POPC   C2B20492  41.306  26.877   8.264
 1397POPC   C3B20493  41.332  26.877   7.964
 1397POPC   C4B20494  41.358  26.868   7.664
 1398POPC   NC320495  43.866  12.103   9.464
 1398POPC   PO420496  43.893  12.102   9.164
 1398POPC   GL120497  43.899  12.074   8.864
 1398POPC   GL220498  43.892  11.991   8.864
 1398POPC   C1A20499  43.848  12.031   8.564
 1398POPC   D2A20500  43.856  12.122   8.264
 1398POPC   C3A20501  43.924  12.121   7.964
 1398POPC   C4A20502  43.897  12.065   7.664
 1398POPC   C1B20503  43.879  11.787   8.564
 1398POPC   C2B20504  43.806  11.834   8.264
 1398POPC   C3B20505  43.858  11.814   7.964
 1398POPC   C4B20506  43.820  11.811   7.664
 1399POPC   NC320507  24.519  27.603   9.464
 1399POPC   PO420508  24.483  27.577   9.164
 1399POPC   GL120509  24.535  27.604   8.864
 1399POPC   GL220510  24.388  27.598   8.864
 1399POPC   C1A20511  24.443  27.555   8.564
 1399POPC   D2A20512  24.446  27.570   8.264
 1399POPC   C3A20513  24.473  27.583   7.964
 1399POPC   C4A20514  24.451  27.625   7.664
 1399POPC   C1B20515  24.201  27.620   8.564
 1399POPC   C2B20516  24.296  27.659   8.264
 1399POPC   C3B20517  24.245  27.676   7.964
 1399POPC   C4B20518  24.296  27.672   7.664
 1400POPC   NC320519  31.457  12.046   9.464
 1400POPC   PO420520  31.437  12.116   9.164
 1400POPC   GL120521  31.490  12.050   8.864
 1400POPC   GL220522  31.332  12.069   8.864
 1400POPC   C1A20523  31.519  12.092   8.564
 1400POPC   D2A20524  31.461  12.029   8.264
 1400POPC   C3A20525  31.498  12.061   7.964
 1400POPC   C4A20526  31.459  12.121   7.664
 1400POPC   C1B20527  31.213  11.992   8.564
 1400POPC   C2B20528  31.288  11.989   8.264
 1400POPC   C3B20529  31.218  11.987   7.964
 1400POPC   C4B20530  31.213  11.969   7.664
 1401POPC   NC320531  10.481   9.002   9.464
 1401POPC   PO420532  10.481   8.978   9.164
 1401POPC   GL120533  10.489   9.022   8.864
 1401POPC   GL220534  10.568   8.890   8.864
 1401POPC   C1A20535  10.486   8.924   8.564
 1401POPC   D2A20536  10.558   8.938   8.264
 1401POPC   C3A20537  10.481   8.969   7.964
 1401POPC   C4A20538  10.480   8.923   7.664
 1401POPC   C1B20539  10.543   8.708   8.564
 1401POPC   C2B20540  10.556   8.759   8.264
 1401POPC   C3B20541  10.539   8.679   7.964
 1401POPC   C4B20542  10.499   8.724   7.664
 1402POPC   NC320543  11.275  27.620   9.464
 1402POPC   PO420544  11.346  27.610   9.164
 1402POPC   GL120545  11.296  27.606   8.864
 1402POPC   GL220546  11.391  27.586   8.864
 1402POPC   C1A20547  11.314  27.569   8.564
 1402POPC   D2A20548  11.270  27.559   8.264
 1402POPC   C3A20549  11.272  27.594   7.964
 1402POPC   C4A20550  11.282  27.544   7.664
 1402POPC   C1B20551  11.487  27.494   8.564
 1402POPC   C2B20552  11.584  27.519   8.264
 1402POPC   C3B20553  11.558  27.491   7.964
 1402POPC   C4B20554  11.488  27.489   7.664
 1403POPC   NC320555  43.135   1.973   9.464
 1403POPC   PO420556  43.151   1.966   9.164
 1403POPC   GL120557  43.096   2.040   8.864
 1403POPC   GL220558  43.194   2.044   8.864
 1403POPC   C1A20559  43.139   1.968   8.564
 1403POPC   D2A20560  43.097   1.992   8.264
 1403POPC   C3A20561  43.075   2.018   7.964
 1403POPC   C4A20562  43.091   1.951   7.664
 1403POPC   C1B20563  43.273   2.115   8.564
 1403POPC   C2B20564  43.260   2.113   8.264
 1403POPC   C3B20565  43.270   2.201   7.964
 1403POPC   C4B20566  43.265   2.139   7.664
 1404POPC   NC320567  19.846  37.728   9.464
 1404POPC   PO420568  19.793  37.695   9.164
 1404POPC   GL120569  19.850  37.638   8.864
 1404POPC   GL220570  19.956  37.590   8.864
 1404POPC   C1A20571  19.806  37.699   8.564
 1404POPC   D2A20572  19.837  37.695   8.264
 1404POPC   C3A20573  19.785  37.646   7.964
 1404POPC   C4A20574  19.854  37.654   7.664
 1404POPC   C1B20575  20.025  37.490   8.564
 1404POPC   C2B20576  20.021  37.537   8.264
 1404POPC   C3B20577  20.056  37.498   7.964
 1404POPC   C4B20578  20.043  37.536   7.664
 1405POPC   NC320579  13.629  10.505   9.464
 1405POPC   PO420580  13.587  10.478   9.164
 1405POPC   GL120581  13.653  10.536   8.864
 1405POPC   GL220582  13.728  10.497   8.864
 1405POPC   C1A20583  13.655  10.527   8.564
 1405POPC   D2A20584  13.606  10.500   8.264
 1405POPC   C3A20585  13.582  10.509   7.964
 1405POPC   C4A20586  13.594  10.498   7.664
 1405POPC   C1B20587  13.903  10.414   8.564
 1405POPC   C2B20588  13.834  10.432   8.264
 1405POPC   C3B20589  13.831  10.476   7.964
 1405POPC   C4B20590  13.813  10.456   7.664
 1406POPC   NC320591   5.095  35.333   9.464
 1406POPC   PO420592   5.100  35.316   9.164
 1406POPC   GL120593   5.056  35.306   8.864
 1406POPC   GL220594   4.972  35.491   8.864
 1406POPC   C1A20595   5.078  35.398   8.564
 1406POPC   D2A20596   5.100  35.380   8.264
 1406POPC   C3A20597   5.076  35.332   7.964
 1406POPC   C4A20598   5.121  35.316   7.664
 1406POPC   C1B20599   4.911  35.533   8.564
 1406POPC   C2B20600   4.893  35.562   8.264
 1406POPC   C3B20601   4.905  35.545   7.964
 1406POPC   C4B20602   4.896  35.560   7.664
 1407POPC   NC320603  23.756  25.256   9.464
 1407POPC   PO420604  23.678  25.258   9.164
 1407POPC   GL120605  23.678  25.313   8.864
 1407POPC   GL220606  23.781  25.293   8.864
 1407POPC   C1A20607  23.693  25.255   8.564
 1407POPC   D2A20608  23.725  25.286   8.264
 1407POPC   C3A20609  23.691  25.276   7.964
 1407POPC   C4A20610  23.682  25.248   7.664
 1407POPC   C1B20611  23.980  25.374   8.564
 1407POPC   C2B20612  23.928  25.365   8.264
 1407POPC   C3B20613  23.946  25.359   7.964
 1407POPC   C4B20614  23.961  25.319   7.664
 1408POPC   NC320615  32.243  36.872   9.464
 1408POPC   PO420616  32.218  36.901   9.164
 1408POPC   GL120617  32.277  36.919   8.864
 1408POPC   GL220618  32.345  36.811   8.864
 1408POPC   C1A20619  32.202  36.929   8.564
 1408POPC   D2A20620  32.238  36.868   8.264
 1408POPC   C3A20621  32.218  36.893   7.964
 1408POPC   C4A20622  32.253  36.877   7.664
 1408POPC   C1B20623  32.448  36.727   8.564
 1408POPC   C2B20624  32.411  36.669   8.264
 1408POPC   C3B20625  32.451  36.673   7.964
 1408POPC   C4B20626  32.449  36.755   7.664
 1409POPC   NC320627  21.359  18.289   9.464
 1409POPC   PO420628  21.427  18.270   9.164
 1409POPC   GL120629  21.338  18.239   8.864
 1409POPC   GL220630  21.409  18.436   8.864
 1409POPC   C1A20631  21.340  18.239   8.564
 1409POPC   D2A20632  21.411  18.258   8.264
 1409POPC   C3A20633  21.384  18.264   7.964
 1409POPC   C4A20634  21.348  18.257   7.664
 1409POPC   C1B20635  21.456  18.546   8.564
 1409POPC   C2B20636  21.388  18.548   8.264
 1409POPC   C3B20637  21.398  18.569   7.964
 1409POPC   C4B20638  21.443  18.555   7.664
 1410POPC   NC320639   1.996  41.513   9.464
 1410POPC   PO420640   1.958  41.565   9.164
 1410POPC   GL120641   2.022  41.574   8.864
 1410POPC   GL220642   2.140  41.520   8.864
 1410POPC   C1A20643   1.947  41.557   8.564
 1410POPC   D2A20644   2.025  41.542   8.264
 1410POPC   C3A20645   2.029  41.548   7.964
 1410POPC   C4A20646   1.951  41.515   7.664
 1410POPC   C1B20647   2.204  41.413   8.564
 1410POPC   C2B20648   2.187  41.457   8.264
 1410POPC   C3B20649   2.232  41.401   7.964
 1410POPC   C4B20650   2.212  41.463   7.664
 1411POPC   NC320651  36.093  33.755   9.464
 1411POPC   PO420652  36.081  33.802   9.164
 1411POPC   GL120653  36.165  33.841   8.864
 1411POPC   GL220654  36.169  33.660   8.864
 1411POPC   C1A20655  36.152  33.803   8.564
 1411POPC   D2A20656  36.165  33.832   8.264
 1411POPC   C3A20657  36.171  33.810   7.964
 1411POPC   C4A20658  36.158  33.756   7.664
 1411POPC   C1B20659  36.185  33.548   8.564
 1411POPC   C2B20660  36.130  33.528   8.264
 1411POPC   C3B20661  36.119  33.521   7.964
 1411POPC   C4B20662  36.156  33.596   7.664
 1412POPC   NC320663  19.032  16.684   9.464
 1412POPC   PO420664  19.108  16.713   9.164
 1412POPC   GL120665  19.056  16.732   8.864
 1412POPC   GL220666  19.050  16.901   8.864
 1412POPC   C1A20667  19.080  16.770   8.564
 1412POPC   D2A20668  19.024  16.704   8.264
 1412POPC   C3A20669  19.088  16.700   7.964
 1412POPC   C4A20670  19.011  16.684   7.664
 1412POPC   C1B20671  19.108  16.947   8.564
 1412POPC   C2B20672  19.128  16.997   8.264
 1412POPC   C3B20673  19.068  16.978   7.964
 1412POPC   C4B20674  19.055  16.943   7.664
 1413POPC   NC320675   6.660  27.585   9.464
 1413POPC   PO420676   6.632  27.628   9.164
 1413POPC   GL120677   6.626  27.594   8.864
 1413POPC   GL220678   6.668  27.739   8.864
 1413POPC   C1A20679   6.608  27.558   8.564
 1413POPC   D2A20680   6.670  27.574   8.264
 1413POPC   C3A20681   6.604  27.545   7.964
 1413POPC   C4A20682   6.653  27.561   7.664
 1413POPC   C1B20683   6.698  27.811   8.564
 1413POPC   C2B20684   6.730  27.877   8.264
 1413POPC   C3B20685   6.714  27.853   7.964
 1413POPC   C4B20686   6.706  27.796   7.664
 1414POPC   NC320687  29.110  15.993   9.464
 1414POPC   PO420688  29.179  15.933   9.164
 1414POPC   GL120689  29.102  15.933   8.864
 1414POPC   GL220690  29.302  16.021   8.864
 1414POPC   C1A20691  29.176  15.965   8.564
 1414POPC   D2A20692  29.108  15.973   8.264
 1414POPC   C3A20693  29.163  15.941   7.964
 1414POPC   C4A20694  29.171  15.986   7.664
 1414POPC   C1B20695  29.357  16.014   8.564
 1414POPC   C2B20696  29.354  16.027   8.264
 1414POPC   C3B20697  29.401  15.988   7.964
 1414POPC   C4B20698  29.338  16.016   7.664
 1415POPC   NC320699  34.608   1.961   9.464
 1415POPC   PO420700  34.569   1.973   9.164
 1415POPC   GL120701  34.587   1.972   8.864
 1415POPC   GL220702  34.413   2.010   8.864
 1415POPC   C1A20703  34.586   1.994   8.564
 1415POPC   D2A20704  34.602   1.990   8.264
 1415POPC   C3A20705  34.625   2.003   7.964
 1415POPC   C4A20706  34.537   2.038   7.664
 1415POPC   C1B20707  34.312   2.055   8.564
 1415POPC   C2B20708  34.370   2.092   8.264
 1415POPC   C3B20709  34.342   2.073   7.964
 1415POPC   C4B20710  34.385   2.008   7.664
 1416POPC   NC320711  22.934  36.134   9.464
 1416POPC   PO420712  22.941  36.128   9.164
 1416POPC   GL120713  22.916  36.160   8.864
 1416POPC   GL220714  22.954  36.250   8.864
 1416POPC   C1A20715  22.902  36.136   8.564
 1416POPC   D2A20716  22.952  36.138   8.264
 1416POPC   C3A20717  22.948  36.172   7.964
 1416POPC   C4A20718  22.977  36.101   7.664
 1416POPC   C1B20719  23.076  36.385   8.564
 1416POPC   C2B20720  23.044  36.367   8.264
 1416POPC   C3B20721  23.019  36.376   7.964
 1416POPC   C4B20722  23.057  36.371   7.664
 1417POPC   NC320723  29.888  11.312   9.464
 1417POPC   PO420724  29.937  11.289   9.164
 1417POPC   GL120725  29.871  11.321   8.864
 1417POPC   GL220726  29.835  11.223   8.864
 1417POPC   C1A20727  29.946  11.274   8.564
 1417POPC   D2A20728  29.942  11.295   8.264
 1417POPC   C3A20729  29.889  11.280   7.964
 1417POPC   C4A20730  29.946  11.261   7.664
 1417POPC   C1B20731  29.683  11.167   8.564
 1417POPC   C2B20732  29.731  11.216   8.264
 1417POPC   C3B20733  29.692  11.260   7.964
 1417POPC   C4B20734  29.666  11.224   7.664
 1418POPC   NC320735  31.504  19.873   9.464
 1418POPC   PO420736  31.462  19.802   9.164
 1418POPC   GL120737  31.449  19.853   8.864
 1418POPC   GL220738  31.616  19.912   8.864
 1418POPC   C1A20739  31.477  19.881   8.564
 1418POPC   D2A20740  31.504  19.786   8.264
 1418POPC   C3A20741  31.459  19.802   7.964
 1418POPC   C4A20742  31.497  19.867   7.664
 1418POPC   C1B20743  31.654  19.990   8.564
 1418POPC   C2B20744  31.648  20.030   8.264
 1418POPC   C3B20745  31.713  20.013   7.964
 1418POPC   C4B20746  31.718  19.970   7.664
 1419POPC   NC320747  34.606  23.750   9.464
 1419POPC   PO420748  34.564  23.725   9.164
 1419POPC   GL120749  34.585  23.732   8.864
 1419POPC   GL220750  34.519  23.631   8.864
 1419POPC   C1A20751  34.612  23.736   8.564
 1419POPC   D2A20752  34.564  23.755   8.264
 1419POPC   C3A20753  34.595  23.669   7.964
 1419POPC   C4A20754  34.546  23.754   7.664
 1419POPC   C1B20755  34.513  23.509   8.564
 1419POPC   C2B20756  34.521  23.438   8.264
 1419POPC   C3B20757  34.537  23.454   7.964
 1419POPC   C4B20758  34.522  23.501   7.664
 1420POPC   NC320759  35.390  36.882   9.464
 1420POPC   PO420760  35.384  36.889   9.164
 1420POPC   GL120761  35.371  36.922   8.864
 1420POPC   GL220762  35.342  36.810   8.864
 1420POPC   C1A20763  35.335  36.937   8.564
 1420POPC   D2A20764  35.310  36.934   8.264
 1420POPC   C3A20765  35.365  36.890   7.964
 1420POPC   C4A20766  35.320  36.857   7.664
 1420POPC   C1B20767  35.370  36.652   8.564
 1420POPC   C2B20768  35.427  36.708   8.264
 1420POPC   C3B20769  35.365  36.630   7.964
 1420POPC   C4B20770  35.436  36.652   7.664
 1421POPC   NC320771   8.238   3.511   9.464
 1421POPC   PO420772   8.223   3.586   9.164
 1421POPC   GL120773   8.179   3.569   8.864
 1421POPC   GL220774   8.237   3.475   8.864
 1421POPC   C1A20775   8.157   3.542   8.564
 1421POPC   D2A20776   8.200   3.587   8.264
 1421POPC   C3A20777   8.199   3.551   7.964
 1421POPC   C4A20778   8.165   3.549   7.664
 1421POPC   C1B20779   8.274   3.269   8.564
 1421POPC   C2B20780   8.309   3.362   8.264
 1421POPC   C3B20781   8.321   3.364   7.964
 1421POPC   C4B20782   8.319   3.294   7.664
 1422POPC   NC320783  14.375  41.566   9.464
 1422POPC   PO420784  14.437  41.527   9.164
 1422POPC   GL120785  14.416  41.596   8.864
 1422POPC   GL220786  14.433  41.386   8.864
 1422POPC   C1A20787  14.430  41.608   8.564
 1422POPC   D2A20788  14.377  41.593   8.264
 1422POPC   C3A20789  14.432  41.551   7.964
 1422POPC   C4A20790  14.419  41.565   7.664
 1422POPC   C1B20791  14.427  41.351   8.564
 1422POPC   C2B20792  14.420  41.321   8.264
 1422POPC   C3B20793  14.420  41.327   7.964
 1422POPC   C4B20794  14.391  41.306   7.664
 1423POPC   NC320795  33.822  42.290   9.464
 1423POPC   PO420796  33.847  42.371   9.164
 1423POPC   GL120797  33.769  42.384   8.864
 1423POPC   GL220798  33.655  42.282   8.864
 1423POPC   C1A20799  33.790  42.384   8.564
 1423POPC   D2A20800  33.810  42.312   8.264
 1423POPC   C3A20801  33.833  42.346   7.964
 1423POPC   C4A20802  33.789  42.362   7.664
 1423POPC   C1B20803  33.568  42.160   8.564
 1423POPC   C2B20804  33.601  42.216   8.264
 1423POPC   C3B20805  33.562  42.179   7.964
 1423POPC   C4B20806  33.602  42.212   7.664
 1424POPC   NC320807  23.671  19.820   9.464
 1424POPC   PO420808  23.686  19.873   9.164
 1424POPC   GL120809  23.710  19.813   8.864
 1424POPC   GL220810  23.604  19.969   8.864
 1424POPC   C1A20811  23.759  19.865   8.564
 1424POPC   D2A20812  23.675  19.838   8.264
 1424POPC   C3A20813  23.728  19.791   7.964
 1424POPC   C4A20814  23.679  19.846   7.664
 1424POPC   C1B20815  23.493  20.056   8.564
 1424POPC   C2B20816  23.581  19.963   8.264
 1424POPC   C3B20817  23.561  19.978   7.964
 1424POPC   C4B20818  23.531  19.983   7.664
 1425POPC   NC320819  30.727   6.695   9.464
 1425POPC   PO420820  30.673   6.672   9.164
 1425POPC   GL120821  30.730   6.618   8.864
 1425POPC   GL220822  30.737   6.772   8.864
 1425POPC   C1A20823  30.665   6.663   8.564
 1425POPC   D2A20824  30.687   6.634   8.264
 1425POPC   C3A20825  30.682   6.688   7.964
 1425POPC   C4A20826  30.656   6.599   7.664
 1425POPC   C1B20827  30.767   6.878   8.564
 1425POPC   C2B20828  30.816   6.872   8.264
 1425POPC   C3B20829  30.850   6.877   7.964
 1425POPC   C4B20830  30.839   6.879   7.664
 1426POPC   NC320831  15.189  10.574   9.464
 1426POPC   PO420832  15.224  10.563   9.164
 1426POPC   GL120833  15.137  10.545   8.864
 1426POPC   GL220834  15.102  10.629   8.864
 1426POPC   C1A20835  15.199  10.548   8.564
 1426POPC   D2A20836  15.182  10.529   8.264
 1426POPC   C3A20837  15.220  10.522   7.964
 1426POPC   C4A20838  15.148  10.509   7.664
 1426POPC   C1B20839  15.113  10.790   8.564
 1426POPC   C2B20840  15.046  10.721   8.264
 1426POPC   C3B20841  15.111  10.765   7.964
 1426POPC   C4B20842  15.023  10.789   7.664
 1427POPC   NC320843  34.609   8.992   9.464
 1427POPC   PO420844  34.565   9.003   9.164
 1427POPC   GL120845  34.622   8.968   8.864
 1427POPC   GL220846  34.681   8.892   8.864
 1427POPC   C1A20847  34.603   8.984   8.564
 1427POPC   D2A20848  34.598   8.928   8.264
 1427POPC   C3A20849  34.546   9.008   7.964
 1427POPC   C4A20850  34.575   8.990   7.664
 1427POPC   C1B20851  34.753   8.862   8.564
 1427POPC   C2B20852  34.786   8.885   8.264
 1427POPC   C3B20853  34.753   8.833   7.964
 1427POPC   C4B20854  34.848   8.878   7.664
 1428POPC   NC320855  21.388  20.635   9.464
 1428POPC   PO420856  21.410  20.591   9.164
 1428POPC   GL120857  21.387  20.581   8.864
 1428POPC   GL220858  21.361  20.458   8.864
 1428POPC   C1A20859  21.396  20.609   8.564
 1428POPC   D2A20860  21.434  20.569   8.264
 1428POPC   C3A20861  21.406  20.654   7.964
 1428POPC   C4A20862  21.358  20.581   7.664
 1428POPC   C1B20863  21.411  20.350   8.564
 1428POPC   C2B20864  21.418  20.394   8.264
 1428POPC   C3B20865  21.365  20.397   7.964
 1428POPC   C4B20866  21.375  20.344   7.664
 1429POPC   NC320867  43.877  12.853   9.464
 1429POPC   PO420868  43.915  12.827   9.164
 1429POPC   GL120869  43.844  12.866   8.864
 1429POPC   GL220870  43.799  12.875   8.864
 1429POPC   C1A20871  43.911  12.814   8.564
 1429POPC   D2A20872  43.856  12.847   8.264
 1429POPC   C3A20873  43.888  12.803   7.964
 1429POPC   C4A20874  43.917  12.812   7.664
 1429POPC   C1B20875  43.677  12.840   8.564
 1429POPC   C2B20876  43.685  12.873   8.264
 1429POPC   C3B20877  43.658  12.814   7.964
 1429POPC   C4B20878  43.650  12.874   7.664
 1430POPC   NC320879   6.659  19.075   9.464
 1430POPC   PO420880   6.611  19.065   9.164
 1430POPC   GL120881   6.663  19.084   8.864
 1430POPC   GL220882   6.578  18.984   8.864
 1430POPC   C1A20883   6.632  19.032   8.564
 1430POPC   D2A20884   6.610  19.078   8.264
 1430POPC   C3A20885   6.660  19.092   7.964
 1430POPC   C4A20886   6.628  19.070   7.664
 1430POPC   C1B20887   6.558  18.810   8.564
 1430POPC   C2B20888   6.531  18.846   8.264
 1430POPC   C3B20889   6.583  18.860   7.964
 1430POPC   C4B20890   6.589  18.843   7.664
 1431POPC   NC320891  34.614  22.170   9.464
 1431POPC   PO420892  34.603  22.207   9.164
 1431POPC   GL120893  34.568  22.118   8.864
 1431POPC   GL220894  34.665  22.075   8.864
 1431POPC   C1A20895  34.600  22.152   8.564
 1431POPC   D2A20896  34.531  22.119   8.264
 1431POPC   C3A20897  34.537  22.180   7.964
 1431POPC   C4A20898  34.618  22.153   7.664
 1431POPC   C1B20899  34.821  22.116   8.564
 1431POPC   C2B20900  34.806  22.129   8.264
 1431POPC   C3B20901  34.809  22.119   7.964
 1431POPC   C4B20902  34.768  22.086   7.664
 1432POPC   NC320903  39.195  15.131   9.464
 1432POPC   PO420904  39.227  15.185   9.164
 1432POPC   GL120905  39.279  15.146   8.864
 1432POPC   GL220906  39.306  15.237   8.864
 1432POPC   C1A20907  39.255  15.188   8.564
 1432POPC   D2A20908  39.186  15.176   8.264
 1432POPC   C3A20909  39.262  15.160   7.964
 1432POPC   C4A20910  39.227  15.156   7.664
 1432POPC   C1B20911  39.426  15.329   8.564
 1432POPC   C2B20912  39.474  15.361   8.264
 1432POPC   C3B20913  39.403  15.299   7.964
 1432POPC   C4B20914  39.399  15.332   7.664
 1433POPC   NC320915  17.511  29.128   9.464
 1433POPC   PO420916  17.480  29.182   9.164
 1433POPC   GL120917  17.512  29.123   8.864
 1433POPC   GL220918  17.467  29.011   8.864
 1433POPC   C1A20919  17.463  29.152   8.564
 1433POPC   D2A20920  17.475  29.110   8.264
 1433POPC   C3A20921  17.503  29.147   7.964
 1433POPC   C4A20922  17.474  29.141   7.664
 1433POPC   C1B20923  17.464  28.946   8.564
 1433POPC   C2B20924  17.388  28.949   8.264
 1433POPC   C3B20925  17.395  28.914   7.964
 1433POPC   C4B20926  17.407  28.897   7.664
 1434POPC   NC320927  41.562  21.414   9.464
 1434POPC   PO420928  41.531  21.432   9.164
 1434POPC   GL120929  41.567  21.375   8.864
 1434POPC   GL220930  41.676  21.467   8.864
 1434POPC   C1A20931  41.563  21.379   8.564
 1434POPC   D2A20932  41.539  21.431   8.264
 1434POPC   C3A20933  41.562  21.349   7.964
 1434POPC   C4A20934  41.550  21.415   7.664
 1434POPC   C1B20935  41.733  21.560   8.564
 1434POPC   C2B20936  41.730  21.562   8.264
 1434POPC   C3B20937  41.754  21.565   7.964
 1434POPC   C4B20938  41.722  21.496   7.664
 1435POPC   NC320939  34.604  33.844   9.464
 1435POPC   PO420940  34.607  33.792   9.164
 1435POPC   GL120941  34.542  33.823   8.864
 1435POPC   GL220942  34.491  33.814   8.864
 1435POPC   C1A20943  34.594  33.765   8.564
 1435POPC   D2A20944  34.561  33.808   8.264
 1435POPC   C3A20945  34.581  33.799   7.964
 1435POPC   C4A20946  34.578  33.836   7.664
 1435POPC   C1B20947  34.346  33.751   8.564
 1435POPC   C2B20948  34.331  33.710   8.264
 1435POPC   C3B20949  34.315  33.701   7.964
 1435POPC   C4B20950  34.336  33.769   7.664
 1436POPC   NC320951  36.949  12.841   9.464
 1436POPC   PO420952  36.878  12.891   9.164
 1436POPC   GL120953  36.952  12.865   8.864
 1436POPC   GL220954  36.809  12.692   8.864
 1436POPC   C1A20955  36.933  12.865   8.564
 1436POPC   D2A20956  36.879  12.845   8.264
 1436POPC   C3A20957  36.869  12.887   7.964
 1436POPC   C4A20958  36.934  12.893   7.664
 1436POPC   C1B20959  36.816  12.669   8.564
 1436POPC   C2B20960  36.774  12.599   8.264
 1436POPC   C3B20961  36.820  12.641   7.964
 1436POPC   C4B20962  36.774  12.619   7.664
 1437POPC   NC320963  25.274  12.102   9.464
 1437POPC   PO420964  25.270  12.088   9.164
 1437POPC   GL120965  25.221  12.043   8.864
 1437POPC   GL220966  25.319  11.979   8.864
 1437POPC   C1A20967  25.232  12.047   8.564
 1437POPC   D2A20968  25.295  12.098   8.264
 1437POPC   C3A20969  25.310  12.077   7.964
 1437POPC   C4A20970  25.221  12.109   7.664
 1437POPC   C1B20971  25.372  11.916   8.564
 1437POPC   C2B20972  25.371  11.903   8.264
 1437POPC   C3B20973  25.422  11.913   7.964
 1437POPC   C4B20974  25.368  11.909   7.664
 1438POPC   NC320975  31.491  34.595   9.464
 1438POPC   PO420976  31.484  34.613   9.164
 1438POPC   GL120977  31.487  34.568   8.864
 1438POPC   GL220978  31.485  34.487   8.864
 1438POPC   C1A20979  31.522  34.546   8.564
 1438POPC   D2A20980  31.445  34.611   8.264
 1438POPC   C3A20981  31.490  34.590   7.964
 1438POPC   C4A20982  31.461  34.548   7.664
 1438POPC   C1B20983  31.619  34.299   8.564
 1438POPC   C2B20984  31.582  34.388   8.264
 1438POPC   C3B20985  31.546  34.357   7.964
 1438POPC   C4B20986  31.581  34.337   7.664
 1439POPC   NC320987  29.183  26.770   9.464
 1439POPC   PO420988  29.103  26.826   9.164
 1439POPC   GL120989  29.132  26.861   8.864
 1439POPC   GL220990  29.015  26.835   8.864
 1439POPC   C1A20991  29.128  26.806   8.564
 1439POPC   D2A20992  29.194  26.829   8.264
 1439POPC   C3A20993  29.107  26.823   7.964
 1439POPC   C4A20994  29.144  26.848   7.664
 1439POPC   C1B20995  28.876  26.816   8.564
 1439POPC   C2B20996  28.892  26.766   8.264
 1439POPC   C3B20997  28.948  26.814   7.964
 1439POPC   C4B20998  28.922  26.732   7.664
 1440POPC   NC320999  22.113  15.144   9.464
 1440POPC   PO421000  22.129  15.181   9.164
 1440POPC   GL121001  22.165  15.195   8.864
 1440POPC   GL221002  22.004  15.200   8.864
 1440POPC   C1A21003  22.171  15.136   8.564
 1440POPC   D2A21004  22.184  15.151   8.264
 1440POPC   C3A21005  22.161  15.205   7.964
 1440POPC   C4A21006  22.186  15.185   7.664
 1440POPC   C1B21007  21.926  15.155   8.564
 1440POPC   C2B21008  21.949  15.202   8.264
 1440POPC   C3B21009  21.909  15.190   7.964
 1440POPC   C4B21010  21.917  15.183   7.664
 1441POPC   NC321011  43.136   8.172   9.464
 1441POPC   PO421012  43.096   8.225   9.164
 1441POPC   GL121013  43.148   8.163   8.864
 1441POPC   GL221014  43.032   8.165   8.864
 1441POPC   C1A21015  43.123   8.161   8.564
 1441POPC   D2A21016  43.124   8.196   8.264
 1441POPC   C3A21017  43.133   8.202   7.964
 1441POPC   C4A21018  43.152   8.157   7.664
 1441POPC   C1B21019  42.866   8.042   8.564
 1441POPC   C2B21020  42.858   8.076   8.264
 1441POPC   C3B21021  42.938   8.028   7.964
 1441POPC   C4B21022  42.848   8.055   7.664
 1442POPC   NC321023   3.508  25.278   9.464
 1442POPC   PO421024   3.512  25.277   9.164
 1442POPC   GL121025   3.508  25.291   8.864
 1442POPC   GL221026   3.573  25.147   8.864
 1442POPC   C1A21027   3.495  25.275   8.564
 1442POPC   D2A21028   3.540  25.247   8.264
 1442POPC   C3A21029   3.557  25.262   7.964
 1442POPC   C4A21030   3.584  25.301   7.664
 1442POPC   C1B21031   3.652  25.112   8.564
 1442POPC   C2B21032   3.676  25.045   8.264
 1442POPC   C3B21033   3.671  25.091   7.964
 1442POPC   C4B21034   3.660  25.070   7.664
 1443POPC   NC321035   6.691   3.501   9.464
 1443POPC   PO421036   6.614   3.495   9.164
 1443POPC   GL121037   6.645   3.582   8.864
 1443POPC   GL221038   6.781   3.630   8.864
 1443POPC   C1A21039   6.622   3.579   8.564
 1443POPC   D2A21040   6.648   3.536   8.264
 1443POPC   C3A21041   6.684   3.493   7.964
 1443POPC   C4A21042   6.640   3.565   7.664
 1443POPC   C1B21043   6.844   3.657   8.564
 1443POPC   C2B21044   6.860   3.592   8.264
 1443POPC   C3B21045   6.884   3.621   7.964
 1443POPC   C4B21046   6.917   3.645   7.664
 1444POPC   NC321047  29.957  39.192   9.464
 1444POPC   PO421048  29.930  39.226   9.164
 1444POPC   GL121049  29.888  39.281   8.864
 1444POPC   GL221050  29.972  39.320   8.864
 1444POPC   C1A21051  29.880  39.200   8.564
 1444POPC   D2A21052  29.916  39.272   8.264
 1444POPC   C3A21053  29.876  39.276   7.964
 1444POPC   C4A21054  29.904  39.188   7.664
 1444POPC   C1B21055  29.934  39.480   8.564
 1444POPC   C2B21056  29.931  39.472   8.264
 1444POPC   C3B21057  29.921  39.431   7.964
 1444POPC   C4B21058  29.936  39.482   7.664
 1445POPC   NC321059  12.867  37.633   9.464
 1445POPC   PO421060  12.892  37.673   9.164
 1445POPC   GL121061  12.895  37.641   8.864
 1445POPC   GL221062  12.826  37.577   8.864
 1445POPC   C1A21063  12.838  37.645   8.564
 1445POPC   D2A21064  12.844  37.693   8.264
 1445POPC   C3A21065  12.869  37.672   7.964
 1445POPC   C4A21066  12.837  37.693   7.664
 1445POPC   C1B21067  12.719  37.483   8.564
 1445POPC   C2B21068  12.717  37.424   8.264
 1445POPC   C3B21069  12.690  37.471   7.964
 1445POPC   C4B21070  12.722  37.415   7.664
 1446POPC   NC321071   3.525  30.712   9.464
 1446POPC   PO421072   3.562  30.702   9.164
 1446POPC   GL121073   3.528  30.713   8.864
 1446POPC   GL221074   3.627  30.734   8.864
 1446POPC   C1A21075   3.556  30.685   8.564
 1446POPC   D2A21076   3.539  30.697   8.264
 1446POPC   C3A21077   3.502  30.703   7.964
 1446POPC   C4A21078   3.584  30.721   7.664
 1446POPC   C1B21079   3.835  30.734   8.564
 1446POPC   C2B21080   3.823  30.754   8.264
 1446POPC   C3B21081   3.770  30.750   7.964
 1446POPC   C4B21082   3.758  30.690   7.664
 1447POPC   NC321083   7.446  11.260   9.464
 1447POPC   PO421084   7.410  11.292   9.164
 1447POPC   GL121085   7.430  11.329   8.864
 1447POPC   GL221086   7.254  11.318   8.864
 1447POPC   C1A21087   7.403  11.334   8.564
 1447POPC   D2A21088   7.405  11.271   8.264
 1447POPC   C3A21089   7.387  11.267   7.964
 1447POPC   C4A21090   7.417  11.268   7.664
 1447POPC   C1B21091   7.203  11.254   8.564
 1447POPC   C2B21092   7.186  11.236   8.264
 1447POPC   C3B21093   7.214  11.306   7.964
 1447POPC   C4B21094   7.166  11.293   7.664
 1448POPC   NC321095  22.168  19.817   9.464
 1448POPC   PO421096  22.210  19.792   9.164
 1448POPC   GL121097  22.168  19.845   8.864
 1448POPC   GL221098  22.273  19.823   8.864
 1448POPC   C1A21099  22.152  19.826   8.564
 1448POPC   D2A21100  22.200  19.807   8.264
 1448POPC   C3A21101  22.145  19.837   7.964
 1448POPC   C4A21102  22.146  19.842   7.664
 1448POPC   C1B21103  22.405  19.844   8.564
 1448POPC   C2B21104  22.384  19.801   8.264
 1448POPC   C3B21105  22.407  19.779   7.964
 1448POPC   C4B21106  22.364  19.786   7.664
 1449POPC   NC321107   1.238  19.083   9.464
 1449POPC   PO421108   1.219  19.095   9.164
 1449POPC   GL121109   1.183  19.104   8.864
 1449POPC   GL221110   1.292  19.105   8.864
 1449POPC   C1A21111   1.197  19.107   8.564
 1449POPC   D2A21112   1.238  19.020   8.264
 1449POPC   C3A21113   1.169  19.027   7.964
 1449POPC   C4A21114   1.249  19.045   7.664
 1449POPC   C1B21115   1.468  19.157   8.564
 1449POPC   C2B21116   1.457  19.121   8.264
 1449POPC   C3B21117   1.421  19.097   7.964
 1449POPC   C4B21118   1.504  19.132   7.664
 1450POPC   NC321119   6.661  11.283   9.464
 1450POPC   PO421120   6.653  11.288   9.164
 1450POPC   GL121121   6.630  11.279   8.864
 1450POPC   GL221122   6.679  11.217   8.864
 1450POPC   C1A21123   6.613  11.317   8.564
 1450POPC   D2A21124   6.640  11.253   8.264
 1450POPC   C3A21125   6.600  11.255   7.964
 1450POPC   C4A21126   6.641  11.292   7.664
 1450POPC   C1B21127   6.579  11.100   8.564
 1450POPC   C2B21128   6.617  11.056   8.264
 1450POPC   C3B21129   6.654  11.087   7.964
 1450POPC   C4B21130   6.585  11.058   7.664
 1451POPC   NC321131  38.502  24.461   9.464
 1451POPC   PO421132  38.441  24.522   9.164
 1451POPC   GL121133  38.455  24.501   8.864
 1451POPC   GL221134  38.407  24.380   8.864
 1451POPC   C1A21135  38.416  24.478   8.564
 1451POPC   D2A21136  38.465  24.505   8.264
 1451POPC   C3A21137  38.473  24.515   7.964
 1451POPC   C4A21138  38.501  24.481   7.664
 1451POPC   C1B21139  38.359  24.208   8.564
 1451POPC   C2B21140  38.414  24.208   8.264
 1451POPC   C3B21141  38.388  24.293   7.964
 1451POPC   C4B21142  38.367  24.290   7.664
 1452POPC   NC321143  20.586  36.936   9.464
 1452POPC   PO421144  20.657  36.911   9.164
 1452POPC   GL121145  20.588  36.938   8.864
 1452POPC   GL221146  20.672  36.954   8.864
 1452POPC   C1A21147  20.658  36.933   8.564
 1452POPC   D2A21148  20.643  36.917   8.264
 1452POPC   C3A21149  20.618  36.930   7.964
 1452POPC   C4A21150  20.612  36.936   7.664
 1452POPC   C1B21151  20.798  37.048   8.564
 1452POPC   C2B21152  20.832  37.035   8.264
 1452POPC   C3B21153  20.800  37.029   7.964
 1452POPC   C4B21154  20.824  37.039   7.664
 1453POPC   NC321155  39.216   0.418   9.464
 1453POPC   PO421156  39.234   0.400   9.164
 1453POPC   GL121157  39.184   0.471   8.864
 1453POPC   GL221158  39.085   0.520   8.864
 1453POPC   C1A21159  39.272   0.474   8.564
 1453POPC   D2A21160  39.258   0.400   8.264
 1453POPC   C3A21161  39.189   0.469   7.964
 1453POPC   C4A21162  39.192   0.473   7.664
 1453POPC   C1B21163  39.047   0.552   8.564
 1453POPC   C2B21164  38.984   0.578   8.264
 1453POPC   C3B21165  39.034   0.517   7.964
 1453POPC   C4B21166  38.977   0.570   7.664
 1454POPC   NC321167  16.683   3.499   9.464
 1454POPC   PO421168  16.683   3.539   9.164
 1454POPC   GL121169  16.758   3.584   8.864
 1454POPC   GL221170  16.711   3.409   8.864
 1454POPC   C1A21171  16.699   3.517   8.564
 1454POPC   D2A21172  16.688   3.560   8.264
 1454POPC   C3A21173  16.689   3.567   7.964
 1454POPC   C4A21174  16.708   3.567   7.664
 1454POPC   C1B21175  16.705   3.263   8.564
 1454POPC   C2B21176  16.649   3.285   8.264
 1454POPC   C3B21177  16.626   3.307   7.964
 1454POPC   C4B21178  16.660   3.288   7.664
 1455POPC   NC321179  40.780  28.343   9.464
 1455POPC   PO421180  40.819  28.380   9.164
 1455POPC   GL121181  40.740  28.358   8.864
 1455POPC   GL221182  40.732  28.253   8.864
 1455POPC   C1A21183  40.789  28.399   8.564
 1455POPC   D2A21184  40.789  28.389   8.264
 1455POPC   C3A21185  40.779  28.340   7.964
 1455POPC   C4A21186  40.748  28.390   7.664
 1455POPC   C1B21187  40.817  28.073   8.564
 1455POPC   C2B21188  40.727  28.136   8.264
 1455POPC   C3B21189  40.783  28.166   7.964
 1455POPC   C4B21190  40.805  28.148   7.664
 1456POPC   NC321191  33.768   2.777   9.464
 1456POPC   PO421192  33.802   2.792   9.164
 1456POPC   GL121193  33.828   2.797   8.864
 1456POPC   GL221194  33.841   2.642   8.864
 1456POPC   C1A21195  33.818   2.750   8.564
 1456POPC   D2A21196  33.810   2.729   8.264
 1456POPC   C3A21197  33.806   2.776   7.964
 1456POPC   C4A21198  33.813   2.774   7.664
 1456POPC   C1B21199  33.759   2.467   8.564
 1456POPC   C2B21200  33.812   2.531   8.264
 1456POPC   C3B21201  33.814   2.474   7.964
 1456POPC   C4B21202  33.757   2.520   7.664
 1457POPC   NC321203  33.809  14.423   9.464
 1457POPC   PO421204  33.816  14.441   9.164
 1457POPC   GL121205  33.784  14.369   8.864
 1457POPC   GL221206  33.708  14.396   8.864
 1457POPC   C1A21207  33.833  14.359   8.564
 1457POPC   D2A21208  33.771  14.433   8.264
 1457POPC   C3A21209  33.817  14.417   7.964
 1457POPC   C4A21210  33.809  14.383   7.664
 1457POPC   C1B21211  33.504  14.361   8.564
 1457POPC   C2B21212  33.561  14.407   8.264
 1457POPC   C3B21213  33.512  14.454   7.964
 1457POPC   C4B21214  33.595  14.401   7.664
 1458POPC   NC321215  10.559  43.898   9.464
 1458POPC   PO421216  10.507  43.928   9.164
 1458POPC   GL121217  10.503  43.855   8.864
 1458POPC   GL221218  10.579  43.748   8.864
 1458POPC   C1A21219  10.510  43.927   8.564
 1458POPC   D2A21220  10.474  43.851   8.264
 1458POPC   C3A21221  10.553  43.908   7.964
 1458POPC   C4A21222  10.573  43.880   7.664
 1458POPC   C1B21223  10.682  43.676   8.564
 1458POPC   C2B21224  10.680  43.669   8.264
 1458POPC   C3B21225  10.638  43.678   7.964
 1458POPC   C4B21226  10.640  43.694   7.664
 1459POPC   NC321227   9.754   8.978   9.464
 1459POPC   PO421228   9.776   8.951   9.164
 1459POPC   GL121229   9.704   8.973   8.864
 1459POPC   GL221230   9.687   8.899   8.864
 1459POPC   C1A21231   9.790   8.950   8.564
 1459POPC   D2A21232   9.725   8.977   8.264
 1459POPC   C3A21233   9.724   8.979   7.964
 1459POPC   C4A21234   9.716   8.971   7.664
 1459POPC   C1B21235   9.518   8.817   8.564
 1459POPC   C2B21236   9.590   8.755   8.264
 1459POPC   C3B21237   9.566   8.783   7.964
 1459POPC   C4B21238   9.550   8.772   7.664
 1460POPC   NC321239  30.683  36.142   9.464
 1460POPC   PO421240  30.673  36.148   9.164
 1460POPC   GL121241  30.668  36.173   8.864
 1460POPC   GL221242  30.719  35.988   8.864
 1460POPC   C1A21243  30.687  36.110   8.564
 1460POPC   D2A21244  30.661  36.134   8.264
 1460POPC   C3A21245  30.675  36.085   7.964
 1460POPC   C4A21246  30.718  36.174   7.664
 1460POPC   C1B21247  30.647  35.855   8.564
 1460POPC   C2B21248  30.654  35.905   8.264
 1460POPC   C3B21249  30.718  35.895   7.964
 1460POPC   C4B21250  30.710  35.922   7.664
 1461POPC   NC321251  12.898  33.772   9.464
 1461POPC   PO421252  12.838  33.801   9.164
 1461POPC   GL121253  12.856  33.797   8.864
 1461POPC   GL221254  12.687  33.784   8.864
 1461POPC   C1A21255  12.852  33.821   8.564
 1461POPC   D2A21256  12.831  33.789   8.264
 1461POPC   C3A21257  12.852  33.775   7.964
 1461POPC   C4A21258  12.859  33.782   7.664
 1461POPC   C1B21259  12.560  33.834   8.564
 1461POPC   C2B21260  12.601  33.881   8.264
 1461POPC   C3B21261  12.586  33.813   7.964
 1461POPC   C4B21262  12.575  33.855   7.664
 1462POPC   NC321263  22.155  12.894   9.464
 1462POPC   PO421264  22.206  12.853   9.164
 1462POPC   GL121265  22.173  12.805   8.864
 1462POPC   GL221266  22.315  12.853   8.864
 1462POPC   C1A21267  22.202  12.850   8.564
 1462POPC   D2A21268  22.140  12.850   8.264
 1462POPC   C3A21269  22.136  12.836   7.964
 1462POPC   C4A21270  22.144  12.816   7.664
 1462POPC   C1B21271  22.366  12.925   8.564
 1462POPC   C2B21272  22.373  12.924   8.264
 1462POPC   C3B21273  22.391  12.902   7.964
 1462POPC   C4B21274  22.380  12.904   7.664
 1463POPC   NC321275  15.985  25.245   9.464
 1463POPC   PO421276  15.961  25.240   9.164
 1463POPC   GL121277  15.931  25.294   8.864
 1463POPC   GL221278  15.855  25.411   8.864
 1463POPC   C1A21279  15.925  25.293   8.564
 1463POPC   D2A21280  15.912  25.252   8.264
 1463POPC   C3A21281  16.004  25.224   7.964
 1463POPC   C4A21282  15.978  25.288   7.664
 1463POPC   C1B21283  15.826  25.472   8.564
 1463POPC   C2B21284  15.801  25.487   8.264
 1463POPC   C3B21285  15.875  25.453   7.964
 1463POPC   C4B21286  15.848  25.476   7.664
 1464POPC   NC321287  19.857  26.000   9.464
 1464POPC   PO421288  19.829  26.017   9.164
 1464POPC   GL121289  19.792  26.005   8.864
 1464POPC   GL221290  19.895  25.917   8.864
 1464POPC   C1A21291  19.790  26.090   8.564
 1464POPC   D2A21292  19.847  26.085   8.264
 1464POPC   C3A21293  19.825  26.045   7.964
 1464POPC   C4A21294  19.829  26.014   7.664
 1464POPC   C1B21295  19.961  25.861   8.564
 1464POPC   C2B21296  20.008  25.868   8.264
 1464POPC   C3B21297  19.989  25.905   7.964
 1464POPC   C4B21298  20.042  25.829   7.664
 1465POPC   NC321299  35.307   5.879   9.464
 1465POPC   PO421300  35.381   5.845   9.164
 1465POPC   GL121301  35.308   5.858   8.864
 1465POPC   GL221302  35.248   5.902   8.864
 1465POPC   C1A21303  35.396   5.878   8.564
 1465POPC   D2A21304  35.306   5.832   8.264
 1465POPC   C3A21305  35.379   5.832   7.964
 1465POPC   C4A21306  35.371   5.835   7.664
 1465POPC   C1B21307  35.114   5.993   8.564
 1465POPC   C2B21308  35.171   6.016   8.264
 1465POPC   C3B21309  35.158   6.053   7.964
 1465POPC   C4B21310  35.172   5.979   7.664
 1466POPC   NC321311  28.363   3.586   9.464
 1466POPC   PO421312  28.416   3.516   9.164
 1466POPC   GL121313  28.393   3.580   8.864
 1466POPC   GL221314  28.376   3.696   8.864
 1466POPC   C1A21315  28.398   3.583   8.564
 1466POPC   D2A21316  28.335   3.586   8.264
 1466POPC   C3A21317  28.359   3.519   7.964
 1466POPC   C4A21318  28.400   3.512   7.664
 1466POPC   C1B21319  28.409   3.777   8.564
 1466POPC   C2B21320  28.368   3.797   8.264
 1466POPC   C3B21321  28.417   3.822   7.964
 1466POPC   C4B21322  28.391   3.838   7.664
 1467POPC   NC321323   0.405   5.057   9.464
 1467POPC   PO421324   0.404   5.123   9.164
 1467POPC   GL121325   0.471   5.075   8.864
 1467POPC   GL221326   0.553   5.179   8.864
 1467POPC   C1A21327   0.396   5.058   8.564
 1467POPC   D2A21328   0.485   5.077   8.264
 1467POPC   C3A21329   0.457   5.072   7.964
 1467POPC   C4A21330   0.448   5.079   7.664
 1467POPC   C1B21331   0.584   5.289   8.564
 1467POPC   C2B21332   0.594   5.268   8.264
 1467POPC   C3B21333   0.645   5.294   7.964
 1467POPC   C4B21334   0.639   5.328   7.664
 1468POPC   NC321335   3.550  44.690   9.464
 1468POPC   PO421336   3.556  44.688   9.164
 1468POPC   GL121337   3.548  44.656   8.864
 1468POPC   GL221338   3.529  44.814   8.864
 1468POPC   C1A21339   3.494  44.669   8.564
 1468POPC   D2A21340   3.551  44.682   8.264
 1468POPC   C3A21341   3.584  44.673   7.964
 1468POPC   C4A21342   3.498  44.688   7.664
 1468POPC   C1B21343   3.653  44.924   8.564
 1468POPC   C2B21344   3.648  44.893   8.264
 1468POPC   C3B21345   3.571  44.889   7.964
 1468POPC   C4B21346   3.565  44.868   7.664
 1469POPC   NC321347   1.940  18.258   9.464
 1469POPC   PO421348   2.000  18.234   9.164
 1469POPC   GL121349   1.942  18.276   8.864
 1469POPC   GL221350   1.915  18.367   8.864
 1469POPC   C1A21351   1.967  18.266   8.564
 1469POPC   D2A21352   2.009  18.277   8.264
 1469POPC   C3A21353   1.950  18.258   7.964
 1469POPC   C4A21354   2.013  18.324   7.664
 1469POPC   C1B21355   1.922  18.467   8.564
 1469POPC   C2B21356   1.882  18.510   8.264
 1469POPC   C3B21357   1.870  18.517   7.964
 1469POPC   C4B21358   1.856  18.492   7.664
 1470POPC   NC321359   5.059  15.184   9.464
 1470POPC   PO421360   5.125  15.228   9.164
 1470POPC   GL121361   5.105  15.179   8.864
 1470POPC   GL221362   5.108  15.248   8.864
 1470POPC   C1A21363   5.080  15.143   8.564
 1470POPC   D2A21364   5.139  15.197   8.264
 1470POPC   C3A21365   5.059  15.221   7.964
 1470POPC   C4A21366   5.091  15.139   7.664
 1470POPC   C1B21367   5.242  15.375   8.564
 1470POPC   C2B21368   5.197  15.364   8.264
 1470POPC   C3B21369   5.214  15.362   7.964
 1470POPC   C4B21370   5.248  15.376   7.664
 1471POPC   NC321371   0.448   4.285   9.464
 1471POPC   PO421372   0.485   4.362   9.164
 1471POPC   GL121373   0.417   4.344   8.864
 1471POPC   GL221374   0.458   4.159   8.864
 1471POPC   C1A21375   0.433   4.307   8.564
 1471POPC   D2A21376   0.414   4.318   8.264
 1471POPC   C3A21377   0.483   4.347   7.964
 1471POPC   C4A21378   0.463   4.277   7.664
 1471POPC   C1B21379   0.459   4.029   8.564
 1471POPC   C2B21380   0.411   4.068   8.264
 1471POPC   C3B21381   0.405   4.047   7.964
 1471POPC   C4B21382   0.409   4.103   7.664
 1472POPC   NC321383  33.762   8.201   9.464
 1472POPC   PO421384  33.843   8.236   9.164
 1472POPC   GL121385  33.829   8.230   8.864
 1472POPC   GL221386  33.804   8.320   8.864
 1472POPC   C1A21387  33.797   8.161   8.564
 1472POPC   D2A21388  33.800   8.210   8.264
 1472POPC   C3A21389  33.759   8.153   7.964
 1472POPC   C4A21390  33.810   8.224   7.664
 1472POPC   C1B21391  33.732   8.434   8.564
 1472POPC   C2B21392  33.748   8.473   8.264
 1472POPC   C3B21393  33.725   8.477   7.964
 1472POPC   C4B21394  33.746   8.480   7.664
 1473POPC   NC321395  10.494  29.098   9.464
 1473POPC   PO421396  10.495  29.098   9.164
 1473POPC   GL121397  10.550  29.117   8.864
 1473POPC   GL221398  10.650  29.159   8.864
 1473POPC   C1A21399  10.557  29.195   8.564
 1473POPC   D2A21400  10.517  29.185   8.264
 1473POPC   C3A21401  10.532  29.172   7.964
 1473POPC   C4A21402  10.482  29.126   7.664
 1473POPC   C1B21403  10.725  29.135   8.564
 1473POPC   C2B21404  10.739  29.166   8.264
 1473POPC   C3B21405  10.773  29.197   7.964
 1473POPC   C4B21406  10.737  29.206   7.664
 1474POPC   NC321407   3.550  39.236   9.464
 1474POPC   PO421408   3.587  39.186   9.164
 1474POPC   GL121409   3.492  39.229   8.864
 1474POPC   GL221410   3.476  39.111   8.864
 1474POPC   C1A21411   3.562  39.258   8.564
 1474POPC   D2A21412   3.554  39.281   8.264
 1474POPC   C3A21413   3.500  39.244   7.964
 1474POPC   C4A21414   3.511  39.257   7.664
 1474POPC   C1B21415   3.364  39.018   8.564
 1474POPC   C2B21416   3.443  39.037   8.264
 1474POPC   C3B21417   3.380  39.003   7.964
 1474POPC   C4B21418   3.396  39.050   7.664
 1475POPC   NC321419  37.637  27.577   9.464
 1475POPC   PO421420  37.666  27.605   9.164
 1475POPC   GL121421  37.661  27.576   8.864
 1475POPC   GL221422  37.603  27.591   8.864
 1475POPC   C1A21423  37.684  27.592   8.564
 1475POPC   D2A21424  37.679  27.642   8.264
 1475POPC   C3A21425  37.657  27.564   7.964
 1475POPC   C4A21426  37.723  27.639   7.664
 1475POPC   C1B21427  37.391  27.645   8.564
 1475POPC   C2B21428  37.391  27.668   8.264
 1475POPC   C3B21429  37.395  27.631   7.964
 1475POPC   C4B21430  37.452  27.687   7.664
 1476POPC   NC321431  25.252  41.527   9.464
 1476POPC   PO421432  25.231  41.608   9.164
 1476POPC   GL121433  25.230  41.605   8.864
 1476POPC   GL221434  25.176  41.582   8.864
 1476POPC   C1A21435  25.281  41.605   8.564
 1476POPC   D2A21436  25.229  41.575   8.264
 1476POPC   C3A21437  25.294  41.544   7.964
 1476POPC   C4A21438  25.299  41.583   7.664
 1476POPC   C1B21439  24.981  41.679   8.564
 1476POPC   C2B21440  24.999  41.649   8.264
 1476POPC   C3B21441  25.060  41.585   7.964
 1476POPC   C4B21442  25.075  41.588   7.664
 1477POPC   NC321443  25.312  25.234   9.464
 1477POPC   PO421444  25.267  25.272   9.164
 1477POPC   GL121445  25.219  25.286   8.864
 1477POPC   GL221446  25.158  25.324   8.864
 1477POPC   C1A21447  25.297  25.251   8.564
 1477POPC   D2A21448  25.222  25.266   8.264
 1477POPC   C3A21449  25.311  25.266   7.964
 1477POPC   C4A21450  25.264  25.284   7.664
 1477POPC   C1B21451  25.056  25.401   8.564
 1477POPC   C2B21452  25.024  25.357   8.264
 1477POPC   C3B21453  25.089  25.355   7.964
 1477POPC   C4B21454  25.014  25.387   7.664
 1478POPC   NC321455   1.201  13.652   9.464
 1478POPC   PO421456   1.232  13.674   9.164
 1478POPC   GL121457   1.217  13.581   8.864
 1478POPC   GL221458   1.359  13.597   8.864
 1478POPC   C1A21459   1.173  13.623   8.564
 1478POPC   D2A21460   1.197  13.593   8.264
 1478POPC   C3A21461   1.248  13.610   7.964
 1478POPC   C4A21462   1.174  13.642   7.664
 1478POPC   C1B21463   1.454  13.627   8.564
 1478POPC   C2B21464   1.422  13.625   8.264
 1478POPC   C3B21465   1.415  13.668   7.964
 1478POPC   C4B21466   1.455  13.614   7.664
 1479POPC   NC321467  33.059  20.590   9.464
 1479POPC   PO421468  33.015  20.624   9.164
 1479POPC   GL121469  33.066  20.566   8.864
 1479POPC   GL221470  33.066  20.745   8.864
 1479POPC   C1A21471  33.000  20.567   8.564
 1479POPC   D2A21472  33.004  20.599   8.264
 1479POPC   C3A21473  33.073  20.650   7.964
 1479POPC   C4A21474  33.024  20.603   7.664
 1479POPC   C1B21475  33.167  20.874   8.564
 1479POPC   C2B21476  33.168  20.803   8.264
 1479POPC   C3B21477  33.171  20.779   7.964
 1479POPC   C4B21478  33.162  20.826   7.664
 1480POPC   NC321479  43.105  27.619   9.464
 1480POPC   PO421480  43.077  27.568   9.164
 1480POPC   GL121481  43.080  27.619   8.864
 1480POPC   GL221482  43.191  27.536   8.864
 1480POPC   C1A21483  43.107  27.596   8.564
 1480POPC   D2A21484  43.106  27.611   8.264
 1480POPC   C3A21485  43.151  27.598   7.964
 1480POPC   C4A21486  43.152  27.591   7.664
 1480POPC   C1B21487  43.316  27.399   8.564
 1480POPC   C2B21488  43.314  27.401   8.264
 1480POPC   C3B21489  43.352  27.448   7.964
 1480POPC   C4B21490  43.296  27.442   7.664
 1481POPC   NC321491  38.454  16.764   9.464
 1481POPC   PO421492  38.488  16.771   9.164
 1481POPC   GL121493  38.421  16.775   8.864
 1481POPC   GL221494  38.493  16.806   8.864
 1481POPC   C1A21495  38.415  16.681   8.564
 1481POPC   D2A21496  38.485  16.756   8.264
 1481POPC   C3A21497  38.415  16.700   7.964
 1481POPC   C4A21498  38.430  16.773   7.664
 1481POPC   C1B21499  38.500  17.019   8.564
 1481POPC   C2B21500  38.508  16.995   8.264
 1481POPC   C3B21501  38.481  16.988   7.964
 1481POPC   C4B21502  38.518  16.946   7.664
 1482POPC   NC321503  32.239  19.092   9.464
 1482POPC   PO421504  32.249  19.083   9.164
 1482POPC   GL121505  32.244  19.089   8.864
 1482POPC   GL221506  32.208  19.017   8.864
 1482POPC   C1A21507  32.236  19.042   8.564
 1482POPC   D2A21508  32.229  19.027   8.264
 1482POPC   C3A21509  32.240  19.020   7.964
 1482POPC   C4A21510  32.271  19.039   7.664
 1482POPC   C1B21511  32.023  18.896   8.564
 1482POPC   C2B21512  32.071  18.874   8.264
 1482POPC   C3B21513  32.044  18.903   7.964
 1482POPC   C4B21514  32.114  18.866   7.664
 1483POPC   NC321515   1.216  11.292   9.464
 1483POPC   PO421516   1.242  11.287   9.164
 1483POPC   GL121517   1.194  11.334   8.864
 1483POPC   GL221518   1.211  11.390   8.864
 1483POPC   C1A21519   1.178  11.314   8.564
 1483POPC   D2A21520   1.183  11.323   8.264
 1483POPC   C3A21521   1.234  11.340   7.964
 1483POPC   C4A21522   1.252  11.269   7.664
 1483POPC   C1B21523   1.242  11.520   8.564
 1483POPC   C2B21524   1.255  11.517   8.264
 1483POPC   C3B21525   1.320  11.546   7.964
 1483POPC   C4B21526   1.296  11.574   7.664
 1484POPC   NC321527  15.978  13.588   9.464
 1484POPC   PO421528  15.983  13.594   9.164
 1484POPC   GL121529  15.943  13.580   8.864
 1484POPC   GL221530  15.981  13.717   8.864
 1484POPC   C1A21531  15.972  13.631   8.564
 1484POPC   D2A21532  15.933  13.658   8.264
 1484POPC   C3A21533  15.946  13.662   7.964
 1484POPC   C4A21534  15.983  13.593   7.664
 1484POPC   C1B21535  16.091  13.795   8.564
 1484POPC   C2B21536  16.083  13.801   8.264
 1484POPC   C3B21537  16.076  13.889   7.964
 1484POPC   C4B21538  16.042  13.859   7.664
 1485POPC   NC321539  15.162  26.849   9.464
 1485POPC   PO421540  15.185  26.775   9.164
 1485POPC   GL121541  15.223  26.799   8.864
 1485POPC   GL221542  15.266  26.741   8.864
 1485POPC   C1A21543  15.222  26.799   8.564
 1485POPC   D2A21544  15.185  26.820   8.264
 1485POPC   C3A21545  15.207  26.779   7.964
 1485POPC   C4A21546  15.156  26.846   7.664
 1485POPC   C1B21547  15.333  26.712   8.564
 1485POPC   C2B21548  15.383  26.655   8.264
 1485POPC   C3B21549  15.333  26.628   7.964
 1485POPC   C4B21550  15.388  26.705   7.664
 1486POPC   NC321551  44.697   6.613   9.464
 1486POPC   PO421552  44.636   6.685   9.164
 1486POPC   GL121553  44.620   6.677   8.864
 1486POPC   GL221554  44.729   6.630   8.864
 1486POPC   C1A21555  44.651   6.672   8.564
 1486POPC   D2A21556  44.676   6.650   8.264
 1486POPC   C3A21557  44.695   6.638   7.964
 1486POPC   C4A21558  44.668   6.651   7.664
 1486POPC   C1B21559  44.927   6.490   8.564
 1486POPC   C2B21560  44.837   6.497   8.264
 1486POPC   C3B21561  44.879   6.494   7.964
 1486POPC   C4B21562  44.899   6.475   7.664
 1487POPC   NC321563  27.592   5.852   9.464
 1487POPC   PO421564  27.630   5.861   9.164
 1487POPC   GL121565  27.632   5.825   8.864
 1487POPC   GL221566  27.471   5.781   8.864
 1487POPC   C1A21567  27.634   5.861   8.564
 1487POPC   D2A21568  27.551   5.902   8.264
 1487POPC   C3A21569  27.606   5.891   7.964
 1487POPC   C4A21570  27.603   5.874   7.664
 1487POPC   C1B21571  27.413   5.764   8.564
 1487POPC   C2B21572  27.357   5.813   8.264
 1487POPC   C3B21573  27.415   5.751   7.964
 1487POPC   C4B21574  27.410   5.748   7.664
 1488POPC   NC321575  29.165   5.118   9.464
 1488POPC   PO421576  29.138   5.084   9.164
 1488POPC   GL121577  29.157   5.121   8.864
 1488POPC   GL221578  29.146   5.005   8.864
 1488POPC   C1A21579  29.102   5.076   8.564
 1488POPC   D2A21580  29.146   5.090   8.264
 1488POPC   C3A21581  29.110   5.125   7.964
 1488POPC   C4A21582  29.178   5.115   7.664
 1488POPC   C1B21583  29.106   4.855   8.564
 1488POPC   C2B21584  29.135   4.857   8.264
 1488POPC   C3B21585  29.100   4.886   7.964
 1488POPC   C4B21586  29.132   4.824   7.664
 1489POPC   NC321587  37.645  31.449   9.464
 1489POPC   PO421588  37.679  31.444   9.164
 1489POPC   GL121589  37.699  31.429   8.864
 1489POPC   GL221590  37.663  31.566   8.864
 1489POPC   C1A21591  37.690  31.443   8.564
 1489POPC   D2A21592  37.690  31.474   8.264
 1489POPC   C3A21593  37.659  31.502   7.964
 1489POPC   C4A21594  37.692  31.471   7.664
 1489POPC   C1B21595  37.687  31.701   8.564
 1489POPC   C2B21596  37.656  31.693   8.264
 1489POPC   C3B21597  37.650  31.737   7.964
 1489POPC   C4B21598  37.690  31.729   7.664
 1490POPC   NC321599  28.366  28.370   9.464
 1490POPC   PO421600  28.373  28.397   9.164
 1490POPC   GL121601  28.383  28.360   8.864
 1490POPC   GL221602  28.232  28.359   8.864
 1490POPC   C1A21603  28.320  28.418   8.564
 1490POPC   D2A21604  28.414  28.403   8.264
 1490POPC   C3A21605  28.400  28.322   7.964
 1490POPC   C4A21606  28.367  28.336   7.664
 1490POPC   C1B21607  28.171  28.246   8.564
 1490POPC   C2B21608  28.107  28.256   8.264
 1490POPC   C3B21609  28.175  28.221   7.964
 1490POPC   C4B21610  28.100  28.216   7.664
 1491POPC   NC321611  36.854  43.862   9.464
 1491POPC   PO421612  36.855  43.843   9.164
 1491POPC   GL121613  36.918  43.852   8.864
 1491POPC   GL221614  36.931  44.014   8.864
 1491POPC   C1A21615  36.939  43.847   8.564
 1491POPC   D2A21616  36.925  43.852   8.264
 1491POPC   C3A21617  36.910  43.905   7.964
 1491POPC   C4A21618  36.867  43.889   7.664
 1491POPC   C1B21619  37.023  44.067   8.564
 1491POPC   C2B21620  37.050  44.125   8.264
 1491POPC   C3B21621  36.984  44.122   7.964
 1491POPC   C4B21622  37.012  44.126   7.664
 1492POPC   NC321623  23.698  17.492   9.464
 1492POPC   PO421624  23.671  17.495   9.164
 1492POPC   GL121625  23.749  17.478   8.864
 1492POPC   GL221626  23.589  17.467   8.864
 1492POPC   C1A21627  23.750  17.517   8.564
 1492POPC   D2A21628  23.742  17.516   8.264
 1492POPC   C3A21629  23.703  17.490   7.964
 1492POPC   C4A21630  23.705  17.462   7.664
 1492POPC   C1B21631  23.514  17.389   8.564
 1492POPC   C2B21632  23.536  17.389   8.264
 1492POPC   C3B21633  23.511  17.330   7.964
 1492POPC   C4B21634  23.499  17.370   7.664
 1493POPC   NC321635  27.595  13.601   9.464
 1493POPC   PO421636  27.556  13.675   9.164
 1493POPC   GL121637  27.585  13.581   8.864
 1493POPC   GL221638  27.580  13.699   8.864
 1493POPC   C1A21639  27.560  13.597   8.564
 1493POPC   D2A21640  27.565  13.658   8.264
 1493POPC   C3A21641  27.549  13.651   7.964
 1493POPC   C4A21642  27.567  13.606   7.664
 1493POPC   C1B21643  27.483  13.884   8.564
 1493POPC   C2B21644  27.509  13.910   8.264
 1493POPC   C3B21645  27.478  13.866   7.964
 1493POPC   C4B21646  27.550  13.827   7.664
 1494POPC   NC321647  24.498  14.383   9.464
 1494POPC   PO421648  24.503  14.440   9.164
 1494POPC   GL121649  24.527  14.436   8.864
 1494POPC   GL221650  24.535  14.574   8.864
 1494POPC   C1A21651  24.491  14.441   8.564
 1494POPC   D2A21652  24.509  14.421   8.264
 1494POPC   C3A21653  24.506  14.435   7.964
 1494POPC   C4A21654  24.473  14.391   7.664
 1494POPC   C1B21655  24.545  14.609   8.564
 1494POPC   C2B21656  24.526  14.672   8.264
 1494POPC   C3B21657  24.508  14.610   7.964
 1494POPC   C4B21658  24.522  14.648   7.664
 1495POPC   NC321659  21.435  17.501   9.464
 1495POPC   PO421660  21.404  17.462   9.164
 1495POPC   GL121661  21.392  17.515   8.864
 1495POPC   GL221662  21.362  17.602   8.864
 1495POPC   C1A21663  21.365  17.535   8.564
 1495POPC   D2A21664  21.373  17.498   8.264
 1495POPC   C3A21665  21.365  17.536   7.964
 1495POPC   C4A21666  21.428  17.545   7.664
 1495POPC   C1B21667  21.279  17.777   8.564
 1495POPC   C2B21668  21.286  17.762   8.264
 1495POPC   C3B21669  21.285  17.681   7.964
 1495POPC   C4B21670  21.295  17.731   7.664
 1496POPC   NC321671  17.484  39.184   9.464
 1496POPC   PO421672  17.502  39.271   9.164
 1496POPC   GL121673  17.466  39.195   8.864
 1496POPC   GL221674  17.491  39.140   8.864
 1496POPC   C1A21675  17.554  39.226   8.564
 1496POPC   D2A21676  17.511  39.266   8.264
 1496POPC   C3A21677  17.507  39.212   7.964
 1496POPC   C4A21678  17.460  39.189   7.664
 1496POPC   C1B21679  17.617  38.949   8.564
 1496POPC   C2B21680  17.563  39.018   8.264
 1496POPC   C3B21681  17.575  39.004   7.964
 1496POPC   C4B21682  17.575  38.984   7.664
 1497POPC   NC321683  38.462  35.306   9.464
 1497POPC   PO421684  38.451  35.302   9.164
 1497POPC   GL121685  38.505  35.397   8.864
 1497POPC   GL221686  38.437  35.426   8.864
 1497POPC   C1A21687  38.498  35.308   8.564
 1497POPC   D2A21688  38.456  35.359   8.264
 1497POPC   C3A21689  38.451  35.400   7.964
 1497POPC   C4A21690  38.492  35.349   7.664
 1497POPC   C1B21691  38.320  35.573   8.564
 1497POPC   C2B21692  38.341  35.527   8.264
 1497POPC   C3B21693  38.353  35.585   7.964
 1497POPC   C4B21694  38.384  35.621   7.664
 1498POPC   NC321695  39.976  39.246   9.464
 1498POPC   PO421696  39.986  39.261   9.164
 1498POPC   GL121697  40.046  39.257   8.864
 1498POPC   GL221698  40.078  39.182   8.864
 1498POPC   C1A21699  39.981  39.200   8.564
 1498POPC   D2A21700  39.963  39.187   8.264
 1498POPC   C3A21701  40.031  39.209   7.964
 1498POPC   C4A21702  40.028  39.191   7.664
 1498POPC   C1B21703  40.208  39.103   8.564
 1498POPC   C2B21704  40.204  39.039   8.264
 1498POPC   C3B21705  40.169  39.096   7.964
 1498POPC   C4B21706  40.229  39.057   7.664
 1499POPC   NC321707  25.250  42.335   9.464
 1499POPC   PO421708  25.295  42.305   9.164
 1499POPC   GL121709  25.259  42.353   8.864
 1499POPC   GL221710  25.283  42.257   8.864
 1499POPC   C1A21711  25.309  42.321   8.564
 1499POPC   D2A21712  25.307  42.288   8.264
 1499POPC   C3A21713  25.314  42.296   7.964
 1499POPC   C4A21714  25.300  42.298   7.664
 1499POPC   C1B21715  25.213  42.063   8.564
 1499POPC   C2B21716  25.203  42.122   8.264
 1499POPC   C3B21717  25.200  42.103   7.964
 1499POPC   C4B21718  25.272  42.088   7.664
 1500POPC   NC321719  20.584  37.725   9.464
 1500POPC   PO421720  20.656  37.711   9.164
 1500POPC   GL121721  20.561  37.719   8.864
 1500POPC   GL221722  20.674  37.781   8.864
 1500POPC   C1A21723  20.587  37.683   8.564
 1500POPC   D2A21724  20.629  37.663   8.264
 1500POPC   C3A21725  20.632  37.702   7.964
 1500POPC   C4A21726  20.566  37.694   7.664
 1500POPC   C1B21727  20.766  37.864   8.564
 1500POPC   C2B21728  20.757  37.891   8.264
 1500POPC   C3B21729  20.691  37.940   7.964
 1500POPC   C4B21730  20.682  37.954   7.664
 1501POPC   NC321731  34.578  17.457   9.464
 1501POPC   PO421732  34.590  17.490   9.164
 1501POPC   GL121733  34.612  17.525   8.864
 1501POPC   GL221734  34.651  17.445   8.864
 1501POPC   C1A21735  34.588  17.512   8.564
 1501POPC   D2A21736  34.594  17.491   8.264
 1501POPC   C3A21737  34.579  17.539   7.964
 1501POPC   C4A21738  34.536  17.531   7.664
 1501POPC   C1B21739  34.731  17.338   8.564
 1501POPC   C2B21740  34.672  17.270   8.264
 1501POPC   C3B21741  34.708  17.241   7.964
 1501POPC   C4B21742  34.672  17.293   7.664
 1502POPC   NC321743   5.096  44.665   9.464
 1502POPC   PO421744   5.075  44.705   9.164
 1502POPC   GL121745   5.106  44.629   8.864
 1502POPC   GL221746   5.109  44.562   8.864
 1502POPC   C1A21747   5.053  44.617   8.564
 1502POPC   D2A21748   5.054  44.677   8.264
 1502POPC   C3A21749   5.080  44.612   7.964
 1502POPC   C4A21750   5.108  44.660   7.664
 1502POPC   C1B21751   5.048  44.457   8.564
 1502POPC   C2B21752   5.009  44.409   8.264
 1502POPC   C3B21753   5.018  44.466   7.964
 1502POPC   C4B21754   5.005  44.444   7.664
 1503POPC   NC321755   3.537  20.652   9.464
 1503POPC   PO421756   3.560  20.638   9.164
 1503POPC   GL121757   3.575  20.600   8.864
 1503POPC   GL221758   3.692  20.692   8.864
 1503POPC   C1A21759   3.581  20.638   8.564
 1503POPC   D2A21760   3.556  20.607   8.264
 1503POPC   C3A21761   3.563  20.592   7.964
 1503POPC   C4A21762   3.517  20.592   7.664
 1503POPC   C1B21763   3.797  20.763   8.564
 1503POPC   C2B21764   3.811  20.747   8.264
 1503POPC   C3B21765   3.723  20.732   7.964
 1503POPC   C4B21766   3.803  20.722   7.664
 1504POPC   NC321767  19.850  19.039   9.464
 1504POPC   PO421768  19.866  19.027   9.164
 1504POPC   GL121769  19.792  19.032   8.864
 1504POPC   GL221770  19.836  19.202   8.864
 1504POPC   C1A21771  19.846  19.049   8.564
 1504POPC   D2A21772  19.852  19.105   8.264
 1504POPC   C3A21773  19.823  19.054   7.964
 1504POPC   C4A21774  19.812  19.081   7.664
 1504POPC   C1B21775  19.762  19.324   8.564
 1504POPC   C2B21776  19.751  19.337   8.264
 1504POPC   C3B21777  19.771  19.251   7.964
 1504POPC   C4B21778  19.742  19.291   7.664
 1505POPC   NC321779  24.497  41.509   9.464
 1505POPC   PO421780  24.510  41.586   9.164
 1505POPC   GL121781  24.476  41.527   8.864
 1505POPC   GL221782  24.645  41.622   8.864
 1505POPC   C1A21783  24.523  41.521   8.564
 1505POPC   D2A21784  24.537  41.597   8.264
 1505POPC   C3A21785  24.488  41.601   7.964
 1505POPC   C4A21786  24.501  41.582   7.664
 1505POPC   C1B21787  24.759  41.617   8.564
 1505POPC   C2B21788  24.738  41.677   8.264
 1505POPC   C3B21789  24.764  41.615   7.964
 1505POPC   C4B21790  24.739  41.608   7.664
 1506POPC   NC321791   3.570  41.513   9.464
 1506POPC   PO421792   3.561  41.594   9.164
 1506POPC   GL121793   3.581  41.513   8.864
 1506POPC   GL221794   3.521  41.671   8.864
 1506POPC   C1A21795   3.560  41.537   8.564
 1506POPC   D2A21796   3.548  41.563   8.264
 1506POPC   C3A21797   3.562  41.545   7.964
 1506POPC   C4A21798   3.497  41.539   7.664
 1506POPC   C1B21799   3.567  41.844   8.564
 1506POPC   C2B21800   3.621  41.768   8.264
 1506POPC   C3B21801   3.563  41.830   7.964
 1506POPC   C4B21802   3.575  41.807   7.664
 1507POPC   NC321803  37.651  35.364   9.464
 1507POPC   PO421804  37.716  35.342   9.164
 1507POPC   GL121805  37.683  35.306   8.864
 1507POPC   GL221806  37.565  35.418   8.864
 1507POPC   C1A21807  37.633  35.378   8.564
 1507POPC   D2A21808  37.662  35.306   8.264
 1507POPC   C3A21809  37.649  35.353   7.964
 1507POPC   C4A21810  37.706  35.363   7.664
 1507POPC   C1B21811  37.481  35.372   8.564
 1507POPC   C2B21812  37.430  35.407   8.264
 1507POPC   C3B21813  37.451  35.417   7.964
 1507POPC   C4B21814  37.446  35.425   7.664
 1508POPC   NC321815  20.563  34.548   9.464
 1508POPC   PO421816  20.609  34.591   9.164
 1508POPC   GL121817  20.646  34.612   8.864
 1508POPC   GL221818  20.660  34.719   8.864
 1508POPC   C1A21819  20.656  34.539   8.564
 1508POPC   D2A21820  20.632  34.561   8.264
 1508POPC   C3A21821  20.610  34.584   7.964
 1508POPC   C4A21822  20.570  34.563   7.664
 1508POPC   C1B21823  20.725  34.782   8.564
 1508POPC   C2B21824  20.769  34.827   8.264
 1508POPC   C3B21825  20.710  34.746   7.964
 1508POPC   C4B21826  20.715  34.824   7.664
 1509POPC   NC321827   0.402  41.552   9.464
 1509POPC   PO421828   0.471  41.568   9.164
 1509POPC   GL121829   0.440  41.549   8.864
 1509POPC   GL221830   0.528  41.599   8.864
 1509POPC   C1A21831   0.388  41.593   8.564
 1509POPC   D2A21832   0.416  41.550   8.264
 1509POPC   C3A21833   0.440  41.540   7.964
 1509POPC   C4A21834   0.479  41.598   7.664
 1509POPC   C1B21835   0.619  41.698   8.564
 1509POPC   C2B21836   0.633  41.746   8.264
 1509POPC   C3B21837   0.627  41.731   7.964
 1509POPC   C4B21838   0.640  41.733   7.664
 1510POPC   NC321839  15.209  43.905   9.464
 1510POPC   PO421840  15.167  43.916   9.164
 1510POPC   GL121841  15.181  43.854   8.864
 1510POPC   GL221842  15.298  43.797   8.864
 1510POPC   C1A21843  15.219  43.917   8.564
 1510POPC   D2A21844  15.142  43.897   8.264
 1510POPC   C3A21845  15.177  43.899   7.964
 1510POPC   C4A21846  15.186  43.872   7.664
 1510POPC   C1B21847  15.376  43.734   8.564
 1510POPC   C2B21848  15.385  43.720   8.264
 1510POPC   C3B21849  15.363  43.668   7.964
 1510POPC   C4B21850  15.314  43.688   7.664
 1511POPC   NC321851   2.767  12.859   9.464
 1511POPC   PO421852   2.780  12.848   9.164
 1511POPC   GL121853   2.810  12.895   8.864
 1511POPC   GL221854   2.639  12.903   8.864
 1511POPC   C1A21855   2.731  12.890   8.564
 1511POPC   D2A21856   2.788  12.804   8.264
 1511POPC   C3A21857   2.778  12.868   7.964
 1511POPC   C4A21858   2.780  12.886   7.664
 1511POPC   C1B21859   2.533  12.866   8.564
 1511POPC   C2B21860   2.551  12.832   8.264
 1511POPC   C3B21861   2.491  12.892   7.964
 1511POPC   C4B21862   2.503  12.828   7.664
 1512POPC   NC321863  40.006   8.965   9.464
 1512POPC   PO421864  40.037   8.980   9.164
 1512POPC   GL121865  40.013   8.958   8.864
 1512POPC   GL221866  40.019   8.893   8.864
 1512POPC   C1A21867  39.967   9.004   8.564
 1512POPC   D2A21868  39.977   8.934   8.264
 1512POPC   C3A21869  39.961   8.953   7.964
 1512POPC   C4A21870  40.043   8.975   7.664
 1512POPC   C1B21871  40.028   8.769   8.564
 1512POPC   C2B21872  40.053   8.706   8.264
 1512POPC   C3B21873  40.117   8.696   7.964
 1512POPC   C4B21874  40.064   8.719   7.664
 1513POPC   NC321875   6.681  44.666   9.464
 1513POPC   PO421876   6.645  44.701   9.164
 1513POPC   GL121877   6.679  44.618   8.864
 1513POPC   GL221878   6.738  44.805   8.864
 1513POPC   C1A21879   6.634  44.620   8.564
 1513POPC   D2A21880   6.684  44.704   8.264
 1513POPC   C3A21881   6.681  44.688   7.964
 1513POPC   C4A21882   6.647  44.668   7.664
 1513POPC   C1B21883   6.766  44.927   8.564
 1513POPC   C2B21884   6.775  44.868   8.264
 1513POPC   C3B21885   6.784  44.925   7.964
 1513POPC   C4B21886   6.772  44.839   7.664
 1514POPC   NC321887  27.609  26.826   9.464
 1514POPC   PO421888  27.557  26.856   9.164
 1514POPC   GL121889  27.624  26.830   8.864
 1514POPC   GL221890  27.493  26.819   8.864
 1514POPC   C1A21891  27.636  26.859   8.564
 1514POPC   D2A21892  27.551  26.811   8.264
 1514POPC   C3A21893  27.636  26.784   7.964
 1514POPC   C4A21894  27.613  26.801   7.664
 1514POPC   C1B21895  27.375  26.774   8.564
 1514POPC   C2B21896  27.356  26.830   8.264
 1514POPC   C3B21897  27.307  26.834   7.964
 1514POPC   C4B21898  27.347  26.796   7.664
 1515POPC   NC321899  32.263   6.617   9.464
 1515POPC   PO421900  32.267   6.686   9.164
 1515POPC   GL121901  32.221   6.599   8.864
 1515POPC   GL221902  32.127   6.593   8.864
 1515POPC   C1A21903  32.267   6.617   8.564
 1515POPC   D2A21904  32.219   6.611   8.264
 1515POPC   C3A21905  32.263   6.607   7.964
 1515POPC   C4A21906  32.297   6.618   7.664
 1515POPC   C1B21907  32.115   6.432   8.564
 1515POPC   C2B21908  32.038   6.433   8.264
 1515POPC   C3B21909  32.080   6.445   7.964
 1515POPC   C4B21910  32.043   6.494   7.664
 1516POPC   NC321911  36.890  11.298   9.464
 1516POPC   PO421912  36.940  11.272   9.164
 1516POPC   GL121913  36.930  11.346   8.864
 1516POPC   GL221914  36.982  11.305   8.864
 1516POPC   C1A21915  36.900  11.267   8.564
 1516POPC   D2A21916  36.928  11.344   8.264
 1516POPC   C3A21917  36.942  11.263   7.964
 1516POPC   C4A21918  36.918  11.314   7.664
 1516POPC   C1B21919  37.092  11.183   8.564
 1516POPC   C2B21920  37.116  11.176   8.264
 1516POPC   C3B21921  37.167  11.170   7.964
 1516POPC   C4B21922  37.163  11.217   7.664
 1517POPC   NC321923   2.723  33.813   9.464
 1517POPC   PO421924   2.784  33.780   9.164
 1517POPC   GL121925   2.748  33.804   8.864
 1517POPC   GL221926   2.686  33.844   8.864
 1517POPC   C1A21927   2.809  33.793   8.564
 1517POPC   D2A21928   2.786  33.838   8.264
 1517POPC   C3A21929   2.786  33.833   7.964
 1517POPC   C4A21930   2.809  33.770   7.664
 1517POPC   C1B21931   2.554  33.836   8.564
 1517POPC   C2B21932   2.476  33.798   8.264
 1517POPC   C3B21933   2.559  33.840   7.964
 1517POPC   C4B21934   2.554  33.796   7.664
 1518POPC   NC321935  35.401   4.360   9.464
 1518POPC   PO421936  35.349   4.290   9.164
 1518POPC   GL121937  35.380   4.322   8.864
 1518POPC   GL221938  35.241   4.240   8.864
 1518POPC   C1A21939  35.327   4.365   8.564
 1518POPC   D2A21940  35.313   4.318   8.264
 1518POPC   C3A21941  35.386   4.303   7.964
 1518POPC   C4A21942  35.309   4.322   7.664
 1518POPC   C1B21943  35.125   4.125   8.564
 1518POPC   C2B21944  35.178   4.132   8.264
 1518POPC   C3B21945  35.140   4.184   7.964
 1518POPC   C4B21946  35.164   4.177   7.664
 1519POPC   NC321947  28.345  36.129   9.464
 1519POPC   PO421948  28.407  36.120   9.164
 1519POPC   GL121949  28.357  36.102   8.864
 1519POPC   GL221950  28.456  36.211   8.864
 1519POPC   C1A21951  28.385  36.149   8.564
 1519POPC   D2A21952  28.374  36.114   8.264
 1519POPC   C3A21953  28.327  36.096   7.964
 1519POPC   C4A21954  28.409  36.087   7.664
 1519POPC   C1B21955  28.544  36.335   8.564
 1519POPC   C2B21956  28.500  36.310   8.264
 1519POPC   C3B21957  28.491  36.307   7.964
 1519POPC   C4B21958  28.496  36.348   7.664
 1520POPC   NC321959  40.039  22.904   9.464
 1520POPC   PO421960  39.973  22.902   9.164
 1520POPC   GL121961  39.995  22.959   8.864
 1520POPC   GL221962  39.858  22.922   8.864
 1520POPC   C1A21963  39.987  22.888   8.564
 1520POPC   D2A21964  39.986  22.898   8.264
 1520POPC   C3A21965  40.009  22.941   7.964
 1520POPC   C4A21966  40.028  22.987   7.664
 1520POPC   C1B21967  39.730  23.013   8.564
 1520POPC   C2B21968  39.783  22.969   8.264
 1520POPC   C3B21969  39.790  22.955   7.964
 1520POPC   C4B21970  39.795  22.940   7.664
 1521POPC   NC321971  29.937  29.951   9.464
 1521POPC   PO421972  29.940  29.961   9.164
 1521POPC   GL121973  29.931  29.892   8.864
 1521POPC   GL221974  30.024  29.912   8.864
 1521POPC   C1A21975  29.913  29.913   8.564
 1521POPC   D2A21976  29.943  29.886   8.264
 1521POPC   C3A21977  29.969  29.892   7.964
 1521POPC   C4A21978  29.939  29.922   7.664
 1521POPC   C1B21979  30.136  29.983   8.564
 1521POPC   C2B21980  30.187  30.016   8.264
 1521POPC   C3B21981  30.165  30.012   7.964
 1521POPC   C4B21982  30.122  29.951   7.664
 1522POPC   NC321983  33.050  37.671   9.464
 1522POPC   PO421984  33.014  37.703   9.164
 1522POPC   GL121985  33.034  37.679   8.864
 1522POPC   GL221986  33.156  37.659   8.864
 1522POPC   C1A21987  33.038  37.647   8.564
 1522POPC   D2A21988  32.986  37.702   8.264
 1522POPC   C3A21989  32.992  37.684   7.964
 1522POPC   C4A21990  33.018  37.664   7.664
 1522POPC   C1B21991  33.217  37.536   8.564
 1522POPC   C2B21992  33.218  37.570   8.264
 1522POPC   C3B21993  33.269  37.547   7.964
 1522POPC   C4B21994  33.220  37.618   7.664
 1523POPC   NC321995  14.360  19.053   9.464
 1523POPC   PO421996  14.369  19.068   9.164
 1523POPC   GL121997  14.376  19.108   8.864
 1523POPC   GL221998  14.359  19.130   8.864
 1523POPC   C1A21999  14.400  19.062   8.564
 1523POPC   D2A22000  14.415  19.016   8.264
 1523POPC   C3A22001  14.416  19.088   7.964
 1523POPC   C4A22002  14.360  19.070   7.664
 1523POPC   C1B22003  14.346  19.256   8.564
 1523POPC   C2B22004  14.353  19.305   8.264
 1523POPC   C3B22005  14.319  19.347   7.964
 1523POPC   C4B22006  14.340  19.311   7.664
 1524POPC   NC322007  33.806  16.723   9.464
 1524POPC   PO422008  33.839  16.743   9.164
 1524POPC   GL122009  33.784  16.771   8.864
 1524POPC   GL222010  33.938  16.756   8.864
 1524POPC   C1A22011  33.761  16.682   8.564
 1524POPC   D2A22012  33.787  16.718   8.264
 1524POPC   C3A22013  33.807  16.765   7.964
 1524POPC   C4A22014  33.771  16.730   7.664
 1524POPC   C1B22015  34.047  16.812   8.564
 1524POPC   C2B22016  34.013  16.753   8.264
 1524POPC   C3B22017  34.014  16.781   7.964
 1524POPC   C4B22018  34.040  16.725   7.664
 1525POPC   NC322019   5.077  41.516   9.464
 1525POPC   PO422020   5.092  41.597   9.164
 1525POPC   GL122021   5.102  41.577   8.864
 1525POPC   GL222022   4.933  41.517   8.864
 1525POPC   C1A22023   5.130  41.564   8.564
 1525POPC   D2A22024   5.111  41.553   8.264
 1525POPC   C3A22025   5.059  41.588   7.964
 1525POPC   C4A22026   5.143  41.606   7.664
 1525POPC   C1B22027   4.820  41.457   8.564
 1525POPC   C2B22028   4.805  41.523   8.264
 1525POPC   C3B22029   4.861  41.514   7.964
 1525POPC   C4B22030   4.857  41.545   7.664
 1526POPC   NC322031   1.202  32.213   9.464
 1526POPC   PO422032   1.199  32.212   9.164
 1526POPC   GL122033   1.176  32.297   8.864
 1526POPC   GL222034   1.274  32.317   8.864
 1526POPC   C1A22035   1.224  32.257   8.564
 1526POPC   D2A22036   1.247  32.275   8.264
 1526POPC   C3A22037   1.206  32.256   7.964
 1526POPC   C4A22038   1.232  32.204   7.664
 1526POPC   C1B22039   1.424  32.460   8.564
 1526POPC   C2B22040   1.335  32.432   8.264
 1526POPC   C3B22041   1.330  32.460   7.964
 1526POPC   C4B22042   1.424  32.451   7.664
 1527POPC   NC322043  12.068  22.194   9.464
 1527POPC   PO422044  12.110  22.208   9.164
 1527POPC   GL122045  12.059  22.189   8.864
 1527POPC   GL222046  11.928  22.274   8.864
 1527POPC   C1A22047  12.063  22.196   8.564
 1527POPC   D2A22048  12.032  22.147   8.264
 1527POPC   C3A22049  12.047  22.192   7.964
 1527POPC   C4A22050  12.028  22.143   7.664
 1527POPC   C1B22051  11.906  22.336   8.564
 1527POPC   C2B22052  11.913  22.330   8.264
 1527POPC   C3B22053  11.890  22.317   7.964
 1527POPC   C4B22054  11.867  22.323   7.664
 1528POPC   NC322055   1.944   0.459   9.464
 1528POPC   PO422056   1.973   0.424   9.164
 1528POPC   GL122057   2.004   0.467   8.864
 1528POPC   GL222058   1.898   0.460   8.864
 1528POPC   C1A22059   2.019   0.424   8.564
 1528POPC   D2A22060   1.976   0.415   8.264
 1528POPC   C3A22061   2.008   0.396   7.964
 1528POPC   C4A22062   1.991   0.402   7.664
 1528POPC   C1B22063   1.752   0.362   8.564
 1528POPC   C2B22064   1.755   0.366   8.264
 1528POPC   C3B22065   1.731   0.424   7.964
 1528POPC   C4B22066   1.709   0.361   7.664
 1529POPC   NC322067  23.762   8.246   9.464
 1529POPC   PO422068  23.694   8.211   9.164
 1529POPC   GL122069  23.681   8.222   8.864
 1529POPC   GL222070  23.705   8.308   8.864
 1529POPC   C1A22071  23.761   8.165   8.564
 1529POPC   D2A22072  23.695   8.161   8.264
 1529POPC   C3A22073  23.690   8.149   7.964
 1529POPC   C4A22074  23.755   8.217   7.664
 1529POPC   C1B22075  23.712   8.433   8.564
 1529POPC   C2B22076  23.802   8.426   8.264
 1529POPC   C3B22077  23.725   8.455   7.964
 1529POPC   C4B22078  23.752   8.459   7.664
 1530POPC   NC322079  39.204  34.564   9.464
 1530POPC   PO422080  39.215  34.568   9.164
 1530POPC   GL122081  39.200  34.607   8.864
 1530POPC   GL222082  39.225  34.741   8.864
 1530POPC   C1A22083  39.228  34.540   8.564
 1530POPC   D2A22084  39.268  34.571   8.264
 1530POPC   C3A22085  39.207  34.601   7.964
 1530POPC   C4A22086  39.257  34.594   7.664
 1530POPC   C1B22087  39.131  34.790   8.564
 1530POPC   C2B22088  39.187  34.850   8.264
 1530POPC   C3B22089  39.211  34.808   7.964
 1530POPC   C4B22090  39.163  34.799   7.664
 1531POPC   NC322091  43.140  38.464   9.464
 1531POPC   PO422092  43.130  38.454   9.164
 1531POPC   GL122093  43.065  38.469   8.864
 1531POPC   GL222094  43.045  38.350   8.864
 1531POPC   C1A22095  43.081  38.486   8.564
 1531POPC   D2A22096  43.070  38.486   8.264
 1531POPC   C3A22097  43.103  38.480   7.964
 1531POPC   C4A22098  43.131  38.489   7.664
 1531POPC   C1B22099  43.002  38.256   8.564
 1531POPC   C2B22100  42.969  38.232   8.264
 1531POPC   C3B22101  42.952  38.272   7.964
 1531POPC   C4B22102  42.909  38.212   7.664
 1532POPC   NC322103  40.767  24.447   9.464
 1532POPC   PO422104  40.828  24.520   9.164
 1532POPC   GL122105  40.810  24.536   8.864
 1532POPC   GL222106  40.672  24.463   8.864
 1532POPC   C1A22107  40.758  24.472   8.564
 1532POPC   D2A22108  40.824  24.516   8.264
 1532POPC   C3A22109  40.761  24.493   7.964
 1532POPC   C4A22110  40.815  24.500   7.664
 1532POPC   C1B22111  40.527  24.352   8.564
 1532POPC   C2B22112  40.591  24.388   8.264
 1532POPC   C3B22113  40.526  24.369   7.964
 1532POPC   C4B22114  40.542  24.329   7.664
 1533POPC   NC322115   3.535  37.689   9.464
 1533POPC   PO422116   3.522  37.725   9.164
 1533POPC   GL122117   3.501  37.637   8.864
 1533POPC   GL222118   3.582  37.804   8.864
 1533POPC   C1A22119   3.516  37.705   8.564
 1533POPC   D2A22120   3.504  37.723   8.264
 1533POPC   C3A22121   3.531  37.670   7.964
 1533POPC   C4A22122   3.562  37.658   7.664
 1533POPC   C1B22123   3.503  37.887   8.564
 1533POPC   C2B22124   3.551  37.953   8.264
 1533POPC   C3B22125   3.589  37.909   7.964
 1533POPC   C4B22126   3.548  37.881   7.664
 1534POPC   NC322127  14.388  42.372   9.464
 1534POPC   PO422128  14.388  42.316   9.164
 1534POPC   GL122129  14.447  42.343   8.864
 1534POPC   GL222130  14.478  42.270   8.864
 1534POPC   C1A22131  14.390  42.334   8.564
 1534POPC   D2A22132  14.393  42.352   8.264
 1534POPC   C3A22133  14.440  42.375   7.964
 1534POPC   C4A22134  14.397  42.365   7.664
 1534POPC   C1B22135  14.495  42.079   8.564
 1534POPC   C2B22136  14.548  42.075   8.264
 1534POPC   C3B22137  14.516  42.095   7.964
 1534POPC   C4B22138  14.529  42.070   7.664
 1535POPC   NC322139  19.820  28.351   9.464
 1535POPC   PO422140  19.856  28.333   9.164
 1535POPC   GL122141  19.835  28.339   8.864
 1535POPC   GL222142  19.692  28.304   8.864
 1535POPC   C1A22143  19.884  28.353   8.564
 1535POPC   D2A22144  19.832  28.335   8.264
 1535POPC   C3A22145  19.789  28.323   7.964
 1535POPC   C4A22146  19.819  28.342   7.664
 1535POPC   C1B22147  19.566  28.328   8.564
 1535POPC   C2B22148  19.628  28.351   8.264
 1535POPC   C3B22149  19.624  28.342   7.964
 1535POPC   C4B22150  19.542  28.299   7.664
 1536POPC   NC322151  28.393   1.223   9.464
 1536POPC   PO422152  28.346   1.206   9.164
 1536POPC   GL122153  28.375   1.179   8.864
 1536POPC   GL222154  28.403   1.372   8.864
 1536POPC   C1A22155  28.370   1.224   8.564
 1536POPC   D2A22156  28.331   1.250   8.264
 1536POPC   C3A22157  28.321   1.174   7.964
 1536POPC   C4A22158  28.378   1.250   7.664
 1536POPC   C1B22159  28.462   1.441   8.564
 1536POPC   C2B22160  28.411   1.420   8.264
 1536POPC   C3B22161  28.381   1.489   7.964
 1536POPC   C4B22162  28.463   1.490   7.664
 1537POPC   NC322163   1.180  28.336   9.464
 1537POPC   PO422164   1.251  28.325   9.164
 1537POPC   GL122165   1.170  28.323   8.864
 1537POPC   GL222166   1.183  28.284   8.864
 1537POPC   C1A22167   1.240  28.384   8.564
 1537POPC   D2A22168   1.184  28.406   8.264
 1537POPC   C3A22169   1.211  28.405   7.964
 1537POPC   C4A22170   1.211  28.333   7.664
 1537POPC   C1B22171   1.116  28.197   8.564
 1537POPC   C2B22172   1.100  28.197   8.264
 1537POPC   C3B22173   1.085  28.139   7.964
 1537POPC   C4B22174   1.094  28.167   7.664
 1538POPC   NC322175  18.265  43.917   9.464
 1538POPC   PO422176  18.266  43.870   9.164
 1538POPC   GL122177  18.246  43.881   8.864
 1538POPC   GL222178  18.174  43.966   8.864
 1538POPC   C1A22179  18.309  43.855   8.564
 1538POPC   D2A22180  18.271  43.847   8.264
 1538POPC   C3A22181  18.281  43.857   7.964
 1538POPC   C4A22182  18.319  43.895   7.664
 1538POPC   C1B22183  18.043  44.043   8.564
 1538POPC   C2B22184  18.078  44.075   8.264
 1538POPC   C3B22185  18.111  44.065   7.964
 1538POPC   C4B22186  18.130  44.066   7.664
 1539POPC   NC322187  22.977  23.686   9.464
 1539POPC   PO422188  22.982  23.740   9.164
 1539POPC   GL122189  22.893  23.740   8.864
 1539POPC   GL222190  22.921  23.547   8.864
 1539POPC   C1A22191  22.935  23.722   8.564
 1539POPC   D2A22192  22.954  23.676   8.264
 1539POPC   C3A22193  22.965  23.751   7.964
 1539POPC   C4A22194  22.909  23.692   7.664
 1539POPC   C1B22195  22.813  23.460   8.564
 1539POPC   C2B22196  22.881  23.458   8.264
 1539POPC   C3B22197  22.832  23.484   7.964
 1539POPC   C4B22198  22.880  23.519   7.664
 1540POPC   NC322199   8.228  12.837   9.464
 1540POPC   PO422200   8.236  12.817   9.164
 1540POPC   GL122201   8.201  12.834   8.864
 1540POPC   GL222202   8.267  12.702   8.864
 1540POPC   C1A22203   8.242  12.874   8.564
 1540POPC   D2A22204   8.222  12.865   8.264
 1540POPC   C3A22205   8.167  12.897   7.964
 1540POPC   C4A22206   8.149  12.813   7.664
 1540POPC   C1B22207   8.344  12.638   8.564
 1540POPC   C2B22208   8.262  12.605   8.264
 1540POPC   C3B22209   8.322  12.631   7.964
 1540POPC   C4B22210   8.306  12.668   7.664
 1541POPC   NC322211  15.225  25.277   9.464
 1541POPC   PO422212  15.204  25.231   9.164
 1541POPC   GL122213  15.143  25.285   8.864
 1541POPC   GL222214  15.287  25.232   8.864
 1541POPC   C1A22215  15.226  25.274   8.564
 1541POPC   D2A22216  15.221  25.314   8.264
 1541POPC   C3A22217  15.153  25.274   7.964
 1541POPC   C4A22218  15.154  25.308   7.664
 1541POPC   C1B22219  15.455  25.151   8.564
 1541POPC   C2B22220  15.456  25.159   8.264
 1541POPC   C3B22221  15.392  25.195   7.964
 1541POPC   C4B22222  15.411  25.194   7.664
 1542POPC   NC322223  12.032  34.539   9.464
 1542POPC   PO422224  12.101  34.610   9.164
 1542POPC   GL122225  12.076  34.567   8.864
 1542POPC   GL222226  12.138  34.447   8.864
 1542POPC   C1A22227  12.083  34.609   8.564
 1542POPC   D2A22228  12.103  34.599   8.264
 1542POPC   C3A22229  12.040  34.568   7.964
 1542POPC   C4A22230  12.109  34.534   7.664
 1542POPC   C1B22231  12.153  34.365   8.564
 1542POPC   C2B22232  12.141  34.340   8.264
 1542POPC   C3B22233  12.176  34.367   7.964
 1542POPC   C4B22234  12.218  34.364   7.664
 1543POPC   NC322235   1.997  22.984   9.464
 1543POPC   PO422236   2.031  22.950   9.164
 1543POPC   GL122237   1.985  22.907   8.864
 1543POPC   GL222238   2.041  22.801   8.864
 1543POPC   C1A22239   2.036  22.921   8.564
 1543POPC   D2A22240   2.022  22.956   8.264
 1543POPC   C3A22241   1.947  22.904   7.964
 1543POPC   C4A22242   1.962  22.962   7.664
 1543POPC   C1B22243   2.090  22.730   8.564
 1543POPC   C2B22244   2.169  22.722   8.264
 1543POPC   C3B22245   2.103  22.740   7.964
 1543POPC   C4B22246   2.131  22.696   7.664
 1544POPC   NC322247   8.168  14.369   9.464
 1544POPC   PO422248   8.196  14.437   9.164
 1544POPC   GL122249   8.217  14.440   8.864
 1544POPC   GL222250   8.103  14.325   8.864
 1544POPC   C1A22251   8.188  14.408   8.564
 1544POPC   D2A22252   8.168  14.404   8.264
 1544POPC   C3A22253   8.148  14.356   7.964
 1544POPC   C4A22254   8.164  14.396   7.664
 1544POPC   C1B22255   8.012  14.186   8.564
 1544POPC   C2B22256   7.990  14.196   8.264
 1544POPC   C3B22257   7.987  14.167   7.964
 1544POPC   C4B22258   8.017  14.198   7.664
 1545POPC   NC322259  22.899  19.862   9.464
 1545POPC   PO422260  22.902  19.805   9.164
 1545POPC   GL122261  22.937  19.870   8.864
 1545POPC   GL222262  23.016  19.768   8.864
 1545POPC   C1A22263  22.954  19.869   8.564
 1545POPC   D2A22264  22.924  19.835   8.264
 1545POPC   C3A22265  22.899  19.833   7.964
 1545POPC   C4A22266  22.975  19.868   7.664
 1545POPC   C1B22267  23.036  19.581   8.564
 1545POPC   C2B22268  23.049  19.657   8.264
 1545POPC   C3B22269  23.117  19.602   7.964
 1545POPC   C4B22270  23.109  19.638   7.664
 1546POPC   NC322271  33.041   3.525   9.464
 1546POPC   PO422272  33.056   3.582   9.164
 1546POPC   GL122273  33.004   3.579   8.864
 1546POPC   GL222274  33.004   3.701   8.864
 1546POPC   C1A22275  33.063   3.508   8.564
 1546POPC   D2A22276  32.992   3.587   8.264
 1546POPC   C3A22277  33.008   3.569   7.964
 1546POPC   C4A22278  33.017   3.520   7.664
 1546POPC   C1B22279  32.968   3.744   8.564
 1546POPC   C2B22280  32.898   3.780   8.264
 1546POPC   C3B22281  32.898   3.765   7.964
 1546POPC   C4B22282  32.953   3.817   7.664
 1547POPC   NC322283   9.022  22.114   9.464
 1547POPC   PO422284   8.964  22.171   9.164
 1547POPC   GL122285   8.955  22.205   8.864
 1547POPC   GL222286   8.974  22.023   8.864
 1547POPC   C1A22287   8.945  22.190   8.564
 1547POPC   D2A22288   8.956  22.205   8.264
 1547POPC   C3A22289   8.925  22.167   7.964
 1547POPC   C4A22290   9.015  22.159   7.664
 1547POPC   C1B22291   9.063  21.942   8.564
 1547POPC   C2B22292   9.039  21.921   8.264
 1547POPC   C3B22293   9.113  21.901   7.964
 1547POPC   C4B22294   9.071  21.890   7.664
 1548POPC   NC322295  17.513   7.462   9.464
 1548POPC   PO422296  17.471   7.424   9.164
 1548POPC   GL122297  17.533   7.398   8.864
 1548POPC   GL222298  17.665   7.514   8.864
 1548POPC   C1A22299  17.504   7.384   8.564
 1548POPC   D2A22300  17.465   7.418   8.264
 1548POPC   C3A22301  17.490   7.409   7.964
 1548POPC   C4A22302  17.533   7.411   7.664
 1548POPC   C1B22303  17.757   7.542   8.564
 1548POPC   C2B22304  17.755   7.536   8.264
 1548POPC   C3B22305  17.705   7.528   7.964
 1548POPC   C4B22306  17.703   7.530   7.664
 1549POPC   NC322307  38.434  43.857   9.464
 1549POPC   PO422308  38.464  43.854   9.164
 1549POPC   GL122309  38.406  43.854   8.864
 1549POPC   GL222310  38.521  43.978   8.864
 1549POPC   C1A22311  38.412  43.900   8.564
 1549POPC   D2A22312  38.435  43.914   8.264
 1549POPC   C3A22313  38.467  43.883   7.964
 1549POPC   C4A22314  38.440  43.932   7.664
 1549POPC   C1B22315  38.561  44.100   8.564
 1549POPC   C2B22316  38.538  44.150   8.264
 1549POPC   C3B22317  38.562  44.110   7.964
 1549POPC   C4B22318  38.556  44.088   7.664
 1550POPC   NC322319  13.615  16.711   9.464
 1550POPC   PO422320  13.662  16.776   9.164
 1550POPC   GL122321  13.617  16.707   8.864
 1550POPC   GL222322  13.607  16.875   8.864
 1550POPC   C1A22323  13.657  16.695   8.564
 1550POPC   D2A22324  13.584  16.774   8.264
 1550POPC   C3A22325  13.652  16.723   7.964
 1550POPC   C4A22326  13.628  16.731   7.664
 1550POPC   C1B22327  13.609  16.928   8.564
 1550POPC   C2B22328  13.585  16.943   8.264
 1550POPC   C3B22329  13.533  16.925   7.964
 1550POPC   C4B22330  13.595  17.015   7.664
 1551POPC   NC322331  38.468  33.792   9.464
 1551POPC   PO422332  38.432  33.820   9.164
 1551POPC   GL122333  38.499  33.812   8.864
 1551POPC   GL222334  38.585  33.726   8.864
 1551POPC   C1A22335  38.450  33.849   8.564
 1551POPC   D2A22336  38.449  33.793   8.264
 1551POPC   C3A22337  38.491  33.811   7.964
 1551POPC   C4A22338  38.461  33.819   7.664
 1551POPC   C1B22339  38.710  33.740   8.564
 1551POPC   C2B22340  38.678  33.741   8.264
 1551POPC   C3B22341  38.737  33.756   7.964
 1551POPC   C4B22342  38.703  33.703   7.664
 1552POPC   NC322343  22.135  22.185   9.464
 1552POPC   PO422344  22.121  22.174   9.164
 1552POPC   GL122345  22.211  22.129   8.864
 1552POPC   GL222346  22.198  22.078   8.864
 1552POPC   C1A22347  22.186  22.196   8.564
 1552POPC   D2A22348  22.130  22.118   8.264
 1552POPC   C3A22349  22.171  22.199   7.964
 1552POPC   C4A22350  22.138  22.184   7.664
 1552POPC   C1B22351  22.216  21.946   8.564
 1552POPC   C2B22352  22.164  21.956   8.264
 1552POPC   C3B22353  22.191  21.952   7.964
 1552POPC   C4B22354  22.142  21.913   7.664
 1553POPC   NC322355  23.708  37.651   9.464
 1553POPC   PO422356  23.758  37.715   9.164
 1553POPC   GL122357  23.707  37.692   8.864
 1553POPC   GL222358  23.593  37.709   8.864
 1553POPC   C1A22359  23.685  37.662   8.564
 1553POPC   D2A22360  23.704  37.655   8.264
 1553POPC   C3A22361  23.709  37.713   7.964
 1553POPC   C4A22362  23.697  37.664   7.664
 1553POPC   C1B22363  23.488  37.772   8.564
 1553POPC   C2B22364  23.464  37.813   8.264
 1553POPC   C3B22365  23.496  37.819   7.964
 1553POPC   C4B22366  23.443  37.780   7.664
 1554POPC   NC322367   3.559  17.545   9.464
 1554POPC   PO422368   3.506  17.522   9.164
 1554POPC   GL122369   3.519  17.475   8.864
 1554POPC   GL222370   3.616  17.613   8.864
 1554POPC   C1A22371   3.506  17.509   8.564
 1554POPC   D2A22372   3.589  17.556   8.264
 1554POPC   C3A22373   3.507  17.539   7.964
 1554POPC   C4A22374   3.528  17.507   7.664
 1554POPC   C1B22375   3.734  17.655   8.564
 1554POPC   C2B22376   3.709  17.717   8.264
 1554POPC   C3B22377   3.743  17.625   7.964
 1554POPC   C4B22378   3.711  17.692   7.664
 1555POPC   NC322379  25.217  21.371   9.464
 1555POPC   PO422380  25.286  21.371   9.164
 1555POPC   GL122381  25.253  21.404   8.864
 1555POPC   GL222382  25.126  21.446   8.864
 1555POPC   C1A22383  25.231  21.398   8.564
 1555POPC   D2A22384  25.308  21.436   8.264
 1555POPC   C3A22385  25.223  21.341   7.964
 1555POPC   C4A22386  25.240  21.427   7.664
 1555POPC   C1B22387  25.109  21.549   8.564
 1555POPC   C2B22388  25.061  21.545   8.264
 1555POPC   C3B22389  25.057  21.537   7.964
 1555POPC   C4B22390  25.050  21.492   7.664
 1556POPC   NC322391  32.203  24.482   9.464
 1556POPC   PO422392  32.234  24.457   9.164
 1556POPC   GL122393  32.259  24.497   8.864
 1556POPC   GL222394  32.356  24.511   8.864
 1556POPC   C1A22395  32.283  24.499   8.564
 1556POPC   D2A22396  32.232  24.452   8.264
 1556POPC   C3A22397  32.232  24.520   7.964
 1556POPC   C4A22398  32.296  24.467   7.664
 1556POPC   C1B22399  32.464  24.649   8.564
 1556POPC   C2B22400  32.467  24.668   8.264
 1556POPC   C3B22401  32.412  24.638   7.964
 1556POPC   C4B22402  32.443  24.611   7.664
 1557POPC   NC322403  42.301  11.308   9.464
 1557POPC   PO422404  42.311  11.347   9.164
 1557POPC   GL122405  42.296  11.330   8.864
 1557POPC   GL222406  42.202  11.181   8.864
 1557POPC   C1A22407  42.340  11.295   8.564
 1557POPC   D2A22408  42.345  11.260   8.264
 1557POPC   C3A22409  42.310  11.343   7.964
 1557POPC   C4A22410  42.355  11.314   7.664
 1557POPC   C1B22411  42.123  11.096   8.564
 1557POPC   C2B22412  42.173  11.118   8.264
 1557POPC   C3B22413  42.130  11.126   7.964
 1557POPC   C4B22414  42.089  11.187   7.664
 1558POPC   NC322415  36.884  35.307   9.464
 1558POPC   PO422416  36.856  35.396   9.164
 1558POPC   GL122417  36.903  35.381   8.864
 1558POPC   GL222418  36.894  35.227   8.864
 1558POPC   C1A22419  36.894  35.371   8.564
 1558POPC   D2A22420  36.912  35.311   8.264
 1558POPC   C3A22421  36.951  35.355   7.964
 1558POPC   C4A22422  36.879  35.371   7.664
 1558POPC   C1B22423  36.877  35.054   8.564
 1558POPC   C2B22424  36.862  35.052   8.264
 1558POPC   C3B22425  36.878  35.106   7.964
 1558POPC   C4B22426  36.922  35.111   7.664
 1559POPC   NC322427   4.270  27.553   9.464
 1559POPC   PO422428   4.280  27.560   9.164
 1559POPC   GL122429   4.268  27.552   8.864
 1559POPC   GL222430   4.229  27.511   8.864
 1559POPC   C1A22431   4.344  27.608   8.564
 1559POPC   D2A22432   4.356  27.560   8.264
 1559POPC   C3A22433   4.286  27.559   7.964
 1559POPC   C4A22434   4.320  27.612   7.664
 1559POPC   C1B22435   4.216  27.384   8.564
 1559POPC   C2B22436   4.250  27.326   8.264
 1559POPC   C3B22437   4.167  27.391   7.964
 1559POPC   C4B22438   4.228  27.329   7.664
 1560POPC   NC322439  18.287  25.289   9.464
 1560POPC   PO422440  18.234  25.272   9.164
 1560POPC   GL122441  18.318  25.300   8.864
 1560POPC   GL222442  18.148  25.375   8.864
 1560POPC   C1A22443  18.305  25.313   8.564
 1560POPC   D2A22444  18.261  25.265   8.264
 1560POPC   C3A22445  18.318  25.242   7.964
 1560POPC   C4A22446  18.283  25.221   7.664
 1560POPC   C1B22447  18.075  25.482   8.564
 1560POPC   C2B22448  18.054  25.445   8.264
 1560POPC   C3B22449  18.133  25.477   7.964
 1560POPC   C4B22450  18.051  25.473   7.664
 1561POPC   NC322451  21.392  26.837   9.464
 1561POPC   PO422452  21.431  26.772   9.164
 1561POPC   GL122453  21.337  26.788   8.864
 1561POPC   GL222454  21.530  26.810   8.864
 1561POPC   C1A22455  21.368  26.836   8.564
 1561POPC   D2A22456  21.341  26.804   8.264
 1561POPC   C3A22457  21.384  26.857   7.964
 1561POPC   C4A22458  21.420  26.783   7.664
 1561POPC   C1B22459  21.664  26.834   8.564
 1561POPC   C2B22460  21.665  26.776   8.264
 1561POPC   C3B22461  21.632  26.824   7.964
 1561POPC   C4B22462  21.593  26.846   7.664
 1562POPC   NC322463  32.983  19.036   9.464
 1562POPC   PO422464  33.034  19.072   9.164
 1562POPC   GL122465  32.999  19.084   8.864
 1562POPC   GL222466  32.861  19.037   8.864
 1562POPC   C1A22467  33.073  19.031   8.564
 1562POPC   D2A22468  33.045  19.017   8.264
 1562POPC   C3A22469  33.034  19.093   7.964
 1562POPC   C4A22470  33.044  19.071   7.664
 1562POPC   C1B22471  32.770  19.006   8.564
 1562POPC   C2B22472  32.748  18.993   8.264
 1562POPC   C3B22473  32.820  19.044   7.964
 1562POPC   C4B22474  32.743  18.990   7.664
 1563POPC   NC322475   7.418   3.541   9.464
 1563POPC   PO422476   7.397   3.556   9.164
 1563POPC   GL122477   7.427   3.555   8.864
 1563POPC   GL222478   7.372   3.385   8.864
 1563POPC   C1A22479   7.409   3.553   8.564
 1563POPC   D2A22480   7.383   3.523   8.264
 1563POPC   C3A22481   7.429   3.546   7.964
 1563POPC   C4A22482   7.455   3.518   7.664
 1563POPC   C1B22483   7.319   3.264   8.564
 1563POPC   C2B22484   7.324   3.259   8.264
 1563POPC   C3B22485   7.359   3.335   7.964
 1563POPC   C4B22486   7.386   3.283   7.664
 1564POPC   NC322487  41.581  32.271   9.464
 1564POPC   PO422488  41.531  32.249   9.164
 1564POPC   GL122489  41.545  32.217   8.864
 1564POPC   GL222490  41.418  32.321   8.864
 1564POPC   C1A22491  41.593  32.266   8.564
 1564POPC   D2A22492  41.533  32.283   8.264
 1564POPC   C3A22493  41.605  32.295   7.964
 1564POPC   C4A22494  41.534  32.266   7.664
 1564POPC   C1B22495  41.343  32.410   8.564
 1564POPC   C2B22496  41.353  32.360   8.264
 1564POPC   C3B22497  41.300  32.358   7.964
 1564POPC   C4B22498  41.397  32.361   7.664
 1565POPC   NC322499  33.063  26.078   9.464
 1565POPC   PO422500  33.072  26.019   9.164
 1565POPC   GL122501  33.007  26.025   8.864
 1565POPC   GL222502  33.076  26.118   8.864
 1565POPC   C1A22503  33.012  26.056   8.564
 1565POPC   D2A22504  33.038  26.011   8.264
 1565POPC   C3A22505  33.004  26.051   7.964
 1565POPC   C4A22506  33.051  26.042   7.664
 1565POPC   C1B22507  33.092  26.323   8.564
 1565POPC   C2B22508  33.090  26.316   8.264
 1565POPC   C3B22509  33.074  26.250   7.964
 1565POPC   C4B22510  33.064  26.289   7.664
 1566POPC   NC322511  19.031  15.189   9.464
 1566POPC   PO422512  19.100  15.222   9.164
 1566POPC   GL122513  19.009  15.201   8.864
 1566POPC   GL222514  18.994  15.249   8.864
 1566POPC   C1A22515  19.067  15.154   8.564
 1566POPC   D2A22516  19.067  15.196   8.264
 1566POPC   C3A22517  19.090  15.140   7.964
 1566POPC   C4A22518  19.023  15.208   7.664
 1566POPC   C1B22519  18.845  15.390   8.564
 1566POPC   C2B22520  18.888  15.328   8.264
 1566POPC   C3B22521  18.838  15.306   7.964
 1566POPC   C4B22522  18.925  15.362   7.664
 1567POPC   NC322523  21.434  42.360   9.464
 1567POPC   PO422524  21.354  42.312   9.164
 1567POPC   GL122525  21.341  42.318   8.864
 1567POPC   GL222526  21.482  42.394   8.864
 1567POPC   C1A22527  21.420  42.350   8.564
 1567POPC   D2A22528  21.365  42.350   8.264
 1567POPC   C3A22529  21.365  42.289   7.964
 1567POPC   C4A22530  21.400  42.292   7.664
 1567POPC   C1B22531  21.609  42.378   8.564
 1567POPC   C2B22532  21.584  42.434   8.264
 1567POPC   C3B22533  21.668  42.404   7.964
 1567POPC   C4B22534  21.611  42.367   7.664
 1568POPC   NC322535   5.121   6.677   9.464
 1568POPC   PO422536   5.078   6.653   9.164
 1568POPC   GL122537   5.142   6.661   8.864
 1568POPC   GL222538   5.130   6.567   8.864
 1568POPC   C1A22539   5.098   6.603   8.564
 1568POPC   D2A22540   5.078   6.663   8.264
 1568POPC   C3A22541   5.123   6.659   7.964
 1568POPC   C4A22542   5.102   6.620   7.664
 1568POPC   C1B22543   5.192   6.372   8.564
 1568POPC   C2B22544   5.185   6.454   8.264
 1568POPC   C3B22545   5.132   6.371   7.964
 1568POPC   C4B22546   5.115   6.413   7.664
 1569POPC   NC322547   9.783  21.392   9.464
 1569POPC   PO422548   9.761  21.338   9.164
 1569POPC   GL122549   9.797  21.411   8.864
 1569POPC   GL222550   9.886  21.410   8.864
 1569POPC   C1A22551   9.711  21.374   8.564
 1569POPC   D2A22552   9.736  21.416   8.264
 1569POPC   C3A22553   9.786  21.407   7.964
 1569POPC   C4A22554   9.700  21.400   7.664
 1569POPC   C1B22555  10.018  21.491   8.564
 1569POPC   C2B22556  10.030  21.483   8.264
 1569POPC   C3B22557   9.975  21.485   7.964
 1569POPC   C4B22558   9.949  21.501   7.664
 1570POPC   NC322559  11.258  18.251   9.464
 1570POPC   PO422560  11.328  18.239   9.164
 1570POPC   GL122561  11.296  18.319   8.864
 1570POPC   GL222562  11.349  18.202   8.864
 1570POPC   C1A22563  11.337  18.251   8.564
 1570POPC   D2A22564  11.318  18.301   8.264
 1570POPC   C3A22565  11.271  18.235   7.964
 1570POPC   C4A22566  11.344  18.326   7.664
 1570POPC   C1B22567  11.497  18.069   8.564
 1570POPC   C2B22568  11.522  18.110   8.264
 1570POPC   C3B22569  11.480  18.095   7.964
 1570POPC   C4B22570  11.478  18.151   7.664
 1571POPC   NC322571  22.970   6.605   9.464
 1571POPC   PO422572  22.923   6.666   9.164
 1571POPC   GL122573  22.891   6.651   8.864
 1571POPC   GL222574  22.856   6.653   8.864
 1571POPC   C1A22575  22.925   6.685   8.564
 1571POPC   D2A22576  22.965   6.643   8.264
 1571POPC   C3A22577  22.916   6.689   7.964
 1571POPC   C4A22578  22.961   6.690   7.664
 1571POPC   C1B22579  22.670   6.709   8.564
 1571POPC   C2B22580  22.654   6.724   8.264
 1571POPC   C3B22581  22.670   6.747   7.964
 1571POPC   C4B22582  22.716   6.694   7.664
 1572POPC   NC322583   9.731   0.471   9.464
 1572POPC   PO422584   9.795   0.450   9.164
 1572POPC   GL122585   9.701   0.395   8.864
 1572POPC   GL222586   9.764   0.571   8.864
 1572POPC   C1A22587   9.784   0.439   8.564
 1572POPC   D2A22588   9.719   0.414   8.264
 1572POPC   C3A22589   9.730   0.440   7.964
 1572POPC   C4A22590   9.774   0.414   7.664
 1572POPC   C1B22591   9.699   0.693   8.564
 1572POPC   C2B22592   9.709   0.721   8.264
 1572POPC   C3B22593   9.653   0.687   7.964
 1572POPC   C4B22594   9.691   0.653   7.664
 1573POPC   NC322595  33.783   1.246   9.464
 1573POPC   PO422596  33.816   1.165   9.164
 1573POPC   GL122597  33.817   1.190   8.864
 1573POPC   GL222598  33.720   1.226   8.864
 1573POPC   C1A22599  33.848   1.232   8.564
 1573POPC   D2A22600  33.772   1.238   8.264
 1573POPC   C3A22601  33.842   1.237   7.964
 1573POPC   C4A22602  33.751   1.179   7.664
 1573POPC   C1B22603  33.567   1.278   8.564
 1573POPC   C2B22604  33.582   1.230   8.264
 1573POPC   C3B22605  33.564   1.204   7.964
 1573POPC   C4B22606  33.596   1.212   7.664
 1574POPC   NC322607  38.426   2.037   9.464
 1574POPC   PO422608  38.440   1.965   9.164
 1574POPC   GL122609  38.454   1.954   8.864
 1574POPC   GL222610  38.552   1.924   8.864
 1574POPC   C1A22611  38.431   2.035   8.564
 1574POPC   D2A22612  38.496   1.959   8.264
 1574POPC   C3A22613  38.478   1.955   7.964
 1574POPC   C4A22614  38.462   1.977   7.664
 1574POPC   C1B22615  38.622   1.852   8.564
 1574POPC   C2B22616  38.638   1.836   8.264
 1574POPC   C3B22617  38.653   1.872   7.964
 1574POPC   C4B22618  38.624   1.850   7.664
 1575POPC   NC322619  21.368   1.998   9.464
 1575POPC   PO422620  21.397   1.941   9.164
 1575POPC   GL122621  21.379   1.952   8.864
 1575POPC   GL222622  21.382   2.132   8.864
 1575POPC   C1A22623  21.362   2.007   8.564
 1575POPC   D2A22624  21.418   1.971   8.264
 1575POPC   C3A22625  21.430   1.994   7.964
 1575POPC   C4A22626  21.378   1.969   7.664
 1575POPC   C1B22627  21.429   2.262   8.564
 1575POPC   C2B22628  21.377   2.248   8.264
 1575POPC   C3B22629  21.441   2.286   7.964
 1575POPC   C4B22630  21.346   2.249   7.664
 1576POPC   NC322631   8.970  29.108   9.464
 1576POPC   PO422632   8.971  29.121   9.164
 1576POPC   GL122633   8.975  29.141   8.864
 1576POPC   GL222634   9.140  29.095   8.864
 1576POPC   C1A22635   8.953  29.125   8.564
 1576POPC   D2A22636   9.015  29.191   8.264
 1576POPC   C3A22637   8.986  29.120   7.964
 1576POPC   C4A22638   8.983  29.141   7.664
 1576POPC   C1B22639   9.191  29.099   8.564
 1576POPC   C2B22640   9.249  29.133   8.264
 1576POPC   C3B22641   9.215  29.048   7.964
 1576POPC   C4B22642   9.177  29.095   7.664
 1577POPC   NC322643  35.331  22.916   9.464
 1577POPC   PO422644  35.380  22.976   9.164
 1577POPC   GL122645  35.352  22.947   8.864
 1577POPC   GL222646  35.405  23.015   8.864
 1577POPC   C1A22647  35.398  22.975   8.564
 1577POPC   D2A22648  35.391  22.903   8.264
 1577POPC   C3A22649  35.367  22.925   7.964
 1577POPC   C4A22650  35.340  22.906   7.664
 1577POPC   C1B22651  35.375  23.208   8.564
 1577POPC   C2B22652  35.388  23.218   8.264
 1577POPC   C3B22653  35.374  23.223   7.964
 1577POPC   C4B22654  35.400  23.212   7.664
 1578POPC   NC322655  10.566   6.652   9.464
 1578POPC   PO422656  10.541   6.631   9.164
 1578POPC   GL122657  10.529   6.692   8.864
 1578POPC   GL222658  10.586   6.705   8.864
 1578POPC   C1A22659  10.561   6.676   8.564
 1578POPC   D2A22660  10.492   6.646   8.264
 1578POPC   C3A22661  10.480   6.661   7.964
 1578POPC   C4A22662  10.478   6.669   7.664
 1578POPC   C1B22663  10.696   6.867   8.564
 1578POPC   C2B22664  10.627   6.843   8.264
 1578POPC   C3B22665  10.702   6.886   7.964
 1578POPC   C4B22666  10.618   6.855   7.664
 1579POPC   NC322667   5.874  36.168   9.464
 1579POPC   PO422668   5.856  36.119   9.164
 1579POPC   GL122669   5.888  36.142   8.864
 1579POPC   GL222670   5.994  36.114   8.864
 1579POPC   C1A22671   5.875  36.119   8.564
 1579POPC   D2A22672   5.822  36.151   8.264
 1579POPC   C3A22673   5.886  36.119   7.964
 1579POPC   C4A22674   5.888  36.165   7.664
 1579POPC   C1B22675   6.119  36.040   8.564
 1579POPC   C2B22676   6.121  36.049   8.264
 1579POPC   C3B22677   6.110  35.994   7.964
 1579POPC   C4B22678   6.105  36.028   7.664
 1580POPC   NC322679  25.291   5.850   9.464
 1580POPC   PO422680  25.302   5.875   9.164
 1580POPC   GL122681  25.221   5.843   8.864
 1580POPC   GL222682  25.206   5.989   8.864
 1580POPC   C1A22683  25.290   5.873   8.564
 1580POPC   D2A22684  25.295   5.835   8.264
 1580POPC   C3A22685  25.308   5.844   7.964
 1580POPC   C4A22686  25.243   5.847   7.664
 1580POPC   C1B22687  25.032   6.065   8.564
 1580POPC   C2B22688  25.069   5.992   8.264
 1580POPC   C3B22689  25.051   6.066   7.964
 1580POPC   C4B22690  25.083   5.997   7.664
 1581POPC   NC322691  42.383  37.665   9.464
 1581POPC   PO422692  42.321  37.634   9.164
 1581POPC   GL122693  42.379  37.668   8.864
 1581POPC   GL222694  42.415  37.650   8.864
 1581POPC   C1A22695  42.376  37.658   8.564
 1581POPC   D2A22696  42.327  37.685   8.264
 1581POPC   C3A22697  42.322  37.665   7.964
 1581POPC   C4A22698  42.369  37.685   7.664
 1581POPC   C1B22699  42.580  37.499   8.564
 1581POPC   C2B22700  42.554  37.509   8.264
 1581POPC   C3B22701  42.500  37.513   7.964
 1581POPC   C4B22702  42.513  37.555   7.664
 1582POPC   NC322703  14.383  34.537   9.464
 1582POPC   PO422704  14.414  34.569   9.164
 1582POPC   GL122705  14.415  34.621   8.864
 1582POPC   GL222706  14.433  34.485   8.864
 1582POPC   C1A22707  14.423  34.606   8.564
 1582POPC   D2A22708  14.429  34.570   8.264
 1582POPC   C3A22709  14.441  34.591   7.964
 1582POPC   C4A22710  14.412  34.621   7.664
 1582POPC   C1B22711  14.430  34.371   8.564
 1582POPC   C2B22712  14.458  34.352   8.264
 1582POPC   C3B22713  14.370  34.345   7.964
 1582POPC   C4B22714  14.422  34.371   7.664
 1583POPC   NC322715  42.346  41.562   9.464
 1583POPC   PO422716  42.366  41.513   9.164
 1583POPC   GL122717  42.306  41.545   8.864
 1583POPC   GL222718  42.367  41.424   8.864
 1583POPC   C1A22719  42.376  41.576   8.564
 1583POPC   D2A22720  42.382  41.531   8.264
 1583POPC   C3A22721  42.286  41.606   7.964
 1583POPC   C4A22722  42.366  41.523   7.664
 1583POPC   C1B22723  42.393  41.313   8.564
 1583POPC   C2B22724  42.434  41.345   8.264
 1583POPC   C3B22725  42.425  41.287   7.964
 1583POPC   C4B22726  42.409  41.340   7.664
 1584POPC   NC322727   5.836  11.268   9.464
 1584POPC   PO422728   5.865  11.281   9.164
 1584POPC   GL122729   5.819  11.329   8.864
 1584POPC   GL222730   6.034  11.287   8.864
 1584POPC   C1A22731   5.828  11.261   8.564
 1584POPC   D2A22732   5.870  11.346   8.264
 1584POPC   C3A22733   5.856  11.259   7.964
 1584POPC   C4A22734   5.882  11.337   7.664
 1584POPC   C1B22735   6.089  11.332   8.564
 1584POPC   C2B22736   6.125  11.348   8.264
 1584POPC   C3B22737   6.069  11.313   7.964
 1584POPC   C4B22738   6.086  11.388   7.664
 1585POPC   NC322739  37.713  29.891   9.464
 1585POPC   PO422740  37.688  29.960   9.164
 1585POPC   GL122741  37.689  29.932   8.864
 1585POPC   GL222742  37.802  29.956   8.864
 1585POPC   C1A22743  37.692  29.897   8.564
 1585POPC   D2A22744  37.704  29.948   8.264
 1585POPC   C3A22745  37.677  29.903   7.964
 1585POPC   C4A22746  37.649  29.873   7.664
 1585POPC   C1B22747  37.862  30.052   8.564
 1585POPC   C2B22748  37.938  29.992   8.264
 1585POPC   C3B22749  37.895  30.015   7.964
 1585POPC   C4B22750  37.948  29.996   7.664
 1586POPC   NC322751  23.668  41.607   9.464
 1586POPC   PO422752  23.682  41.520   9.164
 1586POPC   GL122753  23.702  41.543   8.864
 1586POPC   GL222754  23.848  41.559   8.864
 1586POPC   C1A22755  23.706  41.562   8.564
 1586POPC   D2A22756  23.756  41.557   8.264
 1586POPC   C3A22757  23.702  41.608   7.964
 1586POPC   C4A22758  23.707  41.512   7.664
 1586POPC   C1B22759  23.920  41.578   8.564
 1586POPC   C2B22760  23.961  41.572   8.264
 1586POPC   C3B22761  24.012  41.563   7.964
 1586POPC   C4B22762  23.978  41.596   7.664
 1587POPC   NC322763  37.715  30.725   9.464
 1587POPC   PO422764  37.653  30.710   9.164
 1587POPC   GL122765  37.639  30.654   8.864
 1587POPC   GL222766  37.631  30.592   8.864
 1587POPC   C1A22767  37.662  30.703   8.564
 1587POPC   D2A22768  37.674  30.698   8.264
 1587POPC   C3A22769  37.708  30.717   7.964
 1587POPC   C4A22770  37.676  30.736   7.664
 1587POPC   C1B22771  37.589  30.445   8.564
 1587POPC   C2B22772  37.620  30.459   8.264
 1587POPC   C3B22773  37.620  30.469   7.964
 1587POPC   C4B22774  37.559  30.456   7.664
 1588POPC   NC322775   3.495   8.944   9.464
 1588POPC   PO422776   3.523   8.925   9.164
 1588POPC   GL122777   3.564   8.992   8.864
 1588POPC   GL222778   3.512   8.872   8.864
 1588POPC   C1A22779   3.502   8.939   8.564
 1588POPC   D2A22780   3.533   8.992   8.264
 1588POPC   C3A22781   3.576   8.983   7.964
 1588POPC   C4A22782   3.497   9.017   7.664
 1588POPC   C1B22783   3.457   8.772   8.564
 1588POPC   C2B22784   3.364   8.804   8.264
 1588POPC   C3B22785   3.397   8.793   7.964
 1588POPC   C4B22786   3.417   8.781   7.664
 1589POPC   NC322787   5.090   8.929   9.464
 1589POPC   PO422788   5.099   8.966   9.164
 1589POPC   GL122789   5.102   8.990   8.864
 1589POPC   GL222790   5.159   9.134   8.864
 1589POPC   C1A22791   5.050   9.017   8.564
 1589POPC   D2A22792   5.116   8.987   8.264
 1589POPC   C3A22793   5.085   8.929   7.964
 1589POPC   C4A22794   5.084   8.934   7.664
 1589POPC   C1B22795   5.151   9.247   8.564
 1589POPC   C2B22796   5.163   9.235   8.264
 1589POPC   C3B22797   5.203   9.207   7.964
 1589POPC   C4B22798   5.125   9.256   7.664
 1590POPC   NC322799  29.889  17.536   9.464
 1590POPC   PO422800  29.930  17.539   9.164
 1590POPC   GL122801  29.917  17.524   8.864
 1590POPC   GL222802  29.958  17.590   8.864
 1590POPC   C1A22803  29.920  17.486   8.564
 1590POPC   D2A22804  29.921  17.538   8.264
 1590POPC   C3A22805  29.921  17.547   7.964
 1590POPC   C4A22806  29.890  17.471   7.664
 1590POPC   C1B22807  30.113  17.741   8.564
 1590POPC   C2B22808  30.115  17.687   8.264
 1590POPC   C3B22809  30.031  17.665   7.964
 1590POPC   C4B22810  30.076  17.655   7.664
 1591POPC   NC322811  13.607  25.258   9.464
 1591POPC   PO422812  13.655  25.269   9.164
 1591POPC   GL122813  13.582  25.312   8.864
 1591POPC   GL222814  13.513  25.224   8.864
 1591POPC   C1A22815  13.645  25.254   8.564
 1591POPC   D2A22816  13.652  25.296   8.264
 1591POPC   C3A22817  13.607  25.277   7.964
 1591POPC   C4A22818  13.614  25.293   7.664
 1591POPC   C1B22819  13.346  25.287   8.564
 1591POPC   C2B22820  13.426  25.306   8.264
 1591POPC   C3B22821  13.377  25.303   7.964
 1591POPC   C4B22822  13.411  25.277   7.664
 1592POPC   NC322823   0.417  25.226   9.464
 1592POPC   PO422824   0.448  25.220   9.164
 1592POPC   GL122825   0.467  25.227   8.864
 1592POPC   GL222826   0.385  25.192   8.864
 1592POPC   C1A22827   0.414  25.277   8.564
 1592POPC   D2A22828   0.433  25.222   8.264
 1592POPC   C3A22829   0.452  25.235   7.964
 1592POPC   C4A22830   0.474  25.221   7.664
 1592POPC   C1B22831   0.362  25.072   8.564
 1592POPC   C2B22832   0.286  24.992   8.264
 1592POPC   C3B22833   0.371  25.028   7.964
 1592POPC   C4B22834   0.294  25.023   7.664
 1593POPC   NC322835   2.718   2.716   9.464
 1593POPC   PO422836   2.814   2.732   9.164
 1593POPC   GL122837   2.791   2.729   8.864
 1593POPC   GL222838   2.782   2.693   8.864
 1593POPC   C1A22839   2.727   2.762   8.564
 1593POPC   D2A22840   2.765   2.778   8.264
 1593POPC   C3A22841   2.763   2.790   7.964
 1593POPC   C4A22842   2.752   2.777   7.664
 1593POPC   C1B22843   2.895   2.530   8.564
 1593POPC   C2B22844   2.821   2.517   8.264
 1593POPC   C3B22845   2.815   2.522   7.964
 1593POPC   C4B22846   2.879   2.505   7.664
 1594POPC   NC322847   4.358  20.595   9.464
 1594POPC   PO422848   4.297  20.622   9.164
 1594POPC   GL122849   4.274  20.628   8.864
 1594POPC   GL222850   4.433  20.740   8.864
 1594POPC   C1A22851   4.333  20.646   8.564
 1594POPC   D2A22852   4.283  20.610   8.264
 1594POPC   C3A22853   4.356  20.625   7.964
 1594POPC   C4A22854   4.281  20.605   7.664
 1594POPC   C1B22855   4.501  20.822   8.564
 1594POPC   C2B22856   4.467  20.865   8.264
 1594POPC   C3B22857   4.433  20.833   7.964
 1594POPC   C4B22858   4.465  20.818   7.664
 1595POPC   NC322859  16.773   2.035   9.464
 1595POPC   PO422860  16.760   1.959   9.164
 1595POPC   GL122861  16.706   1.977   8.864
 1595POPC   GL222862  16.853   2.010   8.864
 1595POPC   C1A22863  16.758   1.996   8.564
 1595POPC   D2A22864  16.720   2.024   8.264
 1595POPC   C3A22865  16.771   2.002   7.964
 1595POPC   C4A22866  16.724   1.957   7.664
 1595POPC   C1B22867  16.981   1.946   8.564
 1595POPC   C2B22868  17.012   1.999   8.264
 1595POPC   C3B22869  16.950   1.928   7.964
 1595POPC   C4B22870  16.981   1.956   7.664
 1596POPC   NC322871  33.048   5.061   9.464
 1596POPC   PO422872  33.057   5.117   9.164
 1596POPC   GL122873  32.996   5.102   8.864
 1596POPC   GL222874  33.092   5.202   8.864
 1596POPC   C1A22875  33.063   5.090   8.564
 1596POPC   D2A22876  33.037   5.106   8.264
 1596POPC   C3A22877  33.004   5.105   7.964
 1596POPC   C4A22878  33.004   5.138   7.664
 1596POPC   C1B22879  33.103   5.361   8.564
 1596POPC   C2B22880  33.061   5.290   8.264
 1596POPC   C3B22881  33.047   5.364   7.964
 1596POPC   C4B22882  33.094   5.339   7.664
 1597POPC   NC322883  30.653   1.190   9.464
 1597POPC   PO422884  30.654   1.259   9.164
 1597POPC   GL122885  30.656   1.199   8.864
 1597POPC   GL222886  30.812   1.175   8.864
 1597POPC   C1A22887  30.744   1.209   8.564
 1597POPC   D2A22888  30.699   1.245   8.264
 1597POPC   C3A22889  30.670   1.255   7.964
 1597POPC   C4A22890  30.740   1.214   7.664
 1597POPC   C1B22891  30.920   1.197   8.564
 1597POPC   C2B22892  30.925   1.207   8.264
 1597POPC   C3B22893  30.950   1.159   7.964
 1597POPC   C4B22894  30.929   1.175   7.664
 1598POPC   NC322895  31.490   6.677   9.464
 1598POPC   PO422896  31.461   6.631   9.164
 1598POPC   GL122897  31.426   6.654   8.864
 1598POPC   GL222898  31.499   6.797   8.864
 1598POPC   C1A22899  31.440   6.689   8.564
 1598POPC   D2A22900  31.506   6.658   8.264
 1598POPC   C3A22901  31.495   6.687   7.964
 1598POPC   C4A22902  31.481   6.688   7.664
 1598POPC   C1B22903  31.517   6.906   8.564
 1598POPC   C2B22904  31.486   6.846   8.264
 1598POPC   C3B22905  31.521   6.921   7.964
 1598POPC   C4B22906  31.435   6.908   7.664
 1599POPC   NC322907  19.788  25.269   9.464
 1599POPC   PO422908  19.830  25.272   9.164
 1599POPC   GL122909  19.838  25.264   8.864
 1599POPC   GL222910  19.809  25.108   8.864
 1599POPC   C1A22911  19.870  25.219   8.564
 1599POPC   D2A22912  19.825  25.289   8.264
 1599POPC   C3A22913  19.882  25.255   7.964
 1599POPC   C4A22914  19.786  25.295   7.664
 1599POPC   C1B22915  19.769  25.037   8.564
 1599POPC   C2B22916  19.763  25.057   8.264
 1599POPC   C3B22917  19.733  25.029   7.964
 1599POPC   C4B22918  19.740  25.016   7.664
 1600POPC   NC322919   5.895   0.460   9.464
 1600POPC   PO422920   5.848   0.465   9.164
 1600POPC   GL122921   5.870   0.451   8.864
 1600POPC   GL222922   5.741   0.544   8.864
 1600POPC   C1A22923   5.841   0.458   8.564
 1600POPC   D2A22924   5.832   0.470   8.264
 1600POPC   C3A22925   5.918   0.467   7.964
 1600POPC   C4A22926   5.888   0.434   7.664
 1600POPC   C1B22927   5.631   0.609   8.564
 1600POPC   C2B22928   5.648   0.632   8.264
 1600POPC   C3B22929   5.660   0.548   7.964
 1600POPC   C4B22930   5.688   0.621   7.664
 1601POPC   NC322931  35.392  26.083   9.464
 1601POPC   PO422932  35.355  26.045   9.164
 1601POPC   GL122933  35.394  26.010   8.864
 1601POPC   GL222934  35.266  26.073   8.864
 1601POPC   C1A22935  35.394  25.996   8.564
 1601POPC   D2A22936  35.312  26.046   8.264
 1601POPC   C3A22937  35.346  26.023   7.964
 1601POPC   C4A22938  35.304  26.020   7.664
 1601POPC   C1B22939  35.087  26.060   8.564
 1601POPC   C2B22940  35.120  26.086   8.264
 1601POPC   C3B22941  35.086  26.151   7.964
 1601POPC   C4B22942  35.116  26.152   7.664
 1602POPC   NC322943  21.378   5.075   9.464
 1602POPC   PO422944  21.419   5.086   9.164
 1602POPC   GL122945  21.337   5.063   8.864
 1602POPC   GL222946  21.277   5.083   8.864
 1602POPC   C1A22947  21.429   5.096   8.564
 1602POPC   D2A22948  21.339   5.067   8.264
 1602POPC   C3A22949  21.424   5.049   7.964
 1602POPC   C4A22950  21.345   5.132   7.664
 1602POPC   C1B22951  21.154   4.935   8.564
 1602POPC   C2B22952  21.158   5.001   8.264
 1602POPC   C3B22953  21.177   5.002   7.964
 1602POPC   C4B22954  21.154   5.012   7.664
 1603POPC   NC322955  39.214   2.019   9.464
 1603POPC   PO422956  39.236   1.941   9.164
 1603POPC   GL122957  39.211   1.965   8.864
 1603POPC   GL222958  39.063   2.013   8.864
 1603POPC   C1A22959  39.217   2.022   8.564
 1603POPC   D2A22960  39.193   1.965   8.264
 1603POPC   C3A22961  39.217   2.031   7.964
 1603POPC   C4A22962  39.255   1.976   7.664
 1603POPC   C1B22963  38.973   1.958   8.564
 1603POPC   C2B22964  38.946   1.967   8.264
 1603POPC   C3B22965  39.006   2.045   7.964
 1603POPC   C4B22966  38.977   2.031   7.664
 1604POPC   NC322967   8.208   6.628   9.464
 1604POPC   PO422968   8.153   6.642   9.164
 1604POPC   GL122969   8.219   6.685   8.864
 1604POPC   GL222970   8.329   6.657   8.864
 1604POPC   C1A22971   8.203   6.619   8.564
 1604POPC   D2A22972   8.203   6.694   8.264
 1604POPC   C3A22973   8.244   6.671   7.964
 1604POPC   C4A22974   8.155   6.608   7.664
 1604POPC   C1B22975   8.486   6.573   8.564
 1604POPC   C2B22976   8.472   6.626   8.264
 1604POPC   C3B22977   8.475   6.648   7.964
 1604POPC   C4B22978   8.407   6.647   7.664
 1605POPC   NC322979   9.703  12.071   9.464
 1605POPC   PO422980   9.766  12.029   9.164
 1605POPC   GL122981   9.721  12.062   8.864
 1605POPC   GL222982   9.649  12.112   8.864
 1605POPC   C1A22983   9.795  12.053   8.564
 1605POPC   D2A22984   9.740  12.107   8.264
 1605POPC   C3A22985   9.719  12.088   7.964
 1605POPC   C4A22986   9.797  12.058   7.664
 1605POPC   C1B22987   9.508  12.052   8.564
 1605POPC   C2B22988   9.486  12.077   8.264
 1605POPC   C3B22989   9.471  12.095   7.964
 1605POPC   C4B22990   9.462  12.060   7.664
 1606POPC   NC322991  34.616  43.081   9.464
 1606POPC   PO422992  34.535  43.124   9.164
 1606POPC   GL122993  34.599  43.136   8.864
 1606POPC   GL222994  34.605  43.251   8.864
 1606POPC   C1A22995  34.598  43.148   8.564
 1606POPC   D2A22996  34.548  43.157   8.264
 1606POPC   C3A22997  34.585  43.067   7.964
 1606POPC   C4A22998  34.576  43.078   7.664
 1606POPC   C1B22999  34.589  43.347   8.564
 1606POPC   C2B23000  34.671  43.397   8.264
 1606POPC   C3B23001  34.680  43.380   7.964
 1606POPC   C4B23002  34.639  43.326   7.664
 1607POPC   NC323003  39.192  33.798   9.464
 1607POPC   PO423004  39.217  33.774   9.164
 1607POPC   GL123005  39.212  33.834   8.864
 1607POPC   GL223006  39.259  33.912   8.864
 1607POPC   C1A23007  39.266  33.758   8.564
 1607POPC   D2A23008  39.184  33.782   8.264
 1607POPC   C3A23009  39.245  33.806   7.964
 1607POPC   C4A23010  39.199  33.768   7.664
 1607POPC   C1B23011  39.254  34.024   8.564
 1607POPC   C2B23012  39.258  34.035   8.264
 1607POPC   C3B23013  39.302  34.082   7.964
 1607POPC   C4B23014  39.240  34.057   7.664
 1608POPC   NC323015  29.928  14.425   9.464
 1608POPC   PO423016  29.948  14.429   9.164
 1608POPC   GL123017  29.918  14.406   8.864
 1608POPC   GL223018  30.032  14.320   8.864
 1608POPC   C1A23019  29.927  14.438   8.564
 1608POPC   D2A23020  29.938  14.370   8.264
 1608POPC   C3A23021  29.907  14.359   7.964
 1608POPC   C4A23022  29.944  14.366   7.664
 1608POPC   C1B23023  30.134  14.225   8.564
 1608POPC   C2B23024  30.056  14.220   8.264
 1608POPC   C3B23025  30.085  14.203   7.964
 1608POPC   C4B23026  30.153  14.267   7.664
 1609POPC   NC323027   4.308  40.831   9.464
 1609POPC   PO423028   4.334  40.740   9.164
 1609POPC   GL123029   4.308  40.747   8.864
 1609POPC   GL223030   4.250  40.826   8.864
 1609POPC   C1A23031   4.333  40.733   8.564
 1609POPC   D2A23032   4.286  40.806   8.264
 1609POPC   C3A23033   4.326  40.750   7.964
 1609POPC   C4A23034   4.270  40.753   7.664
 1609POPC   C1B23035   4.153  40.930   8.564
 1609POPC   C2B23036   4.058  40.962   8.264
 1609POPC   C3B23037   4.116  40.957   7.964
 1609POPC   C4B23038   4.063  40.954   7.664
 1610POPC   NC323039  19.098  19.074   9.464
 1610POPC   PO423040  19.049  19.073   9.164
 1610POPC   GL123041  19.029  19.088   8.864
 1610POPC   GL223042  19.059  19.144   8.864
 1610POPC   C1A23043  19.061  19.096   8.564
 1610POPC   D2A23044  19.047  19.055   8.264
 1610POPC   C3A23045  19.091  19.031   7.964
 1610POPC   C4A23046  19.082  19.095   7.664
 1610POPC   C1B23047  19.060  19.272   8.564
 1610POPC   C2B23048  19.061  19.257   8.264
 1610POPC   C3B23049  19.127  19.310   7.964
 1610POPC   C4B23050  19.096  19.314   7.664
 1611POPC   NC323051  22.927  21.376   9.464
 1611POPC   PO423052  22.937  21.407   9.164
 1611POPC   GL123053  22.896  21.381   8.864
 1611POPC   GL223054  23.041  21.335   8.864
 1611POPC   C1A23055  22.933  21.371   8.564
 1611POPC   D2A23056  22.905  21.360   8.264
 1611POPC   C3A23057  22.934  21.369   7.964
 1611POPC   C4A23058  22.981  21.411   7.664
 1611POPC   C1B23059  23.158  21.385   8.564
 1611POPC   C2B23060  23.150  21.336   8.264
 1611POPC   C3B23061  23.167  21.388   7.964
 1611POPC   C4B23062  23.218  21.385   7.664
 1612POPC   NC323063  19.090  12.894   9.464
 1612POPC   PO423064  19.041  12.862   9.164
 1612POPC   GL123065  19.065  12.901   8.864
 1612POPC   GL223066  19.007  12.695   8.864
 1612POPC   C1A23067  19.105  12.866   8.564
 1612POPC   D2A23068  19.087  12.804   8.264
 1612POPC   C3A23069  19.081  12.893   7.964
 1612POPC   C4A23070  19.048  12.838   7.664
 1612POPC   C1B23071  19.087  12.610   8.564
 1612POPC   C2B23072  19.082  12.578   8.264
 1612POPC   C3B23073  19.064  12.649   7.964
 1612POPC   C4B23074  19.029  12.556   7.664
 1613POPC   NC323075  22.903   0.482   9.464
 1613POPC   PO423076  22.905   0.484   9.164
 1613POPC   GL123077  22.935   0.418   8.864
 1613POPC   GL223078  22.846   0.324   8.864
 1613POPC   C1A23079  22.980   0.475   8.564
 1613POPC   D2A23080  22.960   0.396   8.264
 1613POPC   C3A23081  22.950   0.467   7.964
 1613POPC   C4A23082  22.979   0.430   7.664
 1613POPC   C1B23083  22.820   0.193   8.564
 1613POPC   C2B23084  22.750   0.194   8.264
 1613POPC   C3B23085  22.798   0.280   7.964
 1613POPC   C4B23086  22.783   0.248   7.664
 1614POPC   NC323087   7.392  26.001   9.464
 1614POPC   PO423088   7.450  26.078   9.164
 1614POPC   GL123089   7.464  26.035   8.864
 1614POPC   GL223090   7.395  26.203   8.864
 1614POPC   C1A23091   7.399  26.088   8.564
 1614POPC   D2A23092   7.441  25.998   8.264
 1614POPC   C3A23093   7.395  26.032   7.964
 1614POPC   C4A23094   7.382  26.006   7.664
 1614POPC   C1B23095   7.371  26.271   8.564
 1614POPC   C2B23096   7.359  26.310   8.264
 1614POPC   C3B23097   7.384  26.311   7.964
 1614POPC   C4B23098   7.318  26.319   7.664
 1615POPC   NC323099  44.702   2.793   9.464
 1615POPC   PO423100  44.665   2.776   9.164
 1615POPC   GL123101  44.617   2.726   8.864
 1615POPC   GL223102  44.591   2.684   8.864
 1615POPC   C1A23103  44.655   2.777   8.564
 1615POPC   D2A23104  44.648   2.797   8.264
 1615POPC   C3A23105  44.696   2.727   7.964
 1615POPC   C4A23106  44.640   2.738   7.664
 1615POPC   C1B23107  44.474   2.623   8.564
 1615POPC   C2B23108  44.430   2.655   8.264
 1615POPC   C3B23109  44.424   2.626   7.964
 1615POPC   C4B23110  44.464   2.597   7.664
 1616POPC   NC323111   5.049  38.474   9.464
 1616POPC   PO423112   5.057  38.451   9.164
 1616POPC   GL123113   5.078  38.458   8.864
 1616POPC   GL223114   5.173  38.450   8.864
 1616POPC   C1A23115   5.077  38.429   8.564
 1616POPC   D2A23116   5.106  38.487   8.264
 1616POPC   C3A23117   5.049  38.488   7.964
 1616POPC   C4A23118   5.076  38.495   7.664
 1616POPC   C1B23119   5.303  38.493   8.564
 1616POPC   C2B23120   5.354  38.497   8.264
 1616POPC   C3B23121   5.299  38.531   7.964
 1616POPC   C4B23122   5.315  38.518   7.664
 1617POPC   NC323123   0.482  29.880   9.464
 1617POPC   PO423124   0.450  29.882   9.164
 1617POPC   GL123125   0.393  29.883   8.864
 1617POPC   GL223126   0.563  29.882   8.864
 1617POPC   C1A23127   0.418  29.938   8.564
 1617POPC   D2A23128   0.406  29.875   8.264
 1617POPC   C3A23129   0.430  29.946   7.964
 1617POPC   C4A23130   0.430  29.881   7.664
 1617POPC   C1B23131   0.671  29.845   8.564
 1617POPC   C2B23132   0.682  29.787   8.264
 1617POPC   C3B23133   0.708  29.809   7.964
 1617POPC   C4B23134   0.633  29.834   7.664
 1618POPC   NC323135  39.968  35.399   9.464
 1618POPC   PO423136  40.052  35.336   9.164
 1618POPC   GL123137  40.006  35.330   8.864
 1618POPC   GL223138  39.993  35.272   8.864
 1618POPC   C1A23139  40.002  35.392   8.564
 1618POPC   D2A23140  40.018  35.393   8.264
 1618POPC   C3A23141  39.980  35.397   7.964
 1618POPC   C4A23142  39.998  35.365   7.664
 1618POPC   C1B23143  39.965  35.147   8.564
 1618POPC   C2B23144  39.981  35.119   8.264
 1618POPC   C3B23145  40.045  35.114   7.964
 1618POPC   C4B23146  39.987  35.117   7.664
 1619POPC   NC323147  25.313   9.015   9.464
 1619POPC   PO423148  25.283   9.016   9.164
 1619POPC   GL123149  25.310   8.985   8.864
 1619POPC   GL223150  25.398   9.014   8.864
 1619POPC   C1A23151  25.269   8.931   8.564
 1619POPC   D2A23152  25.231   9.019   8.264
 1619POPC   C3A23153  25.289   9.002   7.964
 1619POPC   C4A23154  25.283   8.984   7.664
 1619POPC   C1B23155  25.434   9.171   8.564
 1619POPC   C2B23156  25.468   9.083   8.264
 1619POPC   C3B23157  25.463   9.095   7.964
 1619POPC   C4B23158  25.418   9.098   7.664
 1620POPC   NC323159  25.275  38.446   9.464
 1620POPC   PO423160  25.290  38.414   9.164
 1620POPC   GL123161  25.220  38.489   8.864
 1620POPC   GL223162  25.124  38.477   8.864
 1620POPC   C1A23163  25.256  38.477   8.564
 1620POPC   D2A23164  25.298  38.459   8.264
 1620POPC   C3A23165  25.221  38.501   7.964
 1620POPC   C4A23166  25.256  38.431   7.664
 1620POPC   C1B23167  25.015  38.502   8.564
 1620POPC   C2B23168  25.025  38.464   8.264
 1620POPC   C3B23169  25.049  38.503   7.964
 1620POPC   C4B23170  25.039  38.501   7.664
 1621POPC   NC323171  16.781  39.241   9.464
 1621POPC   PO423172  16.725  39.195   9.164
 1621POPC   GL123173  16.707  39.232   8.864
 1621POPC   GL223174  16.680  39.180   8.864
 1621POPC   C1A23175  16.711  39.230   8.564
 1621POPC   D2A23176  16.687  39.264   8.264
 1621POPC   C3A23177  16.686  39.194   7.964
 1621POPC   C4A23178  16.705  39.244   7.664
 1621POPC   C1B23179  16.527  39.058   8.564
 1621POPC   C2B23180  16.597  39.084   8.264
 1621POPC   C3B23181  16.587  39.032   7.964
 1621POPC   C4B23182  16.532  39.082   7.664
 1622POPC   NC323183  14.368  44.655   9.464
 1622POPC   PO423184  14.415  44.617   9.164
 1622POPC   GL123185  14.451  44.654   8.864
 1622POPC   GL223186  14.460  44.752   8.864
 1622POPC   C1A23187  14.430  44.646   8.564
 1622POPC   D2A23188  14.368  44.682   8.264
 1622POPC   C3A23189  14.413  44.633   7.964
 1622POPC   C4A23190  14.433  44.645   7.664
 1622POPC   C1B23191  14.493  44.924   8.564
 1622POPC   C2B23192  14.539  44.906   8.264
 1622POPC   C3B23193  14.485  44.914   7.964
 1622POPC   C4B23194  14.560  44.848   7.664
 1623POPC   NC323195  12.848   9.707   9.464
 1623POPC   PO423196  12.885   9.712   9.164
 1623POPC   GL123197  12.812   9.762   8.864
 1623POPC   GL223198  12.748   9.635   8.864
 1623POPC   C1A23199  12.887   9.739   8.564
 1623POPC   D2A23200  12.893   9.781   8.264
 1623POPC   C3A23201  12.872   9.715   7.964
 1623POPC   C4A23202  12.896   9.779   7.664
 1623POPC   C1B23203  12.755   9.518   8.564
 1623POPC   C2B23204  12.700   9.554   8.264
 1623POPC   C3B23205  12.767   9.570   7.964
 1623POPC   C4B23206  12.750   9.489   7.664
 1624POPC   NC323207  39.256   9.755   9.464
 1624POPC   PO423208  39.195   9.710   9.164
 1624POPC   GL123209  39.238   9.779   8.864
 1624POPC   GL223210  39.297   9.631   8.864
 1624POPC   C1A23211  39.220   9.764   8.564
 1624POPC   D2A23212  39.211   9.729   8.264
 1624POPC   C3A23213  39.269   9.785   7.964
 1624POPC   C4A23214  39.181   9.774   7.664
 1624POPC   C1B23215  39.382   9.547   8.564
 1624POPC   C2B23216  39.376   9.557   8.264
 1624POPC   C3B23217  39.332   9.506   7.964
 1624POPC   C4B23218  39.370   9.546   7.664
 1625POPC   NC323219  22.113  40.777   9.464
 1625POPC   PO423220  22.188  40.802   9.164
 1625POPC   GL123221  22.193  40.805   8.864
 1625POPC   GL223222  22.301  40.822   8.864
 1625POPC   C1A23223  22.128  40.825   8.564
 1625POPC   D2A23224  22.189  40.758   8.264
 1625POPC   C3A23225  22.143  40.786   7.964
 1625POPC   C4A23226  22.125  40.734   7.664
 1625POPC   C1B23227  22.367  40.904   8.564
 1625POPC   C2B23228  22.350  40.840   8.264
 1625POPC   C3B23229  22.376  40.858   7.964
 1625POPC   C4B23230  22.429  40.892   7.664
 1626POPC   NC323231  10.505  39.187   9.464
 1626POPC   PO423232  10.484  39.269   9.164
 1626POPC   GL123233  10.482  39.222   8.864
 1626POPC   GL223234  10.576  39.165   8.864
 1626POPC   C1A23235  10.480  39.193   8.564
 1626POPC   D2A23236  10.516  39.197   8.264
 1626POPC   C3A23237  10.480  39.224   7.964
 1626POPC   C4A23238  10.559  39.249   7.664
 1626POPC   C1B23239  10.679  39.118   8.564
 1626POPC   C2B23240  10.699  39.061   8.264
 1626POPC   C3B23241  10.689  39.106   7.964
 1626POPC   C4B23242  10.730  39.093   7.664
 1627POPC   NC323243   9.716   5.065   9.464
 1627POPC   PO423244   9.726   5.079   9.164
 1627POPC   GL123245   9.767   5.100   8.864
 1627POPC   GL223246   9.760   4.932   8.864
 1627POPC   C1A23247   9.718   5.057   8.564
 1627POPC   D2A23248   9.795   5.127   8.264
 1627POPC   C3A23249   9.760   5.100   7.964
 1627POPC   C4A23250   9.724   5.069   7.664
 1627POPC   C1B23251   9.698   4.831   8.564
 1627POPC   C2B23252   9.761   4.810   8.264
 1627POPC   C3B23253   9.711   4.837   7.964
 1627POPC   C4B23254   9.698   4.875   7.664
 1628POPC   NC323255   8.939  43.132   9.464
 1628POPC   PO423256   8.941  43.081   9.164
 1628POPC   GL123257   8.937  43.092   8.864
 1628POPC   GL223258   8.891  43.062   8.864
 1628POPC   C1A23259   9.010  43.097   8.564
 1628POPC   D2A23260   8.987  43.076   8.264
 1628POPC   C3A23261   8.971  43.106   7.964
 1628POPC   C4A23262   8.951  43.138   7.664
 1628POPC   C1B23263   8.680  43.050   8.564
 1628POPC   C2B23264   8.750  43.017   8.264
 1628POPC   C3B23265   8.715  43.036   7.964
 1628POPC   C4B23266   8.744  43.039   7.664
 1629POPC   NC323267   6.658  43.095   9.464
 1629POPC   PO423268   6.677  43.100   9.164
 1629POPC   GL123269   6.598  43.160   8.864
 1629POPC   GL223270   6.475  43.060   8.864
 1629POPC   C1A23271   6.651  43.141   8.564
 1629POPC   D2A23272   6.649  43.100   8.264
 1629POPC   C3A23273   6.683  43.069   7.964
 1629POPC   C4A23274   6.662  43.065   7.664
 1629POPC   C1B23275   6.439  43.089   8.564
 1629POPC   C2B23276   6.434  43.114   8.264
 1629POPC   C3B23277   6.410  43.063   7.964
 1629POPC   C4B23278   6.373  43.059   7.664
 1630POPC   NC323279  11.338   6.635   9.464
 1630POPC   PO423280  11.284   6.649   9.164
 1630POPC   GL123281  11.305   6.622   8.864
 1630POPC   GL223282  11.417   6.680   8.864
 1630POPC   C1A23283  11.323   6.665   8.564
 1630POPC   D2A23284  11.344   6.679   8.264
 1630POPC   C3A23285  11.290   6.665   7.964
 1630POPC   C4A23286  11.337   6.641   7.664
 1630POPC   C1B23287  11.534   6.782   8.564
 1630POPC   C2B23288  11.518   6.745   8.264
 1630POPC   C3B23289  11.555   6.830   7.964
 1630POPC   C4B23290  11.475   6.813   7.664
 1631POPC   NC323291  41.608   1.942   9.464
 1631POPC   PO423292  41.526   1.979   9.164
 1631POPC   GL123293  41.604   2.015   8.864
 1631POPC   GL223294  41.596   2.143   8.864
 1631POPC   C1A23295  41.546   1.961   8.564
 1631POPC   D2A23296  41.580   1.985   8.264
 1631POPC   C3A23297  41.544   2.037   7.964
 1631POPC   C4A23298  41.568   1.985   7.664
 1631POPC   C1B23299  41.541   2.286   8.564
 1631POPC   C2B23300  41.583   2.230   8.264
 1631POPC   C3B23301  41.632   2.262   7.964
 1631POPC   C4B23302  41.565   2.275   7.664
 1632POPC   NC323303  16.707  23.730   9.464
 1632POPC   PO423304  16.744  23.709   9.164
 1632POPC   GL123305  16.712  23.667   8.864
 1632POPC   GL223306  16.637  23.835   8.864
 1632POPC   C1A23307  16.747  23.675   8.564
 1632POPC   D2A23308  16.726  23.739   8.264
 1632POPC   C3A23309  16.748  23.752   7.964
 1632POPC   C4A23310  16.741  23.672   7.664
 1632POPC   C1B23311  16.553  23.893   8.564
 1632POPC   C2B23312  16.535  23.863   8.264
 1632POPC   C3B23313  16.540  23.895   7.964
 1632POPC   C4B23314  16.566  23.888   7.664
 1633POPC   NC323315  27.550   8.164   9.464
 1633POPC   PO423316  27.585   8.198   9.164
 1633POPC   GL123317  27.632   8.173   8.864
 1633POPC   GL223318  27.676   8.077   8.864
 1633POPC   C1A23319  27.587   8.164   8.564
 1633POPC   D2A23320  27.566   8.208   8.264
 1633POPC   C3A23321  27.622   8.223   7.964
 1633POPC   C4A23322  27.555   8.232   7.664
 1633POPC   C1B23323  27.640   7.964   8.564
 1633POPC   C2B23324  27.697   7.982   8.264
 1633POPC   C3B23325  27.651   7.932   7.964
 1633POPC   C4B23326  27.699   7.979   7.664
 1634POPC   NC323327   6.678  41.597   9.464
 1634POPC   PO423328   6.670  41.561   9.164
 1634POPC   GL123329   6.627  41.535   8.864
 1634POPC   GL223330   6.664  41.686   8.864
 1634POPC   C1A23331   6.605  41.572   8.564
 1634POPC   D2A23332   6.604  41.588   8.264
 1634POPC   C3A23333   6.640  41.542   7.964
 1634POPC   C4A23334   6.694  41.586   7.664
 1634POPC   C1B23335   6.605  41.798   8.564
 1634POPC   C2B23336   6.573  41.840   8.264
 1634POPC   C3B23337   6.605  41.769   7.964
 1634POPC   C4B23338   6.569  41.792   7.664
 1635POPC   NC323339  38.479  21.372   9.464
 1635POPC   PO423340  38.504  21.388   9.164
 1635POPC   GL123341  38.418  21.381   8.864
 1635POPC   GL223342  38.345  21.478   8.864
 1635POPC   C1A23343  38.432  21.365   8.564
 1635POPC   D2A23344  38.419  21.399   8.264
 1635POPC   C3A23345  38.483  21.420   7.964
 1635POPC   C4A23346  38.414  21.429   7.664
 1635POPC   C1B23347  38.361  21.645   8.564
 1635POPC   C2B23348  38.334  21.622   8.264
 1635POPC   C3B23349  38.283  21.603   7.964
 1635POPC   C4B23350  38.367  21.571   7.664
 1636POPC   NC323351  22.195  26.849   9.464
 1636POPC   PO423352  22.141  26.834   9.164
 1636POPC   GL123353  22.203  26.854   8.864
 1636POPC   GL223354  22.200  26.974   8.864
 1636POPC   C1A23355  22.144  26.778   8.564
 1636POPC   D2A23356  22.196  26.846   8.264
 1636POPC   C3A23357  22.199  26.836   7.964
 1636POPC   C4A23358  22.168  26.771   7.664
 1636POPC   C1B23359  22.336  27.064   8.564
 1636POPC   C2B23360  22.333  27.034   8.264
 1636POPC   C3B23361  22.245  27.042   7.964
 1636POPC   C4B23362  22.299  27.080   7.664
 1637POPC   NC323363  37.659   1.169   9.464
 1637POPC   PO423364  37.654   1.184   9.164
 1637POPC   GL123365  37.706   1.189   8.864
 1637POPC   GL223366  37.643   1.144   8.864
 1637POPC   C1A23367  37.685   1.200   8.564
 1637POPC   D2A23368  37.710   1.185   8.264
 1637POPC   C3A23369  37.674   1.207   7.964
 1637POPC   C4A23370  37.679   1.216   7.664
 1637POPC   C1B23371  37.533   0.962   8.564
 1637POPC   C2B23372  37.538   0.946   8.264
 1637POPC   C3B23373  37.519   1.000   7.964
 1637POPC   C4B23374  37.520   1.027   7.664
 1638POPC   NC323375  32.279  33.066   9.464
 1638POPC   PO423376  32.255  32.984   9.164
 1638POPC   GL123377  32.207  32.995   8.864
 1638POPC   GL223378  32.304  33.102   8.864
 1638POPC   C1A23379  32.282  32.977   8.564
 1638POPC   D2A23380  32.290  33.061   8.264
 1638POPC   C3A23381  32.221  33.069   7.964
 1638POPC   C4A23382  32.230  33.002   7.664
 1638POPC   C1B23383  32.386  33.220   8.564
 1638POPC   C2B23384  32.359  33.299   8.264
 1638POPC   C3B23385  32.387  33.235   7.964
 1638POPC   C4B23386  32.360  33.252   7.664
 1639POPC   NC323387  43.930  30.701   9.464
 1639POPC   PO423388  43.856  30.648   9.164
 1639POPC   GL123389  43.921  30.700   8.864
 1639POPC   GL223390  43.974  30.695   8.864
 1639POPC   C1A23391  43.877  30.679   8.564
 1639POPC   D2A23392  43.931  30.675   8.264
 1639POPC   C3A23393  43.902  30.744   7.964
 1639POPC   C4A23394  43.863  30.725   7.664
 1639POPC   C1B23395  44.107  30.756   8.564
 1639POPC   C2B23396  44.123  30.708   8.264
 1639POPC   C3B23397  44.103  30.769   7.964
 1639POPC   C4B23398  44.146  30.738   7.664
 1640POPC   NC323399   1.178  36.113   9.464
 1640POPC   PO423400   1.183  36.174   9.164
 1640POPC   GL123401   1.229  36.126   8.864
 1640POPC   GL223402   1.363  36.079   8.864
 1640POPC   C1A23403   1.209  36.081   8.564
 1640POPC   D2A23404   1.205  36.120   8.264
 1640POPC   C3A23405   1.200  36.135   7.964
 1640POPC   C4A23406   1.207  36.102   7.664
 1640POPC   C1B23407   1.457  35.934   8.564
 1640POPC   C2B23408   1.380  36.028   8.264
 1640POPC   C3B23409   1.449  35.935   7.964
 1640POPC   C4B23410   1.400  35.980   7.664
 1641POPC   NC323411   2.787  15.134   9.464
 1641POPC   PO423412   2.721  15.171   9.164
 1641POPC   GL123413   2.775  15.197   8.864
 1641POPC   GL223414   2.810  15.259   8.864
 1641POPC   C1A23415   2.762  15.185   8.564
 1641POPC   D2A23416   2.751  15.142   8.264
 1641POPC   C3A23417   2.794  15.190   7.964
 1641POPC   C4A23418   2.745  15.193   7.664
 1641POPC   C1B23419   2.955  15.330   8.564
 1641POPC   C2B23420   2.959  15.381   8.264
 1641POPC   C3B23421   2.958  15.336   7.964
 1641POPC   C4B23422   2.983  15.407   7.664
 1642POPC   NC323423   4.316  18.279   9.464
 1642POPC   PO423424   4.345  18.317   9.164
 1642POPC   GL123425   4.272  18.251   8.864
 1642POPC   GL223426   4.402  18.396   8.864
 1642POPC   C1A23427   4.356  18.307   8.564
 1642POPC   D2A23428   4.300  18.250   8.264
 1642POPC   C3A23429   4.362  18.243   7.964
 1642POPC   C4A23430   4.358  18.273   7.664
 1642POPC   C1B23431   4.557  18.426   8.564
 1642POPC   C2B23432   4.476  18.470   8.264
 1642POPC   C3B23433   4.475  18.396   7.964
 1642POPC   C4B23434   4.508  18.403   7.664
 1643POPC   NC323435  29.962   0.426   9.464
 1643POPC   PO423436  29.930   0.486   9.164
 1643POPC   GL123437  29.904   0.462   8.864
 1643POPC   GL223438  29.808   0.390   8.864
 1643POPC   C1A23439  29.885   0.437   8.564
 1643POPC   D2A23440  29.879   0.427   8.264
 1643POPC   C3A23441  29.936   0.445   7.964
 1643POPC   C4A23442  29.916   0.388   7.664
 1643POPC   C1B23443  29.746   0.307   8.564
 1643POPC   C2B23444  29.697   0.302   8.264
 1643POPC   C3B23445  29.736   0.350   7.964
 1643POPC   C4B23446  29.664   0.328   7.664
 1644POPC   NC323447  44.685  44.642   9.464
 1644POPC   PO423448  44.707  44.667   9.164
 1644POPC   GL123449  44.633  44.643   8.864
 1644POPC   GL223450  44.543  44.655   8.864
 1644POPC   C1A23451  44.683  44.680   8.564
 1644POPC   D2A23452  44.690  44.699   8.264
 1644POPC   C3A23453  44.705  44.680   7.964
 1644POPC   C4A23454  44.704  44.645   7.664
 1644POPC   C1B23455  44.465  44.616   8.564
 1644POPC   C2B23456  44.380  44.637   8.264
 1644POPC   C3B23457  44.373  44.625   7.964
 1644POPC   C4B23458  44.432  44.583   7.664
 1645POPC   NC323459  19.053  36.171   9.464
 1645POPC   PO423460  19.029  36.148   9.164
 1645POPC   GL123461  19.038  36.151   8.864
 1645POPC   GL223462  18.972  36.130   8.864
 1645POPC   C1A23463  19.057  36.174   8.564
 1645POPC   D2A23464  19.013  36.085   8.264
 1645POPC   C3A23465  19.019  36.174   7.964
 1645POPC   C4A23466  19.037  36.118   7.664
 1645POPC   C1B23467  18.854  36.129   8.564
 1645POPC   C2B23468  18.823  36.114   8.264
 1645POPC   C3B23469  18.771  36.133   7.964
 1645POPC   C4B23470  18.766  36.109   7.664
 1646POPC   NC323471  17.464  18.303   9.464
 1646POPC   PO423472  17.518  18.306   9.164
 1646POPC   GL123473  17.472  18.273   8.864
 1646POPC   GL223474  17.562  18.312   8.864
 1646POPC   C1A23475  17.484  18.246   8.564
 1646POPC   D2A23476  17.492  18.266   8.264
 1646POPC   C3A23477  17.488  18.314   7.964
 1646POPC   C4A23478  17.553  18.315   7.664
 1646POPC   C1B23479  17.701  18.435   8.564
 1646POPC   C2B23480  17.696  18.462   8.264
 1646POPC   C3B23481  17.671  18.412   7.964
 1646POPC   C4B23482  17.753  18.405   7.664
 1647POPC   NC323483  11.290   9.701   9.464
 1647POPC   PO423484  11.296   9.716   9.164
 1647POPC   GL123485  11.335   9.796   8.864
 1647POPC   GL223486  11.245   9.673   8.864
 1647POPC   C1A23487  11.326   9.787   8.564
 1647POPC   D2A23488  11.292   9.765   8.264
 1647POPC   C3A23489  11.272   9.798   7.964
 1647POPC   C4A23490  11.266   9.790   7.664
 1647POPC   C1B23491  11.159   9.502   8.564
 1647POPC   C2B23492  11.196   9.518   8.264
 1647POPC   C3B23493  11.203   9.547   7.964
 1647POPC   C4B23494  11.258   9.494   7.664
 1648POPC   NC323495   2.794   6.644   9.464
 1648POPC   PO423496   2.778   6.626   9.164
 1648POPC   GL123497   2.777   6.668   8.864
 1648POPC   GL223498   2.922   6.573   8.864
 1648POPC   C1A23499   2.766   6.667   8.564
 1648POPC   D2A23500   2.750   6.611   8.264
 1648POPC   C3A23501   2.805   6.622   7.964
 1648POPC   C4A23502   2.771   6.631   7.664
 1648POPC   C1B23503   2.965   6.625   8.564
 1648POPC   C2B23504   2.994   6.593   8.264
 1648POPC   C3B23505   2.977   6.578   7.964
 1648POPC   C4B23506   3.031   6.571   7.664
 1649POPC   NC323507  10.551  15.187   9.464
 1649POPC   PO423508  10.572  15.228   9.164
 1649POPC   GL123509  10.569  15.161   8.864
 1649POPC   GL223510  10.566  15.227   8.864
 1649POPC   C1A23511  10.569  15.194   8.564
 1649POPC   D2A23512  10.571  15.165   8.264
 1649POPC   C3A23513  10.525  15.225   7.964
 1649POPC   C4A23514  10.535  15.138   7.664
 1649POPC   C1B23515  10.711  15.372   8.564
 1649POPC   C2B23516  10.646  15.328   8.264
 1649POPC   C3B23517  10.687  15.378   7.964
 1649POPC   C4B23518  10.682  15.324   7.664
 1650POPC   NC323519   9.706  29.936   9.464
 1650POPC   PO423520   9.775  29.935   9.164
 1650POPC   GL123521   9.720  29.920   8.864
 1650POPC   GL223522   9.654  29.935   8.864
 1650POPC   C1A23523   9.751  29.888   8.564
 1650POPC   D2A23524   9.763  29.918   8.264
 1650POPC   C3A23525   9.747  29.884   7.964
 1650POPC   C4A23526   9.792  29.958   7.664
 1650POPC   C1B23527   9.476  29.964   8.564
 1650POPC   C2B23528   9.560  30.007   8.264
 1650POPC   C3B23529   9.541  30.012   7.964
 1650POPC   C4B23530   9.559  29.990   7.664
 1651POPC   NC323531  17.518  41.509   9.464
 1651POPC   PO423532  17.462  41.599   9.164
 1651POPC   GL123533  17.555  41.547   8.864
 1651POPC   GL223534  17.595  41.642   8.864
 1651POPC   C1A23535  17.540  41.510   8.564
 1651POPC   D2A23536  17.496  41.604   8.264
 1651POPC   C3A23537  17.522  41.514   7.964
 1651POPC   C4A23538  17.496  41.586   7.664
 1651POPC   C1B23539  17.713  41.741   8.564
 1651POPC   C2B23540  17.698  41.740   8.264
 1651POPC   C3B23541  17.658  41.719   7.964
 1651POPC   C4B23542  17.710  41.760   7.664
 1652POPC   NC323543  39.268  35.344   9.464
 1652POPC   PO423544  39.206  35.341   9.164
 1652POPC   GL123545  39.219  35.355   8.864
 1652POPC   GL223546  39.276  35.523   8.864
 1652POPC   C1A23547  39.201  35.385   8.564
 1652POPC   D2A23548  39.279  35.391   8.264
 1652POPC   C3A23549  39.250  35.313   7.964
 1652POPC   C4A23550  39.188  35.373   7.664
 1652POPC   C1B23551  39.294  35.646   8.564
 1652POPC   C2B23552  39.294  35.581   8.264
 1652POPC   C3B23553  39.210  35.575   7.964
 1652POPC   C4B23554  39.286  35.564   7.664
 1653POPC   NC323555  34.552  38.503   9.464
 1653POPC   PO423556  34.599  38.446   9.164
 1653POPC   GL123557  34.554  38.451   8.864
 1653POPC   GL223558  34.416  38.421   8.864
 1653POPC   C1A23559  34.533  38.454   8.564
 1653POPC   D2A23560  34.609  38.423   8.264
 1653POPC   C3A23561  34.619  38.480   7.964
 1653POPC   C4A23562  34.526  38.455   7.664
 1653POPC   C1B23563  34.342  38.412   8.564
 1653POPC   C2B23564  34.337  38.399   8.264
 1653POPC   C3B23565  34.340  38.456   7.964
 1653POPC   C4B23566  34.318  38.426   7.664
 1654POPC   NC323567  43.104  12.096   9.464
 1654POPC   PO423568  43.060  12.055   9.164
 1654POPC   GL123569  43.124  12.085   8.864
 1654POPC   GL223570  43.192  12.070   8.864
 1654POPC   C1A23571  43.137  12.113   8.564
 1654POPC   D2A23572  43.067  12.082   8.264
 1654POPC   C3A23573  43.114  12.104   7.964
 1654POPC   C4A23574  43.102  12.081   7.664
 1654POPC   C1B23575  43.395  12.067   8.564
 1654POPC   C2B23576  43.375  12.029   8.264
 1654POPC   C3B23577  43.382  12.038   7.964
 1654POPC   C4B23578  43.401  12.073   7.664
 1655POPC   NC323579  37.720  10.569   9.464
 1655POPC   PO423580  37.644  10.526   9.164
 1655POPC   GL123581  37.726  10.522   8.864
 1655POPC   GL223582  37.809  10.508   8.864
 1655POPC   C1A23583  37.661  10.524   8.564
 1655POPC   D2A23584  37.683  10.570   8.264
 1655POPC   C3A23585  37.652  10.558   7.964
 1655POPC   C4A23586  37.667  10.524   7.664
 1655POPC   C1B23587  37.936  10.501   8.564
 1655POPC   C2B23588  37.959  10.459   8.264
 1655POPC   C3B23589  37.970  10.513   7.964
 1655POPC   C4B23590  37.977  10.459   7.664
 1656POPC   NC323591  19.015  13.641   9.464
 1656POPC   PO423592  19.039  13.595   9.164
 1656POPC   GL123593  19.030  13.671   8.864
 1656POPC   GL223594  19.062  13.761   8.864
 1656POPC   C1A23595  19.024  13.662   8.564
 1656POPC   D2A23596  19.090  13.649   8.264
 1656POPC   C3A23597  19.054  13.612   7.964
 1656POPC   C4A23598  19.086  13.614   7.664
 1656POPC   C1B23599  19.121  13.841   8.564
 1656POPC   C2B23600  19.150  13.877   8.264
 1656POPC   C3B23601  19.062  13.871   7.964
 1656POPC   C4B23602  19.105  13.898   7.664
 1657POPC   NC323603  38.496  22.201   9.464
 1657POPC   PO423604  38.503  22.196   9.164
 1657POPC   GL123605  38.424  22.206   8.864
 1657POPC   GL223606  38.389  22.258   8.864
 1657POPC   C1A23607  38.494  22.207   8.564
 1657POPC   D2A23608  38.408  22.162   8.264
 1657POPC   C3A23609  38.411  22.198   7.964
 1657POPC   C4A23610  38.485  22.199   7.664
 1657POPC   C1B23611  38.284  22.310   8.564
 1657POPC   C2B23612  38.266  22.371   8.264
 1657POPC   C3B23613  38.279  22.293   7.964
 1657POPC   C4B23614  38.273  22.305   7.664
 1658POPC   NC323615  32.277  15.963   9.464
 1658POPC   PO423616  32.279  15.970   9.164
 1658POPC   GL123617  32.252  15.926   8.864
 1658POPC   GL223618  32.170  15.989   8.864
 1658POPC   C1A23619  32.266  16.002   8.564
 1658POPC   D2A23620  32.223  15.968   8.264
 1658POPC   C3A23621  32.209  15.947   7.964
 1658POPC   C4A23622  32.293  15.965   7.664
 1658POPC   C1B23623  32.014  15.979   8.564
 1658POPC   C2B23624  31.988  16.014   8.264
 1658POPC   C3B23625  31.962  15.968   7.964
 1658POPC   C4B23626  31.953  15.973   7.664
 1659POPC   NC323627  15.211  12.825   9.464
 1659POPC   PO423628  15.187  12.891   9.164
 1659POPC   GL123629  15.147  12.870   8.864
 1659POPC   GL223630  15.293  12.821   8.864
 1659POPC   C1A23631  15.194  12.821   8.564
 1659POPC   D2A23632  15.144  12.842   8.264
 1659POPC   C3A23633  15.207  12.871   7.964
 1659POPC   C4A23634  15.194  12.870   7.664
 1659POPC   C1B23635  15.406  12.818   8.564
 1659POPC   C2B23636  15.452  12.866   8.264
 1659POPC   C3B23637  15.401  12.803   7.964
 1659POPC   C4B23638  15.449  12.841   7.664
 1660POPC   NC323639  26.037  43.160   9.464
 1660POPC   PO423640  26.071  43.066   9.164
 1660POPC   GL123641  26.053  43.102   8.864
 1660POPC   GL223642  26.051  42.982   8.864
 1660POPC   C1A23643  26.051  43.102   8.564
 1660POPC   D2A23644  26.045  43.155   8.264
 1660POPC   C3A23645  26.036  43.080   7.964
 1660POPC   C4A23646  26.073  43.077   7.664
 1660POPC   C1B23647  26.205  42.908   8.564
 1660POPC   C2B23648  26.150  42.890   8.264
 1660POPC   C3B23649  26.114  42.885   7.964
 1660POPC   C4B23650  26.107  42.867   7.664
 1661POPC   NC323651  43.123  32.234   9.464
 1661POPC   PO423652  43.119  32.228   9.164
 1661POPC   GL123653  43.149  32.264   8.864
 1661POPC   GL223654  43.055  32.337   8.864
 1661POPC   C1A23655  43.126  32.261   8.564
 1661POPC   D2A23656  43.142  32.255   8.264
 1661POPC   C3A23657  43.132  32.279   7.964
 1661POPC   C4A23658  43.062  32.297   7.664
 1661POPC   C1B23659  42.948  32.450   8.564
 1661POPC   C2B23660  42.928  32.418   8.264
 1661POPC   C3B23661  42.935  32.487   7.964
 1661POPC   C4B23662  42.957  32.430   7.664
 1662POPC   NC323663  12.802   0.408   9.464
 1662POPC   PO423664  12.807   0.487   9.164
 1662POPC   GL123665  12.880   0.398   8.864
 1662POPC   GL223666  12.895   0.373   8.864
 1662POPC   C1A23667  12.841   0.443   8.564
 1662POPC   D2A23668  12.848   0.485   8.264
 1662POPC   C3A23669  12.878   0.450   7.964
 1662POPC   C4A23670  12.817   0.468   7.664
 1662POPC   C1B23671  12.984   0.230   8.564
 1662POPC   C2B23672  13.076   0.216   8.264
 1662POPC   C3B23673  13.055   0.306   7.964
 1662POPC   C4B23674  13.001   0.261   7.664
 1663POPC   NC323675  19.873  26.801   9.464
 1663POPC   PO423676  19.810  26.780   9.164
 1663POPC   GL123677  19.824  26.805   8.864
 1663POPC   GL223678  19.796  26.705   8.864
 1663POPC   C1A23679  19.880  26.851   8.564
 1663POPC   D2A23680  19.808  26.810   8.264
 1663POPC   C3A23681  19.883  26.816   7.964
 1663POPC   C4A23682  19.841  26.770   7.664
 1663POPC   C1B23683  19.860  26.564   8.564
 1663POPC   C2B23684  19.838  26.520   8.264
 1663POPC   C3B23685  19.797  26.561   7.964
 1663POPC   C4B23686  19.778  26.518   7.664
 1664POPC   NC323687  43.143  12.901   9.464
 1664POPC   PO423688  43.067  12.868   9.164
 1664POPC   GL123689  43.067  12.814   8.864
 1664POPC   GL223690  42.990  12.850   8.864
 1664POPC   C1A23691  43.103  12.860   8.564
 1664POPC   D2A23692  43.071  12.816   8.264
 1664POPC   C3A23693  43.077  12.846   7.964
 1664POPC   C4A23694  43.092  12.857   7.664
 1664POPC   C1B23695  42.846  12.797   8.564
 1664POPC   C2B23696  42.920  12.714   8.264
 1664POPC   C3B23697  42.873  12.727   7.964
 1664POPC   C4B23698  42.882  12.728   7.664
 1665POPC   NC323699  26.075   7.425   9.464
 1665POPC   PO423700  26.051   7.375   9.164
 1665POPC   GL123701  26.089   7.419   8.864
 1665POPC   GL223702  26.129   7.542   8.864
 1665POPC   C1A23703  26.038   7.467   8.564
 1665POPC   D2A23704  25.998   7.431   8.264
 1665POPC   C3A23705  25.999   7.420   7.964
 1665POPC   C4A23706  25.999   7.442   7.664
 1665POPC   C1B23707  26.230   7.603   8.564
 1665POPC   C2B23708  26.169   7.612   8.264
 1665POPC   C3B23709  26.214   7.582   7.964
 1665POPC   C4B23710  26.219   7.574   7.664
 1666POPC   NC323711   8.243  19.794   9.464
 1666POPC   PO423712   8.183  19.855   9.164
 1666POPC   GL123713   8.165  19.817   8.864
 1666POPC   GL223714   8.052  19.805   8.864
 1666POPC   C1A23715   8.188  19.814   8.564
 1666POPC   D2A23716   8.221  19.856   8.264
 1666POPC   C3A23717   8.192  19.830   7.964
 1666POPC   C4A23718   8.169  19.790   7.664
 1666POPC   C1B23719   7.980  19.782   8.564
 1666POPC   C2B23720   7.957  19.839   8.264
 1666POPC   C3B23721   7.906  19.800   7.964
 1666POPC   C4B23722   7.967  19.852   7.664
 1667POPC   NC323723   8.956  39.967   9.464
 1667POPC   PO423724   8.992  40.038   9.164
 1667POPC   GL123725   9.010  40.056   8.864
 1667POPC   GL223726   8.929  39.938   8.864
 1667POPC   C1A23727   8.933  40.045   8.564
 1667POPC   D2A23728   8.956  40.016   8.264
 1667POPC   C3A23729   8.952  39.975   7.964
 1667POPC   C4A23730   8.970  40.045   7.664
 1667POPC   C1B23731   8.913  39.796   8.564
 1667POPC   C2B23732   8.854  39.748   8.264
 1667POPC   C3B23733   8.867  39.741   7.964
 1667POPC   C4B23734   8.906  39.769   7.664
 1668POPC   NC323735   3.535  38.456   9.464
 1668POPC   PO423736   3.582  38.414   9.164
 1668POPC   GL123737   3.515  38.490   8.864
 1668POPC   GL223738   3.591  38.516   8.864
 1668POPC   C1A23739   3.525  38.487   8.564
 1668POPC   D2A23740   3.552  38.426   8.264
 1668POPC   C3A23741   3.533  38.410   7.964
 1668POPC   C4A23742   3.589  38.500   7.664
 1668POPC   C1B23743   3.757  38.656   8.564
 1668POPC   C2B23744   3.748  38.603   8.264
 1668POPC   C3B23745   3.671  38.595   7.964
 1668POPC   C4B23746   3.748  38.662   7.664
 1669POPC   NC323747  43.929  37.684   9.464
 1669POPC   PO423748  43.885  37.709   9.164
 1669POPC   GL123749  43.851  37.723   8.864
 1669POPC   GL223750  43.852  37.774   8.864
 1669POPC   C1A23751  43.846  37.647   8.564
 1669POPC   D2A23752  43.911  37.701   8.264
 1669POPC   C3A23753  43.905  37.716   7.964
 1669POPC   C4A23754  43.920  37.700   7.664
 1669POPC   C1B23755  43.802  37.936   8.564
 1669POPC   C2B23756  43.825  37.955   8.264
 1669POPC   C3B23757  43.772  37.889   7.964
 1669POPC   C4B23758  43.786  37.921   7.664
 1670POPC   NC323759  14.387  12.119   9.464
 1670POPC   PO423760  14.375  12.068   9.164
 1670POPC   GL123761  14.367  12.088   8.864
 1670POPC   GL223762  14.520  12.110   8.864
 1670POPC   C1A23763  14.448  12.090   8.564
 1670POPC   D2A23764  14.360  12.080   8.264
 1670POPC   C3A23765  14.432  12.049   7.964
 1670POPC   C4A23766  14.435  12.114   7.664
 1670POPC   C1B23767  14.605  12.187   8.564
 1670POPC   C2B23768  14.601  12.157   8.264
 1670POPC   C3B23769  14.580  12.156   7.964
 1670POPC   C4B23770  14.603  12.186   7.664
 1671POPC   NC323771  18.299  38.434   9.464
 1671POPC   PO423772  18.295  38.440   9.164
 1671POPC   GL123773  18.289  38.471   8.864
 1671POPC   GL223774  18.387  38.368   8.864
 1671POPC   C1A23775  18.300  38.422   8.564
 1671POPC   D2A23776  18.304  38.415   8.264
 1671POPC   C3A23777  18.282  38.428   7.964
 1671POPC   C4A23778  18.237  38.475   7.664
 1671POPC   C1B23779  18.465  38.314   8.564
 1671POPC   C2B23780  18.472  38.390   8.264
 1671POPC   C3B23781  18.486  38.343   7.964
 1671POPC   C4B23782  18.548  38.333   7.664
 1672POPC   NC323783   8.152   4.365   9.464
 1672POPC   PO423784   8.164   4.289   9.164
 1672POPC   GL123785   8.164   4.299   8.864
 1672POPC   GL223786   8.071   4.258   8.864
 1672POPC   C1A23787   8.194   4.277   8.564
 1672POPC   D2A23788   8.228   4.322   8.264
 1672POPC   C3A23789   8.189   4.298   7.964
 1672POPC   C4A23790   8.157   4.279   7.664
 1672POPC   C1B23791   7.952   4.258   8.564
 1672POPC   C2B23792   7.909   4.337   8.264
 1672POPC   C3B23793   7.932   4.312   7.964
 1672POPC   C4B23794   7.958   4.331   7.664
 1673POPC   NC323795  39.230  32.293   9.464
 1673POPC   PO423796  39.231  32.237   9.164
 1673POPC   GL123797  39.237  32.207   8.864
 1673POPC   GL223798  39.243  32.099   8.864
 1673POPC   C1A23799  39.192  32.206   8.564
 1673POPC   D2A23800  39.267  32.253   8.264
 1673POPC   C3A23801  39.212  32.243   7.964
 1673POPC   C4A23802  39.273  32.257   7.664
 1673POPC   C1B23803  39.246  32.001   8.564
 1673POPC   C2B23804  39.283  32.007   8.264
 1673POPC   C3B23805  39.280  32.017   7.964
 1673POPC   C4B23806  39.254  31.965   7.664
 1674POPC   NC323807  41.518  11.262   9.464
 1674POPC   PO423808  41.552  11.256   9.164
 1674POPC   GL123809  41.545  11.271   8.864
 1674POPC   GL223810  41.536  11.218   8.864
 1674POPC   C1A23811  41.532  11.266   8.564
 1674POPC   D2A23812  41.542  11.298   8.264
 1674POPC   C3A23813  41.519  11.339   7.964
 1674POPC   C4A23814  41.519  11.319   7.664
 1674POPC   C1B23815  41.393  11.049   8.564
 1674POPC   C2B23816  41.475  11.068   8.264
 1674POPC   C3B23817  41.418  11.087   7.964
 1674POPC   C4B23818  41.489  11.079   7.664
 1675POPC   NC323819  24.494  29.921   9.464
 1675POPC   PO423820  24.478  29.942   9.164
 1675POPC   GL123821  24.468  29.947   8.864
 1675POPC   GL223822  24.473  29.839   8.864
 1675POPC   C1A23823  24.518  29.911   8.564
 1675POPC   D2A23824  24.484  29.968   8.264
 1675POPC   C3A23825  24.492  29.901   7.964
 1675POPC   C4A23826  24.511  29.914   7.664
 1675POPC   C1B23827  24.524  29.710   8.564
 1675POPC   C2B23828  24.482  29.708   8.264
 1675POPC   C3B23829  24.526  29.676   7.964
 1675POPC   C4B23830  24.463  29.662   7.664
 1676POPC   NC323831  39.233  21.353   9.464
 1676POPC   PO423832  39.272  21.376   9.164
 1676POPC   GL123833  39.265  21.406   8.864
 1676POPC   GL223834  39.371  21.416   8.864
 1676POPC   C1A23835  39.254  21.431   8.564
 1676POPC   D2A23836  39.276  21.361   8.264
 1676POPC   C3A23837  39.230  21.382   7.964
 1676POPC   C4A23838  39.252  21.355   7.664
 1676POPC   C1B23839  39.495  21.436   8.564
 1676POPC   C2B23840  39.454  21.399   8.264
 1676POPC   C3B23841  39.448  21.396   7.964
 1676POPC   C4B23842  39.464  21.399   7.664
 1677POPC   NC323843  19.816   5.881   9.464
 1677POPC   PO423844  19.786   5.839   9.164
 1677POPC   GL123845  19.840   5.902   8.864
 1677POPC   GL223846  19.735   5.860   8.864
 1677POPC   C1A23847  19.852   5.866   8.564
 1677POPC   D2A23848  19.866   5.878   8.264
 1677POPC   C3A23849  19.827   5.894   7.964
 1677POPC   C4A23850  19.881   5.905   7.664
 1677POPC   C1B23851  19.550   5.890   8.564
 1677POPC   C2B23852  19.571   5.822   8.264
 1677POPC   C3B23853  19.584   5.825   7.964
 1677POPC   C4B23854  19.583   5.841   7.664
 1678POPC   NC323855  12.803  39.226   9.464
 1678POPC   PO423856  12.858  39.272   9.164
 1678POPC   GL123857  12.861  39.218   8.864
 1678POPC   GL223858  12.913  39.156   8.864
 1678POPC   C1A23859  12.866  39.187   8.564
 1678POPC   D2A23860  12.826  39.245   8.264
 1678POPC   C3A23861  12.812  39.228   7.964
 1678POPC   C4A23862  12.869  39.206   7.664
 1678POPC   C1B23863  13.020  38.988   8.564
 1678POPC   C2B23864  12.948  39.065   8.264
 1678POPC   C3B23865  12.984  38.979   7.964
 1678POPC   C4B23866  12.978  39.068   7.664
 1679POPC   NC323867  39.275  32.995   9.464
 1679POPC   PO423868  39.279  33.004   9.164
 1679POPC   GL123869  39.230  33.022   8.864
 1679POPC   GL223870  39.198  32.872   8.864
 1679POPC   C1A23871  39.226  33.016   8.564
 1679POPC   D2A23872  39.190  32.995   8.264
 1679POPC   C3A23873  39.264  33.062   7.964
 1679POPC   C4A23874  39.232  33.043   7.664
 1679POPC   C1B23875  39.124  32.754   8.564
 1679POPC   C2B23876  39.196  32.748   8.264
 1679POPC   C3B23877  39.156  32.773   7.964
 1679POPC   C4B23878  39.154  32.766   7.664
 1680POPC   NC323879  16.747  40.779   9.464
 1680POPC   PO423880  16.752  40.796   9.164
 1680POPC   GL123881  16.690  40.785   8.864
 1680POPC   GL223882  16.741  40.859   8.864
 1680POPC   C1A23883  16.745  40.815   8.564
 1680POPC   D2A23884  16.760  40.811   8.264
 1680POPC   C3A23885  16.695  40.786   7.964
 1680POPC   C4A23886  16.746  40.759   7.664
 1680POPC   C1B23887  16.610  41.040   8.564
 1680POPC   C2B23888  16.635  41.065   8.264
 1680POPC   C3B23889  16.620  40.994   7.964
 1680POPC   C4B23890  16.657  41.059   7.664
 1681POPC   NC323891  44.635  25.233   9.464
 1681POPC   PO423892  44.681  25.280   9.164
 1681POPC   GL123893  44.684  25.242   8.864
 1681POPC   GL223894  44.779  25.295   8.864
 1681POPC   C1A23895  44.703  25.284   8.564
 1681POPC   D2A23896  44.655  25.269   8.264
 1681POPC   C3A23897  44.667  25.238   7.964
 1681POPC   C4A23898  44.670  25.252   7.664
 1681POPC   C1B23899  44.897  25.242   8.564
 1681POPC   C2B23900  44.930  25.232   8.264
 1681POPC   C3B23901  44.914  25.269   7.964
 1681POPC   C4B23902  44.888  25.270   7.664
 1682POPC   NC323903  42.379  28.374   9.464
 1682POPC   PO423904  42.360  28.402   9.164
 1682POPC   GL123905  42.381  28.333   8.864
 1682POPC   GL223906  42.288  28.246   8.864
 1682POPC   C1A23907  42.358  28.404   8.564
 1682POPC   D2A23908  42.329  28.370   8.264
 1682POPC   C3A23909  42.356  28.339   7.964
 1682POPC   C4A23910  42.350  28.363   7.664
 1682POPC   C1B23911  42.339  28.156   8.564
 1682POPC   C2B23912  42.294  28.163   8.264
 1682POPC   C3B23913  42.271  28.164   7.964
 1682POPC   C4B23914  42.324  28.134   7.664
 1683POPC   NC323915  15.962   1.251   9.464
 1683POPC   PO423916  15.946   1.193   9.164
 1683POPC   GL123917  15.908   1.194   8.864
 1683POPC   GL223918  15.932   1.123   8.864
 1683POPC   C1A23919  15.993   1.255   8.564
 1683POPC   D2A23920  15.984   1.165   8.264
 1683POPC   C3A23921  15.992   1.185   7.964
 1683POPC   C4A23922  15.998   1.223   7.664
 1683POPC   C1B23923  15.965   0.968   8.564
 1683POPC   C2B23924  16.008   0.947   8.264
 1683POPC   C3B23925  15.999   0.947   7.964
 1683POPC   C4B23926  16.010   0.980   7.664
 1684POPC   NC323927  23.667  39.274   9.464
 1684POPC   PO423928  23.712  39.218   9.164
 1684POPC   GL123929  23.688  39.208   8.864
 1684POPC   GL223930  23.849  39.107   8.864
 1684POPC   C1A23931  23.748  39.249   8.564
 1684POPC   D2A23932  23.694  39.264   8.264
 1684POPC   C3A23933  23.689  39.259   7.964
 1684POPC   C4A23934  23.746  39.188   7.664
 1684POPC   C1B23935  23.899  39.106   8.564
 1684POPC   C2B23936  23.934  39.011   8.264
 1684POPC   C3B23937  23.891  39.085   7.964
 1684POPC   C4B23938  23.863  39.032   7.664
 1685POPC   NC323939  19.795  39.219   9.464
 1685POPC   PO423940  19.817  39.198   9.164
 1685POPC   GL123941  19.800  39.232   8.864
 1685POPC   GL223942  19.741  39.285   8.864
 1685POPC   C1A23943  19.832  39.220   8.564
 1685POPC   D2A23944  19.854  39.241   8.264
 1685POPC   C3A23945  19.835  39.274   7.964
 1685POPC   C4A23946  19.785  39.221   7.664
 1685POPC   C1B23947  19.688  39.392   8.564
 1685POPC   C2B23948  19.678  39.448   8.264
 1685POPC   C3B23949  19.656  39.471   7.964
 1685POPC   C4B23950  19.626  39.398   7.664
 1686POPC   NC323951  30.744   2.782   9.464
 1686POPC   PO423952  30.677   2.739   9.164
 1686POPC   GL123953  30.710   2.780   8.864
 1686POPC   GL223954  30.643   2.848   8.864
 1686POPC   C1A23955  30.743   2.760   8.564
 1686POPC   D2A23956  30.711   2.794   8.264
 1686POPC   C3A23957  30.685   2.762   7.964
 1686POPC   C4A23958  30.707   2.743   7.664
 1686POPC   C1B23959  30.726   3.038   8.564
 1686POPC   C2B23960  30.653   3.011   8.264
 1686POPC   C3B23961  30.720   2.984   7.964
 1686POPC   C4B23962  30.636   3.027   7.664
 1687POPC   NC323963  32.992  39.212   9.464
 1687POPC   PO423964  33.070  39.248   9.164
 1687POPC   GL123965  33.036  39.195   8.864
 1687POPC   GL223966  33.097  39.268   8.864
 1687POPC   C1A23967  32.976  39.272   8.564
 1687POPC   D2A23968  33.019  39.254   8.264
 1687POPC   C3A23969  33.048  39.236   7.964
 1687POPC   C4A23970  33.040  39.206   7.664
 1687POPC   C1B23971  33.272  39.340   8.564
 1687POPC   C2B23972  33.213  39.311   8.264
 1687POPC   C3B23973  33.199  39.313   7.964
 1687POPC   C4B23974  33.259  39.317   7.664
 1688POPC   NC323975  43.854  14.409   9.464
 1688POPC   PO423976  43.923  14.385   9.164
 1688POPC   GL123977  43.859  14.395   8.864
 1688POPC   GL223978  43.973  14.355   8.864
 1688POPC   C1A23979  43.902  14.394   8.564
 1688POPC   D2A23980  43.924  14.442   8.264
 1688POPC   C3A23981  43.879  14.374   7.964
 1688POPC   C4A23982  43.907  14.356   7.664
 1688POPC   C1B23983  44.116  14.331   8.564
 1688POPC   C2B23984  44.096  14.354   8.264
 1688POPC   C3B23985  44.086  14.345   7.964
 1688POPC   C4B23986  44.093  14.293   7.664
 1689POPC   NC323987  21.341  14.434   9.464
 1689POPC   PO423988  21.357  14.386   9.164
 1689POPC   GL123989  21.409  14.415   8.864
 1689POPC   GL223990  21.482  14.476   8.864
 1689POPC   C1A23991  21.432  14.396   8.564
 1689POPC   D2A23992  21.392  14.376   8.264
 1689POPC   C3A23993  21.422  14.448   7.964
 1689POPC   C4A23994  21.407  14.406   7.664
 1689POPC   C1B23995  21.469  14.635   8.564
 1689POPC   C2B23996  21.465  14.612   8.264
 1689POPC   C3B23997  21.507  14.589   7.964
 1689POPC   C4B23998  21.520  14.664   7.664
 1690POPC   NC323999  29.874  15.146   9.464
 1690POPC   PO424000  29.888  15.228   9.164
 1690POPC   GL124001  29.944  15.213   8.864
 1690POPC   GL224002  29.952  15.035   8.864
 1690POPC   C1A24003  29.941  15.133   8.564
 1690POPC   D2A24004  29.889  15.229   8.264
 1690POPC   C3A24005  29.879  15.193   7.964
 1690POPC   C4A24006  29.882  15.167   7.664
 1690POPC   C1B24007  29.856  14.885   8.564
 1690POPC   C2B24008  29.882  14.955   8.264
 1690POPC   C3B24009  29.870  14.887   7.964
 1690POPC   C4B24010  29.879  14.889   7.664
 1691POPC   NC324011  12.841  21.421   9.464
 1691POPC   PO424012  12.824  21.411   9.164
 1691POPC   GL124013  12.860  21.383   8.864
 1691POPC   GL224014  12.968  21.498   8.864
 1691POPC   C1A24015  12.881  21.426   8.564
 1691POPC   D2A24016  12.847  21.375   8.264
 1691POPC   C3A24017  12.857  21.431   7.964
 1691POPC   C4A24018  12.810  21.364   7.664
 1691POPC   C1B24019  13.037  21.553   8.564
 1691POPC   C2B24020  13.106  21.559   8.264
 1691POPC   C3B24021  13.107  21.516   7.964
 1691POPC   C4B24022  13.068  21.511   7.664
 1692POPC   NC324023  36.118  29.937   9.464
 1692POPC   PO424024  36.131  29.890   9.164
 1692POPC   GL124025  36.174  29.902   8.864
 1692POPC   GL224026  35.989  29.935   8.864
 1692POPC   C1A24027  36.139  29.884   8.564
 1692POPC   D2A24028  36.120  29.963   8.264
 1692POPC   C3A24029  36.109  29.935   7.964
 1692POPC   C4A24030  36.177  29.928   7.664
 1692POPC   C1B24031  35.863  30.057   8.564
 1692POPC   C2B24032  35.874  30.061   8.264
 1692POPC   C3B24033  35.947  30.073   7.964
 1692POPC   C4B24034  35.924  30.068   7.664
 1693POPC   NC324035  36.147  42.287   9.464
 1693POPC   PO424036  36.148  42.307   9.164
 1693POPC   GL124037  36.171  42.353   8.864
 1693POPC   GL224038  36.087  42.464   8.864
 1693POPC   C1A24039  36.129  42.343   8.564
 1693POPC   D2A24040  36.130  42.333   8.264
 1693POPC   C3A24041  36.137  42.334   7.964
 1693POPC   C4A24042  36.174  42.325   7.664
 1693POPC   C1B24043  36.022  42.543   8.564
 1693POPC   C2B24044  36.036  42.625   8.264
 1693POPC   C3B24045  36.088  42.567   7.964
 1693POPC   C4B24046  36.095  42.620   7.664
 1694POPC   NC324047  16.747  34.536   9.464
 1694POPC   PO424048  16.748  34.566   9.164
 1694POPC   GL124049  16.707  34.601   8.864
 1694POPC   GL224050  16.653  34.458   8.864
 1694POPC   C1A24051  16.712  34.614   8.564
 1694POPC   D2A24052  16.744  34.534   8.264
 1694POPC   C3A24053  16.696  34.561   7.964
 1694POPC   C4A24054  16.777  34.529   7.664
 1694POPC   C1B24055  16.543  34.359   8.564
 1694POPC   C2B24056  16.512  34.431   8.264
 1694POPC   C3B24057  16.564  34.347   7.964
 1694POPC   C4B24058  16.533  34.351   7.664
 1695POPC   NC324059  34.590   5.889   9.464
 1695POPC   PO424060  34.540   5.853   9.164
 1695POPC   GL124061  34.548   5.875   8.864
 1695POPC   GL224062  34.485   5.759   8.864
 1695POPC   C1A24063  34.603   5.902   8.564
 1695POPC   D2A24064  34.618   5.871   8.264
 1695POPC   C3A24065  34.602   5.832   7.964
 1695POPC   C4A24066  34.611   5.910   7.664
 1695POPC   C1B24067  34.431   5.667   8.564
 1695POPC   C2B24068  34.470   5.647   8.264
 1695POPC   C3B24069  34.427   5.650   7.964
 1695POPC   C4B24070  34.424   5.668   7.664
 1696POPC   NC324071  32.254  36.168   9.464
 1696POPC   PO424072  32.251  36.084   9.164
 1696POPC   GL124073  32.228  36.088   8.864
 1696POPC   GL224074  32.179  36.279   8.864
 1696POPC   C1A24075  32.233  36.163   8.564
 1696POPC   D2A24076  32.274  36.147   8.264
 1696POPC   C3A24077  32.226  36.174   7.964
 1696POPC   C4A24078  32.264  36.085   7.664
 1696POPC   C1B24079  32.217  36.354   8.564
 1696POPC   C2B24080  32.204  36.343   8.264
 1696POPC   C3B24081  32.191  36.410   7.964
 1696POPC   C4B24082  32.188  36.407   7.664
 1697POPC   NC324083  38.437  29.961   9.464
 1697POPC   PO424084  38.500  29.933   9.164
 1697POPC   GL124085  38.428  29.950   8.864
 1697POPC   GL224086  38.520  30.024   8.864
 1697POPC   C1A24087  38.455  29.896   8.564
 1697POPC   D2A24088  38.501  29.912   8.264
 1697POPC   C3A24089  38.406  29.938   7.964
 1697POPC   C4A24090  38.477  29.930   7.664
 1697POPC   C1B24091  38.596  30.110   8.564
 1697POPC   C2B24092  38.581  30.084   8.264
 1697POPC   C3B24093  38.616  30.107   7.964
 1697POPC   C4B24094  38.640  30.086   7.664
 1698POPC   NC324095   9.735  31.522   9.464
 1698POPC   PO424096   9.722  31.451   9.164
 1698POPC   GL124097   9.764  31.426   8.864
 1698POPC   GL224098   9.801  31.526   8.864
 1698POPC   C1A24099   9.717  31.490   8.564
 1698POPC   D2A24100   9.745  31.507   8.264
 1698POPC   C3A24101   9.720  31.469   7.964
 1698POPC   C4A24102   9.764  31.424   7.664
 1698POPC   C1B24103   9.969  31.631   8.564
 1698POPC   C2B24104   9.954  31.623   8.264
 1698POPC   C3B24105   9.891  31.669   7.964
 1698POPC   C4B24106   9.986  31.648   7.664
 1699POPC   NC324107  15.909  36.867   9.464
 1699POPC   PO424108  15.947  36.945   9.164
 1699POPC   GL124109  15.964  36.944   8.864
 1699POPC   GL224110  15.957  36.817   8.864
 1699POPC   C1A24111  15.911  36.907   8.564
 1699POPC   D2A24112  16.002  36.863   8.264
 1699POPC   C3A24113  15.942  36.940   7.964
 1699POPC   C4A24114  15.956  36.929   7.664
 1699POPC   C1B24115  15.958  36.666   8.564
 1699POPC   C2B24116  15.926  36.604   8.264
 1699POPC   C3B24117  15.917  36.699   7.964
 1699POPC   C4B24118  15.946  36.606   7.664
 1700POPC   NC324119  33.804   6.644   9.464
 1700POPC   PO424120  33.764   6.675   9.164
 1700POPC   GL124121  33.847   6.662   8.864
 1700POPC   GL224122  33.900   6.593   8.864
 1700POPC   C1A24123  33.766   6.670   8.564
 1700POPC   D2A24124  33.830   6.616   8.264
 1700POPC   C3A24125  33.844   6.687   7.964
 1700POPC   C4A24126  33.839   6.637   7.664
 1700POPC   C1B24127  34.031   6.605   8.564
 1700POPC   C2B24128  34.024   6.589   8.264
 1700POPC   C3B24129  34.015   6.633   7.964
 1700POPC   C4B24130  34.099   6.617   7.664
 1701POPC   NC324131   5.894  22.960   9.464
 1701POPC   PO424132   5.915  22.891   9.164
 1701POPC   GL124133   5.884  22.986   8.864
 1701POPC   GL224134   5.765  22.866   8.864
 1701POPC   C1A24135   5.823  22.962   8.564
 1701POPC   D2A24136   5.904  22.940   8.264
 1701POPC   C3A24137   5.903  22.941   7.964
 1701POPC   C4A24138   5.836  22.957   7.664
 1701POPC   C1B24139   5.734  22.773   8.564
 1701POPC   C2B24140   5.713  22.761   8.264
 1701POPC   C3B24141   5.732  22.791   7.964
 1701POPC   C4B24142   5.672  22.758   7.664
 1702POPC   NC324143  28.348  43.156   9.464
 1702POPC   PO424144  28.327  43.145   9.164
 1702POPC   GL124145  28.325  43.149   8.864
 1702POPC   GL224146  28.508  43.137   8.864
 1702POPC   C1A24147  28.394  43.155   8.564
 1702POPC   D2A24148  28.396  43.125   8.264
 1702POPC   C3A24149  28.335  43.120   7.964
 1702POPC   C4A24150  28.405  43.148   7.664
 1702POPC   C1B24151  28.625  43.239   8.564
 1702POPC   C2B24152  28.627  43.220   8.264
 1702POPC   C3B24153  28.583  43.233   7.964
 1702POPC   C4B24154  28.637  43.217   7.664
 1703POPC   NC324155   1.993  40.052   9.464
 1703POPC   PO424156   1.941  40.056   9.164
 1703POPC   GL124157   2.040  39.979   8.864
 1703POPC   GL224158   1.938  40.078   8.864
 1703POPC   C1A24159   1.970  40.011   8.564
 1703POPC   D2A24160   1.964  40.029   8.264
 1703POPC   C3A24161   2.021  40.004   7.964
 1703POPC   C4A24162   2.007  40.016   7.664
 1703POPC   C1B24163   1.864  40.189   8.564
 1703POPC   C2B24164   1.890  40.269   8.264
 1703POPC   C3B24165   1.893  40.249   7.964
 1703POPC   C4B24166   1.910  40.205   7.664
 1704POPC   NC324167  40.017  30.661   9.464
 1704POPC   PO424168  39.981  30.653   9.164
 1704POPC   GL124169  39.980  30.731   8.864
 1704POPC   GL224170  39.946  30.805   8.864
 1704POPC   C1A24171  40.038  30.736   8.564
 1704POPC   D2A24172  40.000  30.724   8.264
 1704POPC   C3A24173  39.991  30.695   7.964
 1704POPC   C4A24174  39.981  30.664   7.664
 1704POPC   C1B24175  39.806  30.782   8.564
 1704POPC   C2B24176  39.815  30.814   8.264
 1704POPC   C3B24177  39.748  30.845   7.964
 1704POPC   C4B24178  39.782  30.822   7.664
 1705POPC   NC324179  30.678  25.251   9.464
 1705POPC   PO424180  30.699  25.220   9.164
 1705POPC   GL124181  30.668  25.290   8.864
 1705POPC   GL224182  30.818  25.216   8.864
 1705POPC   C1A24183  30.693  25.288   8.564
 1705POPC   D2A24184  30.659  25.276   8.264
 1705POPC   C3A24185  30.684  25.254   7.964
 1705POPC   C4A24186  30.704  25.238   7.664
 1705POPC   C1B24187  30.900  25.306   8.564
 1705POPC   C2B24188  30.950  25.229   8.264
 1705POPC   C3B24189  30.942  25.218   7.964
 1705POPC   C4B24190  30.938  25.219   7.664
 1706POPC   NC324191  31.518  39.961   9.464
 1706POPC   PO424192  31.427  40.042   9.164
 1706POPC   GL124193  31.475  40.018   8.864
 1706POPC   GL224194  31.576  39.992   8.864
 1706POPC   C1A24195  31.521  40.006   8.564
 1706POPC   D2A24196  31.481  39.958   8.264
 1706POPC   C3A24197  31.442  39.971   7.964
 1706POPC   C4A24198  31.508  40.023   7.664
 1706POPC   C1B24199  31.731  39.914   8.564
 1706POPC   C2B24200  31.748  39.890   8.264
 1706POPC   C3B24201  31.702  39.881   7.964
 1706POPC   C4B24202  31.701  39.961   7.664
 1707POPC   NC324203   8.222  43.849   9.464
 1707POPC   PO424204   8.208  43.879   9.164
 1707POPC   GL124205   8.186  43.887   8.864
 1707POPC   GL224206   8.248  43.949   8.864
 1707POPC   C1A24207   8.227  43.906   8.564
 1707POPC   D2A24208   8.183  43.911   8.264
 1707POPC   C3A24209   8.166  43.876   7.964
 1707POPC   C4A24210   8.171  43.868   7.664
 1707POPC   C1B24211   8.293  44.124   8.564
 1707POPC   C2B24212   8.334  44.086   8.264
 1707POPC   C3B24213   8.349  44.152   7.964
 1707POPC   C4B24214   8.356  44.064   7.664
 1708POPC   NC324215  18.249   8.209   9.464
 1708POPC   PO424216  18.311   8.194   9.164
 1708POPC   GL124217  18.316   8.188   8.864
 1708POPC   GL224218  18.145   8.245   8.864
 1708POPC   C1A24219  18.275   8.197   8.564
 1708POPC   D2A24220  18.310   8.160   8.264
 1708POPC   C3A24221  18.295   8.205   7.964
 1708POPC   C4A24222  18.249   8.240   7.664
 1708POPC   C1B24223  18.010   8.251   8.564
 1708POPC   C2B24224  18.044   8.242   8.264
 1708POPC   C3B24225  18.054   8.199   7.964
 1708POPC   C4B24226  18.053   8.254   7.664
 1709POPC   NC324227  11.319   7.410   9.464
 1709POPC   PO424228  11.270   7.436   9.164
 1709POPC   GL124229  11.339   7.456   8.864
 1709POPC   GL224230  11.174   7.364   8.864
 1709POPC   C1A24231  11.254   7.414   8.564
 1709POPC   D2A24232  11.328   7.430   8.264
 1709POPC   C3A24233  11.279   7.426   7.964
 1709POPC   C4A24234  11.299   7.386   7.664
 1709POPC   C1B24235  11.141   7.193   8.564
 1709POPC   C2B24236  11.163   7.207   8.264
 1709POPC   C3B24237  11.134   7.197   7.964
 1709POPC   C4B24238  11.152   7.193   7.664
 1710POPC   NC324239  11.297  36.932   9.464
 1710POPC   PO424240  11.311  36.855   9.164
 1710POPC   GL124241  11.290  36.935   8.864
 1710POPC   GL224242  11.178  36.933   8.864
 1710POPC   C1A24243  11.344  36.863   8.564
 1710POPC   D2A24244  11.299  36.926   8.264
 1710POPC   C3A24245  11.251  36.938   7.964
 1710POPC   C4A24246  11.263  36.938   7.664
 1710POPC   C1B24247  11.007  36.881   8.564
 1710POPC   C2B24248  11.079  36.951   8.264
 1710POPC   C3B24249  11.090  36.908   7.964
 1710POPC   C4B24250  11.023  36.923   7.664
 1711POPC   NC324251  43.867  15.932   9.464
 1711POPC   PO424252  43.882  15.951   9.164
 1711POPC   GL124253  43.913  15.924   8.864
 1711POPC   GL224254  43.887  15.809   8.864
 1711POPC   C1A24255  43.865  15.956   8.564
 1711POPC   D2A24256  43.877  15.918   8.264
 1711POPC   C3A24257  43.849  15.937   7.964
 1711POPC   C4A24258  43.865  15.974   7.664
 1711POPC   C1B24259  44.032  15.739   8.564
 1711POPC   C2B24260  43.947  15.769   8.264
 1711POPC   C3B24261  43.994  15.713   7.964
 1711POPC   C4B24262  43.936  15.677   7.664
 1712POPC   NC324263   6.675  17.498   9.464
 1712POPC   PO424264   6.640  17.469   9.164
 1712POPC   GL124265   6.665  17.487   8.864
 1712POPC   GL224266   6.721  17.379   8.864
 1712POPC   C1A24267   6.653  17.526   8.564
 1712POPC   D2A24268   6.679  17.515   8.264
 1712POPC   C3A24269   6.631  17.518   7.964
 1712POPC   C4A24270   6.636  17.482   7.664
 1712POPC   C1B24271   6.803  17.334   8.564
 1712POPC   C2B24272   6.790  17.325   8.264
 1712POPC   C3B24273   6.840  17.351   7.964
 1712POPC   C4B24274   6.808  17.334   7.664
 1713POPC   NC324275  37.685  15.147   9.464
 1713POPC   PO424276  37.645  15.174   9.164
 1713POPC   GL124277  37.635  15.223   8.864
 1713POPC   GL224278  37.602  15.313   8.864
 1713POPC   C1A24279  37.652  15.213   8.564
 1713POPC   D2A24280  37.689  15.219   8.264
 1713POPC   C3A24281  37.676  15.152   7.964
 1713POPC   C4A24282  37.725  15.226   7.664
 1713POPC   C1B24283  37.535  15.354   8.564
 1713POPC   C2B24284  37.538  15.420   8.264
 1713POPC   C3B24285  37.581  15.333   7.964
 1713POPC   C4B24286  37.577  15.353   7.664
 1714POPC   NC324287  10.487   2.806   9.464
 1714POPC   PO424288  10.520   2.760   9.164
 1714POPC   GL124289  10.478   2.771   8.864
 1714POPC   GL224290  10.490   2.673   8.864
 1714POPC   C1A24291  10.495   2.788   8.564
 1714POPC   D2A24292  10.558   2.792   8.264
 1714POPC   C3A24293  10.507   2.788   7.964
 1714POPC   C4A24294  10.542   2.716   7.664
 1714POPC   C1B24295  10.484   2.531   8.564
 1714POPC   C2B24296  10.477   2.537   8.264
 1714POPC   C3B24297  10.462   2.530   7.964
 1714POPC   C4B24298  10.456   2.561   7.664
 1715POPC   NC324299  36.163  19.852   9.464
 1715POPC   PO424300  36.177  19.815   9.164
 1715POPC   GL124301  36.126  19.809   8.864
 1715POPC   GL224302  36.199  19.790   8.864
 1715POPC   C1A24303  36.144  19.882   8.564
 1715POPC   D2A24304  36.139  19.855   8.264
 1715POPC   C3A24305  36.116  19.838   7.964
 1715POPC   C4A24306  36.085  19.825   7.664
 1715POPC   C1B24307  36.310  19.702   8.564
 1715POPC   C2B24308  36.409  19.788   8.264
 1715POPC   C3B24309  36.400  19.743   7.964
 1715POPC   C4B24310  36.349  19.753   7.664
 1716POPC   NC324311  13.667  21.402   9.464
 1716POPC   PO424312  13.659  21.421   9.164
 1716POPC   GL124313  13.589  21.394   8.864
 1716POPC   GL224314  13.553  21.303   8.864
 1716POPC   C1A24315  13.603  21.420   8.564
 1716POPC   D2A24316  13.628  21.424   8.264
 1716POPC   C3A24317  13.638  21.360   7.964
 1716POPC   C4A24318  13.659  21.359   7.664
 1716POPC   C1B24319  13.409  21.268   8.564
 1716POPC   C2B24320  13.347  21.286   8.264
 1716POPC   C3B24321  13.391  21.321   7.964
 1716POPC   C4B24322  13.347  21.290   7.664
 1717POPC   NC324323  23.751  36.154   9.464
 1717POPC   PO424324  23.696  36.133   9.164
 1717POPC   GL124325  23.716  36.085   8.864
 1717POPC   GL224326  23.609  36.200   8.864
 1717POPC   C1A24327  23.736  36.123   8.564
 1717POPC   D2A24328  23.708  36.114   8.264
 1717POPC   C3A24329  23.722  36.096   7.964
 1717POPC   C4A24330  23.759  36.081   7.664
 1717POPC   C1B24331  23.493  36.292   8.564
 1717POPC   C2B24332  23.496  36.295   8.264
 1717POPC   C3B24333  23.537  36.247   7.964
 1717POPC   C4B24334  23.562  36.298   7.664
 1718POPC   NC324335  16.742  16.713   9.464
 1718POPC   PO424336  16.774  16.757   9.164
 1718POPC   GL124337  16.729  16.779   8.864
 1718POPC   GL224338  16.836  16.758   8.864
 1718POPC   C1A24339  16.701  16.683   8.564
 1718POPC   D2A24340  16.698  16.721   8.264
 1718POPC   C3A24341  16.712  16.691   7.964
 1718POPC   C4A24342  16.763  16.709   7.664
 1718POPC   C1B24343  16.930  16.813   8.564
 1718POPC   C2B24344  16.946  16.804   8.264
 1718POPC   C3B24345  16.957  16.837   7.964
 1718POPC   C4B24346  16.932  16.776   7.664
 1719POPC   NC324347  22.929  26.863   9.464
 1719POPC   PO424348  22.914  26.819   9.164
 1719POPC   GL124349  22.961  26.785   8.864
 1719POPC   GL224350  22.964  26.740   8.864
 1719POPC   C1A24351  22.924  26.839   8.564
 1719POPC   D2A24352  22.947  26.805   8.264
 1719POPC   C3A24353  22.925  26.841   7.964
 1719POPC   C4A24354  22.956  26.820   7.664
 1719POPC   C1B24355  22.932  26.587   8.564
 1719POPC   C2B24356  22.951  26.544   8.264
 1719POPC   C3B24357  22.906  26.582   7.964
 1719POPC   C4B24358  22.897  26.602   7.664
 1720POPC   NC324359  43.128   1.180   9.464
 1720POPC   PO424360  43.137   1.186   9.164
 1720POPC   GL124361  43.147   1.251   8.864
 1720POPC   GL224362  43.006   1.086   8.864
 1720POPC   C1A24363  43.159   1.172   8.564
 1720POPC   D2A24364  43.141   1.179   8.264
 1720POPC   C3A24365  43.095   1.170   7.964
 1720POPC   C4A24366  43.130   1.249   7.664
 1720POPC   C1B24367  42.975   1.029   8.564
 1720POPC   C2B24368  42.998   0.982   8.264
 1720POPC   C3B24369  43.027   0.955   7.964
 1720POPC   C4B24370  42.965   1.027   7.664
 1721POPC   NC324371  39.230   5.882   9.464
 1721POPC   PO424372  39.263   5.871   9.164
 1721POPC   GL124373  39.226   5.822   8.864
 1721POPC   GL224374  39.277   6.013   8.864
 1721POPC   C1A24375  39.187   5.863   8.564
 1721POPC   D2A24376  39.232   5.855   8.264
 1721POPC   C3A24377  39.201   5.826   7.964
 1721POPC   C4A24378  39.259   5.851   7.664
 1721POPC   C1B24379  39.234   6.080   8.564
 1721POPC   C2B24380  39.262   6.069   8.264
 1721POPC   C3B24381  39.252   6.093   7.964
 1721POPC   C4B24382  39.206   6.141   7.664
 1722POPC   NC324383   4.270  33.770   9.464
 1722POPC   PO424384   4.341  33.846   9.164
 1722POPC   GL124385   4.308  33.839   8.864
 1722POPC   GL224386   4.233  33.713   8.864
 1722POPC   C1A24387   4.311  33.758   8.564
 1722POPC   D2A24388   4.305  33.827   8.264
 1722POPC   C3A24389   4.285  33.848   7.964
 1722POPC   C4A24390   4.272  33.839   7.664
 1722POPC   C1B24391   4.163  33.572   8.564
 1722POPC   C2B24392   4.171  33.617   8.264
 1722POPC   C3B24393   4.158  33.580   7.964
 1722POPC   C4B24394   4.152  33.553   7.664
 1723POPC   NC324395   6.692  22.922   9.464
 1723POPC   PO424396   6.635  22.953   9.164
 1723POPC   GL124397   6.643  22.975   8.864
 1723POPC   GL224398   6.757  23.006   8.864
 1723POPC   C1A24399   6.671  22.954   8.564
 1723POPC   D2A24400   6.621  22.963   8.264
 1723POPC   C3A24401   6.608  22.952   7.964
 1723POPC   C4A24402   6.682  22.918   7.664
 1723POPC   C1B24403   6.826  23.045   8.564
 1723POPC   C2B24404   6.855  23.022   8.264
 1723POPC   C3B24405   6.862  23.003   7.964
 1723POPC   C4B24406   6.828  23.028   7.664
 1724POPC   NC324407  15.918  40.746   9.464
 1724POPC   PO424408  15.910  40.798   9.164
 1724POPC   GL124409  15.916  40.829   8.864
 1724POPC   GL224410  15.798  40.741   8.864
 1724POPC   C1A24411  15.964  40.782   8.564
 1724POPC   D2A24412  15.908  40.770   8.264
 1724POPC   C3A24413  16.002  40.785   7.964
 1724POPC   C4A24414  15.940  40.810   7.664
 1724POPC   C1B24415  15.729  40.753   8.564
 1724POPC   C2B24416  15.743  40.751   8.264
 1724POPC   C3B24417  15.753  40.741   7.964
 1724POPC   C4B24418  15.753  40.738   7.664
 1725POPC   NC324419  43.122  22.172   9.464
 1725POPC   PO424420  43.082  22.158   9.164
 1725POPC   GL124421  43.074  22.162   8.864
 1725POPC   GL224422  43.277  22.136   8.864
 1725POPC   C1A24423  43.080  22.203   8.564
 1725POPC   D2A24424  43.140  22.115   8.264
 1725POPC   C3A24425  43.098  22.115   7.964
 1725POPC   C4A24426  43.155  22.121   7.664
 1725POPC   C1B24427  43.345  22.108   8.564
 1725POPC   C2B24428  43.305  22.139   8.264
 1725POPC   C3B24429  43.344  22.067   7.964
 1725POPC   C4B24430  43.345  22.090   7.664
 1726POPC   NC324431   4.316  36.117   9.464
 1726POPC   PO424432   4.342  36.171   9.164
 1726POPC   GL124433   4.273  36.083   8.864
 1726POPC   GL224434   4.199  36.180   8.864
 1726POPC   C1A24435   4.307  36.119   8.564
 1726POPC   D2A24436   4.354  36.113   8.264
 1726POPC   C3A24437   4.365  36.144   7.964
 1726POPC   C4A24438   4.321  36.177   7.664
 1726POPC   C1B24439   4.066  36.178   8.564
 1726POPC   C2B24440   4.057  36.131   8.264
 1726POPC   C3B24441   4.058  36.113   7.964
 1726POPC   C4B24442   4.082  36.158   7.664
 1727POPC   NC324443  19.099   4.300   9.464
 1727POPC   PO424444  19.104   4.321   9.164
 1727POPC   GL124445  19.016   4.338   8.864
 1727POPC   GL224446  19.034   4.225   8.864
 1727POPC   C1A24447  19.050   4.346   8.564
 1727POPC   D2A24448  19.059   4.278   8.264
 1727POPC   C3A24449  19.022   4.284   7.964
 1727POPC   C4A24450  19.023   4.341   7.664
 1727POPC   C1B24451  18.948   4.087   8.564
 1727POPC   C2B24452  18.965   4.095   8.264
 1727POPC   C3B24453  18.959   4.032   7.964
 1727POPC   C4B24454  18.961   4.052   7.664
 1728POPC   NC324455  20.653   4.280   9.464
 1728POPC   PO424456  20.632   4.286   9.164
 1728POPC   GL124457  20.631   4.330   8.864
 1728POPC   GL224458  20.664   4.390   8.864
 1728POPC   C1A24459  20.578   4.309   8.564
 1728POPC   D2A24460  20.587   4.316   8.264
 1728POPC   C3A24461  20.660   4.358   7.964
 1728POPC   C4A24462  20.593   4.336   7.664
 1728POPC   C1B24463  20.740   4.572   8.564
 1728POPC   C2B24464  20.736   4.596   8.264
 1728POPC   C3B24465  20.667   4.564   7.964
 1728POPC   C4B24466  20.655   4.517   7.664
 1729POPC   NC324467  42.288   8.995   9.464
 1729POPC   PO424468  42.285   8.937   9.164
 1729POPC   GL124469  42.345   9.007   8.864
 1729POPC   GL224470  42.417   8.937   8.864
 1729POPC   C1A24471  42.377   8.932   8.564
 1729POPC   D2A24472  42.317   8.935   8.264
 1729POPC   C3A24473  42.355   8.992   7.964
 1729POPC   C4A24474  42.357   8.959   7.664
 1729POPC   C1B24475  42.515   8.822   8.564
 1729POPC   C2B24476  42.533   8.902   8.264
 1729POPC   C3B24477  42.557   8.877   7.964
 1729POPC   C4B24478  42.527   8.907   7.664
 1730POPC   NC324479  27.567  30.717   9.464
 1730POPC   PO424480  27.628  30.659   9.164
 1730POPC   GL124481  27.572  30.723   8.864
 1730POPC   GL224482  27.611  30.592   8.864
 1730POPC   C1A24483  27.593  30.701   8.564
 1730POPC   D2A24484  27.584  30.695   8.264
 1730POPC   C3A24485  27.568  30.651   7.964
 1730POPC   C4A24486  27.631  30.670   7.664
 1730POPC   C1B24487  27.683  30.447   8.564
 1730POPC   C2B24488  27.636  30.496   8.264
 1730POPC   C3B24489  27.603  30.480   7.964
 1730POPC   C4B24490  27.683  30.443   7.664
 1731POPC   NC324491  43.076  24.450   9.464
 1731POPC   PO424492  43.116  24.528   9.164
 1731POPC   GL124493  43.151  24.448   8.864
 1731POPC   GL224494  43.224  24.357   8.864
 1731POPC   C1A24495  43.128  24.534   8.564
 1731POPC   D2A24496  43.149  24.506   8.264
 1731POPC   C3A24497  43.143  24.469   7.964
 1731POPC   C4A24498  43.121  24.531   7.664
 1731POPC   C1B24499  43.272  24.310   8.564
 1731POPC   C2B24500  43.262  24.336   8.264
 1731POPC   C3B24501  43.255  24.305   7.964
 1731POPC   C4B24502  43.300  24.293   7.664
 1732POPC   NC324503  42.351  33.757   9.464
 1732POPC   PO424504  42.315  33.763   9.164
 1732POPC   GL124505  42.369  33.826   8.864
 1732POPC   GL224506  42.286  33.967   8.864
 1732POPC   C1A24507  42.350  33.772   8.564
 1732POPC   D2A24508  42.357  33.758   8.264
 1732POPC   C3A24509  42.322  33.790   7.964
 1732POPC   C4A24510  42.285  33.751   7.664
 1732POPC   C1B24511  42.304  34.024   8.564
 1732POPC   C2B24512  42.256  34.053   8.264
 1732POPC   C3B24513  42.278  34.073   7.964
 1732POPC   C4B24514  42.251  34.057   7.664
 1733POPC   NC324515  38.494  42.373   9.464
 1733POPC   PO424516  38.431  42.324   9.164
 1733POPC   GL124517  38.431  42.354   8.864
 1733POPC   GL224518  38.384  42.421   8.864
 1733POPC   C1A24519  38.415  42.382   8.564
 1733POPC   D2A24520  38.471  42.307   8.264
 1733POPC   C3A24521  38.405  42.322   7.964
 1733POPC   C4A24522  38.414  42.348   7.664
 1733POPC   C1B24523  38.245  42.509   8.564
 1733POPC   C2B24524  38.300  42.538   8.264
 1733POPC   C3B24525  38.234  42.540   7.964
 1733POPC   C4B24526  38.230  42.506   7.664
 1734POPC   NC324527  28.321  39.247   9.464
 1734POPC   PO424528  28.408  39.240   9.164
 1734POPC   GL124529  28.388  39.229   8.864
 1734POPC   GL224530  28.467  39.155   8.864
 1734POPC   C1A24531  28.332  39.218   8.564
 1734POPC   D2A24532  28.369  39.247   8.264
 1734POPC   C3A24533  28.377  39.202   7.964
 1734POPC   C4A24534  28.347  39.181   7.664
 1734POPC   C1B24535  28.547  39.059   8.564
 1734POPC   C2B24536  28.534  39.051   8.264
 1734POPC   C3B24537  28.559  39.049   7.964
 1734POPC   C4B24538  28.594  39.085   7.664
 1735POPC   NC324539  23.746  18.277   9.464
 1735POPC   PO424540  23.695  18.329   9.164
 1735POPC   GL124541  23.668  18.260   8.864
 1735POPC   GL224542  23.683  18.214   8.864
 1735POPC   C1A24543  23.757  18.267   8.564
 1735POPC   D2A24544  23.759  18.237   8.264
 1735POPC   C3A24545  23.755  18.318   7.964
 1735POPC   C4A24546  23.751  18.250   7.664
 1735POPC   C1B24547  23.606  18.048   8.564
 1735POPC   C2B24548  23.568  18.109   8.264
 1735POPC   C3B24549  23.543  18.085   7.964
 1735POPC   C4B24550  23.623  18.091   7.664
 1736POPC   NC324551  22.902  13.641   9.464
 1736POPC   PO424552  22.895  13.677   9.164
 1736POPC   GL124553  22.985  13.658   8.864
 1736POPC   GL224554  23.080  13.744   8.864
 1736POPC   C1A24555  22.934  13.615   8.564
 1736POPC   D2A24556  22.931  13.583   8.264
 1736POPC   C3A24557  22.950  13.663   7.964
 1736POPC   C4A24558  22.894  13.589   7.664
 1736POPC   C1B24559  23.103  13.766   8.564
 1736POPC   C2B24560  23.170  13.815   8.264
 1736POPC   C3B24561  23.124  13.844   7.964
 1736POPC   C4B24562  23.090  13.787   7.664
 1737POPC   NC324563   8.246  10.490   9.464
 1737POPC   PO424564   8.167  10.543   9.164
 1737POPC   GL124565   8.170  10.509   8.864
 1737POPC   GL224566   8.089  10.531   8.864
 1737POPC   C1A24567   8.203  10.489   8.564
 1737POPC   D2A24568   8.181  10.567   8.264
 1737POPC   C3A24569   8.209  10.529   7.964
 1737POPC   C4A24570   8.221  10.521   7.664
 1737POPC   C1B24571   7.899  10.570   8.564
 1737POPC   C2B24572   7.914  10.571   8.264
 1737POPC   C3B24573   7.930  10.488   7.964
 1737POPC   C4B24574   7.989  10.535   7.664
 1738POPC   NC324575  32.228  14.438   9.464
 1738POPC   PO424576  32.208  14.358   9.164
 1738POPC   GL124577  32.235  14.366   8.864
 1738POPC   GL224578  32.321  14.271   8.864
 1738POPC   C1A24579  32.215  14.381   8.564
 1738POPC   D2A24580  32.270  14.408   8.264
 1738POPC   C3A24581  32.229  14.370   7.964
 1738POPC   C4A24582  32.293  14.381   7.664
 1738POPC   C1B24583  32.419  14.191   8.564
 1738POPC   C2B24584  32.369  14.182   8.264
 1738POPC   C3B24585  32.416  14.145   7.964
 1738POPC   C4B24586  32.330  14.168   7.664
 1739POPC   NC324587  26.857  34.561   9.464
 1739POPC   PO424588  26.775  34.567   9.164
 1739POPC   GL124589  26.859  34.624   8.864
 1739POPC   GL224590  26.945  34.576   8.864
 1739POPC   C1A24591  26.784  34.613   8.564
 1739POPC   D2A24592  26.861  34.611   8.264
 1739POPC   C3A24593  26.779  34.583   7.964
 1739POPC   C4A24594  26.816  34.594   7.664
 1739POPC   C1B24595  27.063  34.513   8.564
 1739POPC   C2B24596  27.020  34.521   8.264
 1739POPC   C3B24597  27.093  34.484   7.964
 1739POPC   C4B24598  27.048  34.461   7.664
 1740POPC   NC324599   5.119  24.447   9.464
 1740POPC   PO424600   5.084  24.477   9.164
 1740POPC   GL124601   5.119  24.481   8.864
 1740POPC   GL224602   5.000  24.402   8.864
 1740POPC   C1A24603   5.068  24.494   8.564
 1740POPC   D2A24604   5.053  24.512   8.264
 1740POPC   C3A24605   5.122  24.446   7.964
 1740POPC   C4A24606   5.049  24.443   7.664
 1740POPC   C1B24607   4.827  24.435   8.564
 1740POPC   C2B24608   4.894  24.380   8.264
 1740POPC   C3B24609   4.893  24.373   7.964
 1740POPC   C4B24610   4.850  24.350   7.664
 1741POPC   NC324611  40.028  44.689   9.464
 1741POPC   PO424612  40.002  44.669   9.164
 1741POPC   GL124613  39.997  44.710   8.864
 1741POPC   GL224614  40.094  44.613   8.864
 1741POPC   C1A24615  39.997  44.644   8.564
 1741POPC   D2A24616  40.034  44.640   8.264
 1741POPC   C3A24617  40.047  44.695   7.964
 1741POPC   C4A24618  39.985  44.628   7.664
 1741POPC   C1B24619  40.210  44.660   8.564
 1741POPC   C2B24620  40.272  44.654   8.264
 1741POPC   C3B24621  40.258  44.586   7.964
 1741POPC   C4B24622  40.252  44.651   7.664
 1742POPC   NC324623  32.200  26.000   9.464
 1742POPC   PO424624  32.223  26.042   9.164
 1742POPC   GL124625  32.270  26.072   8.864
 1742POPC   GL224626  32.203  26.140   8.864
 1742POPC   C1A24627  32.265  26.076   8.564
 1742POPC   D2A24628  32.208  25.998   8.264
 1742POPC   C3A24629  32.264  26.069   7.964
 1742POPC   C4A24630  32.228  26.060   7.664
 1742POPC   C1B24631  32.169  26.239   8.564
 1742POPC   C2B24632  32.178  26.289   8.264
 1742POPC   C3B24633  32.157  26.311   7.964
 1742POPC   C4B24634  32.154  26.252   7.664
 1743POPC   NC324635   5.076   2.019   9.464
 1743POPC   PO424636   5.136   2.033   9.164
 1743POPC   GL124637   5.051   1.960   8.864
 1743POPC   GL224638   5.252   1.944   8.864
 1743POPC   C1A24639   5.086   2.026   8.564
 1743POPC   D2A24640   5.112   2.037   8.264
 1743POPC   C3A24641   5.067   2.007   7.964
 1743POPC   C4A24642   5.059   2.019   7.664
 1743POPC   C1B24643   5.290   1.894   8.564
 1743POPC   C2B24644   5.367   1.863   8.264
 1743POPC   C3B24645   5.275   1.916   7.964
 1743POPC   C4B24646   5.274   1.898   7.664
 1744POPC   NC324647  17.510   8.157   9.464
 1744POPC   PO424648  17.531   8.173   9.164
 1744POPC   GL124649  17.556   8.167   8.864
 1744POPC   GL224650  17.429   8.256   8.864
 1744POPC   C1A24651  17.556   8.188   8.564
 1744POPC   D2A24652  17.521   8.190   8.264
 1744POPC   C3A24653  17.526   8.181   7.964
 1744POPC   C4A24654  17.512   8.206   7.664
 1744POPC   C1B24655  17.230   8.239   8.564
 1744POPC   C2B24656  17.266   8.262   8.264
 1744POPC   C3B24657  17.284   8.307   7.964
 1744POPC   C4B24658  17.223   8.243   7.664
 1745POPC   NC324659  25.993  15.202   9.464
 1745POPC   PO424660  26.056  15.222   9.164
 1745POPC   GL124661  26.041  15.131   8.864
 1745POPC   GL224662  25.936  15.211   8.864
 1745POPC   C1A24663  26.020  15.138   8.564
 1745POPC   D2A24664  26.087  15.145   8.264
 1745POPC   C3A24665  26.030  15.228   7.964
 1745POPC   C4A24666  26.017  15.134   7.664
 1745POPC   C1B24667  25.863  15.279   8.564
 1745POPC   C2B24668  25.857  15.346   8.264
 1745POPC   C3B24669  25.785  15.329   7.964
 1745POPC   C4B24670  25.804  15.316   7.664
 1746POPC   NC324671  44.672  10.530   9.464
 1746POPC   PO424672  44.620  10.524   9.164
 1746POPC   GL124673  44.672  10.483   8.864
 1746POPC   GL224674  44.623  10.418   8.864
 1746POPC   C1A24675  44.658  10.497   8.564
 1746POPC   D2A24676  44.662  10.495   8.264
 1746POPC   C3A24677  44.704  10.565   7.964
 1746POPC   C4A24678  44.656  10.554   7.664
 1746POPC   C1B24679  44.681  10.298   8.564
 1746POPC   C2B24680  44.686  10.316   8.264
 1746POPC   C3B24681  44.716  10.259   7.964
 1746POPC   C4B24682  44.642  10.303   7.664
 1747POPC   NC324683  36.930   7.439   9.464
 1747POPC   PO424684  36.899   7.415   9.164
 1747POPC   GL124685  36.924   7.439   8.864
 1747POPC   GL224686  36.793   7.376   8.864
 1747POPC   C1A24687  36.861   7.437   8.564
 1747POPC   D2A24688  36.893   7.449   8.264
 1747POPC   C3A24689  36.863   7.376   7.964
 1747POPC   C4A24690  36.907   7.388   7.664
 1747POPC   C1B24691  36.741   7.240   8.564
 1747POPC   C2B24692  36.674   7.256   8.264
 1747POPC   C3B24693  36.669   7.300   7.964
 1747POPC   C4B24694  36.683   7.258   7.664
 1748POPC   NC324695  15.226  20.612   9.464
 1748POPC   PO424696  15.184  20.603   9.164
 1748POPC   GL124697  15.146  20.637   8.864
 1748POPC   GL224698  15.160  20.780   8.864
 1748POPC   C1A24699  15.194  20.626   8.564
 1748POPC   D2A24700  15.139  20.585   8.264
 1748POPC   C3A24701  15.160  20.594   7.964
 1748POPC   C4A24702  15.160  20.608   7.664
 1748POPC   C1B24703  15.159  20.813   8.564
 1748POPC   C2B24704  15.145  20.883   8.264
 1748POPC   C3B24705  15.116  20.901   7.964
 1748POPC   C4B24706  15.150  20.852   7.664
 1749POPC   NC324707   1.984  37.673   9.464
 1749POPC   PO424708   2.034  37.651   9.164
 1749POPC   GL124709   2.021  37.691   8.864
 1749POPC   GL224710   2.072  37.814   8.864
 1749POPC   C1A24711   1.982  37.649   8.564
 1749POPC   D2A24712   1.979  37.728   8.264
 1749POPC   C3A24713   1.970  37.639   7.964
 1749POPC   C4A24714   1.941  37.693   7.664
 1749POPC   C1B24715   2.148  37.839   8.564
 1749POPC   C2B24716   2.091  37.847   8.264
 1749POPC   C3B24717   2.148  37.885   7.964
 1749POPC   C4B24718   2.170  37.856   7.664
 1750POPC   NC324719  26.846   9.700   9.464
 1750POPC   PO424720  26.811   9.755   9.164
 1750POPC   GL124721  26.809   9.785   8.864
 1750POPC   GL224722  26.870   9.879   8.864
 1750POPC   C1A24723  26.856   9.771   8.564
 1750POPC   D2A24724  26.820   9.703   8.264
 1750POPC   C3A24725  26.862   9.713   7.964
 1750POPC   C4A24726  26.839   9.708   7.664
 1750POPC   C1B24727  26.974   9.901   8.564
 1750POPC   C2B24728  26.965   9.921   8.264
 1750POPC   C3B24729  27.020   9.937   7.964
 1750POPC   C4B24730  26.953   9.913   7.664
 1751POPC   NC324731  17.496   2.772   9.464
 1751POPC   PO424732  17.506   2.734   9.164
 1751POPC   GL124733  17.535   2.736   8.864
 1751POPC   GL224734  17.607   2.753   8.864
 1751POPC   C1A24735  17.537   2.776   8.564
 1751POPC   D2A24736  17.529   2.719   8.264
 1751POPC   C3A24737  17.552   2.754   7.964
 1751POPC   C4A24738  17.460   2.765   7.664
 1751POPC   C1B24739  17.755   2.608   8.564
 1751POPC   C2B24740  17.737   2.686   8.264
 1751POPC   C3B24741  17.736   2.695   7.964
 1751POPC   C4B24742  17.751   2.657   7.664
 1752POPC   NC324743   7.377  14.407   9.464
 1752POPC   PO424744   7.416  14.425   9.164
 1752POPC   GL124745   7.451  14.444   8.864
 1752POPC   GL224746   7.480  14.303   8.864
 1752POPC   C1A24747   7.401  14.395   8.564
 1752POPC   D2A24748   7.456  14.440   8.264
 1752POPC   C3A24749   7.419  14.439   7.964
 1752POPC   C4A24750   7.393  14.362   7.664
 1752POPC   C1B24751   7.577  14.208   8.564
 1752POPC   C2B24752   7.642  14.271   8.264
 1752POPC   C3B24753   7.626  14.205   7.964
 1752POPC   C4B24754   7.645  14.274   7.664
 1753POPC   NC324755  23.745   8.977   9.464
 1753POPC   PO424756  23.739   8.990   9.164
 1753POPC   GL124757  23.722   8.994   8.864
 1753POPC   GL224758  23.550   9.002   8.864
 1753POPC   C1A24759  23.720   8.935   8.564
 1753POPC   D2A24760  23.690   8.971   8.264
 1753POPC   C3A24761  23.734   9.015   7.964
 1753POPC   C4A24762  23.711   8.931   7.664
 1753POPC   C1B24763  23.463   9.089   8.564
 1753POPC   C2B24764  23.522   9.072   8.264
 1753POPC   C3B24765  23.523   9.034   7.964
 1753POPC   C4B24766  23.524   9.095   7.664
 1754POPC   NC324767  43.066  30.700   9.464
 1754POPC   PO424768  43.136  30.679   9.164
 1754POPC   GL124769  43.093  30.720   8.864
 1754POPC   GL224770  43.194  30.725   8.864
 1754POPC   C1A24771  43.083  30.685   8.564
 1754POPC   D2A24772  43.150  30.695   8.264
 1754POPC   C3A24773  43.081  30.699   7.964
 1754POPC   C4A24774  43.072  30.664   7.664
 1754POPC   C1B24775  43.363  30.676   8.564
 1754POPC   C2B24776  43.401  30.701   8.264
 1754POPC   C3B24777  43.396  30.684   7.964
 1754POPC   C4B24778  43.316  30.655   7.664
 1755POPC   NC324779  40.786  34.605   9.464
 1755POPC   PO424780  40.761  34.532   9.164
 1755POPC   GL124781  40.775  34.549   8.864
 1755POPC   GL224782  40.944  34.595   8.864
 1755POPC   C1A24783  40.781  34.580   8.564
 1755POPC   D2A24784  40.789  34.594   8.264
 1755POPC   C3A24785  40.741  34.586   7.964
 1755POPC   C4A24786  40.789  34.602   7.664
 1755POPC   C1B24787  41.052  34.645   8.564
 1755POPC   C2B24788  40.979  34.710   8.264
 1755POPC   C3B24789  40.993  34.707   7.964
 1755POPC   C4B24790  40.989  34.726   7.664
 1756POPC   NC324791  11.339   2.724   9.464
 1756POPC   PO424792  11.293   2.776   9.164
 1756POPC   GL124793  11.313   2.724   8.864
 1756POPC   GL224794  11.290   2.902   8.864
 1756POPC   C1A24795  11.292   2.736   8.564
 1756POPC   D2A24796  11.256   2.722   8.264
 1756POPC   C3A24797  11.271   2.802   7.964
 1756POPC   C4A24798  11.267   2.752   7.664
 1756POPC   C1B24799  11.219   3.017   8.564
 1756POPC   C2B24800  11.227   3.044   8.264
 1756POPC   C3B24801  11.195   3.006   7.964
 1756POPC   C4B24802  11.244   2.996   7.664
 1757POPC   NC324803  26.049  17.529   9.464
 1757POPC   PO424804  26.005  17.473   9.164
 1757POPC   GL124805  26.010  17.526   8.864
 1757POPC   GL224806  25.917  17.434   8.864
 1757POPC   C1A24807  26.071  17.480   8.564
 1757POPC   D2A24808  26.088  17.483   8.264
 1757POPC   C3A24809  26.016  17.481   7.964
 1757POPC   C4A24810  26.005  17.547   7.664
 1757POPC   C1B24811  25.754  17.462   8.564
 1757POPC   C2B24812  25.851  17.391   8.264
 1757POPC   C3B24813  25.836  17.476   7.964
 1757POPC   C4B24814  25.807  17.433   7.664
 1758POPC   NC324815  14.382  20.582   9.464
 1758POPC   PO424816  14.418  20.582   9.164
 1758POPC   GL124817  14.403  20.572   8.864
 1758POPC   GL224818  14.495  20.664   8.864
 1758POPC   C1A24819  14.407  20.584   8.564
 1758POPC   D2A24820  14.389  20.582   8.264
 1758POPC   C3A24821  14.378  20.605   7.964
 1758POPC   C4A24822  14.362  20.603   7.664
 1758POPC   C1B24823  14.603  20.830   8.564
 1758POPC   C2B24824  14.588  20.840   8.264
 1758POPC   C3B24825  14.597  20.750   7.964
 1758POPC   C4B24826  14.574  20.849   7.664
 1759POPC   NC324827  28.379   7.390   9.464
 1759POPC   PO424828  28.334   7.387   9.164
 1759POPC   GL124829  28.363   7.390   8.864
 1759POPC   GL224830  28.484   7.484   8.864
 1759POPC   C1A24831  28.418   7.420   8.564
 1759POPC   D2A24832  28.371   7.391   8.264
 1759POPC   C3A24833  28.367   7.394   7.964
 1759POPC   C4A24834  28.393   7.384   7.664
 1759POPC   C1B24835  28.521   7.578   8.564
 1759POPC   C2B24836  28.489   7.575   8.264
 1759POPC   C3B24837  28.479   7.647   7.964
 1759POPC   C4B24838  28.565   7.601   7.664
 1760POPC   NC324839  39.224  18.248   9.464
 1760POPC   PO424840  39.280  18.283   9.164
 1760POPC   GL124841  39.281  18.262   8.864
 1760POPC   GL224842  39.279  18.202   8.864
 1760POPC   C1A24843  39.231  18.293   8.564
 1760POPC   D2A24844  39.227  18.322   8.264
 1760POPC   C3A24845  39.245  18.253   7.964
 1760POPC   C4A24846  39.249  18.299   7.664
 1760POPC   C1B24847  39.351  18.110   8.564
 1760POPC   C2B24848  39.373  18.102   8.264
 1760POPC   C3B24849  39.387  18.035   7.964
 1760POPC   C4B24850  39.428  18.107   7.664
 1761POPC   NC324851  18.329  36.155   9.464
 1761POPC   PO424852  18.298  36.139   9.164
 1761POPC   GL124853  18.274  36.177   8.864
 1761POPC   GL224854  18.302  36.026   8.864
 1761POPC   C1A24855  18.283  36.120   8.564
 1761POPC   D2A24856  18.255  36.175   8.264
 1761POPC   C3A24857  18.266  36.111   7.964
 1761POPC   C4A24858  18.238  36.143   7.664
 1761POPC   C1B24859  18.256  35.852   8.564
 1761POPC   C2B24860  18.218  35.905   8.264
 1761POPC   C3B24861  18.269  35.917   7.964
 1761POPC   C4B24862  18.266  35.832   7.664
 1762POPC   NC324863  19.019  26.776   9.464
 1762POPC   PO424864  19.105  26.773   9.164
 1762POPC   GL124865  19.051  26.789   8.864
 1762POPC   GL224866  19.215  26.744   8.864
 1762POPC   C1A24867  19.066  26.867   8.564
 1762POPC   D2A24868  19.019  26.859   8.264
 1762POPC   C3A24869  19.071  26.799   7.964
 1762POPC   C4A24870  19.019  26.793   7.664
 1762POPC   C1B24871  19.334  26.763   8.564
 1762POPC   C2B24872  19.247  26.749   8.264
 1762POPC   C3B24873  19.335  26.779   7.964
 1762POPC   C4B24874  19.275  26.738   7.664
 1763POPC   NC324875  30.714  32.295   9.464
 1763POPC   PO424876  30.651  32.231   9.164
 1763POPC   GL124877  30.649  32.259   8.864
 1763POPC   GL224878  30.531  32.189   8.864
 1763POPC   C1A24879  30.665  32.215   8.564
 1763POPC   D2A24880  30.722  32.252   8.264
 1763POPC   C3A24881  30.698  32.218   7.964
 1763POPC   C4A24882  30.743  32.250   7.664
 1763POPC   C1B24883  30.439  32.186   8.564
 1763POPC   C2B24884  30.506  32.187   8.264
 1763POPC   C3B24885  30.509  32.178   7.964
 1763POPC   C4B24886  30.444  32.161   7.664
 1764POPC   NC324887  22.980  31.482   9.464
 1764POPC   PO424888  22.927  31.503   9.164
 1764POPC   GL124889  22.979  31.472   8.864
 1764POPC   GL224890  22.916  31.398   8.864
 1764POPC   C1A24891  22.950  31.505   8.564
 1764POPC   D2A24892  22.905  31.446   8.264
 1764POPC   C3A24893  22.906  31.476   7.964
 1764POPC   C4A24894  22.980  31.478   7.664
 1764POPC   C1B24895  22.839  31.236   8.564
 1764POPC   C2B24896  22.798  31.279   8.264
 1764POPC   C3B24897  22.847  31.249   7.964
 1764POPC   C4B24898  22.793  31.226   7.664
 1765POPC   NC324899  12.901  23.739   9.464
 1765POPC   PO424900  12.868  23.732   9.164
 1765POPC   GL124901  12.821  23.757   8.864
 1765POPC   GL224902  12.960  23.793   8.864
 1765POPC   C1A24903  12.863  23.721   8.564
 1765POPC   D2A24904  12.880  23.710   8.264
 1765POPC   C3A24905  12.864  23.720   7.964
 1765POPC   C4A24906  12.808  23.750   7.664
 1765POPC   C1B24907  12.963  23.942   8.564
 1765POPC   C2B24908  13.002  23.973   8.264
 1765POPC   C3B24909  13.025  23.890   7.964
 1765POPC   C4B24910  12.934  23.976   7.664
 1766POPC   NC324911  44.640  31.469   9.464
 1766POPC   PO424912  44.638  31.515   9.164
 1766POPC   GL124913  44.617  31.430   8.864
 1766POPC   GL224914  44.550  31.582   8.864
 1766POPC   C1A24915  44.663  31.483   8.564
 1766POPC   D2A24916  44.670  31.494   8.264
 1766POPC   C3A24917  44.696  31.520   7.964
 1766POPC   C4A24918  44.654  31.427   7.664
 1766POPC   C1B24919  44.443  31.668   8.564
 1766POPC   C2B24920  44.494  31.659   8.264
 1766POPC   C3B24921  44.452  31.664   7.964
 1766POPC   C4B24922  44.460  31.688   7.664
 1767POPC   NC324923  12.858  36.110   9.464
 1767POPC   PO424924  12.887  36.167   9.164
 1767POPC   GL124925  12.896  36.144   8.864
 1767POPC   GL224926  12.727  36.075   8.864
 1767POPC   C1A24927  12.890  36.101   8.564
 1767POPC   D2A24928  12.852  36.107   8.264
 1767POPC   C3A24929  12.817  36.103   7.964
 1767POPC   C4A24930  12.869  36.088   7.664
 1767POPC   C1B24931  12.617  36.016   8.564
 1767POPC   C2B24932  12.587  36.094   8.264
 1767POPC   C3B24933  12.583  36.082   7.964
 1767POPC   C4B24934  12.650  36.082   7.664
 1768POPC   NC324935  17.490   9.019   9.464
 1768POPC   PO424936  17.471   8.973   9.164
 1768POPC   GL124937  17.483   8.962   8.864
 1768POPC   GL224938  17.440   8.911   8.864
 1768POPC   C1A24939  17.483   8.936   8.564
 1768POPC   D2A24940  17.484   8.965   8.264
 1768POPC   C3A24941  17.463   8.947   7.964
 1768POPC   C4A24942  17.553   9.022   7.664
 1768POPC   C1B24943  17.356   8.717   8.564
 1768POPC   C2B24944  17.346   8.722   8.264
 1768POPC   C3B24945  17.372   8.814   7.964
 1768POPC   C4B24946  17.324   8.717   7.664
 1769POPC   NC324947   9.700  26.068   9.464
 1769POPC   PO424948   9.782  26.058   9.164
 1769POPC   GL124949   9.792  26.002   8.864
 1769POPC   GL224950   9.873  26.156   8.864
 1769POPC   C1A24951   9.706  26.038   8.564
 1769POPC   D2A24952   9.772  26.091   8.264
 1769POPC   C3A24953   9.736  26.020   7.964
 1769POPC   C4A24954   9.795  26.003   7.664
 1769POPC   C1B24955   9.895  26.173   8.564
 1769POPC   C2B24956   9.899  26.208   8.264
 1769POPC   C3B24957   9.977  26.211   7.964
 1769POPC   C4B24958   9.888  26.255   7.664
 1770POPC   NC324959   8.961   3.538   9.464
 1770POPC   PO424960   8.990   3.538   9.164
 1770POPC   GL124961   8.992   3.504   8.864
 1770POPC   GL224962   8.901   3.633   8.864
 1770POPC   C1A24963   8.955   3.495   8.564
 1770POPC   D2A24964   8.936   3.553   8.264
 1770POPC   C3A24965   9.001   3.518   7.964
 1770POPC   C4A24966   9.010   3.582   7.664
 1770POPC   C1B24967   8.727   3.644   8.564
 1770POPC   C2B24968   8.740   3.710   8.264
 1770POPC   C3B24969   8.779   3.676   7.964
 1770POPC   C4B24970   8.802   3.711   7.664
 1771POPC   NC324971  10.563  18.300   9.464
 1771POPC   PO424972  10.546  18.328   9.164
 1771POPC   GL124973  10.482  18.238   8.864
 1771POPC   GL224974  10.401  18.330   8.864
 1771POPC   C1A24975  10.559  18.312   8.564
 1771POPC   D2A24976  10.527  18.237   8.264
 1771POPC   C3A24977  10.485  18.333   7.964
 1771POPC   C4A24978  10.510  18.313   7.664
 1771POPC   C1B24979  10.361  18.495   8.564
 1771POPC   C2B24980  10.375  18.434   8.264
 1771POPC   C3B24981  10.305  18.418   7.964
 1771POPC   C4B24982  10.358  18.498   7.664
 1772POPC   NC324983   7.459   6.654   9.464
 1772POPC   PO424984   7.450   6.654   9.164
 1772POPC   GL124985   7.401   6.684   8.864
 1772POPC   GL224986   7.293   6.651   8.864
 1772POPC   C1A24987   7.392   6.631   8.564
 1772POPC   D2A24988   7.388   6.596   8.264
 1772POPC   C3A24989   7.455   6.631   7.964
 1772POPC   C4A24990   7.393   6.617   7.664
 1772POPC   C1B24991   7.126   6.682   8.564
 1772POPC   C2B24992   7.129   6.695   8.264
 1772POPC   C3B24993   7.212   6.727   7.964
 1772POPC   C4B24994   7.130   6.664   7.664
 1773POPC   NC324995  26.001   5.102   9.464
 1773POPC   PO424996  25.995   5.083   9.164
 1773POPC   GL124997  26.077   5.073   8.864
 1773POPC   GL224998  26.053   5.179   8.864
 1773POPC   C1A24999  26.029   5.079   8.564
 1773POPC   D2A25000  26.085   5.094   8.264
 1773POPC   C3A25001  26.021   5.049   7.964
 1773POPC   C4A25002  25.998   5.126   7.664
 1773POPC   C1B25003  26.005   5.345   8.564
 1773POPC   C2B25004  26.012   5.310   8.264
 1773POPC   C3B25005  26.012   5.339   7.964
 1773POPC   C4B25006  26.079   5.297   7.664
 1774POPC   NC325007  43.111  37.717   9.464
 1774POPC   PO425008  43.078  37.650   9.164
 1774POPC   GL125009  43.120  37.716   8.864
 1774POPC   GL225010  42.992  37.665   8.864
 1774POPC   C1A25011  43.154  37.655   8.564
 1774POPC   D2A25012  43.160  37.691   8.264
 1774POPC   C3A25013  43.102  37.667   7.964
 1774POPC   C4A25014  43.095  37.660   7.664
 1774POPC   C1B25015  42.892  37.698   8.564
 1774POPC   C2B25016  42.854  37.651   8.264
 1774POPC   C3B25017  42.896  37.696   7.964
 1774POPC   C4B25018  42.908  37.662   7.664
 1775POPC   NC325019  30.657  20.563   9.464
 1775POPC   PO425020  30.742  20.627   9.164
 1775POPC   GL125021  30.730  20.631   8.864
 1775POPC   GL225022  30.540  20.529   8.864
 1775POPC   C1A25023  30.666  20.616   8.564
 1775POPC   D2A25024  30.668  20.650   8.264
 1775POPC   C3A25025  30.733  20.624   7.964
 1775POPC   C4A25026  30.687  20.656   7.664
 1775POPC   C1B25027  30.477  20.505   8.564
 1775POPC   C2B25028  30.431  20.506   8.264
 1775POPC   C3B25029  30.496  20.508   7.964
 1775POPC   C4B25030  30.426  20.531   7.664
 1776POPC   NC325031  10.482  36.090   9.464
 1776POPC   PO425032  10.530  36.150   9.164
 1776POPC   GL125033  10.492  36.107   8.864
 1776POPC   GL225034  10.534  35.985   8.864
 1776POPC   C1A25035  10.567  36.127   8.564
 1776POPC   D2A25036  10.514  36.134   8.264
 1776POPC   C3A25037  10.550  36.083   7.964
 1776POPC   C4A25038  10.552  36.138   7.664
 1776POPC   C1B25039  10.606  35.908   8.564
 1776POPC   C2B25040  10.567  35.881   8.264
 1776POPC   C3B25041  10.616  35.860   7.964
 1776POPC   C4B25042  10.585  35.844   7.664
 1777POPC   NC325043  36.104  26.067   9.464
 1777POPC   PO425044  36.172  26.029   9.164
 1777POPC   GL125045  36.167  26.033   8.864
 1777POPC   GL225046  36.159  26.097   8.864
 1777POPC   C1A25047  36.100  26.067   8.564
 1777POPC   D2A25048  36.145  26.006   8.264
 1777POPC   C3A25049  36.137  26.061   7.964
 1777POPC   C4A25050  36.147  26.050   7.664
 1777POPC   C1B25051  36.246  26.292   8.564
 1777POPC   C2B25052  36.262  26.258   8.264
 1777POPC   C3B25053  36.259  26.222   7.964
 1777POPC   C4B25054  36.302  26.237   7.664
 1778POPC   NC325055  29.132  36.889   9.464
 1778POPC   PO425056  29.130  36.939   9.164
 1778POPC   GL125057  29.176  36.876   8.864
 1778POPC   GL225058  29.106  36.733   8.864
 1778POPC   C1A25059  29.170  36.921   8.564
 1778POPC   D2A25060  29.112  36.920   8.264
 1778POPC   C3A25061  29.145  36.930   7.964
 1778POPC   C4A25062  29.173  36.941   7.664
 1778POPC   C1B25063  29.112  36.709   8.564
 1778POPC   C2B25064  29.130  36.691   8.264
 1778POPC   C3B25065  29.089  36.631   7.964
 1778POPC   C4B25066  29.098  36.629   7.664
 1779POPC   NC325067  23.691  31.517   9.464
 1779POPC   PO425068  23.700  31.452   9.164
 1779POPC   GL125069  23.723  31.507   8.864
 1779POPC   GL225070  23.631  31.578   8.864
 1779POPC   C1A25071  23.732  31.522   8.564
 1779POPC   D2A25072  23.675  31.473   8.264
 1779POPC   C3A25073  23.755  31.490   7.964
 1779POPC   C4A25074  23.748  31.455   7.664
 1779POPC   C1B25075  23.495  31.549   8.564
 1779POPC   C2B25076  23.516  31.581   8.264
 1779POPC   C3B25077  23.490  31.556   7.964
 1779POPC   C4B25078  23.496  31.571   7.664
 1780POPC   NC325079   9.749  18.291   9.464
 1780POPC   PO425080   9.753  18.270   9.164
 1780POPC   GL125081   9.705  18.325   8.864
 1780POPC   GL225082   9.673  18.174   8.864
 1780POPC   C1A25083   9.749  18.264   8.564
 1780POPC   D2A25084   9.726  18.285   8.264
 1780POPC   C3A25085   9.796  18.272   7.964
 1780POPC   C4A25086   9.728  18.318   7.664
 1780POPC   C1B25087   9.670  18.011   8.564
 1780POPC   C2B25088   9.664  18.087   8.264
 1780POPC   C3B25089   9.683  18.035   7.964
 1780POPC   C4B25090   9.620  18.066   7.664
 1781POPC   NC325091  14.400  43.906   9.464
 1781POPC   PO425092  14.355  43.869   9.164
 1781POPC   GL125093  14.376  43.897   8.864
 1781POPC   GL225094  14.424  44.012   8.864
 1781POPC   C1A25095  14.400  43.936   8.564
 1781POPC   D2A25096  14.452  43.876   8.264
 1781POPC   C3A25097  14.386  43.892   7.964
 1781POPC   C4A25098  14.415  43.841   7.664
 1781POPC   C1B25099  14.436  44.179   8.564
 1781POPC   C2B25100  14.459  44.176   8.264
 1781POPC   C3B25101  14.439  44.143   7.964
 1781POPC   C4B25102  14.385  44.141   7.664
 1782POPC   NC325103  37.641  33.047   9.464
 1782POPC   PO425104  37.713  33.046   9.164
 1782POPC   GL125105  37.708  32.982   8.864
 1782POPC   GL225106  37.757  33.145   8.864
 1782POPC   C1A25107  37.711  33.052   8.564
 1782POPC   D2A25108  37.721  33.047   8.264
 1782POPC   C3A25109  37.725  33.020   7.964
 1782POPC   C4A25110  37.703  32.978   7.664
 1782POPC   C1B25111  37.911  33.176   8.564
 1782POPC   C2B25112  37.896  33.187   8.264
 1782POPC   C3B25113  37.913  33.148   7.964
 1782POPC   C4B25114  37.898  33.170   7.664
 1783POPC   NC325115  35.318   1.175   9.464
 1783POPC   PO425116  35.379   1.258   9.164
 1783POPC   GL125117  35.302   1.256   8.864
 1783POPC   GL225118  35.218   1.124   8.864
 1783POPC   C1A25119  35.398   1.232   8.564
 1783POPC   D2A25120  35.360   1.247   8.264
 1783POPC   C3A25121  35.304   1.244   7.964
 1783POPC   C4A25122  35.328   1.264   7.664
 1783POPC   C1B25123  35.130   1.081   8.564
 1783POPC   C2B25124  35.150   1.035   8.264
 1783POPC   C3B25125  35.180   1.082   7.964
 1783POPC   C4B25126  35.136   1.000   7.664
 1784POPC   NC325127  40.817   4.292   9.464
 1784POPC   PO425128  40.829   4.309   9.164
 1784POPC   GL125129  40.810   4.327   8.864
 1784POPC   GL225130  40.680   4.263   8.864
 1784POPC   C1A25131  40.794   4.309   8.564
 1784POPC   D2A25132  40.779   4.270   8.264
 1784POPC   C3A25133  40.789   4.319   7.964
 1784POPC   C4A25134  40.800   4.308   7.664
 1784POPC   C1B25135  40.537   4.277   8.564
 1784POPC   C2B25136  40.538   4.182   8.264
 1784POPC   C3B25137  40.545   4.249   7.964
 1784POPC   C4B25138  40.511   4.199   7.664
 1785POPC   NC325139  11.303  41.557   9.464
 1785POPC   PO425140  11.329  41.578   9.164
 1785POPC   GL125141  11.347  41.544   8.864
 1785POPC   GL225142  11.273  41.439   8.864
 1785POPC   C1A25143  11.303  41.545   8.564
 1785POPC   D2A25144  11.324  41.542   8.264
 1785POPC   C3A25145  11.290  41.510   7.964
 1785POPC   C4A25146  11.253  41.549   7.664
 1785POPC   C1B25147  11.364  41.328   8.564
 1785POPC   C2B25148  11.274  41.344   8.264
 1785POPC   C3B25149  11.362  41.283   7.964
 1785POPC   C4B25150  11.283  41.298   7.664
 1786POPC   NC325151  31.459  43.153   9.464
 1786POPC   PO425152  31.450  43.111   9.164
 1786POPC   GL125153  31.454  43.069   8.864
 1786POPC   GL225154  31.521  43.002   8.864
 1786POPC   C1A25155  31.479  43.122   8.564
 1786POPC   D2A25156  31.501  43.149   8.264
 1786POPC   C3A25157  31.424  43.115   7.964
 1786POPC   C4A25158  31.441  43.063   7.664
 1786POPC   C1B25159  31.481  42.818   8.564
 1786POPC   C2B25160  31.467  42.856   8.264
 1786POPC   C3B25161  31.473  42.856   7.964
 1786POPC   C4B25162  31.540  42.860   7.664
 1787POPC   NC325163   7.434  17.522   9.464
 1787POPC   PO425164   7.419  17.459   9.164
 1787POPC   GL125165   7.434  17.526   8.864
 1787POPC   GL225166   7.427  17.612   8.864
 1787POPC   C1A25167   7.408  17.500   8.564
 1787POPC   D2A25168   7.400  17.476   8.264
 1787POPC   C3A25169   7.377  17.512   7.964
 1787POPC   C4A25170   7.371  17.491   7.664
 1787POPC   C1B25171   7.345  17.724   8.564
 1787POPC   C2B25172   7.378  17.782   8.264
 1787POPC   C3B25173   7.429  17.751   7.964
 1787POPC   C4B25174   7.419  17.737   7.664
 1788POPC   NC325175  20.577  41.580   9.464
 1788POPC   PO425176  20.569  41.567   9.164
 1788POPC   GL125177  20.605  41.593   8.864
 1788POPC   GL225178  20.620  41.711   8.864
 1788POPC   C1A25179  20.621  41.546   8.564
 1788POPC   D2A25180  20.624  41.547   8.264
 1788POPC   C3A25181  20.567  41.528   7.964
 1788POPC   C4A25182  20.569  41.521   7.664
 1788POPC   C1B25183  20.617  41.835   8.564
 1788POPC   C2B25184  20.669  41.834   8.264
 1788POPC   C3B25185  20.671  41.778   7.964
 1788POPC   C4B25186  20.655  41.804   7.664
 1789POPC   NC325187  32.232  38.436   9.464
 1789POPC   PO425188  32.207  38.454   9.164
 1789POPC   GL125189  32.229  38.455   8.864
 1789POPC   GL225190  32.200  38.528   8.864
 1789POPC   C1A25191  32.221  38.410   8.564
 1789POPC   D2A25192  32.199  38.476   8.264
 1789POPC   C3A25193  32.212  38.440   7.964
 1789POPC   C4A25194  32.252  38.464   7.664
 1789POPC   C1B25195  32.100  38.699   8.564
 1789POPC   C2B25196  32.098  38.606   8.264
 1789POPC   C3B25197  32.084  38.619   7.964
 1789POPC   C4B25198  32.124  38.643   7.664
 1790POPC   NC325199  24.472   9.739   9.464
 1790POPC   PO425200  24.442   9.735   9.164
 1790POPC   GL125201  24.474   9.782   8.864
 1790POPC   GL225202  24.528   9.866   8.864
 1790POPC   C1A25203  24.525   9.730   8.564
 1790POPC   D2A25204  24.494   9.721   8.264
 1790POPC   C3A25205  24.492   9.725   7.964
 1790POPC   C4A25206  24.488   9.710   7.664
 1790POPC   C1B25207  24.505   9.945   8.564
 1790POPC   C2B25208  24.516  10.028   8.264
 1790POPC   C3B25209  24.539   9.996   7.964
 1790POPC   C4B25210  24.543  10.003   7.664
 1791POPC   NC325211  10.538  44.617   9.464
 1791POPC   PO425212  10.515  44.629   9.164
 1791POPC   GL125213  10.477  44.672   8.864
 1791POPC   GL225214  10.501  44.500   8.864
 1791POPC   C1A25215  10.476  44.681   8.564
 1791POPC   D2A25216  10.556  44.634   8.264
 1791POPC   C3A25217  10.505  44.619   7.964
 1791POPC   C4A25218  10.515  44.622   7.664
 1791POPC   C1B25219  10.484  44.389   8.564
 1791POPC   C2B25220  10.447  44.392   8.264
 1791POPC   C3B25221  10.518  44.431   7.964
 1791POPC   C4B25222  10.519  44.402   7.664
 1792POPC   NC325223  15.188  27.603   9.464
 1792POPC   PO425224  15.192  27.568   9.164
 1792POPC   GL125225  15.170  27.617   8.864
 1792POPC   GL225226  15.282  27.726   8.864
 1792POPC   C1A25227  15.186  27.624   8.564
 1792POPC   D2A25228  15.140  27.585   8.264
 1792POPC   C3A25229  15.145  27.580   7.964
 1792POPC   C4A25230  15.143  27.607   7.664
 1792POPC   C1B25231  15.343  27.806   8.564
 1792POPC   C2B25232  15.312  27.824   8.264
 1792POPC   C3B25233  15.290  27.840   7.964
 1792POPC   C4B25234  15.275  27.784   7.664
 1793POPC   NC325235  22.913  28.361   9.464
 1793POPC   PO425236  22.913  28.396   9.164
 1793POPC   GL125237  22.977  28.336   8.864
 1793POPC   GL225238  22.806  28.296   8.864
 1793POPC   C1A25239  22.891  28.337   8.564
 1793POPC   D2A25240  22.969  28.405   8.264
 1793POPC   C3A25241  22.963  28.411   7.964
 1793POPC   C4A25242  22.969  28.377   7.664
 1793POPC   C1B25243  22.705  28.291   8.564
 1793POPC   C2B25244  22.716  28.319   8.264
 1793POPC   C3B25245  22.680  28.278   7.964
 1793POPC   C4B25246  22.740  28.224   7.664
 1794POPC   NC325247  16.722  12.861   9.464
 1794POPC   PO425248  16.740  12.805   9.164
 1794POPC   GL125249  16.707  12.853   8.864
 1794POPC   GL225250  16.605  12.950   8.864
 1794POPC   C1A25251  16.734  12.840   8.564
 1794POPC   D2A25252  16.689  12.836   8.264
 1794POPC   C3A25253  16.704  12.850   7.964
 1794POPC   C4A25254  16.728  12.878   7.664
 1794POPC   C1B25255  16.556  13.079   8.564
 1794POPC   C2B25256  16.528  13.054   8.264
 1794POPC   C3B25257  16.532  13.018   7.964
 1794POPC   C4B25258  16.530  13.032   7.664
 1795POPC   NC325259   1.205  38.470   9.464
 1795POPC   PO425260   1.190  38.411   9.164
 1795POPC   GL125261   1.206  38.460   8.864
 1795POPC   GL225262   1.046  38.498   8.864
 1795POPC   C1A25263   1.174  38.425   8.564
 1795POPC   D2A25264   1.189  38.503   8.264
 1795POPC   C3A25265   1.204  38.475   7.964
 1795POPC   C4A25266   1.166  38.452   7.664
 1795POPC   C1B25267   0.953  38.498   8.564
 1795POPC   C2B25268   0.963  38.520   8.264
 1795POPC   C3B25269   1.006  38.480   7.964
 1795POPC   C4B25270   0.955  38.481   7.664
 1796POPC   NC325271  36.946  36.868   9.464
 1796POPC   PO425272  36.903  36.914   9.164
 1796POPC   GL125273  36.862  36.857   8.864
 1796POPC   GL225274  36.863  37.009   8.864
 1796POPC   C1A25275  36.854  36.878   8.564
 1796POPC   D2A25276  36.884  36.881   8.264
 1796POPC   C3A25277  36.875  36.873   7.964
 1796POPC   C4A25278  36.862  36.891   7.664
 1796POPC   C1B25279  36.886  37.131   8.564
 1796POPC   C2B25280  36.887  37.143   8.264
 1796POPC   C3B25281  36.874  37.173   7.964
 1796POPC   C4B25282  36.920  37.157   7.664
 1797POPC   NC325283  42.286  20.646   9.464
 1797POPC   PO425284  42.355  20.633   9.164
 1797POPC   GL125285  42.319  20.656   8.864
 1797POPC   GL225286  42.450  20.701   8.864
 1797POPC   C1A25287  42.302  20.590   8.564
 1797POPC   D2A25288  42.295  20.584   8.264
 1797POPC   C3A25289  42.295  20.604   7.964
 1797POPC   C4A25290  42.295  20.642   7.664
 1797POPC   C1B25291  42.491  20.759   8.564
 1797POPC   C2B25292  42.466  20.828   8.264
 1797POPC   C3B25293  42.542  20.759   7.964
 1797POPC   C4B25294  42.498  20.800   7.664
 1798POPC   NC325295  25.273   0.429   9.464
 1798POPC   PO425296  25.278   0.404   9.164
 1798POPC   GL125297  25.236   0.441   8.864
 1798POPC   GL225298  25.220   0.329   8.864
 1798POPC   C1A25299  25.244   0.392   8.564
 1798POPC   D2A25300  25.315   0.401   8.264
 1798POPC   C3A25301  25.272   0.401   7.964
 1798POPC   C4A25302  25.270   0.401   7.664
 1798POPC   C1B25303  25.133   0.270   8.564
 1798POPC   C2B25304  25.132   0.242   8.264
 1798POPC   C3B25305  25.144   0.234   7.964
 1798POPC   C4B25306  25.059   0.264   7.664
 1799POPC   NC325307  19.812   3.583   9.464
 1799POPC   PO425308  19.843   3.519   9.164
 1799POPC   GL125309  19.842   3.591   8.864
 1799POPC   GL225310  19.694   3.621   8.864
 1799POPC   C1A25311  19.846   3.514   8.564
 1799POPC   D2A25312  19.841   3.531   8.264
 1799POPC   C3A25313  19.838   3.492   7.964
 1799POPC   C4A25314  19.857   3.571   7.664
 1799POPC   C1B25315  19.610   3.755   8.564
 1799POPC   C2B25316  19.600   3.720   8.264
 1799POPC   C3B25317  19.676   3.730   7.964
 1799POPC   C4B25318  19.632   3.709   7.664
 1800POPC   NC325319  12.826  20.610   9.464
 1800POPC   PO425320  12.802  20.575   9.164
 1800POPC   GL125321  12.835  20.593   8.864
 1800POPC   GL225322  12.743  20.744   8.864
 1800POPC   C1A25323  12.877  20.657   8.564
 1800POPC   D2A25324  12.888  20.643   8.264
 1800POPC   C3A25325  12.851  20.613   7.964
 1800POPC   C4A25326  12.849  20.615   7.664
 1800POPC   C1B25327  12.670  20.851   8.564
 1800POPC   C2B25328  12.700  20.781   8.264
 1800POPC   C3B25329  12.724  20.773   7.964
 1800POPC   C4B25330  12.690  20.829   7.664
 1801POPC   NC325331  20.604   0.459   9.464
 1801POPC   PO425332  20.616   0.433   9.164
 1801POPC   GL125333  20.603   0.392   8.864
 1801POPC   GL225334  20.615   0.605   8.864
 1801POPC   C1A25335  20.602   0.477   8.564
 1801POPC   D2A25336  20.616   0.467   8.264
 1801POPC   C3A25337  20.608   0.428   7.964
 1801POPC   C4A25338  20.612   0.472   7.664
 1801POPC   C1B25339  20.647   0.689   8.564
 1801POPC   C2B25340  20.712   0.728   8.264
 1801POPC   C3B25341  20.641   0.630   7.964
 1801POPC   C4B25342  20.723   0.649   7.664
 1802POPC   NC325343  19.016  42.354   9.464
 1802POPC   PO425344  19.046  42.350   9.164
 1802POPC   GL125345  19.080  42.383   8.864
 1802POPC   GL225346  18.940  42.303   8.864
 1802POPC   C1A25347  19.073  42.330   8.564
 1802POPC   D2A25348  19.074  42.319   8.264
 1802POPC   C3A25349  19.070  42.379   7.964
 1802POPC   C4A25350  19.015  42.285   7.664
 1802POPC   C1B25351  18.792  42.371   8.564
 1802POPC   C2B25352  18.765  42.377   8.264
 1802POPC   C3B25353  18.792  42.341   7.964
 1802POPC   C4B25354  18.786  42.347   7.664
 1803POPC   NC325355  15.199  30.703   9.464
 1803POPC   PO425356  15.162  30.661   9.164
 1803POPC   GL125357  15.190  30.717   8.864
 1803POPC   GL225358  15.191  30.792   8.864
 1803POPC   C1A25359  15.130  30.676   8.564
 1803POPC   D2A25360  15.199  30.660   8.264
 1803POPC   C3A25361  15.180  30.686   7.964
 1803POPC   C4A25362  15.216  30.671   7.664
 1803POPC   C1B25363  15.131  30.950   8.564
 1803POPC   C2B25364  15.147  30.933   8.264
 1803POPC   C3B25365  15.193  30.932   7.964
 1803POPC   C4B25366  15.152  30.945   7.664
 1804POPC   NC325367  35.335   8.219   9.464
 1804POPC   PO425368  35.353   8.165   9.164
 1804POPC   GL125369  35.326   8.157   8.864
 1804POPC   GL225370  35.261   8.241   8.864
 1804POPC   C1A25371  35.318   8.157   8.564
 1804POPC   D2A25372  35.366   8.161   8.264
 1804POPC   C3A25373  35.391   8.195   7.964
 1804POPC   C4A25374  35.339   8.172   7.664
 1804POPC   C1B25375  35.084   8.310   8.564
 1804POPC   C2B25376  35.147   8.322   8.264
 1804POPC   C3B25377  35.171   8.270   7.964
 1804POPC   C4B25378  35.154   8.358   7.664
 1805POPC   NC325379  31.497  29.103   9.464
 1805POPC   PO425380  31.488  29.182   9.164
 1805POPC   GL125381  31.429  29.106   8.864
 1805POPC   GL225382  31.502  28.993   8.864
 1805POPC   C1A25383  31.480  29.174   8.564
 1805POPC   D2A25384  31.438  29.160   8.264
 1805POPC   C3A25385  31.439  29.194   7.964
 1805POPC   C4A25386  31.503  29.104   7.664
 1805POPC   C1B25387  31.499  28.909   8.564
 1805POPC   C2B25388  31.414  28.867   8.264
 1805POPC   C3B25389  31.473  28.850   7.964
 1805POPC   C4B25390  31.431  28.942   7.664
 1806POPC   NC325391  34.577   8.179   9.464
 1806POPC   PO425392  34.555   8.207   9.164
 1806POPC   GL125393  34.538   8.160   8.864
 1806POPC   GL225394  34.499   8.158   8.864
 1806POPC   C1A25395  34.614   8.231   8.564
 1806POPC   D2A25396  34.588   8.237   8.264
 1806POPC   C3A25397  34.541   8.171   7.964
 1806POPC   C4A25398  34.600   8.211   7.664
 1806POPC   C1B25399  34.433   8.066   8.564
 1806POPC   C2B25400  34.426   8.032   8.264
 1806POPC   C3B25401  34.401   8.045   7.964
 1806POPC   C4B25402  34.387   8.055   7.664
 1807POPC   NC325403   2.803  24.525   9.464
 1807POPC   PO425404   2.726  24.469   9.164
 1807POPC   GL125405   2.757  24.531   8.864
 1807POPC   GL225406   2.858  24.491   8.864
 1807POPC   C1A25407   2.729  24.442   8.564
 1807POPC   D2A25408   2.782  24.538   8.264
 1807POPC   C3A25409   2.745  24.488   7.964
 1807POPC   C4A25410   2.812  24.495   7.664
 1807POPC   C1B25411   2.969  24.533   8.564
 1807POPC   C2B25412   3.047  24.528   8.264
 1807POPC   C3B25413   3.015  24.489   7.964
 1807POPC   C4B25414   3.017  24.488   7.664
 1808POPC   NC325415  25.219  40.053   9.464
 1808POPC   PO425416  25.269  40.031   9.164
 1808POPC   GL125417  25.308  39.986   8.864
 1808POPC   GL225418  25.283  40.104   8.864
 1808POPC   C1A25419  25.268  39.979   8.564
 1808POPC   D2A25420  25.252  40.048   8.264
 1808POPC   C3A25421  25.222  40.018   7.964
 1808POPC   C4A25422  25.315  39.994   7.664
 1808POPC   C1B25423  25.265  40.280   8.564
 1808POPC   C2B25424  25.288  40.274   8.264
 1808POPC   C3B25425  25.234  40.227   7.964
 1808POPC   C4B25426  25.304  40.282   7.664
 1809POPC   NC325427  26.809  19.843   9.464
 1809POPC   PO425428  26.778  19.832   9.164
 1809POPC   GL125429  26.809  19.817   8.864
 1809POPC   GL225430  26.741  19.694   8.864
 1809POPC   C1A25431  26.838  19.861   8.564
 1809POPC   D2A25432  26.789  19.852   8.264
 1809POPC   C3A25433  26.785  19.852   7.964
 1809POPC   C4A25434  26.775  19.790   7.664
 1809POPC   C1B25435  26.690  19.575   8.564
 1809POPC   C2B25436  26.690  19.610   8.264
 1809POPC   C3B25437  26.711  19.648   7.964
 1809POPC   C4B25438  26.718  19.591   7.664
 1810POPC   NC325439   2.762   5.076   9.464
 1810POPC   PO425440   2.813   5.065   9.164
 1810POPC   GL125441   2.765   5.079   8.864
 1810POPC   GL225442   2.660   5.133   8.864
 1810POPC   C1A25443   2.720   5.094   8.564
 1810POPC   D2A25444   2.743   5.142   8.264
 1810POPC   C3A25445   2.793   5.109   7.964
 1810POPC   C4A25446   2.774   5.108   7.664
 1810POPC   C1B25447   2.487   5.136   8.564
 1810POPC   C2B25448   2.496   5.078   8.264
 1810POPC   C3B25449   2.509   5.082   7.964
 1810POPC   C4B25450   2.523   5.109   7.664
 1811POPC   NC325451  23.705  10.544   9.464
 1811POPC   PO425452  23.746  10.506   9.164
 1811POPC   GL125453  23.699  10.528   8.864
 1811POPC   GL225454  23.737  10.447   8.864
 1811POPC   C1A25455  23.717  10.490   8.564
 1811POPC   D2A25456  23.753  10.525   8.264
 1811POPC   C3A25457  23.672  10.548   7.964
 1811POPC   C4A25458  23.689  10.533   7.664
 1811POPC   C1B25459  23.704  10.255   8.564
 1811POPC   C2B25460  23.723  10.263   8.264
 1811POPC   C3B25461  23.723  10.260   7.964
 1811POPC   C4B25462  23.762  10.302   7.664
 1812POPC   NC325463   4.286  30.733   9.464
 1812POPC   PO425464   4.349  30.737   9.164
 1812POPC   GL125465   4.317  30.692   8.864
 1812POPC   GL225466   4.242  30.631   8.864
 1812POPC   C1A25467   4.340  30.734   8.564
 1812POPC   D2A25468   4.311  30.731   8.264
 1812POPC   C3A25469   4.299  30.715   7.964
 1812POPC   C4A25470   4.367  30.715   7.664
 1812POPC   C1B25471   4.189  30.469   8.564
 1812POPC   C2B25472   4.190  30.502   8.264
 1812POPC   C3B25473   4.132  30.534   7.964
 1812POPC   C4B25474   4.210  30.541   7.664
 1813POPC   NC325475  16.753  18.253   9.464
 1813POPC   PO425476  16.715  18.251   9.164
 1813POPC   GL125477  16.757  18.314   8.864
 1813POPC   GL225478  16.805  18.262   8.864
 1813POPC   C1A25479  16.699  18.254   8.564
 1813POPC   D2A25480  16.739  18.268   8.264
 1813POPC   C3A25481  16.725  18.329   7.964
 1813POPC   C4A25482  16.710  18.285   7.664
 1813POPC   C1B25483  16.914  18.098   8.564
 1813POPC   C2B25484  16.956  18.125   8.264
 1813POPC   C3B25485  16.903  18.131   7.964
 1813POPC   C4B25486  16.966  18.110   7.664
 1814POPC   NC325487  17.533  26.805   9.464
 1814POPC   PO425488  17.526  26.774   9.164
 1814POPC   GL125489  17.499  26.769   8.864
 1814POPC   GL225490  17.640  26.918   8.864
 1814POPC   C1A25491  17.496  26.810   8.564
 1814POPC   D2A25492  17.485  26.848   8.264
 1814POPC   C3A25493  17.463  26.867   7.964
 1814POPC   C4A25494  17.502  26.837   7.664
 1814POPC   C1B25495  17.644  27.006   8.564
 1814POPC   C2B25496  17.707  26.979   8.264
 1814POPC   C3B25497  17.721  26.940   7.964
 1814POPC   C4B25498  17.644  26.940   7.664
 1815POPC   NC325499  40.820  42.324   9.464
 1815POPC   PO425500  40.821  42.297   9.164
 1815POPC   GL125501  40.750  42.316   8.864
 1815POPC   GL225502  40.819  42.211   8.864
 1815POPC   C1A25503  40.743  42.329   8.564
 1815POPC   D2A25504  40.750  42.342   8.264
 1815POPC   C3A25505  40.819  42.323   7.964
 1815POPC   C4A25506  40.760  42.312   7.664
 1815POPC   C1B25507  40.822  42.098   8.564
 1815POPC   C2B25508  40.847  42.106   8.264
 1815POPC   C3B25509  40.841  42.128   7.964
 1815POPC   C4B25510  40.869  42.099   7.664
 1816POPC   NC325511  43.872  22.123   9.464
 1816POPC   PO425512  43.879  22.199   9.164
 1816POPC   GL125513  43.922  22.117   8.864
 1816POPC   GL225514  43.878  22.270   8.864
 1816POPC   C1A25515  43.932  22.165   8.564
 1816POPC   D2A25516  43.930  22.189   8.264
 1816POPC   C3A25517  43.846  22.127   7.964
 1816POPC   C4A25518  43.861  22.138   7.664
 1816POPC   C1B25519  43.874  22.416   8.564
 1816POPC   C2B25520  43.875  22.365   8.264
 1816POPC   C3B25521  43.909  22.408   7.964
 1816POPC   C4B25522  43.927  22.403   7.664
 1817POPC   NC325523  30.723  15.985   9.464
 1817POPC   PO425524  30.703  15.950   9.164
 1817POPC   GL125525  30.665  16.003   8.864
 1817POPC   GL225526  30.616  15.977   8.864
 1817POPC   C1A25527  30.664  15.912   8.564
 1817POPC   D2A25528  30.739  15.999   8.264
 1817POPC   C3A25529  30.695  15.925   7.964
 1817POPC   C4A25530  30.724  15.989   7.664
 1817POPC   C1B25531  30.464  15.971   8.564
 1817POPC   C2B25532  30.401  15.970   8.264
 1817POPC   C3B25533  30.445  15.952   7.964
 1817POPC   C4B25534  30.433  16.006   7.664
 1818POPC   NC325535  17.476  16.697   9.464
 1818POPC   PO425536  17.476  16.753   9.164
 1818POPC   GL125537  17.539  16.703   8.864
 1818POPC   GL225538  17.438  16.820   8.864
 1818POPC   C1A25539  17.528  16.758   8.564
 1818POPC   D2A25540  17.460  16.701   8.264
 1818POPC   C3A25541  17.549  16.693   7.964
 1818POPC   C4A25542  17.557  16.764   7.664
 1818POPC   C1B25543  17.351  16.879   8.564
 1818POPC   C2B25544  17.337  16.870   8.264
 1818POPC   C3B25545  17.305  16.864   7.964
 1818POPC   C4B25546  17.308  16.884   7.664
 1819POPC   NC325547  32.986  33.833   9.464
 1819POPC   PO425548  32.985  33.796   9.164
 1819POPC   GL125549  33.069  33.787   8.864
 1819POPC   GL225550  33.125  33.793   8.864
 1819POPC   C1A25551  33.040  33.815   8.564
 1819POPC   D2A25552  32.995  33.803   8.264
 1819POPC   C3A25553  33.064  33.795   7.964
 1819POPC   C4A25554  33.041  33.796   7.664
 1819POPC   C1B25555  33.251  33.820   8.564
 1819POPC   C2B25556  33.289  33.866   8.264
 1819POPC   C3B25557  33.305  33.874   7.964
 1819POPC   C4B25558  33.312  33.905   7.664
 1820POPC   NC325559  12.825  38.447   9.464
 1820POPC   PO425560  12.888  38.495   9.164
 1820POPC   GL125561  12.901  38.461   8.864
 1820POPC   GL225562  12.743  38.342   8.864
 1820POPC   C1A25563  12.879  38.436   8.564
 1820POPC   D2A25564  12.889  38.432   8.264
 1820POPC   C3A25565  12.803  38.428   7.964
 1820POPC   C4A25566  12.876  38.485   7.664
 1820POPC   C1B25567  12.759  38.192   8.564
 1820POPC   C2B25568  12.746  38.273   8.264
 1820POPC   C3B25569  12.771  38.282   7.964
 1820POPC   C4B25570  12.740  38.206   7.664
 1821POPC   NC325571  40.767  19.096   9.464
 1821POPC   PO425572  40.819  19.025   9.164
 1821POPC   GL125573  40.750  19.099   8.864
 1821POPC   GL225574  40.827  19.149   8.864
 1821POPC   C1A25575  40.763  19.017   8.564
 1821POPC   D2A25576  40.782  19.100   8.264
 1821POPC   C3A25577  40.763  19.034   7.964
 1821POPC   C4A25578  40.773  19.011   7.664
 1821POPC   C1B25579  40.951  19.177   8.564
 1821POPC   C2B25580  40.940  19.218   8.264
 1821POPC   C3B25581  40.977  19.243   7.964
 1821POPC   C4B25582  40.949  19.229   7.664
 1822POPC   NC325583  33.848  31.494   9.464
 1822POPC   PO425584  33.848  31.519   9.164
 1822POPC   GL125585  33.787  31.435   8.864
 1822POPC   GL225586  33.651  31.471   8.864
 1822POPC   C1A25587  33.826  31.498   8.564
 1822POPC   D2A25588  33.780  31.436   8.264
 1822POPC   C3A25589  33.832  31.441   7.964
 1822POPC   C4A25590  33.836  31.477   7.664
 1822POPC   C1B25591  33.579  31.514   8.564
 1822POPC   C2B25592  33.504  31.454   8.264
 1822POPC   C3B25593  33.570  31.493   7.964
 1822POPC   C4B25594  33.584  31.520   7.664
 1823POPC   NC325595  18.292   4.332   9.464
 1823POPC   PO425596  18.284   4.272   9.164
 1823POPC   GL125597  18.328   4.290   8.864
 1823POPC   GL225598  18.181   4.296   8.864
 1823POPC   C1A25599  18.251   4.271   8.564
 1823POPC   D2A25600  18.298   4.357   8.264
 1823POPC   C3A25601  18.322   4.277   7.964
 1823POPC   C4A25602  18.286   4.280   7.664
 1823POPC   C1B25603  18.058   4.190   8.564
 1823POPC   C2B25604  18.120   4.155   8.264
 1823POPC   C3B25605  18.032   4.222   7.964
 1823POPC   C4B25606  18.025   4.210   7.664
 1824POPC   NC325607  11.269  36.164   9.464
 1824POPC   PO425608  11.332  36.148   9.164
 1824POPC   GL125609  11.340  36.108   8.864
 1824POPC   GL225610  11.150  36.163   8.864
 1824POPC   C1A25611  11.332  36.126   8.564
 1824POPC   D2A25612  11.314  36.084   8.264
 1824POPC   C3A25613  11.262  36.107   7.964
 1824POPC   C4A25614  11.255  36.139   7.664
 1824POPC   C1B25615  11.108  36.169   8.564
 1824POPC   C2B25616  11.102  36.232   8.264
 1824POPC   C3B25617  11.077  36.217   7.964
 1824POPC   C4B25618  11.106  36.234   7.664
 1825POPC   NC325619  23.686  34.564   9.464
 1825POPC   PO425620  23.725  34.606   9.164
 1825POPC   GL125621  23.702  34.568   8.864
 1825POPC   GL225622  23.790  34.559   8.864
 1825POPC   C1A25623  23.717  34.596   8.564
 1825POPC   D2A25624  23.728  34.610   8.264
 1825POPC   C3A25625  23.755  34.586   7.964
 1825POPC   C4A25626  23.744  34.616   7.664
 1825POPC   C1B25627  23.903  34.531   8.564
 1825POPC   C2B25628  23.942  34.459   8.264
 1825POPC   C3B25629  23.903  34.519   7.964
 1825POPC   C4B25630  23.993  34.484   7.664
 1826POPC   NC325631  19.856  13.647   9.464
 1826POPC   PO425632  19.822  13.651   9.164
 1826POPC   GL125633  19.845  13.621   8.864
 1826POPC   GL225634  19.736  13.650   8.864
 1826POPC   C1A25635  19.844  13.629   8.564
 1826POPC   D2A25636  19.868  13.602   8.264
 1826POPC   C3A25637  19.810  13.637   7.964
 1826POPC   C4A25638  19.872  13.653   7.664
 1826POPC   C1B25639  19.557  13.584   8.564
 1826POPC   C2B25640  19.634  13.586   8.264
 1826POPC   C3B25641  19.632  13.571   7.964
 1826POPC   C4B25642  19.590  13.635   7.664
 1827POPC   NC325643   9.774  43.913   9.464
 1827POPC   PO425644   9.764  43.846   9.164
 1827POPC   GL125645   9.725  43.845   8.864
 1827POPC   GL225646   9.717  43.972   8.864
 1827POPC   C1A25647   9.760  43.892   8.564
 1827POPC   D2A25648   9.751  43.929   8.264
 1827POPC   C3A25649   9.709  43.870   7.964
 1827POPC   C4A25650   9.728  43.840   7.664
 1827POPC   C1B25651   9.783  44.157   8.564
 1827POPC   C2B25652   9.752  44.166   8.264
 1827POPC   C3B25653   9.770  44.116   7.964
 1827POPC   C4B25654   9.717  44.127   7.664
 1828POPC   NC325655  14.404  16.779   9.464
 1828POPC   PO425656  14.438  16.694   9.164
 1828POPC   GL125657  14.423  16.754   8.864
 1828POPC   GL225658  14.521  16.722   8.864
 1828POPC   C1A25659  14.429  16.766   8.564
 1828POPC   D2A25660  14.442  16.773   8.264
 1828POPC   C3A25661  14.413  16.758   7.964
 1828POPC   C4A25662  14.435  16.694   7.664
 1828POPC   C1B25663  14.653  16.768   8.564
 1828POPC   C2B25664  14.676  16.800   8.264
 1828POPC   C3B25665  14.683  16.771   7.964
 1828POPC   C4B25666  14.686  16.806   7.664
 1829POPC   NC325667   5.048  15.990   9.464
 1829POPC   PO425668   5.125  15.993   9.164
 1829POPC   GL125669   5.124  15.993   8.864
 1829POPC   GL225670   5.004  16.017   8.864
 1829POPC   C1A25671   5.133  15.933   8.564
 1829POPC   D2A25672   5.048  15.968   8.264
 1829POPC   C3A25673   5.062  15.967   7.964
 1829POPC   C4A25674   5.069  15.945   7.664
 1829POPC   C1B25675   4.984  16.176   8.564
 1829POPC   C2B25676   4.977  16.211   8.264
 1829POPC   C3B25677   4.999  16.163   7.964
 1829POPC   C4B25678   4.964  16.207   7.664
 1830POPC   NC325679   5.851  15.225   9.464
 1830POPC   PO425680   5.870  15.155   9.164
 1830POPC   GL125681   5.842  15.133   8.864
 1830POPC   GL225682   5.927  15.078   8.864
 1830POPC   C1A25683   5.876  15.149   8.564
 1830POPC   D2A25684   5.904  15.224   8.264
 1830POPC   C3A25685   5.831  15.160   7.964
 1830POPC   C4A25686   5.842  15.223   7.664
 1830POPC   C1B25687   5.916  14.956   8.564
 1830POPC   C2B25688   5.972  14.999   8.264
 1830POPC   C3B25689   5.984  14.987   7.964
 1830POPC   C4B25690   5.966  14.976   7.664
 1831POPC   NC325691  44.621  32.290   9.464
 1831POPC   PO425692  44.712  32.256   9.164
 1831POPC   GL125693  44.649  32.267   8.864
 1831POPC   GL225694  44.498  32.287   8.864
 1831POPC   C1A25695  44.672  32.252   8.564
 1831POPC   D2A25696  44.676  32.298   8.264
 1831POPC   C3A25697  44.622  32.247   7.964
 1831POPC   C4A25698  44.632  32.224   7.664
 1831POPC   C1B25699  44.412  32.331   8.564
 1831POPC   C2B25700  44.467  32.349   8.264
 1831POPC   C3B25701  44.424  32.321   7.964
 1831POPC   C4B25702  44.392  32.271   7.664
 1832POPC   NC325703  12.048  38.473   9.464
 1832POPC   PO425704  12.067  38.501   9.164
 1832POPC   GL125705  12.118  38.465   8.864
 1832POPC   GL225706  12.173  38.469   8.864
 1832POPC   C1A25707  12.089  38.474   8.564
 1832POPC   D2A25708  12.051  38.461   8.264
 1832POPC   C3A25709  12.051  38.447   7.964
 1832POPC   C4A25710  12.050  38.459   7.664
 1832POPC   C1B25711  12.315  38.456   8.564
 1832POPC   C2B25712  12.275  38.449   8.264
 1832POPC   C3B25713  12.307  38.454   7.964
 1832POPC   C4B25714  12.274  38.439   7.664
 1833POPC   NC325715   4.328  28.366   9.464
 1833POPC   PO425716   4.322  28.328   9.164
 1833POPC   GL125717   4.353  28.404   8.864
 1833POPC   GL225718   4.172  28.394   8.864
 1833POPC   C1A25719   4.289  28.389   8.564
 1833POPC   D2A25720   4.268  28.349   8.264
 1833POPC   C3A25721   4.330  28.325   7.964
 1833POPC   C4A25722   4.343  28.340   7.664
 1833POPC   C1B25723   4.115  28.514   8.564
 1833POPC   C2B25724   4.116  28.490   8.264
 1833POPC   C3B25725   4.087  28.474   7.964
 1833POPC   C4B25726   4.083  28.529   7.664
 1834POPC   NC325727  22.206  15.958   9.464
 1834POPC   PO425728  22.133  15.929   9.164
 1834POPC   GL125729  22.124  16.004   8.864
 1834POPC   GL225730  22.111  16.051   8.864
 1834POPC   C1A25731  22.208  15.980   8.564
 1834POPC   D2A25732  22.131  15.994   8.264
 1834POPC   C3A25733  22.160  15.945   7.964
 1834POPC   C4A25734  22.134  15.934   7.664
 1834POPC   C1B25735  22.085  16.214   8.564
 1834POPC   C2B25736  22.048  16.206   8.264
 1834POPC   C3B25737  22.055  16.206   7.964
 1834POPC   C4B25738  22.061  16.162   7.664
 1835POPC   NC325739  14.390   8.996   9.464
 1835POPC   PO425740  14.357   8.929   9.164
 1835POPC   GL125741  14.402   8.975   8.864
 1835POPC   GL225742  14.451   9.128   8.864
 1835POPC   C1A25743  14.418   8.938   8.564
 1835POPC   D2A25744  14.356   8.968   8.264
 1835POPC   C3A25745  14.430   8.935   7.964
 1835POPC   C4A25746  14.400   8.949   7.664
 1835POPC   C1B25747  14.510   9.181   8.564
 1835POPC   C2B25748  14.539   9.188   8.264
 1835POPC   C3B25749  14.462   9.205   7.964
 1835POPC   C4B25750  14.528   9.220   7.664
 1836POPC   NC325751  15.922  29.917   9.464
 1836POPC   PO425752  15.987  29.921   9.164
 1836POPC   GL125753  15.927  29.912   8.864
 1836POPC   GL225754  15.788  29.919   8.864
 1836POPC   C1A25755  15.958  29.928   8.564
 1836POPC   D2A25756  15.982  29.967   8.264
 1836POPC   C3A25757  15.942  29.954   7.964
 1836POPC   C4A25758  16.002  29.915   7.664
 1836POPC   C1B25759  15.683  29.953   8.564
 1836POPC   C2B25760  15.706  29.888   8.264
 1836POPC   C3B25761  15.733  29.879   7.964
 1836POPC   C4B25762  15.687  29.872   7.664
 1837POPC   NC325763   0.423   1.233   9.464
 1837POPC   PO425764   0.469   1.172   9.164
 1837POPC   GL125765   0.460   1.191   8.864
 1837POPC   GL225766   0.469   1.294   8.864
 1837POPC   C1A25767   0.420   1.190   8.564
 1837POPC   D2A25768   0.469   1.198   8.264
 1837POPC   C3A25769   0.420   1.248   7.964
 1837POPC   C4A25770   0.435   1.264   7.664
 1837POPC   C1B25771   0.479   1.481   8.564
 1837POPC   C2B25772   0.470   1.501   8.264
 1837POPC   C3B25773   0.465   1.502   7.964
 1837POPC   C4B25774   0.447   1.440   7.664
 1838POPC   NC325775  43.070  39.964   9.464
 1838POPC   PO425776  43.119  39.979   9.164
 1838POPC   GL125777  43.088  40.030   8.864
 1838POPC   GL225778  43.009  39.978   8.864
 1838POPC   C1A25779  43.137  39.979   8.564
 1838POPC   D2A25780  43.144  40.038   8.264
 1838POPC   C3A25781  43.071  39.973   7.964
 1838POPC   C4A25782  43.067  39.979   7.664
 1838POPC   C1B25783  42.904  39.960   8.564
 1838POPC   C2B25784  42.844  39.973   8.264
 1838POPC   C3B25785  42.846  39.946   7.964
 1838POPC   C4B25786  42.853  39.989   7.664
 1839POPC   NC325787  12.029  19.848   9.464
 1839POPC   PO425788  12.029  19.810   9.164
 1839POPC   GL125789  12.082  19.806   8.864
 1839POPC   GL225790  12.135  19.957   8.864
 1839POPC   C1A25791  12.072  19.849   8.564
 1839POPC   D2A25792  12.081  19.861   8.264
 1839POPC   C3A25793  12.031  19.798   7.964
 1839POPC   C4A25794  12.034  19.806   7.664
 1839POPC   C1B25795  12.208  20.017   8.564
 1839POPC   C2B25796  12.173  20.072   8.264
 1839POPC   C3B25797  12.247  20.072   7.964
 1839POPC   C4B25798  12.196  20.077   7.664
 1840POPC   NC325799  38.454  13.612   9.464
 1840POPC   PO425800  38.473  13.586   9.164
 1840POPC   GL125801  38.479  13.578   8.864
 1840POPC   GL225802  38.432  13.768   8.864
 1840POPC   C1A25803  38.458  13.622   8.564
 1840POPC   D2A25804  38.505  13.648   8.264
 1840POPC   C3A25805  38.470  13.594   7.964
 1840POPC   C4A25806  38.414  13.633   7.664
 1840POPC   C1B25807  38.420  13.872   8.564
 1840POPC   C2B25808  38.464  13.884   8.264
 1840POPC   C3B25809  38.445  13.918   7.964
 1840POPC   C4B25810  38.423  13.863   7.664
 1841POPC   NC325811  25.282  35.336   9.464
 1841POPC   PO425812  25.237  35.319   9.164
 1841POPC   GL125813  25.297  35.321   8.864
 1841POPC   GL225814  25.356  35.457   8.864
 1841POPC   C1A25815  25.243  35.344   8.564
 1841POPC   D2A25816  25.259  35.306   8.264
 1841POPC   C3A25817  25.308  35.391   7.964
 1841POPC   C4A25818  25.238  35.307   7.664
 1841POPC   C1B25819  25.412  35.598   8.564
 1841POPC   C2B25820  25.429  35.562   8.264
 1841POPC   C3B25821  25.437  35.549   7.964
 1841POPC   C4B25822  25.396  35.563   7.664
 1842POPC   NC325823  35.391  40.754   9.464
 1842POPC   PO425824  35.335  40.772   9.164
 1842POPC   GL125825  35.328  40.828   8.864
 1842POPC   GL225826  35.394  40.678   8.864
 1842POPC   C1A25827  35.353  40.803   8.564
 1842POPC   D2A25828  35.338  40.764   8.264
 1842POPC   C3A25829  35.380  40.738   7.964
 1842POPC   C4A25830  35.351  40.816   7.664
 1842POPC   C1B25831  35.496  40.587   8.564
 1842POPC   C2B25832  35.483  40.633   8.264
 1842POPC   C3B25833  35.482  40.604   7.964
 1842POPC   C4B25834  35.485  40.646   7.664
 1843POPC   NC325835   6.644  29.952   9.464
 1843POPC   PO425836   6.667  29.872   9.164
 1843POPC   GL125837   6.651  29.927   8.864
 1843POPC   GL225838   6.692  30.046   8.864
 1843POPC   C1A25839   6.599  29.951   8.564
 1843POPC   D2A25840   6.680  29.966   8.264
 1843POPC   C3A25841   6.662  29.940   7.964
 1843POPC   C4A25842   6.652  29.960   7.664
 1843POPC   C1B25843   6.693  30.153   8.564
 1843POPC   C2B25844   6.701  30.134   8.264
 1843POPC   C3B25845   6.705  30.165   7.964
 1843POPC   C4B25846   6.716  30.144   7.664
 1844POPC   NC325847  32.216  44.638   9.464
 1844POPC   PO425848  32.201  44.636   9.164
 1844POPC   GL125849  32.288  44.708   8.864
 1844POPC   GL225850  32.129  44.610   8.864
 1844POPC   C1A25851  32.199  44.685   8.564
 1844POPC   D2A25852  32.280  44.652   8.264
 1844POPC   C3A25853  32.201  44.617   7.964
 1844POPC   C4A25854  32.277  44.643   7.664
 1844POPC   C1B25855  32.046  44.556   8.564
 1844POPC   C2B25856  32.091  44.514   8.264
 1844POPC   C3B25857  32.087  44.502   7.964
 1844POPC   C4B25858  32.087  44.545   7.664
 1845POPC   NC325859  18.295   9.010   9.464
 1845POPC   PO425860  18.246   8.982   9.164
 1845POPC   GL125861  18.289   8.994   8.864
 1845POPC   GL225862  18.391   8.927   8.864
 1845POPC   C1A25863  18.311   9.014   8.564
 1845POPC   D2A25864  18.263   9.022   8.264
 1845POPC   C3A25865  18.253   8.981   7.964
 1845POPC   C4A25866  18.297   8.963   7.664
 1845POPC   C1B25867  18.426   8.775   8.564
 1845POPC   C2B25868  18.424   8.822   8.264
 1845POPC   C3B25869  18.428   8.764   7.964
 1845POPC   C4B25870  18.474   8.761   7.664
 1846POPC   NC325871   5.904   1.973   9.464
 1846POPC   PO425872   5.840   2.011   9.164
 1846POPC   GL125873   5.867   1.957   8.864
 1846POPC   GL225874   5.939   2.082   8.864
 1846POPC   C1A25875   5.898   1.940   8.564
 1846POPC   D2A25876   5.870   1.987   8.264
 1846POPC   C3A25877   5.886   2.006   7.964
 1846POPC   C4A25878   5.842   1.997   7.664
 1846POPC   C1B25879   6.037   2.181   8.564
 1846POPC   C2B25880   6.083   2.176   8.264
 1846POPC   C3B25881   6.037   2.143   7.964
 1846POPC   C4B25882   6.053   2.132   7.664
 1847POPC   NC325883  36.134  41.603   9.464
 1847POPC   PO425884  36.144  41.588   9.164
 1847POPC   GL125885  36.142  41.560   8.864
 1847POPC   GL225886  36.279  41.673   8.864
 1847POPC   C1A25887  36.142  41.530   8.564
 1847POPC   D2A25888  36.110  41.607   8.264
 1847POPC   C3A25889  36.128  41.593   7.964
 1847POPC   C4A25890  36.089  41.518   7.664
 1847POPC   C1B25891  36.290  41.700   8.564
 1847POPC   C2B25892  36.319  41.676   8.264
 1847POPC   C3B25893  36.362  41.670   7.964
 1847POPC   C4B25894  36.286  41.726   7.664
 1848POPC   NC325895  22.129   6.663   9.464
 1848POPC   PO425896  22.173   6.674   9.164
 1848POPC   GL125897  22.200   6.609   8.864
 1848POPC   GL225898  22.226   6.505   8.864
 1848POPC   C1A25899  22.174   6.658   8.564
 1848POPC   D2A25900  22.115   6.676   8.264
 1848POPC   C3A25901  22.146   6.600   7.964
 1848POPC   C4A25902  22.210   6.673   7.664
 1848POPC   C1B25903  22.256   6.396   8.564
 1848POPC   C2B25904  22.257   6.439   8.264
 1848POPC   C3B25905  22.259   6.433   7.964
 1848POPC   C4B25906  22.247   6.390   7.664
 1849POPC   NC325907  15.942  20.613   9.464
 1849POPC   PO425908  15.933  20.606   9.164
 1849POPC   GL125909  15.957  20.580   8.864
 1849POPC   GL225910  15.794  20.658   8.864
 1849POPC   C1A25911  15.995  20.655   8.564
 1849POPC   D2A25912  15.967  20.603   8.264
 1849POPC   C3A25913  15.968  20.603   7.964
 1849POPC   C4A25914  15.942  20.660   7.664
 1849POPC   C1B25915  15.661  20.657   8.564
 1849POPC   C2B25916  15.673  20.694   8.264
 1849POPC   C3B25917  15.682  20.703   7.964
 1849POPC   C4B25918  15.721  20.641   7.664
 1850POPC   NC325919   2.793  32.204   9.464
 1850POPC   PO425920   2.756  32.273   9.164
 1850POPC   GL125921   2.749  32.252   8.864
 1850POPC   GL225922   2.662  32.262   8.864
 1850POPC   C1A25923   2.764  32.221   8.564
 1850POPC   D2A25924   2.731  32.264   8.264
 1850POPC   C3A25925   2.788  32.250   7.964
 1850POPC   C4A25926   2.795  32.217   7.664
 1850POPC   C1B25927   2.546  32.303   8.564
 1850POPC   C2B25928   2.576  32.328   8.264
 1850POPC   C3B25929   2.504  32.340   7.964
 1850POPC   C4B25930   2.530  32.370   7.664
 1851POPC   NC325931   1.983  20.624   9.464
 1851POPC   PO425932   1.974  20.571   9.164
 1851POPC   GL125933   2.028  20.596   8.864
 1851POPC   GL225934   2.074  20.594   8.864
 1851POPC   C1A25935   2.019  20.651   8.564
 1851POPC   D2A25936   2.026  20.642   8.264
 1851POPC   C3A25937   2.024  20.566   7.964
 1851POPC   C4A25938   2.008  20.578   7.664
 1851POPC   C1B25939   2.214  20.594   8.564
 1851POPC   C2B25940   2.249  20.581   8.264
 1851POPC   C3B25941   2.238  20.587   7.964
 1851POPC   C4B25942   2.195  20.540   7.664
 1852POPC   NC325943  13.671  27.592   9.464
 1852POPC   PO425944  13.664  27.569   9.164
 1852POPC   GL125945  13.653  27.569   8.864
 1852POPC   GL225946  13.719  27.598   8.864
 1852POPC   C1A25947  13.588  27.640   8.564
 1852POPC   D2A25948  13.674  27.546   8.264
 1852POPC   C3A25949  13.584  27.637   7.964
 1852POPC   C4A25950  13.643  27.642   7.664
 1852POPC   C1B25951  13.862  27.471   8.564
 1852POPC   C2B25952  13.870  27.506   8.264
 1852POPC   C3B25953  13.881  27.509   7.964
 1852POPC   C4B25954  13.830  27.473   7.664
 1853POPC   NC325955   9.762   4.277   9.464
 1853POPC   PO425956   9.713   4.293   9.164
 1853POPC   GL125957   9.746   4.315   8.864
 1853POPC   GL225958   9.915   4.335   8.864
 1853POPC   C1A25959   9.732   4.304   8.564
 1853POPC   D2A25960   9.724   4.314   8.264
 1853POPC   C3A25961   9.753   4.351   7.964
 1853POPC   C4A25962   9.735   4.313   7.664
 1853POPC   C1B25963   9.979   4.356   8.564
 1853POPC   C2B25964   9.984   4.314   8.264
 1853POPC   C3B25965  10.034   4.323   7.964
 1853POPC   C4B25966  10.038   4.364   7.664
 1854POPC   NC325967   0.464  42.314   9.464
 1854POPC   PO425968   0.484  42.291   9.164
 1854POPC   GL125969   0.476  42.337   8.864
 1854POPC   GL225970   0.293  42.260   8.864
 1854POPC   C1A25971   0.458  42.329   8.564
 1854POPC   D2A25972   0.460  42.384   8.264
 1854POPC   C3A25973   0.485  42.369   7.964
 1854POPC   C4A25974   0.472  42.379   7.664
 1854POPC   C1B25975   0.169  42.300   8.564
 1854POPC   C2B25976   0.185  42.226   8.264
 1854POPC   C3B25977   0.214  42.253   7.964
 1854POPC   C4B25978   0.188  42.288   7.664
 1855POPC   NC325979   5.846  22.212   9.464
 1855POPC   PO425980   5.875  22.140   9.164
 1855POPC   GL125981   5.866  22.133   8.864
 1855POPC   GL225982   5.771  22.146   8.864
 1855POPC   C1A25983   5.866  22.171   8.564
 1855POPC   D2A25984   5.867  22.114   8.264
 1855POPC   C3A25985   5.853  22.204   7.964
 1855POPC   C4A25986   5.879  22.183   7.664
 1855POPC   C1B25987   5.658  22.053   8.564
 1855POPC   C2B25988   5.606  22.053   8.264
 1855POPC   C3B25989   5.603  22.059   7.964
 1855POPC   C4B25990   5.671  22.099   7.664
 1856POPC   NC325991  15.211  38.497   9.464
 1856POPC   PO425992  15.161  38.472   9.164
 1856POPC   GL125993  15.169  38.423   8.864
 1856POPC   GL225994  15.275  38.365   8.864
 1856POPC   C1A25995  15.167  38.463   8.564
 1856POPC   D2A25996  15.220  38.407   8.264
 1856POPC   C3A25997  15.145  38.488   7.964
 1856POPC   C4A25998  15.201  38.474   7.664
 1856POPC   C1B25999  15.327  38.230   8.564
 1856POPC   C2B26000  15.316  38.228   8.264
 1856POPC   C3B26001  15.368  38.299   7.964
 1856POPC   C4B26002  15.318  38.288   7.664
 1857POPC   NC326003  25.220   7.456   9.464
 1857POPC   PO426004  25.277   7.447   9.164
 1857POPC   GL126005  25.232   7.392   8.864
 1857POPC   GL226006  25.306   7.478   8.864
 1857POPC   C1A26007  25.304   7.382   8.564
 1857POPC   D2A26008  25.223   7.373   8.264
 1857POPC   C3A26009  25.287   7.403   7.964
 1857POPC   C4A26010  25.311   7.466   7.664
 1857POPC   C1B26011  25.377   7.602   8.564
 1857POPC   C2B26012  25.408   7.660   8.264
 1857POPC   C3B26013  25.376   7.633   7.964
 1857POPC   C4B26014  25.459   7.675   7.664
 1858POPC   NC326015  22.917  17.465   9.464
 1858POPC   PO426016  22.982  17.504   9.164
 1858POPC   GL126017  22.980  17.554   8.864
 1858POPC   GL226018  22.934  17.633   8.864
 1858POPC   C1A26019  22.963  17.490   8.564
 1858POPC   D2A26020  22.978  17.551   8.264
 1858POPC   C3A26021  22.914  17.519   7.964
 1858POPC   C4A26022  22.925  17.503   7.664
 1858POPC   C1B26023  22.888  17.770   8.564
 1858POPC   C2B26024  22.858  17.748   8.264
 1858POPC   C3B26025  22.846  17.796   7.964
 1858POPC   C4B26026  22.867  17.778   7.664
 1859POPC   NC326027   9.771  24.442   9.464
 1859POPC   PO426028   9.772  24.458   9.164
 1859POPC   GL126029   9.773  24.443   8.864
 1859POPC   GL226030   9.656  24.515   8.864
 1859POPC   C1A26031   9.727  24.495   8.564
 1859POPC   D2A26032   9.751  24.468   8.264
 1859POPC   C3A26033   9.748  24.484   7.964
 1859POPC   C4A26034   9.712  24.508   7.664
 1859POPC   C1B26035   9.548  24.540   8.564
 1859POPC   C2B26036   9.535  24.585   8.264
 1859POPC   C3B26037   9.463  24.546   7.964
 1859POPC   C4B26038   9.515  24.543   7.664
 1860POPC   NC326039  16.769  15.980   9.464
 1860POPC   PO426040  16.754  15.920   9.164
 1860POPC   GL126041  16.714  15.912   8.864
 1860POPC   GL226042  16.644  15.919   8.864
 1860POPC   C1A26043  16.781  15.979   8.564
 1860POPC   D2A26044  16.741  15.956   8.264
 1860POPC   C3A26045  16.691  16.000   7.964
 1860POPC   C4A26046  16.745  15.949   7.664
 1860POPC   C1B26047  16.528  15.909   8.564
 1860POPC   C2B26048  16.482  15.899   8.264
 1860POPC   C3B26049  16.511  15.839   7.964
 1860POPC   C4B26050  16.468  15.893   7.664
 1861POPC   NC326051  24.529  10.495   9.464
 1861POPC   PO426052  24.533  10.530   9.164
 1861POPC   GL126053  24.440  10.485   8.864
 1861POPC   GL226054  24.420  10.511   8.864
 1861POPC   C1A26055  24.503  10.511   8.564
 1861POPC   D2A26056  24.504  10.546   8.264
 1861POPC   C3A26057  24.539  10.516   7.964
 1861POPC   C4A26058  24.486  10.483   7.664
 1861POPC   C1B26059  24.202  10.431   8.564
 1861POPC   C2B26060  24.204  10.465   8.264
 1861POPC   C3B26061  24.284  10.448   7.964
 1861POPC   C4B26062  24.215  10.477   7.664
 1862POPC   NC326063  43.838   1.947   9.464
 1862POPC   PO426064  43.888   2.011   9.164
 1862POPC   GL126065  43.923   2.029   8.864
 1862POPC   GL226066  43.837   2.096   8.864
 1862POPC   C1A26067  43.853   1.970   8.564
 1862POPC   D2A26068  43.926   2.034   8.264
 1862POPC   C3A26069  43.862   2.033   7.964
 1862POPC   C4A26070  43.849   1.950   7.664
 1862POPC   C1B26071  43.888   2.240   8.564
 1862POPC   C2B26072  43.902   2.200   8.264
 1862POPC   C3B26073  43.836   2.257   7.964
 1862POPC   C4B26074  43.912   2.289   7.664
 1863POPC   NC326075  33.760  28.366   9.464
 1863POPC   PO426076  33.759  28.358   9.164
 1863POPC   GL126077  33.832  28.329   8.864
 1863POPC   GL226078  33.712  28.335   8.864
 1863POPC   C1A26079  33.845  28.379   8.564
 1863POPC   D2A26080  33.826  28.343   8.264
 1863POPC   C3A26081  33.844  28.374   7.964
 1863POPC   C4A26082  33.817  28.322   7.664
 1863POPC   C1B26083  33.579  28.273   8.564
 1863POPC   C2B26084  33.570  28.320   8.264
 1863POPC   C3B26085  33.590  28.294   7.964
 1863POPC   C4B26086  33.586  28.257   7.664
 1864POPC   NC326087  22.204  10.538   9.464
 1864POPC   PO426088  22.132  10.564   9.164
 1864POPC   GL126089  22.123  10.505   8.864
 1864POPC   GL226090  22.178  10.411   8.864
 1864POPC   C1A26091  22.122  10.561   8.564
 1864POPC   D2A26092  22.196  10.548   8.264
 1864POPC   C3A26093  22.164  10.503   7.964
 1864POPC   C4A26094  22.152  10.517   7.664
 1864POPC   C1B26095  22.178  10.249   8.564
 1864POPC   C2B26096  22.226  10.280   8.264
 1864POPC   C3B26097  22.227  10.292   7.964
 1864POPC   C4B26098  22.174  10.316   7.664
 1865POPC   NC326099  36.871   1.175   9.464
 1865POPC   PO426100  36.920   1.191   9.164
 1865POPC   GL126101  36.915   1.190   8.864
 1865POPC   GL226102  36.911   1.356   8.864
 1865POPC   C1A26103  36.881   1.183   8.564
 1865POPC   D2A26104  36.874   1.219   8.264
 1865POPC   C3A26105  36.910   1.225   7.964
 1865POPC   C4A26106  36.874   1.233   7.664
 1865POPC   C1B26107  36.836   1.441   8.564
 1865POPC   C2B26108  36.849   1.490   8.264
 1865POPC   C3B26109  36.866   1.433   7.964
 1865POPC   C4B26110  36.876   1.436   7.664
 1866POPC   NC326111  35.386  27.562   9.464
 1866POPC   PO426112  35.390  27.608   9.164
 1866POPC   GL126113  35.354  27.641   8.864
 1866POPC   GL226114  35.313  27.440   8.864
 1866POPC   C1A26115  35.338  27.585   8.564
 1866POPC   D2A26116  35.375  27.640   8.264
 1866POPC   C3A26117  35.312  27.569   7.964
 1866POPC   C4A26118  35.374  27.560   7.664
 1866POPC   C1B26119  35.233  27.327   8.564
 1866POPC   C2B26120  35.237  27.392   8.264
 1866POPC   C3B26121  35.237  27.360   7.964
 1866POPC   C4B26122  35.284  27.351   7.664
 1867POPC   NC326123  44.706  21.436   9.464
 1867POPC   PO426124  44.614  21.413   9.164
 1867POPC   GL126125  44.661  21.413   8.864
 1867POPC   GL226126  44.627  21.555   8.864
 1867POPC   C1A26127  44.684  21.435   8.564
 1867POPC   D2A26128  44.666  21.355   8.264
 1867POPC   C3A26129  44.648  21.363   7.964
 1867POPC   C4A26130  44.626  21.416   7.664
 1867POPC   C1B26131  44.654  21.627   8.564
 1867POPC   C2B26132  44.649  21.610   8.264
 1867POPC   C3B26133  44.698  21.680   7.964
 1867POPC   C4B26134  44.685  21.668   7.664
 1868POPC   NC326135  33.799  20.642   9.464
 1868POPC   PO426136  33.753  20.567   9.164
 1868POPC   GL126137  33.754  20.601   8.864
 1868POPC   GL226138  33.665  20.608   8.864
 1868POPC   C1A26139  33.842  20.627   8.564
 1868POPC   D2A26140  33.769  20.621   8.264
 1868POPC   C3A26141  33.827  20.658   7.964
 1868POPC   C4A26142  33.822  20.641   7.664
 1868POPC   C1B26143  33.570  20.739   8.564
 1868POPC   C2B26144  33.584  20.716   8.264
 1868POPC   C3B26145  33.587  20.753   7.964
 1868POPC   C4B26146  33.567  20.732   7.664
 1869POPC   NC326147  10.543  30.695   9.464
 1869POPC   PO426148  10.485  30.685   9.164
 1869POPC   GL126149  10.555  30.740   8.864
 1869POPC   GL226150  10.397  30.645   8.864
 1869POPC   C1A26151  10.487  30.679   8.564
 1869POPC   D2A26152  10.535  30.729   8.264
 1869POPC   C3A26153  10.555  30.660   7.964
 1869POPC   C4A26154  10.557  30.676   7.664
 1869POPC   C1B26155  10.266  30.693   8.564
 1869POPC   C2B26156  10.296  30.670   8.264
 1869POPC   C3B26157  10.312  30.692   7.964
 1869POPC   C4B26158  10.277  30.650   7.664
 1870POPC   NC326159  23.735  14.396   9.464
 1870POPC   PO426160  23.676  14.441   9.164
 1870POPC   GL126161  23.764  14.429   8.864
 1870POPC   GL226162  23.777  14.249   8.864
 1870POPC   C1A26163  23.746  14.367   8.564
 1870POPC   D2A26164  23.753  14.391   8.264
 1870POPC   C3A26165  23.664  14.393   7.964
 1870POPC   C4A26166  23.708  14.413   7.664
 1870POPC   C1B26167  23.761  14.134   8.564
 1870POPC   C2B26168  23.720  14.137   8.264
 1870POPC   C3B26169  23.806  14.169   7.964
 1870POPC   C4B26170  23.743  14.115   7.664
 1871POPC   NC326171  29.906  19.808   9.464
 1871POPC   PO426172  29.878  19.829   9.164
 1871POPC   GL126173  29.908  19.818   8.864
 1871POPC   GL226174  29.817  19.732   8.864
 1871POPC   C1A26175  29.908  19.884   8.564
 1871POPC   D2A26176  29.895  19.856   8.264
 1871POPC   C3A26177  29.928  19.834   7.964
 1871POPC   C4A26178  29.917  19.845   7.664
 1871POPC   C1B26179  29.830  19.567   8.564
 1871POPC   C2B26180  29.798  19.584   8.264
 1871POPC   C3B26181  29.776  19.653   7.964
 1871POPC   C4B26182  29.806  19.598   7.664
 1872POPC   NC326183   9.013   8.176   9.464
 1872POPC   PO426184   8.956   8.232   9.164
 1872POPC   GL126185   8.965   8.159   8.864
 1872POPC   GL226186   8.829   8.141   8.864
 1872POPC   C1A26187   8.940   8.193   8.564
 1872POPC   D2A26188   9.003   8.162   8.264
 1872POPC   C3A26189   9.004   8.156   7.964
 1872POPC   C4A26190   8.940   8.237   7.664
 1872POPC   C1B26191   8.775   8.029   8.564
 1872POPC   C2B26192   8.823   8.039   8.264
 1872POPC   C3B26193   8.785   8.019   7.964
 1872POPC   C4B26194   8.829   8.078   7.664
 1873POPC   NC326195  24.502  33.801   9.464
 1873POPC   PO426196  24.511  33.814   9.164
 1873POPC   GL126197  24.513  33.829   8.864
 1873POPC   GL226198  24.639  33.809   8.864
 1873POPC   C1A26199  24.481  33.803   8.564
 1873POPC   D2A26200  24.504  33.767   8.264
 1873POPC   C3A26201  24.508  33.780   7.964
 1873POPC   C4A26202  24.531  33.819   7.664
 1873POPC   C1B26203  24.674  33.897   8.564
 1873POPC   C2B26204  24.762  33.879   8.264
 1873POPC   C3B26205  24.748  33.869   7.964
 1873POPC   C4B26206  24.698  33.931   7.664
 1874POPC   NC326207  43.916  13.638   9.464
 1874POPC   PO426208  43.894  13.657   9.164
 1874POPC   GL126209  43.924  13.639   8.864
 1874POPC   GL226210  43.997  13.622   8.864
 1874POPC   C1A26211  43.897  13.639   8.564
 1874POPC   D2A26212  43.912  13.612   8.264
 1874POPC   C3A26213  43.926  13.647   7.964
 1874POPC   C4A26214  43.907  13.604   7.664
 1874POPC   C1B26215  44.161  13.642   8.564
 1874POPC   C2B26216  44.108  13.596   8.264
 1874POPC   C3B26217  44.135  13.665   7.964
 1874POPC   C4B26218  44.184  13.613   7.664
 1875POPC   NC326219   5.819  30.657   9.464
 1875POPC   PO426220   5.832  30.692   9.164
 1875POPC   GL126221   5.820  30.716   8.864
 1875POPC   GL226222   5.727  30.593   8.864
 1875POPC   C1A26223   5.869  30.710   8.564
 1875POPC   D2A26224   5.861  30.688   8.264
 1875POPC   C3A26225   5.861  30.683   7.964
 1875POPC   C4A26226   5.826  30.709   7.664
 1875POPC   C1B26227   5.682  30.615   8.564
 1875POPC   C2B26228   5.639  30.553   8.264
 1875POPC   C3B26229   5.632  30.576   7.964
 1875POPC   C4B26230   5.658  30.612   7.664
 1876POPC   NC326231  15.914  21.357   9.464
 1876POPC   PO426232  15.922  21.359   9.164
 1876POPC   GL126233  15.952  21.390   8.864
 1876POPC   GL226234  16.055  21.336   8.864
 1876POPC   C1A26235  15.919  21.372   8.564
 1876POPC   D2A26236  15.960  21.429   8.264
 1876POPC   C3A26237  15.953  21.377   7.964
 1876POPC   C4A26238  15.956  21.406   7.664
 1876POPC   C1B26239  16.177  21.406   8.564
 1876POPC   C2B26240  16.191  21.422   8.264
 1876POPC   C3B26241  16.193  21.397   7.964
 1876POPC   C4B26242  16.193  21.358   7.664
 1877POPC   NC326243   2.036  38.487   9.464
 1877POPC   PO426244   1.942  38.481   9.164
 1877POPC   GL126245   2.015  38.466   8.864
 1877POPC   GL226246   1.935  38.591   8.864
 1877POPC   C1A26247   1.947  38.486   8.564
 1877POPC   D2A26248   2.027  38.465   8.264
 1877POPC   C3A26249   1.995  38.423   7.964
 1877POPC   C4A26250   1.992  38.486   7.664
 1877POPC   C1B26251   1.878  38.651   8.564
 1877POPC   C2B26252   1.878  38.681   8.264
 1877POPC   C3B26253   1.786  38.669   7.964
 1877POPC   C4B26254   1.851  38.698   7.664
 1878POPC   NC326255   7.448   1.199   9.464
 1878POPC   PO426256   7.439   1.176   9.164
 1878POPC   GL126257   7.389   1.230   8.864
 1878POPC   GL226258   7.555   1.203   8.864
 1878POPC   C1A26259   7.424   1.165   8.564
 1878POPC   D2A26260   7.396   1.260   8.264
 1878POPC   C3A26261   7.464   1.212   7.964
 1878POPC   C4A26262   7.378   1.263   7.664
 1878POPC   C1B26263   7.706   1.253   8.564
 1878POPC   C2B26264   7.706   1.268   8.264
 1878POPC   C3B26265   7.657   1.245   7.964
 1878POPC   C4B26266   7.675   1.264   7.664
 1879POPC   NC326267  21.345   0.453   9.464
 1879POPC   PO426268  21.341   0.450   9.164
 1879POPC   GL126269  21.428   0.443   8.864
 1879POPC   GL226270  21.468   0.366   8.864
 1879POPC   C1A26271  21.347   0.460   8.564
 1879POPC   D2A26272  21.403   0.454   8.264
 1879POPC   C3A26273  21.385   0.404   7.964
 1879POPC   C4A26274  21.433   0.450   7.664
 1879POPC   C1B26275  21.525   0.185   8.564
 1879POPC   C2B26276  21.545   0.263   8.264
 1879POPC   C3B26277  21.528   0.212   7.964
 1879POPC   C4B26278  21.469   0.188   7.664
 1880POPC   NC326279  38.448   0.390   9.464
 1880POPC   PO426280  38.490   0.390   9.164
 1880POPC   GL126281  38.461   0.463   8.864
 1880POPC   GL226282  38.606   0.419   8.864
 1880POPC   C1A26283  38.499   0.388   8.564
 1880POPC   D2A26284  38.442   0.428   8.264
 1880POPC   C3A26285  38.422   0.468   7.964
 1880POPC   C4A26286  38.442   0.416   7.664
 1880POPC   C1B26287  38.718   0.422   8.564
 1880POPC   C2B26288  38.672   0.384   8.264
 1880POPC   C3B26289  38.696   0.400   7.964
 1880POPC   C4B26290  38.676   0.397   7.664
 1881POPC   NC326291  37.690  40.745   9.464
 1881POPC   PO426292  37.717  40.762   9.164
 1881POPC   GL126293  37.710  40.796   8.864
 1881POPC   GL226294  37.669  40.949   8.864
 1881POPC   C1A26295  37.651  40.740   8.564
 1881POPC   D2A26296  37.711  40.741   8.264
 1881POPC   C3A26297  37.661  40.746   7.964
 1881POPC   C4A26298  37.655  40.758   7.664
 1881POPC   C1B26299  37.695  41.060   8.564
 1881POPC   C2B26300  37.674  41.026   8.264
 1881POPC   C3B26301  37.698  41.063   7.964
 1881POPC   C4B26302  37.659  40.985   7.664
 1882POPC   NC326303  19.107  39.212   9.464
 1882POPC   PO426304  19.035  39.221   9.164
 1882POPC   GL126305  19.097  39.185   8.864
 1882POPC   GL226306  19.118  39.133   8.864
 1882POPC   C1A26307  19.101  39.220   8.564
 1882POPC   D2A26308  19.057  39.242   8.264
 1882POPC   C3A26309  19.051  39.264   7.964
 1882POPC   C4A26310  19.025  39.200   7.664
 1882POPC   C1B26311  19.226  39.005   8.564
 1882POPC   C2B26312  19.223  39.079   8.264
 1882POPC   C3B26313  19.159  39.080   7.964
 1882POPC   C4B26314  19.166  39.020   7.664
 1883POPC   NC326315  12.123  11.316   9.464
 1883POPC   PO426316  12.109  11.282   9.164
 1883POPC   GL126317  12.121  11.281   8.864
 1883POPC   GL226318  11.994  11.456   8.864
 1883POPC   C1A26319  12.042  11.286   8.564
 1883POPC   D2A26320  12.093  11.291   8.264
 1883POPC   C3A26321  12.074  11.274   7.964
 1883POPC   C4A26322  12.078  11.268   7.664
 1883POPC   C1B26323  11.970  11.524   8.564
 1883POPC   C2B26324  11.975  11.496   8.264
 1883POPC   C3B26325  11.896  11.559   7.964
 1883POPC   C4B26326  11.932  11.502   7.664
 1884POPC   NC326327  28.406  26.792   9.464
 1884POPC   PO426328  28.337  26.855   9.164
 1884POPC   GL126329  28.335  26.793   8.864
 1884POPC   GL226330  28.488  26.775   8.864
 1884POPC   C1A26331  28.388  26.768   8.564
 1884POPC   D2A26332  28.332  26.848   8.264
 1884POPC   C3A26333  28.322  26.825   7.964
 1884POPC   C4A26334  28.326  26.836   7.664
 1884POPC   C1B26335  28.579  26.647   8.564
 1884POPC   C2B26336  28.553  26.680   8.264
 1884POPC   C3B26337  28.575  26.648   7.964
 1884POPC   C4B26338  28.602  26.714   7.664
 1885POPC   NC326339  33.801  36.165   9.464
 1885POPC   PO426340  33.782  36.161   9.164
 1885POPC   GL126341  33.766  36.142   8.864
 1885POPC   GL226342  33.767  36.238   8.864
 1885POPC   C1A26343  33.771  36.087   8.564
 1885POPC   D2A26344  33.842  36.079   8.264
 1885POPC   C3A26345  33.800  36.138   7.964
 1885POPC   C4A26346  33.780  36.101   7.664
 1885POPC   C1B26347  33.732  36.364   8.564
 1885POPC   C2B26348  33.817  36.387   8.264
 1885POPC   C3B26349  33.742  36.348   7.964
 1885POPC   C4B26350  33.766  36.392   7.664
 1886POPC   NC326351  31.436  17.502   9.464
 1886POPC   PO426352  31.461  17.521   9.164
 1886POPC   GL126353  31.427  17.487   8.864
 1886POPC   GL226354  31.444  17.609   8.864
 1886POPC   C1A26355  31.453  17.496   8.564
 1886POPC   D2A26356  31.458  17.515   8.264
 1886POPC   C3A26357  31.521  17.459   7.964
 1886POPC   C4A26358  31.519  17.482   7.664
 1886POPC   C1B26359  31.339  17.744   8.564
 1886POPC   C2B26360  31.311  17.742   8.264
 1886POPC   C3B26361  31.385  17.746   7.964
 1886POPC   C4B26362  31.343  17.740   7.664
 1887POPC   NC326363  42.317   6.625   9.464
 1887POPC   PO426364  42.323   6.601   9.164
 1887POPC   GL126365  42.299   6.650   8.864
 1887POPC   GL226366  42.286   6.798   8.864
 1887POPC   C1A26367  42.291   6.648   8.564
 1887POPC   D2A26368  42.334   6.650   8.264
 1887POPC   C3A26369  42.309   6.671   7.964
 1887POPC   C4A26370  42.330   6.636   7.664
 1887POPC   C1B26371  42.195   6.881   8.564
 1887POPC   C2B26372  42.263   6.877   8.264
 1887POPC   C3B26373  42.206   6.854   7.964
 1887POPC   C4B26374  42.204   6.858   7.664
 1888POPC   NC326375  43.870   6.679   9.464
 1888POPC   PO426376  43.844   6.637   9.164
 1888POPC   GL126377  43.863   6.685   8.864
 1888POPC   GL226378  44.003   6.749   8.864
 1888POPC   C1A26379  43.862   6.662   8.564
 1888POPC   D2A26380  43.891   6.666   8.264
 1888POPC   C3A26381  43.841   6.692   7.964
 1888POPC   C4A26382  43.864   6.648   7.664
 1888POPC   C1B26383  44.086   6.840   8.564
 1888POPC   C2B26384  44.050   6.838   8.264
 1888POPC   C3B26385  44.040   6.824   7.964
 1888POPC   C4B26386  44.086   6.851   7.664
 1889POPC   NC326387  22.916  24.525   9.464
 1889POPC   PO426388  22.914  24.539   9.164
 1889POPC   GL126389  22.928  24.480   8.864
 1889POPC   GL226390  22.819  24.454   8.864
 1889POPC   C1A26391  22.942  24.512   8.564
 1889POPC   D2A26392  22.947  24.506   8.264
 1889POPC   C3A26393  22.978  24.497   7.964
 1889POPC   C4A26394  22.971  24.489   7.664
 1889POPC   C1B26395  22.701  24.300   8.564
 1889POPC   C2B26396  22.709  24.319   8.264
 1889POPC   C3B26397  22.705  24.334   7.964
 1889POPC   C4B26398  22.725  24.283   7.664
 1890POPC   NC326399   5.051  22.920   9.464
 1890POPC   PO426400   5.076  22.969   9.164
 1890POPC   GL126401   5.052  22.896   8.864
 1890POPC   GL226402   5.066  22.780   8.864
 1890POPC   C1A26403   5.060  22.907   8.564
 1890POPC   D2A26404   5.135  22.974   8.264
 1890POPC   C3A26405   5.114  22.943   7.964
 1890POPC   C4A26406   5.097  22.950   7.664
 1890POPC   C1B26407   5.109  22.663   8.564
 1890POPC   C2B26408   5.116  22.716   8.264
 1890POPC   C3B26409   5.098  22.665   7.964
 1890POPC   C4B26410   5.151  22.677   7.664
 1891POPC   NC326411  37.646  44.622   9.464
 1891POPC   PO426412  37.687  44.686   9.164
 1891POPC   GL126413  37.686  44.616   8.864
 1891POPC   GL226414  37.629  44.516   8.864
 1891POPC   C1A26415  37.630  44.697   8.564
 1891POPC   D2A26416  37.715  44.674   8.264
 1891POPC   C3A26417  37.681  44.666   7.964
 1891POPC   C4A26418  37.706  44.699   7.664
 1891POPC   C1B26419  37.650  44.453   8.564
 1891POPC   C2B26420  37.695  44.428   8.264
 1891POPC   C3B26421  37.652  44.395   7.964
 1891POPC   C4B26422  37.680  44.373   7.664
 1892POPC   NC326423  31.495  25.262   9.464
 1892POPC   PO426424  31.426  25.233   9.164
 1892POPC   GL126425  31.470  25.291   8.864
 1892POPC   GL226426  31.476  25.125   8.864
 1892POPC   C1A26427  31.433  25.249   8.564
 1892POPC   D2A26428  31.519  25.258   8.264
 1892POPC   C3A26429  31.433  25.272   7.964
 1892POPC   C4A26430  31.442  25.269   7.664
 1892POPC   C1B26431  31.581  25.053   8.564
 1892POPC   C2B26432  31.606  24.993   8.264
 1892POPC   C3B26433  31.550  24.988   7.964
 1892POPC   C4B26434  31.612  25.052   7.664
 1893POPC   NC326435   6.608  42.312   9.464
 1893POPC   PO426436   6.641  42.355   9.164
 1893POPC   GL126437   6.611  42.335   8.864
 1893POPC   GL226438   6.617  42.449   8.864
 1893POPC   C1A26439   6.604  42.342   8.564
 1893POPC   D2A26440   6.603  42.291   8.264
 1893POPC   C3A26441   6.682  42.330   7.964
 1893POPC   C4A26442   6.657  42.356   7.664
 1893POPC   C1B26443   6.574  42.522   8.564
 1893POPC   C2B26444   6.534  42.591   8.264
 1893POPC   C3B26445   6.609  42.543   7.964
 1893POPC   C4B26446   6.542  42.611   7.664
 1894POPC   NC326447  41.512  33.754   9.464
 1894POPC   PO426448  41.558  33.780   9.164
 1894POPC   GL126449  41.510  33.782   8.864
 1894POPC   GL226450  41.632  33.666   8.864
 1894POPC   C1A26451  41.598  33.778   8.564
 1894POPC   D2A26452  41.560  33.816   8.264
 1894POPC   C3A26453  41.524  33.772   7.964
 1894POPC   C4A26454  41.561  33.820   7.664
 1894POPC   C1B26455  41.697  33.628   8.564
 1894POPC   C2B26456  41.757  33.623   8.264
 1894POPC   C3B26457  41.724  33.595   7.964
 1894POPC   C4B26458  41.694  33.656   7.664
 1895POPC   NC326459  25.264  36.163   9.464
 1895POPC   PO426460  25.218  36.096   9.164
 1895POPC   GL126461  25.247  36.128   8.864
 1895POPC   GL226462  25.315  35.994   8.864
 1895POPC   C1A26463  25.246  36.085   8.564
 1895POPC   D2A26464  25.290  36.132   8.264
 1895POPC   C3A26465  25.229  36.079   7.964
 1895POPC   C4A26466  25.217  36.095   7.664
 1895POPC   C1B26467  25.358  35.884   8.564
 1895POPC   C2B26468  25.310  35.904   8.264
 1895POPC   C3B26469  25.378  35.885   7.964
 1895POPC   C4B26470  25.354  35.939   7.664
 1896POPC   NC326471  13.604  23.736   9.464
 1896POPC   PO426472  13.585  23.699   9.164
 1896POPC   GL126473  13.642  23.723   8.864
 1896POPC   GL226474  13.576  23.878   8.864
 1896POPC   C1A26475  13.640  23.751   8.564
 1896POPC   D2A26476  13.614  23.707   8.264
 1896POPC   C3A26477  13.665  23.673   7.964
 1896POPC   C4A26478  13.652  23.669   7.664
 1896POPC   C1B26479  13.622  23.918   8.564
 1896POPC   C2B26480  13.581  23.917   8.264
 1896POPC   C3B26481  13.629  23.922   7.964
 1896POPC   C4B26482  13.652  23.947   7.664
 1897POPC   NC326483   5.848  18.259   9.464
 1897POPC   PO426484   5.875  18.260   9.164
 1897POPC   GL126485   5.872  18.269   8.864
 1897POPC   GL226486   5.796  18.214   8.864
 1897POPC   C1A26487   5.903  18.256   8.564
 1897POPC   D2A26488   5.912  18.324   8.264
 1897POPC   C3A26489   5.896  18.239   7.964
 1897POPC   C4A26490   5.905  18.254   7.664
 1897POPC   C1B26491   5.751  18.056   8.564
 1897POPC   C2B26492   5.777  18.059   8.264
 1897POPC   C3B26493   5.777  18.050   7.964
 1897POPC   C4B26494   5.705  18.056   7.664
 1898POPC   NC326495  26.049  19.030   9.464
 1898POPC   PO426496  26.073  19.085   9.164
 1898POPC   GL126497  26.073  19.062   8.864
 1898POPC   GL226498  26.181  19.071   8.864
 1898POPC   C1A26499  26.064  19.026   8.564
 1898POPC   D2A26500  26.045  19.100   8.264
 1898POPC   C3A26501  26.025  19.078   7.964
 1898POPC   C4A26502  26.011  19.010   7.664
 1898POPC   C1B26503  26.303  19.060   8.564
 1898POPC   C2B26504  26.284  19.078   8.264
 1898POPC   C3B26505  26.334  19.074   7.964
 1898POPC   C4B26506  26.292  19.126   7.664
 1899POPC   NC326507  27.635  34.562   9.464
 1899POPC   PO426508  27.622  34.587   9.164
 1899POPC   GL126509  27.581  34.592   8.864
 1899POPC   GL226510  27.713  34.623   8.864
 1899POPC   C1A26511  27.604  34.625   8.564
 1899POPC   D2A26512  27.634  34.547   8.264
 1899POPC   C3A26513  27.614  34.587   7.964
 1899POPC   C4A26514  27.620  34.613   7.664
 1899POPC   C1B26515  27.868  34.581   8.564
 1899POPC   C2B26516  27.862  34.555   8.264
 1899POPC   C3B26517  27.795  34.571   7.964
 1899POPC   C4B26518  27.802  34.546   7.664
 1900POPC   NC326519   1.979   5.890   9.464
 1900POPC   PO426520   1.995   5.859   9.164
 1900POPC   GL126521   2.029   5.909   8.864
 1900POPC   GL226522   1.956   5.709   8.864
 1900POPC   C1A26523   2.033   5.866   8.564
 1900POPC   D2A26524   2.026   5.851   8.264
 1900POPC   C3A26525   1.959   5.858   7.964
 1900POPC   C4A26526   1.991   5.892   7.664
 1900POPC   C1B26527   1.960   5.645   8.564
 1900POPC   C2B26528   1.992   5.620   8.264
 1900POPC   C3B26529   1.939   5.581   7.964
 1900POPC   C4B26530   1.973   5.632   7.664
 1901POPC   NC326531  43.076  23.726   9.464
 1901POPC   PO426532  43.110  23.690   9.164
 1901POPC   GL126533  43.100  23.678   8.864
 1901POPC   GL226534  43.044  23.679   8.864
 1901POPC   C1A26535  43.149  23.683   8.564
 1901POPC   D2A26536  43.115  23.714   8.264
 1901POPC   C3A26537  43.064  23.761   7.964
 1901POPC   C4A26538  43.061  23.709   7.664
 1901POPC   C1B26539  42.917  23.579   8.564
 1901POPC   C2B26540  42.931  23.516   8.264
 1901POPC   C3B26541  42.968  23.503   7.964
 1901POPC   C4B26542  42.917  23.561   7.664
 1902POPC   NC326543   2.794  43.083   9.464
 1902POPC   PO426544   2.785  43.140   9.164
 1902POPC   GL126545   2.790  43.105   8.864
 1902POPC   GL226546   2.791  43.265   8.864
 1902POPC   C1A26547   2.791  43.131   8.564
 1902POPC   D2A26548   2.781  43.080   8.264
 1902POPC   C3A26549   2.740  43.083   7.964
 1902POPC   C4A26550   2.741  43.083   7.664
 1902POPC   C1B26551   2.834  43.290   8.564
 1902POPC   C2B26552   2.866  43.337   8.264
 1902POPC   C3B26553   2.840  43.367   7.964
 1902POPC   C4B26554   2.867  43.324   7.664
 1903POPC   NC326555  26.012   0.470   9.464
 1903POPC   PO426556  26.016   0.427   9.164
 1903POPC   GL126557  26.022   0.475   8.864
 1903POPC   GL226558  25.961   0.301   8.864
 1903POPC   C1A26559  26.076   0.449   8.564
 1903POPC   D2A26560  25.994   0.476   8.264
 1903POPC   C3A26561  26.033   0.449   7.964
 1903POPC   C4A26562  26.067   0.431   7.664
 1903POPC   C1B26563  25.998   0.188   8.564
 1903POPC   C2B26564  25.927   0.212   8.264
 1903POPC   C3B26565  25.926   0.192   7.964
 1903POPC   C4B26566  25.926   0.202   7.664
 1904POPC   NC326567  38.498  27.619   9.464
 1904POPC   PO426568  38.469  27.618   9.164
 1904POPC   GL126569  38.487  27.555   8.864
 1904POPC   GL226570  38.535  27.521   8.864
 1904POPC   C1A26571  38.462  27.577   8.564
 1904POPC   D2A26572  38.503  27.609   8.264
 1904POPC   C3A26573  38.419  27.613   7.964
 1904POPC   C4A26574  38.437  27.590   7.664
 1904POPC   C1B26575  38.604  27.412   8.564
 1904POPC   C2B26576  38.643  27.414   8.264
 1904POPC   C3B26577  38.623  27.404   7.964
 1904POPC   C4B26578  38.598  27.371   7.664
 1905POPC   NC326579  15.958  12.072   9.464
 1905POPC   PO426580  15.929  12.035   9.164
 1905POPC   GL126581  15.924  12.088   8.864
 1905POPC   GL226582  15.985  12.212   8.864
 1905POPC   C1A26583  15.951  12.037   8.564
 1905POPC   D2A26584  15.959  12.068   8.264
 1905POPC   C3A26585  15.911  12.067   7.964
 1905POPC   C4A26586  15.987  12.107   7.664
 1905POPC   C1B26587  16.067  12.290   8.564
 1905POPC   C2B26588  16.110  12.276   8.264
 1905POPC   C3B26589  16.098  12.314   7.964
 1905POPC   C4B26590  16.137  12.260   7.664
 1906POPC   NC326591  25.219  17.474   9.464
 1906POPC   PO426592  25.296  17.554   9.164
 1906POPC   GL126593  25.221  17.482   8.864
 1906POPC   GL226594  25.121  17.591   8.864
 1906POPC   C1A26595  25.265  17.525   8.564
 1906POPC   D2A26596  25.288  17.544   8.264
 1906POPC   C3A26597  25.217  17.503   7.964
 1906POPC   C4A26598  25.224  17.508   7.664
 1906POPC   C1B26599  25.009  17.593   8.564
 1906POPC   C2B26600  25.022  17.624   8.264
 1906POPC   C3B26601  25.013  17.591   7.964
 1906POPC   C4B26602  25.001  17.572   7.664
 1907POPC   NC326603   1.996  31.433   9.464
 1907POPC   PO426604   1.997  31.472   9.164
 1907POPC   GL126605   2.024  31.441   8.864
 1907POPC   GL226606   1.870  31.436   8.864
 1907POPC   C1A26607   1.976  31.465   8.564
 1907POPC   D2A26608   1.942  31.441   8.264
 1907POPC   C3A26609   1.976  31.424   7.964
 1907POPC   C4A26610   1.988  31.508   7.664
 1907POPC   C1B26611   1.772  31.454   8.564
 1907POPC   C2B26612   1.720  31.496   8.264
 1907POPC   C3B26613   1.789  31.465   7.964
 1907POPC   C4B26614   1.721  31.508   7.664
 1908POPC   NC326615   5.868   5.065   9.464
 1908POPC   PO426616   5.832   5.121   9.164
 1908POPC   GL126617   5.871   5.143   8.864
 1908POPC   GL226618   5.882   5.173   8.864
 1908POPC   C1A26619   5.871   5.108   8.564
 1908POPC   D2A26620   5.880   5.050   8.264
 1908POPC   C3A26621   5.860   5.078   7.964
 1908POPC   C4A26622   5.895   5.117   7.664
 1908POPC   C1B26623   6.001   5.348   8.564
 1908POPC   C2B26624   5.963   5.349   8.264
 1908POPC   C3B26625   5.957   5.296   7.964
 1908POPC   C4B26626   5.973   5.336   7.664
 1909POPC   NC326627   3.496  22.207   9.464
 1909POPC   PO426628   3.510  22.144   9.164
 1909POPC   GL126629   3.576  22.156   8.864
 1909POPC   GL226630   3.658  22.096   8.864
 1909POPC   C1A26631   3.572  22.116   8.564
 1909POPC   D2A26632   3.528  22.208   8.264
 1909POPC   C3A26633   3.492  22.156   7.964
 1909POPC   C4A26634   3.549  22.138   7.664
 1909POPC   C1B26635   3.681  22.004   8.564
 1909POPC   C2B26636   3.721  22.012   8.264
 1909POPC   C3B26637   3.743  21.968   7.964
 1909POPC   C4B26638   3.720  21.999   7.664
 1910POPC   NC326639  25.220  13.600   9.464
 1910POPC   PO426640  25.271  13.669   9.164
 1910POPC   GL126641  25.313  13.662   8.864
 1910POPC   GL226642  25.381  13.645   8.864
 1910POPC   C1A26643  25.310  13.601   8.564
 1910POPC   D2A26644  25.275  13.665   8.264
 1910POPC   C3A26645  25.250  13.609   7.964
 1910POPC   C4A26646  25.264  13.668   7.664
 1910POPC   C1B26647  25.534  13.722   8.564
 1910POPC   C2B26648  25.467  13.677   8.264
 1910POPC   C3B26649  25.458  13.735   7.964
 1910POPC   C4B26650  25.472  13.736   7.664
 1911POPC   NC326651  30.673  14.396   9.464
 1911POPC   PO426652  30.701  14.359   9.164
 1911POPC   GL126653  30.741  14.438   8.864
 1911POPC   GL226654  30.727  14.310   8.864
 1911POPC   C1A26655  30.655  14.434   8.564
 1911POPC   D2A26656  30.655  14.381   8.264
 1911POPC   C3A26657  30.714  14.395   7.964
 1911POPC   C4A26658  30.676  14.403   7.664
 1911POPC   C1B26659  30.763  14.117   8.564
 1911POPC   C2B26660  30.742  14.162   8.264
 1911POPC   C3B26661  30.747  14.165   7.964
 1911POPC   C4B26662  30.731  14.189   7.664
 1912POPC   NC326663  13.653  31.495   9.464
 1912POPC   PO426664  13.620  31.519   9.164
 1912POPC   GL126665  13.583  31.520   8.864
 1912POPC   GL226666  13.601  31.621   8.864
 1912POPC   C1A26667  13.597  31.502   8.564
 1912POPC   D2A26668  13.644  31.430   8.264
 1912POPC   C3A26669  13.676  31.513   7.964
 1912POPC   C4A26670  13.601  31.469   7.664
 1912POPC   C1B26671  13.593  31.693   8.564
 1912POPC   C2B26672  13.584  31.712   8.264
 1912POPC   C3B26673  13.641  31.696   7.964
 1912POPC   C4B26674  13.569  31.695   7.664
 1913POPC   NC326675  29.186  17.514   9.464
 1913POPC   PO426676  29.145  17.479   9.164
 1913POPC   GL126677  29.166  17.542   8.864
 1913POPC   GL226678  29.311  17.572   8.864
 1913POPC   C1A26679  29.154  17.505   8.564
 1913POPC   D2A26680  29.187  17.547   8.264
 1913POPC   C3A26681  29.174  17.527   7.964
 1913POPC   C4A26682  29.128  17.529   7.664
 1913POPC   C1B26683  29.428  17.541   8.564
 1913POPC   C2B26684  29.405  17.614   8.264
 1913POPC   C3B26685  29.383  17.563   7.964
 1913POPC   C4B26686  29.364  17.554   7.664
 1914POPC   NC326687  39.996  28.324   9.464
 1914POPC   PO426688  39.980  28.367   9.164
 1914POPC   GL126689  40.042  28.371   8.864
 1914POPC   GL226690  40.007  28.465   8.864
 1914POPC   C1A26691  40.040  28.381   8.564
 1914POPC   D2A26692  40.001  28.403   8.264
 1914POPC   C3A26693  39.984  28.321   7.964
 1914POPC   C4A26694  40.021  28.402   7.664
 1914POPC   C1B26695  40.009  28.617   8.564
 1914POPC   C2B26696  39.954  28.594   8.264
 1914POPC   C3B26697  39.960  28.597   7.964
 1914POPC   C4B26698  39.954  28.569   7.664
 1915POPC   NC326699  23.704  19.062   9.464
 1915POPC   PO426700  23.729  19.074   9.164
 1915POPC   GL126701  23.677  19.093   8.864
 1915POPC   GL226702  23.728  19.141   8.864
 1915POPC   C1A26703  23.664  19.055   8.564
 1915POPC   D2A26704  23.673  19.023   8.264
 1915POPC   C3A26705  23.669  19.015   7.964
 1915POPC   C4A26706  23.684  19.107   7.664
 1915POPC   C1B26707  23.687  19.341   8.564
 1915POPC   C2B26708  23.694  19.305   8.264
 1915POPC   C3B26709  23.751  19.259   7.964
 1915POPC   C4B26710  23.743  19.292   7.664
 1916POPC   NC326711   1.189  25.216   9.464
 1916POPC   PO426712   1.196  25.229   9.164
 1916POPC   GL126713   1.254  25.251   8.864
 1916POPC   GL226714   1.193  25.361   8.864
 1916POPC   C1A26715   1.197  25.236   8.564
 1916POPC   D2A26716   1.212  25.254   8.264
 1916POPC   C3A26717   1.237  25.239   7.964
 1916POPC   C4A26718   1.237  25.289   7.664
 1916POPC   C1B26719   1.082  25.442   8.564
 1916POPC   C2B26720   1.076  25.472   8.264
 1916POPC   C3B26721   1.085  25.501   7.964
 1916POPC   C4B26722   1.106  25.530   7.664
 1917POPC   NC326723   0.418  44.625   9.464
 1917POPC   PO426724   0.408  44.633   9.164
 1917POPC   GL126725   0.474  44.633   8.864
 1917POPC   GL226726   0.419  44.833   8.864
 1917POPC   C1A26727   0.424  44.634   8.564
 1917POPC   D2A26728   0.404  44.639   8.264
 1917POPC   C3A26729   0.407  44.690   7.964
 1917POPC   C4A26730   0.467  44.641   7.664
 1917POPC   C1B26731   0.377  44.886   8.564
 1917POPC   C2B26732   0.419  44.882   8.264
 1917POPC   C3B26733   0.391  44.915   7.964
 1917POPC   C4B26734   0.427  44.873   7.664
 1918POPC   NC326735   8.164  37.680   9.464
 1918POPC   PO426736   8.196  37.631   9.164
 1918POPC   GL126737   8.210  37.701   8.864
 1918POPC   GL226738   8.270  37.605   8.864
 1918POPC   C1A26739   8.190  37.670   8.564
 1918POPC   D2A26740   8.174  37.698   8.264
 1918POPC   C3A26741   8.188  37.698   7.964
 1918POPC   C4A26742   8.173  37.668   7.664
 1918POPC   C1B26743   8.339  37.510   8.564
 1918POPC   C2B26744   8.328  37.528   8.264
 1918POPC   C3B26745   8.363  37.441   7.964
 1918POPC   C4B26746   8.334  37.492   7.664
 1919POPC   NC326747  11.313  37.704   9.464
 1919POPC   PO426748  11.324  37.631   9.164
 1919POPC   GL126749  11.278  37.668   8.864
 1919POPC   GL226750  11.405  37.659   8.864
 1919POPC   C1A26751  11.278  37.647   8.564
 1919POPC   D2A26752  11.289  37.703   8.264
 1919POPC   C3A26753  11.255  37.687   7.964
 1919POPC   C4A26754  11.344  37.656   7.664
 1919POPC   C1B26755  11.534  37.614   8.564
 1919POPC   C2B26756  11.555  37.626   8.264
 1919POPC   C3B26757  11.580  37.665   7.964
 1919POPC   C4B26758  11.521  37.629   7.664
 1920POPC   NC326759  25.223  24.460   9.464
 1920POPC   PO426760  25.250  24.447   9.164
 1920POPC   GL126761  25.225  24.440   8.864
 1920POPC   GL226762  25.185  24.515   8.864
 1920POPC   C1A26763  25.230  24.497   8.564
 1920POPC   D2A26764  25.313  24.491   8.264
 1920POPC   C3A26765  25.276  24.538   7.964
 1920POPC   C4A26766  25.256  24.525   7.664
 1920POPC   C1B26767  25.055  24.570   8.564
 1920POPC   C2B26768  25.051  24.512   8.264
 1920POPC   C3B26769  25.049  24.491   7.964
 1920POPC   C4B26770  24.973  24.553   7.664
 1921POPC   NC326771  36.150  37.720   9.464
 1921POPC   PO426772  36.100  37.650   9.164
 1921POPC   GL126773  36.122  37.653   8.864
 1921POPC   GL226774  35.961  37.690   8.864
 1921POPC   C1A26775  36.152  37.654   8.564
 1921POPC   D2A26776  36.154  37.633   8.264
 1921POPC   C3A26777  36.177  37.712   7.964
 1921POPC   C4A26778  36.113  37.704   7.664
 1921POPC   C1B26779  35.887  37.723   8.564
 1921POPC   C2B26780  35.871  37.661   8.264
 1921POPC   C3B26781  35.925  37.704   7.964
 1921POPC   C4B26782  35.836  37.666   7.664
 1922POPC   NC326783  28.330   9.008   9.464
 1922POPC   PO426784  28.374   9.021   9.164
 1922POPC   GL126785  28.383   9.010   8.864
 1922POPC   GL226786  28.512   9.054   8.864
 1922POPC   C1A26787  28.406   8.985   8.564
 1922POPC   D2A26788  28.370   8.940   8.264
 1922POPC   C3A26789  28.352   8.991   7.964
 1922POPC   C4A26790  28.395   8.937   7.664
 1922POPC   C1B26791  28.571   9.172   8.564
 1922POPC   C2B26792  28.549   9.149   8.264
 1922POPC   C3B26793  28.562   9.184   7.964
 1922POPC   C4B26794  28.593   9.098   7.664
 1923POPC   NC326795  39.191  12.895   9.464
 1923POPC   PO426796  39.235  12.812   9.164
 1923POPC   GL126797  39.258  12.843   8.864
 1923POPC   GL226798  39.259  13.010   8.864
 1923POPC   C1A26799  39.191  12.871   8.564
 1923POPC   D2A26800  39.222  12.896   8.264
 1923POPC   C3A26801  39.189  12.875   7.964
 1923POPC   C4A26802  39.242  12.879   7.664
 1923POPC   C1B26803  39.274  13.092   8.564
 1923POPC   C2B26804  39.301  13.083   8.264
 1923POPC   C3B26805  39.264  13.135   7.964
 1923POPC   C4B26806  39.290  13.097   7.664
 1924POPC   NC326807   1.990   8.203   9.464
 1924POPC   PO426808   1.951   8.178   9.164
 1924POPC   GL126809   2.040   8.175   8.864
 1924POPC   GL226810   1.913   8.082   8.864
 1924POPC   C1A26811   2.018   8.223   8.564
 1924POPC   D2A26812   2.004   8.179   8.264
 1924POPC   C3A26813   2.020   8.223   7.964
 1924POPC   C4A26814   2.026   8.237   7.664
 1924POPC   C1B26815   1.777   8.014   8.564
 1924POPC   C2B26816   1.820   7.990   8.264
 1924POPC   C3B26817   1.773   8.024   7.964
 1924POPC   C4B26818   1.865   8.046   7.664
 1925POPC   NC326819   3.591  22.905   9.464
 1925POPC   PO426820   3.494  22.912   9.164
 1925POPC   GL126821   3.543  22.940   8.864
 1925POPC   GL226822   3.594  23.040   8.864
 1925POPC   C1A26823   3.509  22.976   8.564
 1925POPC   D2A26824   3.572  22.962   8.264
 1925POPC   C3A26825   3.545  22.973   7.964
 1925POPC   C4A26826   3.551  22.975   7.664
 1925POPC   C1B26827   3.643  23.145   8.564
 1925POPC   C2B26828   3.636  23.159   8.264
 1925POPC   C3B26829   3.654  23.193   7.964
 1925POPC   C4B26830   3.683  23.196   7.664
 1926POPC   NC326831  20.598  18.305   9.464
 1926POPC   PO426832  20.609  18.266   9.164
 1926POPC   GL126833  20.643  18.240   8.864
 1926POPC   GL226834  20.530  18.280   8.864
 1926POPC   C1A26835  20.643  18.305   8.564
 1926POPC   D2A26836  20.579  18.312   8.264
 1926POPC   C3A26837  20.576  18.290   7.964
 1926POPC   C4A26838  20.589  18.254   7.664
 1926POPC   C1B26839  20.331  18.160   8.564
 1926POPC   C2B26840  20.356  18.177   8.264
 1926POPC   C3B26841  20.382  18.144   7.964
 1926POPC   C4B26842  20.407  18.194   7.664
 1927POPC   NC326843   0.480  16.754   9.464
 1927POPC   PO426844   0.401  16.709   9.164
 1927POPC   GL126845   0.450  16.723   8.864
 1927POPC   GL226846   0.339  16.818   8.864
 1927POPC   C1A26847   0.461  16.747   8.564
 1927POPC   D2A26848   0.455  16.715   8.264
 1927POPC   C3A26849   0.486  16.700   7.964
 1927POPC   C4A26850   0.415  16.687   7.664
 1927POPC   C1B26851   0.296  16.977   8.564
 1927POPC   C2B26852   0.322  16.979   8.264
 1927POPC   C3B26853   0.352  16.959   7.964
 1927POPC   C4B26854   0.332  16.950   7.664
 1928POPC   NC326855  39.190   7.385   9.464
 1928POPC   PO426856  39.242   7.379   9.164
 1928POPC   GL126857  39.266   7.439   8.864
 1928POPC   GL226858  39.247   7.508   8.864
 1928POPC   C1A26859  39.235   7.431   8.564
 1928POPC   D2A26860  39.266   7.467   8.264
 1928POPC   C3A26861  39.264   7.419   7.964
 1928POPC   C4A26862  39.272   7.377   7.664
 1928POPC   C1B26863  39.179   7.650   8.564
 1928POPC   C2B26864  39.170   7.695   8.264
 1928POPC   C3B26865  39.213   7.697   7.964
 1928POPC   C4B26866  39.132   7.623   7.664
 1929POPC   NC326867  40.735  11.306   9.464
 1929POPC   PO426868  40.741  11.346   9.164
 1929POPC   GL126869  40.804  11.274   8.864
 1929POPC   GL226870  40.860  11.457   8.864
 1929POPC   C1A26871  40.782  11.272   8.564
 1929POPC   D2A26872  40.745  11.325   8.264
 1929POPC   C3A26873  40.775  11.253   7.964
 1929POPC   C4A26874  40.773  11.332   7.664
 1929POPC   C1B26875  40.857  11.525   8.564
 1929POPC   C2B26876  40.833  11.489   8.264
 1929POPC   C3B26877  40.901  11.527   7.964
 1929POPC   C4B26878  40.848  11.519   7.664
 1930POPC   NC326879  39.195  38.471   9.464
 1930POPC   PO426880  39.279  38.493   9.164
 1930POPC   GL126881  39.206  38.442   8.864
 1930POPC   GL226882  39.163  38.618   8.864
 1930POPC   C1A26883  39.202  38.414   8.564
 1930POPC   D2A26884  39.204  38.413   8.264
 1930POPC   C3A26885  39.221  38.454   7.964
 1930POPC   C4A26886  39.192  38.445   7.664
 1930POPC   C1B26887  39.196  38.676   8.564
 1930POPC   C2B26888  39.173  38.691   8.264
 1930POPC   C3B26889  39.177  38.739   7.964
 1930POPC   C4B26890  39.153  38.736   7.664
 1931POPC   NC326891   9.770  39.993   9.464
 1931POPC   PO426892   9.777  40.033   9.164
 1931POPC   GL126893   9.721  40.025   8.864
 1931POPC   GL226894   9.868  39.994   8.864
 1931POPC   C1A26895   9.732  39.966   8.564
 1931POPC   D2A26896   9.742  40.018   8.264
 1931POPC   C3A26897   9.755  40.028   7.964
 1931POPC   C4A26898   9.703  40.006   7.664
 1931POPC   C1B26899  10.010  39.944   8.564
 1931POPC   C2B26900   9.953  40.034   8.264
 1931POPC   C3B26901  10.003  39.958   7.964
 1931POPC   C4B26902   9.949  40.012   7.664
 1932POPC   NC326903  26.016   6.633   9.464
 1932POPC   PO426904  26.060   6.671   9.164
 1932POPC   GL126905  26.012   6.674   8.864
 1932POPC   GL226906  26.011   6.773   8.864
 1932POPC   C1A26907  25.994   6.665   8.564
 1932POPC   D2A26908  26.011   6.668   8.264
 1932POPC   C3A26909  26.052   6.691   7.964
 1932POPC   C4A26910  26.066   6.639   7.664
 1932POPC   C1B26911  25.884   6.890   8.564
 1932POPC   C2B26912  25.890   6.895   8.264
 1932POPC   C3B26913  25.878   6.870   7.964
 1932POPC   C4B26914  25.906   6.871   7.664
 1933POPC   NC326915   6.621  18.320   9.464
 1933POPC   PO426916   6.616  18.240   9.164
 1933POPC   GL126917   6.642  18.317   8.864
 1933POPC   GL226918   6.758  18.274   8.864
 1933POPC   C1A26919   6.622  18.254   8.564
 1933POPC   D2A26920   6.680  18.249   8.264
 1933POPC   C3A26921   6.621  18.255   7.964
 1933POPC   C4A26922   6.623  18.243   7.664
 1933POPC   C1B26923   6.916  18.277   8.564
 1933POPC   C2B26924   6.938  18.290   8.264
 1933POPC   C3B26925   6.864  18.294   7.964
 1933POPC   C4B26926   6.898  18.312   7.664
 1934POPC   NC326927  33.837   5.893   9.464
 1934POPC   PO426928  33.799   5.822   9.164
 1934POPC   GL126929  33.841   5.821   8.864
 1934POPC   GL226930  33.746   5.733   8.864
 1934POPC   C1A26931  33.824   5.870   8.564
 1934POPC   D2A26932  33.822   5.859   8.264
 1934POPC   C3A26933  33.821   5.880   7.964
 1934POPC   C4A26934  33.783   5.832   7.664
 1934POPC   C1B26935  33.759   5.613   8.564
 1934POPC   C2B26936  33.705   5.625   8.264
 1934POPC   C3B26937  33.752   5.642   7.964
 1934POPC   C4B26938  33.767   5.663   7.664
 1935POPC   NC326939  11.278  25.245   9.464
 1935POPC   PO426940  11.332  25.311   9.164
 1935POPC   GL126941  11.281  25.307   8.864
 1935POPC   GL226942  11.396  25.190   8.864
 1935POPC   C1A26943  11.314  25.271   8.564
 1935POPC   D2A26944  11.302  25.245   8.264
 1935POPC   C3A26945  11.279  25.256   7.964
 1935POPC   C4A26946  11.312  25.283   7.664
 1935POPC   C1B26947  11.487  25.135   8.564
 1935POPC   C2B26948  11.482  25.077   8.264
 1935POPC   C3B26949  11.466  25.144   7.964
 1935POPC   C4B26950  11.515  25.086   7.664
 1936POPC   NC326951  15.927  22.152   9.464
 1936POPC   PO426952  15.992  22.125   9.164
 1936POPC   GL126953  15.968  22.126   8.864
 1936POPC   GL226954  16.046  22.108   8.864
 1936POPC   C1A26955  16.005  22.209   8.564
 1936POPC   D2A26956  15.924  22.133   8.264
 1936POPC   C3A26957  15.993  22.129   7.964
 1936POPC   C4A26958  15.988  22.113   7.664
 1936POPC   C1B26959  16.149  22.051   8.564
 1936POPC   C2B26960  16.216  22.044   8.264
 1936POPC   C3B26961  16.204  22.012   7.964
 1936POPC   C4B26962  16.182  22.040   7.664
 1937POPC   NC326963   0.486  12.846   9.464
 1937POPC   PO426964   0.412  12.840   9.164
 1937POPC   GL126965   0.429  12.853   8.864
 1937POPC   GL226966   0.408  13.014   8.864
 1937POPC   C1A26967   0.477  12.894   8.564
 1937POPC   D2A26968   0.392  12.841   8.264
 1937POPC   C3A26969   0.453  12.829   7.964
 1937POPC   C4A26970   0.441  12.872   7.664
 1937POPC   C1B26971   0.376  13.128   8.564
 1937POPC   C2B26972   0.336  13.072   8.264
 1937POPC   C3B26973   0.359  13.103   7.964
 1937POPC   C4B26974   0.361  13.103   7.664
 1938POPC   NC326975  31.460  35.354   9.464
 1938POPC   PO426976  31.427  35.312   9.164
 1938POPC   GL126977  31.425  35.319   8.864
 1938POPC   GL226978  31.357  35.387   8.864
 1938POPC   C1A26979  31.445  35.338   8.564
 1938POPC   D2A26980  31.506  35.344   8.264
 1938POPC   C3A26981  31.448  35.376   7.964
 1938POPC   C4A26982  31.477  35.311   7.664
 1938POPC   C1B26983  31.195  35.401   8.564
 1938POPC   C2B26984  31.198  35.432   8.264
 1938POPC   C3B26985  31.240  35.441   7.964
 1938POPC   C4B26986  31.182  35.419   7.664
 1939POPC   NC326987   5.058   2.789   9.464
 1939POPC   PO426988   5.126   2.775   9.164
 1939POPC   GL126989   5.102   2.801   8.864
 1939POPC   GL226990   5.258   2.700   8.864
 1939POPC   C1A26991   5.058   2.763   8.564
 1939POPC   D2A26992   5.045   2.787   8.264
 1939POPC   C3A26993   5.086   2.751   7.964
 1939POPC   C4A26994   5.142   2.798   7.664
 1939POPC   C1B26995   5.313   2.711   8.564
 1939POPC   C2B26996   5.346   2.711   8.264
 1939POPC   C3B26997   5.351   2.708   7.964
 1939POPC   C4B26998   5.340   2.701   7.664
 1940POPC   NC326999  25.230  27.545   9.464
 1940POPC   PO427000  25.234  27.586   9.164
 1940POPC   GL127001  25.286  27.564   8.864
 1940POPC   GL227002  25.273  27.745   8.864
 1940POPC   C1A27003  25.243  27.553   8.564
 1940POPC   D2A27004  25.307  27.633   8.264
 1940POPC   C3A27005  25.253  27.639   7.964
 1940POPC   C4A27006  25.234  27.641   7.664
 1940POPC   C1B27007  25.412  27.810   8.564
 1940POPC   C2B27008  25.326  27.858   8.264
 1940POPC   C3B27009  25.411  27.789   7.964
 1940POPC   C4B27010  25.329  27.859   7.664
 1941POPC   NC327011  10.523  12.060   9.464
 1941POPC   PO427012  10.535  12.088   9.164
 1941POPC   GL127013  10.548  12.047   8.864
 1941POPC   GL227014  10.378  12.110   8.864
 1941POPC   C1A27015  10.547  12.096   8.564
 1941POPC   D2A27016  10.570  12.125   8.264
 1941POPC   C3A27017  10.544  12.051   7.964
 1941POPC   C4A27018  10.503  12.082   7.664
 1941POPC   C1B27019  10.273  12.182   8.564
 1941POPC   C2B27020  10.292  12.186   8.264
 1941POPC   C3B27021  10.306  12.116   7.964
 1941POPC   C4B27022  10.324  12.118   7.664
 1942POPC   NC327023  16.725  31.478   9.464
 1942POPC   PO427024  16.698  31.483   9.164
 1942POPC   GL127025  16.772  31.469   8.864
 1942POPC   GL227026  16.583  31.438   8.864
 1942POPC   C1A27027  16.706  31.504   8.564
 1942POPC   D2A27028  16.697  31.478   8.264
 1942POPC   C3A27029  16.700  31.469   7.964
 1942POPC   C4A27030  16.741  31.509   7.664
 1942POPC   C1B27031  16.510  31.345   8.564
 1942POPC   C2B27032  16.526  31.392   8.264
 1942POPC   C3B27033  16.541  31.410   7.964
 1942POPC   C4B27034  16.511  31.360   7.664
 1943POPC   NC327035  36.875  38.452   9.464
 1943POPC   PO427036  36.888  38.410   9.164
 1943POPC   GL127037  36.896  38.435   8.864
 1943POPC   GL227038  36.868  38.330   8.864
 1943POPC   C1A27039  36.933  38.446   8.564
 1943POPC   D2A27040  36.945  38.438   8.264
 1943POPC   C3A27041  36.866  38.405   7.964
 1943POPC   C4A27042  36.857  38.448   7.664
 1943POPC   C1B27043  36.940  38.203   8.564
 1943POPC   C2B27044  36.963  38.252   8.264
 1943POPC   C3B27045  36.900  38.190   7.964
 1943POPC   C4B27046  36.923  38.244   7.664
 1944POPC   NC327047  41.550  31.501   9.464
 1944POPC   PO427048  41.533  31.510   9.164
 1944POPC   GL127049  41.523  31.471   8.864
 1944POPC   GL227050  41.637  31.440   8.864
 1944POPC   C1A27051  41.524  31.423   8.564
 1944POPC   D2A27052  41.584  31.506   8.264
 1944POPC   C3A27053  41.593  31.426   7.964
 1944POPC   C4A27054  41.600  31.424   7.664
 1944POPC   C1B27055  41.775  31.375   8.564
 1944POPC   C2B27056  41.802  31.359   8.264
 1944POPC   C3B27057  41.750  31.346   7.964
 1944POPC   C4B27058  41.728  31.388   7.664
 1945POPC   NC327059  23.724  39.983   9.464
 1945POPC   PO427060  23.677  39.976   9.164
 1945POPC   GL127061  23.755  40.053   8.864
 1945POPC   GL227062  23.562  40.025   8.864
 1945POPC   C1A27063  23.677  39.961   8.564
 1945POPC   D2A27064  23.709  40.025   8.264
 1945POPC   C3A27065  23.693  39.967   7.964
 1945POPC   C4A27066  23.683  40.008   7.664
 1945POPC   C1B27067  23.440  39.942   8.564
 1945POPC   C2B27068  23.455  39.965   8.264
 1945POPC   C3B27069  23.474  39.940   7.964
 1945POPC   C4B27070  23.459  39.961   7.664
 1946POPC   NC327071  40.793  15.181   9.464
 1946POPC   PO427072  40.752  15.151   9.164
 1946POPC   GL127073  40.746  15.157   8.864
 1946POPC   GL227074  40.777  15.062   8.864
 1946POPC   C1A27075  40.806  15.211   8.564
 1946POPC   D2A27076  40.755  15.201   8.264
 1946POPC   C3A27077  40.816  15.146   7.964
 1946POPC   C4A27078  40.763  15.161   7.664
 1946POPC   C1B27079  40.858  14.975   8.564
 1946POPC   C2B27080  40.873  14.957   8.264
 1946POPC   C3B27081  40.853  14.961   7.964
 1946POPC   C4B27082  40.875  14.971   7.664
 1947POPC   NC327083  14.364  38.445   9.464
 1947POPC   PO427084  14.401  38.496   9.164
 1947POPC   GL127085  14.404  38.420   8.864
 1947POPC   GL227086  14.428  38.327   8.864
 1947POPC   C1A27087  14.424  38.440   8.564
 1947POPC   D2A27088  14.434  38.448   8.264
 1947POPC   C3A27089  14.440  38.414   7.964
 1947POPC   C4A27090  14.416  38.504   7.664
 1947POPC   C1B27091  14.304  38.241   8.564
 1947POPC   C2B27092  14.365  38.252   8.264
 1947POPC   C3B27093  14.360  38.210   7.964
 1947POPC   C4B27094  14.324  38.170   7.664
 1948POPC   NC327095   2.778  36.087   9.464
 1948POPC   PO427096   2.770  36.110   9.164
 1948POPC   GL127097   2.773  36.114   8.864
 1948POPC   GL227098   2.861  36.139   8.864
 1948POPC   C1A27099   2.802  36.088   8.564
 1948POPC   D2A27100   2.741  36.168   8.264
 1948POPC   C3A27101   2.740  36.085   7.964
 1948POPC   C4A27102   2.739  36.164   7.664
 1948POPC   C1B27103   3.034  36.231   8.564
 1948POPC   C2B27104   2.959  36.239   8.264
 1948POPC   C3B27105   3.032  36.262   7.964
 1948POPC   C4B27106   2.970  36.220   7.664
 1949POPC   NC327107   5.866  41.603   9.464
 1949POPC   PO427108   5.888  41.524   9.164
 1949POPC   GL127109   5.828  41.521   8.864
 1949POPC   GL227110   5.820  41.431   8.864
 1949POPC   C1A27111   5.844  41.544   8.564
 1949POPC   D2A27112   5.821  41.585   8.264
 1949POPC   C3A27113   5.874  41.517   7.964
 1949POPC   C4A27114   5.851  41.576   7.664
 1949POPC   C1B27115   5.760  41.326   8.564
 1949POPC   C2B27116   5.677  41.309   8.264
 1949POPC   C3B27117   5.724  41.340   7.964
 1949POPC   C4B27118   5.748  41.328   7.664
 1950POPC   NC327119  40.760  29.182   9.464
 1950POPC   PO427120  40.782  29.178   9.164
 1950POPC   GL127121  40.793  29.126   8.864
 1950POPC   GL227122  40.897  29.121   8.864
 1950POPC   C1A27123  40.791  29.164   8.564
 1950POPC   D2A27124  40.758  29.168   8.264
 1950POPC   C3A27125  40.792  29.186   7.964
 1950POPC   C4A27126  40.765  29.182   7.664
 1950POPC   C1B27127  41.027  29.021   8.564
 1950POPC   C2B27128  40.965  29.072   8.264
 1950POPC   C3B27129  40.994  29.013   7.964
 1950POPC   C4B27130  41.037  29.003   7.664
 1951POPC   NC327131  13.645  22.964   9.464
 1951POPC   PO427132  13.677  22.926   9.164
 1951POPC   GL127133  13.604  22.917   8.864
 1951POPC   GL227134  13.712  23.055   8.864
 1951POPC   C1A27135  13.595  22.914   8.564
 1951POPC   D2A27136  13.618  22.923   8.264
 1951POPC   C3A27137  13.597  22.974   7.964
 1951POPC   C4A27138  13.631  22.984   7.664
 1951POPC   C1B27139  13.779  23.135   8.564
 1951POPC   C2B27140  13.766  23.207   8.264
 1951POPC   C3B27141  13.696  23.115   7.964
 1951POPC   C4B27142  13.773  23.129   7.664
 1952POPC   NC327143  17.537   6.608   9.464
 1952POPC   PO427144  17.458   6.644   9.164
 1952POPC   GL127145  17.505   6.627   8.864
 1952POPC   GL227146  17.370   6.619   8.864
 1952POPC   C1A27147  17.488   6.669   8.564
 1952POPC   D2A27148  17.518   6.635   8.264
 1952POPC   C3A27149  17.532   6.669   7.964
 1952POPC   C4A27150  17.546   6.680   7.664
 1952POPC   C1B27151  17.293   6.544   8.564
 1952POPC   C2B27152  17.319   6.542   8.264
 1952POPC   C3B27153  17.274   6.496   7.964
 1952POPC   C4B27154  17.300   6.479   7.664
 1953POPC   NC327155  10.525   5.881   9.464
 1953POPC   PO427156  10.556   5.869   9.164
 1953POPC   GL127157  10.479   5.821   8.864
 1953POPC   GL227158  10.397   5.878   8.864
 1953POPC   C1A27159  10.475   5.832   8.564
 1953POPC   D2A27160  10.494   5.837   8.264
 1953POPC   C3A27161  10.544   5.900   7.964
 1953POPC   C4A27162  10.525   5.856   7.664
 1953POPC   C1B27163  10.277   5.857   8.564
 1953POPC   C2B27164  10.328   5.781   8.264
 1953POPC   C3B27165  10.256   5.822   7.964
 1953POPC   C4B27166  10.293   5.822   7.664
 1954POPC   NC327167   2.007  10.534   9.464
 1954POPC   PO427168   1.965  10.533   9.164
 1954POPC   GL127169   2.032  10.557   8.864
 1954POPC   GL227170   2.015  10.405   8.864
 1954POPC   C1A27171   2.000  10.565   8.564
 1954POPC   D2A27172   1.949  10.557   8.264
 1954POPC   C3A27173   2.014  10.515   7.964
 1954POPC   C4A27174   1.983  10.508   7.664
 1954POPC   C1B27175   2.056  10.284   8.564
 1954POPC   C2B27176   2.063  10.302   8.264
 1954POPC   C3B27177   2.056  10.277   7.964
 1954POPC   C4B27178   2.060  10.300   7.664
 1955POPC   NC327179  36.151   0.436   9.464
 1955POPC   PO427180  36.167   0.469   9.164
 1955POPC   GL127181  36.133   0.473   8.864
 1955POPC   GL227182  36.105   0.361   8.864
 1955POPC   C1A27183  36.169   0.464   8.564
 1955POPC   D2A27184  36.135   0.414   8.264
 1955POPC   C3A27185  36.117   0.475   7.964
 1955POPC   C4A27186  36.172   0.471   7.664
 1955POPC   C1B27187  36.120   0.150   8.564
 1955POPC   C2B27188  36.140   0.149   8.264
 1955POPC   C3B27189  36.156   0.141   7.964
 1955POPC   C4B27190  36.159   0.236   7.664
 1956POPC   NC327191  25.273  10.549   9.464
 1956POPC   PO427192  25.216  10.550   9.164
 1956POPC   GL127193  25.263  10.523   8.864
 1956POPC   GL227194  25.155  10.530   8.864
 1956POPC   C1A27195  25.314  10.574   8.564
 1956POPC   D2A27196  25.243  10.559   8.264
 1956POPC   C3A27197  25.242  10.560   7.964
 1956POPC   C4A27198  25.229  10.545   7.664
 1956POPC   C1B27199  25.039  10.564   8.564
 1956POPC   C2B27200  25.006  10.546   8.264
 1956POPC   C3B27201  24.993  10.636   7.964
 1956POPC   C4B27202  25.057  10.563   7.664
 1957POPC   NC327203  24.488  21.344   9.464
 1957POPC   PO427204  24.527  21.410   9.164
 1957POPC   GL127205  24.467  21.422   8.864
 1957POPC   GL227206  24.555  21.269   8.864
 1957POPC   C1A27207  24.467  21.350   8.564
 1957POPC   D2A27208  24.457  21.433   8.264
 1957POPC   C3A27209  24.516  21.382   7.964
 1957POPC   C4A27210  24.496  21.347   7.664
 1957POPC   C1B27211  24.564  21.180   8.564
 1957POPC   C2B27212  24.585  21.154   8.264
 1957POPC   C3B27213  24.513  21.120   7.964
 1957POPC   C4B27214  24.526  21.096   7.664
 1958POPC   NC327215   8.203  22.926   9.464
 1958POPC   PO427216   8.166  22.925   9.164
 1958POPC   GL127217   8.149  22.970   8.864
 1958POPC   GL227218   8.135  22.825   8.864
 1958POPC   C1A27219   8.160  22.904   8.564
 1958POPC   D2A27220   8.186  22.907   8.264
 1958POPC   C3A27221   8.154  22.950   7.964
 1958POPC   C4A27222   8.204  22.979   7.664
 1958POPC   C1B27223   8.038  22.763   8.564
 1958POPC   C2B27224   8.126  22.682   8.264
 1958POPC   C3B27225   8.090  22.734   7.964
 1958POPC   C4B27226   8.088  22.729   7.664
 1959POPC   NC327227  44.623  37.712   9.464
 1959POPC   PO427228  44.650  37.633   9.164
 1959POPC   GL127229  44.668  37.709   8.864
 1959POPC   GL227230  44.760  37.676   8.864
 1959POPC   C1A27231  44.637  37.711   8.564
 1959POPC   D2A27232  44.710  37.729   8.264
 1959POPC   C3A27233  44.672  37.698   7.964
 1959POPC   C4A27234  44.702  37.678   7.664
 1959POPC   C1B27235  44.946  37.721   8.564
 1959POPC   C2B27236  44.938  37.715   8.264
 1959POPC   C3B27237  44.860  37.710   7.964
 1959POPC   C4B27238  44.873  37.742   7.664
 1960POPC   NC327239  16.736  32.241   9.464
 1960POPC   PO427240  16.739  32.202   9.164
 1960POPC   GL127241  16.716  32.293   8.864
 1960POPC   GL227242  16.787  32.204   8.864
 1960POPC   C1A27243  16.753  32.216   8.564
 1960POPC   D2A27244  16.702  32.283   8.264
 1960POPC   C3A27245  16.707  32.288   7.964
 1960POPC   C4A27246  16.705  32.292   7.664
 1960POPC   C1B27247  16.937  32.072   8.564
 1960POPC   C2B27248  16.991  32.097   8.264
 1960POPC   C3B27249  16.973  32.091   7.964
 1960POPC   C4B27250  16.953  32.086   7.664
 1961POPC   NC327251  43.923   5.853   9.464
 1961POPC   PO427252  43.928   5.852   9.164
 1961POPC   GL127253  43.912   5.826   8.864
 1961POPC   GL227254  44.015   5.766   8.864
 1961POPC   C1A27255  43.920   5.855   8.564
 1961POPC   D2A27256  43.913   5.893   8.264
 1961POPC   C3A27257  43.870   5.901   7.964
 1961POPC   C4A27258  43.849   5.852   7.664
 1961POPC   C1B27259  44.047   5.652   8.564
 1961POPC   C2B27260  44.063   5.707   8.264
 1961POPC   C3B27261  44.087   5.692   7.964
 1961POPC   C4B27262  44.083   5.647   7.664
 1962POPC   NC327263  31.452  23.690   9.464
 1962POPC   PO427264  31.443  23.728   9.164
 1962POPC   GL127265  31.439  23.753   8.864
 1962POPC   GL227266  31.564  23.727   8.864
 1962POPC   C1A27267  31.439  23.691   8.564
 1962POPC   D2A27268  31.470  23.706   8.264
 1962POPC   C3A27269  31.492  23.680   7.964
 1962POPC   C4A27270  31.510  23.732   7.664
 1962POPC   C1B27271  31.751  23.662   8.564
 1962POPC   C2B27272  31.766  23.692   8.264
 1962POPC   C3B27273  31.730  23.688   7.964
 1962POPC   C4B27274  31.712  23.698   7.664
 1963POPC   NC327275  33.776  44.667   9.464
 1963POPC   PO427276  33.790  44.691   9.164
 1963POPC   GL127277  33.775  44.697   8.864
 1963POPC   GL227278  33.893  44.600   8.864
 1963POPC   C1A27279  33.780  44.646   8.564
 1963POPC   D2A27280  33.811  44.654   8.264
 1963POPC   C3A27281  33.755  44.624   7.964
 1963POPC   C4A27282  33.811  44.631   7.664
 1963POPC   C1B27283  34.032  44.539   8.564
 1963POPC   C2B27284  33.954  44.546   8.264
 1963POPC   C3B27285  33.953  44.465   7.964
 1963POPC   C4B27286  34.010  44.502   7.664
 1964POPC   NC327287  29.900  43.099   9.464
 1964POPC   PO427288  29.929  43.122   9.164
 1964POPC   GL127289  29.898  43.076   8.864
 1964POPC   GL227290  29.933  42.982   8.864
 1964POPC   C1A27291  29.873  43.075   8.564
 1964POPC   D2A27292  29.952  43.079   8.264
 1964POPC   C3A27293  29.940  43.111   7.964
 1964POPC   C4A27294  29.954  43.086   7.664
 1964POPC   C1B27295  29.884  42.847   8.564
 1964POPC   C2B27296  29.880  42.857   8.264
 1964POPC   C3B27297  29.862  42.822   7.964
 1964POPC   C4B27298  29.894  42.837   7.664
 1965POPC   NC327299  35.306   2.791   9.464
 1965POPC   PO427300  35.352   2.785   9.164
 1965POPC   GL127301  35.328   2.716   8.864
 1965POPC   GL227302  35.328   2.683   8.864
 1965POPC   C1A27303  35.385   2.768   8.564
 1965POPC   D2A27304  35.360   2.760   8.264
 1965POPC   C3A27305  35.400   2.781   7.964
 1965POPC   C4A27306  35.388   2.786   7.664
 1965POPC   C1B27307  35.348   2.546   8.564
 1965POPC   C2B27308  35.398   2.489   8.264
 1965POPC   C3B27309  35.402   2.487   7.964
 1965POPC   C4B27310  35.397   2.509   7.664
 1966POPC   NC327311  11.258  29.136   9.464
 1966POPC   PO427312  11.321  29.126   9.164
 1966POPC   GL127313  11.297  29.114   8.864
 1966POPC   GL227314  11.295  29.238   8.864
 1966POPC   C1A27315  11.252  29.189   8.564
 1966POPC   D2A27316  11.290  29.145   8.264
 1966POPC   C3A27317  11.331  29.172   7.964
 1966POPC   C4A27318  11.330  29.162   7.664
 1966POPC   C1B27319  11.388  29.440   8.564
 1966POPC   C2B27320  11.338  29.425   8.264
 1966POPC   C3B27321  11.310  29.363   7.964
 1966POPC   C4B27322  11.314  29.383   7.664
 1967POPC   NC327323  33.801  32.247   9.464
 1967POPC   PO427324  33.776  32.233   9.164
 1967POPC   GL127325  33.812  32.265   8.864
 1967POPC   GL227326  33.908  32.195   8.864
 1967POPC   C1A27327  33.839  32.278   8.564
 1967POPC   D2A27328  33.799  32.239   8.264
 1967POPC   C3A27329  33.756  32.282   7.964
 1967POPC   C4A27330  33.788  32.223   7.664
 1967POPC   C1B27331  34.021  32.119   8.564
 1967POPC   C2B27332  34.079  32.124   8.264
 1967POPC   C3B27333  34.060  32.144   7.964
 1967POPC   C4B27334  34.019  32.110   7.664
 1968POPC   NC327335  22.923  35.363   9.464
 1968POPC   PO427336  22.920  35.361   9.164
 1968POPC   GL127337  22.930  35.393   8.864
 1968POPC   GL227338  22.937  35.236   8.864
 1968POPC   C1A27339  22.959  35.397   8.564
 1968POPC   D2A27340  22.897  35.326   8.264
 1968POPC   C3A27341  22.958  35.355   7.964
 1968POPC   C4A27342  22.938  35.320   7.664
 1968POPC   C1B27343  22.954  35.126   8.564
 1968POPC   C2B27344  23.023  35.135   8.264
 1968POPC   C3B27345  22.966  35.136   7.964
 1968POPC   C4B27346  22.960  35.138   7.664
 1969POPC   NC327347  20.601  15.198   9.464
 1969POPC   PO427348  20.600  15.162   9.164
 1969POPC   GL127349  20.628  15.141   8.864
 1969POPC   GL227350  20.557  15.281   8.864
 1969POPC   C1A27351  20.642  15.162   8.564
 1969POPC   D2A27352  20.602  15.192   8.264
 1969POPC   C3A27353  20.654  15.192   7.964
 1969POPC   C4A27354  20.589  15.203   7.664
 1969POPC   C1B27355  20.477  15.339   8.564
 1969POPC   C2B27356  20.485  15.364   8.264
 1969POPC   C3B27357  20.451  15.399   7.964
 1969POPC   C4B27358  20.432  15.379   7.664
 1970POPC   NC327359  29.181  28.404   9.464
 1970POPC   PO427360  29.147  28.387   9.164
 1970POPC   GL127361  29.123  28.355   8.864
 1970POPC   GL227362  28.996  28.310   8.864
 1970POPC   C1A27363  29.148  28.368   8.564
 1970POPC   D2A27364  29.174  28.340   8.264
 1970POPC   C3A27365  29.169  28.325   7.964
 1970POPC   C4A27366  29.148  28.381   7.664
 1970POPC   C1B27367  28.932  28.172   8.564
 1970POPC   C2B27368  28.988  28.209   8.264
 1970POPC   C3B27369  28.931  28.212   7.964
 1970POPC   C4B27370  28.964  28.173   7.664
 1971POPC   NC327371  36.862  26.018   9.464
 1971POPC   PO427372  36.882  26.033   9.164
 1971POPC   GL127373  36.873  26.041   8.864
 1971POPC   GL227374  36.840  25.924   8.864
 1971POPC   C1A27375  36.905  26.009   8.564
 1971POPC   D2A27376  36.942  26.086   8.264
 1971POPC   C3A27377  36.922  26.025   7.964
 1971POPC   C4A27378  36.858  26.029   7.664
 1971POPC   C1B27379  36.743  25.792   8.564
 1971POPC   C2B27380  36.744  25.794   8.264
 1971POPC   C3B27381  36.834  25.804   7.964
 1971POPC   C4B27382  36.824  25.806   7.664
 1972POPC   NC327383  42.379  27.559   9.464
 1972POPC   PO427384  42.355  27.579   9.164
 1972POPC   GL127385  42.339  27.556   8.864
 1972POPC   GL227386  42.295  27.452   8.864
 1972POPC   C1A27387  42.285  27.634   8.564
 1972POPC   D2A27388  42.295  27.549   8.264
 1972POPC   C3A27389  42.286  27.631   7.964
 1972POPC   C4A27390  42.314  27.583   7.664
 1972POPC   C1B27391  42.312  27.346   8.564
 1972POPC   C2B27392  42.365  27.392   8.264
 1972POPC   C3B27393  42.301  27.379   7.964
 1972POPC   C4B27394  42.340  27.376   7.664
 1973POPC   NC327395  17.462  27.638   9.464
 1973POPC   PO427396  17.473  27.599   9.164
 1973POPC   GL127397  17.494  27.589   8.864
 1973POPC   GL227398  17.466  27.716   8.864
 1973POPC   C1A27399  17.486  27.605   8.564
 1973POPC   D2A27400  17.511  27.571   8.264
 1973POPC   C3A27401  17.481  27.623   7.964
 1973POPC   C4A27402  17.502  27.549   7.664
 1973POPC   C1B27403  17.496  27.862   8.564
 1973POPC   C2B27404  17.466  27.856   8.264
 1973POPC   C3B27405  17.465  27.842   7.964
 1973POPC   C4B27406  17.438  27.862   7.664
 1974POPC   NC327407  15.994  26.803   9.464
 1974POPC   PO427408  15.995  26.769   9.164
 1974POPC   GL127409  16.003  26.774   8.864
 1974POPC   GL227410  15.892  26.945   8.864
 1974POPC   C1A27411  15.965  26.787   8.564
 1974POPC   D2A27412  15.998  26.804   8.264
 1974POPC   C3A27413  15.929  26.786   7.964
 1974POPC   C4A27414  15.954  26.805   7.664
 1974POPC   C1B27415  15.901  27.054   8.564
 1974POPC   C2B27416  15.935  27.050   8.264
 1974POPC   C3B27417  15.879  27.090   7.964
 1974POPC   C4B27418  15.859  27.060   7.664
 1975POPC   NC327419  32.210   0.465   9.464
 1975POPC   PO427420  32.258   0.472   9.164
 1975POPC   GL127421  32.258   0.483   8.864
 1975POPC   GL227422  32.332   0.399   8.864
 1975POPC   C1A27423  32.231   0.455   8.564
 1975POPC   D2A27424  32.219   0.398   8.264
 1975POPC   C3A27425  32.245   0.486   7.964
 1975POPC   C4A27426  32.276   0.460   7.664
 1975POPC   C1B27427  32.507   0.367   8.564
 1975POPC   C2B27428  32.456   0.304   8.264
 1975POPC   C3B27429  32.422   0.326   7.964
 1975POPC   C4B27430  32.477   0.368   7.664
 1976POPC   NC327431  33.787  35.312   9.464
 1976POPC   PO427432  33.819  35.324   9.164
 1976POPC   GL127433  33.815  35.312   8.864
 1976POPC   GL227434  33.923  35.394   8.864
 1976POPC   C1A27435  33.769  35.357   8.564
 1976POPC   D2A27436  33.801  35.386   8.264
 1976POPC   C3A27437  33.778  35.355   7.964
 1976POPC   C4A27438  33.757  35.329   7.664
 1976POPC   C1B27439  34.017  35.376   8.564
 1976POPC   C2B27440  34.071  35.333   8.264
 1976POPC   C3B27441  34.052  35.372   7.964
 1976POPC   C4B27442  34.059  35.366   7.664
 1977POPC   NC327443  43.912  25.311   9.464
 1977POPC   PO427444  43.892  25.270   9.164
 1977POPC   GL127445  43.933  25.239   8.864
 1977POPC   GL227446  44.001  25.253   8.864
 1977POPC   C1A27447  43.896  25.224   8.564
 1977POPC   D2A27448  43.904  25.278   8.264
 1977POPC   C3A27449  43.898  25.266   7.964
 1977POPC   C4A27450  43.858  25.284   7.664
 1977POPC   C1B27451  44.122  25.271   8.564
 1977POPC   C2B27452  44.162  25.234   8.264
 1977POPC   C3B27453  44.090  25.216   7.964
 1977POPC   C4B27454  44.091  25.297   7.664
 1978POPC   NC327455  32.199  11.328   9.464
 1978POPC   PO427456  32.293  11.279   9.164
 1978POPC   GL127457  32.295  11.256   8.864
 1978POPC   GL227458  32.149  11.378   8.864
 1978POPC   C1A27459  32.207  11.281   8.564
 1978POPC   D2A27460  32.226  11.325   8.264
 1978POPC   C3A27461  32.245  11.338   7.964
 1978POPC   C4A27462  32.207  11.275   7.664
 1978POPC   C1B27463  31.964  11.336   8.564
 1978POPC   C2B27464  31.998  11.402   8.264
 1978POPC   C3B27465  32.025  11.343   7.964
 1978POPC   C4B27466  31.985  11.396   7.664
 1979POPC   NC327467  35.397  29.940   9.464
 1979POPC   PO427468  35.330  29.969   9.164
 1979POPC   GL127469  35.365  29.907   8.864
 1979POPC   GL227470  35.293  29.764   8.864
 1979POPC   C1A27471  35.346  29.965   8.564
 1979POPC   D2A27472  35.355  29.875   8.264
 1979POPC   C3A27473  35.400  29.960   7.964
 1979POPC   C4A27474  35.395  29.888   7.664
 1979POPC   C1B27475  35.245  29.707   8.564
 1979POPC   C2B27476  35.260  29.691   8.264
 1979POPC   C3B27477  35.275  29.707   7.964
 1979POPC   C4B27478  35.300  29.725   7.664
 1980POPC   NC327479   5.822   4.281   9.464
 1980POPC   PO427480   5.896   4.314   9.164
 1980POPC   GL127481   5.831   4.354   8.864
 1980POPC   GL227482   5.953   4.242   8.864
 1980POPC   C1A27483   5.868   4.358   8.564
 1980POPC   D2A27484   5.860   4.354   8.264
 1980POPC   C3A27485   5.881   4.308   7.964
 1980POPC   C4A27486   5.874   4.284   7.664
 1980POPC   C1B27487   6.063   4.161   8.564
 1980POPC   C2B27488   6.055   4.126   8.264
 1980POPC   C3B27489   6.060   4.143   7.964
 1980POPC   C4B27490   6.090   4.206   7.664
 1981POPC   NC327491  34.616  15.221   9.464
 1981POPC   PO427492  34.558  15.200   9.164
 1981POPC   GL127493  34.560  15.223   8.864
 1981POPC   GL227494  34.691  15.108   8.864
 1981POPC   C1A27495  34.532  15.186   8.564
 1981POPC   D2A27496  34.596  15.167   8.264
 1981POPC   C3A27497  34.535  15.188   7.964
 1981POPC   C4A27498  34.603  15.201   7.664
 1981POPC   C1B27499  34.863  15.116   8.564
 1981POPC   C2B27500  34.773  15.176   8.264
 1981POPC   C3B27501  34.837  15.101   7.964
 1981POPC   C4B27502  34.816  15.111   7.664
 1982POPC   NC327503   9.742   6.690   9.464
 1982POPC   PO427504   9.717   6.691   9.164
 1982POPC   GL127505   9.744   6.617   8.864
 1982POPC   GL227506   9.862   6.594   8.864
 1982POPC   C1A27507   9.732   6.615   8.564
 1982POPC   D2A27508   9.786   6.674   8.264
 1982POPC   C3A27509   9.768   6.637   7.964
 1982POPC   C4A27510   9.736   6.691   7.664
 1982POPC   C1B27511   9.933   6.477   8.564
 1982POPC   C2B27512   9.998   6.484   8.264
 1982POPC   C3B27513   9.992   6.523   7.964
 1982POPC   C4B27514   9.995   6.530   7.664
 1983POPC   NC327515  40.016  36.854   9.464
 1983POPC   PO427516  40.036  36.870   9.164
 1983POPC   GL127517  40.012  36.925   8.864
 1983POPC   GL227518  40.155  36.876   8.864
 1983POPC   C1A27519  40.053  36.915   8.564
 1983POPC   D2A27520  40.055  36.943   8.264
 1983POPC   C3A27521  40.000  36.877   7.964
 1983POPC   C4A27522  39.990  36.932   7.664
 1983POPC   C1B27523  40.266  36.814   8.564
 1983POPC   C2B27524  40.170  36.790   8.264
 1983POPC   C3B27525  40.198  36.732   7.964
 1983POPC   C4B27526  40.252  36.724   7.664
 1984POPC   NC327527   6.689   2.742   9.464
 1984POPC   PO427528   6.683   2.755   9.164
 1984POPC   GL127529   6.599   2.777   8.864
 1984POPC   GL227530   6.727   2.843   8.864
 1984POPC   C1A27531   6.622   2.782   8.564
 1984POPC   D2A27532   6.613   2.750   8.264
 1984POPC   C3A27533   6.599   2.756   7.964
 1984POPC   C4A27534   6.682   2.785   7.664
 1984POPC   C1B27535   6.891   2.844   8.564
 1984POPC   C2B27536   6.862   2.899   8.264
 1984POPC   C3B27537   6.918   2.847   7.964
 1984POPC   C4B27538   6.901   2.894   7.664
 1985POPC   NC327539  40.040  25.241   9.464
 1985POPC   PO427540  40.008  25.233   9.164
 1985POPC   GL127541  40.048  25.286   8.864
 1985POPC   GL227542  40.033  25.419   8.864
 1985POPC   C1A27543  40.005  25.278   8.564
 1985POPC   D2A27544  39.979  25.272   8.264
 1985POPC   C3A27545  40.051  25.232   7.964
 1985POPC   C4A27546  39.985  25.288   7.664
 1985POPC   C1B27547  40.093  25.513   8.564
 1985POPC   C2B27548  40.069  25.535   8.264
 1985POPC   C3B27549  40.027  25.529   7.964
 1985POPC   C4B27550  40.090  25.503   7.664
 1986POPC   NC327551  33.784  26.832   9.464
 1986POPC   PO427552  33.848  26.775   9.164
 1986POPC   GL127553  33.754  26.836   8.864
 1986POPC   GL227554  33.937  26.810   8.864
 1986POPC   C1A27555  33.813  26.774   8.564
 1986POPC   D2A27556  33.817  26.790   8.264
 1986POPC   C3A27557  33.840  26.865   7.964
 1986POPC   C4A27558  33.752  26.793   7.664
 1986POPC   C1B27559  34.095  26.744   8.564
 1986POPC   C2B27560  34.040  26.774   8.264
 1986POPC   C3B27561  34.051  26.765   7.964
 1986POPC   C4B27562  34.051  26.834   7.664
 1987POPC   NC327563   8.188  13.629   9.464
 1987POPC   PO427564   8.215  13.623   9.164
 1987POPC   GL127565   8.224  13.622   8.864
 1987POPC   GL227566   8.306  13.580   8.864
 1987POPC   C1A27567   8.209  13.604   8.564
 1987POPC   D2A27568   8.167  13.644   8.264
 1987POPC   C3A27569   8.216  13.617   7.964
 1987POPC   C4A27570   8.213  13.591   7.664
 1987POPC   C1B27571   8.435  13.647   8.564
 1987POPC   C2B27572   8.445  13.606   8.264
 1987POPC   C3B27573   8.447  13.605   7.964
 1987POPC   C4B27574   8.444  13.634   7.664
 1988POPC   NC327575  22.950   9.781   9.464
 1988POPC   PO427576  22.928   9.720   9.164
 1988POPC   GL127577  22.901   9.749   8.864
 1988POPC   GL227578  22.893   9.657   8.864
 1988POPC   C1A27579  22.966   9.703   8.564
 1988POPC   D2A27580  22.930   9.772   8.264
 1988POPC   C3A27581  22.919   9.699   7.964
 1988POPC   C4A27582  22.908   9.737   7.664
 1988POPC   C1B27583  22.774   9.527   8.564
 1988POPC   C2B27584  22.739   9.581   8.264
 1988POPC   C3B27585  22.790   9.609   7.964
 1988POPC   C4B27586  22.787   9.558   7.664
 1989POPC   NC327587  42.304  29.101   9.464
 1989POPC   PO427588  42.380  29.179   9.164
 1989POPC   GL127589  42.303  29.182   8.864
 1989POPC   GL227590  42.273  29.211   8.864
 1989POPC   C1A27591  42.353  29.150   8.564
 1989POPC   D2A27592  42.330  29.171   8.264
 1989POPC   C3A27593  42.333  29.115   7.964
 1989POPC   C4A27594  42.286  29.104   7.664
 1989POPC   C1B27595  42.134  29.338   8.564
 1989POPC   C2B27596  42.149  29.361   8.264
 1989POPC   C3B27597  42.194  29.351   7.964
 1989POPC   C4B27598  42.194  29.310   7.664
 1990POPC   NC327599  39.231  24.522   9.464
 1990POPC   PO427600  39.197  24.483   9.164
 1990POPC   GL127601  39.193  24.511   8.864
 1990POPC   GL227602  39.162  24.582   8.864
 1990POPC   C1A27603  39.275  24.522   8.564
 1990POPC   D2A27604  39.257  24.491   8.264
 1990POPC   C3A27605  39.242  24.535   7.964
 1990POPC   C4A27606  39.237  24.481   7.664
 1990POPC   C1B27607  39.142  24.739   8.564
 1990POPC   C2B27608  39.172  24.752   8.264
 1990POPC   C3B27609  39.177  24.749   7.964
 1990POPC   C4B27610  39.164  24.711   7.664
 1991POPC   NC327611  15.174  29.110   9.464
 1991POPC   PO427612  15.207  29.102   9.164
 1991POPC   GL127613  15.143  29.143   8.864
 1991POPC   GL227614  15.071  29.095   8.864
 1991POPC   C1A27615  15.169  29.100   8.564
 1991POPC   D2A27616  15.150  29.107   8.264
 1991POPC   C3A27617  15.210  29.138   7.964
 1991POPC   C4A27618  15.194  29.138   7.664
 1991POPC   C1B27619  15.003  28.982   8.564
 1991POPC   C2B27620  14.984  28.996   8.264
 1991POPC   C3B27621  14.993  29.036   7.964
 1991POPC   C4B27622  14.975  29.008   7.664
 1992POPC   NC327623  32.203   5.863   9.464
 1992POPC   PO427624  32.291   5.888   9.164
 1992POPC   GL127625  32.266   5.860   8.864
 1992POPC   GL227626  32.244   5.790   8.864
 1992POPC   C1A27627  32.266   5.852   8.564
 1992POPC   D2A27628  32.261   5.915   8.264
 1992POPC   C3A27629  32.280   5.823   7.964
 1992POPC   C4A27630  32.243   5.911   7.664
 1992POPC   C1B27631  32.132   5.643   8.564
 1992POPC   C2B27632  32.168   5.610   8.264
 1992POPC   C3B27633  32.189   5.644   7.964
 1992POPC   C4B27634  32.134   5.667   7.664
 1993POPC   NC327635   8.163   5.899   9.464
 1993POPC   PO427636   8.193   5.832   9.164
 1993POPC   GL127637   8.176   5.900   8.864
 1993POPC   GL227638   8.043   5.871   8.864
 1993POPC   C1A27639   8.198   5.836   8.564
 1993POPC   D2A27640   8.237   5.905   8.264
 1993POPC   C3A27641   8.177   5.878   7.964
 1993POPC   C4A27642   8.163   5.841   7.664
 1993POPC   C1B27643   7.898   5.863   8.564
 1993POPC   C2B27644   7.923   5.905   8.264
 1993POPC   C3B27645   7.987   5.846   7.964
 1993POPC   C4B27646   7.986   5.873   7.664
 1994POPC   NC327647  26.056  43.892   9.464
 1994POPC   PO427648  26.090  43.905   9.164
 1994POPC   GL127649  26.085  43.898   8.864
 1994POPC   GL227650  26.048  43.740   8.864
 1994POPC   C1A27651  26.005  43.898   8.564
 1994POPC   D2A27652  26.039  43.860   8.264
 1994POPC   C3A27653  25.996  43.911   7.964
 1994POPC   C4A27654  26.006  43.873   7.664
 1994POPC   C1B27655  25.982  43.678   8.564
 1994POPC   C2B27656  26.042  43.632   8.264
 1994POPC   C3B27657  26.070  43.623   7.964
 1994POPC   C4B27658  26.072  43.649   7.664
 1995POPC   NC327659   2.808  43.909   9.464
 1995POPC   PO427660   2.735  43.862   9.164
 1995POPC   GL127661   2.791  43.928   8.864
 1995POPC   GL227662   2.753  43.800   8.864
 1995POPC   C1A27663   2.795  43.879   8.564
 1995POPC   D2A27664   2.726  43.901   8.264
 1995POPC   C3A27665   2.750  43.851   7.964
 1995POPC   C4A27666   2.778  43.847   7.664
 1995POPC   C1B27667   2.790  43.668   8.564
 1995POPC   C2B27668   2.799  43.661   8.264
 1995POPC   C3B27669   2.785  43.687   7.964
 1995POPC   C4B27670   2.807  43.625   7.664
 1996POPC   NC327671   7.421  19.094   9.464
 1996POPC   PO427672   7.454  19.034   9.164
 1996POPC   GL127673   7.431  19.107   8.864
 1996POPC   GL227674   7.346  19.016   8.864
 1996POPC   C1A27675   7.462  19.102   8.564
 1996POPC   D2A27676   7.437  19.081   8.264
 1996POPC   C3A27677   7.384  19.065   7.964
 1996POPC   C4A27678   7.434  19.074   7.664
 1996POPC   C1B27679   7.194  18.996   8.564
 1996POPC   C2B27680   7.158  19.007   8.264
 1996POPC   C3B27681   7.233  18.976   7.964
 1996POPC   C4B27682   7.227  18.973   7.664
 1997POPC   NC327683  32.990  31.513   9.464
 1997POPC   PO427684  33.053  31.467   9.164
 1997POPC   GL127685  33.049  31.513   8.864
 1997POPC   GL227686  33.053  31.333   8.864
 1997POPC   C1A27687  33.069  31.458   8.564
 1997POPC   D2A27688  32.988  31.445   8.264
 1997POPC   C3A27689  33.057  31.441   7.964
 1997POPC   C4A27690  33.005  31.440   7.664
 1997POPC   C1B27691  33.155  31.296   8.564
 1997POPC   C2B27692  33.208  31.264   8.264
 1997POPC   C3B27693  33.188  31.246   7.964
 1997POPC   C4B27694  33.208  31.321   7.664
 1998POPC   NC327695  29.167  39.270   9.464
 1998POPC   PO427696  29.133  39.236   9.164
 1998POPC   GL127697  29.115  39.246   8.864
 1998POPC   GL227698  29.067  39.303   8.864
 1998POPC   C1A27699  29.185  39.191   8.564
 1998POPC   D2A27700  29.121  39.218   8.264
 1998POPC   C3A27701  29.149  39.232   7.964
 1998POPC   C4A27702  29.193  39.267   7.664
 1998POPC   C1B27703  29.028  39.493   8.564
 1998POPC   C2B27704  29.017  39.424   8.264
 1998POPC   C3B27705  29.043  39.420   7.964
 1998POPC   C4B27706  29.072  39.441   7.664
 1999POPC   NC327707  44.645  30.708   9.464
 1999POPC   PO427708  44.685  30.654   9.164
 1999POPC   GL127709  44.682  30.732   8.864
 1999POPC   GL227710  44.622  30.531   8.864
 1999POPC   C1A27711  44.700  30.695   8.564
 1999POPC   D2A27712  44.678  30.744   8.264
 1999POPC   C3A27713  44.671  30.720   7.964
 1999POPC   C4A27714  44.677  30.697   7.664
 1999POPC   C1B27715  44.650  30.475   8.564
 1999POPC   C2B27716  44.610  30.429   8.264
 1999POPC   C3B27717  44.586  30.418   7.964
 1999POPC   C4B27718  44.638  30.452   7.664
 2000POPC   NC327719  38.499   3.553   9.464
 2000POPC   PO427720  38.481   3.505   9.164
 2000POPC   GL127721  38.492   3.512   8.864
 2000POPC   GL227722  38.385   3.642   8.864
 2000POPC   C1A27723  38.430   3.501   8.564
 2000POPC   D2A27724  38.437   3.521   8.264
 2000POPC   C3A27725  38.495   3.550   7.964
 2000POPC   C4A27726  38.467   3.492   7.664
 2000POPC   C1B27727  38.320   3.795   8.564
 2000POPC   C2B27728  38.314   3.760   8.264
 2000POPC   C3B27729  38.380   3.809   7.964
 2000POPC   C4B27730  38.305   3.726   7.664
 2001POPC   NC327731  43.121  29.881   9.464
 2001POPC   PO427732  43.119  29.896   9.164
 2001POPC   GL127733  43.117  29.923   8.864
 2001POPC   GL227734  43.128  29.808   8.864
 2001POPC   C1A27735  43.081  29.893   8.564
 2001POPC   D2A27736  43.066  29.914   8.264
 2001POPC   C3A27737  43.159  29.921   7.964
 2001POPC   C4A27738  43.101  29.949   7.664
 2001POPC   C1B27739  43.172  29.626   8.564
 2001POPC   C2B27740  43.164  29.704   8.264
 2001POPC   C3B27741  43.097  29.710   7.964
 2001POPC   C4B27742  43.089  29.707   7.664
 2002POPC   NC327743  42.345  10.521   9.464
 2002POPC   PO427744  42.379  10.538   9.164
 2002POPC   GL127745  42.317  10.482   8.864
 2002POPC   GL227746  42.221  10.533   8.864
 2002POPC   C1A27747  42.292  10.476   8.564
 2002POPC   D2A27748  42.365  10.552   8.264
 2002POPC   C3A27749  42.353  10.557   7.964
 2002POPC   C4A27750  42.312  10.572   7.664
 2002POPC   C1B27751  42.067  10.581   8.564
 2002POPC   C2B27752  42.049  10.566   8.264
 2002POPC   C3B27753  42.048  10.571   7.964
 2002POPC   C4B27754  42.037  10.515   7.664
 2003POPC   NC327755  33.777  19.015   9.464
 2003POPC   PO427756  33.784  19.015   9.164
 2003POPC   GL127757  33.812  19.028   8.864
 2003POPC   GL227758  33.827  18.930   8.864
 2003POPC   C1A27759  33.836  19.095   8.564
 2003POPC   D2A27760  33.830  19.049   8.264
 2003POPC   C3A27761  33.774  19.038   7.964
 2003POPC   C4A27762  33.755  19.070   7.664
 2003POPC   C1B27763  33.834  18.780   8.564
 2003POPC   C2B27764  33.857  18.801   8.264
 2003POPC   C3B27765  33.847  18.817   7.964
 2003POPC   C4B27766  33.854  18.823   7.664
 2004POPC   NC327767   5.116  28.357   9.464
 2004POPC   PO427768   5.044  28.322   9.164
 2004POPC   GL127769   5.110  28.391   8.864
 2004POPC   GL227770   5.159  28.487   8.864
 2004POPC   C1A27771   5.111  28.376   8.564
 2004POPC   D2A27772   5.102  28.352   8.264
 2004POPC   C3A27773   5.123  28.387   7.964
 2004POPC   C4A27774   5.100  28.352   7.664
 2004POPC   C1B27775   5.252  28.551   8.564
 2004POPC   C2B27776   5.276  28.579   8.264
 2004POPC   C3B27777   5.281  28.571   7.964
 2004POPC   C4B27778   5.238  28.519   7.664
 2005POPC   NC327779   4.284   5.873   9.464
 2005POPC   PO427780   4.323   5.917   9.164
 2005POPC   GL127781   4.288   5.855   8.864
 2005POPC   GL227782   4.396   5.894   8.864
 2005POPC   C1A27783   4.320   5.835   8.564
 2005POPC   D2A27784   4.346   5.826   8.264
 2005POPC   C3A27785   4.309   5.841   7.964
 2005POPC   C4A27786   4.346   5.862   7.664
 2005POPC   C1B27787   4.530   5.921   8.564
 2005POPC   C2B27788   4.566   5.877   8.264
 2005POPC   C3B27789   4.559   5.912   7.964
 2005POPC   C4B27790   4.600   5.918   7.664
 2006POPC   NC327791  19.837  16.701   9.464
 2006POPC   PO427792  19.788  16.718   9.164
 2006POPC   GL127793  19.787  16.694   8.864
 2006POPC   GL227794  19.749  16.605   8.864
 2006POPC   C1A27795  19.847  16.756   8.564
 2006POPC   D2A27796  19.845  16.706   8.264
 2006POPC   C3A27797  19.875  16.746   7.964
 2006POPC   C4A27798  19.838  16.696   7.664
 2006POPC   C1B27799  19.758  16.500   8.564
 2006POPC   C2B27800  19.705  16.535   8.264
 2006POPC   C3B27801  19.710  16.548   7.964
 2006POPC   C4B27802  19.744  16.475   7.664
 2007POPC   NC327803   5.850  36.950   9.464
 2007POPC   PO427804   5.866  36.867   9.164
 2007POPC   GL127805   5.874  36.919   8.864
 2007POPC   GL227806   5.943  37.037   8.864
 2007POPC   C1A27807   5.841  36.934   8.564
 2007POPC   D2A27808   5.863  36.927   8.264
 2007POPC   C3A27809   5.836  36.894   7.964
 2007POPC   C4A27810   5.844  36.875   7.664
 2007POPC   C1B27811   6.070  37.055   8.564
 2007POPC   C2B27812   6.092  37.089   8.264
 2007POPC   C3B27813   6.103  37.043   7.964
 2007POPC   C4B27814   6.016  37.055   7.664
 2008POPC   NC327815  12.868  12.048   9.464
 2008POPC   PO427816  12.887  12.040   9.164
 2008POPC   GL127817  12.852  12.108   8.864
 2008POPC   GL227818  12.777  12.144   8.864
 2008POPC   C1A27819  12.865  12.047   8.564
 2008POPC   D2A27820  12.824  12.065   8.264
 2008POPC   C3A27821  12.835  12.054   7.964
 2008POPC   C4A27822  12.875  12.029   7.664
 2008POPC   C1B27823  12.684  12.237   8.564
 2008POPC   C2B27824  12.620  12.220   8.264
 2008POPC   C3B27825  12.619  12.201   7.964
 2008POPC   C4B27826  12.709  12.277   7.664
 2009POPC   NC327827  36.167  20.586   9.464
 2009POPC   PO427828  36.110  20.626   9.164
 2009POPC   GL127829  36.165  20.609   8.864
 2009POPC   GL227830  35.991  20.587   8.864
 2009POPC   C1A27831  36.095  20.626   8.564
 2009POPC   D2A27832  36.168  20.596   8.264
 2009POPC   C3A27833  36.086  20.659   7.964
 2009POPC   C4A27834  36.118  20.579   7.664
 2009POPC   C1B27835  35.840  20.622   8.564
 2009POPC   C2B27836  35.856  20.632   8.264
 2009POPC   C3B27837  35.859  20.560   7.964
 2009POPC   C4B27838  35.830  20.580   7.664
 2010POPC   NC327839  43.929  26.843   9.464
 2010POPC   PO427840  43.849  26.817   9.164
 2010POPC   GL127841  43.923  26.790   8.864
 2010POPC   GL227842  44.015  26.743   8.864
 2010POPC   C1A27843  43.841  26.860   8.564
 2010POPC   D2A27844  43.916  26.819   8.264
 2010POPC   C3A27845  43.935  26.785   7.964
 2010POPC   C4A27846  43.930  26.866   7.664
 2010POPC   C1B27847  44.088  26.691   8.564
 2010POPC   C2B27848  44.119  26.665   8.264
 2010POPC   C3B27849  44.035  26.674   7.964
 2010POPC   C4B27850  44.065  26.641   7.664
 2011POPC   NC327851   8.205   5.116   9.464
 2011POPC   PO427852   8.189   5.055   9.164
 2011POPC   GL127853   8.229   5.057   8.864
 2011POPC   GL227854   8.097   5.209   8.864
 2011POPC   C1A27855   8.246   5.074   8.564
 2011POPC   D2A27856   8.176   5.063   8.264
 2011POPC   C3A27857   8.173   5.119   7.964
 2011POPC   C4A27858   8.227   5.102   7.664
 2011POPC   C1B27859   8.005   5.248   8.564
 2011POPC   C2B27860   8.064   5.321   8.264
 2011POPC   C3B27861   8.055   5.322   7.964
 2011POPC   C4B27862   8.072   5.306   7.664
 2012POPC   NC327863  28.345  19.091   9.464
 2012POPC   PO427864  28.345  19.088   9.164
 2012POPC   GL127865  28.334  19.096   8.864
 2012POPC   GL227866  28.289  19.148   8.864
 2012POPC   C1A27867  28.353  19.073   8.564
 2012POPC   D2A27868  28.368  19.095   8.264
 2012POPC   C3A27869  28.327  19.011   7.964
 2012POPC   C4A27870  28.333  19.053   7.664
 2012POPC   C1B27871  28.204  19.256   8.564
 2012POPC   C2B27872  28.264  19.232   8.264
 2012POPC   C3B27873  28.274  19.296   7.964
 2012POPC   C4B27874  28.244  19.261   7.664
 2013POPC   NC327875  12.124  20.596   9.464
 2013POPC   PO427876  12.038  20.635   9.164
 2013POPC   GL127877  12.029  20.611   8.864
 2013POPC   GL227878  12.000  20.775   8.864
 2013POPC   C1A27879  12.118  20.635   8.564
 2013POPC   D2A27880  12.086  20.595   8.264
 2013POPC   C3A27881  12.086  20.605   7.964
 2013POPC   C4A27882  12.116  20.569   7.664
 2013POPC   C1B27883  11.963  20.879   8.564
 2013POPC   C2B27884  12.005  20.809   8.264
 2013POPC   C3B27885  11.976  20.862   7.964
 2013POPC   C4B27886  12.008  20.859   7.664
 2014POPC   NC327887  39.229   6.683   9.464
 2014POPC   PO427888  39.257   6.650   9.164
 2014POPC   GL127889  39.259   6.682   8.864
 2014POPC   GL227890  39.143   6.746   8.864
 2014POPC   C1A27891  39.207   6.597   8.564
 2014POPC   D2A27892  39.212   6.665   8.264
 2014POPC   C3A27893  39.221   6.656   7.964
 2014POPC   C4A27894  39.241   6.677   7.664
 2014POPC   C1B27895  39.142   6.816   8.564
 2014POPC   C2B27896  39.141   6.873   8.264
 2014POPC   C3B27897  39.095   6.905   7.964
 2014POPC   C4B27898  39.055   6.867   7.664
 2015POPC   NC327899  20.634  22.152   9.464
 2015POPC   PO427900  20.569  22.154   9.164
 2015POPC   GL127901  20.608  22.155   8.864
 2015POPC   GL227902  20.694  22.208   8.864
 2015POPC   C1A27903  20.566  22.150   8.564
 2015POPC   D2A27904  20.571  22.187   8.264
 2015POPC   C3A27905  20.656  22.124   7.964
 2015POPC   C4A27906  20.592  22.154   7.664
 2015POPC   C1B27907  20.777  22.345   8.564
 2015POPC   C2B27908  20.766  22.330   8.264
 2015POPC   C3B27909  20.810  22.298   7.964
 2015POPC   C4B27910  20.822  22.293   7.664
 2016POPC   NC327911  11.268  22.905   9.464
 2016POPC   PO427912  11.296  22.978   9.164
 2016POPC   GL127913  11.262  22.963   8.864
 2016POPC   GL227914  11.236  23.057   8.864
 2016POPC   C1A27915  11.332  22.958   8.564
 2016POPC   D2A27916  11.321  22.961   8.264
 2016POPC   C3A27917  11.340  22.891   7.964
 2016POPC   C4A27918  11.270  22.927   7.664
 2016POPC   C1B27919  11.172  23.166   8.564
 2016POPC   C2B27920  11.230  23.135   8.264
 2016POPC   C3B27921  11.232  23.207   7.964
 2016POPC   C4B27922  11.158  23.174   7.664
 2017POPC   NC327923  39.263  27.559   9.464
 2017POPC   PO427924  39.245  27.640   9.164
 2017POPC   GL127925  39.185  27.619   8.864
 2017POPC   GL227926  39.172  27.500   8.864
 2017POPC   C1A27927  39.278  27.563   8.564
 2017POPC   D2A27928  39.280  27.575   8.264
 2017POPC   C3A27929  39.274  27.587   7.964
 2017POPC   C4A27930  39.273  27.576   7.664
 2017POPC   C1B27931  39.139  27.324   8.564
 2017POPC   C2B27932  39.190  27.316   8.264
 2017POPC   C3B27933  39.124  27.351   7.964
 2017POPC   C4B27934  39.178  27.386   7.664
 2018POPC   NC327935  10.475  33.794   9.464
 2018POPC   PO427936  10.488  33.753   9.164
 2018POPC   GL127937  10.546  33.777   8.864
 2018POPC   GL227938  10.596  33.695   8.864
 2018POPC   C1A27939  10.574  33.754   8.564
 2018POPC   D2A27940  10.522  33.755   8.264
 2018POPC   C3A27941  10.496  33.827   7.964
 2018POPC   C4A27942  10.543  33.820   7.664
 2018POPC   C1B27943  10.720  33.613   8.564
 2018POPC   C2B27944  10.727  33.622   8.264
 2018POPC   C3B27945  10.680  33.620   7.964
 2018POPC   C4B27946  10.689  33.606   7.664
 2019POPC   NC327947   2.009  40.826   9.464
 2019POPC   PO427948   1.992  40.744   9.164
 2019POPC   GL127949   2.032  40.783   8.864
 2019POPC   GL227950   1.886  40.845   8.864
 2019POPC   C1A27951   2.018  40.817   8.564
 2019POPC   D2A27952   1.960  40.736   8.264
 2019POPC   C3A27953   1.989  40.750   7.964
 2019POPC   C4A27954   1.986  40.821   7.664
 2019POPC   C1B27955   1.918  40.963   8.564
 2019POPC   C2B27956   1.858  40.983   8.264
 2019POPC   C3B27957   1.912  40.996   7.964
 2019POPC   C4B27958   1.903  41.031   7.664
 2020POPC   NC327959  36.129  27.568   9.464
 2020POPC   PO427960  36.127  27.569   9.164
 2020POPC   GL127961  36.154  27.643   8.864
 2020POPC   GL227962  36.147  27.745   8.864
 2020POPC   C1A27963  36.129  27.632   8.564
 2020POPC   D2A27964  36.142  27.629   8.264
 2020POPC   C3A27965  36.163  27.631   7.964
 2020POPC   C4A27966  36.169  27.641   7.664
 2020POPC   C1B27967  36.186  27.818   8.564
 2020POPC   C2B27968  36.225  27.787   8.264
 2020POPC   C3B27969  36.197  27.781   7.964
 2020POPC   C4B27970  36.249  27.861   7.664
 2021POPC   NC327971  15.980  43.932   9.464
 2021POPC   PO427972  15.969  43.881   9.164
 2021POPC   GL127973  15.975  43.837   8.864
 2021POPC   GL227974  15.870  43.929   8.864
 2021POPC   C1A27975  15.944  43.866   8.564
 2021POPC   D2A27976  15.941  43.865   8.264
 2021POPC   C3A27977  15.956  43.912   7.964
 2021POPC   C4A27978  15.973  43.907   7.664
 2021POPC   C1B27979  15.719  43.938   8.564
 2021POPC   C2B27980  15.662  43.894   8.264
 2021POPC   C3B27981  15.746  43.853   7.964
 2021POPC   C4B27982  15.673  43.860   7.664
 2022POPC   NC327983  37.697  21.435   9.464
 2022POPC   PO427984  37.640  21.344   9.164
 2022POPC   GL127985  37.721  21.393   8.864
 2022POPC   GL227986  37.768  21.387   8.864
 2022POPC   C1A27987  37.635  21.341   8.564
 2022POPC   D2A27988  37.633  21.376   8.264
 2022POPC   C3A27989  37.685  21.342   7.964
 2022POPC   C4A27990  37.683  21.337   7.664
 2022POPC   C1B27991  37.899  21.380   8.564
 2022POPC   C2B27992  37.949  21.381   8.264
 2022POPC   C3B27993  37.938  21.413   7.964
 2022POPC   C4B27994  37.945  21.393   7.664
 2023POPC   NC327995  28.342  10.511   9.464
 2023POPC   PO427996  28.369  10.566   9.164
 2023POPC   GL127997  28.363  10.525   8.864
 2023POPC   GL227998  28.217  10.471   8.864
 2023POPC   C1A27999  28.331  10.515   8.564
 2023POPC   D2A28000  28.370  10.499   8.264
 2023POPC   C3A28001  28.321  10.510   7.964
 2023POPC   C4A28002  28.377  10.479   7.664
 2023POPC   C1B28003  28.205  10.400   8.564
 2023POPC   C2B28004  28.169  10.342   8.264
 2023POPC   C3B28005  28.154  10.369   7.964
 2023POPC   C4B28006  28.136  10.345   7.664
 2024POPC   NC328007   5.044  26.064   9.464
 2024POPC   PO428008   5.059  26.082   9.164
 2024POPC   GL128009   5.133  26.067   8.864
 2024POPC   GL228010   5.005  26.194   8.864
 2024POPC   C1A28011   5.139  26.068   8.564
 2024POPC   D2A28012   5.050  26.081   8.264
 2024POPC   C3A28013   5.045  26.048   7.964
 2024POPC   C4A28014   5.137  26.063   7.664
 2024POPC   C1B28015   4.995  26.267   8.564
 2024POPC   C2B28016   5.042  26.320   8.264
 2024POPC   C3B28017   5.048  26.242   7.964
 2024POPC   C4B28018   5.023  26.255   7.664
 2025POPC   NC328019  18.267  43.085   9.464
 2025POPC   PO428020  18.317  43.157   9.164
 2025POPC   GL128021  18.290  43.155   8.864
 2025POPC   GL228022  18.222  43.213   8.864
 2025POPC   C1A28023  18.297  43.160   8.564
 2025POPC   D2A28024  18.267  43.160   8.264
 2025POPC   C3A28025  18.246  43.108   7.964
 2025POPC   C4A28026  18.245  43.095   7.664
 2025POPC   C1B28027  18.048  43.201   8.564
 2025POPC   C2B28028  18.052  43.233   8.264
 2025POPC   C3B28029  18.089  43.236   7.964
 2025POPC   C4B28030  18.082  43.266   7.664
 2026POPC   NC328031  12.109  12.814   9.464
 2026POPC   PO428032  12.075  12.829   9.164
 2026POPC   GL128033  12.033  12.825   8.864
 2026POPC   GL228034  12.134  13.018   8.864
 2026POPC   C1A28035  12.074  12.897   8.564
 2026POPC   D2A28036  12.063  12.869   8.264
 2026POPC   C3A28037  12.039  12.881   7.964
 2026POPC   C4A28038  12.095  12.870   7.664
 2026POPC   C1B28039  12.097  13.052   8.564
 2026POPC   C2B28040  12.116  13.066   8.264
 2026POPC   C3B28041  12.118  13.094   7.964
 2026POPC   C4B28042  12.089  13.093   7.664
 2027POPC   NC328043  26.087   5.901   9.464
 2027POPC   PO428044  26.067   5.882   9.164
 2027POPC   GL128045  26.073   5.822   8.864
 2027POPC   GL228046  26.063   5.761   8.864
 2027POPC   C1A28047  26.010   5.886   8.564
 2027POPC   D2A28048  25.998   5.869   8.264
 2027POPC   C3A28049  26.000   5.906   7.964
 2027POPC   C4A28050  26.060   5.826   7.664
 2027POPC   C1B28051  25.984   5.625   8.564
 2027POPC   C2B28052  26.025   5.602   8.264
 2027POPC   C3B28053  26.047   5.603   7.964
 2027POPC   C4B28054  26.040   5.667   7.664
 2028POPC   NC328055  34.595  32.275   9.464
 2028POPC   PO428056  34.587  32.295   9.164
 2028POPC   GL128057  34.572  32.261   8.864
 2028POPC   GL228058  34.537  32.098   8.864
 2028POPC   C1A28059  34.621  32.220   8.564
 2028POPC   D2A28060  34.540  32.201   8.264
 2028POPC   C3A28061  34.622  32.222   7.964
 2028POPC   C4A28062  34.620  32.294   7.664
 2028POPC   C1B28063  34.552  31.988   8.564
 2028POPC   C2B28064  34.537  32.018   8.264
 2028POPC   C3B28065  34.499  32.021   7.964
 2028POPC   C4B28066  34.544  31.969   7.664
 2029POPC   NC328067  40.739  33.783   9.464
 2029POPC   PO428068  40.769  33.836   9.164
 2029POPC   GL128069  40.780  33.825   8.864
 2029POPC   GL228070  40.831  33.713   8.864
 2029POPC   C1A28071  40.757  33.788   8.564
 2029POPC   D2A28072  40.820  33.760   8.264
 2029POPC   C3A28073  40.760  33.765   7.964
 2029POPC   C4A28074  40.764  33.839   7.664
 2029POPC   C1B28075  40.946  33.645   8.564
 2029POPC   C2B28076  40.954  33.645   8.264
 2029POPC   C3B28077  40.900  33.586   7.964
 2029POPC   C4B28078  40.964  33.569   7.664
 2030POPC   NC328079  24.464  26.052   9.464
 2030POPC   PO428080  24.508  26.036   9.164
 2030POPC   GL128081  24.466  26.016   8.864
 2030POPC   GL228082  24.458  26.167   8.864
 2030POPC   C1A28083  24.461  26.031   8.564
 2030POPC   D2A28084  24.535  26.010   8.264
 2030POPC   C3A28085  24.506  26.060   7.964
 2030POPC   C4A28086  24.503  26.087   7.664
 2030POPC   C1B28087  24.387  26.275   8.564
 2030POPC   C2B28088  24.405  26.323   8.264
 2030POPC   C3B28089  24.394  26.277   7.964
 2030POPC   C4B28090  24.388  26.273   7.664
 2031POPC   NC328091   1.986  36.944   9.464
 2031POPC   PO428092   1.972  36.888   9.164
 2031POPC   GL128093   1.981  36.880   8.864
 2031POPC   GL228094   1.881  36.939   8.864
 2031POPC   C1A28095   2.034  36.874   8.564
 2031POPC   D2A28096   1.977  36.856   8.264
 2031POPC   C3A28097   1.972  36.857   7.964
 2031POPC   C4A28098   2.016  36.879   7.664
 2031POPC   C1B28099   1.716  36.960   8.564
 2031POPC   C2B28100   1.713  36.956   8.264
 2031POPC   C3B28101   1.757  37.024   7.964
 2031POPC   C4B28102   1.728  36.955   7.664
 2032POPC   NC328103  32.278  33.835   9.464
 2032POPC   PO428104  32.256  33.807   9.164
 2032POPC   GL128105  32.253  33.781   8.864
 2032POPC   GL228106  32.152  33.782   8.864
 2032POPC   C1A28107  32.243  33.840   8.564
 2032POPC   D2A28108  32.243  33.751   8.264
 2032POPC   C3A28109  32.258  33.833   7.964
 2032POPC   C4A28110  32.286  33.798   7.664
 2032POPC   C1B28111  32.037  33.848   8.564
 2032POPC   C2B28112  32.052  33.817   8.264
 2032POPC   C3B28113  31.998  33.841   7.964
 2032POPC   C4B28114  31.995  33.882   7.664
 2033POPC   NC328115  27.558  15.184   9.464
 2033POPC   PO428116  27.598  15.227   9.164
 2033POPC   GL128117  27.606  15.178   8.864
 2033POPC   GL228118  27.722  15.203   8.864
 2033POPC   C1A28119  27.621  15.215   8.564
 2033POPC   D2A28120  27.555  15.220   8.264
 2033POPC   C3A28121  27.614  15.147   7.964
 2033POPC   C4A28122  27.611  15.131   7.664
 2033POPC   C1B28123  27.845  15.186   8.564
 2033POPC   C2B28124  27.815  15.239   8.264
 2033POPC   C3B28125  27.828  15.209   7.964
 2033POPC   C4B28126  27.807  15.187   7.664
 2034POPC   NC328127   5.104  43.085   9.464
 2034POPC   PO428128   5.089  43.118   9.164
 2034POPC   GL128129   5.109  43.087   8.864
 2034POPC   GL228130   5.243  43.022   8.864
 2034POPC   C1A28131   5.082  43.072   8.564
 2034POPC   D2A28132   5.068  43.151   8.264
 2034POPC   C3A28133   5.048  43.137   7.964
 2034POPC   C4A28134   5.071  43.158   7.664
 2034POPC   C1B28135   5.319  42.953   8.564
 2034POPC   C2B28136   5.310  42.969   8.264
 2034POPC   C3B28137   5.280  42.952   7.964
 2034POPC   C4B28138   5.322  43.034   7.664
 2035POPC   NC328139  12.112  33.042   9.464
 2035POPC   PO428140  12.111  33.024   9.164
 2035POPC   GL128141  12.079  33.045   8.864
 2035POPC   GL228142  12.031  32.861   8.864
 2035POPC   C1A28143  12.085  33.043   8.564
 2035POPC   D2A28144  12.099  33.001   8.264
 2035POPC   C3A28145  12.027  33.017   7.964
 2035POPC   C4A28146  12.068  33.017   7.664
 2035POPC   C1B28147  11.933  32.804   8.564
 2035POPC   C2B28148  12.006  32.771   8.264
 2035POPC   C3B28149  12.002  32.777   7.964
 2035POPC   C4B28150  11.979  32.779   7.664
 2036POPC   NC328151  18.325  16.722   9.464
 2036POPC   PO428152  18.258  16.722   9.164
 2036POPC   GL128153  18.316  16.698   8.864
 2036POPC   GL228154  18.390  16.632   8.864
 2036POPC   C1A28155  18.275  16.729   8.564
 2036POPC   D2A28156  18.316  16.741   8.264
 2036POPC   C3A28157  18.316  16.703   7.964
 2036POPC   C4A28158  18.271  16.707   7.664
 2036POPC   C1B28159  18.480  16.627   8.564
 2036POPC   C2B28160  18.483  16.606   8.264
 2036POPC   C3B28161  18.489  16.607   7.964
 2036POPC   C4B28162  18.526  16.624   7.664
 2037POPC   NC328163  17.516  15.135   9.464
 2037POPC   PO428164  17.531  15.187   9.164
 2037POPC   GL128165  17.457  15.217   8.864
 2037POPC   GL228166  17.477  15.287   8.864
 2037POPC   C1A28167  17.512  15.214   8.564
 2037POPC   D2A28168  17.503  15.155   8.264
 2037POPC   C3A28169  17.546  15.167   7.964
 2037POPC   C4A28170  17.543  15.170   7.664
 2037POPC   C1B28171  17.505  15.464   8.564
 2037POPC   C2B28172  17.545  15.473   8.264
 2037POPC   C3B28173  17.568  15.444   7.964
 2037POPC   C4B28174  17.571  15.408   7.664
 2038POPC   NC328175  34.588  14.442   9.464
 2038POPC   PO428176  34.552  14.434   9.164
 2038POPC   GL128177  34.582  14.362   8.864
 2038POPC   GL228178  34.544  14.552   8.864
 2038POPC   C1A28179  34.617  14.396   8.564
 2038POPC   D2A28180  34.560  14.415   8.264
 2038POPC   C3A28181  34.532  14.376   7.964
 2038POPC   C4A28182  34.606  14.434   7.664
 2038POPC   C1B28183  34.538  14.627   8.564
 2038POPC   C2B28184  34.465  14.656   8.264
 2038POPC   C3B28185  34.462  14.658   7.964
 2038POPC   C4B28186  34.483  14.641   7.664
 2039POPC   NC328187  23.738  23.747   9.464
 2039POPC   PO428188  23.703  23.714   9.164
 2039POPC   GL128189  23.763  23.723   8.864
 2039POPC   GL228190  23.784  23.854   8.864
 2039POPC   C1A28191  23.719  23.698   8.564
 2039POPC   D2A28192  23.674  23.698   8.264
 2039POPC   C3A28193  23.676  23.682   7.964
 2039POPC   C4A28194  23.677  23.756   7.664
 2039POPC   C1B28195  23.771  23.951   8.564
 2039POPC   C2B28196  23.815  23.965   8.264
 2039POPC   C3B28197  23.769  23.964   7.964
 2039POPC   C4B28198  23.751  23.981   7.664
 2040POPC   NC328199  12.836   6.625   9.464
 2040POPC   PO428200  12.859   6.617   9.164
 2040POPC   GL128201  12.805   6.685   8.864
 2040POPC   GL228202  12.776   6.665   8.864
 2040POPC   C1A28203  12.863   6.629   8.564
 2040POPC   D2A28204  12.814   6.632   8.264
 2040POPC   C3A28205  12.849   6.664   7.964
 2040POPC   C4A28206  12.871   6.630   7.664
 2040POPC   C1B28207  12.647   6.762   8.564
 2040POPC   C2B28208  12.652   6.785   8.264
 2040POPC   C3B28209  12.653   6.718   7.964
 2040POPC   C4B28210  12.634   6.760   7.664
 2041POPC   NC328211  29.884  33.775   9.464
 2041POPC   PO428212  29.876  33.833   9.164
 2041POPC   GL128213  29.938  33.805   8.864
 2041POPC   GL228214  29.825  33.769   8.864
 2041POPC   C1A28215  29.881  33.807   8.564
 2041POPC   D2A28216  29.904  33.845   8.264
 2041POPC   C3A28217  29.878  33.770   7.964
 2041POPC   C4A28218  29.931  33.788   7.664
 2041POPC   C1B28219  29.640  33.804   8.564
 2041POPC   C2B28220  29.688  33.794   8.264
 2041POPC   C3B28221  29.712  33.745   7.964
 2041POPC   C4B28222  29.678  33.782   7.664
 2042POPC   NC328223  34.549  36.158   9.464
 2042POPC   PO428224  34.579  36.083   9.164
 2042POPC   GL128225  34.570  36.102   8.864
 2042POPC   GL228226  34.611  36.016   8.864
 2042POPC   C1A28227  34.576  36.144   8.564
 2042POPC   D2A28228  34.598  36.126   8.264
 2042POPC   C3A28229  34.625  36.173   7.964
 2042POPC   C4A28230  34.610  36.146   7.664
 2042POPC   C1B28231  34.511  35.881   8.564
 2042POPC   C2B28232  34.535  35.844   8.264
 2042POPC   C3B28233  34.597  35.924   7.964
 2042POPC   C4B28234  34.594  35.888   7.664
 2043POPC   NC328235  32.229  12.814   9.464
 2043POPC   PO428236  32.261  12.822   9.164
 2043POPC   GL128237  32.228  12.822   8.864
 2043POPC   GL228238  32.373  12.820   8.864
 2043POPC   C1A28239  32.288  12.861   8.564
 2043POPC   D2A28240  32.232  12.804   8.264
 2043POPC   C3A28241  32.217  12.840   7.964
 2043POPC   C4A28242  32.221  12.811   7.664
 2043POPC   C1B28243  32.513  12.739   8.564
 2043POPC   C2B28244  32.452  12.779   8.264
 2043POPC   C3B28245  32.530  12.786   7.964
 2043POPC   C4B28246  32.506  12.737   7.664
 2044POPC   NC328247   2.030  16.706   9.464
 2044POPC   PO428248   2.015  16.767   9.164
 2044POPC   GL128249   1.974  16.734   8.864
 2044POPC   GL228250   1.875  16.672   8.864
 2044POPC   C1A28251   1.956  16.774   8.564
 2044POPC   D2A28252   2.014  16.722   8.264
 2044POPC   C3A28253   2.030  16.697   7.964
 2044POPC   C4A28254   1.943  16.735   7.664
 2044POPC   C1B28255   1.798  16.545   8.564
 2044POPC   C2B28256   1.838  16.522   8.264
 2044POPC   C3B28257   1.849  16.531   7.964
 2044POPC   C4B28258   1.790  16.501   7.664
 2045POPC   NC328259  15.922  28.391   9.464
 2045POPC   PO428260  15.999  28.377   9.164
 2045POPC   GL128261  15.956  28.364   8.864
 2045POPC   GL228262  15.969  28.252   8.864
 2045POPC   C1A28263  15.987  28.358   8.564
 2045POPC   D2A28264  15.980  28.376   8.264
 2045POPC   C3A28265  15.976  28.370   7.964
 2045POPC   C4A28266  15.971  28.368   7.664
 2045POPC   C1B28267  16.077  28.138   8.564
 2045POPC   C2B28268  16.078  28.192   8.264
 2045POPC   C3B28269  16.107  28.178   7.964
 2045POPC   C4B28270  16.022  28.096   7.664
 2046POPC   NC328271  33.045  38.499   9.464
 2046POPC   PO428272  33.053  38.448   9.164
 2046POPC   GL128273  33.051  38.498   8.864
 2046POPC   GL228274  32.872  38.426   8.864
 2046POPC   C1A28275  33.034  38.437   8.564
 2046POPC   D2A28276  32.978  38.408   8.264
 2046POPC   C3A28277  33.072  38.501   7.964
 2046POPC   C4A28278  33.028  38.472   7.664
 2046POPC   C1B28279  32.792  38.523   8.564
 2046POPC   C2B28280  32.728  38.503   8.264
 2046POPC   C3B28281  32.743  38.523   7.964
 2046POPC   C4B28282  32.753  38.510   7.664
 2047POPC   NC328283  17.495  40.804   9.464
 2047POPC   PO428284  17.556  40.813   9.164
 2047POPC   GL128285  17.469  40.799   8.864
 2047POPC   GL228286  17.427  40.801   8.864
 2047POPC   C1A28287  17.499  40.795   8.564
 2047POPC   D2A28288  17.508  40.764   8.264
 2047POPC   C3A28289  17.536  40.747   7.964
 2047POPC   C4A28290  17.488  40.750   7.664
 2047POPC   C1B28291  17.253  40.919   8.564
 2047POPC   C2B28292  17.308  40.917   8.264
 2047POPC   C3B28293  17.323  40.927   7.964
 2047POPC   C4B28294  17.286  40.862   7.664
 2048POPC   NC328295  19.065   2.018   9.464
 2048POPC   PO428296  19.068   1.985   9.164
 2048POPC   GL128297  19.017   2.021   8.864
 2048POPC   GL228298  19.166   2.029   8.864
 2048POPC   C1A28299  19.011   2.016   8.564
 2048POPC   D2A28300  19.083   1.952   8.264
 2048POPC   C3A28301  19.073   1.992   7.964
 2048POPC   C4A28302  19.047   1.972   7.664
 2048POPC   C1B28303  19.212   2.182   8.564
 2048POPC   C2B28304  19.233   2.129   8.264
 2048POPC   C3B28305  19.226   2.163   7.964
 2048POPC   C4B28306  19.281   2.144   7.664
 2049POPC   NC328307   4.332  12.030   9.464
 2049POPC   PO428308   4.365  12.075   9.164
 2049POPC   GL128309   4.287  12.060   8.864
 2049POPC   GL228310   4.461  12.012   8.864
 2049POPC   C1A28311   4.328  12.041   8.564
 2049POPC   D2A28312   4.274  12.028   8.264
 2049POPC   C3A28313   4.298  12.040   7.964
 2049POPC   C4A28314   4.330  12.094   7.664
 2049POPC   C1B28315   4.583  12.041   8.564
 2049POPC   C2B28316   4.584  11.999   8.264
 2049POPC   C3B28317   4.595  12.024   7.964
 2049POPC   C4B28318   4.557  12.062   7.664
 2050POPC   NC328319  44.646  40.830   9.464
 2050POPC   PO428320  44.613  40.787   9.164
 2050POPC   GL128321  44.655  40.826   8.864
 2050POPC   GL228322  44.594  40.867   8.864
 2050POPC   C1A28323  44.675  40.793   8.564
 2050POPC   D2A28324  44.690  40.793   8.264
 2050POPC   C3A28325  44.658  40.756   7.964
 2050POPC   C4A28326  44.652  40.735   7.664
 2050POPC   C1B28327  44.454  40.858   8.564
 2050POPC   C2B28328  44.457  40.850   8.264
 2050POPC   C3B28329  44.400  40.933   7.964
 2050POPC   C4B28330  44.404  40.929   7.664
 2051POPC   NC328331   8.169  15.989   9.464
 2051POPC   PO428332   8.188  15.910   9.164
 2051POPC   GL128333   8.182  15.934   8.864
 2051POPC   GL228334   8.204  15.879   8.864
 2051POPC   C1A28335   8.186  15.975   8.564
 2051POPC   D2A28336   8.233  16.001   8.264
 2051POPC   C3A28337   8.150  15.959   7.964
 2051POPC   C4A28338   8.195  15.971   7.664
 2051POPC   C1B28339   8.172  15.764   8.564
 2051POPC   C2B28340   8.112  15.687   8.264
 2051POPC   C3B28341   8.177  15.745   7.964
 2051POPC   C4B28342   8.167  15.752   7.664
 2052POPC   NC328343   1.982  42.350   9.464
 2052POPC   PO428344   2.017  42.345   9.164
 2052POPC   GL128345   1.970  42.287   8.864
 2052POPC   GL228346   1.864  42.290   8.864
 2052POPC   C1A28347   2.030  42.294   8.564
 2052POPC   D2A28348   2.012  42.299   8.264
 2052POPC   C3A28349   1.993  42.291   7.964
 2052POPC   C4A28350   1.979  42.298   7.664
 2052POPC   C1B28351   1.764  42.205   8.564
 2052POPC   C2B28352   1.777  42.200   8.264
 2052POPC   C3B28353   1.772  42.221   7.964
 2052POPC   C4B28354   1.775  42.203   7.664
 2053POPC   NC328355  34.560  40.776   9.464
 2053POPC   PO428356  34.526  40.815   9.164
 2053POPC   GL128357  34.547  40.789   8.864
 2053POPC   GL228358  34.515  40.722   8.864
 2053POPC   C1A28359  34.579  40.795   8.564
 2053POPC   D2A28360  34.578  40.792   8.264
 2053POPC   C3A28361  34.544  40.778   7.964
 2053POPC   C4A28362  34.625  40.774   7.664
 2053POPC   C1B28363  34.429  40.645   8.564
 2053POPC   C2B28364  34.450  40.612   8.264
 2053POPC   C3B28365  34.426  40.646   7.964
 2053POPC   C4B28366  34.406  40.616   7.664
 2054POPC   NC328367  12.076  28.335   9.464
 2054POPC   PO428368  12.098  28.388   9.164
 2054POPC   GL128369  12.043  28.384   8.864
 2054POPC   GL228370  12.001  28.250   8.864
 2054POPC   C1A28371  12.107  28.334   8.564
 2054POPC   D2A28372  12.088  28.397   8.264
 2054POPC   C3A28373  12.032  28.412   7.964
 2054POPC   C4A28374  12.074  28.366   7.664
 2054POPC   C1B28375  11.931  28.205   8.564
 2054POPC   C2B28376  11.914  28.158   8.264
 2054POPC   C3B28377  11.915  28.190   7.964
 2054POPC   C4B28378  11.856  28.210   7.664
 2055POPC   NC328379  12.067   9.778   9.464
 2055POPC   PO428380  12.087   9.720   9.164
 2055POPC   GL128381  12.050   9.767   8.864
 2055POPC   GL228382  12.052   9.589   8.864
 2055POPC   C1A28383  12.036   9.789   8.564
 2055POPC   D2A28384  12.040   9.797   8.264
 2055POPC   C3A28385  12.104   9.793   7.964
 2055POPC   C4A28386  12.060   9.790   7.664
 2055POPC   C1B28387  11.989   9.550   8.564
 2055POPC   C2B28388  11.933   9.554   8.264
 2055POPC   C3B28389  12.011   9.508   7.964
 2055POPC   C4B28390  11.950   9.488   7.664
 2056POPC   NC328391  11.328  17.485   9.464
 2056POPC   PO428392  11.279  17.491   9.164
 2056POPC   GL128393  11.320  17.499   8.864
 2056POPC   GL228394  11.412  17.598   8.864
 2056POPC   C1A28395  11.333  17.544   8.564
 2056POPC   D2A28396  11.336  17.505   8.264
 2056POPC   C3A28397  11.269  17.479   7.964
 2056POPC   C4A28398  11.303  17.467   7.664
 2056POPC   C1B28399  11.487  17.652   8.564
 2056POPC   C2B28400  11.497  17.654   8.264
 2056POPC   C3B28401  11.458  17.718   7.964
 2056POPC   C4B28402  11.452  17.697   7.664
 2057POPC   NC328403  16.003  11.316   9.464
 2057POPC   PO428404  15.994  11.325   9.164
 2057POPC   GL128405  15.913  11.266   8.864
 2057POPC   GL228406  16.036  11.282   8.864
 2057POPC   C1A28407  15.985  11.250   8.564
 2057POPC   D2A28408  15.965  11.322   8.264
 2057POPC   C3A28409  15.992  11.321   7.964
 2057POPC   C4A28410  15.996  11.303   7.664
 2057POPC   C1B28411  16.204  11.340   8.564
 2057POPC   C2B28412  16.248  11.299   8.264
 2057POPC   C3B28413  16.245  11.323   7.964
 2057POPC   C4B28414  16.201  11.370   7.664
 2058POPC   NC328415  34.550  26.081   9.464
 2058POPC   PO428416  34.540  26.022   9.164
 2058POPC   GL128417  34.552  26.035   8.864
 2058POPC   GL228418  34.693  25.998   8.864
 2058POPC   C1A28419  34.589  26.024   8.564
 2058POPC   D2A28420  34.531  26.024   8.264
 2058POPC   C3A28421  34.615  26.063   7.964
 2058POPC   C4A28422  34.563  26.062   7.664
 2058POPC   C1B28423  34.804  25.920   8.564
 2058POPC   C2B28424  34.812  25.958   8.264
 2058POPC   C3B28425  34.782  25.889   7.964
 2058POPC   C4B28426  34.814  25.961   7.664
 2059POPC   NC328427  11.268  34.556   9.464
 2059POPC   PO428428  11.326  34.558   9.164
 2059POPC   GL128429  11.289  34.607   8.864
 2059POPC   GL228430  11.156  34.506   8.864
 2059POPC   C1A28431  11.276  34.594   8.564
 2059POPC   D2A28432  11.289  34.534   8.264
 2059POPC   C3A28433  11.341  34.570   7.964
 2059POPC   C4A28434  11.334  34.535   7.664
 2059POPC   C1B28435  11.018  34.545   8.564
 2059POPC   C2B28436  11.017  34.534   8.264
 2059POPC   C3B28437  11.042  34.516   7.964
 2059POPC   C4B28438  11.096  34.508   7.664
 2060POPC   NC328439  43.114  14.358   9.464
 2060POPC   PO428440  43.137  14.434   9.164
 2060POPC   GL128441  43.113  14.396   8.864
 2060POPC   GL228442  43.029  14.251   8.864
 2060POPC   C1A28443  43.129  14.357   8.564
 2060POPC   D2A28444  43.099  14.356   8.264
 2060POPC   C3A28445  43.145  14.381   7.964
 2060POPC   C4A28446  43.070  14.386   7.664
 2060POPC   C1B28447  42.998  14.194   8.564
 2060POPC   C2B28448  43.021  14.166   8.264
 2060POPC   C3B28449  43.028  14.149   7.964
 2060POPC   C4B28450  43.004  14.205   7.664
 2061POPC   NC328451  19.861  35.353   9.464
 2061POPC   PO428452  19.861  35.334   9.164
 2061POPC   GL128453  19.795  35.313   8.864
 2061POPC   GL228454  19.759  35.366   8.864
 2061POPC   C1A28455  19.799  35.393   8.564
 2061POPC   D2A28456  19.811  35.343   8.264
 2061POPC   C3A28457  19.803  35.312   7.964
 2061POPC   C4A28458  19.804  35.400   7.664
 2061POPC   C1B28459  19.615  35.493   8.564
 2061POPC   C2B28460  19.566  35.451   8.264
 2061POPC   C3B28461  19.562  35.414   7.964
 2061POPC   C4B28462  19.565  35.499   7.664
 2062POPC   NC328463  16.732  13.621   9.464
 2062POPC   PO428464  16.779  13.592   9.164
 2062POPC   GL128465  16.711  13.583   8.864
 2062POPC   GL228466  16.865  13.656   8.864
 2062POPC   C1A28467  16.775  13.665   8.564
 2062POPC   D2A28468  16.694  13.652   8.264
 2062POPC   C3A28469  16.750  13.619   7.964
 2062POPC   C4A28470  16.747  13.628   7.664
 2062POPC   C1B28471  17.024  13.584   8.564
 2062POPC   C2B28472  16.960  13.640   8.264
 2062POPC   C3B28473  17.006  13.603   7.964
 2062POPC   C4B28474  16.950  13.650   7.664
 2063POPC   NC328475   2.738  15.921   9.464
 2063POPC   PO428476   2.797  15.915   9.164
 2063POPC   GL128477   2.749  15.908   8.864
 2063POPC   GL228478   2.879  15.969   8.864
 2063POPC   C1A28479   2.717  15.959   8.564
 2063POPC   D2A28480   2.751  15.916   8.264
 2063POPC   C3A28481   2.723  15.987   7.964
 2063POPC   C4A28482   2.745  15.984   7.664
 2063POPC   C1B28483   3.008  15.959   8.564
 2063POPC   C2B28484   2.973  15.944   8.264
 2063POPC   C3B28485   3.060  15.984   7.964
 2063POPC   C4B28486   3.011  16.001   7.664
 2064POPC   NC328487   4.285  22.892   9.464
 2064POPC   PO428488   4.367  22.962   9.164
 2064POPC   GL128489   4.282  22.953   8.864
 2064POPC   GL228490   4.394  23.014   8.864
 2064POPC   C1A28491   4.281  22.890   8.564
 2064POPC   D2A28492   4.344  22.914   8.264
 2064POPC   C3A28493   4.365  22.913   7.964
 2064POPC   C4A28494   4.276  22.961   7.664
 2064POPC   C1B28495   4.557  23.012   8.564
 2064POPC   C2B28496   4.549  23.072   8.264
 2064POPC   C3B28497   4.512  23.068   7.964
 2064POPC   C4B28498   4.532  23.022   7.664
 2065POPC   NC328499   5.911  44.632   9.464
 2065POPC   PO428500   5.889  44.659   9.164
 2065POPC   GL128501   5.879  44.652   8.864
 2065POPC   GL228502   5.790  44.588   8.864
 2065POPC   C1A28503   5.844  44.640   8.564
 2065POPC   D2A28504   5.917  44.637   8.264
 2065POPC   C3A28505   5.894  44.654   7.964
 2065POPC   C4A28506   5.885  44.704   7.664
 2065POPC   C1B28507   5.619  44.616   8.564
 2065POPC   C2B28508   5.650  44.582   8.264
 2065POPC   C3B28509   5.590  44.603   7.964
 2065POPC   C4B28510   5.609  44.634   7.664
 2066POPC   NC328511  26.836  32.268   9.464
 2066POPC   PO428512  26.839  32.223   9.164
 2066POPC   GL128513  26.857  32.295   8.864
 2066POPC   GL228514  26.802  32.323   8.864
 2066POPC   C1A28515  26.810  32.275   8.564
 2066POPC   D2A28516  26.850  32.288   8.264
 2066POPC   C3A28517  26.810  32.215   7.964
 2066POPC   C4A28518  26.838  32.231   7.664
 2066POPC   C1B28519  26.915  32.518   8.564
 2066POPC   C2B28520  26.920  32.468   8.264
 2066POPC   C3B28521  26.856  32.471   7.964
 2066POPC   C4B28522  26.847  32.499   7.664
 2067POPC   NC328523  32.296  29.189   9.464
 2067POPC   PO428524  32.281  29.103   9.164
 2067POPC   GL128525  32.269  29.130   8.864
 2067POPC   GL228526  32.177  29.065   8.864
 2067POPC   C1A28527  32.201  29.148   8.564
 2067POPC   D2A28528  32.271  29.143   8.264
 2067POPC   C3A28529  32.295  29.100   7.964
 2067POPC   C4A28530  32.226  29.148   7.664
 2067POPC   C1B28531  32.048  29.021   8.564
 2067POPC   C2B28532  32.096  28.960   8.264
 2067POPC   C3B28533  32.087  29.024   7.964
 2067POPC   C4B28534  32.030  29.007   7.664
 2068POPC   NC328535  17.531  12.089   9.464
 2068POPC   PO428536  17.465  12.079   9.164
 2068POPC   GL128537  17.541  12.121   8.864
 2068POPC   GL228538  17.596  12.056   8.864
 2068POPC   C1A28539  17.536  12.086   8.564
 2068POPC   D2A28540  17.484  12.040   8.264
 2068POPC   C3A28541  17.556  12.067   7.964
 2068POPC   C4A28542  17.553  12.067   7.664
 2068POPC   C1B28543  17.756  12.127   8.564
 2068POPC   C2B28544  17.733  12.066   8.264
 2068POPC   C3B28545  17.743  12.044   7.964
 2068POPC   C4B28546  17.729  12.099   7.664
 2069POPC   NC328547  15.150  21.349   9.464
 2069POPC   PO428548  15.184  21.432   9.164
 2069POPC   GL128549  15.133  21.402   8.864
 2069POPC   GL228550  15.149  21.323   8.864
 2069POPC   C1A28551  15.226  21.360   8.564
 2069POPC   D2A28552  15.156  21.414   8.264
 2069POPC   C3A28553  15.145  21.354   7.964
 2069POPC   C4A28554  15.165  21.416   7.664
 2069POPC   C1B28555  15.014  21.151   8.564
 2069POPC   C2B28556  15.111  21.163   8.264
 2069POPC   C3B28557  15.059  21.198   7.964
 2069POPC   C4B28558  15.037  21.120   7.664
 2070POPC   NC328559  44.694  19.836   9.464
 2070POPC   PO428560  44.707  19.828   9.164
 2070POPC   GL128561  44.678  19.820   8.864
 2070POPC   GL228562  44.526  19.728   8.864
 2070POPC   C1A28563  44.663  19.879   8.564
 2070POPC   D2A28564  44.677  19.828   8.264
 2070POPC   C3A28565  44.667  19.814   7.964
 2070POPC   C4A28566  44.669  19.812   7.664
 2070POPC   C1B28567  44.523  19.621   8.564
 2070POPC   C2B28568  44.495  19.706   8.264
 2070POPC   C3B28569  44.467  19.646   7.964
 2070POPC   C4B28570  44.522  19.697   7.664
 2071POPC   NC328571  29.947  28.350   9.464
 2071POPC   PO428572  29.881  28.348   9.164
 2071POPC   GL128573  29.937  28.360   8.864
 2071POPC   GL228574  29.924  28.462   8.864
 2071POPC   C1A28575  29.901  28.384   8.564
 2071POPC   D2A28576  29.942  28.359   8.264
 2071POPC   C3A28577  29.946  28.322   7.964
 2071POPC   C4A28578  29.906  28.388   7.664
 2071POPC   C1B28579  29.903  28.592   8.564
 2071POPC   C2B28580  29.876  28.611   8.264
 2071POPC   C3B28581  29.851  28.573   7.964
 2071POPC   C4B28582  29.855  28.630   7.664
 2072POPC   NC328583  15.999   5.076   9.464
 2072POPC   PO428584  15.908   5.047   9.164
 2072POPC   GL128585  15.985   5.101   8.864
 2072POPC   GL228586  15.877   5.037   8.864
 2072POPC   C1A28587  15.936   5.123   8.564
 2072POPC   D2A28588  15.910   5.094   8.264
 2072POPC   C3A28589  16.004   5.132   7.964
 2072POPC   C4A28590  15.908   5.125   7.664
 2072POPC   C1B28591  15.721   4.969   8.564
 2072POPC   C2B28592  15.688   5.008   8.264
 2072POPC   C3B28593  15.712   4.980   7.964
 2072POPC   C4B28594  15.774   4.948   7.664
 2073POPC   NC328595   4.268  26.860   9.464
 2073POPC   PO428596   4.289  26.837   9.164
 2073POPC   GL128597   4.287  26.825   8.864
 2073POPC   GL228598   4.407  26.782   8.864
 2073POPC   C1A28599   4.289  26.779   8.564
 2073POPC   D2A28600   4.306  26.817   8.264
 2073POPC   C3A28601   4.294  26.798   7.964
 2073POPC   C4A28602   4.323  26.778   7.664
 2073POPC   C1B28603   4.484  26.646   8.564
 2073POPC   C2B28604   4.503  26.610   8.264
 2073POPC   C3B28605   4.487  26.686   7.964
 2073POPC   C4B28606   4.506  26.666   7.664
 2074POPC   NC328607  22.973   1.175   9.464
 2074POPC   PO428608  22.907   1.197   9.164
 2074POPC   GL128609  22.968   1.261   8.864
 2074POPC   GL228610  22.984   1.107   8.864
 2074POPC   C1A28611  22.911   1.176   8.564
 2074POPC   D2A28612  22.973   1.211   8.264
 2074POPC   C3A28613  22.941   1.167   7.964
 2074POPC   C4A28614  22.964   1.185   7.664
 2074POPC   C1B28615  23.010   0.986   8.564
 2074POPC   C2B28616  22.999   0.983   8.264
 2074POPC   C3B28617  23.023   0.992   7.964
 2074POPC   C4B28618  23.018   0.979   7.664
 2075POPC   NC328619  43.097  20.645   9.464
 2075POPC   PO428620  43.112  20.585   9.164
 2075POPC   GL128621  43.103  20.565   8.864
 2075POPC   GL228622  43.260  20.604   8.864
 2075POPC   C1A28623  43.072  20.609   8.564
 2075POPC   D2A28624  43.068  20.569   8.264
 2075POPC   C3A28625  43.060  20.601   7.964
 2075POPC   C4A28626  43.068  20.567   7.664
 2075POPC   C1B28627  43.344  20.569   8.564
 2075POPC   C2B28628  43.317  20.586   8.264
 2075POPC   C3B28629  43.321  20.624   7.964
 2075POPC   C4B28630  43.380  20.570   7.664
 2076POPC   NC328631  12.853  19.859   9.464
 2076POPC   PO428632  12.817  19.798   9.164
 2076POPC   GL128633  12.837  19.880   8.864
 2076POPC   GL228634  12.708  19.879   8.864
 2076POPC   C1A28635  12.812  19.869   8.564
 2076POPC   D2A28636  12.842  19.882   8.264
 2076POPC   C3A28637  12.895  19.883   7.964
 2076POPC   C4A28638  12.820  19.845   7.664
 2076POPC   C1B28639  12.608  19.788   8.564
 2076POPC   C2B28640  12.565  19.811   8.264
 2076POPC   C3B28641  12.593  19.846   7.964
 2076POPC   C4B28642  12.573  19.793   7.664
 2077POPC   NC328643  16.700  32.988   9.464
 2077POPC   PO428644  16.777  33.004   9.164
 2077POPC   GL128645  16.745  32.980   8.864
 2077POPC   GL228646  16.888  32.944   8.864
 2077POPC   C1A28647  16.712  33.001   8.564
 2077POPC   D2A28648  16.759  33.029   8.264
 2077POPC   C3A28649  16.691  32.981   7.964
 2077POPC   C4A28650  16.687  33.042   7.664
 2077POPC   C1B28651  16.941  32.928   8.564
 2077POPC   C2B28652  16.978  32.940   8.264
 2077POPC   C3B28653  16.987  32.920   7.964
 2077POPC   C4B28654  16.928  32.969   7.664
 2078POPC   NC328655  26.814   1.997   9.464
 2078POPC   PO428656  26.838   1.968   9.164
 2078POPC   GL128657  26.832   2.028   8.864
 2078POPC   GL228658  26.952   2.044   8.864
 2078POPC   C1A28659  26.855   1.972   8.564
 2078POPC   D2A28660  26.836   1.991   8.264
 2078POPC   C3A28661  26.770   1.982   7.964
 2078POPC   C4A28662  26.844   2.000   7.664
 2078POPC   C1B28663  27.003   2.116   8.564
 2078POPC   C2B28664  27.074   2.100   8.264
 2078POPC   C3B28665  27.002   2.096   7.964
 2078POPC   C4B28666  27.035   2.131   7.664
 2079POPC   NC328667  14.447  11.332   9.464
 2079POPC   PO428668  14.361  11.259   9.164
 2079POPC   GL128669  14.386  11.340   8.864
 2079POPC   GL228670  14.291  11.364   8.864
 2079POPC   C1A28671  14.453  11.347   8.564
 2079POPC   D2A28672  14.442  11.264   8.264
 2079POPC   C3A28673  14.365  11.279   7.964
 2079POPC   C4A28674  14.442  11.335   7.664
 2079POPC   C1B28675  14.238  11.438   8.564
 2079POPC   C2B28676  14.185  11.461   8.264
 2079POPC   C3B28677  14.191  11.481   7.964
 2079POPC   C4B28678  14.162  11.434   7.664
 2080POPC   NC328679  15.131  35.384   9.464
 2080POPC   PO428680  15.225  35.305   9.164
 2080POPC   GL128681  15.212  35.315   8.864
 2080POPC   GL228682  15.266  35.514   8.864
 2080POPC   C1A28683  15.226  35.329   8.564
 2080POPC   D2A28684  15.197  35.345   8.264
 2080POPC   C3A28685  15.214  35.330   7.964
 2080POPC   C4A28686  15.146  35.346   7.664
 2080POPC   C1B28687  15.317  35.631   8.564
 2080POPC   C2B28688  15.245  35.602   8.264
 2080POPC   C3B28689  15.300  35.572   7.964
 2080POPC   C4B28690  15.293  35.627   7.664
 2081POPC   NC328691  26.067  29.885   9.464
 2081POPC   PO428692  26.052  29.954   9.164
 2081POPC   GL128693  26.041  29.876   8.864
 2081POPC   GL228694  25.994  30.029   8.864
 2081POPC   C1A28695  26.028  29.950   8.564
 2081POPC   D2A28696  26.073  29.877   8.264
 2081POPC   C3A28697  26.066  29.879   7.964
 2081POPC   C4A28698  26.023  29.970   7.664
 2081POPC   C1B28699  25.954  30.106   8.564
 2081POPC   C2B28700  25.865  30.122   8.264
 2081POPC   C3B28701  25.866  30.086   7.964
 2081POPC   C4B28702  25.913  30.125   7.664
 2082POPC   NC328703  29.886   1.173   9.464
 2082POPC   PO428704  29.959   1.183   9.164
 2082POPC   GL128705  29.967   1.232   8.864
 2082POPC   GL228706  29.899   1.338   8.864
 2082POPC   C1A28707  29.950   1.235   8.564
 2082POPC   D2A28708  29.953   1.234   8.264
 2082POPC   C3A28709  29.903   1.202   7.964
 2082POPC   C4A28710  29.936   1.180   7.664
 2082POPC   C1B28711  29.771   1.396   8.564
 2082POPC   C2B28712  29.800   1.429   8.264
 2082POPC   C3B28713  29.776   1.441   7.964
 2082POPC   C4B28714  29.796   1.402   7.664
 2083POPC   NC328715   4.300  26.087   9.464
 2083POPC   PO428716   4.336  26.084   9.164
 2083POPC   GL128717   4.328  26.001   8.864
 2083POPC   GL228718   4.223  25.972   8.864
 2083POPC   C1A28719   4.304  26.004   8.564
 2083POPC   D2A28720   4.320  26.047   8.264
 2083POPC   C3A28721   4.311  26.061   7.964
 2083POPC   C4A28722   4.325  26.055   7.664
 2083POPC   C1B28723   4.170  25.816   8.564
 2083POPC   C2B28724   4.236  25.842   8.264
 2083POPC   C3B28725   4.169  25.857   7.964
 2083POPC   C4B28726   4.162  25.800   7.664
 2084POPC   NC328727   1.183  12.900   9.464
 2084POPC   PO428728   1.179  12.861   9.164
 2084POPC   GL128729   1.202  12.885   8.864
 2084POPC   GL228730   1.323  12.754   8.864
 2084POPC   C1A28731   1.186  12.807   8.564
 2084POPC   D2A28732   1.236  12.883   8.264
 2084POPC   C3A28733   1.225  12.834   7.964
 2084POPC   C4A28734   1.236  12.826   7.664
 2084POPC   C1B28735   1.316  12.667   8.564
 2084POPC   C2B28736   1.371  12.638   8.264
 2084POPC   C3B28737   1.406  12.681   7.964
 2084POPC   C4B28738   1.352  12.654   7.664
 2085POPC   NC328739  27.546  29.926   9.464
 2085POPC   PO428740  27.592  29.882   9.164
 2085POPC   GL128741  27.575  29.895   8.864
 2085POPC   GL228742  27.739  29.970   8.864
 2085POPC   C1A28743  27.589  29.891   8.564
 2085POPC   D2A28744  27.564  29.924   8.264
 2085POPC   C3A28745  27.641  29.874   7.964
 2085POPC   C4A28746  27.544  29.968   7.664
 2085POPC   C1B28747  27.786  30.058   8.564
 2085POPC   C2B28748  27.838  29.988   8.264
 2085POPC   C3B28749  27.822  30.042   7.964
 2085POPC   C4B28750  27.819  30.052   7.664
 2086POPC   NC328751  19.011  26.015   9.464
 2086POPC   PO428752  19.028  26.080   9.164
 2086POPC   GL128753  19.107  26.065   8.864
 2086POPC   GL228754  19.164  25.945   8.864
 2086POPC   C1A28755  19.087  26.034   8.564
 2086POPC   D2A28756  19.023  26.028   8.264
 2086POPC   C3A28757  19.084  26.056   7.964
 2086POPC   C4A28758  19.088  26.044   7.664
 2086POPC   C1B28759  19.232  25.936   8.564
 2086POPC   C2B28760  19.245  25.857   8.264
 2086POPC   C3B28761  19.269  25.930   7.964
 2086POPC   C4B28762  19.218  25.928   7.664
 2087POPC   NC328763  21.417   4.325   9.464
 2087POPC   PO428764  21.416   4.317   9.164
 2087POPC   GL128765  21.408   4.308   8.864
 2087POPC   GL228766  21.278   4.403   8.864
 2087POPC   C1A28767  21.397   4.341   8.564
 2087POPC   D2A28768  21.429   4.296   8.264
 2087POPC   C3A28769  21.384   4.336   7.964
 2087POPC   C4A28770  21.338   4.293   7.664
 2087POPC   C1B28771  21.266   4.509   8.564
 2087POPC   C2B28772  21.232   4.500   8.264
 2087POPC   C3B28773  21.255   4.500   7.964
 2087POPC   C4B28774  21.207   4.566   7.664
 2088POPC   NC328775  39.215  15.925   9.464
 2088POPC   PO428776  39.270  16.000   9.164
 2088POPC   GL128777  39.254  16.002   8.864
 2088POPC   GL228778  39.174  15.800   8.864
 2088POPC   C1A28779  39.198  15.999   8.564
 2088POPC   D2A28780  39.254  15.991   8.264
 2088POPC   C3A28781  39.265  15.978   7.964
 2088POPC   C4A28782  39.199  15.985   7.664
 2088POPC   C1B28783  39.184  15.672   8.564
 2088POPC   C2B28784  39.202  15.703   8.264
 2088POPC   C3B28785  39.148  15.685   7.964
 2088POPC   C4B28786  39.141  15.704   7.664
 2089POPC   NC328787   4.299  19.036   9.464
 2089POPC   PO428788   4.333  19.013   9.164
 2089POPC   GL128789   4.321  19.075   8.864
 2089POPC   GL228790   4.146  19.031   8.864
 2089POPC   C1A28791   4.294  19.009   8.564
 2089POPC   D2A28792   4.294  19.070   8.264
 2089POPC   C3A28793   4.292  19.010   7.964
 2089POPC   C4A28794   4.294  19.051   7.664
 2089POPC   C1B28795   4.019  19.083   8.564
 2089POPC   C2B28796   4.091  19.077   8.264
 2089POPC   C3B28797   4.039  19.079   7.964
 2089POPC   C4B28798   4.076  19.079   7.664
 2090POPC   NC328799   4.297   6.650   9.464
 2090POPC   PO428800   4.352   6.616   9.164
 2090POPC   GL128801   4.314   6.607   8.864
 2090POPC   GL228802   4.411   6.597   8.864
 2090POPC   C1A28803   4.294   6.656   8.564
 2090POPC   D2A28804   4.309   6.671   8.264
 2090POPC   C3A28805   4.341   6.667   7.964
 2090POPC   C4A28806   4.360   6.633   7.664
 2090POPC   C1B28807   4.614   6.572   8.564
 2090POPC   C2B28808   4.599   6.580   8.264
 2090POPC   C3B28809   4.559   6.593   7.964
 2090POPC   C4B28810   4.553   6.627   7.664
 2091POPC   NC328811  42.335  31.489   9.464
 2091POPC   PO428812  42.367  31.430   9.164
 2091POPC   GL128813  42.339  31.490   8.864
 2091POPC   GL228814  42.406  31.614   8.864
 2091POPC   C1A28815  42.288  31.516   8.564
 2091POPC   D2A28816  42.357  31.452   8.264
 2091POPC   C3A28817  42.346  31.521   7.964
 2091POPC   C4A28818  42.374  31.519   7.664
 2091POPC   C1B28819  42.463  31.672   8.564
 2091POPC   C2B28820  42.499  31.656   8.264
 2091POPC   C3B28821  42.466  31.664   7.964
 2091POPC   C4B28822  42.509  31.680   7.664
 2092POPC   NC328823  33.070  21.375   9.464
 2092POPC   PO428824  33.064  21.342   9.164
 2092POPC   GL128825  32.979  21.402   8.864
 2092POPC   GL228826  32.869  21.307   8.864
 2092POPC   C1A28827  33.000  21.433   8.564
 2092POPC   D2A28828  33.019  21.407   8.264
 2092POPC   C3A28829  33.054  21.371   7.964
 2092POPC   C4A28830  33.052  21.374   7.664
 2092POPC   C1B28831  32.773  21.255   8.564
 2092POPC   C2B28832  32.805  21.308   8.264
 2092POPC   C3B28833  32.822  21.335   7.964
 2092POPC   C4B28834  32.768  21.269   7.664
 2093POPC   NC328835   2.012  30.696   9.464
 2093POPC   PO428836   2.027  30.673   9.164
 2093POPC   GL128837   2.014  30.745   8.864
 2093POPC   GL228838   2.094  30.776   8.864
 2093POPC   C1A28839   1.995  30.700   8.564
 2093POPC   D2A28840   1.956  30.736   8.264
 2093POPC   C3A28841   1.997  30.671   7.964
 2093POPC   C4A28842   1.974  30.711   7.664
 2093POPC   C1B28843   2.114  30.928   8.564
 2093POPC   C2B28844   2.105  30.945   8.264
 2093POPC   C3B28845   2.138  30.903   7.964
 2093POPC   C4B28846   2.179  30.847   7.664
 2094POPC   NC328847   1.250   3.567   9.464
 2094POPC   PO428848   1.256   3.576   9.164
 2094POPC   GL128849   1.199   3.530   8.864
 2094POPC   GL228850   1.235   3.683   8.864
 2094POPC   C1A28851   1.195   3.564   8.564
 2094POPC   D2A28852   1.171   3.584   8.264
 2094POPC   C3A28853   1.173   3.544   7.964
 2094POPC   C4A28854   1.253   3.572   7.664
 2094POPC   C1B28855   1.186   3.825   8.564
 2094POPC   C2B28856   1.136   3.751   8.264
 2094POPC   C3B28857   1.162   3.743   7.964
 2094POPC   C4B28858   1.215   3.748   7.664
 2095POPC   NC328859  41.520  19.845   9.464
 2095POPC   PO428860  41.523  19.818   9.164
 2095POPC   GL128861  41.569  19.818   8.864
 2095POPC   GL228862  41.495  19.940   8.864
 2095POPC   C1A28863  41.514  19.821   8.564
 2095POPC   D2A28864  41.512  19.814   8.264
 2095POPC   C3A28865  41.546  19.826   7.964
 2095POPC   C4A28866  41.526  19.796   7.664
 2095POPC   C1B28867  41.340  20.037   8.564
 2095POPC   C2B28868  41.388  20.042   8.264
 2095POPC   C3B28869  41.326  20.011   7.964
 2095POPC   C4B28870  41.410  20.027   7.664
 2096POPC   NC328871  26.789   2.746   9.464
 2096POPC   PO428872  26.837   2.788   9.164
 2096POPC   GL128873  26.804   2.748   8.864
 2096POPC   GL228874  26.809   2.934   8.864
 2096POPC   C1A28875  26.834   2.730   8.564
 2096POPC   D2A28876  26.830   2.716   8.264
 2096POPC   C3A28877  26.821   2.753   7.964
 2096POPC   C4A28878  26.850   2.810   7.664
 2096POPC   C1B28879  26.776   3.021   8.564
 2096POPC   C2B28880  26.784   3.013   8.264
 2096POPC   C3B28881  26.739   3.025   7.964
 2096POPC   C4B28882  26.727   2.970   7.664
 2097POPC   NC328883  21.363  25.240   9.464
 2097POPC   PO428884  21.360  25.289   9.164
 2097POPC   GL128885  21.377  25.280   8.864
 2097POPC   GL228886  21.407  25.177   8.864
 2097POPC   C1A28887  21.359  25.315   8.564
 2097POPC   D2A28888  21.411  25.310   8.264
 2097POPC   C3A28889  21.409  25.236   7.964
 2097POPC   C4A28890  21.342  25.227   7.664
 2097POPC   C1B28891  21.486  25.013   8.564
 2097POPC   C2B28892  21.415  25.054   8.264
 2097POPC   C3B28893  21.489  25.030   7.964
 2097POPC   C4B28894  21.401  25.011   7.664
 2098POPC   NC328895  14.450   5.911   9.464
 2098POPC   PO428896  14.453   5.854   9.164
 2098POPC   GL128897  14.397   5.867   8.864
 2098POPC   GL228898  14.384   5.758   8.864
 2098POPC   C1A28899  14.444   5.850   8.564
 2098POPC   D2A28900  14.403   5.828   8.264
 2098POPC   C3A28901  14.448   5.825   7.964
 2098POPC   C4A28902  14.444   5.889   7.664
 2098POPC   C1B28903  14.348   5.633   8.564
 2098POPC   C2B28904  14.290   5.651   8.264
 2098POPC   C3B28905  14.326   5.656   7.964
 2098POPC   C4B28906  14.343   5.648   7.664
 2099POPC   NC328907  18.316  39.225   9.464
 2099POPC   PO428908  18.259  39.207   9.164
 2099POPC   GL128909  18.287  39.268   8.864
 2099POPC   GL228910  18.376  39.150   8.864
 2099POPC   C1A28911  18.287  39.253   8.564
 2099POPC   D2A28912  18.236  39.242   8.264
 2099POPC   C3A28913  18.332  39.277   7.964
 2099POPC   C4A28914  18.254  39.240   7.664
 2099POPC   C1B28915  18.353  39.024   8.564
 2099POPC   C2B28916  18.366  39.040   8.264
 2099POPC   C3B28917  18.401  39.046   7.964
 2099POPC   C4B28918  18.346  38.960   7.664
 2100POPC   NC328919   5.106  34.580   9.464
 2100POPC   PO428920   5.100  34.622   9.164
 2100POPC   GL128921   5.105  34.579   8.864
 2100POPC   GL228922   5.054  34.740   8.864
 2100POPC   C1A28923   5.113  34.625   8.564
 2100POPC   D2A28924   5.062  34.609   8.264
 2100POPC   C3A28925   5.087  34.537   7.964
 2100POPC   C4A28926   5.094  34.536   7.664
 2100POPC   C1B28927   5.064  34.867   8.564
 2100POPC   C2B28928   5.041  34.847   8.264
 2100POPC   C3B28929   5.006  34.849   7.964
 2100POPC   C4B28930   5.007  34.807   7.664
 2101POPC   NC328931  12.845  18.297   9.464
 2101POPC   PO428932  12.870  18.235   9.164
 2101POPC   GL128933  12.815  18.278   8.864
 2101POPC   GL228934  12.788  18.162   8.864
 2101POPC   C1A28935  12.811  18.236   8.564
 2101POPC   D2A28936  12.826  18.277   8.264
 2101POPC   C3A28937  12.840  18.283   7.964
 2101POPC   C4A28938  12.848  18.270   7.664
 2101POPC   C1B28939  12.732  18.080   8.564
 2101POPC   C2B28940  12.790  18.008   8.264
 2101POPC   C3B28941  12.794  18.011   7.964
 2101POPC   C4B28942  12.740  18.089   7.664
 2102POPC   NC328943  12.034  30.721   9.464
 2102POPC   PO428944  12.119  30.680   9.164
 2102POPC   GL128945  12.075  30.731   8.864
 2102POPC   GL228946  12.079  30.772   8.864
 2102POPC   C1A28947  12.059  30.720   8.564
 2102POPC   D2A28948  12.088  30.713   8.264
 2102POPC   C3A28949  12.053  30.664   7.964
 2102POPC   C4A28950  12.104  30.648   7.664
 2102POPC   C1B28951  12.202  30.977   8.564
 2102POPC   C2B28952  12.130  30.944   8.264
 2102POPC   C3B28953  12.159  30.922   7.964
 2102POPC   C4B28954  12.149  30.984   7.664
 2103POPC   NC328955  30.740  12.835   9.464
 2103POPC   PO428956  30.711  12.830   9.164
 2103POPC   GL128957  30.722  12.901   8.864
 2103POPC   GL228958  30.552  12.828   8.864
 2103POPC   C1A28959  30.672  12.865   8.564
 2103POPC   D2A28960  30.671  12.879   8.264
 2103POPC   C3A28961  30.695  12.867   7.964
 2103POPC   C4A28962  30.692  12.898   7.664
 2103POPC   C1B28963  30.426  12.865   8.564
 2103POPC   C2B28964  30.411  12.815   8.264
 2103POPC   C3B28965  30.489  12.892   7.964
 2103POPC   C4B28966  30.468  12.827   7.664
 2104POPC   NC328967  43.118  10.477   9.464
 2104POPC   PO428968  43.100  10.491   9.164
 2104POPC   GL128969  43.072  10.527   8.864
 2104POPC   GL228970  43.050  10.369   8.864
 2104POPC   C1A28971  43.061  10.542   8.564
 2104POPC   D2A28972  43.135  10.489   8.264
 2104POPC   C3A28973  43.142  10.569   7.964
 2104POPC   C4A28974  43.098  10.532   7.664
 2104POPC   C1B28975  43.037  10.326   8.564
 2104POPC   C2B28976  42.963  10.284   8.264
 2104POPC   C3B28977  42.995  10.293   7.964
 2104POPC   C4B28978  42.976  10.336   7.664
 2105POPC   NC328979  17.473   0.477   9.464
 2105POPC   PO428980  17.509   0.411   9.164
 2105POPC   GL128981  17.488   0.466   8.864
 2105POPC   GL228982  17.507   0.530   8.864
 2105POPC   C1A28983  17.555   0.447   8.564
 2105POPC   D2A28984  17.462   0.408   8.264
 2105POPC   C3A28985  17.500   0.466   7.964
 2105POPC   C4A28986  17.528   0.480   7.664
 2105POPC   C1B28987  17.529   0.696   8.564
 2105POPC   C2B28988  17.490   0.717   8.264
 2105POPC   C3B28989  17.497   0.667   7.964
 2105POPC   C4B28990  17.501   0.692   7.664
 2106POPC   NC328991  39.227  26.781   9.464
 2106POPC   PO428992  39.207  26.855   9.164
 2106POPC   GL128993  39.221  26.792   8.864
 2106POPC   GL228994  39.109  26.926   8.864
 2106POPC   C1A28995  39.185  26.791   8.564
 2106POPC   D2A28996  39.215  26.804   8.264
 2106POPC   C3A28997  39.205  26.867   7.964
 2106POPC   C4A28998  39.259  26.793   7.664
 2106POPC   C1B28999  38.986  26.923   8.564
 2106POPC   C2B29000  39.048  26.968   8.264
 2106POPC   C3B29001  39.061  26.997   7.964
 2106POPC   C4B29002  39.028  26.944   7.664
 2107POPC   NC329003  29.113  12.034   9.464
 2107POPC   PO429004  29.156  12.044   9.164
 2107POPC   GL129005  29.114  12.091   8.864
 2107POPC   GL229006  29.291  12.017   8.864
 2107POPC   C1A29007  29.122  12.044   8.564
 2107POPC   D2A29008  29.162  12.123   8.264
 2107POPC   C3A29009  29.157  12.085   7.964
 2107POPC   C4A29010  29.190  12.106   7.664
 2107POPC   C1B29011  29.342  11.910   8.564
 2107POPC   C2B29012  29.340  11.942   8.264
 2107POPC   C3B29013  29.387  11.882   7.964
 2107POPC   C4B29014  29.353  11.877   7.664
 2108POPC   NC329015  22.911  25.242   9.464
 2108POPC   PO429016  22.987  25.313   9.164
 2108POPC   GL129017  22.986  25.293   8.864
 2108POPC   GL229018  23.031  25.291   8.864
 2108POPC   C1A29019  22.985  25.231   8.564
 2108POPC   D2A29020  22.907  25.237   8.264
 2108POPC   C3A29021  22.984  25.272   7.964
 2108POPC   C4A29022  22.946  25.248   7.664
 2108POPC   C1B29023  23.218  25.306   8.564
 2108POPC   C2B29024  23.144  25.234   8.264
 2108POPC   C3B29025  23.176  25.223   7.964
 2108POPC   C4B29026  23.193  25.297   7.664
 2109POPC   NC329027  36.910  33.059   9.464
 2109POPC   PO429028  36.923  33.043   9.164
 2109POPC   GL129029  36.901  33.015   8.864
 2109POPC   GL229030  36.966  32.861   8.864
 2109POPC   C1A29031  36.908  33.007   8.564
 2109POPC   D2A29032  36.893  33.005   8.264
 2109POPC   C3A29033  36.917  33.063   7.964
 2109POPC   C4A29034  36.949  33.008   7.664
 2109POPC   C1B29035  36.918  32.747   8.564
 2109POPC   C2B29036  36.908  32.811   8.264
 2109POPC   C3B29037  36.987  32.753   7.964
 2109POPC   C4B29038  36.927  32.794   7.664
 2110POPC   NC329039  21.426  22.960   9.464
 2110POPC   PO429040  21.391  22.889   9.164
 2110POPC   GL129041  21.366  22.985   8.864
 2110POPC   GL229042  21.330  23.062   8.864
 2110POPC   C1A29043  21.376  22.897   8.564
 2110POPC   D2A29044  21.336  22.913   8.264
 2110POPC   C3A29045  21.419  22.914   7.964
 2110POPC   C4A29046  21.394  22.965   7.664
 2110POPC   C1B29047  21.277  23.166   8.564
 2110POPC   C2B29048  21.283  23.228   8.264
 2110POPC   C3B29049  21.369  23.169   7.964
 2110POPC   C4B29050  21.329  23.187   7.664
 2111POPC   NC329051  30.741  43.069   9.464
 2111POPC   PO429052  30.695  43.101   9.164
 2111POPC   GL129053  30.716  43.086   8.864
 2111POPC   GL229054  30.838  43.036   8.864
 2111POPC   C1A29055  30.686  43.076   8.564
 2111POPC   D2A29056  30.652  43.124   8.264
 2111POPC   C3A29057  30.741  43.098   7.964
 2111POPC   C4A29058  30.677  43.122   7.664
 2111POPC   C1B29059  30.910  43.042   8.564
 2111POPC   C2B29060  30.969  43.037   8.264
 2111POPC   C3B29061  30.964  43.008   7.964
 2111POPC   C4B29062  30.978  43.008   7.664
 2112POPC   NC329063  37.666  19.033   9.464
 2112POPC   PO429064  37.665  19.039   9.164
 2112POPC   GL129065  37.698  19.099   8.864
 2112POPC   GL229066  37.542  18.988   8.864
 2112POPC   C1A29067  37.729  19.096   8.564
 2112POPC   D2A29068  37.656  19.019   8.264
 2112POPC   C3A29069  37.725  19.011   7.964
 2112POPC   C4A29070  37.686  19.108   7.664
 2112POPC   C1B29071  37.472  18.925   8.564
 2112POPC   C2B29072  37.451  18.938   8.264
 2112POPC   C3B29073  37.420  18.923   7.964
 2112POPC   C4B29074  37.448  18.985   7.664
 2113POPC   NC329075   3.524   2.718   9.464
 2113POPC   PO429076   3.572   2.781   9.164
 2113POPC   GL129077   3.504   2.760   8.864
 2113POPC   GL229078   3.460   2.866   8.864
 2113POPC   C1A29079   3.563   2.726   8.564
 2113POPC   D2A29080   3.509   2.789   8.264
 2113POPC   C3A29081   3.588   2.750   7.964
 2113POPC   C4A29082   3.496   2.805   7.664
 2113POPC   C1B29083   3.414   2.969   8.564
 2113POPC   C2B29084   3.452   2.974   8.264
 2113POPC   C3B29085   3.452   3.038   7.964
 2113POPC   C4B29086   3.505   2.968   7.664
 2114POPC   NC329087  15.998  27.635   9.464
 2114POPC   PO429088  15.912  27.571   9.164
 2114POPC   GL129089  15.914  27.599   8.864
 2114POPC   GL229090  16.078  27.585   8.864
 2114POPC   C1A29091  15.995  27.590   8.564
 2114POPC   D2A29092  15.913  27.555   8.264
 2114POPC   C3A29093  15.920  27.626   7.964
 2114POPC   C4A29094  15.985  27.608   7.664
 2114POPC   C1B29095  16.183  27.599   8.564
 2114POPC   C2B29096  16.240  27.590   8.264
 2114POPC   C3B29097  16.191  27.595   7.964
 2114POPC   C4B29098  16.238  27.630   7.664
 2115POPC   NC329099  14.370  39.961   9.464
 2115POPC   PO429100  14.448  39.969   9.164
 2115POPC   GL129101  14.359  39.962   8.864
 2115POPC   GL229102  14.373  39.879   8.864
 2115POPC   C1A29103  14.363  39.997   8.564
 2115POPC   D2A29104  14.362  39.983   8.264
 2115POPC   C3A29105  14.450  40.057   7.964
 2115POPC   C4A29106  14.439  40.054   7.664
 2115POPC   C1B29107  14.399  39.756   8.564
 2115POPC   C2B29108  14.365  39.730   8.264
 2115POPC   C3B29109  14.403  39.765   7.964
 2115POPC   C4B29110  14.347  39.745   7.664
 2116POPC   NC329111  40.821  39.197   9.464
 2116POPC   PO429112  40.734  39.240   9.164
 2116POPC   GL129113  40.770  39.254   8.864
 2116POPC   GL229114  40.893  39.190   8.864
 2116POPC   C1A29115  40.777  39.252   8.564
 2116POPC   D2A29116  40.815  39.235   8.264
 2116POPC   C3A29117  40.799  39.213   7.964
 2116POPC   C4A29118  40.816  39.279   7.664
 2116POPC   C1B29119  41.036  39.224   8.564
 2116POPC   C2B29120  41.038  39.262   8.264
 2116POPC   C3B29121  40.987  39.206   7.964
 2116POPC   C4B29122  41.011  39.227   7.664
 2117POPC   NC329123  33.040  18.258   9.464
 2117POPC   PO429124  33.072  18.296   9.164
 2117POPC   GL129125  32.982  18.281   8.864
 2117POPC   GL229126  33.142  18.393   8.864
 2117POPC   C1A29127  33.045  18.294   8.564
 2117POPC   D2A29128  33.025  18.267   8.264
 2117POPC   C3A29129  33.050  18.252   7.964
 2117POPC   C4A29130  33.020  18.268   7.664
 2117POPC   C1B29131  33.230  18.487   8.564
 2117POPC   C2B29132  33.201  18.413   8.264
 2117POPC   C3B29133  33.221  18.484   7.964
 2117POPC   C4B29134  33.210  18.443   7.664
 2118POPC   NC329135   0.412  22.203   9.464
 2118POPC   PO429136   0.440  22.125   9.164
 2118POPC   GL129137   0.424  22.206   8.864
 2118POPC   GL229138   0.410  22.055   8.864
 2118POPC   C1A29139   0.425  22.136   8.564
 2118POPC   D2A29140   0.461  22.116   8.264
 2118POPC   C3A29141   0.393  22.142   7.964
 2118POPC   C4A29142   0.407  22.159   7.664
 2118POPC   C1B29143   0.429  21.866   8.564
 2118POPC   C2B29144   0.468  21.870   8.264
 2118POPC   C3B29145   0.404  21.894   7.964
 2118POPC   C4B29146   0.458  21.935   7.664
 2119POPC   NC329147  20.562   7.457   9.464
 2119POPC   PO429148  20.606   7.436   9.164
 2119POPC   GL129149  20.587   7.444   8.864
 2119POPC   GL229150  20.706   7.480   8.864
 2119POPC   C1A29151  20.618   7.418   8.564
 2119POPC   D2A29152  20.647   7.425   8.264
 2119POPC   C3A29153  20.648   7.400   7.964
 2119POPC   C4A29154  20.565   7.388   7.664
 2119POPC   C1B29155  20.846   7.472   8.564
 2119POPC   C2B29156  20.822   7.502   8.264
 2119POPC   C3B29157  20.888   7.502   7.964
 2119POPC   C4B29158  20.801   7.481   7.664
 2120POPC   NC329159  29.180  13.582   9.464
 2120POPC   PO429160  29.183  13.625   9.164
 2120POPC   GL129161  29.170  13.632   8.864
 2120POPC   GL229162  29.038  13.709   8.864
 2120POPC   C1A29163  29.170  13.667   8.564
 2120POPC   D2A29164  29.175  13.616   8.264
 2120POPC   C3A29165  29.098  13.665   7.964
 2120POPC   C4A29166  29.155  13.601   7.664
 2120POPC   C1B29167  29.066  13.801   8.564
 2120POPC   C2B29168  29.024  13.819   8.264
 2120POPC   C3B29169  29.073  13.848   7.964
 2120POPC   C4B29170  29.002  13.810   7.664
 2121POPC   NC329171   7.417   4.297   9.464
 2121POPC   PO429172   7.411   4.327   9.164
 2121POPC   GL129173   7.449   4.345   8.864
 2121POPC   GL229174   7.364   4.220   8.864
 2121POPC   C1A29175   7.465   4.318   8.564
 2121POPC   D2A29176   7.432   4.365   8.264
 2121POPC   C3A29177   7.443   4.340   7.964
 2121POPC   C4A29178   7.389   4.311   7.664
 2121POPC   C1B29179   7.349   4.129   8.564
 2121POPC   C2B29180   7.342   4.089   8.264
 2121POPC   C3B29181   7.353   4.124   7.964
 2121POPC   C4B29182   7.350   4.047   7.664
 2122POPC   NC329183  29.964  35.365   9.464
 2122POPC   PO429184  29.880  35.326   9.164
 2122POPC   GL129185  29.898  35.339   8.864
 2122POPC   GL229186  29.880  35.459   8.864
 2122POPC   C1A29187  29.896  35.306   8.564
 2122POPC   D2A29188  29.874  35.381   8.264
 2122POPC   C3A29189  29.962  35.387   7.964
 2122POPC   C4A29190  29.939  35.400   7.664
 2122POPC   C1B29191  29.901  35.585   8.564
 2122POPC   C2B29192  29.908  35.573   8.264
 2122POPC   C3B29193  29.887  35.597   7.964
 2122POPC   C4B29194  29.921  35.584   7.664
 2123POPC   NC329195  36.920  19.040   9.464
 2123POPC   PO429196  36.861  19.014   9.164
 2123POPC   GL129197  36.945  19.084   8.864
 2123POPC   GL229198  36.862  18.974   8.864
 2123POPC   C1A29199  36.893  19.027   8.564
 2123POPC   D2A29200  36.891  19.020   8.264
 2123POPC   C3A29201  36.901  19.085   7.964
 2123POPC   C4A29202  36.936  19.032   7.664
 2123POPC   C1B29203  36.854  18.796   8.564
 2123POPC   C2B29204  36.810  18.783   8.264
 2123POPC   C3B29205  36.799  18.856   7.964
 2123POPC   C4B29206  36.836  18.846   7.664
 2124POPC   NC329207  10.574   5.103   9.464
 2124POPC   PO429208  10.553   5.134   9.164
 2124POPC   GL129209  10.532   5.055   8.864
 2124POPC   GL229210  10.507   4.920   8.864
 2124POPC   C1A29211  10.475   5.092   8.564
 2124POPC   D2A29212  10.554   5.107   8.264
 2124POPC   C3A29213  10.555   5.114   7.964
 2124POPC   C4A29214  10.481   5.086   7.664
 2124POPC   C1B29215  10.540   4.825   8.564
 2124POPC   C2B29216  10.507   4.864   8.264
 2124POPC   C3B29217  10.462   4.801   7.964
 2124POPC   C4B29218  10.552   4.801   7.664
 2125POPC   NC329219   8.207  38.435   9.464
 2125POPC   PO429220   8.224  38.407   9.164
 2125POPC   GL129221   8.230  38.439   8.864
 2125POPC   GL229222   8.305  38.421   8.864
 2125POPC   C1A29223   8.232  38.465   8.564
 2125POPC   D2A29224   8.216  38.491   8.264
 2125POPC   C3A29225   8.187  38.443   7.964
 2125POPC   C4A29226   8.207  38.496   7.664
 2125POPC   C1B29227   8.417  38.304   8.564
 2125POPC   C2B29228   8.376  38.324   8.264
 2125POPC   C3B29229   8.413  38.318   7.964
 2125POPC   C4B29230   8.385  38.346   7.664
 2126POPC   NC329231   1.979  34.584   9.464
 2126POPC   PO429232   2.006  34.570   9.164
 2126POPC   GL129233   1.958  34.564   8.864
 2126POPC   GL229234   1.877  34.592   8.864
 2126POPC   C1A29235   2.037  34.552   8.564
 2126POPC   D2A29236   1.973  34.576   8.264
 2126POPC   C3A29237   1.966  34.528   7.964
 2126POPC   C4A29238   2.001  34.572   7.664
 2126POPC   C1B29239   1.717  34.599   8.564
 2126POPC   C2B29240   1.737  34.643   8.264
 2126POPC   C3B29241   1.698  34.585   7.964
 2126POPC   C4B29242   1.756  34.586   7.664
 2127POPC   NC329243  15.172  24.446   9.464
 2127POPC   PO429244  15.203  24.509   9.164
 2127POPC   GL129245  15.187  24.453   8.864
 2127POPC   GL229246  15.204  24.612   8.864
 2127POPC   C1A29247  15.223  24.466   8.564
 2127POPC   D2A29248  15.202  24.448   8.264
 2127POPC   C3A29249  15.188  24.446   7.964
 2127POPC   C4A29250  15.159  24.506   7.664
 2127POPC   C1B29251  15.294  24.652   8.564
 2127POPC   C2B29252  15.356  24.704   8.264
 2127POPC   C3B29253  15.342  24.718   7.964
 2127POPC   C4B29254  15.338  24.729   7.664
 2128POPC   NC329255  44.700  29.907   9.464
 2128POPC   PO429256  44.659  29.873   9.164
 2128POPC   GL129257  44.634  29.966   8.864
 2128POPC   GL229258  44.722  30.080   8.864
 2128POPC   C1A29259  44.617  29.882   8.564
 2128POPC   D2A29260  44.671  29.878   8.264
 2128POPC   C3A29261  44.655  29.956   7.964
 2128POPC   C4A29262  44.620  29.922   7.664
 2128POPC   C1B29263  44.736  30.123   8.564
 2128POPC   C2B29264  44.757  30.173   8.264
 2128POPC   C3B29265  44.799  30.181   7.964
 2128POPC   C4B29266  44.789  30.194   7.664
 2129POPC   NC329267  25.273   1.204   9.464
 2129POPC   PO429268  25.258   1.263   9.164
 2129POPC   GL129269  25.227   1.164   8.864
 2129POPC   GL229270  25.346   1.160   8.864
 2129POPC   C1A29271  25.268   1.254   8.564
 2129POPC   D2A29272  25.275   1.183   8.264
 2129POPC   C3A29273  25.309   1.246   7.964
 2129POPC   C4A29274  25.242   1.177   7.664
 2129POPC   C1B29275  25.428   1.033   8.564
 2129POPC   C2B29276  25.434   1.012   8.264
 2129POPC   C3B29277  25.434   0.999   7.964
 2129POPC   C4B29278  25.456   1.052   7.664
 2130POPC   NC329279   4.276  38.486   9.464
 2130POPC   PO429280   4.358  38.467   9.164
 2130POPC   GL129281   4.341  38.411   8.864
 2130POPC   GL229282   4.396  38.618   8.864
 2130POPC   C1A29283   4.348  38.497   8.564
 2130POPC   D2A29284   4.276  38.474   8.264
 2130POPC   C3A29285   4.297  38.430   7.964
 2130POPC   C4A29286   4.343  38.496   7.664
 2130POPC   C1B29287   4.412  38.654   8.564
 2130POPC   C2B29288   4.383  38.670   8.264
 2130POPC   C3B29289   4.432  38.661   7.964
 2130POPC   C4B29290   4.384  38.664   7.664
 2131POPC   NC329291  37.695  13.626   9.464
 2131POPC   PO429292  37.632  13.607   9.164
 2131POPC   GL129293  37.723  13.672   8.864
 2131POPC   GL229294  37.709  13.501   8.864
 2131POPC   C1A29295  37.727  13.672   8.564
 2131POPC   D2A29296  37.721  13.590   8.264
 2131POPC   C3A29297  37.632  13.672   7.964
 2131POPC   C4A29298  37.646  13.582   7.664
 2131POPC   C1B29299  37.841  13.447   8.564
 2131POPC   C2B29300  37.821  13.380   8.264
 2131POPC   C3B29301  37.803  13.398   7.964
 2131POPC   C4B29302  37.799  13.461   7.664
 2132POPC   NC329303  30.689  27.607   9.464
 2132POPC   PO429304  30.660  27.563   9.164
 2132POPC   GL129305  30.656  27.573   8.864
 2132POPC   GL229306  30.798  27.635   8.864
 2132POPC   C1A29307  30.717  27.612   8.564
 2132POPC   D2A29308  30.706  27.568   8.264
 2132POPC   C3A29309  30.708  27.632   7.964
 2132POPC   C4A29310  30.683  27.610   7.664
 2132POPC   C1B29311  30.903  27.755   8.564
 2132POPC   C2B29312  30.880  27.744   8.264
 2132POPC   C3B29313  30.877  27.777   7.964
 2132POPC   C4B29314  30.928  27.729   7.664
 2133POPC   NC329315  36.893   0.477   9.464
 2133POPC   PO429316  36.869   0.427   9.164
 2133POPC   GL129317  36.890   0.421   8.864
 2133POPC   GL229318  36.899   0.292   8.864
 2133POPC   C1A29319  36.935   0.400   8.564
 2133POPC   D2A29320  36.867   0.486   8.264
 2133POPC   C3A29321  36.938   0.411   7.964
 2133POPC   C4A29322  36.911   0.454   7.664
 2133POPC   C1B29323  36.831   0.176   8.564
 2133POPC   C2B29324  36.797   0.251   8.264
 2133POPC   C3B29325  36.835   0.241   7.964
 2133POPC   C4B29326  36.837   0.167   7.664
 2134POPC   NC329327  35.327  38.418   9.464
 2134POPC   PO429328  35.334  38.479   9.164
 2134POPC   GL129329  35.382  38.416   8.864
 2134POPC   GL229330  35.437  38.534   8.864
 2134POPC   C1A29331  35.303  38.484   8.564
 2134POPC   D2A29332  35.354  38.449   8.264
 2134POPC   C3A29333  35.350  38.496   7.964
 2134POPC   C4A29334  35.337  38.457   7.664
 2134POPC   C1B29335  35.558  38.584   8.564
 2134POPC   C2B29336  35.591  38.527   8.264
 2134POPC   C3B29337  35.535  38.594   7.964
 2134POPC   C4B29338  35.589  38.531   7.664
 2135POPC   NC329339  15.151  40.796   9.464
 2135POPC   PO429340  15.160  40.799   9.164
 2135POPC   GL129341  15.220  40.733   8.864
 2135POPC   GL229342  15.245  40.896   8.864
 2135POPC   C1A29343  15.213  40.804   8.564
 2135POPC   D2A29344  15.144  40.768   8.264
 2135POPC   C3A29345  15.184  40.796   7.964
 2135POPC   C4A29346  15.179  40.754   7.664
 2135POPC   C1B29347  15.319  41.001   8.564
 2135POPC   C2B29348  15.351  41.044   8.264
 2135POPC   C3B29349  15.313  41.033   7.964
 2135POPC   C4B29350  15.346  41.035   7.664
 2136POPC   NC329351   1.177  37.636   9.464
 2136POPC   PO429352   1.184  37.657   9.164
 2136POPC   GL129353   1.239  37.640   8.864
 2136POPC   GL229354   1.289  37.698   8.864
 2136POPC   C1A29355   1.189  37.725   8.564
 2136POPC   D2A29356   1.228  37.691   8.264
 2136POPC   C3A29357   1.225  37.702   7.964
 2136POPC   C4A29358   1.184  37.634   7.664
 2136POPC   C1B29359   1.454  37.714   8.564
 2136POPC   C2B29360   1.426  37.719   8.264
 2136POPC   C3B29361   1.465  37.663   7.964
 2136POPC   C4B29362   1.421  37.652   7.664
 2137POPC   NC329363  12.828  31.514   9.464
 2137POPC   PO429364  12.896  31.475   9.164
 2137POPC   GL129365  12.899  31.439   8.864
 2137POPC   GL229366  12.823  31.609   8.864
 2137POPC   C1A29367  12.842  31.477   8.564
 2137POPC   D2A29368  12.854  31.428   8.264
 2137POPC   C3A29369  12.864  31.488   7.964
 2137POPC   C4A29370  12.886  31.431   7.664
 2137POPC   C1B29371  12.844  31.770   8.564
 2137POPC   C2B29372  12.841  31.683   8.264
 2137POPC   C3B29373  12.832  31.696   7.964
 2137POPC   C4B29374  12.859  31.719   7.664
 2138POPC   NC329375  20.644  19.082   9.464
 2138POPC   PO429376  20.581  19.102   9.164
 2138POPC   GL129377  20.656  19.095   8.864
 2138POPC   GL229378  20.549  19.160   8.864
 2138POPC   C1A29379  20.585  19.037   8.564
 2138POPC   D2A29380  20.640  19.074   8.264
 2138POPC   C3A29381  20.652  19.106   7.964
 2138POPC   C4A29382  20.591  19.009   7.664
 2138POPC   C1B29383  20.501  19.285   8.564
 2138POPC   C2B29384  20.505  19.274   8.264
 2138POPC   C3B29385  20.474  19.255   7.964
 2138POPC   C4B29386  20.515  19.304   7.664
 2139POPC   NC329387   1.942   5.106   9.464
 2139POPC   PO429388   2.015   5.074   9.164
 2139POPC   GL129389   2.017   5.071   8.864
 2139POPC   GL229390   2.026   5.225   8.864
 2139POPC   C1A29391   1.942   5.103   8.564
 2139POPC   D2A29392   1.948   5.056   8.264
 2139POPC   C3A29393   1.978   5.094   7.964
 2139POPC   C4A29394   1.988   5.116   7.664
 2139POPC   C1B29395   2.137   5.297   8.564
 2139POPC   C2B29396   2.166   5.294   8.264
 2139POPC   C3B29397   2.160   5.287   7.964
 2139POPC   C4B29398   2.133   5.321   7.664
 2140POPC   NC329399  26.007  37.684   9.464
 2140POPC   PO429400  26.087  37.699   9.164
 2140POPC   GL129401  26.084  37.634   8.864
 2140POPC   GL229402  25.962  37.664   8.864
 2140POPC   C1A29403  26.087  37.673   8.564
 2140POPC   D2A29404  26.084  37.680   8.264
 2140POPC   C3A29405  26.075  37.698   7.964
 2140POPC   C4A29406  26.044  37.681   7.664
 2140POPC   C1B29407  25.776  37.762   8.564
 2140POPC   C2B29408  25.766  37.723   8.264
 2140POPC   C3B29409  25.821  37.698   7.964
 2140POPC   C4B29410  25.804  37.709   7.664
 2141POPC   NC329411  42.326  39.219   9.464
 2141POPC   PO429412  42.369  39.182   9.164
 2141POPC   GL129413  42.304  39.182   8.864
 2141POPC   GL229414  42.250  39.355   8.864
 2141POPC   C1A29415  42.356  39.204   8.564
 2141POPC   D2A29416  42.305  39.222   8.264
 2141POPC   C3A29417  42.288  39.232   7.964
 2141POPC   C4A29418  42.384  39.194   7.664
 2141POPC   C1B29419  42.229  39.450   8.564
 2141POPC   C2B29420  42.301  39.446   8.264
 2141POPC   C3B29421  42.226  39.470   7.964
 2141POPC   C4B29422  42.286  39.431   7.664
 2142POPC   NC329423  12.060  33.815   9.464
 2142POPC   PO429424  12.096  33.807   9.164
 2142POPC   GL129425  12.057  33.787   8.864
 2142POPC   GL229426  11.978  33.865   8.864
 2142POPC   C1A29427  12.074  33.777   8.564
 2142POPC   D2A29428  12.048  33.802   8.264
 2142POPC   C3A29429  12.106  33.796   7.964
 2142POPC   C4A29430  12.097  33.774   7.664
 2142POPC   C1B29431  11.891  33.947   8.564
 2142POPC   C2B29432  11.801  33.862   8.264
 2142POPC   C3B29433  11.818  33.895   7.964
 2142POPC   C4B29434  11.888  33.893   7.664
 2143POPC   NC329435   8.201  28.358   9.464
 2143POPC   PO429436   8.152  28.395   9.164
 2143POPC   GL129437   8.237  28.408   8.864
 2143POPC   GL229438   8.273  28.385   8.864
 2143POPC   C1A29439   8.242  28.343   8.564
 2143POPC   D2A29440   8.204  28.408   8.264
 2143POPC   C3A29441   8.242  28.350   7.964
 2143POPC   C4A29442   8.245  28.417   7.664
 2143POPC   C1B29443   8.425  28.312   8.564
 2143POPC   C2B29444   8.467  28.338   8.264
 2143POPC   C3B29445   8.429  28.358   7.964
 2143POPC   C4B29446   8.416  28.345   7.664
 2144POPC   NC329447   1.245  17.507   9.464
 2144POPC   PO429448   1.165  17.530   9.164
 2144POPC   GL129449   1.244  17.495   8.864
 2144POPC   GL229450   1.354  17.442   8.864
 2144POPC   C1A29451   1.226  17.505   8.564
 2144POPC   D2A29452   1.182  17.486   8.264
 2144POPC   C3A29453   1.235  17.539   7.964
 2144POPC   C4A29454   1.249  17.552   7.664
 2144POPC   C1B29455   1.474  17.354   8.564
 2144POPC   C2B29456   1.409  17.375   8.264
 2144POPC   C3B29457   1.409  17.354   7.964
 2144POPC   C4B29458   1.460  17.388   7.664
 2145POPC   NC329459  43.876  27.557   9.464
 2145POPC   PO429460  43.901  27.580   9.164
 2145POPC   GL129461  43.841  27.589   8.864
 2145POPC   GL229462  43.969  27.476   8.864
 2145POPC   C1A29463  43.929  27.579   8.564
 2145POPC   D2A29464  43.905  27.623   8.264
 2145POPC   C3A29465  43.901  27.626   7.964
 2145POPC   C4A29466  43.899  27.594   7.664
 2145POPC   C1B29467  44.143  27.493   8.564
 2145POPC   C2B29468  44.105  27.478   8.264
 2145POPC   C3B29469  44.106  27.412   7.964
 2145POPC   C4B29470  44.074  27.418   7.664
 2146POPC   NC329471   0.444  13.622   9.464
 2146POPC   PO429472   0.427  13.631   9.164
 2146POPC   GL129473   0.432  13.668   8.864
 2146POPC   GL229474   0.358  13.756   8.864
 2146POPC   C1A29475   0.477  13.668   8.564
 2146POPC   D2A29476   0.456  13.661   8.264
 2146POPC   C3A29477   0.442  13.663   7.964
 2146POPC   C4A29478   0.437  13.611   7.664
 2146POPC   C1B29479   0.270  13.791   8.564
 2146POPC   C2B29480   0.278  13.868   8.264
 2146POPC   C3B29481   0.321  13.835   7.964
 2146POPC   C4B29482   0.333  13.823   7.664
 2147POPC   NC329483   2.738  44.655   9.464
 2147POPC   PO429484   2.741  44.664   9.164
 2147POPC   GL129485   2.809  44.708   8.864
 2147POPC   GL229486   2.697  44.542   8.864
 2147POPC   C1A29487   2.800  44.677   8.564
 2147POPC   D2A29488   2.793  44.695   8.264
 2147POPC   C3A29489   2.753  44.684   7.964
 2147POPC   C4A29490   2.783  44.680   7.664
 2147POPC   C1B29491   2.643  44.468   8.564
 2147POPC   C2B29492   2.598  44.446   8.264
 2147POPC   C3B29493   2.649  44.418   7.964
 2147POPC   C4B29494   2.644  44.446   7.664
 2148POPC   NC329495  40.796  26.864   9.464
 2148POPC   PO429496  40.737  26.787   9.164
 2148POPC   GL129497  40.814  26.776   8.864
 2148POPC   GL229498  40.851  26.898   8.864
 2148POPC   C1A29499  40.814  26.770   8.564
 2148POPC   D2A29500  40.776  26.828   8.264
 2148POPC   C3A29501  40.789  26.813   7.964
 2148POPC   C4A29502  40.736  26.841   7.664
 2148POPC   C1B29503  40.927  27.001   8.564
 2148POPC   C2B29504  40.990  27.030   8.264
 2148POPC   C3B29505  41.006  27.033   7.964
 2148POPC   C4B29506  40.937  27.002   7.664
 2149POPC   NC329507  15.197   5.892   9.464
 2149POPC   PO429508  15.211   5.858   9.164
 2149POPC   GL129509  15.217   5.877   8.864
 2149POPC   GL229510  15.107   5.771   8.864
 2149POPC   C1A29511  15.184   5.830   8.564
 2149POPC   D2A29512  15.222   5.895   8.264
 2149POPC   C3A29513  15.216   5.847   7.964
 2149POPC   C4A29514  15.200   5.889   7.664
 2149POPC   C1B29515  15.092   5.630   8.564
 2149POPC   C2B29516  15.101   5.672   8.264
 2149POPC   C3B29517  15.060   5.590   7.964
 2149POPC   C4B29518  15.131   5.596   7.664
 2150POPC   NC329519  28.406   0.395   9.464
 2150POPC   PO429520  28.402   0.404   9.164
 2150POPC   GL129521  28.334   0.459   8.864
 2150POPC   GL229522  28.257   0.503   8.864
 2150POPC   C1A29523  28.380   0.411   8.564
 2150POPC   D2A29524  28.340   0.481   8.264
 2150POPC   C3A29525  28.391   0.428   7.964
 2150POPC   C4A29526  28.325   0.413   7.664
 2150POPC   C1B29527  28.206   0.591   8.564
 2150POPC   C2B29528  28.221   0.628   8.264
 2150POPC   C3B29529  28.168   0.633   7.964
 2150POPC   C4B29530  28.207   0.603   7.664
 2151POPC   NC329531  26.812  29.158   9.464
 2151POPC   PO429532  26.792  29.155   9.164
 2151POPC   GL129533  26.822  29.171   8.864
 2151POPC   GL229534  26.822  29.306   8.864
 2151POPC   C1A29535  26.791  29.163   8.564
 2151POPC   D2A29536  26.829  29.172   8.264
 2151POPC   C3A29537  26.823  29.104   7.964
 2151POPC   C4A29538  26.855  29.109   7.664
 2151POPC   C1B29539  26.729  29.351   8.564
 2151POPC   C2B29540  26.753  29.390   8.264
 2151POPC   C3B29541  26.718  29.412   7.964
 2151POPC   C4B29542  26.792  29.348   7.664
 2152POPC   NC329543  28.333  32.245   9.464
 2152POPC   PO429544  28.347  32.236   9.164
 2152POPC   GL129545  28.362  32.241   8.864
 2152POPC   GL229546  28.317  32.099   8.864
 2152POPC   C1A29547  28.324  32.220   8.564
 2152POPC   D2A29548  28.418  32.241   8.264
 2152POPC   C3A29549  28.383  32.227   7.964
 2152POPC   C4A29550  28.335  32.278   7.664
 2152POPC   C1B29551  28.272  31.983   8.564
 2152POPC   C2B29552  28.270  32.056   8.264
 2152POPC   C3B29553  28.272  32.000   7.964
 2152POPC   C4B29554  28.236  31.990   7.664
 2153POPC   NC329555  23.716  29.175   9.464
 2153POPC   PO429556  23.712  29.149   9.164
 2153POPC   GL129557  23.755  29.159   8.864
 2153POPC   GL229558  23.649  28.973   8.864
 2153POPC   C1A29559  23.720  29.115   8.564
 2153POPC   D2A29560  23.681  29.194   8.264
 2153POPC   C3A29561  23.702  29.169   7.964
 2153POPC   C4A29562  23.740  29.137   7.664
 2153POPC   C1B29563  23.726  28.943   8.564
 2153POPC   C2B29564  23.707  28.867   8.264
 2153POPC   C3B29565  23.670  28.913   7.964
 2153POPC   C4B29566  23.669  28.929   7.664
 2154POPC   NC329567   4.337  39.969   9.464
 2154POPC   PO429568   4.327  40.055   9.164
 2154POPC   GL129569   4.271  40.019   8.864
 2154POPC   GL229570   4.224  39.886   8.864
 2154POPC   C1A29571   4.285  39.984   8.564
 2154POPC   D2A29572   4.300  40.007   8.264
 2154POPC   C3A29573   4.357  39.994   7.964
 2154POPC   C4A29574   4.288  40.021   7.664
 2154POPC   C1B29575   4.243  39.726   8.564
 2154POPC   C2B29576   4.201  39.805   8.264
 2154POPC   C3B29577   4.203  39.797   7.964
 2154POPC   C4B29578   4.249  39.766   7.664
 2155POPC   NC329579   5.883  32.208   9.464
 2155POPC   PO429580   5.835  32.200   9.164
 2155POPC   GL129581   5.906  32.295   8.864
 2155POPC   GL229582   5.823  32.128   8.864
 2155POPC   C1A29583   5.903  32.198   8.564
 2155POPC   D2A29584   5.892  32.218   8.264
 2155POPC   C3A29585   5.881  32.259   7.964
 2155POPC   C4A29586   5.829  32.259   7.664
 2155POPC   C1B29587   5.838  31.976   8.564
 2155POPC   C2B29588   5.844  32.027   8.264
 2155POPC   C3B29589   5.841  31.986   7.964
 2155POPC   C4B29590   5.843  32.050   7.664
 2156POPC   NC329591  28.413  35.362   9.464
 2156POPC   PO429592  28.368  35.364   9.164
 2156POPC   GL129593  28.412  35.353   8.864
 2156POPC   GL229594  28.516  35.421   8.864
 2156POPC   C1A29595  28.328  35.352   8.564
 2156POPC   D2A29596  28.346  35.348   8.264
 2156POPC   C3A29597  28.369  35.364   7.964
 2156POPC   C4A29598  28.321  35.303   7.664
 2156POPC   C1B29599  28.527  35.468   8.564
 2156POPC   C2B29600  28.544  35.471   8.264
 2156POPC   C3B29601  28.544  35.506   7.964
 2156POPC   C4B29602  28.618  35.534   7.664
 2157POPC   NC329603  20.646  44.646   9.464
 2157POPC   PO429604  20.618  44.635   9.164
 2157POPC   GL129605  20.650  44.684   8.864
 2157POPC   GL229606  20.539  44.556   8.864
 2157POPC   C1A29607  20.589  44.694   8.564
 2157POPC   D2A29608  20.632  44.678   8.264
 2157POPC   C3A29609  20.596  44.652   7.964
 2157POPC   C4A29610  20.628  44.667   7.664
 2157POPC   C1B29611  20.446  44.545   8.564
 2157POPC   C2B29612  20.354  44.528   8.264
 2157POPC   C3B29613  20.409  44.566   7.964
 2157POPC   C4B29614  20.365  44.573   7.664
 2158POPC   NC329615  29.097  31.429   9.464
 2158POPC   PO429616  29.173  31.425   9.164
 2158POPC   GL129617  29.143  31.489   8.864
 2158POPC   GL229618  29.213  31.450   8.864
 2158POPC   C1A29619  29.110  31.489   8.564
 2158POPC   D2A29620  29.143  31.478   8.264
 2158POPC   C3A29621  29.179  31.441   7.964
 2158POPC   C4A29622  29.128  31.434   7.664
 2158POPC   C1B29623  29.319  31.315   8.564
 2158POPC   C2B29624  29.396  31.396   8.264
 2158POPC   C3B29625  29.388  31.356   7.964
 2158POPC   C4B29626  29.363  31.321   7.664
 2159POPC   NC329627  19.798   8.147   9.464
 2159POPC   PO429628  19.841   8.218   9.164
 2159POPC   GL129629  19.839   8.224   8.864
 2159POPC   GL229630  19.939   8.328   8.864
 2159POPC   C1A29631  19.825   8.168   8.564
 2159POPC   D2A29632  19.806   8.216   8.264
 2159POPC   C3A29633  19.808   8.246   7.964
 2159POPC   C4A29634  19.853   8.189   7.664
 2159POPC   C1B29635  19.933   8.459   8.564
 2159POPC   C2B29636  19.914   8.424   8.264
 2159POPC   C3B29637  19.992   8.416   7.964
 2159POPC   C4B29638  19.951   8.458   7.664
 2160POPC   NC329639  26.024  32.236   9.464
 2160POPC   PO429640  26.016  32.256   9.164
 2160POPC   GL129641  26.051  32.258   8.864
 2160POPC   GL229642  25.889  32.159   8.864
 2160POPC   C1A29643  26.079  32.245   8.564
 2160POPC   D2A29644  26.087  32.228   8.264
 2160POPC   C3A29645  26.090  32.270   7.964
 2160POPC   C4A29646  26.026  32.216   7.664
 2160POPC   C1B29647  25.784  32.129   8.564
 2160POPC   C2B29648  25.838  32.080   8.264
 2160POPC   C3B29649  25.776  32.158   7.964
 2160POPC   C4B29650  25.830  32.141   7.664
 2161POPC   NC329651  42.303  14.389   9.464
 2161POPC   PO429652  42.353  14.444   9.164
 2161POPC   GL129653  42.373  14.414   8.864
 2161POPC   GL229654  42.346  14.272   8.864
 2161POPC   C1A29655  42.310  14.433   8.564
 2161POPC   D2A29656  42.286  14.389   8.264
 2161POPC   C3A29657  42.334  14.396   7.964
 2161POPC   C4A29658  42.354  14.403   7.664
 2161POPC   C1B29659  42.252  14.200   8.564
 2161POPC   C2B29660  42.256  14.177   8.264
 2161POPC   C3B29661  42.252  14.195   7.964
 2161POPC   C4B29662  42.265  14.168   7.664
 2162POPC   NC329663   9.758   1.196   9.464
 2162POPC   PO429664   9.796   1.203   9.164
 2162POPC   GL129665   9.725   1.230   8.864
 2162POPC   GL229666   9.759   1.126   8.864
 2162POPC   C1A29667   9.737   1.245   8.564
 2162POPC   D2A29668   9.779   1.184   8.264
 2162POPC   C3A29669   9.713   1.201   7.964
 2162POPC   C4A29670   9.772   1.169   7.664
 2162POPC   C1B29671   9.791   1.000   8.564
 2162POPC   C2B29672   9.840   1.000   8.264
 2162POPC   C3B29673   9.819   1.006   7.964
 2162POPC   C4B29674   9.776   0.948   7.664
 2163POPC   NC329675  12.869  15.132   9.464
 2163POPC   PO429676  12.804  15.172   9.164
 2163POPC   GL129677  12.876  15.170   8.864
 2163POPC   GL229678  12.995  15.284   8.864
 2163POPC   C1A29679  12.818  15.147   8.564
 2163POPC   D2A29680  12.836  15.162   8.264
 2163POPC   C3A29681  12.901  15.201   7.964
 2163POPC   C4A29682  12.882  15.228   7.664
 2163POPC   C1B29683  13.061  15.314   8.564
 2163POPC   C2B29684  13.025  15.268   8.264
 2163POPC   C3B29685  13.025  15.260   7.964
 2163POPC   C4B29686  13.107  15.257   7.664
 2164POPC   NC329687   6.678  12.854   9.464
 2164POPC   PO429688   6.610  12.889   9.164
 2164POPC   GL129689   6.602  12.816   8.864
 2164POPC   GL229690   6.735  12.733   8.864
 2164POPC   C1A29691   6.690  12.856   8.564
 2164POPC   D2A29692   6.601  12.858   8.264
 2164POPC   C3A29693   6.619  12.878   7.964
 2164POPC   C4A29694   6.626  12.840   7.664
 2164POPC   C1B29695   6.786  12.643   8.564
 2164POPC   C2B29696   6.776  12.652   8.264
 2164POPC   C3B29697   6.715  12.673   7.964
 2164POPC   C4B29698   6.767  12.662   7.664
 2165POPC   NC329699   5.100  42.380   9.464
 2165POPC   PO429700   5.072  42.289   9.164
 2165POPC   GL129701   5.135  42.380   8.864
 2165POPC   GL229702   5.143  42.403   8.864
 2165POPC   C1A29703   5.101  42.364   8.564
 2165POPC   D2A29704   5.055  42.383   8.264
 2165POPC   C3A29705   5.051  42.301   7.964
 2165POPC   C4A29706   5.090  42.335   7.664
 2165POPC   C1B29707   5.245  42.587   8.564
 2165POPC   C2B29708   5.227  42.502   8.264
 2165POPC   C3B29709   5.274  42.559   7.964
 2165POPC   C4B29710   5.257  42.544   7.664
 2166POPC   NC329711  13.668  24.487   9.464
 2166POPC   PO429712  13.651  24.468   9.164
 2166POPC   GL129713  13.666  24.458   8.864
 2166POPC   GL229714  13.659  24.406   8.864
 2166POPC   C1A29715  13.616  24.498   8.564
 2166POPC   D2A29716  13.659  24.505   8.264
 2166POPC   C3A29717  13.661  24.515   7.964
 2166POPC   C4A29718  13.591  24.504   7.664
 2166POPC   C1B29719  13.691  24.276   8.564
 2166POPC   C2B29720  13.703  24.235   8.264
 2166POPC   C3B29721  13.675  24.259   7.964
 2166POPC   C4B29722  13.705  24.207   7.664
 2167POPC   NC329723  28.370  29.969   9.464
 2167POPC   PO429724  28.380  29.889   9.164
 2167POPC   GL129725  28.366  29.915   8.864
 2167POPC   GL229726  28.289  29.820   8.864
 2167POPC   C1A29727  28.340  29.956   8.564
 2167POPC   D2A29728  28.410  29.926   8.264
 2167POPC   C3A29729  28.327  29.956   7.964
 2167POPC   C4A29730  28.348  29.913   7.664
 2167POPC   C1B29731  28.283  29.699   8.564
 2167POPC   C2B29732  28.339  29.703   8.264
 2167POPC   C3B29733  28.334  29.718   7.964
 2167POPC   C4B29734  28.316  29.651   7.664
 2168POPC   NC329735  40.793   2.015   9.464
 2168POPC   PO429736  40.785   1.955   9.164
 2168POPC   GL129737  40.755   1.981   8.864
 2168POPC   GL229738  40.677   2.067   8.864
 2168POPC   C1A29739  40.801   1.981   8.564
 2168POPC   D2A29740  40.812   1.990   8.264
 2168POPC   C3A29741  40.781   1.953   7.964
 2168POPC   C4A29742  40.788   2.000   7.664
 2168POPC   C1B29743  40.639   2.188   8.564
 2168POPC   C2B29744  40.623   2.243   8.264
 2168POPC   C3B29745  40.715   2.195   7.964
 2168POPC   C4B29746  40.657   2.256   7.664
 2169POPC   NC329747  40.023  12.036   9.464
 2169POPC   PO429748  40.020  12.052   9.164
 2169POPC   GL129749  39.975  12.109   8.864
 2169POPC   GL229750  40.125  12.058   8.864
 2169POPC   C1A29751  40.028  12.040   8.564
 2169POPC   D2A29752  39.976  12.125   8.264
 2169POPC   C3A29753  40.019  12.107   7.964
 2169POPC   C4A29754  40.008  12.061   7.664
 2169POPC   C1B29755  40.261  12.077   8.564
 2169POPC   C2B29756  40.241  12.144   8.264
 2169POPC   C3B29757  40.228  12.109   7.964
 2169POPC   C4B29758  40.302  12.086   7.664
 2170POPC   NC329759  40.022  40.826   9.464
 2170POPC   PO429760  40.007  40.801   9.164
 2170POPC   GL129761  40.055  40.811   8.864
 2170POPC   GL229762  39.948  40.728   8.864
 2170POPC   C1A29763  39.980  40.759   8.564
 2170POPC   D2A29764  40.013  40.747   8.264
 2170POPC   C3A29765  39.972  40.778   7.964
 2170POPC   C4A29766  40.048  40.830   7.664
 2170POPC   C1B29767  39.849  40.649   8.564
 2170POPC   C2B29768  39.759  40.664   8.264
 2170POPC   C3B29769  39.815  40.659   7.964
 2170POPC   C4B29770  39.815  40.660   7.664
 2171POPC   NC329771  41.538  28.355   9.464
 2171POPC   PO429772  41.562  28.335   9.164
 2171POPC   GL129773  41.512  28.395   8.864
 2171POPC   GL229774  41.392  28.333   8.864
 2171POPC   C1A29775  41.537  28.332   8.564
 2171POPC   D2A29776  41.569  28.330   8.264
 2171POPC   C3A29777  41.541  28.379   7.964
 2171POPC   C4A29778  41.536  28.328   7.664
 2171POPC   C1B29779  41.286  28.310   8.564
 2171POPC   C2B29780  41.351  28.311   8.264
 2171POPC   C3B29781  41.351  28.315   7.964
 2171POPC   C4B29782  41.327  28.295   7.664
 2172POPC   NC329783   5.117  10.535   9.464
 2172POPC   PO429784   5.126  10.549   9.164
 2172POPC   GL129785   5.139  10.511   8.864
 2172POPC   GL229786   5.115  10.614   8.864
 2172POPC   C1A29787   5.087  10.548   8.564
 2172POPC   D2A29788   5.140  10.484   8.264
 2172POPC   C3A29789   5.130  10.563   7.964
 2172POPC   C4A29790   5.072  10.525   7.664
 2172POPC   C1B29791   5.101  10.748   8.564
 2172POPC   C2B29792   5.188  10.731   8.264
 2172POPC   C3B29793   5.117  10.777   7.964
 2172POPC   C4B29794   5.131  10.768   7.664
 2173POPC   NC329795  32.217  21.339   9.464
 2173POPC   PO429796  32.263  21.344   9.164
 2173POPC   GL129797  32.220  21.418   8.864
 2173POPC   GL229798  32.310  21.465   8.864
 2173POPC   C1A29799  32.200  21.338   8.564
 2173POPC   D2A29800  32.224  21.423   8.264
 2173POPC   C3A29801  32.207  21.370   7.964
 2173POPC   C4A29802  32.228  21.406   7.664
 2173POPC   C1B29803  32.333  21.569   8.564
 2173POPC   C2B29804  32.406  21.565   8.264
 2173POPC   C3B29805  32.387  21.578   7.964
 2173POPC   C4B29806  32.319  21.619   7.664
 2174POPC   NC329807  22.168   5.879   9.464
 2174POPC   PO429808  22.183   5.836   9.164
 2174POPC   GL129809  22.174   5.880   8.864
 2174POPC   GL229810  22.242   5.903   8.864
 2174POPC   C1A29811  22.132   5.844   8.564
 2174POPC   D2A29812  22.143   5.849   8.264
 2174POPC   C3A29813  22.117   5.911   7.964
 2174POPC   C4A29814  22.129   5.874   7.664
 2174POPC   C1B29815  22.398   5.903   8.564
 2174POPC   C2B29816  22.453   5.921   8.264
 2174POPC   C3B29817  22.458   5.893   7.964
 2174POPC   C4B29818  22.415   5.892   7.664
 2175POPC   NC329819   5.831  13.649   9.464
 2175POPC   PO429820   5.829  13.669   9.164
 2175POPC   GL129821   5.852  13.610   8.864
 2175POPC   GL229822   5.936  13.756   8.864
 2175POPC   C1A29823   5.884  13.634   8.564
 2175POPC   D2A29824   5.870  13.634   8.264
 2175POPC   C3A29825   5.842  13.648   7.964
 2175POPC   C4A29826   5.866  13.613   7.664
 2175POPC   C1B29827   5.969  13.837   8.564
 2175POPC   C2B29828   6.005  13.875   8.264
 2175POPC   C3B29829   5.974  13.881   7.964
 2175POPC   C4B29830   5.968  13.834   7.664
 2176POPC   NC329831  40.736  35.317   9.464
 2176POPC   PO429832  40.831  35.364   9.164
 2176POPC   GL129833  40.779  35.384   8.864
 2176POPC   GL229834  40.832  35.464   8.864
 2176POPC   C1A29835  40.756  35.347   8.564
 2176POPC   D2A29836  40.781  35.303   8.264
 2176POPC   C3A29837  40.756  35.383   7.964
 2176POPC   C4A29838  40.812  35.325   7.664
 2176POPC   C1B29839  40.825  35.539   8.564
 2176POPC   C2B29840  40.829  35.557   8.264
 2176POPC   C3B29841  40.917  35.621   7.964
 2176POPC   C4B29842  40.858  35.628   7.664
 2177POPC   NC329843   3.562   7.454   9.464
 2177POPC   PO429844   3.513   7.431   9.164
 2177POPC   GL129845   3.517   7.382   8.864
 2177POPC   GL229846   3.644   7.281   8.864
 2177POPC   C1A29847   3.506   7.433   8.564
 2177POPC   D2A29848   3.532   7.390   8.264
 2177POPC   C3A29849   3.541   7.443   7.964
 2177POPC   C4A29850   3.567   7.421   7.664
 2177POPC   C1B29851   3.718   7.194   8.564
 2177POPC   C2B29852   3.694   7.245   8.264
 2177POPC   C3B29853   3.670   7.234   7.964
 2177POPC   C4B29854   3.747   7.286   7.664
 2178POPC   NC329855  37.701   7.444   9.464
 2178POPC   PO429856  37.636   7.400   9.164
 2178POPC   GL129857  37.719   7.427   8.864
 2178POPC   GL229858  37.662   7.282   8.864
 2178POPC   C1A29859  37.675   7.373   8.564
 2178POPC   D2A29860  37.715   7.425   8.264
 2178POPC   C3A29861  37.699   7.412   7.964
 2178POPC   C4A29862  37.722   7.417   7.664
 2178POPC   C1B29863  37.658   7.205   8.564
 2178POPC   C2B29864  37.621   7.142   8.264
 2178POPC   C3B29865  37.618   7.198   7.964
 2178POPC   C4B29866  37.685   7.176   7.664
 2179POPC   NC329867  24.446  25.309   9.464
 2179POPC   PO429868  24.536  25.251   9.164
 2179POPC   GL129869  24.456  25.216   8.864
 2179POPC   GL229870  24.514  25.134   8.864
 2179POPC   C1A29871  24.472  25.263   8.564
 2179POPC   D2A29872  24.451  25.241   8.264
 2179POPC   C3A29873  24.518  25.275   7.964
 2179POPC   C4A29874  24.441  25.268   7.664
 2179POPC   C1B29875  24.531  25.013   8.564
 2179POPC   C2B29876  24.448  24.982   8.264
 2179POPC   C3B29877  24.523  24.972   7.964
 2179POPC   C4B29878  24.467  25.053   7.664
 2180POPC   NC329879  27.605  28.385   9.464
 2180POPC   PO429880  27.575  28.389   9.164
 2180POPC   GL129881  27.633  28.395   8.864
 2180POPC   GL229882  27.673  28.240   8.864
 2180POPC   C1A29883  27.634  28.367   8.564
 2180POPC   D2A29884  27.586  28.351   8.264
 2180POPC   C3A29885  27.557  28.339   7.964
 2180POPC   C4A29886  27.575  28.416   7.664
 2180POPC   C1B29887  27.723  28.196   8.564
 2180POPC   C2B29888  27.671  28.113   8.264
 2180POPC   C3B29889  27.693  28.175   7.964
 2180POPC   C4B29890  27.735  28.122   7.664
 2181POPC   NC329891  34.613  28.355   9.464
 2181POPC   PO429892  34.602  28.321   9.164
 2181POPC   GL129893  34.534  28.404   8.864
 2181POPC   GL229894  34.411  28.334   8.864
 2181POPC   C1A29895  34.529  28.407   8.564
 2181POPC   D2A29896  34.527  28.375   8.264
 2181POPC   C3A29897  34.626  28.334   7.964
 2181POPC   C4A29898  34.532  28.399   7.664
 2181POPC   C1B29899  34.356  28.295   8.564
 2181POPC   C2B29900  34.379  28.290   8.264
 2181POPC   C3B29901  34.361  28.371   7.964
 2181POPC   C4B29902  34.336  28.303   7.664
 2182POPC   NC329903  32.290  41.519   9.464
 2182POPC   PO429904  32.225  41.547   9.164
 2182POPC   GL129905  32.291  41.542   8.864
 2182POPC   GL229906  32.183  41.636   8.864
 2182POPC   C1A29907  32.262  41.605   8.564
 2182POPC   D2A29908  32.217  41.580   8.264
 2182POPC   C3A29909  32.285  41.542   7.964
 2182POPC   C4A29910  32.213  41.576   7.664
 2182POPC   C1B29911  32.173  41.796   8.564
 2182POPC   C2B29912  32.112  41.742   8.264
 2182POPC   C3B29913  32.146  41.816   7.964
 2182POPC   C4B29914  32.120  41.767   7.664
 2183POPC   NC329915   8.949  15.222   9.464
 2183POPC   PO429916   8.951  15.159   9.164
 2183POPC   GL129917   8.993  15.182   8.864
 2183POPC   GL229918   8.877  15.209   8.864
 2183POPC   C1A29919   8.950  15.227   8.564
 2183POPC   D2A29920   9.003  15.181   8.264
 2183POPC   C3A29921   9.022  15.211   7.964
 2183POPC   C4A29922   8.988  15.206   7.664
 2183POPC   C1B29923   8.748  15.160   8.564
 2183POPC   C2B29924   8.675  15.136   8.264
 2183POPC   C3B29925   8.761  15.107   7.964
 2183POPC   C4B29926   8.743  15.132   7.664
 2184POPC   NC329927  15.949  15.942   9.464
 2184POPC   PO429928  15.962  15.943   9.164
 2184POPC   GL129929  15.999  15.955   8.864
 2184POPC   GL229930  15.910  15.818   8.864
 2184POPC   C1A29931  15.957  15.986   8.564
 2184POPC   D2A29932  15.997  15.920   8.264
 2184POPC   C3A29933  15.986  15.968   7.964
 2184POPC   C4A29934  15.968  15.954   7.664
 2184POPC   C1B29935  15.846  15.738   8.564
 2184POPC   C2B29936  15.834  15.707   8.264
 2184POPC   C3B29937  15.856  15.736   7.964
 2184POPC   C4B29938  15.830  15.743   7.664
 2185POPC   NC329939  32.294  17.557   9.464
 2185POPC   PO429940  32.263  17.495   9.164
 2185POPC   GL129941  32.208  17.541   8.864
 2185POPC   GL229942  32.362  17.457   8.864
 2185POPC   C1A29943  32.245  17.468   8.564
 2185POPC   D2A29944  32.223  17.531   8.264
 2185POPC   C3A29945  32.222  17.489   7.964
 2185POPC   C4A29946  32.257  17.536   7.664
 2185POPC   C1B29947  32.475  17.526   8.564
 2185POPC   C2B29948  32.465  17.546   8.264
 2185POPC   C3B29949  32.468  17.530   7.964
 2185POPC   C4B29950  32.511  17.470   7.664
 2186POPC   NC329951  27.612   8.993   9.464
 2186POPC   PO429952  27.606   8.968   9.164
 2186POPC   GL129953  27.567   8.969   8.864
 2186POPC   GL229954  27.706   8.914   8.864
 2186POPC   C1A29955  27.632   9.021   8.564
 2186POPC   D2A29956  27.619   8.961   8.264
 2186POPC   C3A29957  27.624   8.950   7.964
 2186POPC   C4A29958  27.544   8.997   7.664
 2186POPC   C1B29959  27.878   8.873   8.564
 2186POPC   C2B29960  27.825   8.857   8.264
 2186POPC   C3B29961  27.789   8.860   7.964
 2186POPC   C4B29962  27.780   8.881   7.664
 2187POPC   NC329963  31.478  29.956   9.464
 2187POPC   PO429964  31.498  29.917   9.164
 2187POPC   GL129965  31.432  29.937   8.864
 2187POPC   GL229966  31.548  29.944   8.864
 2187POPC   C1A29967  31.432  29.969   8.564
 2187POPC   D2A29968  31.517  29.930   8.264
 2187POPC   C3A29969  31.423  29.963   7.964
 2187POPC   C4A29970  31.458  29.960   7.664
 2187POPC   C1B29971  31.689  29.867   8.564
 2187POPC   C2B29972  31.687  29.828   8.264
 2187POPC   C3B29973  31.673  29.877   7.964
 2187POPC   C4B29974  31.758  29.860   7.664
 2188POPC   NC329975  40.817   5.133   9.464
 2188POPC   PO429976  40.815   5.071   9.164
 2188POPC   GL129977  40.788   5.067   8.864
 2188POPC   GL229978  40.845   5.047   8.864
 2188POPC   C1A29979  40.741   5.105   8.564
 2188POPC   D2A29980  40.755   5.122   8.264
 2188POPC   C3A29981  40.746   5.104   7.964
 2188POPC   C4A29982  40.748   5.082   7.664
 2188POPC   C1B29983  41.030   5.015   8.564
 2188POPC   C2B29984  41.020   4.983   8.264
 2188POPC   C3B29985  41.036   4.941   7.964
 2188POPC   C4B29986  41.001   5.014   7.664
 2189POPC   NC329987  31.522  36.139   9.464
 2189POPC   PO429988  31.496  36.145   9.164
 2189POPC   GL129989  31.461  36.116   8.864
 2189POPC   GL229990  31.535  36.236   8.864
 2189POPC   C1A29991  31.435  36.091   8.564
 2189POPC   D2A29992  31.513  36.170   8.264
 2189POPC   C3A29993  31.445  36.106   7.964
 2189POPC   C4A29994  31.480  36.120   7.664
 2189POPC   C1B29995  31.514  36.367   8.564
 2189POPC   C2B29996  31.527  36.344   8.264
 2189POPC   C3B29997  31.545  36.354   7.964
 2189POPC   C4B29998  31.557  36.405   7.664
 2190POPC   NC329999  20.608   5.842   9.464
 2190POPC   PO430000  20.648   5.822   9.164
 2190POPC   GL130001  20.632   5.865   8.864
 2190POPC   GL230002  20.742   5.840   8.864
 2190POPC   C1A30003  20.626   5.867   8.564
 2190POPC   D2A30004  20.593   5.865   8.264
 2190POPC   C3A30005  20.571   5.829   7.964
 2190POPC   C4A30006  20.582   5.866   7.664
 2190POPC   C1B30007  20.907   5.877   8.564
 2190POPC   C2B30008  20.818   5.906   8.264
 2190POPC   C3B30009  20.813   5.910   7.964
 2190POPC   C4B30010  20.837   5.913   7.664
 2191POPC   NC330011  26.797  43.917   9.464
 2191POPC   PO430012  26.809  43.855   9.164
 2191POPC   GL130013  26.807  43.905   8.864
 2191POPC   GL230014  26.868  43.968   8.864
 2191POPC   C1A30015  26.835  43.868   8.564
 2191POPC   D2A30016  26.850  43.881   8.264
 2191POPC   C3A30017  26.819  43.886   7.964
 2191POPC   C4A30018  26.863  43.898   7.664
 2191POPC   C1B30019  26.858  44.091   8.564
 2191POPC   C2B30020  26.793  44.156   8.264
 2191POPC   C3B30021  26.827  44.144   7.964
 2191POPC   C4B30022  26.840  44.131   7.664
 2192POPC   NC330023   2.815  13.618   9.464
 2192POPC   PO430024   2.795  13.603   9.164
 2192POPC   GL130025   2.784  13.672   8.864
 2192POPC   GL230026   2.699  13.697   8.864
 2192POPC   C1A30027   2.723  13.633   8.564
 2192POPC   D2A30028   2.745  13.612   8.264
 2192POPC   C3A30029   2.813  13.597   7.964
 2192POPC   C4A30030   2.777  13.627   7.664
 2192POPC   C1B30031   2.579  13.804   8.564
 2192POPC   C2B30032   2.648  13.807   8.264
 2192POPC   C3B30033   2.558  13.775   7.964
 2192POPC   C4B30034   2.606  13.803   7.664
 2193POPC   NC330035  19.824   5.134   9.464
 2193POPC   PO430036  19.881   5.077   9.164
 2193POPC   GL130037  19.792   5.071   8.864
 2193POPC   GL230038  19.721   5.004   8.864
 2193POPC   C1A30039  19.787   5.093   8.564
 2193POPC   D2A30040  19.797   5.054   8.264
 2193POPC   C3A30041  19.837   5.142   7.964
 2193POPC   C4A30042  19.822   5.106   7.664
 2193POPC   C1B30043  19.580   5.056   8.564
 2193POPC   C2B30044  19.639   4.962   8.264
 2193POPC   C3B30045  19.555   5.017   7.964
 2193POPC   C4B30046  19.605   5.015   7.664
 2194POPC   NC330047  33.785  23.736   9.464
 2194POPC   PO430048  33.784  23.696   9.164
 2194POPC   GL130049  33.814  23.762   8.864
 2194POPC   GL230050  33.734  23.812   8.864
 2194POPC   C1A30051  33.796  23.712   8.564
 2194POPC   D2A30052  33.805  23.716   8.264
 2194POPC   C3A30053  33.826  23.675   7.964
 2194POPC   C4A30054  33.791  23.737   7.664
 2194POPC   C1B30055  33.649  23.920   8.564
 2194POPC   C2B30056  33.697  23.907   8.264
 2194POPC   C3B30057  33.703  23.907   7.964
 2194POPC   C4B30058  33.693  23.899   7.664
 2195POPC   NC330059   0.488  11.332   9.464
 2195POPC   PO430060   0.448  11.277   9.164
 2195POPC   GL130061   0.419  11.293   8.864
 2195POPC   GL230062   0.528  11.346   8.864
 2195POPC   C1A30063   0.456  11.255   8.564
 2195POPC   D2A30064   0.389  11.338   8.264
 2195POPC   C3A30065   0.406  11.307   7.964
 2195POPC   C4A30066   0.402  11.341   7.664
 2195POPC   C1B30067   0.673  11.417   8.564
 2195POPC   C2B30068   0.710  11.407   8.264
 2195POPC   C3B30069   0.670  11.375   7.964
 2195POPC   C4B30070   0.662  11.441   7.664
 2196POPC   NC330071  32.231  28.374   9.464
 2196POPC   PO430072  32.247  28.328   9.164
 2196POPC   GL130073  32.277  28.333   8.864
 2196POPC   GL230074  32.340  28.474   8.864
 2196POPC   C1A30075  32.218  28.414   8.564
 2196POPC   D2A30076  32.217  28.361   8.264
 2196POPC   C3A30077  32.202  28.395   7.964
 2196POPC   C4A30078  32.287  28.400   7.664
 2196POPC   C1B30079  32.381  28.552   8.564
 2196POPC   C2B30080  32.356  28.613   8.264
 2196POPC   C3B30081  32.356  28.590   7.964
 2196POPC   C4B30082  32.452  28.573   7.664
 2197POPC   NC330083  23.758  38.432   9.464
 2197POPC   PO430084  23.701  38.450   9.164
 2197POPC   GL130085  23.706  38.499   8.864
 2197POPC   GL230086  23.860  38.424   8.864
 2197POPC   C1A30087  23.678  38.465   8.564
 2197POPC   D2A30088  23.668  38.413   8.264
 2197POPC   C3A30089  23.708  38.501   7.964
 2197POPC   C4A30090  23.746  38.457   7.664
 2197POPC   C1B30091  23.973  38.349   8.564
 2197POPC   C2B30092  23.916  38.430   8.264
 2197POPC   C3B30093  23.933  38.422   7.964
 2197POPC   C4B30094  23.929  38.370   7.664
 2198POPC   NC330095   1.212   9.020   9.464
 2198POPC   PO430096   1.253   8.963   9.164
 2198POPC   GL130097   1.232   8.983   8.864
 2198POPC   GL230098   1.263   9.035   8.864
 2198POPC   C1A30099   1.253   8.979   8.564
 2198POPC   D2A30100   1.211   9.013   8.264
 2198POPC   C3A30101   1.260   8.965   7.964
 2198POPC   C4A30102   1.249   8.975   7.664
 2198POPC   C1B30103   1.314   9.164   8.564
 2198POPC   C2B30104   1.364   9.206   8.264
 2198POPC   C3B30105   1.347   9.212   7.964
 2198POPC   C4B30106   1.310   9.162   7.664
 2199POPC   NC330107  21.367  34.556   9.464
 2199POPC   PO430108  21.429  34.609   9.164
 2199POPC   GL130109  21.405  34.538   8.864
 2199POPC   GL230110  21.223  34.540   8.864
 2199POPC   C1A30111  21.413  34.599   8.564
 2199POPC   D2A30112  21.425  34.588   8.264
 2199POPC   C3A30113  21.384  34.625   7.964
 2199POPC   C4A30114  21.338  34.577   7.664
 2199POPC   C1B30115  21.156  34.523   8.564
 2199POPC   C2B30116  21.132  34.553   8.264
 2199POPC   C3B30117  21.139  34.480   7.964
 2199POPC   C4B30118  21.182  34.506   7.664
 2200POPC   NC330119   9.699  22.917   9.464
 2200POPC   PO430120   9.755  22.976   9.164
 2200POPC   GL130121   9.730  22.894   8.864
 2200POPC   GL230122   9.637  22.909   8.864
 2200POPC   C1A30123   9.780  22.956   8.564
 2200POPC   D2A30124   9.742  22.953   8.264
 2200POPC   C3A30125   9.781  22.977   7.964
 2200POPC   C4A30126   9.702  22.979   7.664
 2200POPC   C1B30127   9.531  22.817   8.564
 2200POPC   C2B30128   9.516  22.736   8.264
 2200POPC   C3B30129   9.558  22.801   7.964
 2200POPC   C4B30130   9.591  22.739   7.664
 2201POPC   NC330131  35.378  30.702   9.464
 2201POPC   PO430132  35.312  30.654   9.164
 2201POPC   GL130133  35.369  30.729   8.864
 2201POPC   GL230134  35.218  30.650   8.864
 2201POPC   C1A30135  35.400  30.736   8.564
 2201POPC   D2A30136  35.366  30.722   8.264
 2201POPC   C3A30137  35.376  30.684   7.964
 2201POPC   C4A30138  35.306  30.733   7.664
 2201POPC   C1B30139  35.162  30.600   8.564
 2201POPC   C2B30140  35.116  30.568   8.264
 2201POPC   C3B30141  35.094  30.630   7.964
 2201POPC   C4B30142  35.157  30.637   7.664
 2202POPC   NC330143   4.322   1.181   9.464
 2202POPC   PO430144   4.308   1.181   9.164
 2202POPC   GL130145   4.326   1.184   8.864
 2202POPC   GL230146   4.199   1.320   8.864
 2202POPC   C1A30147   4.307   1.241   8.564
 2202POPC   D2A30148   4.296   1.165   8.264
 2202POPC   C3A30149   4.299   1.205   7.964
 2202POPC   C4A30150   4.305   1.186   7.664
 2202POPC   C1B30151   4.065   1.377   8.564
 2202POPC   C2B30152   4.148   1.372   8.264
 2202POPC   C3B30153   4.088   1.384   7.964
 2202POPC   C4B30154   4.084   1.381   7.664
 2203POPC   NC330155   6.648   4.364   9.464
 2203POPC   PO430156   6.648   4.303   9.164
 2203POPC   GL130157   6.597   4.318   8.864
 2203POPC   GL230158   6.710   4.392   8.864
 2203POPC   C1A30159   6.641   4.335   8.564
 2203POPC   D2A30160   6.669   4.345   8.264
 2203POPC   C3A30161   6.695   4.315   7.964
 2203POPC   C4A30162   6.659   4.316   7.664
 2203POPC   C1B30163   6.720   4.512   8.564
 2203POPC   C2B30164   6.717   4.569   8.264
 2203POPC   C3B30165   6.714   4.555   7.964
 2203POPC   C4B30166   6.750   4.584   7.664
 2204POPC   NC330167  42.303  19.793   9.464
 2204POPC   PO430168  42.382  19.851   9.164
 2204POPC   GL130169  42.376  19.879   8.864
 2204POPC   GL230170  42.306  19.664   8.864
 2204POPC   C1A30171  42.343  19.815   8.564
 2204POPC   D2A30172  42.381  19.807   8.264
 2204POPC   C3A30173  42.335  19.853   7.964
 2204POPC   C4A30174  42.379  19.853   7.664
 2204POPC   C1B30175  42.312  19.585   8.564
 2204POPC   C2B30176  42.314  19.620   8.264
 2204POPC   C3B30177  42.259  19.599   7.964
 2204POPC   C4B30178  42.310  19.616   7.664
 2205POPC   NC330179   2.812   8.225   9.464
 2205POPC   PO430180   2.775   8.228   9.164
 2205POPC   GL130181   2.749   8.221   8.864
 2205POPC   GL230182   2.713   8.332   8.864
 2205POPC   C1A30183   2.719   8.184   8.564
 2205POPC   D2A30184   2.757   8.176   8.264
 2205POPC   C3A30185   2.728   8.161   7.964
 2205POPC   C4A30186   2.755   8.177   7.664
 2205POPC   C1B30187   2.732   8.494   8.564
 2205POPC   C2B30188   2.746   8.467   8.264
 2205POPC   C3B30189   2.716   8.466   7.964
 2205POPC   C4B30190   2.684   8.493   7.664
 2206POPC   NC330191  34.624   6.643   9.464
 2206POPC   PO430192  34.538   6.694   9.164
 2206POPC   GL130193  34.562   6.685   8.864
 2206POPC   GL230194  34.582   6.553   8.864
 2206POPC   C1A30195  34.608   6.623   8.564
 2206POPC   D2A30196  34.548   6.603   8.264
 2206POPC   C3A30197  34.588   6.647   7.964
 2206POPC   C4A30198  34.536   6.665   7.664
 2206POPC   C1B30199  34.598   6.414   8.564
 2206POPC   C2B30200  34.568   6.374   8.264
 2206POPC   C3B30201  34.607   6.363   7.964
 2206POPC   C4B30202  34.635   6.392   7.664
 2207POPC   NC330203  34.602  12.836   9.464
 2207POPC   PO430204  34.544  12.845   9.164
 2207POPC   GL130205  34.564  12.836   8.864
 2207POPC   GL230206  34.411  12.907   8.864
 2207POPC   C1A30207  34.612  12.898   8.564
 2207POPC   D2A30208  34.533  12.857   8.264
 2207POPC   C3A30209  34.594  12.809   7.964
 2207POPC   C4A30210  34.574  12.849   7.664
 2207POPC   C1B30211  34.341  12.821   8.564
 2207POPC   C2B30212  34.284  12.895   8.264
 2207POPC   C3B30213  34.296  12.823   7.964
 2207POPC   C4B30214  34.325  12.886   7.664
 2208POPC   NC330215  43.151  31.463   9.464
 2208POPC   PO430216  43.133  31.500   9.164
 2208POPC   GL130217  43.088  31.482   8.864
 2208POPC   GL230218  43.211  31.520   8.864
 2208POPC   C1A30219  43.129  31.474   8.564
 2208POPC   D2A30220  43.110  31.471   8.264
 2208POPC   C3A30221  43.132  31.469   7.964
 2208POPC   C4A30222  43.148  31.486   7.664
 2208POPC   C1B30223  43.268  31.598   8.564
 2208POPC   C2B30224  43.249  31.589   8.264
 2208POPC   C3B30225  43.346  31.666   7.964
 2208POPC   C4B30226  43.312  31.592   7.664
 2209POPC   NC330227  26.811  24.446   9.464
 2209POPC   PO430228  26.814  24.504   9.164
 2209POPC   GL130229  26.804  24.529   8.864
 2209POPC   GL230230  26.734  24.421   8.864
 2209POPC   C1A30231  26.826  24.511   8.564
 2209POPC   D2A30232  26.843  24.475   8.264
 2209POPC   C3A30233  26.811  24.509   7.964
 2209POPC   C4A30234  26.804  24.529   7.664
 2209POPC   C1B30235  26.597  24.387   8.564
 2209POPC   C2B30236  26.625  24.316   8.264
 2209POPC   C3B30237  26.629  24.340   7.964
 2209POPC   C4B30238  26.644  24.371   7.664
 2210POPC   NC330239  35.367  18.319   9.464
 2210POPC   PO430240  35.323  18.259   9.164
 2210POPC   GL130241  35.318  18.318   8.864
 2210POPC   GL230242  35.204  18.305   8.864
 2210POPC   C1A30243  35.400  18.277   8.564
 2210POPC   D2A30244  35.395  18.319   8.264
 2210POPC   C3A30245  35.364  18.247   7.964
 2210POPC   C4A30246  35.329  18.292   7.664
 2210POPC   C1B30247  35.118  18.305   8.564
 2210POPC   C2B30248  35.126  18.338   8.264
 2210POPC   C3B30249  35.077  18.301   7.964
 2210POPC   C4B30250  35.111  18.298   7.664
 2211POPC   NC330251  36.861  26.789   9.464
 2211POPC   PO430252  36.947  26.852   9.164
 2211POPC   GL130253  36.949  26.859   8.864
 2211POPC   GL230254  36.996  26.703   8.864
 2211POPC   C1A30255  36.929  26.861   8.564
 2211POPC   D2A30256  36.904  26.817   8.264
 2211POPC   C3A30257  36.895  26.774   7.964
 2211POPC   C4A30258  36.900  26.864   7.664
 2211POPC   C1B30259  37.080  26.650   8.564
 2211POPC   C2B30260  37.036  26.576   8.264
 2211POPC   C3B30261  37.074  26.667   7.964
 2211POPC   C4B30262  37.015  26.612   7.664
 2212POPC   NC330263   2.039  36.093   9.464
 2212POPC   PO430264   2.009  36.136   9.164
 2212POPC   GL130265   1.986  36.177   8.864
 2212POPC   GL230266   2.043  36.037   8.864
 2212POPC   C1A30267   2.022  36.158   8.564
 2212POPC   D2A30268   1.991  36.108   8.264
 2212POPC   C3A30269   1.970  36.139   7.964
 2212POPC   C4A30270   2.020  36.084   7.664
 2212POPC   C1B30271   2.112  35.937   8.564
 2212POPC   C2B30272   2.157  35.931   8.264
 2212POPC   C3B30273   2.185  35.979   7.964
 2212POPC   C4B30274   2.196  35.977   7.664
 2213POPC   NC330275  21.365   8.969   9.464
 2213POPC   PO430276  21.418   8.990   9.164
 2213POPC   GL130277  21.356   8.923   8.864
 2213POPC   GL230278  21.351   8.824   8.864
 2213POPC   C1A30279  21.383   9.017   8.564
 2213POPC   D2A30280  21.339   9.009   8.264
 2213POPC   C3A30281  21.362   8.942   7.964
 2213POPC   C4A30282  21.394   8.923   7.664
 2213POPC   C1B30283  21.310   8.736   8.564
 2213POPC   C2B30284  21.338   8.734   8.264
 2213POPC   C3B30285  21.310   8.714   7.964
 2213POPC   C4B30286  21.324   8.772   7.664
 2214POPC   NC330287  29.874  16.705   9.464
 2214POPC   PO430288  29.904  16.769   9.164
 2214POPC   GL130289  29.938  16.705   8.864
 2214POPC   GL230290  30.012  16.670   8.864
 2214POPC   C1A30291  29.969  16.731   8.564
 2214POPC   D2A30292  29.905  16.778   8.264
 2214POPC   C3A30293  29.943  16.731   7.964
 2214POPC   C4A30294  29.910  16.686   7.664
 2214POPC   C1B30295  30.047  16.530   8.564
 2214POPC   C2B30296  30.062  16.501   8.264
 2214POPC   C3B30297  30.085  16.553   7.964
 2214POPC   C4B30298  30.046  16.502   7.664
 2215POPC   NC330299  12.889  28.390   9.464
 2215POPC   PO430300  12.856  28.343   9.164
 2215POPC   GL130301  12.868  28.386   8.864
 2215POPC   GL230302  12.756  28.288   8.864
 2215POPC   C1A30303  12.827  28.390   8.564
 2215POPC   D2A30304  12.896  28.399   8.264
 2215POPC   C3A30305  12.803  28.354   7.964
 2215POPC   C4A30306  12.820  28.380   7.664
 2215POPC   C1B30307  12.730  28.123   8.564
 2215POPC   C2B30308  12.680  28.205   8.264
 2215POPC   C3B30309  12.736  28.139   7.964
 2215POPC   C4B30310  12.739  28.113   7.664
 2216POPC   NC330311  39.247  14.378   9.464
 2216POPC   PO430312  39.217  14.368   9.164
 2216POPC   GL130313  39.227  14.413   8.864
 2216POPC   GL230314  39.138  14.504   8.864
 2216POPC   C1A30315  39.268  14.376   8.564
 2216POPC   D2A30316  39.224  14.444   8.264
 2216POPC   C3A30317  39.188  14.405   7.964
 2216POPC   C4A30318  39.209  14.424   7.664
 2216POPC   C1B30319  38.981  14.542   8.564
 2216POPC   C2B30320  39.006  14.565   8.264
 2216POPC   C3B30321  39.046  14.508   7.964
 2216POPC   C4B30322  39.041  14.561   7.664
 2217POPC   NC330323  40.807   6.665   9.464
 2217POPC   PO430324  40.768   6.683   9.164
 2217POPC   GL130325  40.750   6.648   8.864
 2217POPC   GL230326  40.766   6.726   8.864
 2217POPC   C1A30327  40.773   6.671   8.564
 2217POPC   D2A30328  40.802   6.645   8.264
 2217POPC   C3A30329  40.778   6.641   7.964
 2217POPC   C4A30330  40.818   6.617   7.664
 2217POPC   C1B30331  40.729   6.840   8.564
 2217POPC   C2B30332  40.635   6.844   8.264
 2217POPC   C3B30333  40.708   6.872   7.964
 2217POPC   C4B30334  40.631   6.898   7.664
 2218POPC   NC330335  20.601  12.041   9.464
 2218POPC   PO430336  20.578  12.108   9.164
 2218POPC   GL130337  20.640  12.057   8.864
 2218POPC   GL230338  20.460  11.977   8.864
 2218POPC   C1A30339  20.599  12.050   8.564
 2218POPC   D2A30340  20.614  12.126   8.264
 2218POPC   C3A30341  20.561  12.074   7.964
 2218POPC   C4A30342  20.583  12.064   7.664
 2218POPC   C1B30343  20.395  11.977   8.564
 2218POPC   C2B30344  20.380  11.987   8.264
 2218POPC   C3B30345  20.406  11.937   7.964
 2218POPC   C4B30346  20.388  11.916   7.664
 2219POPC   NC330347  13.647  14.384   9.464
 2219POPC   PO430348  13.675  14.434   9.164
 2219POPC   GL130349  13.656  14.434   8.864
 2219POPC   GL230350  13.603  14.530   8.864
 2219POPC   C1A30351  13.622  14.366   8.564
 2219POPC   D2A30352  13.640  14.362   8.264
 2219POPC   C3A30353  13.590  14.384   7.964
 2219POPC   C4A30354  13.622  14.374   7.664
 2219POPC   C1B30355  13.666  14.638   8.564
 2219POPC   C2B30356  13.620  14.620   8.264
 2219POPC   C3B30357  13.631  14.648   7.964
 2219POPC   C4B30358  13.618  14.617   7.664
 2220POPC   NC330359  35.396  25.292   9.464
 2220POPC   PO430360  35.376  25.250   9.164
 2220POPC   GL130361  35.346  25.302   8.864
 2220POPC   GL230362  35.480  25.309   8.864
 2220POPC   C1A30363  35.361  25.234   8.564
 2220POPC   D2A30364  35.343  25.283   8.264
 2220POPC   C3A30365  35.325  25.219   7.964
 2220POPC   C4A30366  35.311  25.296   7.664
 2220POPC   C1B30367  35.484  25.472   8.564
 2220POPC   C2B30368  35.498  25.497   8.264
 2220POPC   C3B30369  35.509  25.455   7.964
 2220POPC   C4B30370  35.557  25.453   7.664
 2221POPC   NC330371  19.864  11.327   9.464
 2221POPC   PO430372  19.843  11.296   9.164
 2221POPC   GL130373  19.878  11.346   8.864
 2221POPC   GL230374  19.946  11.275   8.864
 2221POPC   C1A30375  19.876  11.275   8.564
 2221POPC   D2A30376  19.823  11.317   8.264
 2221POPC   C3A30377  19.878  11.262   7.964
 2221POPC   C4A30378  19.882  11.340   7.664
 2221POPC   C1B30379  20.017  11.157   8.564
 2221POPC   C2B30380  20.091  11.155   8.264
 2221POPC   C3B30381  20.075  11.210   7.964
 2221POPC   C4B30382  20.032  11.176   7.664
 2222POPC   NC330383  22.919  38.431   9.464
 2222POPC   PO430384  22.892  38.452   9.164
 2222POPC   GL130385  22.969  38.465   8.864
 2222POPC   GL230386  22.770  38.415   8.864
 2222POPC   C1A30387  22.934  38.417   8.564
 2222POPC   D2A30388  22.907  38.483   8.264
 2222POPC   C3A30389  22.916  38.460   7.964
 2222POPC   C4A30390  22.963  38.452   7.664
 2222POPC   C1B30391  22.706  38.443   8.564
 2222POPC   C2B30392  22.739  38.413   8.264
 2222POPC   C3B30393  22.732  38.439   7.964
 2222POPC   C4B30394  22.696  38.379   7.664
 2223POPC   NC330395  12.811  42.353   9.464
 2223POPC   PO430396  12.832  42.365   9.164
 2223POPC   GL130397  12.855  42.347   8.864
 2223POPC   GL230398  12.737  42.264   8.864
 2223POPC   C1A30399  12.829  42.362   8.564
 2223POPC   D2A30400  12.875  42.316   8.264
 2223POPC   C3A30401  12.840  42.300   7.964
 2223POPC   C4A30402  12.873  42.368   7.664
 2223POPC   C1B30403  12.745  42.118   8.564
 2223POPC   C2B30404  12.750  42.119   8.264
 2223POPC   C3B30405  12.678  42.133   7.964
 2223POPC   C4B30406  12.741  42.154   7.664
 2224POPC   NC330407  41.526  22.129   9.464
 2224POPC   PO430408  41.517  22.158   9.164
 2224POPC   GL130409  41.608  22.162   8.864
 2224POPC   GL230410  41.606  22.311   8.864
 2224POPC   C1A30411  41.536  22.114   8.564
 2224POPC   D2A30412  41.557  22.120   8.264
 2224POPC   C3A30413  41.525  22.115   7.964
 2224POPC   C4A30414  41.554  22.207   7.664
 2224POPC   C1B30415  41.679  22.418   8.564
 2224POPC   C2B30416  41.660  22.373   8.264
 2224POPC   C3B30417  41.671  22.344   7.964
 2224POPC   C4B30418  41.648  22.430   7.664
 2225POPC   NC330419  11.257  19.027   9.464
 2225POPC   PO430420  11.310  19.027   9.164
 2225POPC   GL130421  11.258  19.033   8.864
 2225POPC   GL230422  11.178  19.070   8.864
 2225POPC   C1A30423  11.285  19.031   8.564
 2225POPC   D2A30424  11.303  19.025   8.264
 2225POPC   C3A30425  11.312  19.052   7.964
 2225POPC   C4A30426  11.299  19.102   7.664
 2225POPC   C1B30427  11.060  19.100   8.564
 2225POPC   C2B30428  11.076  19.053   8.264
 2225POPC   C3B30429  11.011  19.094   7.964
 2225POPC   C4B30430  11.066  19.116   7.664
 2226POPC   NC330431   4.321   8.151   9.464
 2226POPC   PO430432   4.333   8.216   9.164
 2226POPC   GL130433   4.319   8.187   8.864
 2226POPC   GL230434   4.356   8.090   8.864
 2226POPC   C1A30435   4.282   8.210   8.564
 2226POPC   D2A30436   4.355   8.239   8.264
 2226POPC   C3A30437   4.300   8.246   7.964
 2226POPC   C4A30438   4.269   8.202   7.664
 2226POPC   C1B30439   4.267   7.948   8.564
 2226POPC   C2B30440   4.309   7.995   8.264
 2226POPC   C3B30441   4.274   7.942   7.964
 2226POPC   C4B30442   4.341   7.904   7.664
 2227POPC   NC330443  12.854  13.670   9.464
 2227POPC   PO430444  12.802  13.599   9.164
 2227POPC   GL130445  12.805  13.583   8.864
 2227POPC   GL230446  12.766  13.651   8.864
 2227POPC   C1A30447  12.861  13.595   8.564
 2227POPC   D2A30448  12.852  13.613   8.264
 2227POPC   C3A30449  12.885  13.594   7.964
 2227POPC   C4A30450  12.844  13.619   7.664
 2227POPC   C1B30451  12.576  13.666   8.564
 2227POPC   C2B30452  12.588  13.693   8.264
 2227POPC   C3B30453  12.572  13.710   7.964
 2227POPC   C4B30454  12.618  13.742   7.664
 2228POPC   NC330455  36.139  25.245   9.464
 2228POPC   PO430456  36.103  25.282   9.164
 2228POPC   GL130457  36.092  25.276   8.864
 2228POPC   GL230458  36.235  25.325   8.864
 2228POPC   C1A30459  36.092  25.269   8.564
 2228POPC   D2A30460  36.128  25.272   8.264
 2228POPC   C3A30461  36.129  25.296   7.964
 2228POPC   C4A30462  36.154  25.306   7.664
 2228POPC   C1B30463  36.327  25.360   8.564
 2228POPC   C2B30464  36.405  25.349   8.264
 2228POPC   C3B30465  36.347  25.312   7.964
 2228POPC   C4B30466  36.375  25.312   7.664
 2229POPC   NC330467   5.881  27.615   9.464
 2229POPC   PO430468   5.884  27.610   9.164
 2229POPC   GL130469   5.914  27.594   8.864
 2229POPC   GL230470   5.822  27.465   8.864
 2229POPC   C1A30471   5.862  27.619   8.564
 2229POPC   D2A30472   5.839  27.593   8.264
 2229POPC   C3A30473   5.842  27.561   7.964
 2229POPC   C4A30474   5.846  27.605   7.664
 2229POPC   C1B30475   5.862  27.365   8.564
 2229POPC   C2B30476   5.877  27.387   8.264
 2229POPC   C3B30477   5.827  27.382   7.964
 2229POPC   C4B30478   5.873  27.334   7.664
 2230POPC   NC330479  17.479   5.110   9.464
 2230POPC   PO430480  17.459   5.142   9.164
 2230POPC   GL130481  17.497   5.119   8.864
 2230POPC   GL230482  17.627   5.093   8.864
 2230POPC   C1A30483  17.536   5.101   8.564
 2230POPC   D2A30484  17.549   5.100   8.264
 2230POPC   C3A30485  17.503   5.044   7.964
 2230POPC   C4A30486  17.517   5.062   7.664
 2230POPC   C1B30487  17.750   5.031   8.564
 2230POPC   C2B30488  17.721   4.985   8.264
 2230POPC   C3B30489  17.785   4.961   7.964
 2230POPC   C4B30490  17.758   5.041   7.664
 2231POPC   NC330491  11.317  33.836   9.464
 2231POPC   PO430492  11.333  33.812   9.164
 2231POPC   GL130493  11.345  33.772   8.864
 2231POPC   GL230494  11.248  33.707   8.864
 2231POPC   C1A30495  11.257  33.825   8.564
 2231POPC   D2A30496  11.266  33.820   8.264
 2231POPC   C3A30497  11.331  33.769   7.964
 2231POPC   C4A30498  11.348  33.795   7.664
 2231POPC   C1B30499  11.227  33.517   8.564
 2231POPC   C2B30500  11.218  33.518   8.264
 2231POPC   C3B30501  11.191  33.574   7.964
 2231POPC   C4B30502  11.189  33.591   7.664
 2232POPC   NC330503  35.364  28.352   9.464
 2232POPC   PO430504  35.366  28.402   9.164
 2232POPC   GL130505  35.363  28.367   8.864
 2232POPC   GL230506  35.429  28.495   8.864
 2232POPC   C1A30507  35.302  28.375   8.564
 2232POPC   D2A30508  35.389  28.409   8.264
 2232POPC   C3A30509  35.323  28.341   7.964
 2232POPC   C4A30510  35.381  28.404   7.664
 2232POPC   C1B30511  35.520  28.611   8.564
 2232POPC   C2B30512  35.530  28.585   8.264
 2232POPC   C3B30513  35.546  28.550   7.964
 2232POPC   C4B30514  35.513  28.591   7.664
 2233POPC   NC330515  12.063   5.852   9.464
 2233POPC   PO430516  12.068   5.916   9.164
 2233POPC   GL130517  12.096   5.891   8.864
 2233POPC   GL230518  12.189   5.847   8.864
 2233POPC   C1A30519  12.077   5.880   8.564
 2233POPC   D2A30520  12.090   5.858   8.264
 2233POPC   C3A30521  12.104   5.912   7.964
 2233POPC   C4A30522  12.098   5.898   7.664
 2233POPC   C1B30523  12.304   5.872   8.564
 2233POPC   C2B30524  12.357   5.885   8.264
 2233POPC   C3B30525  12.360   5.850   7.964
 2233POPC   C4B30526  12.335   5.797   7.664
 2234POPC   NC330527  31.440   0.390   9.464
 2234POPC   PO430528  31.480   0.450   9.164
 2234POPC   GL130529  31.510   0.442   8.864
 2234POPC   GL230530  31.415   0.549   8.864
 2234POPC   C1A30531  31.443   0.479   8.564
 2234POPC   D2A30532  31.520   0.442   8.264
 2234POPC   C3A30533  31.438   0.391   7.964
 2234POPC   C4A30534  31.467   0.431   7.664
 2234POPC   C1B30535  31.457   0.681   8.564
 2234POPC   C2B30536  31.376   0.701   8.264
 2234POPC   C3B30537  31.385   0.669   7.964
 2234POPC   C4B30538  31.406   0.713   7.664
 2235POPC   NC330539  38.479   7.430   9.464
 2235POPC   PO430540  38.408   7.403   9.164
 2235POPC   GL130541  38.454   7.414   8.864
 2235POPC   GL230542  38.447   7.497   8.864
 2235POPC   C1A30543  38.447   7.446   8.564
 2235POPC   D2A30544  38.418   7.395   8.264
 2235POPC   C3A30545  38.505   7.421   7.964
 2235POPC   C4A30546  38.464   7.460   7.664
 2235POPC   C1B30547  38.431   7.655   8.564
 2235POPC   C2B30548  38.461   7.673   8.264
 2235POPC   C3B30549  38.497   7.703   7.964
 2235POPC   C4B30550  38.471   7.710   7.664
 2236POPC   NC330551  26.074  11.271   9.464
 2236POPC   PO430552  26.046  11.310   9.164
 2236POPC   GL130553  26.062  11.337   8.864
 2236POPC   GL230554  26.095  11.408   8.864
 2236POPC   C1A30555  26.029  11.251   8.564
 2236POPC   D2A30556  26.090  11.330   8.264
 2236POPC   C3A30557  26.091  11.271   7.964
 2236POPC   C4A30558  25.997  11.337   7.664
 2236POPC   C1B30559  26.194  11.483   8.564
 2236POPC   C2B30560  26.147  11.517   8.264
 2236POPC   C3B30561  26.168  11.460   7.964
 2236POPC   C4B30562  26.148  11.484   7.664
 2237POPC   NC330563  42.371   3.577   9.464
 2237POPC   PO430564  42.296   3.494   9.164
 2237POPC   GL130565  42.358   3.541   8.864
 2237POPC   GL230566  42.252   3.549   8.864
 2237POPC   C1A30567  42.286   3.542   8.564
 2237POPC   D2A30568  42.308   3.497   8.264
 2237POPC   C3A30569  42.350   3.506   7.964
 2237POPC   C4A30570  42.359   3.496   7.664
 2237POPC   C1B30571  42.073   3.598   8.564
 2237POPC   C2B30572  42.100   3.677   8.264
 2237POPC   C3B30573  42.136   3.651   7.964
 2237POPC   C4B30574  42.072   3.696   7.664
 2238POPC   NC330575   7.403  31.501   9.464
 2238POPC   PO430576   7.444  31.445   9.164
 2238POPC   GL130577   7.449  31.503   8.864
 2238POPC   GL230578   7.268  31.405   8.864
 2238POPC   C1A30579   7.446  31.507   8.564
 2238POPC   D2A30580   7.408  31.454   8.264
 2238POPC   C3A30581   7.373  31.498   7.964
 2238POPC   C4A30582   7.468  31.522   7.664
 2238POPC   C1B30583   7.141  31.436   8.564
 2238POPC   C2B30584   7.176  31.417   8.264
 2238POPC   C3B30585   7.157  31.402   7.964
 2238POPC   C4B30586   7.174  31.418   7.664
 2239POPC   NC330587  29.186   7.416   9.464
 2239POPC   PO430588  29.174   7.442   9.164
 2239POPC   GL130589  29.096   7.453   8.864
 2239POPC   GL230590  29.160   7.260   8.864
 2239POPC   C1A30591  29.108   7.442   8.564
 2239POPC   D2A30592  29.188   7.461   8.264
 2239POPC   C3A30593  29.183   7.424   7.964
 2239POPC   C4A30594  29.122   7.453   7.664
 2239POPC   C1B30595  29.222   7.179   8.564
 2239POPC   C2B30596  29.172   7.204   8.264
 2239POPC   C3B30597  29.173   7.215   7.964
 2239POPC   C4B30598  29.195   7.143   7.664
 2240POPC   NC330599  11.313  12.893   9.464
 2240POPC   PO430600  11.291  12.863   9.164
 2240POPC   GL130601  11.307  12.827   8.864
 2240POPC   GL230602  11.283  12.683   8.864
 2240POPC   C1A30603  11.299  12.835   8.564
 2240POPC   D2A30604  11.276  12.885   8.264
 2240POPC   C3A30605  11.280  12.899   7.964
 2240POPC   C4A30606  11.268  12.871   7.664
 2240POPC   C1B30607  11.190  12.569   8.564
 2240POPC   C2B30608  11.259  12.622   8.264
 2240POPC   C3B30609  11.211  12.656   7.964
 2240POPC   C4B30610  11.273  12.564   7.664
 2241POPC   NC330611  22.930  44.695   9.464
 2241POPC   PO430612  22.933  44.689   9.164
 2241POPC   GL130613  22.902  44.660   8.864
 2241POPC   GL230614  22.881  44.738   8.864
 2241POPC   C1A30615  22.969  44.663   8.564
 2241POPC   D2A30616  22.900  44.645   8.264
 2241POPC   C3A30617  22.895  44.680   7.964
 2241POPC   C4A30618  22.940  44.660   7.664
 2241POPC   C1B30619  22.723  44.800   8.564
 2241POPC   C2B30620  22.744  44.831   8.264
 2241POPC   C3B30621  22.724  44.775   7.964
 2241POPC   C4B30622  22.725  44.788   7.664
 2242POPC   NC330623  34.544   1.228   9.464
 2242POPC   PO430624  34.567   1.224   9.164
 2242POPC   GL130625  34.624   1.257   8.864
 2242POPC   GL230626  34.684   1.222   8.864
 2242POPC   C1A30627  34.577   1.215   8.564
 2242POPC   D2A30628  34.603   1.207   8.264
 2242POPC   C3A30629  34.526   1.197   7.964
 2242POPC   C4A30630  34.542   1.224   7.664
 2242POPC   C1B30631  34.778   1.335   8.564
 2242POPC   C2B30632  34.819   1.323   8.264
 2242POPC   C3B30633  34.841   1.316   7.964
 2242POPC   C4B30634  34.850   1.291   7.664
 2243POPC   NC330635  43.930   1.232   9.464
 2243POPC   PO430636  43.895   1.254   9.164
 2243POPC   GL130637  43.911   1.262   8.864
 2243POPC   GL230638  43.857   1.050   8.864
 2243POPC   C1A30639  43.893   1.254   8.564
 2243POPC   D2A30640  43.864   1.188   8.264
 2243POPC   C3A30641  43.865   1.241   7.964
 2243POPC   C4A30642  43.885   1.173   7.664
 2243POPC   C1B30643  43.885   1.004   8.564
 2243POPC   C2B30644  43.896   0.955   8.264
 2243POPC   C3B30645  43.953   0.936   7.964
 2243POPC   C4B30646  43.875   0.958   7.664
 2244POPC   NC330647  36.080  15.947   9.464
 2244POPC   PO430648  36.105  15.931   9.164
 2244POPC   GL130649  36.094  15.977   8.864
 2244POPC   GL230650  36.117  15.796   8.864
 2244POPC   C1A30651  36.153  15.921   8.564
 2244POPC   D2A30652  36.137  15.951   8.264
 2244POPC   C3A30653  36.145  15.970   7.964
 2244POPC   C4A30654  36.150  15.946   7.664
 2244POPC   C1B30655  36.064  15.743   8.564
 2244POPC   C2B30656  36.032  15.716   8.264
 2244POPC   C3B30657  36.049  15.719   7.964
 2244POPC   C4B30658  35.999  15.708   7.664
 2245POPC   NC330659  44.648  24.459   9.464
 2245POPC   PO430660  44.706  24.501   9.164
 2245POPC   GL130661  44.652  24.466   8.864
 2245POPC   GL230662  44.633  24.388   8.864
 2245POPC   C1A30663  44.629  24.502   8.564
 2245POPC   D2A30664  44.616  24.503   8.264
 2245POPC   C3A30665  44.673  24.500   7.964
 2245POPC   C4A30666  44.659  24.469   7.664
 2245POPC   C1B30667  44.560  24.334   8.564
 2245POPC   C2B30668  44.475  24.292   8.264
 2245POPC   C3B30669  44.535  24.265   7.964
 2245POPC   C4B30670  44.465  24.273   7.664
 2246POPC   NC330671  23.686  35.398   9.464
 2246POPC   PO430672  23.703  35.364   9.164
 2246POPC   GL130673  23.691  35.364   8.864
 2246POPC   GL230674  23.615  35.469   8.864
 2246POPC   C1A30675  23.746  35.303   8.564
 2246POPC   D2A30676  23.685  35.347   8.264
 2246POPC   C3A30677  23.670  35.367   7.964
 2246POPC   C4A30678  23.716  35.347   7.664
 2246POPC   C1B30679  23.524  35.543   8.564
 2246POPC   C2B30680  23.582  35.544   8.264
 2246POPC   C3B30681  23.507  35.499   7.964
 2246POPC   C4B30682  23.502  35.573   7.664
 2247POPC   NC330683  38.504  25.228   9.464
 2247POPC   PO430684  38.425  25.307   9.164
 2247POPC   GL130685  38.504  25.268   8.864
 2247POPC   GL230686  38.511  25.360   8.864
 2247POPC   C1A30687  38.505  25.226   8.564
 2247POPC   D2A30688  38.416  25.229   8.264
 2247POPC   C3A30689  38.503  25.243   7.964
 2247POPC   C4A30690  38.490  25.281   7.664
 2247POPC   C1B30691  38.672  25.466   8.564
 2247POPC   C2B30692  38.690  25.456   8.264
 2247POPC   C3B30693  38.614  25.430   7.964
 2247POPC   C4B30694  38.608  25.474   7.664
 2248POPC   NC330695   1.171  21.433   9.464
 2248POPC   PO430696   1.210  21.383   9.164
 2248POPC   GL130697   1.235  21.346   8.864
 2248POPC   GL230698   1.375  21.335   8.864
 2248POPC   C1A30699   1.167  21.422   8.564
 2248POPC   D2A30700   1.196  21.372   8.264
 2248POPC   C3A30701   1.233  21.395   7.964
 2248POPC   C4A30702   1.239  21.350   7.664
 2248POPC   C1B30703   1.459  21.376   8.564
 2248POPC   C2B30704   1.431  21.356   8.264
 2248POPC   C3B30705   1.467  21.322   7.964
 2248POPC   C4B30706   1.485  21.394   7.664
 2249POPC   NC330707  20.635   1.212   9.464
 2249POPC   PO430708  20.606   1.229   9.164
 2249POPC   GL130709  20.642   1.254   8.864
 2249POPC   GL230710  20.723   1.257   8.864
 2249POPC   C1A30711  20.633   1.264   8.564
 2249POPC   D2A30712  20.643   1.253   8.264
 2249POPC   C3A30713  20.650   1.190   7.964
 2249POPC   C4A30714  20.599   1.217   7.664
 2249POPC   C1B30715  20.854   1.413   8.564
 2249POPC   C2B30716  20.806   1.350   8.264
 2249POPC   C3B30717  20.820   1.409   7.964
 2249POPC   C4B30718  20.833   1.364   7.664
 2250POPC   NC330719  39.263  43.085   9.464
 2250POPC   PO430720  39.270  43.132   9.164
 2250POPC   GL130721  39.218  43.115   8.864
 2250POPC   GL230722  39.171  43.004   8.864
 2250POPC   C1A30723  39.201  43.098   8.564
 2250POPC   D2A30724  39.222  43.110   8.264
 2250POPC   C3A30725  39.241  43.075   7.964
 2250POPC   C4A30726  39.239  43.101   7.664
 2250POPC   C1B30727  39.088  42.956   8.564
 2250POPC   C2B30728  39.055  42.936   8.264
 2250POPC   C3B30729  39.077  42.917   7.964
 2250POPC   C4B30730  39.050  42.903   7.664
 2251POPC   NC330731  32.983  27.574   9.464
 2251POPC   PO430732  33.002  27.574   9.164
 2251POPC   GL130733  33.069  27.556   8.864
 2251POPC   GL230734  33.102  27.704   8.864
 2251POPC   C1A30735  33.062  27.610   8.564
 2251POPC   D2A30736  33.037  27.614   8.264
 2251POPC   C3A30737  33.014  27.598   7.964
 2251POPC   C4A30738  32.979  27.599   7.664
 2251POPC   C1B30739  33.077  27.814   8.564
 2251POPC   C2B30740  33.156  27.829   8.264
 2251POPC   C3B30741  33.085  27.841   7.964
 2251POPC   C4B30742  33.138  27.827   7.664
 2252POPC   NC330743  27.633  19.043   9.464
 2252POPC   PO430744  27.617  19.013   9.164
 2252POPC   GL130745  27.552  19.090   8.864
 2252POPC   GL230746  27.501  19.075   8.864
 2252POPC   C1A30747  27.601  19.077   8.564
 2252POPC   D2A30748  27.620  19.074   8.264
 2252POPC   C3A30749  27.597  19.088   7.964
 2252POPC   C4A30750  27.631  19.104   7.664
 2252POPC   C1B30751  27.342  19.042   8.564
 2252POPC   C2B30752  27.323  19.067   8.264
 2252POPC   C3B30753  27.315  19.091   7.964
 2252POPC   C4B30754  27.365  19.045   7.664
 2253POPC   NC330755  33.044  13.649   9.464
 2253POPC   PO430756  33.047  13.659   9.164
 2253POPC   GL130757  32.980  13.580   8.864
 2253POPC   GL230758  33.114  13.567   8.864
 2253POPC   C1A30759  33.047  13.629   8.564
 2253POPC   D2A30760  32.979  13.674   8.264
 2253POPC   C3A30761  32.990  13.644   7.964
 2253POPC   C4A30762  32.993  13.643   7.664
 2253POPC   C1B30763  33.206  13.463   8.564
 2253POPC   C2B30764  33.204  13.475   8.264
 2253POPC   C3B30765  33.264  13.466   7.964
 2253POPC   C4B30766  33.237  13.534   7.664
 2254POPC   NC330767   4.328  44.626   9.464
 2254POPC   PO430768   4.313  44.706   9.164
 2254POPC   GL130769   4.350  44.709   8.864
 2254POPC   GL230770   4.228  44.587   8.864
 2254POPC   C1A30771   4.280  44.679   8.564
 2254POPC   D2A30772   4.319  44.676   8.264
 2254POPC   C3A30773   4.293  44.652   7.964
 2254POPC   C4A30774   4.359  44.674   7.664
 2254POPC   C1B30775   4.132  44.538   8.564
 2254POPC   C2B30776   4.125  44.501   8.264
 2254POPC   C3B30777   4.083  44.561   7.964
 2254POPC   C4B30778   4.106  44.532   7.664
 2255POPC   NC330779   5.097   5.898   9.464
 2255POPC   PO430780   5.118   5.830   9.164
 2255POPC   GL130781   5.095   5.883   8.864
 2255POPC   GL230782   5.049   6.021   8.864
 2255POPC   C1A30783   5.074   5.889   8.564
 2255POPC   D2A30784   5.115   5.845   8.264
 2255POPC   C3A30785   5.113   5.840   7.964
 2255POPC   C4A30786   5.087   5.866   7.664
 2255POPC   C1B30787   5.038   6.148   8.564
 2255POPC   C2B30788   5.055   6.103   8.264
 2255POPC   C3B30789   5.039   6.121   7.964
 2255POPC   C4B30790   4.988   6.145   7.664
 2256POPC   NC330791  15.198  15.167   9.464
 2256POPC   PO430792  15.191  15.188   9.164
 2256POPC   GL130793  15.154  15.147   8.864
 2256POPC   GL230794  15.222  15.335   8.864
 2256POPC   C1A30795  15.191  15.131   8.564
 2256POPC   D2A30796  15.205  15.196   8.264
 2256POPC   C3A30797  15.149  15.207   7.964
 2256POPC   C4A30798  15.227  15.184   7.664
 2256POPC   C1B30799  15.192  15.388   8.564
 2256POPC   C2B30800  15.209  15.444   8.264
 2256POPC   C3B30801  15.242  15.382   7.964
 2256POPC   C4B30802  15.252  15.461   7.664
 2257POPC   NC330803  16.751   1.228   9.464
 2257POPC   PO430804  16.733   1.231   9.164
 2257POPC   GL130805  16.713   1.210   8.864
 2257POPC   GL230806  16.689   1.286   8.864
 2257POPC   C1A30807  16.691   1.227   8.564
 2257POPC   D2A30808  16.760   1.206   8.264
 2257POPC   C3A30809  16.774   1.191   7.964
 2257POPC   C4A30810  16.706   1.206   7.664
 2257POPC   C1B30811  16.580   1.417   8.564
 2257POPC   C2B30812  16.548   1.430   8.264
 2257POPC   C3B30813  16.533   1.424   7.964
 2257POPC   C4B30814  16.578   1.405   7.664
 2258POPC   NC330815  38.432   6.671   9.464
 2258POPC   PO430816  38.447   6.617   9.164
 2258POPC   GL130817  38.431   6.650   8.864
 2258POPC   GL230818  38.300   6.663   8.864
 2258POPC   C1A30819  38.422   6.648   8.564
 2258POPC   D2A30820  38.463   6.611   8.264
 2258POPC   C3A30821  38.416   6.653   7.964
 2258POPC   C4A30822  38.449   6.666   7.664
 2258POPC   C1B30823  38.212   6.666   8.564
 2258POPC   C2B30824  38.253   6.690   8.264
 2258POPC   C3B30825  38.226   6.714   7.964
 2258POPC   C4B30826  38.169   6.645   7.664
 2259POPC   NC330827  27.554  35.377   9.464
 2259POPC   PO430828  27.612  35.393   9.164
 2259POPC   GL130829  27.570  35.399   8.864
 2259POPC   GL230830  27.503  35.483   8.864
 2259POPC   C1A30831  27.564  35.351   8.564
 2259POPC   D2A30832  27.622  35.315   8.264
 2259POPC   C3A30833  27.627  35.387   7.964
 2259POPC   C4A30834  27.623  35.366   7.664
 2259POPC   C1B30835  27.498  35.608   8.564
 2259POPC   C2B30836  27.473  35.571   8.264
 2259POPC   C3B30837  27.458  35.573   7.964
 2259POPC   C4B30838  27.460  35.561   7.664
 2260POPC   NC330839  28.384  16.761   9.464
 2260POPC   PO430840  28.405  16.753   9.164
 2260POPC   GL130841  28.327  16.771   8.864
 2260POPC   GL230842  28.226  16.718   8.864
 2260POPC   C1A30843  28.370  16.710   8.564
 2260POPC   D2A30844  28.383  16.713   8.264
 2260POPC   C3A30845  28.362  16.770   7.964
 2260POPC   C4A30846  28.336  16.695   7.664
 2260POPC   C1B30847  28.113  16.749   8.564
 2260POPC   C2B30848  28.149  16.740   8.264
 2260POPC   C3B30849  28.147  16.810   7.964
 2260POPC   C4B30850  28.165  16.729   7.664
 2261POPC   NC330851  32.987  29.913   9.464
 2261POPC   PO430852  32.978  29.916   9.164
 2261POPC   GL130853  33.019  29.960   8.864
 2261POPC   GL230854  32.866  29.981   8.864
 2261POPC   C1A30855  33.020  29.929   8.564
 2261POPC   D2A30856  33.046  29.877   8.264
 2261POPC   C3A30857  33.068  29.898   7.964
 2261POPC   C4A30858  33.009  29.896   7.664
 2261POPC   C1B30859  32.811  30.000   8.564
 2261POPC   C2B30860  32.758  29.953   8.264
 2261POPC   C3B30861  32.824  29.946   7.964
 2261POPC   C4B30862  32.754  30.011   7.664
 2262POPC   NC330863  23.744  15.185   9.464
 2262POPC   PO430864  23.706  15.162   9.164
 2262POPC   GL130865  23.760  15.130   8.864
 2262POPC   GL230866  23.861  15.073   8.864
 2262POPC   C1A30867  23.712  15.175   8.564
 2262POPC   D2A30868  23.752  15.154   8.264
 2262POPC   C3A30869  23.725  15.224   7.964
 2262POPC   C4A30870  23.688  15.220   7.664
 2262POPC   C1B30871  23.948  15.058   8.564
 2262POPC   C2B30872  23.894  15.017   8.264
 2262POPC   C3B30873  23.949  15.028   7.964
 2262POPC   C4B30874  23.903  15.095   7.664
 2263POPC   NC330875  12.825  19.054   9.464
 2263POPC   PO430876  12.859  19.061   9.164
 2263POPC   GL130877  12.899  19.091   8.864
 2263POPC   GL230878  12.760  19.128   8.864
 2263POPC   C1A30879  12.901  19.015   8.564
 2263POPC   D2A30880  12.881  19.016   8.264
 2263POPC   C3A30881  12.827  19.037   7.964
 2263POPC   C4A30882  12.802  19.062   7.664
 2263POPC   C1B30883  12.790  19.259   8.564
 2263POPC   C2B30884  12.784  19.317   8.264
 2263POPC   C3B30885  12.745  19.329   7.964
 2263POPC   C4B30886  12.744  19.240   7.664
 2264POPC   NC330887  26.036  33.786   9.464
 2264POPC   PO430888  26.064  33.829   9.164
 2264POPC   GL130889  26.006  33.824   8.864
 2264POPC   GL230890  26.005  33.922   8.864
 2264POPC   C1A30891  26.071  33.821   8.564
 2264POPC   D2A30892  26.059  33.837   8.264
 2264POPC   C3A30893  25.993  33.750   7.964
 2264POPC   C4A30894  26.087  33.798   7.664
 2264POPC   C1B30895  25.957  33.982   8.564
 2264POPC   C2B30896  25.952  33.991   8.264
 2264POPC   C3B30897  25.886  34.033   7.964
 2264POPC   C4B30898  25.953  33.997   7.664
 2265POPC   NC330899  40.051  20.655   9.464
 2265POPC   PO430900  39.998  20.580   9.164
 2265POPC   GL130901  40.019  20.646   8.864
 2265POPC   GL230902  39.891  20.474   8.864
 2265POPC   C1A30903  39.969  20.594   8.564
 2265POPC   D2A30904  39.975  20.576   8.264
 2265POPC   C3A30905  39.998  20.647   7.964
 2265POPC   C4A30906  40.032  20.563   7.664
 2265POPC   C1B30907  39.863  20.370   8.564
 2265POPC   C2B30908  39.871  20.373   8.264
 2265POPC   C3B30909  39.878  20.450   7.964
 2265POPC   C4B30910  39.814  20.467   7.664
 2266POPC   NC330911  23.697  44.635   9.464
 2266POPC   PO430912  23.714  44.619   9.164
 2266POPC   GL130913  23.672  44.664   8.864
 2266POPC   GL230914  23.625  44.634   8.864
 2266POPC   C1A30915  23.671  44.634   8.564
 2266POPC   D2A30916  23.709  44.669   8.264
 2266POPC   C3A30917  23.675  44.700   7.964
 2266POPC   C4A30918  23.754  44.635   7.664
 2266POPC   C1B30919  23.494  44.710   8.564
 2266POPC   C2B30920  23.451  44.643   8.264
 2266POPC   C3B30921  23.504  44.686   7.964
 2266POPC   C4B30922  23.445  44.664   7.664
 2267POPC   NC330923  38.424   8.947   9.464
 2267POPC   PO430924  38.474   8.974   9.164
 2267POPC   GL130925  38.445   8.957   8.864
 2267POPC   GL230926  38.488   8.902   8.864
 2267POPC   C1A30927  38.481   8.936   8.564
 2267POPC   D2A30928  38.435   8.928   8.264
 2267POPC   C3A30929  38.436   8.958   7.964
 2267POPC   C4A30930  38.501   8.955   7.664
 2267POPC   C1B30931  38.609   8.822   8.564
 2267POPC   C2B30932  38.647   8.802   8.264
 2267POPC   C3B30933  38.571   8.745   7.964
 2267POPC   C4B30934  38.572   8.734   7.664
 2268POPC   NC330935  33.819  25.250   9.464
 2268POPC   PO430936  33.791  25.262   9.164
 2268POPC   GL130937  33.838  25.234   8.864
 2268POPC   GL230938  33.722  25.378   8.864
 2268POPC   C1A30939  33.829  25.217   8.564
 2268POPC   D2A30940  33.789  25.305   8.264
 2268POPC   C3A30941  33.792  25.313   7.964
 2268POPC   C4A30942  33.780  25.260   7.664
 2268POPC   C1B30943  33.667  25.440   8.564
 2268POPC   C2B30944  33.637  25.476   8.264
 2268POPC   C3B30945  33.635  25.456   7.964
 2268POPC   C4B30946  33.638  25.494   7.664
 2269POPC   NC330947  35.333  37.642   9.464
 2269POPC   PO430948  35.304  37.650   9.164
 2269POPC   GL130949  35.320  37.726   8.864
 2269POPC   GL230950  35.263  37.749   8.864
 2269POPC   C1A30951  35.334  37.727   8.564
 2269POPC   D2A30952  35.398  37.683   8.264
 2269POPC   C3A30953  35.374  37.688   7.964
 2269POPC   C4A30954  35.377  37.640   7.664
 2269POPC   C1B30955  35.198  37.865   8.564
 2269POPC   C2B30956  35.274  37.931   8.264
 2269POPC   C3B30957  35.196  37.949   7.964
 2269POPC   C4B30958  35.275  37.907   7.664
 2270POPC   NC330959  39.219  17.545   9.464
 2270POPC   PO430960  39.270  17.495   9.164
 2270POPC   GL130961  39.219  17.502   8.864
 2270POPC   GL230962  39.143  17.457   8.864
 2270POPC   C1A30963  39.191  17.524   8.564
 2270POPC   D2A30964  39.254  17.462   8.264
 2270POPC   C3A30965  39.257  17.526   7.964
 2270POPC   C4A30966  39.181  17.533   7.664
 2270POPC   C1B30967  39.100  17.262   8.564
 2270POPC   C2B30968  39.070  17.281   8.264
 2270POPC   C3B30969  39.038  17.302   7.964
 2270POPC   C4B30970  39.090  17.353   7.664
 2271POPC   NC330971  33.789  24.486   9.464
 2271POPC   PO430972  33.796  24.511   9.164
 2271POPC   GL130973  33.800  24.454   8.864
 2271POPC   GL230974  33.801  24.574   8.864
 2271POPC   C1A30975  33.797  24.475   8.564
 2271POPC   D2A30976  33.764  24.493   8.264
 2271POPC   C3A30977  33.811  24.509   7.964
 2271POPC   C4A30978  33.798  24.507   7.664
 2271POPC   C1B30979  33.693  24.749   8.564
 2271POPC   C2B30980  33.755  24.702   8.264
 2271POPC   C3B30981  33.669  24.691   7.964
 2271POPC   C4B30982  33.732  24.731   7.664
 2272POPC   NC330983  23.740  42.291   9.464
 2272POPC   PO430984  23.704  42.310   9.164
 2272POPC   GL130985  23.717  42.380   8.864
 2272POPC   GL230986  23.770  42.425   8.864
 2272POPC   C1A30987  23.675  42.285   8.564
 2272POPC   D2A30988  23.706  42.291   8.264
 2272POPC   C3A30989  23.737  42.364   7.964
 2272POPC   C4A30990  23.667  42.384   7.664
 2272POPC   C1B30991  23.819  42.518   8.564
 2272POPC   C2B30992  23.834  42.549   8.264
 2272POPC   C3B30993  23.847  42.578   7.964
 2272POPC   C4B30994  23.863  42.515   7.664
 2273POPC   NC330995  15.157  19.077   9.464
 2273POPC   PO430996  15.157  19.024   9.164
 2273POPC   GL130997  15.217  19.068   8.864
 2273POPC   GL230998  15.107  19.198   8.864
 2273POPC   C1A30999  15.157  19.041   8.564
 2273POPC   D2A31000  15.221  19.036   8.264
 2273POPC   C3A31001  15.203  19.031   7.964
 2273POPC   C4A31002  15.138  19.056   7.664
 2273POPC   C1B31003  15.063  19.290   8.564
 2273POPC   C2B31004  14.979  19.216   8.264
 2273POPC   C3B31005  14.994  19.303   7.964
 2273POPC   C4B31006  15.071  19.207   7.664
 2274POPC   NC331007  24.505  36.930   9.464
 2274POPC   PO431008  24.524  36.920   9.164
 2274POPC   GL131009  24.464  36.926   8.864
 2274POPC   GL231010  24.330  36.893   8.864
 2274POPC   C1A31011  24.490  36.907   8.564
 2274POPC   D2A31012  24.460  36.896   8.264
 2274POPC   C3A31013  24.517  36.874   7.964
 2274POPC   C4A31014  24.531  36.893   7.664
 2274POPC   C1B31015  24.272  36.957   8.564
 2274POPC   C2B31016  24.255  36.889   8.264
 2274POPC   C3B31017  24.236  36.894   7.964
 2274POPC   C4B31018  24.257  36.933   7.664
 2275POPC   NC331019  40.026  24.484   9.464
 2275POPC   PO431020  39.990  24.450   9.164
 2275POPC   GL131021  40.010  24.526   8.864
 2275POPC   GL231022  40.006  24.591   8.864
 2275POPC   C1A31023  40.007  24.490   8.564
 2275POPC   D2A31024  39.961  24.475   8.264
 2275POPC   C3A31025  40.013  24.503   7.964
 2275POPC   C4A31026  39.983  24.505   7.664
 2275POPC   C1B31027  39.960  24.789   8.564
 2275POPC   C2B31028  40.013  24.711   8.264
 2275POPC   C3B31029  39.963  24.772   7.964
 2275POPC   C4B31030  39.962  24.721   7.664
 2276POPC   NC331031  16.739  33.828   9.464
 2276POPC   PO431032  16.710  33.803   9.164
 2276POPC   GL131033  16.693  33.777   8.864
 2276POPC   GL231034  16.858  33.840   8.864
 2276POPC   C1A31035  16.701  33.803   8.564
 2276POPC   D2A31036  16.701  33.811   8.264
 2276POPC   C3A31037  16.773  33.786   7.964
 2276POPC   C4A31038  16.769  33.816   7.664
 2276POPC   C1B31039  16.961  33.871   8.564
 2276POPC   C2B31040  16.992  33.888   8.264
 2276POPC   C3B31041  16.980  33.890   7.964
 2276POPC   C4B31042  16.950  33.885   7.664
 2277POPC   NC331043  29.944  33.008   9.464
 2277POPC   PO431044  29.910  33.004   9.164
 2277POPC   GL131045  29.936  33.067   8.864
 2277POPC   GL231046  29.847  33.023   8.864
 2277POPC   C1A31047  29.926  33.016   8.564
 2277POPC   D2A31048  29.911  33.049   8.264
 2277POPC   C3A31049  29.962  33.021   7.964
 2277POPC   C4A31050  29.904  32.977   7.664
 2277POPC   C1B31051  29.687  33.110   8.564
 2277POPC   C2B31052  29.704  33.131   8.264
 2277POPC   C3B31053  29.727  33.104   7.964
 2277POPC   C4B31054  29.726  33.137   7.664
 2278POPC   NC331055  36.889  40.023   9.464
 2278POPC   PO431056  36.918  39.996   9.164
 2278POPC   GL131057  36.858  40.047   8.864
 2278POPC   GL231058  36.870  40.137   8.864
 2278POPC   C1A31059  36.854  39.969   8.564
 2278POPC   D2A31060  36.889  40.052   8.264
 2278POPC   C3A31061  36.908  40.000   7.964
 2278POPC   C4A31062  36.890  40.009   7.664
 2278POPC   C1B31063  36.884  40.252   8.564
 2278POPC   C2B31064  36.921  40.234   8.264
 2278POPC   C3B31065  36.912  40.291   7.964
 2278POPC   C4B31066  36.921  40.205   7.664
 2279POPC   NC331067  43.890  20.599   9.464
 2279POPC   PO431068  43.837  20.650   9.164
 2279POPC   GL131069  43.886  20.654   8.864
 2279POPC   GL231070  43.797  20.647   8.864
 2279POPC   C1A31071  43.920  20.637   8.564
 2279POPC   D2A31072  43.931  20.566   8.264
 2279POPC   C3A31073  43.877  20.619   7.964
 2279POPC   C4A31074  43.886  20.583   7.664
 2279POPC   C1B31075  43.711  20.750   8.564
 2279POPC   C2B31076  43.752  20.800   8.264
 2279POPC   C3B31077  43.744  20.810   7.964
 2279POPC   C4B31078  43.697  20.758   7.664
 2280POPC   NC331079  41.554  15.193   9.464
 2280POPC   PO431080  41.521  15.223   9.164
 2280POPC   GL131081  41.578  15.221   8.864
 2280POPC   GL231082  41.681  15.117   8.864
 2280POPC   C1A31083  41.555  15.148   8.564
 2280POPC   D2A31084  41.517  15.167   8.264
 2280POPC   C3A31085  41.525  15.218   7.964
 2280POPC   C4A31086  41.542  15.139   7.664
 2280POPC   C1B31087  41.767  15.032   8.564
 2280POPC   C2B31088  41.702  15.061   8.264
 2280POPC   C3B31089  41.760  15.037   7.964
 2280POPC   C4B31090  41.752  14.987   7.664
 2281POPC   NC331091   7.436  12.827   9.464
 2281POPC   PO431092   7.444  12.863   9.164
 2281POPC   GL131093   7.424  12.854   8.864
 2281POPC   GL231094   7.322  12.902   8.864
 2281POPC   C1A31095   7.381  12.854   8.564
 2281POPC   D2A31096   7.420  12.875   8.264
 2281POPC   C3A31097   7.410  12.803   7.964
 2281POPC   C4A31098   7.420  12.836   7.664
 2281POPC   C1B31099   7.227  13.021   8.564
 2281POPC   C2B31100   7.260  13.049   8.264
 2281POPC   C3B31101   7.226  13.046   7.964
 2281POPC   C4B31102   7.221  13.027   7.664
 2282POPC   NC331103  10.528  24.449   9.464
 2282POPC   PO431104  10.531  24.493   9.164
 2282POPC   GL131105  10.509  24.448   8.864
 2282POPC   GL231106  10.446  24.439   8.864
 2282POPC   C1A31107  10.543  24.493   8.564
 2282POPC   D2A31108  10.479  24.478   8.264
 2282POPC   C3A31109  10.522  24.486   7.964
 2282POPC   C4A31110  10.493  24.506   7.664
 2282POPC   C1B31111  10.255  24.374   8.564
 2282POPC   C2B31112  10.328  24.345   8.264
 2282POPC   C3B31113  10.277  24.413   7.964
 2282POPC   C4B31114  10.290  24.400   7.664
 2283POPC   NC331115  19.862  15.181   9.464
 2283POPC   PO431116  19.826  15.218   9.164
 2283POPC   GL131117  19.873  15.190   8.864
 2283POPC   GL231118  19.762  15.264   8.864
 2283POPC   C1A31119  19.843  15.175   8.564
 2283POPC   D2A31120  19.815  15.146   8.264
 2283POPC   C3A31121  19.852  15.213   7.964
 2283POPC   C4A31122  19.787  15.162   7.664
 2283POPC   C1B31123  19.802  15.419   8.564
 2283POPC   C2B31124  19.762  15.376   8.264
 2283POPC   C3B31125  19.781  15.411   7.964
 2283POPC   C4B31126  19.767  15.432   7.664
 2284POPC   NC331127   9.011   5.131   9.464
 2284POPC   PO431128   8.978   5.104   9.164
 2284POPC   GL131129   8.972   5.116   8.864
 2284POPC   GL231130   8.918   4.978   8.864
 2284POPC   C1A31131   9.021   5.104   8.564
 2284POPC   D2A31132   9.009   5.140   8.264
 2284POPC   C3A31133   9.003   5.132   7.964
 2284POPC   C4A31134   8.994   5.115   7.664
 2284POPC   C1B31135   8.883   4.835   8.564
 2284POPC   C2B31136   8.941   4.833   8.264
 2284POPC   C3B31137   8.931   4.875   7.964
 2284POPC   C4B31138   8.950   4.811   7.664
 2285POPC   NC331139  30.695  28.373   9.464
 2285POPC   PO431140  30.737  28.354   9.164
 2285POPC   GL131141  30.678  28.401   8.864
 2285POPC   GL231142  30.810  28.345   8.864
 2285POPC   C1A31143  30.679  28.374   8.564
 2285POPC   D2A31144  30.710  28.375   8.264
 2285POPC   C3A31145  30.702  28.417   7.964
 2285POPC   C4A31146  30.676  28.387   7.664
 2285POPC   C1B31147  30.955  28.246   8.564
 2285POPC   C2B31148  30.888  28.235   8.264
 2285POPC   C3B31149  30.872  28.210   7.964
 2285POPC   C4B31150  30.874  28.293   7.664
 2286POPC   NC331151  36.136  14.376   9.464
 2286POPC   PO431152  36.124  14.365   9.164
 2286POPC   GL131153  36.098  14.411   8.864
 2286POPC   GL231154  36.052  14.432   8.864
 2286POPC   C1A31155  36.117  14.398   8.564
 2286POPC   D2A31156  36.124  14.410   8.264
 2286POPC   C3A31157  36.120  14.402   7.964
 2286POPC   C4A31158  36.159  14.359   7.664
 2286POPC   C1B31159  35.931  14.591   8.564
 2286POPC   C2B31160  35.955  14.525   8.264
 2286POPC   C3B31161  35.927  14.545   7.964
 2286POPC   C4B31162  35.916  14.525   7.664
 2287POPC   NC331163   3.493  24.524   9.464
 2287POPC   PO431164   3.585  24.511   9.164
 2287POPC   GL131165   3.527  24.502   8.864
 2287POPC   GL231166   3.436  24.500   8.864
 2287POPC   C1A31167   3.537  24.539   8.564
 2287POPC   D2A31168   3.572  24.537   8.264
 2287POPC   C3A31169   3.552  24.488   7.964
 2287POPC   C4A31170   3.588  24.455   7.664
 2287POPC   C1B31171   3.253  24.444   8.564
 2287POPC   C2B31172   3.261  24.492   8.264
 2287POPC   C3B31173   3.322  24.409   7.964
 2287POPC   C4B31174   3.319  24.476   7.664
 2288POPC   NC331175  35.388  16.690   9.464
 2288POPC   PO431176  35.343  16.763   9.164
 2288POPC   GL131177  35.357  16.691   8.864
 2288POPC   GL231178  35.432  16.851   8.864
 2288POPC   C1A31179  35.322  16.757   8.564
 2288POPC   D2A31180  35.385  16.739   8.264
 2288POPC   C3A31181  35.362  16.774   7.964
 2288POPC   C4A31182  35.341  16.753   7.664
 2288POPC   C1B31183  35.515  16.978   8.564
 2288POPC   C2B31184  35.510  16.907   8.264
 2288POPC   C3B31185  35.534  16.920   7.964
 2288POPC   C4B31186  35.507  16.982   7.664
 2289POPC   NC331187  36.926  20.601   9.464
 2289POPC   PO431188  36.953  20.595   9.164
 2289POPC   GL131189  36.880  20.657   8.864
 2289POPC   GL231190  36.932  20.730   8.864
 2289POPC   C1A31191  36.912  20.603   8.564
 2289POPC   D2A31192  36.884  20.613   8.264
 2289POPC   C3A31193  36.919  20.615   7.964
 2289POPC   C4A31194  36.897  20.613   7.664
 2289POPC   C1B31195  36.940  20.904   8.564
 2289POPC   C2B31196  36.923  20.884   8.264
 2289POPC   C3B31197  36.974  20.904   7.964
 2289POPC   C4B31198  36.945  20.833   7.664
 2290POPC   NC331199  22.177   9.708   9.464
 2290POPC   PO431200  22.165   9.744   9.164
 2290POPC   GL131201  22.187   9.757   8.864
 2290POPC   GL231202  22.243   9.758   8.864
 2290POPC   C1A31203  22.205   9.786   8.564
 2290POPC   D2A31204  22.161   9.742   8.264
 2290POPC   C3A31205  22.170   9.727   7.964
 2290POPC   C4A31206  22.173   9.719   7.664
 2290POPC   C1B31207  22.449   9.765   8.564
 2290POPC   C2B31208  22.400   9.734   8.264
 2290POPC   C3B31209  22.390   9.748   7.964
 2290POPC   C4B31210  22.380   9.759   7.664
 2291POPC   NC331211  14.369  18.276   9.464
 2291POPC   PO431212  14.401  18.266   9.164
 2291POPC   GL131213  14.362  18.310   8.864
 2291POPC   GL231214  14.519  18.247   8.864
 2291POPC   C1A31215  14.418  18.304   8.564
 2291POPC   D2A31216  14.375  18.327   8.264
 2291POPC   C3A31217  14.449  18.280   7.964
 2291POPC   C4A31218  14.432  18.299   7.664
 2291POPC   C1B31219  14.665  18.248   8.564
 2291POPC   C2B31220  14.650  18.242   8.264
 2291POPC   C3B31221  14.645  18.311   7.964
 2291POPC   C4B31222  14.649  18.286   7.664
 2292POPC   NC331223  39.209   4.312   9.464
 2292POPC   PO431224  39.252   4.317   9.164
 2292POPC   GL131225  39.241   4.328   8.864
 2292POPC   GL231226  39.372   4.343   8.864
 2292POPC   C1A31227  39.234   4.301   8.564
 2292POPC   D2A31228  39.237   4.299   8.264
 2292POPC   C3A31229  39.196   4.335   7.964
 2292POPC   C4A31230  39.249   4.307   7.664
 2292POPC   C1B31231  39.395   4.439   8.564
 2292POPC   C2B31232  39.480   4.451   8.264
 2292POPC   C3B31233  39.424   4.430   7.964
 2292POPC   C4B31234  39.391   4.438   7.664
 2293POPC   NC331235  29.898  34.559   9.464
 2293POPC   PO431236  29.930  34.604   9.164
 2293POPC   GL131237  29.890  34.579   8.864
 2293POPC   GL231238  29.970  34.454   8.864
 2293POPC   C1A31239  29.889  34.550   8.564
 2293POPC   D2A31240  29.920  34.595   8.264
 2293POPC   C3A31241  29.921  34.538   7.964
 2293POPC   C4A31242  29.912  34.536   7.664
 2293POPC   C1B31243  30.048  34.328   8.564
 2293POPC   C2B31244  30.034  34.380   8.264
 2293POPC   C3B31245  30.013  34.396   7.964
 2293POPC   C4B31246  30.034  34.376   7.664
 2294POPC   NC331247  27.640  39.958   9.464
 2294POPC   PO431248  27.600  39.962   9.164
 2294POPC   GL131249  27.567  40.018   8.864
 2294POPC   GL231250  27.688  40.138   8.864
 2294POPC   C1A31251  27.544  40.030   8.564
 2294POPC   D2A31252  27.624  39.998   8.264
 2294POPC   C3A31253  27.622  39.972   7.964
 2294POPC   C4A31254  27.615  40.041   7.664
 2294POPC   C1B31255  27.681  40.247   8.564
 2294POPC   C2B31256  27.639  40.265   8.264
 2294POPC   C3B31257  27.709  40.235   7.964
 2294POPC   C4B31258  27.657  40.190   7.664
 2295POPC   NC331259  39.275  30.708   9.464
 2295POPC   PO431260  39.276  30.661   9.164
 2295POPC   GL131261  39.267  30.719   8.864
 2295POPC   GL231262  39.175  30.833   8.864
 2295POPC   C1A31263  39.182  30.685   8.564
 2295POPC   D2A31264  39.230  30.727   8.264
 2295POPC   C3A31265  39.258  30.670   7.964
 2295POPC   C4A31266  39.203  30.734   7.664
 2295POPC   C1B31267  39.198  30.944   8.564
 2295POPC   C2B31268  39.144  30.973   8.264
 2295POPC   C3B31269  39.201  30.941   7.964
 2295POPC   C4B31270  39.132  30.966   7.664
 2296POPC   NC331271   1.993  15.973   9.464
 2296POPC   PO431272   1.991  15.963   9.164
 2296POPC   GL131273   1.991  15.917   8.864
 2296POPC   GL231274   2.133  16.009   8.864
 2296POPC   C1A31275   2.008  15.955   8.564
 2296POPC   D2A31276   1.986  16.005   8.264
 2296POPC   C3A31277   1.963  16.001   7.964
 2296POPC   C4A31278   1.963  15.986   7.664
 2296POPC   C1B31279   2.239  16.009   8.564
 2296POPC   C2B31280   2.236  15.990   8.264
 2296POPC   C3B31281   2.189  15.967   7.964
 2296POPC   C4B31282   2.235  15.961   7.664
 2297POPC   NC331283   2.776   1.169   9.464
 2297POPC   PO431284   2.758   1.232   9.164
 2297POPC   GL131285   2.782   1.177   8.864
 2297POPC   GL231286   2.709   1.314   8.864
 2297POPC   C1A31287   2.777   1.186   8.564
 2297POPC   D2A31288   2.773   1.167   8.264
 2297POPC   C3A31289   2.721   1.197   7.964
 2297POPC   C4A31290   2.722   1.191   7.664
 2297POPC   C1B31291   2.756   1.418   8.564
 2297POPC   C2B31292   2.793   1.511   8.264
 2297POPC   C3B31293   2.754   1.480   7.964
 2297POPC   C4B31294   2.761   1.482   7.664
 2298POPC   NC331295   8.245  26.009   9.464
 2298POPC   PO431296   8.171  26.022   9.164
 2298POPC   GL131297   8.183  25.999   8.864
 2298POPC   GL231298   8.050  26.096   8.864
 2298POPC   C1A31299   8.178  26.076   8.564
 2298POPC   D2A31300   8.148  26.052   8.264
 2298POPC   C3A31301   8.170  26.038   7.964
 2298POPC   C4A31302   8.190  26.013   7.664
 2298POPC   C1B31303   7.931  26.098   8.564
 2298POPC   C2B31304   7.992  26.109   8.264
 2298POPC   C3B31305   7.928  26.145   7.964
 2298POPC   C4B31306   7.992  26.154   7.664
 2299POPC   NC331307  25.285  30.699   9.464
 2299POPC   PO431308  25.237  30.738   9.164
 2299POPC   GL131309  25.269  30.714   8.864
 2299POPC   GL231310  25.171  30.568   8.864
 2299POPC   C1A31311  25.315  30.652   8.564
 2299POPC   D2A31312  25.292  30.679   8.264
 2299POPC   C3A31313  25.238  30.686   7.964
 2299POPC   C4A31314  25.305  30.689   7.664
 2299POPC   C1B31315  25.167  30.517   8.564
 2299POPC   C2B31316  25.139  30.521   8.264
 2299POPC   C3B31317  25.134  30.510   7.964
 2299POPC   C4B31318  25.151  30.520   7.664
 2300POPC   NC331319  22.894  43.880   9.464
 2300POPC   PO431320  22.921  43.864   9.164
 2300POPC   GL131321  22.960  43.890   8.864
 2300POPC   GL231322  22.863  43.902   8.864
 2300POPC   C1A31323  22.902  43.893   8.564
 2300POPC   D2A31324  22.986  43.923   8.264
 2300POPC   C3A31325  22.908  43.858   7.964
 2300POPC   C4A31326  22.916  43.917   7.664
 2300POPC   C1B31327  22.751  43.955   8.564
 2300POPC   C2B31328  22.674  43.966   8.264
 2300POPC   C3B31329  22.670  44.020   7.964
 2300POPC   C4B31330  22.669  43.970   7.664
 2301POPC   NC331331  40.740  41.596   9.464
 2301POPC   PO431332  40.781  41.594   9.164
 2301POPC   GL131333  40.769  41.536   8.864
 2301POPC   GL231334  40.649  41.541   8.864
 2301POPC   C1A31335  40.831  41.540   8.564
 2301POPC   D2A31336  40.795  41.543   8.264
 2301POPC   C3A31337  40.781  41.554   7.964
 2301POPC   C4A31338  40.768  41.596   7.664
 2301POPC   C1B31339  40.584  41.577   8.564
 2301POPC   C2B31340  40.509  41.569   8.264
 2301POPC   C3B31341  40.582  41.499   7.964
 2301POPC   C4B31342  40.528  41.578   7.664
 2302POPC   NC331343   3.508  13.585   9.464
 2302POPC   PO431344   3.565  13.626   9.164
 2302POPC   GL131345   3.526  13.586   8.864
 2302POPC   GL231346   3.436  13.541   8.864
 2302POPC   C1A31347   3.513  13.594   8.564
 2302POPC   D2A31348   3.582  13.636   8.264
 2302POPC   C3A31349   3.541  13.657   7.964
 2302POPC   C4A31350   3.524  13.659   7.664
 2302POPC   C1B31351   3.393  13.453   8.564
 2302POPC   C2B31352   3.410  13.446   8.264
 2302POPC   C3B31353   3.433  13.434   7.964
 2302POPC   C4B31354   3.405  13.391   7.664
 2303POPC   NC331355  31.510   4.326   9.464
 2303POPC   PO431356  31.471   4.331   9.164
 2303POPC   GL131357  31.522   4.333   8.864
 2303POPC   GL231358  31.462   4.488   8.864
 2303POPC   C1A31359  31.464   4.309   8.564
 2303POPC   D2A31360  31.438   4.362   8.264
 2303POPC   C3A31361  31.454   4.331   7.964
 2303POPC   C4A31362  31.439   4.312   7.664
 2303POPC   C1B31363  31.510   4.586   8.564
 2303POPC   C2B31364  31.500   4.593   8.264
 2303POPC   C3B31365  31.438   4.532   7.964
 2303POPC   C4B31366  31.505   4.534   7.664
 2304POPC   NC331367   0.428   7.463   9.464
 2304POPC   PO431368   0.402   7.449   9.164
 2304POPC   GL131369   0.483   7.378   8.864
 2304POPC   GL231370   0.511   7.335   8.864
 2304POPC   C1A31371   0.404   7.431   8.564
 2304POPC   D2A31372   0.396   7.421   8.264
 2304POPC   C3A31373   0.447   7.377   7.964
 2304POPC   C4A31374   0.449   7.460   7.664
 2304POPC   C1B31375   0.656   7.285   8.564
 2304POPC   C2B31376   0.674   7.328   8.264
 2304POPC   C3B31377   0.650   7.319   7.964
 2304POPC   C4B31378   0.662   7.281   7.664
 2305POPC   NC331379  15.217  16.718   9.464
 2305POPC   PO431380  15.225  16.739   9.164
 2305POPC   GL131381  15.180  16.757   8.864
 2305POPC   GL231382  15.064  16.725   8.864
 2305POPC   C1A31383  15.175  16.726   8.564
 2305POPC   D2A31384  15.197  16.728   8.264
 2305POPC   C3A31385  15.218  16.695   7.964
 2305POPC   C4A31386  15.167  16.723   7.664
 2305POPC   C1B31387  14.959  16.669   8.564
 2305POPC   C2B31388  14.969  16.652   8.264
 2305POPC   C3B31389  14.966  16.614   7.964
 2305POPC   C4B31390  14.926  16.629   7.664
 2306POPC   NC331391  21.427   6.651   9.464
 2306POPC   PO431392  21.404   6.634   9.164
 2306POPC   GL131393  21.371   6.659   8.864
 2306POPC   GL231394  21.507   6.536   8.864
 2306POPC   C1A31395  21.412   6.626   8.564
 2306POPC   D2A31396  21.434   6.650   8.264
 2306POPC   C3A31397  21.423   6.652   7.964
 2306POPC   C4A31398  21.355   6.689   7.664
 2306POPC   C1B31399  21.548   6.460   8.564
 2306POPC   C2B31400  21.530   6.429   8.264
 2306POPC   C3B31401  21.559   6.423   7.964
 2306POPC   C4B31402  21.594   6.436   7.664
 2307POPC   NC331403  44.681   0.401   9.464
 2307POPC   PO431404  44.710   0.452   9.164
 2307POPC   GL131405  44.685   0.395   8.864
 2307POPC   GL231406  44.501   0.410   8.864
 2307POPC   C1A31407  44.697   0.451   8.564
 2307POPC   D2A31408  44.688   0.418   8.264
 2307POPC   C3A31409  44.622   0.436   7.964
 2307POPC   C4A31410  44.670   0.399   7.664
 2307POPC   C1B31411  44.405   0.513   8.564
 2307POPC   C2B31412  44.417   0.423   8.264
 2307POPC   C3B31413  44.367   0.504   7.964
 2307POPC   C4B31414  44.417   0.421   7.664
 2308POPC   NC331415  36.922  43.121   9.464
 2308POPC   PO431416  36.895  43.074   9.164
 2308POPC   GL131417  36.858  43.159   8.864
 2308POPC   GL231418  37.060  43.146   8.864
 2308POPC   C1A31419  36.893  43.106   8.564
 2308POPC   D2A31420  36.859  43.084   8.264
 2308POPC   C3A31421  36.939  43.110   7.964
 2308POPC   C4A31422  36.861  43.067   7.664
 2308POPC   C1B31423  37.154  43.159   8.564
 2308POPC   C2B31424  37.137  43.210   8.264
 2308POPC   C3B31425  37.180  43.150   7.964
 2308POPC   C4B31426  37.167  43.213   7.664
 2309POPC   NC331427  36.946  44.693   9.464
 2309POPC   PO431428  36.855  44.696   9.164
 2309POPC   GL131429  36.945  44.678   8.864
 2309POPC   GL231430  36.966  44.543   8.864
 2309POPC   C1A31431  36.881  44.615   8.564
 2309POPC   D2A31432  36.875  44.617   8.264
 2309POPC   C3A31433  36.860  44.677   7.964
 2309POPC   C4A31434  36.952  44.621   7.664
 2309POPC   C1B31435  36.921  44.422   8.564
 2309POPC   C2B31436  36.929  44.466   8.264
 2309POPC   C3B31437  36.950  44.438   7.964
 2309POPC   C4B31438  36.952  44.412   7.664
 2310POPC   NC331439  26.806  40.810   9.464
 2310POPC   PO431440  26.821  40.816   9.164
 2310POPC   GL131441  26.792  40.797   8.864
 2310POPC   GL231442  26.865  40.874   8.864
 2310POPC   C1A31443  26.805  40.748   8.564
 2310POPC   D2A31444  26.779  40.812   8.264
 2310POPC   C3A31445  26.788  40.767   7.964
 2310POPC   C4A31446  26.823  40.751   7.664
 2310POPC   C1B31447  26.895  41.009   8.564
 2310POPC   C2B31448  26.926  41.047   8.264
 2310POPC   C3B31449  26.964  40.980   7.964
 2310POPC   C4B31450  26.940  40.978   7.664
 2311POPC   NC331451  27.640  36.092   9.464
 2311POPC   PO431452  27.621  36.083   9.164
 2311POPC   GL131453  27.591  36.134   8.864
 2311POPC   GL231454  27.686  36.103   8.864
 2311POPC   C1A31455  27.602  36.119   8.564
 2311POPC   D2A31456  27.608  36.152   8.264
 2311POPC   C3A31457  27.567  36.168   7.964
 2311POPC   C4A31458  27.639  36.171   7.664
 2311POPC   C1B31459  27.841  36.053   8.564
 2311POPC   C2B31460  27.833  36.026   8.264
 2311POPC   C3B31461  27.806  36.056   7.964
 2311POPC   C4B31462  27.793  36.068   7.664
 2312POPC   NC331463   3.578  33.062   9.464
 2312POPC   PO431464   3.583  33.011   9.164
 2312POPC   GL131465   3.551  33.035   8.864
 2312POPC   GL231466   3.480  33.145   8.864
 2312POPC   C1A31467   3.555  32.977   8.564
 2312POPC   D2A31468   3.552  33.068   8.264
 2312POPC   C3A31469   3.519  33.065   7.964
 2312POPC   C4A31470   3.499  33.029   7.664
 2312POPC   C1B31471   3.534  33.291   8.564
 2312POPC   C2B31472   3.534  33.277   8.264
 2312POPC   C3B31473   3.498  33.251   7.964
 2312POPC   C4B31474   3.470  33.243   7.664
 2313POPC   NC331475  36.931  23.682   9.464
 2313POPC   PO431476  36.905  23.674   9.164
 2313POPC   GL131477  36.897  23.753   8.864
 2313POPC   GL231478  36.952  23.851   8.864
 2313POPC   C1A31479  36.911  23.667   8.564
 2313POPC   D2A31480  36.885  23.759   8.264
 2313POPC   C3A31481  36.949  23.754   7.964
 2313POPC   C4A31482  36.877  23.704   7.664
 2313POPC   C1B31483  37.014  23.964   8.564
 2313POPC   C2B31484  36.972  23.962   8.264
 2313POPC   C3B31485  37.022  23.922   7.964
 2313POPC   C4B31486  36.978  23.942   7.664
 2314POPC   NC331487  12.057  27.566   9.464
 2314POPC   PO431488  12.114  27.639   9.164
 2314POPC   GL131489  12.085  27.583   8.864
 2314POPC   GL231490  11.933  27.633   8.864
 2314POPC   C1A31491  12.078  27.588   8.564
 2314POPC   D2A31492  12.080  27.600   8.264
 2314POPC   C3A31493  12.065  27.580   7.964
 2314POPC   C4A31494  12.090  27.559   7.664
 2314POPC   C1B31495  11.895  27.722   8.564
 2314POPC   C2B31496  11.877  27.754   8.264
 2314POPC   C3B31497  11.847  27.778   7.964
 2314POPC   C4B31498  11.861  27.731   7.664
 2315POPC   NC331499   1.261  22.134   9.464
 2315POPC   PO431500   1.220  22.128   9.164
 2315POPC   GL131501   1.199  22.165   8.864
 2315POPC   GL231502   1.246  22.103   8.864
 2315POPC   C1A31503   1.254  22.175   8.564
 2315POPC   D2A31504   1.264  22.211   8.264
 2315POPC   C3A31505   1.192  22.132   7.964
 2315POPC   C4A31506   1.164  22.194   7.664
 2315POPC   C1B31507   1.371  22.009   8.564
 2315POPC   C2B31508   1.391  21.954   8.264
 2315POPC   C3B31509   1.360  21.956   7.964
 2315POPC   C4B31510   1.358  21.950   7.664
 2316POPC   NC331511  36.120   4.296   9.464
 2316POPC   PO431512  36.117   4.272   9.164
 2316POPC   GL131513  36.122   4.300   8.864
 2316POPC   GL231514  36.062   4.467   8.864
 2316POPC   C1A31515  36.171   4.272   8.564
 2316POPC   D2A31516  36.086   4.292   8.264
 2316POPC   C3A31517  36.170   4.347   7.964
 2316POPC   C4A31518  36.103   4.313   7.664
 2316POPC   C1B31519  36.013   4.547   8.564
 2316POPC   C2B31520  36.071   4.548   8.264
 2316POPC   C3B31521  35.994   4.583   7.964
 2316POPC   C4B31522  35.996   4.574   7.664
 2317POPC   NC331523  24.453   8.221   9.464
 2317POPC   PO431524  24.444   8.245   9.164
 2317POPC   GL131525  24.484   8.217   8.864
 2317POPC   GL231526  24.457   8.118   8.864
 2317POPC   C1A31527  24.519   8.204   8.564
 2317POPC   D2A31528  24.473   8.202   8.264
 2317POPC   C3A31529  24.499   8.166   7.964
 2317POPC   C4A31530  24.514   8.168   7.664
 2317POPC   C1B31531  24.327   7.969   8.564
 2317POPC   C2B31532  24.380   8.005   8.264
 2317POPC   C3B31533  24.399   8.017   7.964
 2317POPC   C4B31534  24.356   8.003   7.664
 2318POPC   NC331535  22.188  14.374   9.464
 2318POPC   PO431536  22.163  14.399   9.164
 2318POPC   GL131537  22.120  14.391   8.864
 2318POPC   GL231538  22.264  14.293   8.864
 2318POPC   C1A31539  22.207  14.407   8.564
 2318POPC   D2A31540  22.117  14.385   8.264
 2318POPC   C3A31541  22.200  14.411   7.964
 2318POPC   C4A31542  22.177  14.360   7.664
 2318POPC   C1B31543  22.369  14.256   8.564
 2318POPC   C2B31544  22.322  14.253   8.264
 2318POPC   C3B31545  22.333  14.246   7.964
 2318POPC   C4B31546  22.380  14.286   7.664
 2319POPC   NC331547  10.477  19.881   9.464
 2319POPC   PO431548  10.556  19.840   9.164
 2319POPC   GL131549  10.485  19.825   8.864
 2319POPC   GL231550  10.518  19.926   8.864
 2319POPC   C1A31551  10.562  19.805   8.564
 2319POPC   D2A31552  10.530  19.877   8.264
 2319POPC   C3A31553  10.527  19.792   7.964
 2319POPC   C4A31554  10.497  19.798   7.664
 2319POPC   C1B31555  10.439  20.056   8.564
 2319POPC   C2B31556  10.453  20.030   8.264
 2319POPC   C3B31557  10.474  20.084   7.964
 2319POPC   C4B31558  10.486  20.113   7.664
 2320POPC   NC331559  25.999  10.512   9.464
 2320POPC   PO431560  25.994  10.521   9.164
 2320POPC   GL131561  26.048  10.563   8.864
 2320POPC   GL231562  26.170  10.456   8.864
 2320POPC   C1A31563  26.036  10.533   8.564
 2320POPC   D2A31564  26.060  10.528   8.264
 2320POPC   C3A31565  26.014  10.570   7.964
 2320POPC   C4A31566  26.071  10.506   7.664
 2320POPC   C1B31567  26.322  10.468   8.564
 2320POPC   C2B31568  26.234  10.468   8.264
 2320POPC   C3B31569  26.262  10.436   7.964
 2320POPC   C4B31570  26.295  10.435   7.664
 2321POPC   NC331571  15.167  17.522   9.464
 2321POPC   PO431572  15.139  17.467   9.164
 2321POPC   GL131573  15.228  17.538   8.864
 2321POPC   GL231574  15.177  17.415   8.864
 2321POPC   C1A31575  15.224  17.498   8.564
 2321POPC   D2A31576  15.138  17.458   8.264
 2321POPC   C3A31577  15.209  17.502   7.964
 2321POPC   C4A31578  15.209  17.491   7.664
 2321POPC   C1B31579  15.175  17.210   8.564
 2321POPC   C2B31580  15.208  17.287   8.264
 2321POPC   C3B31581  15.160  17.299   7.964
 2321POPC   C4B31582  15.207  17.244   7.664
 2322POPC   NC331583  36.910  24.448   9.464
 2322POPC   PO431584  36.941  24.537   9.164
 2322POPC   GL131585  36.920  24.486   8.864
 2322POPC   GL231586  36.990  24.553   8.864
 2322POPC   C1A31587  36.915  24.451   8.564
 2322POPC   D2A31588  36.944  24.510   8.264
 2322POPC   C3A31589  36.900  24.518   7.964
 2322POPC   C4A31590  36.926  24.508   7.664
 2322POPC   C1B31591  37.050  24.732   8.564
 2322POPC   C2B31592  36.992  24.762   8.264
 2322POPC   C3B31593  37.028  24.721   7.964
 2322POPC   C4B31594  37.038  24.666   7.664
 2323POPC   NC331595  34.616   9.727   9.464
 2323POPC   PO431596  34.596   9.730   9.164
 2323POPC   GL131597  34.604   9.793   8.864
 2323POPC   GL231598  34.696   9.819   8.864
 2323POPC   C1A31599  34.590   9.705   8.564
 2323POPC   D2A31600  34.584   9.785   8.264
 2323POPC   C3A31601  34.574   9.725   7.964
 2323POPC   C4A31602  34.569   9.769   7.664
 2323POPC   C1B31603  34.759   9.954   8.564
 2323POPC   C2B31604  34.714   9.906   8.264
 2323POPC   C3B31605  34.759   9.872   7.964
 2323POPC   C4B31606  34.776   9.958   7.664
 2324POPC   NC331607  44.651  38.473   9.464
 2324POPC   PO431608  44.640  38.479   9.164
 2324POPC   GL131609  44.619  38.463   8.864
 2324POPC   GL231610  44.704  38.529   8.864
 2324POPC   C1A31611  44.711  38.407   8.564
 2324POPC   D2A31612  44.666  38.453   8.264
 2324POPC   C3A31613  44.639  38.460   7.964
 2324POPC   C4A31614  44.694  38.433   7.664
 2324POPC   C1B31615  44.841  38.673   8.564
 2324POPC   C2B31616  44.771  38.671   8.264
 2324POPC   C3B31617  44.780  38.631   7.964
 2324POPC   C4B31618  44.840  38.651   7.664
 2325POPC   NC331619   6.600  43.927   9.464
 2325POPC   PO431620   6.650  43.845   9.164
 2325POPC   GL131621   6.600  43.868   8.864
 2325POPC   GL231622   6.562  43.857   8.864
 2325POPC   C1A31623   6.646  43.861   8.564
 2325POPC   D2A31624   6.692  43.852   8.264
 2325POPC   C3A31625   6.595  43.856   7.964
 2325POPC   C4A31626   6.602  43.920   7.664
 2325POPC   C1B31627   6.360  43.788   8.564
 2325POPC   C2B31628   6.433  43.800   8.264
 2325POPC   C3B31629   6.379  43.775   7.964
 2325POPC   C4B31630   6.360  43.801   7.664
 2326POPC   NC331631  31.425  16.747   9.464
 2326POPC   PO431632  31.501  16.763   9.164
 2326POPC   GL131633  31.480  16.731   8.864
 2326POPC   GL231634  31.606  16.803   8.864
 2326POPC   C1A31635  31.448  16.682   8.564
 2326POPC   D2A31636  31.426  16.740   8.264
 2326POPC   C3A31637  31.438  16.697   7.964
 2326POPC   C4A31638  31.458  16.770   7.664
 2326POPC   C1B31639  31.762  16.740   8.564
 2326POPC   C2B31640  31.699  16.816   8.264
 2326POPC   C3B31641  31.717  16.827   7.964
 2326POPC   C4B31642  31.728  16.754   7.664
 2327POPC   NC331643  35.368  36.105   9.464
 2327POPC   PO431644  35.336  36.163   9.164
 2327POPC   GL131645  35.383  36.154   8.864
 2327POPC   GL231646  35.323  36.061   8.864
 2327POPC   C1A31647  35.329  36.085   8.564
 2327POPC   D2A31648  35.320  36.131   8.264
 2327POPC   C3A31649  35.378  36.095   7.964
 2327POPC   C4A31650  35.368  36.169   7.664
 2327POPC   C1B31651  35.231  35.905   8.564
 2327POPC   C2B31652  35.235  35.869   8.264
 2327POPC   C3B31653  35.232  35.887   7.964
 2327POPC   C4B31654  35.184  35.894   7.664
 2328POPC   NC331655  20.588  26.812   9.464
 2328POPC   PO431656  20.610  26.851   9.164
 2328POPC   GL131657  20.605  26.830   8.864
 2328POPC   GL231658  20.644  26.982   8.864
 2328POPC   C1A31659  20.566  26.782   8.564
 2328POPC   D2A31660  20.660  26.837   8.264
 2328POPC   C3A31661  20.650  26.793   7.964
 2328POPC   C4A31662  20.573  26.782   7.664
 2328POPC   C1B31663  20.661  27.031   8.564
 2328POPC   C2B31664  20.720  27.064   8.264
 2328POPC   C3B31665  20.634  27.027   7.964
 2328POPC   C4B31666  20.688  27.037   7.664
 2329POPC   NC331667  29.932   3.495   9.464
 2329POPC   PO431668  29.903   3.492   9.164
 2329POPC   GL131669  29.917   3.567   8.864
 2329POPC   GL231670  29.924   3.701   8.864
 2329POPC   C1A31671  29.912   3.497   8.564
 2329POPC   D2A31672  29.947   3.525   8.264
 2329POPC   C3A31673  29.930   3.572   7.964
 2329POPC   C4A31674  29.879   3.511   7.664
 2329POPC   C1B31675  30.049   3.800   8.564
 2329POPC   C2B31676  30.053   3.809   8.264
 2329POPC   C3B31677  30.026   3.793   7.964
 2329POPC   C4B31678  29.977   3.747   7.664
 2330POPC   NC331679  35.345  41.593   9.464
 2330POPC   PO431680  35.364  41.576   9.164
 2330POPC   GL131681  35.344  41.550   8.864
 2330POPC   GL231682  35.472  41.502   8.864
 2330POPC   C1A31683  35.320  41.522   8.564
 2330POPC   D2A31684  35.352  41.550   8.264
 2330POPC   C3A31685  35.358  41.589   7.964
 2330POPC   C4A31686  35.348  41.577   7.664
 2330POPC   C1B31687  35.514  41.347   8.564
 2330POPC   C2B31688  35.552  41.415   8.264
 2330POPC   C3B31689  35.550  41.397   7.964
 2330POPC   C4B31690  35.543  41.427   7.664
 2331POPC   NC331691  44.684  20.617   9.464
 2331POPC   PO431692  44.638  20.579   9.164
 2331POPC   GL131693  44.641  20.608   8.864
 2331POPC   GL231694  44.641  20.496   8.864
 2331POPC   C1A31695  44.667  20.570   8.564
 2331POPC   D2A31696  44.631  20.579   8.264
 2331POPC   C3A31697  44.623  20.563   7.964
 2331POPC   C4A31698  44.671  20.655   7.664
 2331POPC   C1B31699  44.510  20.402   8.564
 2331POPC   C2B31700  44.543  20.360   8.264
 2331POPC   C3B31701  44.476  20.374   7.964
 2331POPC   C4B31702  44.496  20.385   7.664
 2332POPC   NC331703  28.356  26.090   9.464
 2332POPC   PO431704  28.329  26.061   9.164
 2332POPC   GL131705  28.385  26.083   8.864
 2332POPC   GL231706  28.439  26.107   8.864
 2332POPC   C1A31707  28.352  26.090   8.564
 2332POPC   D2A31708  28.399  26.081   8.264
 2332POPC   C3A31709  28.416  26.022   7.964
 2332POPC   C4A31710  28.367  26.002   7.664
 2332POPC   C1B31711  28.573  26.244   8.564
 2332POPC   C2B31712  28.558  26.188   8.264
 2332POPC   C3B31713  28.556  26.210   7.964
 2332POPC   C4B31714  28.486  26.250   7.664
 2333POPC   NC331715  30.673  43.857   9.464
 2333POPC   PO431716  30.648  43.881   9.164
 2333POPC   GL131717  30.718  43.923   8.864
 2333POPC   GL231718  30.548  43.825   8.864
 2333POPC   C1A31719  30.686  43.916   8.564
 2333POPC   D2A31720  30.722  43.900   8.264
 2333POPC   C3A31721  30.694  43.871   7.964
 2333POPC   C4A31722  30.688  43.837   7.664
 2333POPC   C1B31723  30.428  43.803   8.564
 2333POPC   C2B31724  30.442  43.826   8.264
 2333POPC   C3B31725  30.498  43.820   7.964
 2333POPC   C4B31726  30.455  43.865   7.664
 2334POPC   NC331727  12.050  16.692   9.464
 2334POPC   PO431728  12.090  16.753   9.164
 2334POPC   GL131729  12.056  16.724   8.864
 2334POPC   GL231730  12.052  16.866   8.864
 2334POPC   C1A31731  12.070  16.741   8.564
 2334POPC   D2A31732  12.099  16.732   8.264
 2334POPC   C3A31733  12.083  16.773   7.964
 2334POPC   C4A31734  12.042  16.709   7.664
 2334POPC   C1B31735  12.091  16.948   8.564
 2334POPC   C2B31736  12.092  17.011   8.264
 2334POPC   C3B31737  12.094  16.932   7.964
 2334POPC   C4B31738  12.060  16.975   7.664
 2335POPC   NC331739  25.265  26.835   9.464
 2335POPC   PO431740  25.217  26.778   9.164
 2335POPC   GL131741  25.224  26.863   8.864
 2335POPC   GL231742  25.321  26.702   8.864
 2335POPC   C1A31743  25.304  26.863   8.564
 2335POPC   D2A31744  25.244  26.794   8.264
 2335POPC   C3A31745  25.259  26.784   7.964
 2335POPC   C4A31746  25.293  26.825   7.664
 2335POPC   C1B31747  25.328  26.587   8.564
 2335POPC   C2B31748  25.336  26.554   8.264
 2335POPC   C3B31749  25.309  26.542   7.964
 2335POPC   C4B31750  25.349  26.547   7.664
 2336POPC   NC331751  17.513  33.795   9.464
 2336POPC   PO431752  17.462  33.812   9.164
 2336POPC   GL131753  17.550  33.797   8.864
 2336POPC   GL231754  17.357  33.817   8.864
 2336POPC   C1A31755  17.465  33.776   8.564
 2336POPC   D2A31756  17.540  33.838   8.264
 2336POPC   C3A31757  17.468  33.839   7.964
 2336POPC   C4A31758  17.554  33.848   7.664
 2336POPC   C1B31759  17.210  33.737   8.564
 2336POPC   C2B31760  17.242  33.801   8.264
 2336POPC   C3B31761  17.244  33.743   7.964
 2336POPC   C4B31762  17.262  33.785   7.664
 2337POPC   NC331763   5.833  29.166   9.464
 2337POPC   PO431764   5.850  29.128   9.164
 2337POPC   GL131765   5.915  29.193   8.864
 2337POPC   GL231766   5.885  29.054   8.864
 2337POPC   C1A31767   5.864  29.127   8.564
 2337POPC   D2A31768   5.855  29.123   8.264
 2337POPC   C3A31769   5.838  29.157   7.964
 2337POPC   C4A31770   5.913  29.110   7.664
 2337POPC   C1B31771   5.901  28.901   8.564
 2337POPC   C2B31772   5.937  28.878   8.264
 2337POPC   C3B31773   5.873  28.872   7.964
 2337POPC   C4B31774   5.884  28.924   7.664
 2338POPC   NC331775  33.775  27.626   9.464
 2338POPC   PO431776  33.797  27.554   9.164
 2338POPC   GL131777  33.835  27.591   8.864
 2338POPC   GL231778  33.954  27.615   8.864
 2338POPC   C1A31779  33.811  27.570   8.564
 2338POPC   D2A31780  33.797  27.578   8.264
 2338POPC   C3A31781  33.781  27.631   7.964
 2338POPC   C4A31782  33.846  27.593   7.664
 2338POPC   C1B31783  33.995  27.694   8.564
 2338POPC   C2B31784  33.965  27.707   8.264
 2338POPC   C3B31785  34.014  27.731   7.964
 2338POPC   C4B31786  33.970  27.764   7.664
 2339POPC   NC331787   7.469  30.692   9.464
 2339POPC   PO431788   7.400  30.712   9.164
 2339POPC   GL131789   7.384  30.681   8.864
 2339POPC   GL231790   7.558  30.750   8.864
 2339POPC   C1A31791   7.457  30.701   8.564
 2339POPC   D2A31792   7.447  30.741   8.264
 2339POPC   C3A31793   7.455  30.691   7.964
 2339POPC   C4A31794   7.401  30.743   7.664
 2339POPC   C1B31795   7.617  30.736   8.564
 2339POPC   C2B31796   7.649  30.779   8.264
 2339POPC   C3B31797   7.654  30.805   7.964
 2339POPC   C4B31798   7.678  30.781   7.664
 2340POPC   NC331799  37.729  24.494   9.464
 2340POPC   PO431800  37.665  24.477   9.164
 2340POPC   GL131801  37.644  24.445   8.864
 2340POPC   GL231802  37.534  24.403   8.864
 2340POPC   C1A31803  37.690  24.466   8.564
 2340POPC   D2A31804  37.696  24.483   8.264
 2340POPC   C3A31805  37.719  24.487   7.964
 2340POPC   C4A31806  37.702  24.511   7.664
 2340POPC   C1B31807  37.483  24.337   8.564
 2340POPC   C2B31808  37.475  24.327   8.264
 2340POPC   C3B31809  37.519  24.355   7.964
 2340POPC   C4B31810  37.472  24.376   7.664
 2341POPC   NC331811  39.244  20.583   9.464
 2341POPC   PO431812  39.273  20.615   9.164
 2341POPC   GL131813  39.209  20.622   8.864
 2341POPC   GL231814  39.175  20.544   8.864
 2341POPC   C1A31815  39.272  20.617   8.564
 2341POPC   D2A31816  39.236  20.564   8.264
 2341POPC   C3A31817  39.239  20.577   7.964
 2341POPC   C4A31818  39.192  20.650   7.664
 2341POPC   C1B31819  39.064  20.447   8.564
 2341POPC   C2B31820  39.041  20.482   8.264
 2341POPC   C3B31821  39.025  20.415   7.964
 2341POPC   C4B31822  39.041  20.432   7.664
 2342POPC   NC331823  27.640  33.819   9.464
 2342POPC   PO431824  27.599  33.838   9.164
 2342POPC   GL131825  27.603  33.818   8.864
 2342POPC   GL231826  27.523  33.710   8.864
 2342POPC   C1A31827  27.570  33.838   8.564
 2342POPC   D2A31828  27.601  33.761   8.264
 2342POPC   C3A31829  27.558  33.819   7.964
 2342POPC   C4A31830  27.624  33.778   7.664
 2342POPC   C1B31831  27.483  33.609   8.564
 2342POPC   C2B31832  27.484  33.532   8.264
 2342POPC   C3B31833  27.488  33.537   7.964
 2342POPC   C4B31834  27.451  33.551   7.664
 2343POPC   NC331835  12.090   1.254   9.464
 2343POPC   PO431836  12.066   1.261   9.164
 2343POPC   GL131837  12.113   1.188   8.864
 2343POPC   GL231838  12.185   1.198   8.864
 2343POPC   C1A31839  12.049   1.258   8.564
 2343POPC   D2A31840  12.125   1.235   8.264
 2343POPC   C3A31841  12.097   1.247   7.964
 2343POPC   C4A31842  12.107   1.190   7.664
 2343POPC   C1B31843  12.296   1.182   8.564
 2343POPC   C2B31844  12.309   1.211   8.264
 2343POPC   C3B31845  12.330   1.158   7.964
 2343POPC   C4B31846  12.292   1.147   7.664
 2344POPC   NC331847  28.402  43.917   9.464
 2344POPC   PO431848  28.380  43.908   9.164
 2344POPC   GL131849  28.362  43.841   8.864
 2344POPC   GL231850  28.226  43.876   8.864
 2344POPC   C1A31851  28.390  43.871   8.564
 2344POPC   D2A31852  28.394  43.929   8.264
 2344POPC   C3A31853  28.360  43.924   7.964
 2344POPC   C4A31854  28.400  43.868   7.664
 2344POPC   C1B31855  28.105  43.844   8.564
 2344POPC   C2B31856  28.096  43.794   8.264
 2344POPC   C3B31857  28.152  43.787   7.964
 2344POPC   C4B31858  28.094  43.810   7.664
 2345POPC   NC331859  33.776  34.561   9.464
 2345POPC   PO431860  33.832  34.615   9.164
 2345POPC   GL131861  33.812  34.591   8.864
 2345POPC   GL231862  33.713  34.460   8.864
 2345POPC   C1A31863  33.831  34.618   8.564
 2345POPC   D2A31864  33.828  34.615   8.264
 2345POPC   C3A31865  33.844  34.611   7.964
 2345POPC   C4A31866  33.755  34.612   7.664
 2345POPC   C1B31867  33.638  34.468   8.564
 2345POPC   C2B31868  33.604  34.381   8.264
 2345POPC   C3B31869  33.557  34.426   7.964
 2345POPC   C4B31870  33.622  34.449   7.664
 2346POPC   NC331871  11.300  43.886   9.464
 2346POPC   PO431872  11.336  43.895   9.164
 2346POPC   GL131873  11.333  43.841   8.864
 2346POPC   GL231874  11.269  44.000   8.864
 2346POPC   C1A31875  11.271  43.891   8.564
 2346POPC   D2A31876  11.340  43.907   8.264
 2346POPC   C3A31877  11.255  43.898   7.964
 2346POPC   C4A31878  11.294  43.923   7.664
 2346POPC   C1B31879  11.142  44.133   8.564
 2346POPC   C2B31880  11.148  44.127   8.264
 2346POPC   C3B31881  11.187  44.086   7.964
 2346POPC   C4B31882  11.163  44.045   7.664
 2347POPC   NC331883  41.599   4.327   9.464
 2347POPC   PO431884  41.551   4.300   9.164
 2347POPC   GL131885  41.595   4.308   8.864
 2347POPC   GL231886  41.702   4.384   8.864
 2347POPC   C1A31887  41.595   4.286   8.564
 2347POPC   D2A31888  41.529   4.310   8.264
 2347POPC   C3A31889  41.543   4.293   7.964
 2347POPC   C4A31890  41.593   4.351   7.664
 2347POPC   C1B31891  41.828   4.463   8.564
 2347POPC   C2B31892  41.830   4.462   8.264
 2347POPC   C3B31893  41.760   4.392   7.964
 2347POPC   C4B31894  41.790   4.412   7.664
 2348POPC   NC331895  41.533   9.773   9.464
 2348POPC   PO431896  41.605   9.755   9.164
 2348POPC   GL131897  41.514   9.742   8.864
 2348POPC   GL231898  41.661   9.635   8.864
 2348POPC   C1A31899  41.604   9.764   8.564
 2348POPC   D2A31900  41.557   9.714   8.264
 2348POPC   C3A31901  41.514   9.776   7.964
 2348POPC   C4A31902  41.546   9.781   7.664
 2348POPC   C1B31903  41.718   9.528   8.564
 2348POPC   C2B31904  41.746   9.540   8.264
 2348POPC   C3B31905  41.716   9.588   7.964
 2348POPC   C4B31906  41.758   9.604   7.664
 2349POPC   NC331907   8.211  42.348   9.464
 2349POPC   PO431908   8.206  42.344   9.164
 2349POPC   GL131909   8.238  42.312   8.864
 2349POPC   GL231910   8.141  42.386   8.864
 2349POPC   C1A31911   8.210  42.362   8.564
 2349POPC   D2A31912   8.186  42.317   8.264
 2349POPC   C3A31913   8.174  42.325   7.964
 2349POPC   C4A31914   8.177  42.367   7.664
 2349POPC   C1B31915   7.974  42.510   8.564
 2349POPC   C2B31916   7.974  42.516   8.264
 2349POPC   C3B31917   8.017  42.531   7.964
 2349POPC   C4B31918   8.057  42.466   7.664
 2350POPC   NC331919   9.759  11.280   9.464
 2350POPC   PO431920   9.712  11.304   9.164
 2350POPC   GL131921   9.724  11.334   8.864
 2350POPC   GL231922   9.637  11.167   8.864
 2350POPC   C1A31923   9.797  11.294   8.564
 2350POPC   D2A31924   9.750  11.315   8.264
 2350POPC   C3A31925   9.762  11.328   7.964
 2350POPC   C4A31926   9.748  11.349   7.664
 2350POPC   C1B31927   9.551  11.081   8.564
 2350POPC   C2B31928   9.629  11.156   8.264
 2350POPC   C3B31929   9.630  11.133   7.964
 2350POPC   C4B31930   9.566  11.152   7.664
 2351POPC   NC331931   1.215  43.936   9.464
 2351POPC   PO431932   1.184  43.898   9.164
 2351POPC   GL131933   1.195  43.934   8.864
 2351POPC   GL231934   1.158  43.767   8.864
 2351POPC   C1A31935   1.245  43.927   8.564
 2351POPC   D2A31936   1.174  43.885   8.264
 2351POPC   C3A31937   1.180  43.841   7.964
 2351POPC   C4A31938   1.173  43.868   7.664
 2351POPC   C1B31939   1.076  43.696   8.564
 2351POPC   C2B31940   1.062  43.702   8.264
 2351POPC   C3B31941   1.113  43.655   7.964
 2351POPC   C4B31942   1.050  43.709   7.664
 2352POPC   NC331943  32.230  40.027   9.464
 2352POPC   PO431944  32.257  40.052   9.164
 2352POPC   GL131945  32.291  39.966   8.864
 2352POPC   GL231946  32.328  40.073   8.864
 2352POPC   C1A31947  32.268  40.042   8.564
 2352POPC   D2A31948  32.251  39.981   8.264
 2352POPC   C3A31949  32.219  40.043   7.964
 2352POPC   C4A31950  32.276  39.970   7.664
 2352POPC   C1B31951  32.501  40.090   8.564
 2352POPC   C2B31952  32.527  40.025   8.264
 2352POPC   C3B31953  32.448  40.035   7.964
 2352POPC   C4B31954  32.522  40.048   7.664
 2353POPC   NC331955   2.037  15.157   9.464
 2353POPC   PO431956   2.015  15.177   9.164
 2353POPC   GL131957   1.976  15.182   8.864
 2353POPC   GL231958   2.016  15.015   8.864
 2353POPC   C1A31959   2.031  15.176   8.564
 2353POPC   D2A31960   1.974  15.188   8.264
 2353POPC   C3A31961   1.948  15.207   7.964
 2353POPC   C4A31962   1.946  15.142   7.664
 2353POPC   C1B31963   2.039  14.941   8.564
 2353POPC   C2B31964   2.046  14.987   8.264
 2353POPC   C3B31965   2.037  14.904   7.964
 2353POPC   C4B31966   2.101  14.946   7.664
 2354POPC   NC331967  29.190  43.870   9.464
 2354POPC   PO431968  29.140  43.837   9.164
 2354POPC   GL131969  29.129  43.850   8.864
 2354POPC   GL231970  29.026  43.936   8.864
 2354POPC   C1A31971  29.142  43.861   8.564
 2354POPC   D2A31972  29.171  43.933   8.264
 2354POPC   C3A31973  29.149  43.870   7.964
 2354POPC   C4A31974  29.101  43.855   7.664
 2354POPC   C1B31975  28.909  43.998   8.564
 2354POPC   C2B31976  28.959  44.006   8.264
 2354POPC   C3B31977  28.894  43.938   7.964
 2354POPC   C4B31978  28.921  44.014   7.664
 2355POPC   NC331979  10.539  22.160   9.464
 2355POPC   PO431980  10.543  22.207   9.164
 2355POPC   GL131981  10.538  22.176   8.864
 2355POPC   GL231982  10.384  22.219   8.864
 2355POPC   C1A31983  10.480  22.134   8.564
 2355POPC   D2A31984  10.567  22.195   8.264
 2355POPC   C3A31985  10.544  22.139   7.964
 2355POPC   C4A31986  10.569  22.154   7.664
 2355POPC   C1B31987  10.273  22.337   8.564
 2355POPC   C2B31988  10.359  22.293   8.264
 2355POPC   C3B31989  10.322  22.285   7.964
 2355POPC   C4B31990  10.342  22.257   7.664
 2356POPC   NC331991  14.401  33.814   9.464
 2356POPC   PO431992  14.364  33.757   9.164
 2356POPC   GL131993  14.397  33.842   8.864
 2356POPC   GL231994  14.341  33.713   8.864
 2356POPC   C1A31995  14.431  33.839   8.564
 2356POPC   D2A31996  14.441  33.801   8.264
 2356POPC   C3A31997  14.423  33.787   7.964
 2356POPC   C4A31998  14.380  33.789   7.664
 2356POPC   C1B31999  14.160  33.698   8.564
 2356POPC   C2B32000  14.161  33.708   8.264
 2356POPC   C3B32001  14.226  33.670   7.964
 2356POPC   C4B32002  14.165  33.697   7.664
 2357POPC   NC332003  36.856  13.610   9.464
 2357POPC   PO432004  36.914  13.601   9.164
 2357POPC   GL132005  36.903  13.658   8.864
 2357POPC   GL232006  36.861  13.527   8.864
 2357POPC   C1A32007  36.855  13.665   8.564
 2357POPC   D2A32008  36.876  13.613   8.264
 2357POPC   C3A32009  36.936  13.634   7.964
 2357POPC   C4A32010  36.905  13.650   7.664
 2357POPC   C1B32011  36.857  13.355   8.564
 2357POPC   C2B32012  36.897  13.337   8.264
 2357POPC   C3B32013  36.897  13.339   7.964
 2357POPC   C4B32014  36.894  13.392   7.664
 2358POPC   NC332015  12.100  22.904   9.464
 2358POPC   PO432016  12.076  22.935   9.164
 2358POPC   GL132017  12.059  22.902   8.864
 2358POPC   GL232018  12.032  23.017   8.864
 2358POPC   C1A32019  12.106  22.954   8.564
 2358POPC   D2A32020  12.113  22.934   8.264
 2358POPC   C3A32021  12.073  22.899   7.964
 2358POPC   C4A32022  12.081  22.889   7.664
 2358POPC   C1B32023  12.041  23.180   8.564
 2358POPC   C2B32024  11.980  23.174   8.264
 2358POPC   C3B32025  12.055  23.201   7.964
 2358POPC   C4B32026  12.041  23.153   7.664
 2359POPC   NC332027  30.678  33.014   9.464
 2359POPC   PO432028  30.733  32.996   9.164
 2359POPC   GL132029  30.720  33.071   8.864
 2359POPC   GL232030  30.788  33.114   8.864
 2359POPC   C1A32031  30.693  32.993   8.564
 2359POPC   D2A32032  30.713  32.987   8.264
 2359POPC   C3A32033  30.727  32.994   7.964
 2359POPC   C4A32034  30.693  33.067   7.664
 2359POPC   C1B32035  30.829  33.243   8.564
 2359POPC   C2B32036  30.813  33.192   8.264
 2359POPC   C3B32037  30.890  33.254   7.964
 2359POPC   C4B32038  30.862  33.163   7.664
 2360POPC   NC332039  14.388  14.451   9.464
 2360POPC   PO432040  14.429  14.382   9.164
 2360POPC   GL132041  14.396  14.438   8.864
 2360POPC   GL232042  14.489  14.404   8.864
 2360POPC   C1A32043  14.421  14.450   8.564
 2360POPC   D2A32044  14.388  14.420   8.264
 2360POPC   C3A32045  14.363  14.407   7.964
 2360POPC   C4A32046  14.384  14.365   7.664
 2360POPC   C1B32047  14.598  14.348   8.564
 2360POPC   C2B32048  14.681  14.346   8.264
 2360POPC   C3B32049  14.677  14.265   7.964
 2360POPC   C4B32050  14.682  14.264   7.664
 2361POPC   NC332051  19.871  44.635   9.464
 2361POPC   PO432052  19.864  44.631   9.164
 2361POPC   GL132053  19.860  44.658   8.864
 2361POPC   GL232054  19.804  44.770   8.864
 2361POPC   C1A32055  19.843  44.703   8.564
 2361POPC   D2A32056  19.858  44.659   8.264
 2361POPC   C3A32057  19.843  44.615   7.964
 2361POPC   C4A32058  19.839  44.695   7.664
 2361POPC   C1B32059  19.847  44.888   8.564
 2361POPC   C2B32060  19.799  44.951   8.264
 2361POPC   C3B32061  19.783  44.953   7.964
 2361POPC   C4B32062  19.822  44.890   7.664
 2362POPC   NC332063   4.273  16.711   9.464
 2362POPC   PO432064   4.365  16.748   9.164
 2362POPC   GL132065   4.303  16.734   8.864
 2362POPC   GL232066   4.447  16.729   8.864
 2362POPC   C1A32067   4.270  16.684   8.564
 2362POPC   D2A32068   4.318  16.738   8.264
 2362POPC   C3A32069   4.271  16.750   7.964
 2362POPC   C4A32070   4.268  16.681   7.664
 2362POPC   C1B32071   4.544  16.649   8.564
 2362POPC   C2B32072   4.573  16.625   8.264
 2362POPC   C3B32073   4.546  16.683   7.964
 2362POPC   C4B32074   4.535  16.677   7.664
 2363POPC   NC332075  26.811  18.300   9.464
 2363POPC   PO432076  26.799  18.248   9.164
 2363POPC   GL132077  26.845  18.324   8.864
 2363POPC   GL232078  26.715  18.143   8.864
 2363POPC   C1A32079  26.833  18.325   8.564
 2363POPC   D2A32080  26.855  18.332   8.264
 2363POPC   C3A32081  26.777  18.328   7.964
 2363POPC   C4A32082  26.822  18.233   7.664
 2363POPC   C1B32083  26.603  18.089   8.564
 2363POPC   C2B32084  26.611  18.095   8.264
 2363POPC   C3B32085  26.650  18.145   7.964
 2363POPC   C4B32086  26.660  18.125   7.664
 2364POPC   NC332087  29.910  18.276   9.464
 2364POPC   PO432088  29.901  18.316   9.164
 2364POPC   GL132089  29.875  18.313   8.864
 2364POPC   GL232090  29.812  18.296   8.864
 2364POPC   C1A32091  29.971  18.251   8.564
 2364POPC   D2A32092  29.936  18.293   8.264
 2364POPC   C3A32093  29.893  18.279   7.964
 2364POPC   C4A32094  29.915  18.296   7.664
 2364POPC   C1B32095  29.706  18.347   8.564
 2364POPC   C2B32096  29.662  18.320   8.264
 2364POPC   C3B32097  29.676  18.324   7.964
 2364POPC   C4B32098  29.649  18.313   7.664
 2365POPC   NC332099   5.872  23.681   9.464
 2365POPC   PO432100   5.838  23.726   9.164
 2365POPC   GL132101   5.826  23.678   8.864
 2365POPC   GL232102   5.722  23.739   8.864
 2365POPC   C1A32103   5.885  23.718   8.564
 2365POPC   D2A32104   5.823  23.757   8.264
 2365POPC   C3A32105   5.910  23.762   7.964
 2365POPC   C4A32106   5.849  23.699   7.664
 2365POPC   C1B32107   5.612  23.880   8.564
 2365POPC   C2B32108   5.673  23.859   8.264
 2365POPC   C3B32109   5.645  23.791   7.964
 2365POPC   C4B32110   5.668  23.875   7.664
 2366POPC   NC332111  13.667  38.449   9.464
 2366POPC   PO432112  13.638  38.471   9.164
 2366POPC   GL132113  13.608  38.505   8.864
 2366POPC   GL232114  13.488  38.490   8.864
 2366POPC   C1A32115  13.618  38.470   8.564
 2366POPC   D2A32116  13.593  38.499   8.264
 2366POPC   C3A32117  13.632  38.456   7.964
 2366POPC   C4A32118  13.624  38.482   7.664
 2366POPC   C1B32119  13.428  38.496   8.564
 2366POPC   C2B32120  13.349  38.552   8.264
 2366POPC   C3B32121  13.379  38.500   7.964
 2366POPC   C4B32122  13.362  38.504   7.664
 2367POPC   NC332123  43.120  40.741   9.464
 2367POPC   PO432124  43.120  40.760   9.164
 2367POPC   GL132125  43.130  40.764   8.864
 2367POPC   GL232126  43.072  40.914   8.864
 2367POPC   C1A32127  43.120  40.809   8.564
 2367POPC   D2A32128  43.081  40.770   8.264
 2367POPC   C3A32129  43.092  40.813   7.964
 2367POPC   C4A32130  43.157  40.787   7.664
 2367POPC   C1B32131  43.041  41.011   8.564
 2367POPC   C2B32132  43.064  40.996   8.264
 2367POPC   C3B32133  42.983  40.971   7.964
 2367POPC   C4B32134  43.001  41.019   7.664
 2368POPC   NC332135  12.045  26.857   9.464
 2368POPC   PO432136  12.064  26.838   9.164
 2368POPC   GL132137  12.081  26.847   8.864
 2368POPC   GL232138  11.933  26.825   8.864
 2368POPC   C1A32139  12.093  26.856   8.564
 2368POPC   D2A32140  12.123  26.841   8.264
 2368POPC   C3A32141  12.119  26.794   7.964
 2368POPC   C4A32142  12.122  26.846   7.664
 2368POPC   C1B32143  11.803  26.765   8.564
 2368POPC   C2B32144  11.861  26.763   8.264
 2368POPC   C3B32145  11.843  26.823   7.964
 2368POPC   C4B32146  11.873  26.788   7.664
 2369POPC   NC332147  26.060  18.237   9.464
 2369POPC   PO432148  26.050  18.240   9.164
 2369POPC   GL132149  26.088  18.323   8.864
 2369POPC   GL232150  25.968  18.425   8.864
 2369POPC   C1A32151  25.994  18.331   8.564
 2369POPC   D2A32152  26.052  18.251   8.264
 2369POPC   C3A32153  26.048  18.251   7.964
 2369POPC   C4A32154  26.008  18.249   7.664
 2369POPC   C1B32155  25.966  18.545   8.564
 2369POPC   C2B32156  25.966  18.494   8.264
 2369POPC   C3B32157  25.945  18.523   7.964
 2369POPC   C4B32158  25.962  18.519   7.664
 2370POPC   NC332159  35.305   9.792   9.464
 2370POPC   PO432160  35.371   9.797   9.164
 2370POPC   GL132161  35.396   9.745   8.864
 2370POPC   GL232162  35.219   9.848   8.864
 2370POPC   C1A32163  35.356   9.771   8.564
 2370POPC   D2A32164  35.319   9.699   8.264
 2370POPC   C3A32165  35.379   9.726   7.964
 2370POPC   C4A32166  35.359   9.761   7.664
 2370POPC   C1B32167  35.174   9.906   8.564
 2370POPC   C2B32168  35.160   9.887   8.264
 2370POPC   C3B32169  35.132   9.978   7.964
 2370POPC   C4B32170  35.184   9.927   7.664
 2371POPC   NC332171   7.397  32.207   9.464
 2371POPC   PO432172   7.437  32.247   9.164
 2371POPC   GL132173   7.412  32.245   8.864
 2371POPC   GL232174   7.289  32.325   8.864
 2371POPC   C1A32175   7.450  32.270   8.564
 2371POPC   D2A32176   7.373  32.295   8.264
 2371POPC   C3A32177   7.375  32.260   7.964
 2371POPC   C4A32178   7.466  32.246   7.664
 2371POPC   C1B32179   7.242  32.456   8.564
 2371POPC   C2B32180   7.214  32.454   8.264
 2371POPC   C3B32181   7.204  32.387   7.964
 2371POPC   C4B32182   7.293  32.469   7.664
 2372POPC   NC332183  15.182  34.612   9.464
 2372POPC   PO432184  15.139  34.577   9.164
 2372POPC   GL132185  15.169  34.600   8.864
 2372POPC   GL232186  15.097  34.577   8.864
 2372POPC   C1A32187  15.165  34.613   8.564
 2372POPC   D2A32188  15.151  34.554   8.264
 2372POPC   C3A32189  15.175  34.576   7.964
 2372POPC   C4A32190  15.227  34.613   7.664
 2372POPC   C1B32191  14.932  34.555   8.564
 2372POPC   C2B32192  14.904  34.518   8.264
 2372POPC   C3B32193  14.918  34.558   7.964
 2372POPC   C4B32194  14.970  34.529   7.664
 2373POPC   NC332195  26.825   5.824   9.464
 2373POPC   PO432196  26.790   5.832   9.164
 2373POPC   GL132197  26.818   5.892   8.864
 2373POPC   GL232198  26.781   5.703   8.864
 2373POPC   C1A32199  26.823   5.876   8.564
 2373POPC   D2A32200  26.816   5.836   8.264
 2373POPC   C3A32201  26.813   5.892   7.964
 2373POPC   C4A32202  26.796   5.843   7.664
 2373POPC   C1B32203  26.838   5.622   8.564
 2373POPC   C2B32204  26.856   5.646   8.264
 2373POPC   C3B32205  26.834   5.642   7.964
 2373POPC   C4B32206  26.834   5.579   7.664
 2374POPC   NC332207  16.735   8.991   9.464
 2374POPC   PO432208  16.763   8.958   9.164
 2374POPC   GL132209  16.712   8.949   8.864
 2374POPC   GL232210  16.595   8.855   8.864
 2374POPC   C1A32211  16.716   8.926   8.564
 2374POPC   D2A32212  16.773   8.929   8.264
 2374POPC   C3A32213  16.775   9.008   7.964
 2374POPC   C4A32214  16.740   9.021   7.664
 2374POPC   C1B32215  16.554   8.840   8.564
 2374POPC   C2B32216  16.509   8.781   8.264
 2374POPC   C3B32217  16.580   8.778   7.964
 2374POPC   C4B32218  16.597   8.749   7.664
 2375POPC   NC332219  18.280  12.031   9.464
 2375POPC   PO432220  18.332  12.118   9.164
 2375POPC   GL132221  18.292  12.093   8.864
 2375POPC   GL232222  18.317  12.205   8.864
 2375POPC   C1A32223  18.277  12.111   8.564
 2375POPC   D2A32224  18.309  12.056   8.264
 2375POPC   C3A32225  18.292  12.028   7.964
 2375POPC   C4A32226  18.251  12.043   7.664
 2375POPC   C1B32227  18.241  12.330   8.564
 2375POPC   C2B32228  18.339  12.296   8.264
 2375POPC   C3B32229  18.285  12.317   7.964
 2375POPC   C4B32230  18.241  12.356   7.664
 2376POPC   NC332231   8.986  25.222   9.464
 2376POPC   PO432232   9.000  25.233   9.164
 2376POPC   GL132233   9.022  25.312   8.864
 2376POPC   GL232234   8.876  25.230   8.864
 2376POPC   C1A32235   8.940  25.283   8.564
 2376POPC   D2A32236   8.967  25.304   8.264
 2376POPC   C3A32237   8.928  25.252   7.964
 2376POPC   C4A32238   8.982  25.314   7.664
 2376POPC   C1B32239   8.811  25.108   8.564
 2376POPC   C2B32240   8.780  25.076   8.264
 2376POPC   C3B32241   8.720  25.141   7.964
 2376POPC   C4B32242   8.736  25.140   7.664
 2377POPC   NC332243  26.001  21.433   9.464
 2377POPC   PO432244  26.019  21.342   9.164
 2377POPC   GL132245  26.068  21.395   8.864
 2377POPC   GL232246  25.939  21.266   8.864
 2377POPC   C1A32247  26.046  21.375   8.564
 2377POPC   D2A32248  26.003  21.371   8.264
 2377POPC   C3A32249  26.014  21.381   7.964
 2377POPC   C4A32250  26.052  21.409   7.664
 2377POPC   C1B32251  25.832  21.179   8.564
 2377POPC   C2B32252  25.845  21.187   8.264
 2377POPC   C3B32253  25.824  21.210   7.964
 2377POPC   C4B32254  25.825  21.168   7.664
 2378POPC   NC332255   0.481  23.744   9.464
 2378POPC   PO432256   0.485  23.755   9.164
 2378POPC   GL132257   0.436  23.708   8.864
 2378POPC   GL232258   0.333  23.626   8.864
 2378POPC   C1A32259   0.485  23.739   8.564
 2378POPC   D2A32260   0.476  23.681   8.264
 2378POPC   C3A32261   0.481  23.718   7.964
 2378POPC   C4A32262   0.469  23.710   7.664
 2378POPC   C1B32263   0.262  23.532   8.564
 2378POPC   C2B32264   0.202  23.518   8.264
 2378POPC   C3B32265   0.283  23.587   7.964
 2378POPC   C4B32266   0.289  23.564   7.664
 2379POPC   NC332267  12.052  32.220   9.464
 2379POPC   PO432268  12.115  32.235   9.164
 2379POPC   GL132269  12.053  32.258   8.864
 2379POPC   GL232270  12.064  32.165   8.864
 2379POPC   C1A32271  12.058  32.257   8.564
 2379POPC   D2A32272  12.042  32.232   8.264
 2379POPC   C3A32273  12.034  32.252   7.964
 2379POPC   C4A32274  12.074  32.274   7.664
 2379POPC   C1B32275  11.941  31.980   8.564
 2379POPC   C2B32276  11.950  31.970   8.264
 2379POPC   C3B32277  12.010  32.043   7.964
 2379POPC   C4B32278  11.994  31.984   7.664
 2380POPC   NC332279  21.338  29.920   9.464
 2380POPC   PO432280  21.419  29.895   9.164
 2380POPC   GL132281  21.407  29.938   8.864
 2380POPC   GL232282  21.375  30.084   8.864
 2380POPC   C1A32283  21.337  29.936   8.564
 2380POPC   D2A32284  21.380  29.872   8.264
 2380POPC   C3A32285  21.348  29.905   7.964
 2380POPC   C4A32286  21.393  29.967   7.664
 2380POPC   C1B32287  21.420  30.142   8.564
 2380POPC   C2B32288  21.365  30.185   8.264
 2380POPC   C3B32289  21.350  30.130   7.964
 2380POPC   C4B32290  21.345  30.213   7.664
 2381POPC   NC332291  21.418  33.795   9.464
 2381POPC   PO432292  21.353  33.843   9.164
 2381POPC   GL132293  21.413  33.766   8.864
 2381POPC   GL232294  21.280  33.936   8.864
 2381POPC   C1A32295  21.368  33.795   8.564
 2381POPC   D2A32296  21.423  33.841   8.264
 2381POPC   C3A32297  21.375  33.784   7.964
 2381POPC   C4A32298  21.355  33.836   7.664
 2381POPC   C1B32299  21.224  33.992   8.564
 2381POPC   C2B32300  21.176  33.972   8.264
 2381POPC   C3B32301  21.204  33.973   7.964
 2381POPC   C4B32302  21.254  33.962   7.664
 2382POPC   NC332303  22.143  22.912   9.464
 2382POPC   PO432304  22.124  22.977   9.164
 2382POPC   GL132305  22.150  22.944   8.864
 2382POPC   GL232306  22.116  22.819   8.864
 2382POPC   C1A32307  22.181  22.966   8.564
 2382POPC   D2A32308  22.160  22.911   8.264
 2382POPC   C3A32309  22.152  22.957   7.964
 2382POPC   C4A32310  22.161  22.932   7.664
 2382POPC   C1B32311  22.141  22.678   8.564
 2382POPC   C2B32312  22.109  22.673   8.264
 2382POPC   C3B32313  22.103  22.699   7.964
 2382POPC   C4B32314  22.120  22.696   7.664
 2383POPC   NC332315  20.601  40.790   9.464
 2383POPC   PO432316  20.568  40.830   9.164
 2383POPC   GL132317  20.615  40.818   8.864
 2383POPC   GL232318  20.734  40.778   8.864
 2383POPC   C1A32319  20.617  40.816   8.564
 2383POPC   D2A32320  20.623  40.742   8.264
 2383POPC   C3A32321  20.593  40.749   7.964
 2383POPC   C4A32322  20.610  40.803   7.664
 2383POPC   C1B32323  20.807  40.659   8.564
 2383POPC   C2B32324  20.833  40.716   8.264
 2383POPC   C3B32325  20.840  40.634   7.964
 2383POPC   C4B32326  20.872  40.713   7.664
 2384POPC   NC332327  37.633   9.765   9.464
 2384POPC   PO432328  37.667   9.773   9.164
 2384POPC   GL132329  37.655   9.746   8.864
 2384POPC   GL232330  37.604   9.833   8.864
 2384POPC   C1A32331  37.632   9.752   8.564
 2384POPC   D2A32332  37.665   9.721   8.264
 2384POPC   C3A32333  37.710   9.781   7.964
 2384POPC   C4A32334  37.664   9.700   7.664
 2384POPC   C1B32335  37.461   9.816   8.564
 2384POPC   C2B32336  37.495   9.850   8.264
 2384POPC   C3B32337  37.487   9.878   7.964
 2384POPC   C4B32338  37.426   9.872   7.664
 2385POPC   NC332339  33.016  12.899   9.464
 2385POPC   PO432340  32.983  12.869   9.164
 2385POPC   GL132341  33.018  12.813   8.864
 2385POPC   GL232342  32.979  12.760   8.864
 2385POPC   C1A32343  33.073  12.866   8.564
 2385POPC   D2A32344  33.070  12.891   8.264
 2385POPC   C3A32345  32.993  12.891   7.964
 2385POPC   C4A32346  33.001  12.874   7.664
 2385POPC   C1B32347  33.004  12.638   8.564
 2385POPC   C2B32348  32.995  12.559   8.264
 2385POPC   C3B32349  32.958  12.596   7.964
 2385POPC   C4B32350  33.000  12.563   7.664
 2386POPC   NC332351   1.231  33.846   9.464
 2386POPC   PO432352   1.258  33.804   9.164
 2386POPC   GL132353   1.182  33.818   8.864
 2386POPC   GL232354   1.181  33.646   8.864
 2386POPC   C1A32355   1.192  33.759   8.564
 2386POPC   D2A32356   1.256  33.836   8.264
 2386POPC   C3A32357   1.225  33.784   7.964
 2386POPC   C4A32358   1.259  33.778   7.664
 2386POPC   C1B32359   1.143  33.510   8.564
 2386POPC   C2B32360   1.168  33.588   8.264
 2386POPC   C3B32361   1.206  33.537   7.964
 2386POPC   C4B32362   1.185  33.534   7.664
 2387POPC   NC332363  13.628  43.916   9.464
 2387POPC   PO432364  13.632  43.852   9.164
 2387POPC   GL132365  13.612  43.928   8.864
 2387POPC   GL232366  13.716  43.763   8.864
 2387POPC   C1A32367  13.661  43.895   8.564
 2387POPC   D2A32368  13.586  43.859   8.264
 2387POPC   C3A32369  13.654  43.934   7.964
 2387POPC   C4A32370  13.586  43.840   7.664
 2387POPC   C1B32371  13.704  43.686   8.564
 2387POPC   C2B32372  13.707  43.709   8.264
 2387POPC   C3B32373  13.728  43.638   7.964
 2387POPC   C4B32374  13.785  43.655   7.664
 2388POPC   NC332375  15.212  33.751   9.464
 2388POPC   PO432376  15.172  33.763   9.164
 2388POPC   GL132377  15.216  33.804   8.864
 2388POPC   GL232378  15.070  33.811   8.864
 2388POPC   C1A32379  15.146  33.838   8.564
 2388POPC   D2A32380  15.140  33.768   8.264
 2388POPC   C3A32381  15.199  33.793   7.964
 2388POPC   C4A32382  15.178  33.768   7.664
 2388POPC   C1B32383  14.956  33.951   8.564
 2388POPC   C2B32384  14.996  33.953   8.264
 2388POPC   C3B32385  14.952  33.934   7.964
 2388POPC   C4B32386  14.945  33.891   7.664
 2389POPC   NC332387  38.449  12.087   9.464
 2389POPC   PO432388  38.475  12.080   9.164
 2389POPC   GL132389  38.473  12.049   8.864
 2389POPC   GL232390  38.327  11.993   8.864
 2389POPC   C1A32391  38.498  12.035   8.564
 2389POPC   D2A32392  38.500  12.047   8.264
 2389POPC   C3A32393  38.419  12.093   7.964
 2389POPC   C4A32394  38.435  12.041   7.664
 2389POPC   C1B32395  38.217  11.925   8.564
 2389POPC   C2B32396  38.227  11.930   8.264
 2389POPC   C3B32397  38.239  11.902   7.964
 2389POPC   C4B32398  38.215  11.969   7.664
 2390POPC   NC332399  13.660  19.831   9.464
 2390POPC   PO432400  13.627  19.839   9.164
 2390POPC   GL132401  13.650  19.861   8.864
 2390POPC   GL232402  13.593  19.735   8.864
 2390POPC   C1A32403  13.653  19.807   8.564
 2390POPC   D2A32404  13.644  19.868   8.264
 2390POPC   C3A32405  13.608  19.813   7.964
 2390POPC   C4A32406  13.673  19.813   7.664
 2390POPC   C1B32407  13.651  19.596   8.564
 2390POPC   C2B32408  13.569  19.543   8.264
 2390POPC   C3B32409  13.618  19.567   7.964
 2390POPC   C4B32410  13.578  19.567   7.664
 2391POPC   NC332411  18.318  11.279   9.464
 2391POPC   PO432412  18.251  11.314   9.164
 2391POPC   GL132413  18.248  11.297   8.864
 2391POPC   GL232414  18.206  11.337   8.864
 2391POPC   C1A32415  18.256  11.325   8.564
 2391POPC   D2A32416  18.244  11.294   8.264
 2391POPC   C3A32417  18.330  11.317   7.964
 2391POPC   C4A32418  18.248  11.298   7.664
 2391POPC   C1B32419  18.073  11.250   8.564
 2391POPC   C2B32420  18.011  11.317   8.264
 2391POPC   C3B32421  18.067  11.286   7.964
 2391POPC   C4B32422  18.041  11.265   7.664
 2392POPC   NC332423  26.068  39.269   9.464
 2392POPC   PO432424  26.035  39.271   9.164
 2392POPC   GL132425  26.055  39.279   8.864
 2392POPC   GL232426  25.937  39.113   8.864
 2392POPC   C1A32427  26.047  39.235   8.564
 2392POPC   D2A32428  26.032  39.237   8.264
 2392POPC   C3A32429  26.023  39.254   7.964
 2392POPC   C4A32430  26.001  39.215   7.664
 2392POPC   C1B32431  25.857  39.018   8.564
 2392POPC   C2B32432  25.876  39.057   8.264
 2392POPC   C3B32433  25.898  39.047   7.964
 2392POPC   C4B32434  25.877  39.039   7.664
 2393POPC   NC332435  35.344   2.035   9.464
 2393POPC   PO432436  35.312   2.027   9.164
 2393POPC   GL132437  35.311   1.968   8.864
 2393POPC   GL232438  35.309   2.121   8.864
 2393POPC   C1A32439  35.334   2.021   8.564
 2393POPC   D2A32440  35.361   1.951   8.264
 2393POPC   C3A32441  35.316   2.006   7.964
 2393POPC   C4A32442  35.307   2.026   7.664
 2393POPC   C1B32443  35.384   2.257   8.564
 2393POPC   C2B32444  35.363   2.212   8.264
 2393POPC   C3B32445  35.326   2.267   7.964
 2393POPC   C4B32446  35.377   2.277   7.664
 2394POPC   NC332447  36.133  29.118   9.464
 2394POPC   PO432448  36.176  29.187   9.164
 2394POPC   GL132449  36.082  29.121   8.864
 2394POPC   GL232450  36.006  29.122   8.864
 2394POPC   C1A32451  36.170  29.141   8.564
 2394POPC   D2A32452  36.109  29.101   8.264
 2394POPC   C3A32453  36.093  29.183   7.964
 2394POPC   C4A32454  36.137  29.189   7.664
 2394POPC   C1B32455  35.906  29.163   8.564
 2394POPC   C2B32456  35.832  29.130   8.264
 2394POPC   C3B32457  35.844  29.101   7.964
 2394POPC   C4B32458  35.894  29.132   7.664
 2395POPC   NC332459   5.880  31.431   9.464
 2395POPC   PO432460   5.841  31.470   9.164
 2395POPC   GL132461   5.864  31.477   8.864
 2395POPC   GL232462   5.947  31.586   8.864
 2395POPC   C1A32463   5.894  31.504   8.564
 2395POPC   D2A32464   5.840  31.473   8.264
 2395POPC   C3A32465   5.881  31.464   7.964
 2395POPC   C4A32466   5.891  31.490   7.664
 2395POPC   C1B32467   5.994  31.671   8.564
 2395POPC   C2B32468   5.980  31.623   8.264
 2395POPC   C3B32469   5.979  31.644   7.964
 2395POPC   C4B32470   5.987  31.693   7.664
 2396POPC   NC332471  19.804  36.864   9.464
 2396POPC   PO432472  19.848  36.942   9.164
 2396POPC   GL132473  19.881  36.877   8.864
 2396POPC   GL232474  19.936  36.904   8.864
 2396POPC   C1A32475  19.881  36.909   8.564
 2396POPC   D2A32476  19.857  36.914   8.264
 2396POPC   C3A32477  19.792  36.905   7.964
 2396POPC   C4A32478  19.817  36.938   7.664
 2396POPC   C1B32479  20.122  36.890   8.564
 2396POPC   C2B32480  20.082  36.848   8.264
 2396POPC   C3B32481  20.128  36.862   7.964
 2396POPC   C4B32482  20.115  36.903   7.664
 2397POPC   NC332483  29.182  24.459   9.464
 2397POPC   PO432484  29.142  24.486   9.164
 2397POPC   GL132485  29.162  24.515   8.864
 2397POPC   GL232486  29.119  24.371   8.864
 2397POPC   C1A32487  29.164  24.450   8.564
 2397POPC   D2A32488  29.120  24.538   8.264
 2397POPC   C3A32489  29.176  24.441   7.964
 2397POPC   C4A32490  29.142  24.527   7.664
 2397POPC   C1B32491  29.027  24.285   8.564
 2397POPC   C2B32492  28.984  24.302   8.264
 2397POPC   C3B32493  29.038  24.314   7.964
 2397POPC   C4B32494  29.054  24.276   7.664
 2398POPC   NC332495  30.681  33.774   9.464
 2398POPC   PO432496  30.724  33.760   9.164
 2398POPC   GL132497  30.697  33.764   8.864
 2398POPC   GL232498  30.712  33.717   8.864
 2398POPC   C1A32499  30.675  33.765   8.564
 2398POPC   D2A32500  30.679  33.767   8.264
 2398POPC   C3A32501  30.688  33.767   7.964
 2398POPC   C4A32502  30.675  33.815   7.664
 2398POPC   C1B32503  30.689  33.560   8.564
 2398POPC   C2B32504  30.669  33.551   8.264
 2398POPC   C3B32505  30.678  33.502   7.964
 2398POPC   C4B32506  30.632  33.510   7.664
 2399POPC   NC332507  35.325  14.358   9.464
 2399POPC   PO432508  35.335  14.389   9.164
 2399POPC   GL132509  35.305  14.357   8.864
 2399POPC   GL232510  35.344  14.496   8.864
 2399POPC   C1A32511  35.391  14.442   8.564
 2399POPC   D2A32512  35.364  14.431   8.264
 2399POPC   C3A32513  35.310  14.372   7.964
 2399POPC   C4A32514  35.368  14.448   7.664
 2399POPC   C1B32515  35.286  14.640   8.564
 2399POPC   C2B32516  35.205  14.591   8.264
 2399POPC   C3B32517  35.207  14.629   7.964
 2399POPC   C4B32518  35.223  14.644   7.664
 2400POPC   NC332519   8.151  31.448   9.464
 2400POPC   PO432520   8.162  31.463   9.164
 2400POPC   GL132521   8.242  31.443   8.864
 2400POPC   GL232522   8.296  31.411   8.864
 2400POPC   C1A32523   8.206  31.469   8.564
 2400POPC   D2A32524   8.203  31.486   8.264
 2400POPC   C3A32525   8.174  31.489   7.964
 2400POPC   C4A32526   8.195  31.508   7.664
 2400POPC   C1B32527   8.474  31.388   8.564
 2400POPC   C2B32528   8.471  31.367   8.264
 2400POPC   C3B32529   8.480  31.392   7.964
 2400POPC   C4B32530   8.418  31.381   7.664
 2401POPC   NC332531  39.984  17.472   9.464
 2401POPC   PO432532  40.021  17.461   9.164
 2401POPC   GL132533  40.038  17.498   8.864
 2401POPC   GL232534  39.865  17.537   8.864
 2401POPC   C1A32535  39.971  17.460   8.564
 2401POPC   D2A32536  39.983  17.516   8.264
 2401POPC   C3A32537  39.968  17.552   7.964
 2401POPC   C4A32538  39.986  17.483   7.664
 2401POPC   C1B32539  39.821  17.647   8.564
 2401POPC   C2B32540  39.817  17.593   8.264
 2401POPC   C3B32541  39.821  17.663   7.964
 2401POPC   C4B32542  39.830  17.638   7.664
 2402POPC   NC332543  22.139  28.414   9.464
 2402POPC   PO432544  22.152  28.362   9.164
 2402POPC   GL132545  22.171  28.410   8.864
 2402POPC   GL232546  22.175  28.203   8.864
 2402POPC   C1A32547  22.172  28.361   8.564
 2402POPC   D2A32548  22.206  28.380   8.264
 2402POPC   C3A32549  22.113  28.371   7.964
 2402POPC   C4A32550  22.196  28.348   7.664
 2402POPC   C1B32551  22.177  28.123   8.564
 2402POPC   C2B32552  22.173  28.112   8.264
 2402POPC   C3B32553  22.186  28.162   7.964
 2402POPC   C4B32554  22.178  28.136   7.664
 2403POPC   NC332555  15.919  19.020   9.464
 2403POPC   PO432556  15.958  19.054   9.164
 2403POPC   GL132557  15.957  19.022   8.864
 2403POPC   GL232558  16.089  19.042   8.864
 2403POPC   C1A32559  15.947  19.062   8.564
 2403POPC   D2A32560  16.000  19.009   8.264
 2403POPC   C3A32561  15.965  19.079   7.964
 2403POPC   C4A32562  15.952  19.102   7.664
 2403POPC   C1B32563  16.209  19.003   8.564
 2403POPC   C2B32564  16.165  18.988   8.264
 2403POPC   C3B32565  16.234  19.017   7.964
 2403POPC   C4B32566  16.212  18.984   7.664
 2404POPC   NC332567  34.562  44.678   9.464
 2404POPC   PO432568  34.582  44.631   9.164
 2404POPC   GL132569  34.598  44.689   8.864
 2404POPC   GL232570  34.412  44.678   8.864
 2404POPC   C1A32571  34.601  44.637   8.564
 2404POPC   D2A32572  34.603  44.658   8.264
 2404POPC   C3A32573  34.599  44.708   7.964
 2404POPC   C4A32574  34.588  44.659   7.664
 2404POPC   C1B32575  34.282  44.604   8.564
 2404POPC   C2B32576  34.299  44.627   8.264
 2404POPC   C3B32577  34.361  44.656   7.964
 2404POPC   C4B32578  34.296  44.632   7.664
 2405POPC   NC332579  44.622   7.421   9.464
 2405POPC   PO432580  44.706   7.427   9.164
 2405POPC   GL132581  44.623   7.439   8.864
 2405POPC   GL232582  44.681   7.513   8.864
 2405POPC   C1A32583  44.680   7.424   8.564
 2405POPC   D2A32584  44.645   7.460   8.264
 2405POPC   C3A32585  44.651   7.432   7.964
 2405POPC   C4A32586  44.615   7.451   7.664
 2405POPC   C1B32587  44.599   7.671   8.564
 2405POPC   C2B32588  44.614   7.668   8.264
 2405POPC   C3B32589  44.660   7.673   7.964
 2405POPC   C4B32590  44.607   7.644   7.664
 2406POPC   NC332591   1.199  39.989   9.464
 2406POPC   PO432592   1.187  40.044   9.164
 2406POPC   GL132593   1.198  39.975   8.864
 2406POPC   GL232594   1.357  39.914   8.864
 2406POPC   C1A32595   1.237  40.017   8.564
 2406POPC   D2A32596   1.207  40.020   8.264
 2406POPC   C3A32597   1.253  39.996   7.964
 2406POPC   C4A32598   1.221  40.010   7.664
 2406POPC   C1B32599   1.379  39.835   8.564
 2406POPC   C2B32600   1.418  39.853   8.264
 2406POPC   C3B32601   1.395  39.871   7.964
 2406POPC   C4B32602   1.450  39.870   7.664
 2407POPC   NC332603   8.217  40.826   9.464
 2407POPC   PO432604   8.212  40.805   9.164
 2407POPC   GL132605   8.243  40.743   8.864
 2407POPC   GL232606   8.302  40.897   8.864
 2407POPC   C1A32607   8.174  40.755   8.564
 2407POPC   D2A32608   8.242  40.740   8.264
 2407POPC   C3A32609   8.218  40.765   7.964
 2407POPC   C4A32610   8.231  40.804   7.664
 2407POPC   C1B32611   8.366  41.019   8.564
 2407POPC   C2B32612   8.286  40.991   8.264
 2407POPC   C3B32613   8.324  41.038   7.964
 2407POPC   C4B32614   8.334  40.987   7.664
 2408POPC   NC332615   3.512  19.034   9.464
 2408POPC   PO432616   3.556  19.089   9.164
 2408POPC   GL132617   3.533  19.026   8.864
 2408POPC   GL232618   3.426  18.966   8.864
 2408POPC   C1A32619   3.502  19.015   8.564
 2408POPC   D2A32620   3.541  19.058   8.264
 2408POPC   C3A32621   3.501  19.082   7.964
 2408POPC   C4A32622   3.531  19.080   7.664
 2408POPC   C1B32623   3.391  18.851   8.564
 2408POPC   C2B32624   3.322  18.854   8.264
 2408POPC   C3B32625   3.354  18.869   7.964
 2408POPC   C4B32626   3.361  18.913   7.664
 2409POPC   NC332627  15.912  39.249   9.464
 2409POPC   PO432628  16.002  39.229   9.164
 2409POPC   GL132629  15.915  39.202   8.864
 2409POPC   GL232630  15.826  39.374   8.864
 2409POPC   C1A32631  16.001  39.236   8.564
 2409POPC   D2A32632  15.985  39.259   8.264
 2409POPC   C3A32633  15.991  39.203   7.964
 2409POPC   C4A32634  15.917  39.245   7.664
 2409POPC   C1B32635  15.833  39.464   8.564
 2409POPC   C2B32636  15.765  39.391   8.264
 2409POPC   C3B32637  15.743  39.449   7.964
 2409POPC   C4B32638  15.837  39.396   7.664
 2410POPC   NC332639   5.908  29.898   9.464
 2410POPC   PO432640   5.906  29.895   9.164
 2410POPC   GL132641   5.823  29.907   8.864
 2410POPC   GL232642   5.942  29.798   8.864
 2410POPC   C1A32643   5.830  29.883   8.564
 2410POPC   D2A32644   5.914  29.966   8.264
 2410POPC   C3A32645   5.898  29.942   7.964
 2410POPC   C4A32646   5.917  29.898   7.664
 2410POPC   C1B32647   6.021  29.731   8.564
 2410POPC   C2B32648   5.971  29.686   8.264
 2410POPC   C3B32649   6.009  29.737   7.964
 2410POPC   C4B32650   6.023  29.663   7.664
 2411POPC   NC332651  43.837   2.738   9.464
 2411POPC   PO432652  43.904   2.725   9.164
 2411POPC   GL132653  43.919   2.735   8.864
 2411POPC   GL232654  43.957   2.833   8.864
 2411POPC   C1A32655  43.903   2.802   8.564
 2411POPC   D2A32656  43.935   2.726   8.264
 2411POPC   C3A32657  43.883   2.803   7.964
 2411POPC   C4A32658  43.854   2.791   7.664
 2411POPC   C1B32659  44.032   2.951   8.564
 2411POPC   C2B32660  44.039   2.993   8.264
 2411POPC   C3B32661  43.970   2.965   7.964
 2411POPC   C4B32662  44.011   2.962   7.664
 2412POPC   NC332663  33.836  38.450   9.464
 2412POPC   PO432664  33.780  38.457   9.164
 2412POPC   GL132665  33.814  38.480   8.864
 2412POPC   GL232666  33.829  38.590   8.864
 2412POPC   C1A32667  33.782  38.465   8.564
 2412POPC   D2A32668  33.848  38.463   8.264
 2412POPC   C3A32669  33.804  38.477   7.964
 2412POPC   C4A32670  33.795  38.406   7.664
 2412POPC   C1B32671  33.844  38.691   8.564
 2412POPC   C2B32672  33.785  38.714   8.264
 2412POPC   C3B32673  33.825  38.661   7.964
 2412POPC   C4B32674  33.781  38.747   7.664
 2413POPC   NC332675  38.421  30.656   9.464
 2413POPC   PO432676  38.490  30.712   9.164
 2413POPC   GL132677  38.422  30.685   8.864
 2413POPC   GL232678  38.557  30.780   8.864
 2413POPC   C1A32679  38.414  30.736   8.564
 2413POPC   D2A32680  38.489  30.650   8.264
 2413POPC   C3A32681  38.441  30.740   7.964
 2413POPC   C4A32682  38.461  30.663   7.664
 2413POPC   C1B32683  38.605  30.921   8.564
 2413POPC   C2B32684  38.585  30.932   8.264
 2413POPC   C3B32685  38.565  30.938   7.964
 2413POPC   C4B32686  38.567  30.926   7.664
 2414POPC   NC332687  20.626  39.226   9.464
 2414POPC   PO432688  20.571  39.224   9.164
 2414POPC   GL132689  20.569  39.262   8.864
 2414POPC   GL232690  20.733  39.260   8.864
 2414POPC   C1A32691  20.632  39.193   8.564
 2414POPC   D2A32692  20.627  39.189   8.264
 2414POPC   C3A32693  20.602  39.222   7.964
 2414POPC   C4A32694  20.659  39.277   7.664
 2414POPC   C1B32695  20.896  39.234   8.564
 2414POPC   C2B32696  20.873  39.248   8.264
 2414POPC   C3B32697  20.815  39.307   7.964
 2414POPC   C4B32698  20.856  39.293   7.664
 2415POPC   NC332699  26.090  38.476   9.464
 2415POPC   PO432700  26.076  38.438   9.164
 2415POPC   GL132701  26.034  38.417   8.864
 2415POPC   GL232702  26.146  38.547   8.864
 2415POPC   C1A32703  26.072  38.440   8.564
 2415POPC   D2A32704  26.032  38.491   8.264
 2415POPC   C3A32705  26.040  38.447   7.964
 2415POPC   C4A32706  26.084  38.476   7.664
 2415POPC   C1B32707  26.282  38.609   8.564
 2415POPC   C2B32708  26.246  38.641   8.264
 2415POPC   C3B32709  26.237  38.615   7.964
 2415POPC   C4B32710  26.250  38.604   7.664
 2416POPC   NC332711  28.387   2.815   9.464
 2416POPC   PO432712  28.380   2.755   9.164
 2416POPC   GL132713  28.406   2.753   8.864
 2416POPC   GL232714  28.408   2.631   8.864
 2416POPC   C1A32715  28.368   2.738   8.564
 2416POPC   D2A32716  28.332   2.787   8.264
 2416POPC   C3A32717  28.343   2.810   7.964
 2416POPC   C4A32718  28.364   2.718   7.664
 2416POPC   C1B32719  28.332   2.538   8.564
 2416POPC   C2B32720  28.348   2.540   8.264
 2416POPC   C3B32721  28.367   2.514   7.964
 2416POPC   C4B32722  28.376   2.536   7.664
 2417POPC   NC332723  22.975   8.985   9.464
 2417POPC   PO432724  22.931   9.005   9.164
 2417POPC   GL132725  22.928   8.978   8.864
 2417POPC   GL232726  22.841   8.854   8.864
 2417POPC   C1A32727  22.968   8.975   8.564
 2417POPC   D2A32728  22.938   8.974   8.264
 2417POPC   C3A32729  22.930   8.949   7.964
 2417POPC   C4A32730  22.949   9.008   7.664
 2417POPC   C1B32731  22.792   8.729   8.564
 2417POPC   C2B32732  22.812   8.761   8.264
 2417POPC   C3B32733  22.793   8.800   7.964
 2417POPC   C4B32734  22.780   8.741   7.664
 2418POPC   NC332735  15.991  35.372   9.464
 2418POPC   PO432736  15.937  35.315   9.164
 2418POPC   GL132737  15.953  35.310   8.864
 2418POPC   GL232738  15.892  35.407   8.864
 2418POPC   C1A32739  15.948  35.350   8.564
 2418POPC   D2A32740  15.951  35.317   8.264
 2418POPC   C3A32741  15.942  35.312   7.964
 2418POPC   C4A32742  15.945  35.393   7.664
 2418POPC   C1B32743  15.758  35.483   8.564
 2418POPC   C2B32744  15.777  35.493   8.264
 2418POPC   C3B32745  15.788  35.525   7.964
 2418POPC   C4B32746  15.802  35.460   7.664
 2419POPC   NC332747  26.003   1.954   9.464
 2419POPC   PO432748  26.043   2.016   9.164
 2419POPC   GL132749  26.069   1.990   8.864
 2419POPC   GL232750  25.979   1.892   8.864
 2419POPC   C1A32751  26.002   1.950   8.564
 2419POPC   D2A32752  26.059   2.033   8.264
 2419POPC   C3A32753  26.028   1.974   7.964
 2419POPC   C4A32754  26.010   1.997   7.664
 2419POPC   C1B32755  25.777   1.847   8.564
 2419POPC   C2B32756  25.790   1.838   8.264
 2419POPC   C3B32757  25.795   1.885   7.964
 2419POPC   C4B32758  25.859   1.918   7.664
 2420POPC   NC332759  27.550  43.912   9.464
 2420POPC   PO432760  27.589  43.875   9.164
 2420POPC   GL132761  27.612  43.844   8.864
 2420POPC   GL232762  27.461  43.896   8.864
 2420POPC   C1A32763  27.556  43.908   8.564
 2420POPC   D2A32764  27.636  43.907   8.264
 2420POPC   C3A32765  27.619  43.869   7.964
 2420POPC   C4A32766  27.610  43.900   7.664
 2420POPC   C1B32767  27.363  43.887   8.564
 2420POPC   C2B32768  27.377  43.867   8.264
 2420POPC   C3B32769  27.382  43.910   7.964
 2420POPC   C4B32770  27.379  43.874   7.664
 2421POPC   NC332771   1.183   8.162   9.464
 2421POPC   PO432772   1.225   8.231   9.164
 2421POPC   GL132773   1.181   8.180   8.864
 2421POPC   GL232774   1.192   8.328   8.864
 2421POPC   C1A32775   1.251   8.152   8.564
 2421POPC   D2A32776   1.219   8.169   8.264
 2421POPC   C3A32777   1.207   8.164   7.964
 2421POPC   C4A32778   1.247   8.152   7.664
 2421POPC   C1B32779   1.157   8.438   8.564
 2421POPC   C2B32780   1.133   8.404   8.264
 2421POPC   C3B32781   1.140   8.424   7.964
 2421POPC   C4B32782   1.147   8.429   7.664
 2422POPC   NC332783  44.630   8.930   9.464
 2422POPC   PO432784  44.614   9.003   9.164
 2422POPC   GL132785  44.677   8.995   8.864
 2422POPC   GL232786  44.607   8.925   8.864
 2422POPC   C1A32787  44.673   8.968   8.564
 2422POPC   D2A32788  44.666   8.924   8.264
 2422POPC   C3A32789  44.706   8.990   7.964
 2422POPC   C4A32790  44.659   9.011   7.664
 2422POPC   C1B32791  44.495   8.765   8.564
 2422POPC   C2B32792  44.429   8.791   8.264
 2422POPC   C3B32793  44.443   8.811   7.964
 2422POPC   C4B32794  44.475   8.833   7.664
 2423POPC   NC332795  22.914  40.749   9.464
 2423POPC   PO432796  22.939  40.821   9.164
 2423POPC   GL132797  22.976  40.811   8.864
 2423POPC   GL232798  22.925  40.693   8.864
 2423POPC   C1A32799  22.958  40.817   8.564
 2423POPC   D2A32800  22.953  40.818   8.264
 2423POPC   C3A32801  22.949  40.740   7.964
 2423POPC   C4A32802  22.966  40.786   7.664
 2423POPC   C1B32803  22.846  40.599   8.564
 2423POPC   C2B32804  22.853  40.594   8.264
 2423POPC   C3B32805  22.838  40.586   7.964
 2423POPC   C4B32806  22.803  40.541   7.664
 2424POPC   NC332807   8.956  16.741   9.464
 2424POPC   PO432808   8.953  16.759   9.164
 2424POPC   GL132809   8.977  16.780   8.864
 2424POPC   GL232810   9.063  16.785   8.864
 2424POPC   C1A32811   8.932  16.728   8.564
 2424POPC   D2A32812   9.003  16.750   8.264
 2424POPC   C3A32813   8.942  16.730   7.964
 2424POPC   C4A32814   8.996  16.728   7.664
 2424POPC   C1B32815   9.222  16.786   8.564
 2424POPC   C2B32816   9.227  16.842   8.264
 2424POPC   C3B32817   9.246  16.848   7.964
 2424POPC   C4B32818   9.188  16.842   7.664
 2425POPC   NC332819  25.240  44.656   9.464
 2425POPC   PO432820  25.291  44.623   9.164
 2425POPC   GL132821  25.314  44.658   8.864
 2425POPC   GL232822  25.272  44.736   8.864
 2425POPC   C1A32823  25.273  44.674   8.564
 2425POPC   D2A32824  25.242  44.695   8.264
 2425POPC   C3A32825  25.271  44.641   7.964
 2425POPC   C4A32826  25.247  44.686   7.664
 2425POPC   C1B32827  25.362  44.921   8.564
 2425POPC   C2B32828  25.410  44.927   8.264
 2425POPC   C3B32829  25.384  44.911   7.964
 2425POPC   C4B32830  25.330  44.883   7.664
 2426POPC   NC332831  18.250  26.814   9.464
 2426POPC   PO432832  18.236  26.770   9.164
 2426POPC   GL132833  18.242  26.809   8.864
 2426POPC   GL232834  18.448  26.808   8.864
 2426POPC   C1A32835  18.280  26.841   8.564
 2426POPC   D2A32836  18.283  26.784   8.264
 2426POPC   C3A32837  18.318  26.788   7.964
 2426POPC   C4A32838  18.294  26.812   7.664
 2426POPC   C1B32839  18.485  26.758   8.564
 2426POPC   C2B32840  18.484  26.743   8.264
 2426POPC   C3B32841  18.561  26.733   7.964
 2426POPC   C4B32842  18.545  26.744   7.664
 2427POPC   NC332843  22.130  11.347   9.464
 2427POPC   PO432844  22.166  11.331   9.164
 2427POPC   GL132845  22.141  11.261   8.864
 2427POPC   GL232846  22.095  11.454   8.864
 2427POPC   C1A32847  22.151  11.273   8.564
 2427POPC   D2A32848  22.145  11.298   8.264
 2427POPC   C3A32849  22.130  11.309   7.964
 2427POPC   C4A32850  22.134  11.335   7.664
 2427POPC   C1B32851  22.040  11.558   8.564
 2427POPC   C2B32852  22.049  11.545   8.264
 2427POPC   C3B32853  22.004  11.544   7.964
 2427POPC   C4B32854  22.073  11.474   7.664
 2428POPC   NC332855  40.055  19.011   9.464
 2428POPC   PO432856  39.993  19.009   9.164
 2428POPC   GL132857  39.975  19.010   8.864
 2428POPC   GL232858  39.891  19.112   8.864
 2428POPC   C1A32859  40.045  19.037   8.564
 2428POPC   D2A32860  39.997  19.031   8.264
 2428POPC   C3A32861  39.969  19.028   7.964
 2428POPC   C4A32862  39.987  19.057   7.664
 2428POPC   C1B32863  39.872  19.303   8.564
 2428POPC   C2B32864  39.889  19.285   8.264
 2428POPC   C3B32865  39.875  19.242   7.964
 2428POPC   C4B32866  39.891  19.307   7.664
 2429POPC   NC332867  41.571  29.188   9.464
 2429POPC   PO432868  41.593  29.185   9.164
 2429POPC   GL132869  41.591  29.158   8.864
 2429POPC   GL232870  41.681  29.190   8.864
 2429POPC   C1A32871  41.587  29.136   8.564
 2429POPC   D2A32872  41.595  29.100   8.264
 2429POPC   C3A32873  41.598  29.113   7.964
 2429POPC   C4A32874  41.593  29.164   7.664
 2429POPC   C1B32875  41.790  29.301   8.564
 2429POPC   C2B32876  41.766  29.254   8.264
 2429POPC   C3B32877  41.802  29.263   7.964
 2429POPC   C4B32878  41.740  29.264   7.664
 2430POPC   NC332879  25.220  43.855   9.464
 2430POPC   PO432880  25.238  43.869   9.164
 2430POPC   GL132881  25.301  43.875   8.864
 2430POPC   GL232882  25.354  43.993   8.864
 2430POPC   C1A32883  25.268  43.885   8.564
 2430POPC   D2A32884  25.238  43.836   8.264
 2430POPC   C3A32885  25.238  43.843   7.964
 2430POPC   C4A32886  25.254  43.927   7.664
 2430POPC   C1B32887  25.433  44.105   8.564
 2430POPC   C2B32888  25.489  44.032   8.264
 2430POPC   C3B32889  25.452  44.076   7.964
 2430POPC   C4B32890  25.396  44.110   7.664
 2431POPC   NC332891  36.874   2.726   9.464
 2431POPC   PO432892  36.927   2.735   9.164
 2431POPC   GL132893  36.906   2.734   8.864
 2431POPC   GL232894  37.007   2.718   8.864
 2431POPC   C1A32895  36.861   2.804   8.564
 2431POPC   D2A32896  36.931   2.792   8.264
 2431POPC   C3A32897  36.944   2.718   7.964
 2431POPC   C4A32898  36.909   2.733   7.664
 2431POPC   C1B32899  37.095   2.673   8.564
 2431POPC   C2B32900  37.157   2.615   8.264
 2431POPC   C3B32901  37.082   2.621   7.964
 2431POPC   C4B32902  37.148   2.675   7.664
 2432POPC   NC332903  31.477  40.805   9.464
 2432POPC   PO432904  31.518  40.784   9.164
 2432POPC   GL132905  31.428  40.753   8.864
 2432POPC   GL232906  31.443  40.887   8.864
 2432POPC   C1A32907  31.452  40.776   8.564
 2432POPC   D2A32908  31.491  40.795   8.264
 2432POPC   C3A32909  31.459  40.734   7.964
 2432POPC   C4A32910  31.473  40.736   7.664
 2432POPC   C1B32911  31.358  41.036   8.564
 2432POPC   C2B32912  31.384  41.050   8.264
 2432POPC   C3B32913  31.439  40.996   7.964
 2432POPC   C4B32914  31.423  40.978   7.664
 2433POPC   NC332915  36.103   7.412   9.464
 2433POPC   PO432916  36.160   7.400   9.164
 2433POPC   GL132917  36.128   7.412   8.864
 2433POPC   GL232918  36.049   7.396   8.864
 2433POPC   C1A32919  36.100   7.392   8.564
 2433POPC   D2A32920  36.112   7.398   8.264
 2433POPC   C3A32921  36.091   7.456   7.964
 2433POPC   C4A32922  36.132   7.460   7.664
 2433POPC   C1B32923  35.919   7.307   8.564
 2433POPC   C2B32924  35.936   7.361   8.264
 2433POPC   C3B32925  35.905   7.377   7.964
 2433POPC   C4B32926  35.861   7.308   7.664
 2434POPC   NC332927   4.361   7.459   9.464
 2434POPC   PO432928   4.313   7.398   9.164
 2434POPC   GL132929   4.330   7.457   8.864
 2434POPC   GL232930   4.431   7.439   8.864
 2434POPC   C1A32931   4.360   7.465   8.564
 2434POPC   D2A32932   4.321   7.437   8.264
 2434POPC   C3A32933   4.346   7.390   7.964
 2434POPC   C4A32934   4.296   7.437   7.664
 2434POPC   C1B32935   4.575   7.556   8.564
 2434POPC   C2B32936   4.522   7.544   8.264
 2434POPC   C3B32937   4.535   7.503   7.964
 2434POPC   C4B32938   4.579   7.488   7.664
 2435POPC   NC332939  24.490  37.709   9.464
 2435POPC   PO432940  24.528  37.693   9.164
 2435POPC   GL132941  24.510  37.707   8.864
 2435POPC   GL232942  24.637  37.726   8.864
 2435POPC   C1A32943  24.470  37.679   8.564
 2435POPC   D2A32944  24.487  37.728   8.264
 2435POPC   C3A32945  24.461  37.648   7.964
 2435POPC   C4A32946  24.506  37.640   7.664
 2435POPC   C1B32947  24.738  37.839   8.564
 2435POPC   C2B32948  24.716  37.870   8.264
 2435POPC   C3B32949  24.710  37.787   7.964
 2435POPC   C4B32950  24.661  37.822   7.664
 2436POPC   NC332951  10.523  10.572   9.464
 2436POPC   PO432952  10.507  10.524   9.164
 2436POPC   GL132953  10.565  10.528   8.864
 2436POPC   GL232954  10.549  10.686   8.864
 2436POPC   C1A32955  10.488  10.527   8.564
 2436POPC   D2A32956  10.528  10.566   8.264
 2436POPC   C3A32957  10.574  10.546   7.964
 2436POPC   C4A32958  10.509  10.540   7.664
 2436POPC   C1B32959  10.492  10.756   8.564
 2436POPC   C2B32960  10.566  10.817   8.264
 2436POPC   C3B32961  10.536  10.764   7.964
 2436POPC   C4B32962  10.486  10.775   7.664
 2437POPC   NC332963  26.074  15.954   9.464
 2437POPC   PO432964  26.001  15.982   9.164
 2437POPC   GL132965  25.994  15.913   8.864
 2437POPC   GL232966  26.110  15.856   8.864
 2437POPC   C1A32967  26.050  15.921   8.564
 2437POPC   D2A32968  26.088  15.936   8.264
 2437POPC   C3A32969  26.072  16.004   7.964
 2437POPC   C4A32970  26.054  15.940   7.664
 2437POPC   C1B32971  26.172  15.753   8.564
 2437POPC   C2B32972  26.109  15.737   8.264
 2437POPC   C3B32973  26.091  15.681   7.964
 2437POPC   C4B32974  26.147  15.724   7.664
 2438POPC   NC332975  24.456  38.477   9.464
 2438POPC   PO432976  24.449  38.434   9.164
 2438POPC   GL132977  24.520  38.427   8.864
 2438POPC   GL232978  24.427  38.367   8.864
 2438POPC   C1A32979  24.515  38.439   8.564
 2438POPC   D2A32980  24.492  38.470   8.264
 2438POPC   C3A32981  24.494  38.456   7.964
 2438POPC   C4A32982  24.477  38.440   7.664
 2438POPC   C1B32983  24.313  38.336   8.564
 2438POPC   C2B32984  24.317  38.353   8.264
 2438POPC   C3B32985  24.223  38.335   7.964
 2438POPC   C4B32986  24.240  38.331   7.664
 2439POPC   NC332987  15.937   8.925   9.464
 2439POPC   PO432988  15.933   8.943   9.164
 2439POPC   GL132989  15.908   8.927   8.864
 2439POPC   GL232990  16.048   9.009   8.864
 2439POPC   C1A32991  15.996   8.968   8.564
 2439POPC   D2A32992  16.002   8.935   8.264
 2439POPC   C3A32993  15.917   8.941   7.964
 2439POPC   C4A32994  15.936   8.928   7.664
 2439POPC   C1B32995  16.195   9.053   8.564
 2439POPC   C2B32996  16.210   9.053   8.264
 2439POPC   C3B32997  16.131   9.071   7.964
 2439POPC   C4B32998  16.228   9.044   7.664
 2440POPC   NC332999  41.598  26.037   9.464
 2440POPC   PO433000  41.576  26.072   9.164
 2440POPC   GL133001  41.563  26.089   8.864
 2440POPC   GL233002  41.688  26.121   8.864
 2440POPC   C1A33003  41.575  25.994   8.564
 2440POPC   D2A33004  41.580  26.054   8.264
 2440POPC   C3A33005  41.604  26.076   7.964
 2440POPC   C4A33006  41.556  26.071   7.664
 2440POPC   C1B33007  41.691  26.231   8.564
 2440POPC   C2B33008  41.758  26.175   8.264
 2440POPC   C3B33009  41.758  26.254   7.964
 2440POPC   C4B33010  41.687  26.251   7.664
 2441POPC   NC333011  17.515  39.968   9.464
 2441POPC   PO433012  17.459  40.005   9.164
 2441POPC   GL133013  17.478  40.020   8.864
 2441POPC   GL233014  17.602  40.071   8.864
 2441POPC   C1A33015  17.550  39.974   8.564
 2441POPC   D2A33016  17.493  39.975   8.264
 2441POPC   C3A33017  17.485  40.046   7.964
 2441POPC   C4A33018  17.467  39.987   7.664
 2441POPC   C1B33019  17.678  40.225   8.564
 2441POPC   C2B33020  17.627  40.269   8.264
 2441POPC   C3B33021  17.594  40.265   7.964
 2441POPC   C4B33022  17.619  40.207   7.664
 2442POPC   NC333023  30.745  44.701   9.464
 2442POPC   PO433024  30.706  44.707   9.164
 2442POPC   GL133025  30.741  44.613   8.864
 2442POPC   GL233026  30.765  44.560   8.864
 2442POPC   C1A33027  30.692  44.707   8.564
 2442POPC   D2A33028  30.713  44.676   8.264
 2442POPC   C3A33029  30.744  44.629   7.964
 2442POPC   C4A33030  30.742  44.645   7.664
 2442POPC   C1B33031  30.921  44.558   8.564
 2442POPC   C2B33032  30.933  44.530   8.264
 2442POPC   C3B33033  30.899  44.520   7.964
 2442POPC   C4B33034  30.866  44.524   7.664
 2443POPC   NC333035  17.510  38.503   9.464
 2443POPC   PO433036  17.471  38.439   9.164
 2443POPC   GL133037  17.503  38.487   8.864
 2443POPC   GL233038  17.517  38.337   8.864
 2443POPC   C1A33039  17.540  38.488   8.564
 2443POPC   D2A33040  17.494  38.450   8.264
 2443POPC   C3A33041  17.468  38.420   7.964
 2443POPC   C4A33042  17.507  38.489   7.664
 2443POPC   C1B33043  17.612  38.264   8.564
 2443POPC   C2B33044  17.582  38.269   8.264
 2443POPC   C3B33045  17.572  38.252   7.964
 2443POPC   C4B33046  17.618  38.224   7.664
 2444POPC   NC333047  38.419  19.839   9.464
 2444POPC   PO433048  38.475  19.853   9.164
 2444POPC   GL133049  38.418  19.843   8.864
 2444POPC   GL233050  38.495  19.919   8.864
 2444POPC   C1A33051  38.431  19.874   8.564
 2444POPC   D2A33052  38.503  19.802   8.264
 2444POPC   C3A33053  38.444  19.799   7.964
 2444POPC   C4A33054  38.498  19.835   7.664
 2444POPC   C1B33055  38.602  20.072   8.564
 2444POPC   C2B33056  38.663  20.012   8.264
 2444POPC   C3B33057  38.659  20.027   7.964
 2444POPC   C4B33058  38.624  19.990   7.664
 2445POPC   NC333059   5.912  43.084   9.464
 2445POPC   PO433060   5.911  43.068   9.164
 2445POPC   GL133061   5.830  43.106   8.864
 2445POPC   GL233062   5.894  42.998   8.864
 2445POPC   C1A33063   5.878  43.063   8.564
 2445POPC   D2A33064   5.849  43.087   8.264
 2445POPC   C3A33065   5.905  43.075   7.964
 2445POPC   C4A33066   5.893  43.160   7.664
 2445POPC   C1B33067   5.950  42.872   8.564
 2445POPC   C2B33068   5.961  42.909   8.264
 2445POPC   C3B33069   5.958  42.884   7.964
 2445POPC   C4B33070   5.905  42.852   7.664
 2446POPC   NC333071  36.952   4.350   9.464
 2446POPC   PO433072  36.891   4.337   9.164
 2446POPC   GL133073  36.922   4.269   8.864
 2446POPC   GL233074  36.968   4.239   8.864
 2446POPC   C1A33075  36.885   4.280   8.564
 2446POPC   D2A33076  36.900   4.303   8.264
 2446POPC   C3A33077  36.862   4.268   7.964
 2446POPC   C4A33078  36.943   4.283   7.664
 2446POPC   C1B33079  37.150   4.202   8.564
 2446POPC   C2B33080  37.098   4.136   8.264
 2446POPC   C3B33081  37.085   4.218   7.964
 2446POPC   C4B33082  37.085   4.208   7.664
 2447POPC   NC333083   0.406  18.301   9.464
 2447POPC   PO433084   0.479  18.289   9.164
 2447POPC   GL133085   0.429  18.240   8.864
 2447POPC   GL233086   0.402  18.166   8.864
 2447POPC   C1A33087   0.392  18.283   8.564
 2447POPC   D2A33088   0.412  18.267   8.264
 2447POPC   C3A33089   0.419  18.276   7.964
 2447POPC   C4A33090   0.462  18.246   7.664
 2447POPC   C1B33091   0.384  18.016   8.564
 2447POPC   C2B33092   0.440  18.033   8.264
 2447POPC   C3B33093   0.428  17.992   7.964
 2447POPC   C4B33094   0.444  18.022   7.664
 2448POPC   NC333095  19.864  36.121   9.464
 2448POPC   PO433096  19.801  36.116   9.164
 2448POPC   GL133097  19.866  36.083   8.864
 2448POPC   GL233098  19.684  36.056   8.864
 2448POPC   C1A33099  19.812  36.126   8.564
 2448POPC   D2A33100  19.852  36.135   8.264
 2448POPC   C3A33101  19.851  36.170   7.964
 2448POPC   C4A33102  19.823  36.104   7.664
 2448POPC   C1B33103  19.575  36.074   8.564
 2448POPC   C2B33104  19.574  36.102   8.264
 2448POPC   C3B33105  19.608  36.105   7.964
 2448POPC   C4B33106  19.635  36.037   7.664
 2449POPC   NC333107  21.377  27.579   9.464
 2449POPC   PO433108  21.425  27.619   9.164
 2449POPC   GL133109  21.337  27.587   8.864
 2449POPC   GL233110  21.259  27.602   8.864
 2449POPC   C1A33111  21.352  27.558   8.564
 2449POPC   D2A33112  21.377  27.564   8.264
 2449POPC   C3A33113  21.358  27.623   7.964
 2449POPC   C4A33114  21.361  27.604   7.664
 2449POPC   C1B33115  21.135  27.562   8.564
 2449POPC   C2B33116  21.164  27.587   8.264
 2449POPC   C3B33117  21.105  27.625   7.964
 2449POPC   C4B33118  21.120  27.564   7.664
 2450POPC   NC333119  36.908   3.573   9.464
 2450POPC   PO433120  36.889   3.572   9.164
 2450POPC   GL133121  36.941   3.556   8.864
 2450POPC   GL233122  37.012   3.590   8.864
 2450POPC   C1A33123  36.930   3.575   8.564
 2450POPC   D2A33124  36.943   3.521   8.264
 2450POPC   C3A33125  36.888   3.533   7.964
 2450POPC   C4A33126  36.885   3.586   7.664
 2450POPC   C1B33127  37.054   3.737   8.564
 2450POPC   C2B33128  37.052   3.718   8.264
 2450POPC   C3B33129  37.115   3.683   7.964
 2450POPC   C4B33130  37.088   3.712   7.664
 2451POPC   NC333131   8.949   5.834   9.464
 2451POPC   PO433132   8.955   5.892   9.164
 2451POPC   GL133133   8.932   5.853   8.864
 2451POPC   GL233134   9.082   5.938   8.864
 2451POPC   C1A33135   8.978   5.858   8.564
 2451POPC   D2A33136   8.977   5.838   8.264
 2451POPC   C3A33137   9.007   5.875   7.964
 2451POPC   C4A33138   8.924   5.890   7.664
 2451POPC   C1B33139   9.191   6.054   8.564
 2451POPC   C2B33140   9.100   6.055   8.264
 2451POPC   C3B33141   9.100   6.017   7.964
 2451POPC   C4B33142   9.132   6.071   7.664
 2452POPC   NC333143  12.888  16.743   9.464
 2452POPC   PO433144  12.834  16.681   9.164
 2452POPC   GL133145  12.854  16.682   8.864
 2452POPC   GL233146  12.714  16.725   8.864
 2452POPC   C1A33147  12.856  16.694   8.564
 2452POPC   D2A33148  12.828  16.779   8.264
 2452POPC   C3A33149  12.813  16.767   7.964
 2452POPC   C4A33150  12.867  16.699   7.664
 2452POPC   C1B33151  12.594  16.726   8.564
 2452POPC   C2B33152  12.573  16.798   8.264
 2452POPC   C3B33153  12.609  16.745   7.964
 2452POPC   C4B33154  12.593  16.773   7.664
 2453POPC   NC333155   8.181  44.668   9.464
 2453POPC   PO433156   8.200  44.652   9.164
 2453POPC   GL133157   8.239  44.680   8.864
 2453POPC   GL233158   8.290  44.542   8.864
 2453POPC   C1A33159   8.238  44.645   8.564
 2453POPC   D2A33160   8.174  44.638   8.264
 2453POPC   C3A33161   8.241  44.679   7.964
 2453POPC   C4A33162   8.162  44.689   7.664
 2453POPC   C1B33163   8.356  44.508   8.564
 2453POPC   C2B33164   8.344  44.457   8.264
 2453POPC   C3B33165   8.427  44.470   7.964
 2453POPC   C4B33166   8.375  44.505   7.664
 2454POPC   NC333167  36.115  40.828   9.464
 2454POPC   PO433168  36.085  40.798   9.164
 2454POPC   GL133169  36.165  40.740   8.864
 2454POPC   GL233170  36.185  40.737   8.864
 2454POPC   C1A33171  36.127  40.755   8.564
 2454POPC   D2A33172  36.140  40.761   8.264
 2454POPC   C3A33173  36.174  40.773   7.964
 2454POPC   C4A33174  36.080  40.776   7.664
 2454POPC   C1B33175  36.347  40.620   8.564
 2454POPC   C2B33176  36.361  40.618   8.264
 2454POPC   C3B33177  36.378  40.627   7.964
 2454POPC   C4B33178  36.308  40.596   7.664
 2455POPC   NC333179  30.647  23.722   9.464
 2455POPC   PO433180  30.667  23.713   9.164
 2455POPC   GL133181  30.716  23.702   8.864
 2455POPC   GL233182  30.575  23.693   8.864
 2455POPC   C1A33183  30.721  23.670   8.564
 2455POPC   D2A33184  30.683  23.719   8.264
 2455POPC   C3A33185  30.697  23.757   7.964
 2455POPC   C4A33186  30.722  23.718   7.664
 2455POPC   C1B33187  30.493  23.744   8.564
 2455POPC   C2B33188  30.495  23.719   8.264
 2455POPC   C3B33189  30.418  23.765   7.964
 2455POPC   C4B33190  30.405  23.707   7.664
 2456POPC   NC333191  18.314  36.867   9.464
 2456POPC   PO433192  18.324  36.870   9.164
 2456POPC   GL133193  18.246  36.871   8.864
 2456POPC   GL233194  18.164  36.843   8.864
 2456POPC   C1A33195  18.304  36.868   8.564
 2456POPC   D2A33196  18.246  36.916   8.264
 2456POPC   C3A33197  18.242  36.905   7.964
 2456POPC   C4A33198  18.251  36.865   7.664
 2456POPC   C1B33199  18.083  36.875   8.564
 2456POPC   C2B33200  18.069  36.855   8.264
 2456POPC   C3B33201  18.015  36.779   7.964
 2456POPC   C4B33202  18.054  36.833   7.664
 2457POPC   NC333203  22.913  15.218   9.464
 2457POPC   PO433204  22.913  15.198   9.164
 2457POPC   GL133205  22.902  15.180   8.864
 2457POPC   GL233206  22.843  15.238   8.864
 2457POPC   C1A33207  22.917  15.142   8.564
 2457POPC   D2A33208  22.920  15.208   8.264
 2457POPC   C3A33209  22.891  15.190   7.964
 2457POPC   C4A33210  22.920  15.132   7.664
 2457POPC   C1B33211  22.700  15.294   8.564
 2457POPC   C2B33212  22.714  15.258   8.264
 2457POPC   C3B33213  22.709  15.305   7.964
 2457POPC   C4B33214  22.713  15.219   7.664
 2458POPC   NC333215  16.693  10.476   9.464
 2458POPC   PO433216  16.716  10.539   9.164
 2458POPC   GL133217  16.689  10.494   8.864
 2458POPC   GL233218  16.838  10.420   8.864
 2458POPC   C1A33219  16.730  10.506   8.564
 2458POPC   D2A33220  16.715  10.527   8.264
 2458POPC   C3A33221  16.764  10.553   7.964
 2458POPC   C4A33222  16.717  10.485   7.664
 2458POPC   C1B33223  16.953  10.394   8.564
 2458POPC   C2B33224  16.916  10.376   8.264
 2458POPC   C3B33225  16.913  10.359   7.964
 2458POPC   C4B33226  16.952  10.338   7.664
 2459POPC   NC333227  22.906  33.040   9.464
 2459POPC   PO433228  22.922  33.053   9.164
 2459POPC   GL133229  22.977  33.062   8.864
 2459POPC   GL233230  22.888  33.100   8.864
 2459POPC   C1A33231  22.893  33.047   8.564
 2459POPC   D2A33232  22.900  33.059   8.264
 2459POPC   C3A33233  22.934  33.019   7.964
 2459POPC   C4A33234  22.971  33.051   7.664
 2459POPC   C1B33235  22.896  33.291   8.564
 2459POPC   C2B33236  22.871  33.302   8.264
 2459POPC   C3B33237  22.868  33.305   7.964
 2459POPC   C4B33238  22.843  33.272   7.664
 2460POPC   NC333239   8.962   2.034   9.464
 2460POPC   PO433240   8.994   1.958   9.164
 2460POPC   GL133241   8.964   2.009   8.864
 2460POPC   GL233242   8.838   1.916   8.864
 2460POPC   C1A33243   9.006   2.016   8.564
 2460POPC   D2A33244   8.926   2.009   8.264
 2460POPC   C3A33245   8.955   1.947   7.964
 2460POPC   C4A33246   9.021   2.024   7.664
 2460POPC   C1B33247   8.780   1.795   8.564
 2460POPC   C2B33248   8.788   1.803   8.264
 2460POPC   C3B33249   8.780   1.778   7.964
 2460POPC   C4B33250   8.794   1.854   7.664
 2461POPC   NC333251   6.607  25.252   9.464
 2461POPC   PO433252   6.636  25.261   9.164
 2461POPC   GL133253   6.695  25.253   8.864
 2461POPC   GL233254   6.683  25.369   8.864
 2461POPC   C1A33255   6.618  25.271   8.564
 2461POPC   D2A33256   6.638  25.296   8.264
 2461POPC   C3A33257   6.640  25.291   7.964
 2461POPC   C4A33258   6.604  25.258   7.664
 2461POPC   C1B33259   6.623  25.559   8.564
 2461POPC   C2B33260   6.603  25.491   8.264
 2461POPC   C3B33261   6.622  25.508   7.964
 2461POPC   C4B33262   6.623  25.506   7.664
 2462POPC   NC333263  11.301  12.085   9.464
 2462POPC   PO433264  11.261  12.099   9.164
 2462POPC   GL133265  11.263  12.038   8.864
 2462POPC   GL233266  11.251  12.212   8.864
 2462POPC   C1A33267  11.347  12.104   8.564
 2462POPC   D2A33268  11.308  12.037   8.264
 2462POPC   C3A33269  11.276  12.124   7.964
 2462POPC   C4A33270  11.314  12.064   7.664
 2462POPC   C1B33271  11.241  12.328   8.564
 2462POPC   C2B33272  11.284  12.287   8.264
 2462POPC   C3B33273  11.261  12.343   7.964
 2462POPC   C4B33274  11.302  12.281   7.664
 2463POPC   NC333275  31.483  20.652   9.464
 2463POPC   PO433276  31.482  20.659   9.164
 2463POPC   GL133277  31.516  20.619   8.864
 2463POPC   GL233278  31.483  20.714   8.864
 2463POPC   C1A33279  31.473  20.566   8.564
 2463POPC   D2A33280  31.437  20.619   8.264
 2463POPC   C3A33281  31.437  20.608   7.964
 2463POPC   C4A33282  31.441  20.588   7.664
 2463POPC   C1B33283  31.479  20.817   8.564
 2463POPC   C2B33284  31.508  20.871   8.264
 2463POPC   C3B33285  31.490  20.866   7.964
 2463POPC   C4B33286  31.513  20.847   7.664
 2464POPC   NC333287   3.584   5.858   9.464
 2464POPC   PO433288   3.525   5.918   9.164
 2464POPC   GL133289   3.546   5.916   8.864
 2464POPC   GL233290   3.604   5.927   8.864
 2464POPC   C1A33291   3.533   5.906   8.564
 2464POPC   D2A33292   3.529   5.893   8.264
 2464POPC   C3A33293   3.549   5.873   7.964
 2464POPC   C4A33294   3.545   5.844   7.664
 2464POPC   C1B33295   3.737   6.001   8.564
 2464POPC   C2B33296   3.793   6.016   8.264
 2464POPC   C3B33297   3.720   6.027   7.964
 2464POPC   C4B33298   3.705   6.001   7.664
 2465POPC   NC333299   4.318  31.447   9.464
 2465POPC   PO433300   4.280  31.459   9.164
 2465POPC   GL133301   4.329  31.446   8.864
 2465POPC   GL233302   4.194  31.539   8.864
 2465POPC   C1A33303   4.301  31.459   8.564
 2465POPC   D2A33304   4.367  31.519   8.264
 2465POPC   C3A33305   4.313  31.476   7.964
 2465POPC   C4A33306   4.319  31.510   7.664
 2465POPC   C1B33307   4.135  31.682   8.564
 2465POPC   C2B33308   4.147  31.627   8.264
 2465POPC   C3B33309   4.160  31.652   7.964
 2465POPC   C4B33310   4.148  31.641   7.664
 2466POPC   NC333311   1.231  39.190   9.464
 2466POPC   PO433312   1.167  39.264   9.164
 2466POPC   GL133313   1.212  39.255   8.864
 2466POPC   GL233314   1.258  39.385   8.864
 2466POPC   C1A33315   1.184  39.252   8.564
 2466POPC   D2A33316   1.195  39.183   8.264
 2466POPC   C3A33317   1.238  39.272   7.964
 2466POPC   C4A33318   1.213  39.252   7.664
 2466POPC   C1B33319   1.299  39.460   8.564
 2466POPC   C2B33320   1.261  39.503   8.264
 2466POPC   C3B33321   1.312  39.486   7.964
 2466POPC   C4B33322   1.329  39.480   7.664
 2467POPC   NC333323   6.681  40.055   9.464
 2467POPC   PO433324   6.618  40.030   9.164
 2467POPC   GL133325   6.658  40.042   8.864
 2467POPC   GL233326   6.511  39.985   8.864
 2467POPC   C1A33327   6.648  40.000   8.564
 2467POPC   D2A33328   6.598  39.960   8.264
 2467POPC   C3A33329   6.665  40.038   7.964
 2467POPC   C4A33330   6.651  40.057   7.664
 2467POPC   C1B33331   6.370  39.942   8.564
 2467POPC   C2B33332   6.419  39.999   8.264
 2467POPC   C3B33333   6.380  39.956   7.964
 2467POPC   C4B33334   6.389  39.997   7.664
 2468POPC   NC333335  29.140  18.242   9.464
 2468POPC   PO433336  29.101  18.255   9.164
 2468POPC   GL133337  29.142  18.298   8.864
 2468POPC   GL233338  29.282  18.202   8.864
 2468POPC   C1A33339  29.193  18.321   8.564
 2468POPC   D2A33340  29.151  18.315   8.264
 2468POPC   C3A33341  29.179  18.312   7.964
 2468POPC   C4A33342  29.145  18.295   7.664
 2468POPC   C1B33343  29.354  18.156   8.564
 2468POPC   C2B33344  29.359  18.177   8.264
 2468POPC   C3B33345  29.349  18.182   7.964
 2468POPC   C4B33346  29.324  18.159   7.664
 2469POPC   NC333347  31.492   2.035   9.464
 2469POPC   PO433348  31.513   2.027   9.164
 2469POPC   GL133349  31.424   2.026   8.864
 2469POPC   GL233350  31.583   2.014   8.864
 2469POPC   C1A33351  31.495   1.987   8.564
 2469POPC   D2A33352  31.449   2.014   8.264
 2469POPC   C3A33353  31.470   2.011   7.964
 2469POPC   C4A33354  31.423   2.037   7.664
 2469POPC   C1B33355  31.753   2.102   8.564
 2469POPC   C2B33356  31.684   2.108   8.264
 2469POPC   C3B33357  31.701   2.123   7.964
 2469POPC   C4B33358  31.686   2.127   7.664
 2470POPC   NC333359  41.512  39.187   9.464
 2470POPC   PO433360  41.555  39.250   9.164
 2470POPC   GL133361  41.578  39.278   8.864
 2470POPC   GL233362  41.668  39.247   8.864
 2470POPC   C1A33363  41.589  39.210   8.564
 2470POPC   D2A33364  41.543  39.250   8.264
 2470POPC   C3A33365  41.574  39.184   7.964
 2470POPC   C4A33366  41.598  39.259   7.664
 2470POPC   C1B33367  41.760  39.333   8.564
 2470POPC   C2B33368  41.749  39.324   8.264
 2470POPC   C3B33369  41.758  39.388   7.964
 2470POPC   C4B33370  41.769  39.352   7.664
 2471POPC   NC333371   1.959  12.875   9.464
 2471POPC   PO433372   1.979  12.856   9.164
 2471POPC   GL133373   2.025  12.856   8.864
 2471POPC   GL233374   1.952  12.927   8.864
 2471POPC   C1A33375   1.984  12.817   8.564
 2471POPC   D2A33376   1.994  12.877   8.264
 2471POPC   C3A33377   2.033  12.868   7.964
 2471POPC   C4A33378   1.979  12.877   7.664
 2471POPC   C1B33379   1.886  13.043   8.564
 2471POPC   C2B33380   1.874  13.042   8.264
 2471POPC   C3B33381   1.805  13.047   7.964
 2471POPC   C4B33382   1.822  13.107   7.664
 2472POPC   NC333383  12.102  26.058   9.464
 2472POPC   PO433384  12.033  26.028   9.164
 2472POPC   GL133385  12.059  26.043   8.864
 2472POPC   GL233386  12.109  25.928   8.864
 2472POPC   C1A33387  12.082  26.086   8.564
 2472POPC   D2A33388  12.027  26.075   8.264
 2472POPC   C3A33389  12.059  25.997   7.964
 2472POPC   C4A33390  12.070  26.040   7.664
 2472POPC   C1B33391  12.274  25.861   8.564
 2472POPC   C2B33392  12.221  25.829   8.264
 2472POPC   C3B33393  12.245  25.841   7.964
 2472POPC   C4B33394  12.198  25.863   7.664
 2473POPC   NC333395  36.148  11.316   9.464
 2473POPC   PO433396  36.107  11.306   9.164
 2473POPC   GL133397  36.119  11.317   8.864
 2473POPC   GL233398  35.964  11.296   8.864
 2473POPC   C1A33399  36.174  11.284   8.564
 2473POPC   D2A33400  36.104  11.306   8.264
 2473POPC   C3A33401  36.164  11.339   7.964
 2473POPC   C4A33402  36.156  11.326   7.664
 2473POPC   C1B33403  35.879  11.193   8.564
 2473POPC   C2B33404  35.867  11.202   8.264
 2473POPC   C3B33405  35.878  11.162   7.964
 2473POPC   C4B33406  35.933  11.197   7.664
 2474POPC   NC333407  11.269   3.520   9.464
 2474POPC   PO433408  11.342   3.508   9.164
 2474POPC   GL133409  11.266   3.567   8.864
 2474POPC   GL233410  11.191   3.555   8.864
 2474POPC   C1A33411  11.327   3.525   8.564
 2474POPC   D2A33412  11.318   3.552   8.264
 2474POPC   C3A33413  11.264   3.545   7.964
 2474POPC   C4A33414  11.271   3.523   7.664
 2474POPC   C1B33415  11.087   3.561   8.564
 2474POPC   C2B33416  11.033   3.529   8.264
 2474POPC   C3B33417  11.038   3.610   7.964
 2474POPC   C4B33418  11.035   3.604   7.664
 2475POPC   NC333419  16.688  17.514   9.464
 2475POPC   PO433420  16.740  17.513   9.164
 2475POPC   GL133421  16.710  17.528   8.864
 2475POPC   GL233422  16.680  17.356   8.864
 2475POPC   C1A33423  16.709  17.543   8.564
 2475POPC   D2A33424  16.756  17.470   8.264
 2475POPC   C3A33425  16.694  17.522   7.964
 2475POPC   C4A33426  16.708  17.508   7.664
 2475POPC   C1B33427  16.731  17.280   8.564
 2475POPC   C2B33428  16.719  17.306   8.264
 2475POPC   C3B33429  16.735  17.269   7.964
 2475POPC   C4B33430  16.696  17.217   7.664
 2476POPC   NC333431  23.756  16.762   9.464
 2476POPC   PO433432  23.710  16.735   9.164
 2476POPC   GL133433  23.677  16.741   8.864
 2476POPC   GL233434  23.631  16.715   8.864
 2476POPC   C1A33435  23.703  16.692   8.564
 2476POPC   D2A33436  23.707  16.728   8.264
 2476POPC   C3A33437  23.719  16.774   7.964
 2476POPC   C4A33438  23.742  16.743   7.664
 2476POPC   C1B33439  23.429  16.766   8.564
 2476POPC   C2B33440  23.502  16.782   8.264
 2476POPC   C3B33441  23.460  16.810   7.964
 2476POPC   C4B33442  23.465  16.838   7.664
 2477POPC   NC333443  15.950  40.007   9.464
 2477POPC   PO433444  15.926  40.013   9.164
 2477POPC   GL133445  15.983  40.011   8.864
 2477POPC   GL233446  15.927  39.851   8.864
 2477POPC   C1A33447  15.932  40.024   8.564
 2477POPC   D2A33448  15.940  39.964   8.264
 2477POPC   C3A33449  15.923  39.992   7.964
 2477POPC   C4A33450  15.941  39.967   7.664
 2477POPC   C1B33451  15.809  39.834   8.564
 2477POPC   C2B33452  15.872  39.828   8.264
 2477POPC   C3B33453  15.795  39.744   7.964
 2477POPC   C4B33454  15.840  39.811   7.664
 2478POPC   NC333455  37.652  17.512   9.464
 2478POPC   PO433456  37.633  17.474   9.164
 2478POPC   GL133457  37.681  17.515   8.864
 2478POPC   GL233458  37.616  17.385   8.864
 2478POPC   C1A33459  37.658  17.534   8.564
 2478POPC   D2A33460  37.637  17.545   8.264
 2478POPC   C3A33461  37.726  17.535   7.964
 2478POPC   C4A33462  37.654  17.551   7.664
 2478POPC   C1B33463  37.589  17.293   8.564
 2478POPC   C2B33464  37.502  17.344   8.264
 2478POPC   C3B33465  37.541  17.326   7.964
 2478POPC   C4B33466  37.565  17.272   7.664
 2479POPC   NC333467   1.969  35.368   9.464
 2479POPC   PO433468   2.026  35.399   9.164
 2479POPC   GL133469   1.969  35.337   8.864
 2479POPC   GL233470   1.855  35.382   8.864
 2479POPC   C1A33471   2.025  35.399   8.564
 2479POPC   D2A33472   1.991  35.328   8.264
 2479POPC   C3A33473   1.993  35.362   7.964
 2479POPC   C4A33474   2.022  35.396   7.664
 2479POPC   C1B33475   1.737  35.419   8.564
 2479POPC   C2B33476   1.775  35.443   8.264
 2479POPC   C3B33477   1.740  35.369   7.964
 2479POPC   C4B33478   1.737  35.413   7.664
 2480POPC   NC333479  36.872  10.515   9.464
 2480POPC   PO433480  36.950  10.569   9.164
 2480POPC   GL133481  36.908  10.573   8.864
 2480POPC   GL233482  36.894  10.363   8.864
 2480POPC   C1A33483  36.933  10.537   8.564
 2480POPC   D2A33484  36.886  10.536   8.264
 2480POPC   C3A33485  36.874  10.512   7.964
 2480POPC   C4A33486  36.873  10.484   7.664
 2480POPC   C1B33487  36.881  10.321   8.564
 2480POPC   C2B33488  36.935  10.325   8.264
 2480POPC   C3B33489  36.930  10.318   7.964
 2480POPC   C4B33490  36.958  10.281   7.664
 2481POPC   NC333491  36.904  36.087   9.464
 2481POPC   PO433492  36.922  36.126   9.164
 2481POPC   GL133493  36.919  36.113   8.864
 2481POPC   GL233494  36.875  36.014   8.864
 2481POPC   C1A33495  36.939  36.147   8.564
 2481POPC   D2A33496  36.915  36.142   8.264
 2481POPC   C3A33497  36.890  36.117   7.964
 2481POPC   C4A33498  36.932  36.111   7.664
 2481POPC   C1B33499  36.777  35.905   8.564
 2481POPC   C2B33500  36.722  35.914   8.264
 2481POPC   C3B33501  36.752  35.943   7.964
 2481POPC   C4B33502  36.722  35.881   7.664
 2482POPC   NC333503  10.570  26.040   9.464
 2482POPC   PO433504  10.475  26.039   9.164
 2482POPC   GL133505  10.486  26.024   8.864
 2482POPC   GL233506  10.469  25.943   8.864
 2482POPC   C1A33507  10.542  26.087   8.564
 2482POPC   D2A33508  10.487  26.077   8.264
 2482POPC   C3A33509  10.565  26.021   7.964
 2482POPC   C4A33510  10.543  26.024   7.664
 2482POPC   C1B33511  10.444  25.822   8.564
 2482POPC   C2B33512  10.488  25.802   8.264
 2482POPC   C3B33513  10.528  25.774   7.964
 2482POPC   C4B33514  10.483  25.812   7.664
 2483POPC   NC333515  20.579  38.420   9.464
 2483POPC   PO433516  20.607  38.468   9.164
 2483POPC   GL133517  20.660  38.415   8.864
 2483POPC   GL233518  20.500  38.404   8.864
 2483POPC   C1A33519  20.654  38.421   8.564
 2483POPC   D2A33520  20.595  38.435   8.264
 2483POPC   C3A33521  20.629  38.454   7.964
 2483POPC   C4A33522  20.658  38.465   7.664
 2483POPC   C1B33523  20.462  38.248   8.564
 2483POPC   C2B33524  20.449  38.241   8.264
 2483POPC   C3B33525  20.446  38.320   7.964
 2483POPC   C4B33526  20.480  38.273   7.664
 2484POPC   NC333527  18.262  44.668   9.464
 2484POPC   PO433528  18.233  44.619   9.164
 2484POPC   GL133529  18.312  44.698   8.864
 2484POPC   GL233530  18.207  44.757   8.864
 2484POPC   C1A33531  18.300  44.712   8.564
 2484POPC   D2A33532  18.298  44.704   8.264
 2484POPC   C3A33533  18.286  44.693   7.964
 2484POPC   C4A33534  18.332  44.645   7.664
 2484POPC   C1B33535  18.140  44.863   8.564
 2484POPC   C2B33536  18.096  44.897   8.264
 2484POPC   C3B33537  18.179  44.887   7.964
 2484POPC   C4B33538  18.085  44.883   7.664
 2485POPC   NC333539  40.761  15.945   9.464
 2485POPC   PO433540  40.787  15.978   9.164
 2485POPC   GL133541  40.789  15.914   8.864
 2485POPC   GL233542  40.897  15.943   8.864
 2485POPC   C1A33543  40.768  15.925   8.564
 2485POPC   D2A33544  40.753  16.000   8.264
 2485POPC   C3A33545  40.814  15.971   7.964
 2485POPC   C4A33546  40.791  15.965   7.664
 2485POPC   C1B33547  40.999  15.853   8.564
 2485POPC   C2B33548  41.041  15.896   8.264
 2485POPC   C3B33549  41.016  15.882   7.964
 2485POPC   C4B33550  40.997  15.871   7.664
 2486POPC   NC333551  38.495  17.500   9.464
 2486POPC   PO433552  38.453  17.514   9.164
 2486POPC   GL133553  38.420  17.489   8.864
 2486POPC   GL233554  38.329  17.569   8.864
 2486POPC   C1A33555  38.486  17.485   8.564
 2486POPC   D2A33556  38.449  17.462   8.264
 2486POPC   C3A33557  38.431  17.470   7.964
 2486POPC   C4A33558  38.460  17.506   7.664
 2486POPC   C1B33559  38.260  17.594   8.564
 2486POPC   C2B33560  38.177  17.601   8.264
 2486POPC   C3B33561  38.213  17.627   7.964
 2486POPC   C4B33562  38.186  17.613   7.664
 2487POPC   NC333563  28.361  41.568   9.464
 2487POPC   PO433564  28.391  41.545   9.164
 2487POPC   GL133565  28.397  41.597   8.864
 2487POPC   GL233566  28.384  41.475   8.864
 2487POPC   C1A33567  28.337  41.529   8.564
 2487POPC   D2A33568  28.400  41.558   8.264
 2487POPC   C3A33569  28.381  41.558   7.964
 2487POPC   C4A33570  28.364  41.557   7.664
 2487POPC   C1B33571  28.381  41.335   8.564
 2487POPC   C2B33572  28.445  41.364   8.264
 2487POPC   C3B33573  28.422  41.362   7.964
 2487POPC   C4B33574  28.424  41.283   7.664
 2488POPC   NC333575  33.812  10.525   9.464
 2488POPC   PO433576  33.756  10.566   9.164
 2488POPC   GL133577  33.780  10.481   8.864
 2488POPC   GL233578  33.897  10.481   8.864
 2488POPC   C1A33579  33.818  10.507   8.564
 2488POPC   D2A33580  33.843  10.528   8.264
 2488POPC   C3A33581  33.802  10.493   7.964
 2488POPC   C4A33582  33.833  10.560   7.664
 2488POPC   C1B33583  34.085  10.465   8.564
 2488POPC   C2B33584  34.086  10.426   8.264
 2488POPC   C3B33585  34.043  10.471   7.964
 2488POPC   C4B33586  34.089  10.469   7.664
 2489POPC   NC333587  40.049  26.049   9.464
 2489POPC   PO433588  40.003  26.012   9.164
 2489POPC   GL133589  40.035  26.036   8.864
 2489POPC   GL233590  39.889  25.898   8.864
 2489POPC   C1A33591  39.970  26.031   8.564
 2489POPC   D2A33592  40.019  25.998   8.264
 2489POPC   C3A33593  40.048  26.077   7.964
 2489POPC   C4A33594  39.969  26.091   7.664
 2489POPC   C1B33595  39.838  25.888   8.564
 2489POPC   C2B33596  39.814  25.876   8.264
 2489POPC   C3B33597  39.811  25.814   7.964
 2489POPC   C4B33598  39.893  25.816   7.664
 2490POPC   NC333599  19.797  43.083   9.464
 2490POPC   PO433600  19.834  43.123   9.164
 2490POPC   GL133601  19.789  43.079   8.864
 2490POPC   GL233602  19.722  43.096   8.864
 2490POPC   C1A33603  19.839  43.119   8.564
 2490POPC   D2A33604  19.849  43.068   8.264
 2490POPC   C3A33605  19.815  43.093   7.964
 2490POPC   C4A33606  19.841  43.067   7.664
 2490POPC   C1B33607  19.579  43.144   8.564
 2490POPC   C2B33608  19.634  43.070   8.264
 2490POPC   C3B33609  19.556  43.126   7.964
 2490POPC   C4B33610  19.548  43.114   7.664
 2491POPC   NC333611   2.770  27.566   9.464
 2491POPC   PO433612   2.762  27.575   9.164
 2491POPC   GL133613   2.815  27.579   8.864
 2491POPC   GL233614   2.892  27.448   8.864
 2491POPC   C1A33615   2.751  27.572   8.564
 2491POPC   D2A33616   2.755  27.556   8.264
 2491POPC   C3A33617   2.721  27.608   7.964
 2491POPC   C4A33618   2.777  27.617   7.664
 2491POPC   C1B33619   2.887  27.375   8.564
 2491POPC   C2B33620   2.897  27.355   8.264
 2491POPC   C3B33621   2.968  27.412   7.964
 2491POPC   C4B33622   2.914  27.392   7.664
 2492POPC   NC333623  40.023  15.985   9.464
 2492POPC   PO433624  40.026  15.994   9.164
 2492POPC   GL133625  40.003  15.977   8.864
 2492POPC   GL233626  40.049  16.049   8.864
 2492POPC   C1A33627  40.034  15.983   8.564
 2492POPC   D2A33628  39.974  15.954   8.264
 2492POPC   C3A33629  40.050  15.909   7.964
 2492POPC   C4A33630  39.976  15.959   7.664
 2492POPC   C1B33631  40.141  16.182   8.564
 2492POPC   C2B33632  40.153  16.141   8.264
 2492POPC   C3B33633  40.181  16.131   7.964
 2492POPC   C4B33634  40.134  16.185   7.664
 2493POPC   NC333635  22.164  37.727   9.464
 2493POPC   PO433636  22.157  37.674   9.164
 2493POPC   GL133637  22.198  37.714   8.864
 2493POPC   GL233638  22.036  37.790   8.864
 2493POPC   C1A33639  22.143  37.715   8.564
 2493POPC   D2A33640  22.203  37.710   8.264
 2493POPC   C3A33641  22.177  37.645   7.964
 2493POPC   C4A33642  22.185  37.720   7.664
 2493POPC   C1B33643  21.998  37.887   8.564
 2493POPC   C2B33644  22.016  37.814   8.264
 2493POPC   C3B33645  21.965  37.909   7.964
 2493POPC   C4B33646  21.984  37.903   7.664
 2494POPC   NC333647  10.507  31.425   9.464
 2494POPC   PO433648  10.552  31.481   9.164
 2494POPC   GL133649  10.491  31.500   8.864
 2494POPC   GL233650  10.619  31.409   8.864
 2494POPC   C1A33651  10.509  31.512   8.564
 2494POPC   D2A33652  10.512  31.492   8.264
 2494POPC   C3A33653  10.485  31.489   7.964
 2494POPC   C4A33654  10.561  31.461   7.664
 2494POPC   C1B33655  10.732  31.366   8.564
 2494POPC   C2B33656  10.783  31.365   8.264
 2494POPC   C3B33657  10.713  31.404   7.964
 2494POPC   C4B33658  10.805  31.351   7.664
 2495POPC   NC333659  19.876  10.486   9.464
 2495POPC   PO433660  19.788  10.542   9.164
 2495POPC   GL133661  19.816  10.546   8.864
 2495POPC   GL233662  19.888  10.423   8.864
 2495POPC   C1A33663  19.865  10.487   8.564
 2495POPC   D2A33664  19.873  10.507   8.264
 2495POPC   C3A33665  19.853  10.556   7.964
 2495POPC   C4A33666  19.830  10.513   7.664
 2495POPC   C1B33667  19.988  10.330   8.564
 2495POPC   C2B33668  20.012  10.356   8.264
 2495POPC   C3B33669  19.973  10.357   7.964
 2495POPC   C4B33670  20.019  10.352   7.664
 2496POPC   NC333671  18.325  39.989   9.464
 2496POPC   PO433672  18.247  40.023   9.164
 2496POPC   GL133673  18.321  39.971   8.864
 2496POPC   GL233674  18.170  39.915   8.864
 2496POPC   C1A33675  18.293  40.036   8.564
 2496POPC   D2A33676  18.322  40.002   8.264
 2496POPC   C3A33677  18.306  39.961   7.964
 2496POPC   C4A33678  18.308  39.962   7.664
 2496POPC   C1B33679  18.167  39.843   8.564
 2496POPC   C2B33680  18.175  39.842   8.264
 2496POPC   C3B33681  18.100  39.842   7.964
 2496POPC   C4B33682  18.186  39.820   7.664
 2497POPC   NC333683  30.673   1.976   9.464
 2497POPC   PO433684  30.654   2.024   9.164
 2497POPC   GL133685  30.682   2.003   8.864
 2497POPC   GL233686  30.722   2.149   8.864
 2497POPC   C1A33687  30.651   1.984   8.564
 2497POPC   D2A33688  30.705   2.000   8.264
 2497POPC   C3A33689  30.653   1.948   7.964
 2497POPC   C4A33690  30.723   2.038   7.664
 2497POPC   C1B33691  30.778   2.202   8.564
 2497POPC   C2B33692  30.862   2.191   8.264
 2497POPC   C3B33693  30.849   2.164   7.964
 2497POPC   C4B33694  30.767   2.188   7.664
 2498POPC   NC333695  36.939  28.391   9.464
 2498POPC   PO433696  36.860  28.359   9.164
 2498POPC   GL133697  36.869  28.323   8.864
 2498POPC   GL233698  36.774  28.446   8.864
 2498POPC   C1A33699  36.916  28.408   8.564
 2498POPC   D2A33700  36.878  28.394   8.264
 2498POPC   C3A33701  36.868  28.408   7.964
 2498POPC   C4A33702  36.937  28.392   7.664
 2498POPC   C1B33703  36.678  28.503   8.564
 2498POPC   C2B33704  36.725  28.468   8.264
 2498POPC   C3B33705  36.638  28.486   7.964
 2498POPC   C4B33706  36.709  28.483   7.664
 2499POPC   NC333707  22.207  16.702   9.464
 2499POPC   PO433708  22.117  16.704   9.164
 2499POPC   GL133709  22.193  16.711   8.864
 2499POPC   GL233710  22.155  16.588   8.864
 2499POPC   C1A33711  22.123  16.765   8.564
 2499POPC   D2A33712  22.211  16.718   8.264
 2499POPC   C3A33713  22.172  16.712   7.964
 2499POPC   C4A33714  22.186  16.739   7.664
 2499POPC   C1B33715  22.040  16.522   8.564
 2499POPC   C2B33716  22.132  16.524   8.264
 2499POPC   C3B33717  22.091  16.533   7.964
 2499POPC   C4B33718  22.066  16.503   7.664
 2500POPC   NC333719  27.628   5.083   9.464
 2500POPC   PO433720  27.606   5.129   9.164
 2500POPC   GL133721  27.623   5.096   8.864
 2500POPC   GL233722  27.523   5.029   8.864
 2500POPC   C1A33723  27.593   5.101   8.564
 2500POPC   D2A33724  27.607   5.143   8.264
 2500POPC   C3A33725  27.582   5.062   7.964
 2500POPC   C4A33726  27.580   5.126   7.664
 2500POPC   C1B33727  27.354   4.963   8.564
 2500POPC   C2B33728  27.384   5.004   8.264
 2500POPC   C3B33729  27.311   4.979   7.964
 2500POPC   C4B33730  27.391   4.999   7.664
 2501POPC   NC333731  12.112  36.085   9.464
 2501POPC   PO433732  12.067  36.097   9.164
 2501POPC   GL133733  12.039  36.135   8.864
 2501POPC   GL233734  11.931  36.185   8.864
 2501POPC   C1A33735  12.027  36.150   8.564
 2501POPC   D2A33736  12.099  36.123   8.264
 2501POPC   C3A33737  12.121  36.130   7.964
 2501POPC   C4A33738  12.090  36.177   7.664
 2501POPC   C1B33739  11.837  36.190   8.564
 2501POPC   C2B33740  11.851  36.194   8.264
 2501POPC   C3B33741  11.818  36.175   7.964
 2501POPC   C4B33742  11.818  36.127   7.664
 2502POPC   NC333743  21.353  36.917   9.464
 2502POPC   PO433744  21.416  36.937   9.164
 2502POPC   GL133745  21.340  36.941   8.864
 2502POPC   GL233746  21.435  37.055   8.864
 2502POPC   C1A33747  21.345  36.905   8.564
 2502POPC   D2A33748  21.393  36.900   8.264
 2502POPC   C3A33749  21.400  36.901   7.964
 2502POPC   C4A33750  21.419  36.873   7.664
 2502POPC   C1B33751  21.450  37.102   8.564
 2502POPC   C2B33752  21.424  37.183   8.264
 2502POPC   C3B33753  21.435  37.155   7.964
 2502POPC   C4B33754  21.420  37.187   7.664
 2503POPC   NC333755  16.766  12.111   9.464
 2503POPC   PO433756  16.757  12.117   9.164
 2503POPC   GL133757  16.774  12.111   8.864
 2503POPC   GL233758  16.700  12.169   8.864
 2503POPC   C1A33759  16.744  12.123   8.564
 2503POPC   D2A33760  16.695  12.070   8.264
 2503POPC   C3A33761  16.781  12.043   7.964
 2503POPC   C4A33762  16.697  12.060   7.664
 2503POPC   C1B33763  16.595  12.253   8.564
 2503POPC   C2B33764  16.599  12.298   8.264
 2503POPC   C3B33765  16.567  12.266   7.964
 2503POPC   C4B33766  16.643  12.323   7.664
 2504POPC   NC333767  18.293  12.887   9.464
 2504POPC   PO433768  18.275  12.892   9.164
 2504POPC   GL133769  18.234  12.885   8.864
 2504POPC   GL233770  18.431  12.948   8.864
 2504POPC   C1A33771  18.287  12.858   8.564
 2504POPC   D2A33772  18.236  12.887   8.264
 2504POPC   C3A33773  18.281  12.848   7.964
 2504POPC   C4A33774  18.287  12.832   7.664
 2504POPC   C1B33775  18.499  12.981   8.564
 2504POPC   C2B33776  18.453  12.945   8.264
 2504POPC   C3B33777  18.549  12.935   7.964
 2504POPC   C4B33778  18.481  13.018   7.664
 2505POPC   NC333779  37.685   5.053   9.464
 2505POPC   PO433780  37.659   5.121   9.164
 2505POPC   GL133781  37.716   5.117   8.864
 2505POPC   GL233782  37.609   5.013   8.864
 2505POPC   C1A33783  37.653   5.075   8.564
 2505POPC   D2A33784  37.650   5.078   8.264
 2505POPC   C3A33785  37.684   5.077   7.964
 2505POPC   C4A33786  37.676   5.113   7.664
 2505POPC   C1B33787  37.440   4.943   8.564
 2505POPC   C2B33788  37.427   4.934   8.264
 2505POPC   C3B33789  37.500   4.977   7.964
 2505POPC   C4B33790  37.445   4.969   7.664
 2506POPC   NC333791  22.124  26.039   9.464
 2506POPC   PO433792  22.206  25.994   9.164
 2506POPC   GL133793  22.151  26.029   8.864
 2506POPC   GL233794  22.047  25.950   8.864
 2506POPC   C1A33795  22.209  26.074   8.564
 2506POPC   D2A33796  22.192  26.085   8.264
 2506POPC   C3A33797  22.199  26.004   7.964
 2506POPC   C4A33798  22.174  26.025   7.664
 2506POPC   C1B33799  21.957  25.800   8.564
 2506POPC   C2B33800  22.019  25.831   8.264
 2506POPC   C3B33801  21.996  25.891   7.964
 2506POPC   C4B33802  21.963  25.865   7.664
 2507POPC   NC333803  39.221  28.401   9.464
 2507POPC   PO433804  39.246  28.405   9.164
 2507POPC   GL133805  39.182  28.403   8.864
 2507POPC   GL233806  39.141  28.314   8.864
 2507POPC   C1A33807  39.263  28.337   8.564
 2507POPC   D2A33808  39.202  28.336   8.264
 2507POPC   C3A33809  39.279  28.400   7.964
 2507POPC   C4A33810  39.210  28.361   7.664
 2507POPC   C1B33811  39.061  28.177   8.564
 2507POPC   C2B33812  38.994  28.248   8.264
 2507POPC   C3B33813  39.050  28.212   7.964
 2507POPC   C4B33814  39.027  28.158   7.664
 2508POPC   NC333815  21.430  26.008   9.464
 2508POPC   PO433816  21.348  26.019   9.164
 2508POPC   GL133817  21.364  26.041   8.864
 2508POPC   GL233818  21.495  26.108   8.864
 2508POPC   C1A33819  21.339  25.996   8.564
 2508POPC   D2A33820  21.371  25.997   8.264
 2508POPC   C3A33821  21.423  26.063   7.964
 2508POPC   C4A33822  21.366  26.006   7.664
 2508POPC   C1B33823  21.591  26.137   8.564
 2508POPC   C2B33824  21.621  26.220   8.264
 2508POPC   C3B33825  21.634  26.173   7.964
 2508POPC   C4B33826  21.637  26.151   7.664
 2509POPC   NC333827  13.664  36.946   9.464
 2509POPC   PO433828  13.603  36.900   9.164
 2509POPC   GL133829  13.650  36.918   8.864
 2509POPC   GL233830  13.612  37.011   8.864
 2509POPC   C1A33831  13.634  36.903   8.564
 2509POPC   D2A33832  13.664  36.904   8.264
 2509POPC   C3A33833  13.604  36.863   7.964
 2509POPC   C4A33834  13.663  36.920   7.664
 2509POPC   C1B33835  13.616  37.137   8.564
 2509POPC   C2B33836  13.560  37.125   8.264
 2509POPC   C3B33837  13.628  37.142   7.964
 2509POPC   C4B33838  13.561  37.176   7.664
 2510POPC   NC333839  42.328  15.176   9.464
 2510POPC   PO433840  42.312  15.196   9.164
 2510POPC   GL133841  42.365  15.213   8.864
 2510POPC   GL233842  42.436  15.221   8.864
 2510POPC   C1A33843  42.352  15.153   8.564
 2510POPC   D2A33844  42.342  15.137   8.264
 2510POPC   C3A33845  42.323  15.171   7.964
 2510POPC   C4A33846  42.355  15.141   7.664
 2510POPC   C1B33847  42.529  15.290   8.564
 2510POPC   C2B33848  42.569  15.302   8.264
 2510POPC   C3B33849  42.572  15.205   7.964
 2510POPC   C4B33850  42.605  15.264   7.664
 2511POPC   NC333851  14.377   8.180   9.464
 2511POPC   PO433852  14.425   8.227   9.164
 2511POPC   GL133853  14.370   8.196   8.864
 2511POPC   GL233854  14.460   8.286   8.864
 2511POPC   C1A33855  14.421   8.176   8.564
 2511POPC   D2A33856  14.404   8.203   8.264
 2511POPC   C3A33857  14.375   8.242   7.964
 2511POPC   C4A33858  14.450   8.191   7.664
 2511POPC   C1B33859  14.549   8.348   8.564
 2511POPC   C2B33860  14.570   8.313   8.264
 2511POPC   C3B33861  14.569   8.378   7.964
 2511POPC   C4B33862  14.636   8.411   7.664
 2512POPC   NC333863  15.187  22.118   9.464
 2512POPC   PO433864  15.145  22.150   9.164
 2512POPC   GL133865  15.178  22.138   8.864
 2512POPC   GL233866  15.135  22.305   8.864
 2512POPC   C1A33867  15.221  22.171   8.564
 2512POPC   D2A33868  15.139  22.146   8.264
 2512POPC   C3A33869  15.160  22.209   7.964
 2512POPC   C4A33870  15.216  22.153   7.664
 2512POPC   C1B33871  15.097  22.388   8.564
 2512POPC   C2B33872  15.043  22.377   8.264
 2512POPC   C3B33873  15.049  22.440   7.964
 2512POPC   C4B33874  15.071  22.410   7.664
 2513POPC   NC333875  39.209  37.652   9.464
 2513POPC   PO433876  39.242  37.641   9.164
 2513POPC   GL133877  39.256  37.651   8.864
 2513POPC   GL233878  39.327  37.687   8.864
 2513POPC   C1A33879  39.261  37.720   8.564
 2513POPC   D2A33880  39.221  37.720   8.264
 2513POPC   C3A33881  39.189  37.697   7.964
 2513POPC   C4A33882  39.227  37.691   7.664
 2513POPC   C1B33883  39.418  37.827   8.564
 2513POPC   C2B33884  39.453  37.780   8.264
 2513POPC   C3B33885  39.416  37.829   7.964
 2513POPC   C4B33886  39.494  37.779   7.664
 2514POPC   NC333887  22.156  36.867   9.464
 2514POPC   PO433888  22.129  36.904   9.164
 2514POPC   GL133889  22.131  36.885   8.864
 2514POPC   GL233890  22.178  36.979   8.864
 2514POPC   C1A33891  22.144  36.870   8.564
 2514POPC   D2A33892  22.169  36.879   8.264
 2514POPC   C3A33893  22.145  36.928   7.964
 2514POPC   C4A33894  22.189  36.930   7.664
 2514POPC   C1B33895  22.224  37.158   8.564
 2514POPC   C2B33896  22.232  37.124   8.264
 2514POPC   C3B33897  22.217  37.164   7.964
 2514POPC   C4B33898  22.279  37.144   7.664
 2515POPC   NC333899   5.062   1.193   9.464
 2515POPC   PO433900   5.071   1.235   9.164
 2515POPC   GL133901   5.123   1.175   8.864
 2515POPC   GL233902   4.966   1.239   8.864
 2515POPC   C1A33903   5.127   1.202   8.564
 2515POPC   D2A33904   5.125   1.211   8.264
 2515POPC   C3A33905   5.084   1.246   7.964
 2515POPC   C4A33906   5.137   1.247   7.664
 2515POPC   C1B33907   4.864   1.268   8.564
 2515POPC   C2B33908   4.881   1.338   8.264
 2515POPC   C3B33909   4.842   1.305   7.964
 2515POPC   C4B33910   4.826   1.295   7.664
 2516POPC   NC333911  40.753  14.410   9.464
 2516POPC   PO433912  40.806  14.369   9.164
 2516POPC   GL133913  40.820  14.407   8.864
 2516POPC   GL233914  40.860  14.313   8.864
 2516POPC   C1A33915  40.809  14.441   8.564
 2516POPC   D2A33916  40.760  14.401   8.264
 2516POPC   C3A33917  40.826  14.357   7.964
 2516POPC   C4A33918  40.827  14.359   7.664
 2516POPC   C1B33919  40.992  14.228   8.564
 2516POPC   C2B33920  41.016  14.204   8.264
 2516POPC   C3B33921  40.948  14.212   7.964
 2516POPC   C4B33922  40.926  14.198   7.664
 2517POPC   NC333923  29.906   1.944   9.464
 2517POPC   PO433924  29.876   2.039   9.164
 2517POPC   GL133925  29.938   1.995   8.864
 2517POPC   GL233926  29.809   1.917   8.864
 2517POPC   C1A33927  29.908   1.994   8.564
 2517POPC   D2A33928  29.947   2.015   8.264
 2517POPC   C3A33929  29.883   1.999   7.964
 2517POPC   C4A33930  29.908   2.038   7.664
 2517POPC   C1B33931  29.676   1.807   8.564
 2517POPC   C2B33932  29.740   1.892   8.264
 2517POPC   C3B33933  29.661   1.817   7.964
 2517POPC   C4B33934  29.676   1.867   7.664
 2518POPC   NC333935  41.523  20.631   9.464
 2518POPC   PO433936  41.549  20.606   9.164
 2518POPC   GL133937  41.578  20.570   8.864
 2518POPC   GL233938  41.700  20.620   8.864
 2518POPC   C1A33939  41.608  20.573   8.564
 2518POPC   D2A33940  41.552  20.607   8.264
 2518POPC   C3A33941  41.541  20.565   7.964
 2518POPC   C4A33942  41.578  20.653   7.664
 2518POPC   C1B33943  41.855  20.684   8.564
 2518POPC   C2B33944  41.803  20.661   8.264
 2518POPC   C3B33945  41.833  20.605   7.964
 2518POPC   C4B33946  41.779  20.696   7.664
 2519POPC   NC333947  22.160  31.519   9.464
 2519POPC   PO433948  22.195  31.514   9.164
 2519POPC   GL133949  22.153  31.512   8.864
 2519POPC   GL233950  22.108  31.377   8.864
 2519POPC   C1A33951  22.129  31.464   8.564
 2519POPC   D2A33952  22.139  31.513   8.264
 2519POPC   C3A33953  22.135  31.502   7.964
 2519POPC   C4A33954  22.160  31.470   7.664
 2519POPC   C1B33955  22.131  31.235   8.564
 2519POPC   C2B33956  22.065  31.229   8.264
 2519POPC   C3B33957  22.107  31.255   7.964
 2519POPC   C4B33958  22.120  31.213   7.664
 2520POPC   NC333959  34.557  13.655   9.464
 2520POPC   PO433960  34.564  13.650   9.164
 2520POPC   GL133961  34.530  13.612   8.864
 2520POPC   GL233962  34.559  13.699   8.864
 2520POPC   C1A33963  34.532  13.588   8.564
 2520POPC   D2A33964  34.554  13.645   8.264
 2520POPC   C3A33965  34.561  13.620   7.964
 2520POPC   C4A33966  34.619  13.625   7.664
 2520POPC   C1B33967  34.465  13.851   8.564
 2520POPC   C2B33968  34.450  13.846   8.264
 2520POPC   C3B33969  34.535  13.861   7.964
 2520POPC   C4B33970  34.486  13.900   7.664
 2521POPC   NC333971  19.820  18.276   9.464
 2521POPC   PO433972  19.800  18.306   9.164
 2521POPC   GL133973  19.838  18.262   8.864
 2521POPC   GL233974  19.906  18.164   8.864
 2521POPC   C1A33975  19.816  18.284   8.564
 2521POPC   D2A33976  19.798  18.275   8.264
 2521POPC   C3A33977  19.815  18.263   7.964
 2521POPC   C4A33978  19.864  18.251   7.664
 2521POPC   C1B33979  19.936  18.121   8.564
 2521POPC   C2B33980  20.003  18.043   8.264
 2521POPC   C3B33981  19.959  18.101   7.964
 2521POPC   C4B33982  19.948  18.118   7.664
 2522POPC   NC333983  30.743  19.877   9.464
 2522POPC   PO433984  30.743  19.878   9.164
 2522POPC   GL133985  30.682  19.819   8.864
 2522POPC   GL233986  30.718  19.967   8.864
 2522POPC   C1A33987  30.714  19.814   8.564
 2522POPC   D2A33988  30.691  19.790   8.264
 2522POPC   C3A33989  30.655  19.863   7.964
 2522POPC   C4A33990  30.667  19.837   7.664
 2522POPC   C1B33991  30.725  20.061   8.564
 2522POPC   C2B33992  30.714  20.112   8.264
 2522POPC   C3B33993  30.726  20.035   7.964
 2522POPC   C4B33994  30.739  20.110   7.664
 2523POPC   NC333995   8.227  29.123   9.464
 2523POPC   PO433996   8.238  29.141   9.164
 2523POPC   GL133997   8.157  29.132   8.864
 2523POPC   GL233998   8.255  29.273   8.864
 2523POPC   C1A33999   8.185  29.104   8.564
 2523POPC   D2A34000   8.148  29.180   8.264
 2523POPC   C3A34001   8.165  29.189   7.964
 2523POPC   C4A34002   8.194  29.156   7.664
 2523POPC   C1B34003   8.418  29.355   8.564
 2523POPC   C2B34004   8.374  29.373   8.264
 2523POPC   C3B34005   8.379  29.310   7.964
 2523POPC   C4B34006   8.340  29.313   7.664
 2524POPC   NC334007  31.449  12.826   9.464
 2524POPC   PO434008  31.440  12.878   9.164
 2524POPC   GL134009  31.453  12.836   8.864
 2524POPC   GL234010  31.529  12.770   8.864
 2524POPC   C1A34011  31.487  12.820   8.564
 2524POPC   D2A34012  31.440  12.824   8.264
 2524POPC   C3A34013  31.454  12.849   7.964
 2524POPC   C4A34014  31.474  12.826   7.664
 2524POPC   C1B34015  31.602  12.602   8.564
 2524POPC   C2B34016  31.655  12.647   8.264
 2524POPC   C3B34017  31.619  12.632   7.964
 2524POPC   C4B34018  31.579  12.663   7.664
 2525POPC   NC334019  11.268  42.302   9.464
 2525POPC   PO434020  11.333  42.374   9.164
 2525POPC   GL134021  11.331  42.289   8.864
 2525POPC   GL234022  11.425  42.409   8.864
 2525POPC   C1A34023  11.257  42.308   8.564
 2525POPC   D2A34024  11.338  42.378   8.264
 2525POPC   C3A34025  11.322  42.293   7.964
 2525POPC   C4A34026  11.321  42.335   7.664
 2525POPC   C1B34027  11.467  42.495   8.564
 2525POPC   C2B34028  11.523  42.428   8.264
 2525POPC   C3B34029  11.540  42.481   7.964
 2525POPC   C4B34030  11.526  42.417   7.664
 2526POPC   NC334031   9.784  15.156   9.464
 2526POPC   PO434032   9.704  15.199   9.164
 2526POPC   GL134033   9.699  15.134   8.864
 2526POPC   GL234034   9.854  15.095   8.864
 2526POPC   C1A34035   9.722  15.196   8.564
 2526POPC   D2A34036   9.775  15.203   8.264
 2526POPC   C3A34037   9.753  15.215   7.964
 2526POPC   C4A34038   9.792  15.158   7.664
 2526POPC   C1B34039   9.940  15.088   8.564
 2526POPC   C2B34040  10.027  15.119   8.264
 2526POPC   C3B34041  10.007  15.052   7.964
 2526POPC   C4B34042  10.012  15.116   7.664
 2527POPC   NC334043  38.489  10.572   9.464
 2527POPC   PO434044  38.484  10.526   9.164
 2527POPC   GL134045  38.470  10.536   8.864
 2527POPC   GL234046  38.375  10.416   8.864
 2527POPC   C1A34047  38.422  10.502   8.564
 2527POPC   D2A34048  38.427  10.556   8.264
 2527POPC   C3A34049  38.451  10.519   7.964
 2527POPC   C4A34050  38.454  10.480   7.664
 2527POPC   C1B34051  38.216  10.385   8.564
 2527POPC   C2B34052  38.264  10.348   8.264
 2527POPC   C3B34053  38.205  10.339   7.964
 2527POPC   C4B34054  38.289  10.384   7.664
 2528POPC   NC334055  36.104   5.131   9.464
 2528POPC   PO434056  36.131   5.118   9.164
 2528POPC   GL134057  36.105   5.132   8.864
 2528POPC   GL234058  36.051   5.036   8.864
 2528POPC   C1A34059  36.150   5.091   8.564
 2528POPC   D2A34060  36.103   5.075   8.264
 2528POPC   C3A34061  36.099   5.115   7.964
 2528POPC   C4A34062  36.111   5.130   7.664
 2528POPC   C1B34063  35.877   4.913   8.564
 2528POPC   C2B34064  35.914   4.983   8.264
 2528POPC   C3B34065  35.914   5.003   7.964
 2528POPC   C4B34066  35.905   4.986   7.664
 2529POPC   NC334067  10.559   1.218   9.464
 2529POPC   PO434068  10.502   1.225   9.164
 2529POPC   GL134069  10.499   1.204   8.864
 2529POPC   GL234070  10.502   1.302   8.864
 2529POPC   C1A34071  10.563   1.187   8.564
 2529POPC   D2A34072  10.548   1.256   8.264
 2529POPC   C3A34073  10.545   1.197   7.964
 2529POPC   C4A34074  10.484   1.256   7.664
 2529POPC   C1B34075  10.418   1.445   8.564
 2529POPC   C2B34076  10.482   1.448   8.264
 2529POPC   C3B34077  10.492   1.463   7.964
 2529POPC   C4B34078  10.462   1.485   7.664
 2530POPC   NC334079  11.288  43.075   9.464
 2530POPC   PO434080  11.295  43.128   9.164
 2530POPC   GL134081  11.343  43.090   8.864
 2530POPC   GL234082  11.168  43.059   8.864
 2530POPC   C1A34083  11.294  43.084   8.564
 2530POPC   D2A34084  11.254  43.122   8.264
 2530POPC   C3A34085  11.332  43.066   7.964
 2530POPC   C4A34086  11.288  43.145   7.664
 2530POPC   C1B34087  11.074  43.013   8.564
 2530POPC   C2B34088  11.097  42.967   8.264
 2530POPC   C3B34089  11.080  43.020   7.964
 2530POPC   C4B34090  11.130  42.952   7.664
 2531POPC   NC334091   2.767  30.671   9.464
 2531POPC   PO434092   2.776  30.704   9.164
 2531POPC   GL134093   2.801  30.718   8.864
 2531POPC   GL234094   2.724  30.604   8.864
 2531POPC   C1A34095   2.813  30.705   8.564
 2531POPC   D2A34096   2.809  30.723   8.264
 2531POPC   C3A34097   2.774  30.688   7.964
 2531POPC   C4A34098   2.786  30.696   7.664
 2531POPC   C1B34099   2.596  30.503   8.564
 2531POPC   C2B34100   2.596  30.498   8.264
 2531POPC   C3B34101   2.588  30.446   7.964
 2531POPC   C4B34102   2.683  30.485   7.664
 2532POPC   NC334103  17.525  19.870   9.464
 2532POPC   PO434104  17.482  19.815   9.164
 2532POPC   GL134105  17.538  19.820   8.864
 2532POPC   GL234106  17.533  19.717   8.864
 2532POPC   C1A34107  17.468  19.785   8.564
 2532POPC   D2A34108  17.548  19.792   8.264
 2532POPC   C3A34109  17.493  19.877   7.964
 2532POPC   C4A34110  17.537  19.857   7.664
 2532POPC   C1B34111  17.573  19.586   8.564
 2532POPC   C2B34112  17.613  19.636   8.264
 2532POPC   C3B34113  17.632  19.611   7.964
 2532POPC   C4B34114  17.629  19.579   7.664
 2533POPC   NC334115  42.347  12.820   9.464
 2533POPC   PO434116  42.298  12.855   9.164
 2533POPC   GL134117  42.373  12.805   8.864
 2533POPC   GL234118  42.205  12.756   8.864
 2533POPC   C1A34119  42.291  12.824   8.564
 2533POPC   D2A34120  42.334  12.841   8.264
 2533POPC   C3A34121  42.362  12.834   7.964
 2533POPC   C4A34122  42.350  12.841   7.664
 2533POPC   C1B34123  42.106  12.793   8.564
 2533POPC   C2B34124  42.094  12.734   8.264
 2533POPC   C3B34125  42.126  12.747   7.964
 2533POPC   C4B34126  42.122  12.788   7.664
 2534POPC   NC334127   2.746  29.143   9.464
 2534POPC   PO434128   2.746  29.167   9.164
 2534POPC   GL134129   2.814  29.188   8.864
 2534POPC   GL234130   2.834  29.034   8.864
 2534POPC   C1A34131   2.805  29.171   8.564
 2534POPC   D2A34132   2.765  29.154   8.264
 2534POPC   C3A34133   2.740  29.152   7.964
 2534POPC   C4A34134   2.750  29.187   7.664
 2534POPC   C1B34135   2.827  28.901   8.564
 2534POPC   C2B34136   2.835  28.870   8.264
 2534POPC   C3B34137   2.855  28.948   7.964
 2534POPC   C4B34138   2.883  28.889   7.664
 2535POPC   NC334139  19.068  18.234   9.464
 2535POPC   PO434140  19.096  18.251   9.164
 2535POPC   GL134141  19.016  18.312   8.864
 2535POPC   GL234142  19.219  18.317   8.864
 2535POPC   C1A34143  19.042  18.267   8.564
 2535POPC   D2A34144  19.042  18.287   8.264
 2535POPC   C3A34145  19.107  18.281   7.964
 2535POPC   C4A34146  19.104  18.285   7.664
 2535POPC   C1B34147  19.324  18.368   8.564
 2535POPC   C2B34148  19.304  18.382   8.264
 2535POPC   C3B34149  19.279  18.437   7.964
 2535POPC   C4B34150  19.321  18.387   7.664
 2536POPC   NC334151  34.545   2.735   9.464
 2536POPC   PO434152  34.615   2.760   9.164
 2536POPC   GL134153  34.537   2.736   8.864
 2536POPC   GL234154  34.610   2.899   8.864
 2536POPC   C1A34155  34.610   2.791   8.564
 2536POPC   D2A34156  34.622   2.717   8.264
 2536POPC   C3A34157  34.572   2.815   7.964
 2536POPC   C4A34158  34.622   2.781   7.664
 2536POPC   C1B34159  34.554   3.034   8.564
 2536POPC   C2B34160  34.515   2.983   8.264
 2536POPC   C3B34161  34.608   3.010   7.964
 2536POPC   C4B34162  34.571   3.059   7.664
 2537POPC   NC334163  19.809   2.775   9.464
 2537POPC   PO434164  19.815   2.749   9.164
 2537POPC   GL134165  19.830   2.789   8.864
 2537POPC   GL234166  19.975   2.773   8.864
 2537POPC   C1A34167  19.863   2.727   8.564
 2537POPC   D2A34168  19.836   2.796   8.264
 2537POPC   C3A34169  19.791   2.750   7.964
 2537POPC   C4A34170  19.826   2.728   7.664
 2537POPC   C1B34171  20.075   2.877   8.564
 2537POPC   C2B34172  20.057   2.873   8.264
 2537POPC   C3B34173  20.028   2.894   7.964
 2537POPC   C4B34174  20.015   2.872   7.664
 2538POPC   NC334175  31.431  43.901   9.464
 2538POPC   PO434176  31.436  43.926   9.164
 2538POPC   GL134177  31.506  43.853   8.864
 2538POPC   GL234178  31.518  43.797   8.864
 2538POPC   C1A34179  31.494  43.849   8.564
 2538POPC   D2A34180  31.482  43.894   8.264
 2538POPC   C3A34181  31.423  43.877   7.964
 2538POPC   C4A34182  31.473  43.860   7.664
 2538POPC   C1B34183  31.475  43.604   8.564
 2538POPC   C2B34184  31.506  43.661   8.264
 2538POPC   C3B34185  31.549  43.625   7.964
 2538POPC   C4B34186  31.473  43.623   7.664
 2539POPC   NC334187  15.152  42.364   9.464
 2539POPC   PO434188  15.177  42.348   9.164
 2539POPC   GL134189  15.170  42.329   8.864
 2539POPC   GL234190  15.134  42.187   8.864
 2539POPC   C1A34191  15.206  42.352   8.564
 2539POPC   D2A34192  15.144  42.315   8.264
 2539POPC   C3A34193  15.137  42.383   7.964
 2539POPC   C4A34194  15.164  42.344   7.664
 2539POPC   C1B34195  15.025  42.105   8.564
 2539POPC   C2B34196  15.100  42.160   8.264
 2539POPC   C3B34197  15.023  42.136   7.964
 2539POPC   C4B34198  15.037  42.122   7.664
 2540POPC   NC334199  22.123  29.928   9.464
 2540POPC   PO434200  22.139  29.873   9.164
 2540POPC   GL134201  22.157  29.913   8.864
 2540POPC   GL234202  22.078  29.983   8.864
 2540POPC   C1A34203  22.152  29.953   8.564
 2540POPC   D2A34204  22.132  29.942   8.264
 2540POPC   C3A34205  22.193  29.921   7.964
 2540POPC   C4A34206  22.177  29.902   7.664
 2540POPC   C1B34207  21.929  29.961   8.564
 2540POPC   C2B34208  21.939  29.935   8.264
 2540POPC   C3B34209  21.935  29.976   7.964
 2540POPC   C4B34210  21.946  29.967   7.664
 2541POPC   NC334211  23.759  33.826   9.464
 2541POPC   PO434212  23.669  33.825   9.164
 2541POPC   GL134213  23.686  33.812   8.864
 2541POPC   GL234214  23.635  33.888   8.864
 2541POPC   C1A34215  23.688  33.839   8.564
 2541POPC   D2A34216  23.716  33.824   8.264
 2541POPC   C3A34217  23.703  33.806   7.964
 2541POPC   C4A34218  23.682  33.781   7.664
 2541POPC   C1B34219  23.532  33.946   8.564
 2541POPC   C2B34220  23.488  33.936   8.264
 2541POPC   C3B34221  23.524  33.984   7.964
 2541POPC   C4B34222  23.511  33.913   7.664
 2542POPC   NC334223  32.297   1.218   9.464
 2542POPC   PO434224  32.222   1.199   9.164
 2542POPC   GL134225  32.225   1.184   8.864
 2542POPC   GL234226  32.350   1.197   8.864
 2542POPC   C1A34227  32.272   1.261   8.564
 2542POPC   D2A34228  32.238   1.202   8.264
 2542POPC   C3A34229  32.253   1.212   7.964
 2542POPC   C4A34230  32.202   1.165   7.664
 2542POPC   C1B34231  32.449   1.157   8.564
 2542POPC   C2B34232  32.515   1.113   8.264
 2542POPC   C3B34233  32.520   1.168   7.964
 2542POPC   C4B34234  32.482   1.147   7.664
 2543POPC   NC334235  29.934   5.082   9.464
 2543POPC   PO434236  29.959   5.136   9.164
 2543POPC   GL134237  29.892   5.054   8.864
 2543POPC   GL234238  29.837   5.051   8.864
 2543POPC   C1A34239  29.920   5.117   8.564
 2543POPC   D2A34240  29.907   5.095   8.264
 2543POPC   C3A34241  29.878   5.077   7.964
 2543POPC   C4A34242  29.952   5.056   7.664
 2543POPC   C1B34243  29.747   4.944   8.564
 2543POPC   C2B34244  29.667   4.937   8.264
 2543POPC   C3B34245  29.723   4.929   7.964
 2543POPC   C4B34246  29.725   5.015   7.664
 2544POPC   NC334247  42.303  24.457   9.464
 2544POPC   PO434248  42.310  24.539   9.164
 2544POPC   GL134249  42.363  24.529   8.864
 2544POPC   GL234250  42.285  24.654   8.864
 2544POPC   C1A34251  42.289  24.505   8.564
 2544POPC   D2A34252  42.353  24.508   8.264
 2544POPC   C3A34253  42.363  24.492   7.964
 2544POPC   C4A34254  42.286  24.481   7.664
 2544POPC   C1B34255  42.266  24.735   8.564
 2544POPC   C2B34256  42.307  24.698   8.264
 2544POPC   C3B34257  42.304  24.719   7.964
 2544POPC   C4B34258  42.304  24.756   7.664
 2545POPC   NC334259  18.296  19.061   9.464
 2545POPC   PO434260  18.304  19.102   9.164
 2545POPC   GL134261  18.282  19.089   8.864
 2545POPC   GL234262  18.355  19.215   8.864
 2545POPC   C1A34263  18.261  19.060   8.564
 2545POPC   D2A34264  18.243  19.015   8.264
 2545POPC   C3A34265  18.243  19.010   7.964
 2545POPC   C4A34266  18.256  19.107   7.664
 2545POPC   C1B34267  18.354  19.315   8.564
 2545POPC   C2B34268  18.305  19.303   8.264
 2545POPC   C3B34269  18.324  19.319   7.964
 2545POPC   C4B34270  18.368  19.291   7.664
 2546POPC   NC334271   9.775  36.916   9.464
 2546POPC   PO434272   9.760  36.923   9.164
 2546POPC   GL134273   9.752  36.878   8.864
 2546POPC   GL234274   9.716  36.977   8.864
 2546POPC   C1A34275   9.758  36.948   8.564
 2546POPC   D2A34276   9.746  36.901   8.264
 2546POPC   C3A34277   9.795  36.889   7.964
 2546POPC   C4A34278   9.719  36.905   7.664
 2546POPC   C1B34279   9.730  37.144   8.564
 2546POPC   C2B34280   9.690  37.156   8.264
 2546POPC   C3B34281   9.729  37.187   7.964
 2546POPC   C4B34282   9.678  37.105   7.664
 2547POPC   NC334283  33.812   9.713   9.464
 2547POPC   PO434284  33.829   9.748   9.164
 2547POPC   GL134285  33.754   9.744   8.864
 2547POPC   GL234286  33.910   9.896   8.864
 2547POPC   C1A34287  33.784   9.726   8.564
 2547POPC   D2A34288  33.796   9.789   8.264
 2547POPC   C3A34289  33.757   9.735   7.964
 2547POPC   C4A34290  33.754   9.782   7.664
 2547POPC   C1B34291  33.902   9.905   8.564
 2547POPC   C2B34292  33.895   9.906   8.264
 2547POPC   C3B34293  33.898   9.965   7.964
 2547POPC   C4B34294  33.908   9.993   7.664
 2548POPC   NC334295  10.554  28.394   9.464
 2548POPC   PO434296  10.481  28.397   9.164
 2548POPC   GL134297  10.566  28.393   8.864
 2548POPC   GL234298  10.605  28.237   8.864
 2548POPC   C1A34299  10.517  28.412   8.564
 2548POPC   D2A34300  10.512  28.370   8.264
 2548POPC   C3A34301  10.528  28.409   7.964
 2548POPC   C4A34302  10.487  28.342   7.664
 2548POPC   C1B34303  10.639  28.110   8.564
 2548POPC   C2B34304  10.631  28.176   8.264
 2548POPC   C3B34305  10.653  28.106   7.964
 2548POPC   C4B34306  10.658  28.113   7.664
 2549POPC   NC334307   0.462  32.992   9.464
 2549POPC   PO434308   0.402  33.074   9.164
 2549POPC   GL134309   0.391  32.977   8.864
 2549POPC   GL234310   0.423  33.122   8.864
 2549POPC   C1A34311   0.407  33.065   8.564
 2549POPC   D2A34312   0.424  33.026   8.264
 2549POPC   C3A34313   0.459  33.055   7.964
 2549POPC   C4A34314   0.422  33.058   7.664
 2549POPC   C1B34315   0.300  33.278   8.564
 2549POPC   C2B34316   0.325  33.305   8.264
 2549POPC   C3B34317   0.329  33.238   7.964
 2549POPC   C4B34318   0.367  33.282   7.664
 2550POPC   NC334319  34.611  12.061   9.464
 2550POPC   PO434320  34.539  12.072   9.164
 2550POPC   GL134321  34.550  12.065   8.864
 2550POPC   GL234322  34.527  11.933   8.864
 2550POPC   C1A34323  34.541  12.071   8.564
 2550POPC   D2A34324  34.562  12.088   8.264
 2550POPC   C3A34325  34.560  12.042   7.964
 2550POPC   C4A34326  34.601  12.072   7.664
 2550POPC   C1B34327  34.428  11.899   8.564
 2550POPC   C2B34328  34.431  11.810   8.264
 2550POPC   C3B34329  34.466  11.838   7.964
 2550POPC   C4B34330  34.431  11.827   7.664
 2551POPC   NC334331  35.393  43.902   9.464
 2551POPC   PO434332  35.304  43.914   9.164
 2551POPC   GL134333  35.354  43.913   8.864
 2551POPC   GL234334  35.350  43.747   8.864
 2551POPC   C1A34335  35.370  43.887   8.564
 2551POPC   D2A34336  35.326  43.874   8.264
 2551POPC   C3A34337  35.381  43.899   7.964
 2551POPC   C4A34338  35.381  43.922   7.664
 2551POPC   C1B34339  35.354  43.655   8.564
 2551POPC   C2B34340  35.363  43.682   8.264
 2551POPC   C3B34341  35.314  43.670   7.964
 2551POPC   C4B34342  35.356  43.684   7.664
 2552POPC   NC334343   0.402  15.219   9.464
 2552POPC   PO434344   0.473  15.139   9.164
 2552POPC   GL134345   0.393  15.146   8.864
 2552POPC   GL234346   0.289  15.160   8.864
 2552POPC   C1A34347   0.412  15.195   8.564
 2552POPC   D2A34348   0.436  15.182   8.264
 2552POPC   C3A34349   0.450  15.151   7.964
 2552POPC   C4A34350   0.444  15.144   7.664
 2552POPC   C1B34351   0.187  15.059   8.564
 2552POPC   C2B34352   0.194  15.054   8.264
 2552POPC   C3B34353   0.166  15.107   7.964
 2552POPC   C4B34354   0.251  15.021   7.664
 2553POPC   NC334355  34.584   3.494   9.464
 2553POPC   PO434356  34.592   3.588   9.164
 2553POPC   GL134357  34.533   3.542   8.864
 2553POPC   GL234358  34.656   3.480   8.864
 2553POPC   C1A34359  34.576   3.514   8.564
 2553POPC   D2A34360  34.529   3.569   8.264
 2553POPC   C3A34361  34.571   3.567   7.964
 2553POPC   C4A34362  34.567   3.506   7.664
 2553POPC   C1B34363  34.799   3.399   8.564
 2553POPC   C2B34364  34.722   3.404   8.264
 2553POPC   C3B34365  34.746   3.408   7.964
 2553POPC   C4B34366  34.760   3.332   7.664
 2554POPC   NC334367  15.179  18.234   9.464
 2554POPC   PO434368  15.190  18.318   9.164
 2554POPC   GL134369  15.168  18.267   8.864
 2554POPC   GL234370  15.262  18.326   8.864
 2554POPC   C1A34371  15.167  18.279   8.564
 2554POPC   D2A34372  15.164  18.289   8.264
 2554POPC   C3A34373  15.194  18.244   7.964
 2554POPC   C4A34374  15.132  18.267   7.664
 2554POPC   C1B34375  15.396  18.249   8.564
 2554POPC   C2B34376  15.478  18.305   8.264
 2554POPC   C3B34377  15.396  18.312   7.964
 2554POPC   C4B34378  15.472  18.235   7.664
 2555POPC   NC334379   1.972   1.219   9.464
 2555POPC   PO434380   2.016   1.219   9.164
 2555POPC   GL134381   2.034   1.222   8.864
 2555POPC   GL234382   1.955   1.344   8.864
 2555POPC   C1A34383   2.016   1.192   8.564
 2555POPC   D2A34384   1.976   1.215   8.264
 2555POPC   C3A34385   1.978   1.223   7.964
 2555POPC   C4A34386   2.014   1.255   7.664
 2555POPC   C1B34387   1.923   1.414   8.564
 2555POPC   C2B34388   1.894   1.458   8.264
 2555POPC   C3B34389   1.880   1.447   7.964
 2555POPC   C4B34390   1.871   1.446   7.664
 2556POPC   NC334391  32.266  27.573   9.464
 2556POPC   PO434392  32.293  27.614   9.164
 2556POPC   GL134393  32.263  27.636   8.864
 2556POPC   GL234394  32.273  27.768   8.864
 2556POPC   C1A34395  32.205  27.590   8.564
 2556POPC   D2A34396  32.234  27.552   8.264
 2556POPC   C3A34397  32.265  27.619   7.964
 2556POPC   C4A34398  32.200  27.614   7.664
 2556POPC   C1B34399  32.188  27.794   8.564
 2556POPC   C2B34400  32.209  27.812   8.264
 2556POPC   C3B34401  32.267  27.883   7.964
 2556POPC   C4B34402  32.211  27.828   7.664
 2557POPC   NC334403   0.467  40.789   9.464
 2557POPC   PO434404   0.425  40.808   9.164
 2557POPC   GL134405   0.485  40.778   8.864
 2557POPC   GL234406   0.282  40.806   8.864
 2557POPC   C1A34407   0.408  40.749   8.564
 2557POPC   D2A34408   0.397  40.748   8.264
 2557POPC   C3A34409   0.469  40.793   7.964
 2557POPC   C4A34410   0.429  40.782   7.664
 2557POPC   C1B34411   0.177  40.909   8.564
 2557POPC   C2B34412   0.253  40.840   8.264
 2557POPC   C3B34413   0.182  40.862   7.964
 2557POPC   C4B34414   0.199  40.873   7.664
 2558POPC   NC334415  17.544  24.479   9.464
 2558POPC   PO434416  17.530  24.468   9.164
 2558POPC   GL134417  17.544  24.498   8.864
 2558POPC   GL234418  17.392  24.409   8.864
 2558POPC   C1A34419  17.473  24.529   8.564
 2558POPC   D2A34420  17.520  24.533   8.264
 2558POPC   C3A34421  17.486  24.533   7.964
 2558POPC   C4A34422  17.477  24.496   7.664
 2558POPC   C1B34423  17.293  24.379   8.564
 2558POPC   C2B34424  17.264  24.327   8.264
 2558POPC   C3B34425  17.335  24.346   7.964
 2558POPC   C4B34426  17.312  24.299   7.664
 2559POPC   NC334427  18.255   6.598   9.464
 2559POPC   PO434428  18.299   6.627   9.164
 2559POPC   GL134429  18.328   6.679   8.864
 2559POPC   GL234430  18.198   6.553   8.864
 2559POPC   C1A34431  18.322   6.618   8.564
 2559POPC   D2A34432  18.313   6.640   8.264
 2559POPC   C3A34433  18.301   6.630   7.964
 2559POPC   C4A34434  18.255   6.654   7.664
 2559POPC   C1B34435  18.217   6.364   8.564
 2559POPC   C2B34436  18.159   6.405   8.264
 2559POPC   C3B34437  18.181   6.391   7.964
 2559POPC   C4B34438  18.176   6.421   7.664
 2560POPC   NC334439  29.181  25.217   9.464
 2560POPC   PO434440  29.118  25.313   9.164
 2560POPC   GL134441  29.144  25.306   8.864
 2560POPC   GL234442  29.178  25.353   8.864
 2560POPC   C1A34443  29.176  25.224   8.564
 2560POPC   D2A34444  29.101  25.220   8.264
 2560POPC   C3A34445  29.178  25.295   7.964
 2560POPC   C4A34446  29.138  25.284   7.664
 2560POPC   C1B34447  29.255  25.497   8.564
 2560POPC   C2B34448  29.291  25.510   8.264
 2560POPC   C3B34449  29.239  25.497   7.964
 2560POPC   C4B34450  29.220  25.467   7.664
 2561POPC   NC334451  42.347  26.082   9.464
 2561POPC   PO434452  42.304  26.021   9.164
 2561POPC   GL134453  42.360  26.052   8.864
 2561POPC   GL234454  42.353  25.899   8.864
 2561POPC   C1A34455  42.380  26.065   8.564
 2561POPC   D2A34456  42.358  26.025   8.264
 2561POPC   C3A34457  42.297  26.077   7.964
 2561POPC   C4A34458  42.375  26.005   7.664
 2561POPC   C1B34459  42.423  25.808   8.564
 2561POPC   C2B34460  42.460  25.839   8.264
 2561POPC   C3B34461  42.444  25.816   7.964
 2561POPC   C4B34462  42.459  25.825   7.664
 2562POPC   NC334463  36.104  43.147   9.464
 2562POPC   PO434464  36.157  43.142   9.164
 2562POPC   GL134465  36.098  43.159   8.864
 2562POPC   GL234466  36.162  42.948   8.864
 2562POPC   C1A34467  36.079  43.124   8.564
 2562POPC   D2A34468  36.165  43.070   8.264
 2562POPC   C3A34469  36.114  43.094   7.964
 2562POPC   C4A34470  36.129  43.106   7.664
 2562POPC   C1B34471  36.180  42.887   8.564
 2562POPC   C2B34472  36.151  42.859   8.264
 2562POPC   C3B34473  36.142  42.879   7.964
 2562POPC   C4B34474  36.158  42.846   7.664
 2563POPC   NC334475   4.294  17.503   9.464
 2563POPC   PO434476   4.275  17.550   9.164
 2563POPC   GL134477   4.299  17.481   8.864
 2563POPC   GL234478   4.306  17.372   8.864
 2563POPC   C1A34479   4.350  17.522   8.564
 2563POPC   D2A34480   4.331  17.517   8.264
 2563POPC   C3A34481   4.334  17.488   7.964
 2563POPC   C4A34482   4.270  17.524   7.664
 2563POPC   C1B34483   4.235  17.253   8.564
 2563POPC   C2B34484   4.229  17.255   8.264
 2563POPC   C3B34485   4.175  17.251   7.964
 2563POPC   C4B34486   4.242  17.257   7.664
 2564POPC   NC334487   5.865   3.556   9.464
 2564POPC   PO434488   5.885   3.586   9.164
 2564POPC   GL134489   5.835   3.567   8.864
 2564POPC   GL234490   5.820   3.459   8.864
 2564POPC   C1A34491   5.881   3.582   8.564
 2564POPC   D2A34492   5.868   3.496   8.264
 2564POPC   C3A34493   5.888   3.534   7.964
 2564POPC   C4A34494   5.877   3.526   7.664
 2564POPC   C1B34495   5.827   3.305   8.564
 2564POPC   C2B34496   5.788   3.262   8.264
 2564POPC   C3B34497   5.845   3.292   7.964
 2564POPC   C4B34498   5.851   3.340   7.664
 2565POPC   NC334499   0.448  12.032   9.464
 2565POPC   PO434500   0.435  12.058   9.164
 2565POPC   GL134501   0.441  12.111   8.864
 2565POPC   GL234502   0.404  11.953   8.864
 2565POPC   C1A34503   0.452  12.047   8.564
 2565POPC   D2A34504   0.402  12.122   8.264
 2565POPC   C3A34505   0.433  12.031   7.964
 2565POPC   C4A34506   0.470  12.036   7.664
 2565POPC   C1B34507   0.252  11.920   8.564
 2565POPC   C2B34508   0.251  11.909   8.264
 2565POPC   C3B34509   0.240  11.921   7.964
 2565POPC   C4B34510   0.305  11.926   7.664
 2566POPC   NC334511   7.445  26.810   9.464
 2566POPC   PO434512   7.464  26.771   9.164
 2566POPC   GL134513   7.391  26.774   8.864
 2566POPC   GL234514   7.507  26.702   8.864
 2566POPC   C1A34515   7.380  26.829   8.564
 2566POPC   D2A34516   7.450  26.796   8.264
 2566POPC   C3A34517   7.436  26.853   7.964
 2566POPC   C4A34518   7.462  26.789   7.664
 2566POPC   C1B34519   7.585  26.662   8.564
 2566POPC   C2B34520   7.599  26.623   8.264
 2566POPC   C3B34521   7.553  26.676   7.964
 2566POPC   C4B34522   7.573  26.599   7.664
 2567POPC   NC334523  22.963  20.612   9.464
 2567POPC   PO434524  22.890  20.657   9.164
 2567POPC   GL134525  22.967  20.585   8.864
 2567POPC   GL234526  22.806  20.577   8.864
 2567POPC   C1A34527  22.911  20.575   8.564
 2567POPC   D2A34528  22.951  20.626   8.264
 2567POPC   C3A34529  22.963  20.567   7.964
 2567POPC   C4A34530  22.939  20.637   7.664
 2567POPC   C1B34531  22.714  20.578   8.564
 2567POPC   C2B34532  22.731  20.637   8.264
 2567POPC   C3B34533  22.698  20.637   7.964
 2567POPC   C4B34534  22.694  20.555   7.664
 2568POPC   NC334535  11.305  19.789   9.464
 2568POPC   PO434536  11.305  19.864   9.164
 2568POPC   GL134537  11.257  19.849   8.864
 2568POPC   GL234538  11.375  19.827   8.864
 2568POPC   C1A34539  11.296  19.825   8.564
 2568POPC   D2A34540  11.327  19.842   8.264
 2568POPC   C3A34541  11.250  19.870   7.964
 2568POPC   C4A34542  11.280  19.874   7.664
 2568POPC   C1B34543  11.494  19.816   8.564
 2568POPC   C2B34544  11.547  19.758   8.264
 2568POPC   C3B34545  11.562  19.800   7.964
 2568POPC   C4B34546  11.589  19.757   7.664
 2569POPC   NC334547   6.631  13.607   9.464
 2569POPC   PO434548   6.647  13.668   9.164
 2569POPC   GL134549   6.679  13.627   8.864
 2569POPC   GL234550   6.558  13.743   8.864
 2569POPC   C1A34551   6.626  13.623   8.564
 2569POPC   D2A34552   6.674  13.579   8.264
 2569POPC   C3A34553   6.643  13.676   7.964
 2569POPC   C4A34554   6.686  13.652   7.664
 2569POPC   C1B34555   6.499  13.839   8.564
 2569POPC   C2B34556   6.545  13.813   8.264
 2569POPC   C3B34557   6.560  13.799   7.964
 2569POPC   C4B34558   6.472  13.881   7.664
 2570POPC   NC334559  40.019  41.574   9.464
 2570POPC   PO434560  39.968  41.522   9.164
 2570POPC   GL134561  39.977  41.581   8.864
 2570POPC   GL234562  39.945  41.488   8.864
 2570POPC   C1A34563  39.964  41.554   8.564
 2570POPC   D2A34564  40.033  41.552   8.264
 2570POPC   C3A34565  40.034  41.515   7.964
 2570POPC   C4A34566  40.030  41.597   7.664
 2570POPC   C1B34567  39.805  41.405   8.564
 2570POPC   C2B34568  39.856  41.418   8.264
 2570POPC   C3B34569  39.836  41.362   7.964
 2570POPC   C4B34570  39.868  41.360   7.664
 2571POPC   NC334571  33.836  13.673   9.464
 2571POPC   PO434572  33.757  13.635   9.164
 2571POPC   GL134573  33.798  13.634   8.864
 2571POPC   GL234574  33.923  13.684   8.864
 2571POPC   C1A34575  33.757  13.646   8.564
 2571POPC   D2A34576  33.847  13.594   8.264
 2571POPC   C3A34577  33.832  13.594   7.964
 2571POPC   C4A34578  33.766  13.652   7.664
 2571POPC   C1B34579  34.045  13.696   8.564
 2571POPC   C2B34580  34.046  13.749   8.264
 2571POPC   C3B34581  34.071  13.665   7.964
 2571POPC   C4B34582  34.084  13.680   7.664
 2572POPC   NC334583  25.216  34.603   9.464
 2572POPC   PO434584  25.304  34.565   9.164
 2572POPC   GL134585  25.216  34.612   8.864
 2572POPC   GL234586  25.247  34.498   8.864
 2572POPC   C1A34587  25.267  34.581   8.564
 2572POPC   D2A34588  25.296  34.553   8.264
 2572POPC   C3A34589  25.307  34.584   7.964
 2572POPC   C4A34590  25.304  34.621   7.664
 2572POPC   C1B34591  25.272  34.279   8.564
 2572POPC   C2B34592  25.270  34.285   8.264
 2572POPC   C3B34593  25.221  34.293   7.964
 2572POPC   C4B34594  25.300  34.303   7.664
 2573POPC   NC334595   5.880  24.503   9.464
 2573POPC   PO434596   5.852  24.466   9.164
 2573POPC   GL134597   5.823  24.512   8.864
 2573POPC   GL234598   5.818  24.660   8.864
 2573POPC   C1A34599   5.890  24.507   8.564
 2573POPC   D2A34600   5.830  24.523   8.264
 2573POPC   C3A34601   5.873  24.520   7.964
 2573POPC   C4A34602   5.840  24.499   7.664
 2573POPC   C1B34603   5.795  24.712   8.564
 2573POPC   C2B34604   5.825  24.752   8.264
 2573POPC   C3B34605   5.811  24.732   7.964
 2573POPC   C4B34606   5.816  24.771   7.664
 2574POPC   NC334607   9.707  14.383   9.464
 2574POPC   PO434608   9.790  14.426   9.164
 2574POPC   GL134609   9.729  14.378   8.864
 2574POPC   GL234610   9.913  14.384   8.864
 2574POPC   C1A34611   9.729  14.368   8.564
 2574POPC   D2A34612   9.726  14.413   8.264
 2574POPC   C3A34613   9.702  14.361   7.964
 2574POPC   C4A34614   9.770  14.386   7.664
 2574POPC   C1B34615  10.035  14.348   8.564
 2574POPC   C2B34616   9.956  14.347   8.264
 2574POPC   C3B34617  10.033  14.398   7.964
 2574POPC   C4B34618   9.969  14.378   7.664
 2575POPC   NC334619  35.311  17.516   9.464
 2575POPC   PO434620  35.326  17.471   9.164
 2575POPC   GL134621  35.353  17.475   8.864
 2575POPC   GL234622  35.456  17.503   8.864
 2575POPC   C1A34623  35.321  17.474   8.564
 2575POPC   D2A34624  35.379  17.504   8.264
 2575POPC   C3A34625  35.354  17.464   7.964
 2575POPC   C4A34626  35.376  17.476   7.664
 2575POPC   C1B34627  35.631  17.377   8.564
 2575POPC   C2B34628  35.542  17.378   8.264
 2575POPC   C3B34629  35.537  17.392   7.964
 2575POPC   C4B34630  35.592  17.436   7.664
 2576POPC   NC334631  25.232  15.179   9.464
 2576POPC   PO434632  25.228  15.147   9.164
 2576POPC   GL134633  25.273  15.134   8.864
 2576POPC   GL234634  25.390  15.161   8.864
 2576POPC   C1A34635  25.283  15.224   8.564
 2576POPC   D2A34636  25.220  15.229   8.264
 2576POPC   C3A34637  25.284  15.216   7.964
 2576POPC   C4A34638  25.302  15.226   7.664
 2576POPC   C1B34639  25.545  15.109   8.564
 2576POPC   C2B34640  25.556  15.088   8.264
 2576POPC   C3B34641  25.553  15.107   7.964
 2576POPC   C4B34642  25.465  15.135   7.664
 2577POPC   NC334643   5.117  36.946   9.464
 2577POPC   PO434644   5.111  36.913   9.164
 2577POPC   GL134645   5.056  36.893   8.864
 2577POPC   GL234646   5.036  36.786   8.864
 2577POPC   C1A34647   5.051  36.905   8.564
 2577POPC   D2A34648   5.062  36.918   8.264
 2577POPC   C3A34649   5.088  36.876   7.964
 2577POPC   C4A34650   5.094  36.854   7.664
 2577POPC   C1B34651   4.888  36.738   8.564
 2577POPC   C2B34652   4.883  36.747   8.264
 2577POPC   C3B34653   4.961  36.746   7.964
 2577POPC   C4B34654   4.898  36.725   7.664
 2578POPC   NC334655  28.354  17.468   9.464
 2578POPC   PO434656  28.346  17.470   9.164
 2578POPC   GL134657  28.341  17.457   8.864
 2578POPC   GL234658  28.250  17.421   8.864
 2578POPC   C1A34659  28.398  17.462   8.564
 2578POPC   D2A34660  28.329  17.539   8.264
 2578POPC   C3A34661  28.417  17.532   7.964
 2578POPC   C4A34662  28.375  17.546   7.664
 2578POPC   C1B34663  28.138  17.448   8.564
 2578POPC   C2B34664  28.149  17.452   8.264
 2578POPC   C3B34665  28.115  17.446   7.964
 2578POPC   C4B34666  28.147  17.403   7.664
 2579POPC   NC334667  31.480  14.434   9.464
 2579POPC   PO434668  31.509  14.427   9.164
 2579POPC   GL134669  31.487  14.423   8.864
 2579POPC   GL234670  31.349  14.275   8.864
 2579POPC   C1A34671  31.433  14.439   8.564
 2579POPC   D2A34672  31.433  14.372   8.264
 2579POPC   C3A34673  31.431  14.447   7.964
 2579POPC   C4A34674  31.455  14.437   7.664
 2579POPC   C1B34675  31.254  14.198   8.564
 2579POPC   C2B34676  31.253  14.212   8.264
 2579POPC   C3B34677  31.315  14.247   7.964
 2579POPC   C4B34678  31.299  14.246   7.664
 2580POPC   NC334679  22.889  18.328   9.464
 2580POPC   PO434680  22.924  18.240   9.164
 2580POPC   GL134681  22.936  18.282   8.864
 2580POPC   GL234682  22.907  18.190   8.864
 2580POPC   C1A34683  22.929  18.262   8.564
 2580POPC   D2A34684  22.949  18.279   8.264
 2580POPC   C3A34685  22.891  18.317   7.964
 2580POPC   C4A34686  22.935  18.258   7.664
 2580POPC   C1B34687  22.772  18.076   8.564
 2580POPC   C2B34688  22.807  18.106   8.264
 2580POPC   C3B34689  22.778  18.090   7.964
 2580POPC   C4B34690  22.779  18.079   7.664
 2581POPC   NC334691   0.401  39.269   9.464
 2581POPC   PO434692   0.398  39.253   9.164
 2581POPC   GL134693   0.442  39.212   8.864
 2581POPC   GL234694   0.478  39.126   8.864
 2581POPC   C1A34695   0.479  39.273   8.564
 2581POPC   D2A34696   0.487  39.206   8.264
 2581POPC   C3A34697   0.464  39.264   7.964
 2581POPC   C4A34698   0.427  39.185   7.664
 2581POPC   C1B34699   0.600  39.057   8.564
 2581POPC   C2B34700   0.663  39.038   8.264
 2581POPC   C3B34701   0.631  39.090   7.964
 2581POPC   C4B34702   0.653  39.098   7.664
 2582POPC   NC334703  27.636  37.662   9.464
 2582POPC   PO434704  27.602  37.669   9.164
 2582POPC   GL134705  27.639  37.655   8.864
 2582POPC   GL234706  27.502  37.631   8.864
 2582POPC   C1A34707  27.557  37.720   8.564
 2582POPC   D2A34708  27.624  37.635   8.264
 2582POPC   C3A34709  27.552  37.634   7.964
 2582POPC   C4A34710  27.582  37.714   7.664
 2582POPC   C1B34711  27.394  37.467   8.564
 2582POPC   C2B34712  27.448  37.536   8.264
 2582POPC   C3B34713  27.455  37.501   7.964
 2582POPC   C4B34714  27.424  37.466   7.664
 2583POPC   NC334715  40.829  10.510   9.464
 2583POPC   PO434716  40.775  10.505   9.164
 2583POPC   GL134717  40.774  10.474   8.864
 2583POPC   GL234718  40.918  10.558   8.864
 2583POPC   C1A34719  40.793  10.475   8.564
 2583POPC   D2A34720  40.786  10.545   8.264
 2583POPC   C3A34721  40.805  10.546   7.964
 2583POPC   C4A34722  40.742  10.507   7.664
 2583POPC   C1B34723  41.045  10.482   8.564
 2583POPC   C2B34724  41.074  10.526   8.264
 2583POPC   C3B34725  40.983  10.482   7.964
 2583POPC   C4B34726  41.047  10.535   7.664
 2584POPC   NC334727  11.326  29.926   9.464
 2584POPC   PO434728  11.277  29.919   9.164
 2584POPC   GL134729  11.252  29.955   8.864
 2584POPC   GL234730  11.285  30.023   8.864
 2584POPC   C1A34731  11.305  29.873   8.564
 2584POPC   D2A34732  11.296  29.872   8.264
 2584POPC   C3A34733  11.273  29.919   7.964
 2584POPC   C4A34734  11.306  29.931   7.664
 2584POPC   C1B34735  11.297  30.140   8.564
 2584POPC   C2B34736  11.264  30.149   8.264
 2584POPC   C3B34737  11.270  30.153   7.964
 2584POPC   C4B34738  11.287  30.122   7.664
 2585POPC   NC334739  26.841  35.355   9.464
 2585POPC   PO434740  26.810  35.323   9.164
 2585POPC   GL134741  26.845  35.382   8.864
 2585POPC   GL234742  26.740  35.436   8.864
 2585POPC   C1A34743  26.785  35.394   8.564
 2585POPC   D2A34744  26.830  35.381   8.264
 2585POPC   C3A34745  26.796  35.374   7.964
 2585POPC   C4A34746  26.806  35.308   7.664
 2585POPC   C1B34747  26.604  35.460   8.564
 2585POPC   C2B34748  26.541  35.424   8.264
 2585POPC   C3B34749  26.598  35.448   7.964
 2585POPC   C4B34750  26.581  35.461   7.664
 2586POPC   NC334751   4.347   9.798   9.464
 2586POPC   PO434752   4.324   9.717   9.164
 2586POPC   GL134753   4.334   9.766   8.864
 2586POPC   GL234754   4.460   9.728   8.864
 2586POPC   C1A34755   4.286   9.716   8.564
 2586POPC   D2A34756   4.329   9.714   8.264
 2586POPC   C3A34757   4.363   9.706   7.964
 2586POPC   C4A34758   4.307   9.713   7.664
 2586POPC   C1B34759   4.530   9.683   8.564
 2586POPC   C2B34760   4.582   9.603   8.264
 2586POPC   C3B34761   4.560   9.666   7.964
 2586POPC   C4B34762   4.529   9.674   7.664
 2587POPC   NC334763  36.086   2.784   9.464
 2587POPC   PO434764  36.104   2.744   9.164
 2587POPC   GL134765  36.129   2.784   8.864
 2587POPC   GL234766  36.105   2.635   8.864
 2587POPC   C1A34767  36.127   2.809   8.564
 2587POPC   D2A34768  36.079   2.725   8.264
 2587POPC   C3A34769  36.153   2.806   7.964
 2587POPC   C4A34770  36.112   2.724   7.664
 2587POPC   C1B34771  36.136   2.561   8.564
 2587POPC   C2B34772  36.077   2.505   8.264
 2587POPC   C3B34773  36.079   2.533   7.964
 2587POPC   C4B34774  36.115   2.468   7.664
 2588POPC   NC334775  43.861   3.591   9.464
 2588POPC   PO434776  43.879   3.532   9.164
 2588POPC   GL134777  43.933   3.492   8.864
 2588POPC   GL234778  44.022   3.493   8.864
 2588POPC   C1A34779  43.858   3.572   8.564
 2588POPC   D2A34780  43.877   3.534   8.264
 2588POPC   C3A34781  43.892   3.499   7.964
 2588POPC   C4A34782  43.883   3.579   7.664
 2588POPC   C1B34783  44.065   3.421   8.564
 2588POPC   C2B34784  44.099   3.385   8.264
 2588POPC   C3B34785  44.145   3.427   7.964
 2588POPC   C4B34786  44.055   3.459   7.664
 2589POPC   NC334787  24.445  32.287   9.464
 2589POPC   PO434788  24.451  32.199   9.164
 2589POPC   GL134789  24.539  32.297   8.864
 2589POPC   GL234790  24.368  32.165   8.864
 2589POPC   C1A34791  24.536  32.264   8.564
 2589POPC   D2A34792  24.478  32.205   8.264
 2589POPC   C3A34793  24.496  32.244   7.964
 2589POPC   C4A34794  24.529  32.249   7.664
 2589POPC   C1B34795  24.286  32.022   8.564
 2589POPC   C2B34796  24.272  32.035   8.264
 2589POPC   C3B34797  24.304  32.042   7.964
 2589POPC   C4B34798  24.274  32.075   7.664
 2590POPC   NC334799  36.166  10.474   9.464
 2590POPC   PO434800  36.101  10.481   9.164
 2590POPC   GL134801  36.146  10.502   8.864
 2590POPC   GL234802  36.255  10.458   8.864
 2590POPC   C1A34803  36.164  10.545   8.564
 2590POPC   D2A34804  36.132  10.477   8.264
 2590POPC   C3A34805  36.124  10.560   7.964
 2590POPC   C4A34806  36.085  10.490   7.664
 2590POPC   C1B34807  36.345  10.376   8.564
 2590POPC   C2B34808  36.339  10.330   8.264
 2590POPC   C3B34809  36.340  10.362   7.964
 2590POPC   C4B34810  36.358  10.351   7.664
 2591POPC   NC334811  35.312  20.655   9.464
 2591POPC   PO434812  35.334  20.630   9.164
 2591POPC   GL134813  35.360  20.599   8.864
 2591POPC   GL234814  35.274  20.576   8.864
 2591POPC   C1A34815  35.318  20.579   8.564
 2591POPC   D2A34816  35.340  20.580   8.264
 2591POPC   C3A34817  35.303  20.569   7.964
 2591POPC   C4A34818  35.343  20.650   7.664
 2591POPC   C1B34819  35.124  20.458   8.564
 2591POPC   C2B34820  35.160  20.481   8.264
 2591POPC   C3B34821  35.149  20.523   7.964
 2591POPC   C4B34822  35.144  20.511   7.664
 2592POPC   NC334823  32.230   3.505   9.464
 2592POPC   PO434824  32.210   3.567   9.164
 2592POPC   GL134825  32.251   3.581   8.864
 2592POPC   GL234826  32.398   3.597   8.864
 2592POPC   C1A34827  32.285   3.559   8.564
 2592POPC   D2A34828  32.234   3.586   8.264
 2592POPC   C3A34829  32.293   3.492   7.964
 2592POPC   C4A34830  32.261   3.502   7.664
 2592POPC   C1B34831  32.470   3.703   8.564
 2592POPC   C2B34832  32.475   3.708   8.264
 2592POPC   C3B34833  32.434   3.690   7.964
 2592POPC   C4B34834  32.498   3.674   7.664
 2593POPC   NC334835  26.017  23.677   9.464
 2593POPC   PO434836  26.015  23.752   9.164
 2593POPC   GL134837  26.057  23.749   8.864
 2593POPC   GL234838  26.187  23.746   8.864
 2593POPC   C1A34839  26.041  23.678   8.564
 2593POPC   D2A34840  26.074  23.730   8.264
 2593POPC   C3A34841  26.009  23.718   7.964
 2593POPC   C4A34842  26.024  23.719   7.664
 2593POPC   C1B34843  26.257  23.714   8.564
 2593POPC   C2B34844  26.266  23.681   8.264
 2593POPC   C3B34845  26.297  23.684   7.964
 2593POPC   C4B34846  26.332  23.734   7.664
 2594POPC   NC334847   0.475  36.933   9.464
 2594POPC   PO434848   0.480  36.886   9.164
 2594POPC   GL134849   0.399  36.854   8.864
 2594POPC   GL234850   0.551  36.955   8.864
 2594POPC   C1A34851   0.390  36.928   8.564
 2594POPC   D2A34852   0.467  36.916   8.264
 2594POPC   C3A34853   0.397  36.945   7.964
 2594POPC   C4A34854   0.419  36.890   7.664
 2594POPC   C1B34855   0.626  36.999   8.564
 2594POPC   C2B34856   0.684  37.019   8.264
 2594POPC   C3B34857   0.625  37.044   7.964
 2594POPC   C4B34858   0.633  37.067   7.664
 2595POPC   NC334859   1.973  28.326   9.464
 2595POPC   PO434860   2.009  28.403   9.164
 2595POPC   GL134861   1.999  28.368   8.864
 2595POPC   GL234862   2.064  28.487   8.864
 2595POPC   C1A34863   1.977  28.400   8.564
 2595POPC   D2A34864   1.967  28.364   8.264
 2595POPC   C3A34865   2.025  28.330   7.964
 2595POPC   C4A34866   1.987  28.366   7.664
 2595POPC   C1B34867   2.192  28.579   8.564
 2595POPC   C2B34868   2.149  28.528   8.264
 2595POPC   C3B34869   2.184  28.518   7.964
 2595POPC   C4B34870   2.215  28.503   7.664
 2596POPC   NC334871  18.307  18.270   9.464
 2596POPC   PO434872  18.251  18.318   9.164
 2596POPC   GL134873  18.243  18.297   8.864
 2596POPC   GL234874  18.325  18.173   8.864
 2596POPC   C1A34875  18.306  18.245   8.564
 2596POPC   D2A34876  18.237  18.264   8.264
 2596POPC   C3A34877  18.264  18.290   7.964
 2596POPC   C4A34878  18.315  18.266   7.664
 2596POPC   C1B34879  18.379  18.086   8.564
 2596POPC   C2B34880  18.300  18.021   8.264
 2596POPC   C3B34881  18.376  18.082   7.964
 2596POPC   C4B34882  18.328  18.043   7.664
 2597POPC   NC334883  20.609   5.047   9.464
 2597POPC   PO434884  20.653   5.085   9.164
 2597POPC   GL134885  20.643   5.142   8.864
 2597POPC   GL234886  20.506   5.122   8.864
 2597POPC   C1A34887  20.605   5.104   8.564
 2597POPC   D2A34888  20.607   5.135   8.264
 2597POPC   C3A34889  20.648   5.100   7.964
 2597POPC   C4A34890  20.632   5.067   7.664
 2597POPC   C1B34891  20.414   5.215   8.564
 2597POPC   C2B34892  20.370   5.215   8.264
 2597POPC   C3B34893  20.432   5.205   7.964
 2597POPC   C4B34894  20.443   5.185   7.664
 2598POPC   NC334895  14.355  17.544   9.464
 2598POPC   PO434896  14.380  17.526   9.164
 2598POPC   GL134897  14.409  17.474   8.864
 2598POPC   GL234898  14.376  17.658   8.864
 2598POPC   C1A34899  14.439  17.498   8.564
 2598POPC   D2A34900  14.413  17.491   8.264
 2598POPC   C3A34901  14.416  17.531   7.964
 2598POPC   C4A34902  14.401  17.544   7.664
 2598POPC   C1B34903  14.295  17.708   8.564
 2598POPC   C2B34904  14.304  17.702   8.264
 2598POPC   C3B34905  14.262  17.729   7.964
 2598POPC   C4B34906  14.239  17.740   7.664
 2599POPC   NC334907  22.155  13.614   9.464
 2599POPC   PO434908  22.148  13.587   9.164
 2599POPC   GL134909  22.170  13.672   8.864
 2599POPC   GL234910  22.207  13.795   8.864
 2599POPC   C1A34911  22.211  13.596   8.564
 2599POPC   D2A34912  22.199  13.599   8.264
 2599POPC   C3A34913  22.152  13.674   7.964
 2599POPC   C4A34914  22.211  13.663   7.664
 2599POPC   C1B34915  22.151  13.850   8.564
 2599POPC   C2B34916  22.158  13.884   8.264
 2599POPC   C3B34917  22.151  13.917   7.964
 2599POPC   C4B34918  22.175  13.833   7.664
 2600POPC   NC334919   5.058  36.164   9.464
 2600POPC   PO434920   5.089  36.152   9.164
 2600POPC   GL134921   5.142  36.116   8.864
 2600POPC   GL234922   5.194  36.097   8.864
 2600POPC   C1A34923   5.142  36.139   8.564
 2600POPC   D2A34924   5.106  36.093   8.264
 2600POPC   C3A34925   5.140  36.163   7.964
 2600POPC   C4A34926   5.046  36.163   7.664
 2600POPC   C1B34927   5.321  36.080   8.564
 2600POPC   C2B34928   5.301  36.010   8.264
 2600POPC   C3B34929   5.351  36.083   7.964
 2600POPC   C4B34930   5.339  36.062   7.664
 2601POPC   NC334931  20.649  43.087   9.464
 2601POPC   PO434932  20.618  43.122   9.164
 2601POPC   GL134933  20.654  43.108   8.864
 2601POPC   GL234934  20.605  43.265   8.864
 2601POPC   C1A34935  20.584  43.080   8.564
 2601POPC   D2A34936  20.658  43.065   8.264
 2601POPC   C3A34937  20.642  43.113   7.964
 2601POPC   C4A34938  20.581  43.089   7.664
 2601POPC   C1B34939  20.561  43.385   8.564
 2601POPC   C2B34940  20.529  43.340   8.264
 2601POPC   C3B34941  20.602  43.394   7.964
 2601POPC   C4B34942  20.510  43.316   7.664
 2602POPC   NC334943  37.677  16.681   9.464
 2602POPC   PO434944  37.700  16.736   9.164
 2602POPC   GL134945  37.700  16.707   8.864
 2602POPC   GL234946  37.596  16.680   8.864
 2602POPC   C1A34947  37.708  16.684   8.564
 2602POPC   D2A34948  37.668  16.728   8.264
 2602POPC   C3A34949  37.685  16.737   7.964
 2602POPC   C4A34950  37.633  16.732   7.664
 2602POPC   C1B34951  37.443  16.636   8.564
 2602POPC   C2B34952  37.447  16.584   8.264
 2602POPC   C3B34953  37.443  16.633   7.964
 2602POPC   C4B34954  37.422  16.622   7.664
 2603POPC   NC334955  15.955   1.951   9.464
 2603POPC   PO434956  15.984   2.009   9.164
 2603POPC   GL134957  15.975   1.963   8.864
 2603POPC   GL234958  16.043   1.981   8.864
 2603POPC   C1A34959  15.927   2.016   8.564
 2603POPC   D2A34960  15.952   2.017   8.264
 2603POPC   C3A34961  15.997   1.977   7.964
 2603POPC   C4A34962  15.988   1.973   7.664
 2603POPC   C1B34963  16.203   1.868   8.564
 2603POPC   C2B34964  16.190   1.924   8.264
 2603POPC   C3B34965  16.234   1.856   7.964
 2603POPC   C4B34966  16.190   1.921   7.664
 2604POPC   NC334967  34.594  42.340   9.464
 2604POPC   PO434968  34.579  42.371   9.164
 2604POPC   GL134969  34.593  42.301   8.864
 2604POPC   GL234970  34.662  42.421   8.864
 2604POPC   C1A34971  34.582  42.327   8.564
 2604POPC   D2A34972  34.575  42.306   8.264
 2604POPC   C3A34973  34.597  42.325   7.964
 2604POPC   C4A34974  34.623  42.287   7.664
 2604POPC   C1B34975  34.686  42.589   8.564
 2604POPC   C2B34976  34.711  42.562   8.264
 2604POPC   C3B34977  34.704  42.502   7.964
 2604POPC   C4B34978  34.671  42.558   7.664
 2605POPC   NC334979  15.938  42.365   9.464
 2605POPC   PO434980  15.906  42.295   9.164
 2605POPC   GL134981  15.935  42.290   8.864
 2605POPC   GL234982  15.861  42.336   8.864
 2605POPC   C1A34983  15.995  42.359   8.564
 2605POPC   D2A34984  15.973  42.314   8.264
 2605POPC   C3A34985  15.932  42.287   7.964
 2605POPC   C4A34986  15.969  42.355   7.664
 2605POPC   C1B34987  15.698  42.354   8.564
 2605POPC   C2B34988  15.742  42.315   8.264
 2605POPC   C3B34989  15.683  42.307   7.964
 2605POPC   C4B34990  15.720  42.364   7.664
 2606POPC   NC334991  25.272  11.298   9.464
 2606POPC   PO434992  25.303  11.319   9.164
 2606POPC   GL134993  25.287  11.293   8.864
 2606POPC   GL234994  25.420  11.247   8.864
 2606POPC   C1A34995  25.255  11.304   8.564
 2606POPC   D2A34996  25.228  11.304   8.264
 2606POPC   C3A34997  25.250  11.299   7.964
 2606POPC   C4A34998  25.222  11.344   7.664
 2606POPC   C1B34999  25.464  11.223   8.564
 2606POPC   C2B35000  25.531  11.222   8.264
 2606POPC   C3B35001  25.514  11.232   7.964
 2606POPC   C4B35002  25.484  11.223   7.664
 2607POPC   NC335003   1.207  20.646   9.464
 2607POPC   PO435004   1.206  20.581   9.164
 2607POPC   GL135005   1.202  20.601   8.864
 2607POPC   GL235006   1.127  20.524   8.864
 2607POPC   C1A35007   1.212  20.570   8.564
 2607POPC   D2A35008   1.203  20.629   8.264
 2607POPC   C3A35009   1.203  20.580   7.964
 2607POPC   C4A35010   1.256  20.603   7.664
 2607POPC   C1B35011   1.083  20.417   8.564
 2607POPC   C2B35012   1.059  20.453   8.264
 2607POPC   C3B35013   1.073  20.450   7.964
 2607POPC   C4B35014   1.056  20.427   7.664
 2608POPC   NC335015  20.623  11.327   9.464
 2608POPC   PO435016  20.623  11.293   9.164
 2608POPC   GL135017  20.651  11.318   8.864
 2608POPC   GL235018  20.508  11.352   8.864
 2608POPC   C1A35019  20.563  11.287   8.564
 2608POPC   D2A35020  20.570  11.310   8.264
 2608POPC   C3A35021  20.614  11.345   7.964
 2608POPC   C4A35022  20.623  11.266   7.664
 2608POPC   C1B35023  20.405  11.409   8.564
 2608POPC   C2B35024  20.320  11.396   8.264
 2608POPC   C3B35025  20.411  11.368   7.964
 2608POPC   C4B35026  20.327  11.414   7.664
 2609POPC   NC335027  40.029  33.034   9.464
 2609POPC   PO435028  39.959  33.044   9.164
 2609POPC   GL135029  39.976  32.982   8.864
 2609POPC   GL235030  39.867  32.897   8.864
 2609POPC   C1A35031  40.025  33.049   8.564
 2609POPC   D2A35032  40.040  32.997   8.264
 2609POPC   C3A35033  40.036  33.064   7.964
 2609POPC   C4A35034  40.057  33.069   7.664
 2609POPC   C1B35035  39.793  32.876   8.564
 2609POPC   C2B35036  39.780  32.835   8.264
 2609POPC   C3B35037  39.808  32.897   7.964
 2609POPC   C4B35038  39.856  32.888   7.664
 2610POPC   NC335039  14.392  22.920   9.464
 2610POPC   PO435040  14.417  22.890   9.164
 2610POPC   GL135041  14.430  22.966   8.864
 2610POPC   GL235042  14.340  23.093   8.864
 2610POPC   C1A35043  14.441  22.952   8.564
 2610POPC   D2A35044  14.372  22.978   8.264
 2610POPC   C3A35045  14.432  22.938   7.964
 2610POPC   C4A35046  14.444  22.902   7.664
 2610POPC   C1B35047  14.412  23.211   8.564
 2610POPC   C2B35048  14.396  23.173   8.264
 2610POPC   C3B35049  14.356  23.226   7.964
 2610POPC   C4B35050  14.357  23.233   7.664
 2611POPC   NC335051   3.583   5.059   9.464
 2611POPC   PO435052   3.551   5.098   9.164
 2611POPC   GL135053   3.506   5.139   8.864
 2611POPC   GL235054   3.608   5.000   8.864
 2611POPC   C1A35055   3.562   5.076   8.564
 2611POPC   D2A35056   3.506   5.089   8.264
 2611POPC   C3A35057   3.550   5.050   7.964
 2611POPC   C4A35058   3.514   5.119   7.664
 2611POPC   C1B35059   3.693   4.925   8.564
 2611POPC   C2B35060   3.696   4.929   8.264
 2611POPC   C3B35061   3.682   4.902   7.964
 2611POPC   C4B35062   3.682   4.891   7.664
 2612POPC   NC335063  32.233  40.748   9.464
 2612POPC   PO435064  32.208  40.828   9.164
 2612POPC   GL135065  32.283  40.742   8.864
 2612POPC   GL235066  32.301  40.641   8.864
 2612POPC   C1A35067  32.214  40.800   8.564
 2612POPC   D2A35068  32.296  40.813   8.264
 2612POPC   C3A35069  32.259  40.806   7.964
 2612POPC   C4A35070  32.289  40.770   7.664
 2612POPC   C1B35071  32.311  40.492   8.564
 2612POPC   C2B35072  32.309  40.517   8.264
 2612POPC   C3B35073  32.327  40.587   7.964
 2612POPC   C4B35074  32.285  40.495   7.664
 2613POPC   NC335075  29.140  14.416   9.464
 2613POPC   PO435076  29.103  14.406   9.164
 2613POPC   GL135077  29.195  14.451   8.864
 2613POPC   GL235078  29.088  14.477   8.864
 2613POPC   C1A35079  29.191  14.383   8.564
 2613POPC   D2A35080  29.110  14.392   8.264
 2613POPC   C3A35081  29.139  14.426   7.964
 2613POPC   C4A35082  29.129  14.357   7.664
 2613POPC   C1B35083  28.991  14.612   8.564
 2613POPC   C2B35084  28.996  14.584   8.264
 2613POPC   C3B35085  29.047  14.620   7.964
 2613POPC   C4B35086  28.984  14.610   7.664
 2614POPC   NC335087  30.714  13.642   9.464
 2614POPC   PO435088  30.668  13.677   9.164
 2614POPC   GL135089  30.654  13.628   8.864
 2614POPC   GL235090  30.592  13.576   8.864
 2614POPC   C1A35091  30.670  13.633   8.564
 2614POPC   D2A35092  30.700  13.647   8.264
 2614POPC   C3A35093  30.709  13.613   7.964
 2614POPC   C4A35094  30.702  13.637   7.664
 2614POPC   C1B35095  30.460  13.489   8.564
 2614POPC   C2B35096  30.492  13.500   8.264
 2614POPC   C3B35097  30.456  13.538   7.964
 2614POPC   C4B35098  30.519  13.556   7.664
 2615POPC   NC335099  19.044   5.094   9.464
 2615POPC   PO435100  19.085   5.053   9.164
 2615POPC   GL135101  19.063   5.100   8.864
 2615POPC   GL235102  18.945   4.986   8.864
 2615POPC   C1A35103  19.064   5.138   8.564
 2615POPC   D2A35104  19.056   5.087   8.264
 2615POPC   C3A35105  19.030   5.105   7.964
 2615POPC   C4A35106  19.038   5.093   7.664
 2615POPC   C1B35107  18.894   4.893   8.564
 2615POPC   C2B35108  18.900   4.946   8.264
 2615POPC   C3B35109  18.862   4.907   7.964
 2615POPC   C4B35110  18.925   4.902   7.664
 2616POPC   NC335111  12.891   5.125   9.464
 2616POPC   PO435112  12.861   5.088   9.164
 2616POPC   GL135113  12.897   5.119   8.864
 2616POPC   GL235114  12.732   5.116   8.864
 2616POPC   C1A35115  12.869   5.079   8.564
 2616POPC   D2A35116  12.839   5.076   8.264
 2616POPC   C3A35117  12.861   5.073   7.964
 2616POPC   C4A35118  12.899   5.075   7.664
 2616POPC   C1B35119  12.648   5.166   8.564
 2616POPC   C2B35120  12.577   5.147   8.264
 2616POPC   C3B35121  12.632   5.151   7.964
 2616POPC   C4B35122  12.653   5.150   7.664
 2617POPC   NC335123  19.104   9.755   9.464
 2617POPC   PO435124  19.070   9.705   9.164
 2617POPC   GL135125  19.087   9.731   8.864
 2617POPC   GL235126  19.092   9.665   8.864
 2617POPC   C1A35127  19.087   9.745   8.564
 2617POPC   D2A35128  19.073   9.797   8.264
 2617POPC   C3A35129  19.037   9.714   7.964
 2617POPC   C4A35130  19.092   9.733   7.664
 2617POPC   C1B35131  19.158   9.529   8.564
 2617POPC   C2B35132  19.161   9.549   8.264
 2617POPC   C3B35133  19.205   9.585   7.964
 2617POPC   C4B35134  19.215   9.519   7.664
 2618POPC   NC335135  14.447  25.288   9.464
 2618POPC   PO435136  14.388  25.253   9.164
 2618POPC   GL135137  14.447  25.237   8.864
 2618POPC   GL235138  14.346  25.198   8.864
 2618POPC   C1A35139  14.381  25.226   8.564
 2618POPC   D2A35140  14.405  25.242   8.264
 2618POPC   C3A35141  14.445  25.294   7.964
 2618POPC   C4A35142  14.450  25.265   7.664
 2618POPC   C1B35143  14.242  25.129   8.564
 2618POPC   C2B35144  14.186  25.069   8.264
 2618POPC   C3B35145  14.228  25.103   7.964
 2618POPC   C4B35146  14.204  25.104   7.664
 2619POPC   NC335147  30.671  26.795   9.464
 2619POPC   PO435148  30.736  26.836   9.164
 2619POPC   GL135149  30.720  26.768   8.864
 2619POPC   GL235150  30.663  26.920   8.864
 2619POPC   C1A35151  30.659  26.791   8.564
 2619POPC   D2A35152  30.743  26.847   8.264
 2619POPC   C3A35153  30.693  26.788   7.964
 2619POPC   C4A35154  30.699  26.776   7.664
 2619POPC   C1B35155  30.559  27.094   8.564
 2619POPC   C2B35156  30.573  27.003   8.264
 2619POPC   C3B35157  30.576  27.080   7.964
 2619POPC   C4B35158  30.650  27.035   7.664
 2620POPC   NC335159  19.035  43.073   9.464
 2620POPC   PO435160  19.010  43.114   9.164
 2620POPC   GL135161  19.107  43.141   8.864
 2620POPC   GL235162  18.928  42.989   8.864
 2620POPC   C1A35163  19.090  43.065   8.564
 2620POPC   D2A35164  19.035  43.121   8.264
 2620POPC   C3A35165  19.059  43.144   7.964
 2620POPC   C4A35166  19.017  43.110   7.664
 2620POPC   C1B35167  18.831  42.988   8.564
 2620POPC   C2B35168  18.832  42.954   8.264
 2620POPC   C3B35169  18.859  42.924   7.964
 2620POPC   C4B35170  18.898  42.988   7.664
 2621POPC   NC335171  10.490  43.120   9.464
 2621POPC   PO435172  10.501  43.110   9.164
 2621POPC   GL135173  10.510  43.061   8.864
 2621POPC   GL235174  10.567  43.188   8.864
 2621POPC   C1A35175  10.524  43.100   8.564
 2621POPC   D2A35176  10.513  43.139   8.264
 2621POPC   C3A35177  10.569  43.132   7.964
 2621POPC   C4A35178  10.560  43.123   7.664
 2621POPC   C1B35179  10.601  43.349   8.564
 2621POPC   C2B35180  10.651  43.379   8.264
 2621POPC   C3B35181  10.650  43.382   7.964
 2621POPC   C4B35182  10.641  43.375   7.664
 2622POPC   NC335183  15.908  24.443   9.464
 2622POPC   PO435184  15.988  24.532   9.164
 2622POPC   GL135185  15.994  24.491   8.864
 2622POPC   GL235186  16.046  24.391   8.864
 2622POPC   C1A35187  15.935  24.528   8.564
 2622POPC   D2A35188  15.988  24.479   8.264
 2622POPC   C3A35189  15.979  24.510   7.964
 2622POPC   C4A35190  15.944  24.459   7.664
 2622POPC   C1B35191  16.180  24.383   8.564
 2622POPC   C2B35192  16.203  24.343   8.264
 2622POPC   C3B35193  16.202  24.350   7.964
 2622POPC   C4B35194  16.199  24.381   7.664
 2623POPC   NC335195  36.880  31.446   9.464
 2623POPC   PO435196  36.916  31.496   9.164
 2623POPC   GL135197  36.916  31.433   8.864
 2623POPC   GL235198  36.880  31.403   8.864
 2623POPC   C1A35199  36.900  31.469   8.564
 2623POPC   D2A35200  36.926  31.513   8.264
 2623POPC   C3A35201  36.942  31.511   7.964
 2623POPC   C4A35202  36.890  31.464   7.664
 2623POPC   C1B35203  36.736  31.302   8.564
 2623POPC   C2B35204  36.808  31.248   8.264
 2623POPC   C3B35205  36.813  31.287   7.964
 2623POPC   C4B35206  36.746  31.207   7.664
 2624POPC   NC335207  33.815  40.832   9.464
 2624POPC   PO435208  33.781  40.827   9.164
 2624POPC   GL135209  33.814  40.768   8.864
 2624POPC   GL235210  33.877  40.814   8.864
 2624POPC   C1A35211  33.786  40.788   8.564
 2624POPC   D2A35212  33.782  40.822   8.264
 2624POPC   C3A35213  33.816  40.744   7.964
 2624POPC   C4A35214  33.828  40.783   7.664
 2624POPC   C1B35215  33.977  40.897   8.564
 2624POPC   C2B35216  34.033  40.893   8.264
 2624POPC   C3B35217  34.053  40.964   7.964
 2624POPC   C4B35218  33.981  40.935   7.664
 2625POPC   NC335219   5.084  29.194   9.464
 2625POPC   PO435220   5.125  29.097   9.164
 2625POPC   GL135221   5.061  29.124   8.864
 2625POPC   GL235222   5.082  29.222   8.864
 2625POPC   C1A35223   5.052  29.162   8.564
 2625POPC   D2A35224   5.047  29.137   8.264
 2625POPC   C3A35225   5.131  29.174   7.964
 2625POPC   C4A35226   5.081  29.178   7.664
 2625POPC   C1B35227   5.026  29.411   8.564
 2625POPC   C2B35228   5.023  29.414   8.264
 2625POPC   C3B35229   5.003  29.399   7.964
 2625POPC   C4B35230   5.085  29.358   7.664
 2626POPC   NC335231   5.072  18.266   9.464
 2626POPC   PO435232   5.077  18.276   9.164
 2626POPC   GL135233   5.105  18.249   8.864
 2626POPC   GL235234   5.105  18.204   8.864
 2626POPC   C1A35235   5.082  18.261   8.564
 2626POPC   D2A35236   5.080  18.305   8.264
 2626POPC   C3A35237   5.096  18.253   7.964
 2626POPC   C4A35238   5.083  18.318   7.664
 2626POPC   C1B35239   5.149  18.060   8.564
 2626POPC   C2B35240   5.125  18.046   8.264
 2626POPC   C3B35241   5.196  18.013   7.964
 2626POPC   C4B35242   5.211  18.027   7.664
 2627POPC   NC335243  36.893  33.810   9.464
 2627POPC   PO435244  36.902  33.780   9.164
 2627POPC   GL135245  36.875  33.779   8.864
 2627POPC   GL235246  36.762  33.824   8.864
 2627POPC   C1A35247  36.867  33.795   8.564
 2627POPC   D2A35248  36.913  33.756   8.264
 2627POPC   C3A35249  36.937  33.814   7.964
 2627POPC   C4A35250  36.934  33.823   7.664
 2627POPC   C1B35251  36.644  33.708   8.564
 2627POPC   C2B35252  36.661  33.775   8.264
 2627POPC   C3B35253  36.671  33.761   7.964
 2627POPC   C4B35254  36.650  33.772   7.664
 2628POPC   NC335255   9.732   7.373   9.464
 2628POPC   PO435256   9.750   7.373   9.164
 2628POPC   GL135257   9.701   7.451   8.864
 2628POPC   GL235258   9.672   7.394   8.864
 2628POPC   C1A35259   9.779   7.393   8.564
 2628POPC   D2A35260   9.779   7.397   8.264
 2628POPC   C3A35261   9.709   7.449   7.964
 2628POPC   C4A35262   9.707   7.378   7.664
 2628POPC   C1B35263   9.490   7.440   8.564
 2628POPC   C2B35264   9.542   7.381   8.264
 2628POPC   C3B35265   9.475   7.434   7.964
 2628POPC   C4B35266   9.486   7.435   7.664
 2629POPC   NC335267  43.841   9.791   9.464
 2629POPC   PO435268  43.921   9.726   9.164
 2629POPC   GL135269  43.839   9.753   8.864
 2629POPC   GL235270  43.749   9.852   8.864
 2629POPC   C1A35271  43.872   9.763   8.564
 2629POPC   D2A35272  43.854   9.739   8.264
 2629POPC   C3A35273  43.856   9.713   7.964
 2629POPC   C4A35274  43.919   9.775   7.664
 2629POPC   C1B35275  43.736   9.950   8.564
 2629POPC   C2B35276  43.695   9.948   8.264
 2629POPC   C3B35277  43.722   9.879   7.964
 2629POPC   C4B35278  43.720   9.862   7.664
 2630POPC   NC335279   7.379  43.887   9.464
 2630POPC   PO435280   7.458  43.880   9.164
 2630POPC   GL135281   7.383  43.872   8.864
 2630POPC   GL235282   7.408  43.751   8.864
 2630POPC   C1A35283   7.454  43.884   8.564
 2630POPC   D2A35284   7.407  43.887   8.264
 2630POPC   C3A35285   7.390  43.922   7.964
 2630POPC   C4A35286   7.429  43.858   7.664
 2630POPC   C1B35287   7.441  43.592   8.564
 2630POPC   C2B35288   7.432  43.626   8.264
 2630POPC   C3B35289   7.416  43.615   7.964
 2630POPC   C4B35290   7.442  43.628   7.664
 2631POPC   NC335291  11.261  14.423   9.464
 2631POPC   PO435292  11.314  14.427   9.164
 2631POPC   GL135293  11.299  14.380   8.864
 2631POPC   GL235294  11.301  14.270   8.864
 2631POPC   C1A35295  11.311  14.389   8.564
 2631POPC   D2A35296  11.252  14.371   8.264
 2631POPC   C3A35297  11.342  14.370   7.964
 2631POPC   C4A35298  11.347  14.433   7.664
 2631POPC   C1B35299  11.394  14.140   8.564
 2631POPC   C2B35300  11.443  14.215   8.264
 2631POPC   C3B35301  11.432  14.187   7.964
 2631POPC   C4B35302  11.367  14.147   7.664
 2632POPC   NC335303  24.452  19.806   9.464
 2632POPC   PO435304  24.517  19.803   9.164
 2632POPC   GL135305  24.460  19.875   8.864
 2632POPC   GL235306  24.486  19.760   8.864
 2632POPC   C1A35307  24.444  19.857   8.564
 2632POPC   D2A35308  24.503  19.845   8.264
 2632POPC   C3A35309  24.529  19.794   7.964
 2632POPC   C4A35310  24.518  19.844   7.664
 2632POPC   C1B35311  24.381  19.655   8.564
 2632POPC   C2B35312  24.427  19.575   8.264
 2632POPC   C3B35313  24.427  19.598   7.964
 2632POPC   C4B35314  24.425  19.638   7.664
 2633POPC   NC335315  26.809  12.055   9.464
 2633POPC   PO435316  26.779  12.047   9.164
 2633POPC   GL135317  26.799  12.097   8.864
 2633POPC   GL235318  26.816  11.996   8.864
 2633POPC   C1A35319  26.801  12.037   8.564
 2633POPC   D2A35320  26.798  12.101   8.264
 2633POPC   C3A35321  26.790  12.095   7.964
 2633POPC   C4A35322  26.823  12.092   7.664
 2633POPC   C1B35323  26.721  11.797   8.564
 2633POPC   C2B35324  26.729  11.871   8.264
 2633POPC   C3B35325  26.774  11.867   7.964
 2633POPC   C4B35326  26.812  11.852   7.664
 2634POPC   NC335327  37.699   6.669   9.464
 2634POPC   PO435328  37.719   6.674   9.164
 2634POPC   GL135329  37.715   6.600   8.864
 2634POPC   GL235330  37.572   6.682   8.864
 2634POPC   C1A35331  37.666   6.688   8.564
 2634POPC   D2A35332  37.649   6.683   8.264
 2634POPC   C3A35333  37.643   6.628   7.964
 2634POPC   C4A35334  37.654   6.642   7.664
 2634POPC   C1B35335  37.425   6.689   8.564
 2634POPC   C2B35336  37.478   6.727   8.264
 2634POPC   C3B35337  37.393   6.713   7.964
 2634POPC   C4B35338  37.446   6.746   7.664
 2635POPC   NC335339  26.038  24.454   9.464
 2635POPC   PO435340  25.999  24.501   9.164
 2635POPC   GL135341  26.025  24.444   8.864
 2635POPC   GL235342  26.011  24.594   8.864
 2635POPC   C1A35343  26.053  24.474   8.564
 2635POPC   D2A35344  26.022  24.459   8.264
 2635POPC   C3A35345  26.002  24.455   7.964
 2635POPC   C4A35346  25.997  24.517   7.664
 2635POPC   C1B35347  26.023  24.780   8.564
 2635POPC   C2B35348  25.972  24.682   8.264
 2635POPC   C3B35349  26.019  24.780   7.964
 2635POPC   C4B35350  26.002  24.721   7.664
 2636POPC   NC335351   0.460  19.021   9.464
 2636POPC   PO435352   0.452  19.097   9.164
 2636POPC   GL135353   0.482  19.089   8.864
 2636POPC   GL235354   0.436  18.919   8.864
 2636POPC   C1A35355   0.466  19.013   8.564
 2636POPC   D2A35356   0.393  19.064   8.264
 2636POPC   C3A35357   0.401  19.024   7.964
 2636POPC   C4A35358   0.418  19.104   7.664
 2636POPC   C1B35359   0.428  18.776   8.564
 2636POPC   C2B35360   0.417  18.776   8.264
 2636POPC   C3B35361   0.423  18.794   7.964
 2636POPC   C4B35362   0.375  18.802   7.664
 2637POPC   NC335363   1.183  12.124   9.464
 2637POPC   PO435364   1.194  12.108   9.164
 2637POPC   GL135365   1.250  12.083   8.864
 2637POPC   GL235366   1.119  12.029   8.864
 2637POPC   C1A35367   1.213  12.039   8.564
 2637POPC   D2A35368   1.261  12.069   8.264
 2637POPC   C3A35369   1.209  12.113   7.964
 2637POPC   C4A35370   1.233  12.081   7.664
 2637POPC   C1B35371   1.019  12.003   8.564
 2637POPC   C2B35372   1.014  12.046   8.264
 2637POPC   C3B35373   0.997  12.052   7.964
 2637POPC   C4B35374   0.985  11.982   7.664
 2638POPC   NC335375  21.371   3.535   9.464
 2638POPC   PO435376  21.392   3.546   9.164
 2638POPC   GL135377  21.356   3.530   8.864
 2638POPC   GL235378  21.280   3.682   8.864
 2638POPC   C1A35379  21.354   3.516   8.564
 2638POPC   D2A35380  21.428   3.580   8.264
 2638POPC   C3A35381  21.350   3.504   7.964
 2638POPC   C4A35382  21.401   3.565   7.664
 2638POPC   C1B35383  21.280   3.804   8.564
 2638POPC   C2B35384  21.317   3.770   8.264
 2638POPC   C3B35385  21.226   3.736   7.964
 2638POPC   C4B35386  21.316   3.785   7.664
 2639POPC   NC335387  36.101   1.198   9.464
 2639POPC   PO435388  36.087   1.256   9.164
 2639POPC   GL135389  36.133   1.221   8.864
 2639POPC   GL235390  36.142   1.301   8.864
 2639POPC   C1A35391  36.089   1.189   8.564
 2639POPC   D2A35392  36.099   1.213   8.264
 2639POPC   C3A35393  36.103   1.209   7.964
 2639POPC   C4A35394  36.161   1.209   7.664
 2639POPC   C1B35395  36.065   1.481   8.564
 2639POPC   C2B35396  36.031   1.455   8.264
 2639POPC   C3B35397  36.064   1.457   7.964
 2639POPC   C4B35398  36.078   1.421   7.664
 2640POPC   NC335399  36.915  16.741   9.464
 2640POPC   PO435400  36.889  16.724   9.164
 2640POPC   GL135401  36.905  16.768   8.864
 2640POPC   GL235402  36.988  16.683   8.864
 2640POPC   C1A35403  36.945  16.709   8.564
 2640POPC   D2A35404  36.939  16.702   8.264
 2640POPC   C3A35405  36.872  16.682   7.964
 2640POPC   C4A35406  36.875  16.697   7.664
 2640POPC   C1B35407  37.113  16.597   8.564
 2640POPC   C2B35408  37.068  16.522   8.264
 2640POPC   C3B35409  37.077  16.605   7.964
 2640POPC   C4B35410  37.122  16.599   7.664
 2641POPC   NC335411  21.384  16.693   9.464
 2641POPC   PO435412  21.432  16.696   9.164
 2641POPC   GL135413  21.398  16.707   8.864
 2641POPC   GL235414  21.333  16.826   8.864
 2641POPC   C1A35415  21.360  16.730   8.564
 2641POPC   D2A35416  21.412  16.697   8.264
 2641POPC   C3A35417  21.360  16.717   7.964
 2641POPC   C4A35418  21.368  16.718   7.664
 2641POPC   C1B35419  21.182  16.904   8.564
 2641POPC   C2B35420  21.200  16.900   8.264
 2641POPC   C3B35421  21.235  16.860   7.964
 2641POPC   C4B35422  21.142  16.899   7.664
 2642POPC   NC335423   5.879  12.094   9.464
 2642POPC   PO435424   5.849  12.045   9.164
 2642POPC   GL135425   5.824  12.103   8.864
 2642POPC   GL235426   5.868  12.188   8.864
 2642POPC   C1A35427   5.836  12.053   8.564
 2642POPC   D2A35428   5.865  12.103   8.264
 2642POPC   C3A35429   5.825  12.068   7.964
 2642POPC   C4A35430   5.889  12.096   7.664
 2642POPC   C1B35431   5.749  12.314   8.564
 2642POPC   C2B35432   5.800  12.281   8.264
 2642POPC   C3B35433   5.732  12.335   7.964
 2642POPC   C4B35434   5.748  12.287   7.664
 2643POPC   NC335435  36.892  39.190   9.464
 2643POPC   PO435436  36.862  39.230   9.164
 2643POPC   GL135437  36.929  39.262   8.864
 2643POPC   GL235438  36.939  39.356   8.864
 2643POPC   C1A35439  36.894  39.234   8.564
 2643POPC   D2A35440  36.928  39.257   8.264
 2643POPC   C3A35441  36.908  39.215   7.964
 2643POPC   C4A35442  36.897  39.269   7.664
 2643POPC   C1B35443  36.936  39.495   8.564
 2643POPC   C2B35444  36.940  39.439   8.264
 2643POPC   C3B35445  36.955  39.504   7.964
 2643POPC   C4B35446  37.028  39.473   7.664
 2644POPC   NC335447  12.889  26.800   9.464
 2644POPC   PO435448  12.874  26.840   9.164
 2644POPC   GL135449  12.828  26.808   8.864
 2644POPC   GL235450  12.907  26.962   8.864
 2644POPC   C1A35451  12.838  26.784   8.564
 2644POPC   D2A35452  12.853  26.825   8.264
 2644POPC   C3A35453  12.820  26.832   7.964
 2644POPC   C4A35454  12.895  26.854   7.664
 2644POPC   C1B35455  12.994  27.048   8.564
 2644POPC   C2B35456  12.970  27.019   8.264
 2644POPC   C3B35457  12.951  27.044   7.964
 2644POPC   C4B35458  12.990  27.059   7.664
 2645POPC   NC335459  26.783  27.587   9.464
 2645POPC   PO435460  26.781  27.570   9.164
 2645POPC   GL135461  26.792  27.576   8.864
 2645POPC   GL235462  26.779  27.519   8.864
 2645POPC   C1A35463  26.835  27.585   8.564
 2645POPC   D2A35464  26.768  27.638   8.264
 2645POPC   C3A35465  26.841  27.552   7.964
 2645POPC   C4A35466  26.799  27.563   7.664
 2645POPC   C1B35467  26.703  27.352   8.564
 2645POPC   C2B35468  26.723  27.389   8.264
 2645POPC   C3B35469  26.684  27.383   7.964
 2645POPC   C4B35470  26.753  27.389   7.664
 2646POPC   NC335471  39.205  36.121   9.464
 2646POPC   PO435472  39.212  36.121   9.164
 2646POPC   GL135473  39.239  36.107   8.864
 2646POPC   GL235474  39.273  35.979   8.864
 2646POPC   C1A35475  39.260  36.135   8.564
 2646POPC   D2A35476  39.269  36.128   8.264
 2646POPC   C3A35477  39.223  36.126   7.964
 2646POPC   C4A35478  39.206  36.101   7.664
 2646POPC   C1B35479  39.279  35.854   8.564
 2646POPC   C2B35480  39.250  35.866   8.264
 2646POPC   C3B35481  39.239  35.907   7.964
 2646POPC   C4B35482  39.247  35.849   7.664
 2647POPC   NC335483  21.383  38.443   9.464
 2647POPC   PO435484  21.395  38.442   9.164
 2647POPC   GL135485  21.381  38.421   8.864
 2647POPC   GL235486  21.409  38.307   8.864
 2647POPC   C1A35487  21.358  38.493   8.564
 2647POPC   D2A35488  21.359  38.421   8.264
 2647POPC   C3A35489  21.378  38.500   7.964
 2647POPC   C4A35490  21.376  38.435   7.664
 2647POPC   C1B35491  21.370  38.249   8.564
 2647POPC   C2B35492  21.368  38.217   8.264
 2647POPC   C3B35493  21.391  38.233   7.964
 2647POPC   C4B35494  21.334  38.210   7.664
 2648POPC   NC335495  12.044  17.501   9.464
 2648POPC   PO435496  12.101  17.467   9.164
 2648POPC   GL135497  12.031  17.541   8.864
 2648POPC   GL235498  12.129  17.656   8.864
 2648POPC   C1A35499  12.085  17.553   8.564
 2648POPC   D2A35500  12.035  17.462   8.264
 2648POPC   C3A35501  12.103  17.549   7.964
 2648POPC   C4A35502  12.083  17.463   7.664
 2648POPC   C1B35503  12.131  17.724   8.564
 2648POPC   C2B35504  12.157  17.782   8.264
 2648POPC   C3B35505  12.138  17.737   7.964
 2648POPC   C4B35506  12.106  17.721   7.664
 2649POPC   NC335507   1.199  23.717   9.464
 2649POPC   PO435508   1.200  23.677   9.164
 2649POPC   GL135509   1.167  23.753   8.864
 2649POPC   GL235510   1.069  23.728   8.864
 2649POPC   C1A35511   1.227  23.721   8.564
 2649POPC   D2A35512   1.219  23.753   8.264
 2649POPC   C3A35513   1.260  23.718   7.964
 2649POPC   C4A35514   1.210  23.740   7.664
 2649POPC   C1B35515   0.952  23.835   8.564
 2649POPC   C2B35516   0.982  23.826   8.264
 2649POPC   C3B35517   0.975  23.831   7.964
 2649POPC   C4B35518   0.998  23.833   7.664
 2650POPC   NC335519  24.512  28.331   9.464
 2650POPC   PO435520  24.473  28.389   9.164
 2650POPC   GL135521  24.479  28.389   8.864
 2650POPC   GL235522  24.453  28.296   8.864
 2650POPC   C1A35523  24.476  28.326   8.564
 2650POPC   D2A35524  24.499  28.330   8.264
 2650POPC   C3A35525  24.472  28.326   7.964
 2650POPC   C4A35526  24.539  28.387   7.664
 2650POPC   C1B35527  24.380  28.153   8.564
 2650POPC   C2B35528  24.371  28.176   8.264
 2650POPC   C3B35529  24.357  28.167   7.964
 2650POPC   C4B35530  24.378  28.176   7.664
 2651POPC   NC335531  19.805  24.498   9.464
 2651POPC   PO435532  19.838  24.449   9.164
 2651POPC   GL135533  19.884  24.534   8.864
 2651POPC   GL235534  19.680  24.485   8.864
 2651POPC   C1A35535  19.882  24.479   8.564
 2651POPC   D2A35536  19.823  24.489   8.264
 2651POPC   C3A35537  19.841  24.505   7.964
 2651POPC   C4A35538  19.809  24.474   7.664
 2651POPC   C1B35539  19.594  24.411   8.564
 2651POPC   C2B35540  19.632  24.414   8.264
 2651POPC   C3B35541  19.602  24.434   7.964
 2651POPC   C4B35542  19.591  24.366   7.664
 2652POPC   NC335543  10.506  27.566   9.464
 2652POPC   PO435544  10.552  27.560   9.164
 2652POPC   GL135545  10.518  27.610   8.864
 2652POPC   GL235546  10.433  27.727   8.864
 2652POPC   C1A35547  10.541  27.627   8.564
 2652POPC   D2A35548  10.519  27.641   8.264
 2652POPC   C3A35549  10.526  27.592   7.964
 2652POPC   C4A35550  10.495  27.581   7.664
 2652POPC   C1B35551  10.350  27.763   8.564
 2652POPC   C2B35552  10.325  27.729   8.264
 2652POPC   C3B35553  10.395  27.739   7.964
 2652POPC   C4B35554  10.387  27.767   7.664
 2653POPC   NC335555   5.111  40.805   9.464
 2653POPC   PO435556   5.103  40.788   9.164
 2653POPC   GL135557   5.049  40.807   8.864
 2653POPC   GL235558   5.090  40.949   8.864
 2653POPC   C1A35559   5.106  40.787   8.564
 2653POPC   D2A35560   5.058  40.818   8.264
 2653POPC   C3A35561   5.118  40.742   7.964
 2653POPC   C4A35562   5.056  40.825   7.664
 2653POPC   C1B35563   5.165  41.010   8.564
 2653POPC   C2B35564   5.197  40.981   8.264
 2653POPC   C3B35565   5.189  41.072   7.964
 2653POPC   C4B35566   5.142  41.010   7.664
 2654POPC   NC335567  37.722  11.345   9.464
 2654POPC   PO435568  37.676  11.274   9.164
 2654POPC   GL135569  37.691  11.331   8.864
 2654POPC   GL235570  37.697  11.460   8.864
 2654POPC   C1A35571  37.638  11.273   8.564
 2654POPC   D2A35572  37.671  11.298   8.264
 2654POPC   C3A35573  37.679  11.331   7.964
 2654POPC   C4A35574  37.642  11.345   7.664
 2654POPC   C1B35575  37.645  11.580   8.564
 2654POPC   C2B35576  37.630  11.570   8.264
 2654POPC   C3B35577  37.614  11.563   7.964
 2654POPC   C4B35578  37.658  11.563   7.664
 2655POPC   NC335579  12.836  17.480   9.464
 2655POPC   PO435580  12.890  17.458   9.164
 2655POPC   GL135581  12.892  17.512   8.864
 2655POPC   GL235582  12.954  17.407   8.864
 2655POPC   C1A35583  12.870  17.522   8.564
 2655POPC   D2A35584  12.853  17.485   8.264
 2655POPC   C3A35585  12.834  17.487   7.964
 2655POPC   C4A35586  12.803  17.472   7.664
 2655POPC   C1B35587  13.021  17.349   8.564
 2655POPC   C2B35588  13.089  17.340   8.264
 2655POPC   C3B35589  13.031  17.400   7.964
 2655POPC   C4B35590  13.112  17.364   7.664
 2656POPC   NC335591   2.734   9.699   9.464
 2656POPC   PO435592   2.722   9.766   9.164
 2656POPC   GL135593   2.758   9.716   8.864
 2656POPC   GL235594   2.671   9.598   8.864
 2656POPC   C1A35595   2.733   9.737   8.564
 2656POPC   D2A35596   2.768   9.763   8.264
 2656POPC   C3A35597   2.734   9.708   7.964
 2656POPC   C4A35598   2.744   9.746   7.664
 2656POPC   C1B35599   2.699   9.542   8.564
 2656POPC   C2B35600   2.689   9.529   8.264
 2656POPC   C3B35601   2.700   9.483   7.964
 2656POPC   C4B35602   2.692   9.557   7.664
 2657POPC   NC335603  31.432  37.710   9.464
 2657POPC   PO435604  31.490  37.671   9.164
 2657POPC   GL135605  31.475  37.672   8.864
 2657POPC   GL235606  31.634  37.708   8.864
 2657POPC   C1A35607  31.451  37.638   8.564
 2657POPC   D2A35608  31.483  37.706   8.264
 2657POPC   C3A35609  31.494  37.678   7.964
 2657POPC   C4A35610  31.472  37.713   7.664
 2657POPC   C1B35611  31.696  37.747   8.564
 2657POPC   C2B35612  31.703  37.712   8.264
 2657POPC   C3B35613  31.672  37.759   7.964
 2657POPC   C4B35614  31.678  37.725   7.664
 2658POPC   NC335615  19.829  38.491   9.464
 2658POPC   PO435616  19.788  38.447   9.164
 2658POPC   GL135617  19.798  38.481   8.864
 2658POPC   GL235618  19.758  38.344   8.864
 2658POPC   C1A35619  19.873  38.445   8.564
 2658POPC   D2A35620  19.814  38.495   8.264
 2658POPC   C3A35621  19.837  38.449   7.964
 2658POPC   C4A35622  19.792  38.497   7.664
 2658POPC   C1B35623  19.784  38.258   8.564
 2658POPC   C2B35624  19.757  38.196   8.264
 2658POPC   C3B35625  19.789  38.257   7.964
 2658POPC   C4B35626  19.748  38.196   7.664
 2659POPC   NC335627   9.005  28.416   9.464
 2659POPC   PO435628   8.996  28.408   9.164
 2659POPC   GL135629   8.964  28.364   8.864
 2659POPC   GL235630   9.068  28.284   8.864
 2659POPC   C1A35631   8.946  28.372   8.564
 2659POPC   D2A35632   8.943  28.363   8.264
 2659POPC   C3A35633   8.982  28.329   7.964
 2659POPC   C4A35634   9.005  28.352   7.664
 2659POPC   C1B35635   9.123  28.159   8.564
 2659POPC   C2B35636   9.074  28.154   8.264
 2659POPC   C3B35637   9.087  28.134   7.964
 2659POPC   C4B35638   9.078  28.166   7.664
 2660POPC   NC335639   1.252   6.654   9.464
 2660POPC   PO435640   1.259   6.676   9.164
 2660POPC   GL135641   1.221   6.676   8.864
 2660POPC   GL235642   1.139   6.764   8.864
 2660POPC   C1A35643   1.253   6.651   8.564
 2660POPC   D2A35644   1.218   6.639   8.264
 2660POPC   C3A35645   1.211   6.622   7.964
 2660POPC   C4A35646   1.220   6.664   7.664
 2660POPC   C1B35647   1.069   6.913   8.564
 2660POPC   C2B35648   1.070   6.827   8.264
 2660POPC   C3B35649   1.117   6.861   7.964
 2660POPC   C4B35650   1.160   6.885   7.664
 2661POPC   NC335651  19.841   4.281   9.464
 2661POPC   PO435652  19.867   4.332   9.164
 2661POPC   GL135653  19.822   4.283   8.864
 2661POPC   GL235654  19.739   4.376   8.864
 2661POPC   C1A35655  19.854   4.324   8.564
 2661POPC   D2A35656  19.872   4.330   8.264
 2661POPC   C3A35657  19.827   4.360   7.964
 2661POPC   C4A35658  19.788   4.332   7.664
 2661POPC   C1B35659  19.704   4.505   8.564
 2661POPC   C2B35660  19.668   4.561   8.264
 2661POPC   C3B35661  19.738   4.494   7.964
 2661POPC   C4B35662  19.660   4.541   7.664
 2662POPC   NC335663  44.621  15.156   9.464
 2662POPC   PO435664  44.702  15.186   9.164
 2662POPC   GL135665  44.688  15.199   8.864
 2662POPC   GL235666  44.773  15.283   8.864
 2662POPC   C1A35667  44.686  15.221   8.564
 2662POPC   D2A35668  44.658  15.216   8.264
 2662POPC   C3A35669  44.658  15.202   7.964
 2662POPC   C4A35670  44.618  15.155   7.664
 2662POPC   C1B35671  44.881  15.343   8.564
 2662POPC   C2B35672  44.887  15.297   8.264
 2662POPC   C3B35673  44.881  15.297   7.964
 2662POPC   C4B35674  44.872  15.356   7.664
 2663POPC   NC335675  12.823  25.302   9.464
 2663POPC   PO435676  12.836  25.273   9.164
 2663POPC   GL135677  12.840  25.238   8.864
 2663POPC   GL235678  12.756  25.339   8.864
 2663POPC   C1A35679  12.867  25.229   8.564
 2663POPC   D2A35680  12.822  25.280   8.264
 2663POPC   C3A35681  12.819  25.292   7.964
 2663POPC   C4A35682  12.849  25.278   7.664
 2663POPC   C1B35683  12.760  25.453   8.564
 2663POPC   C2B35684  12.675  25.451   8.264
 2663POPC   C3B35685  12.725  25.487   7.964
 2663POPC   C4B35686  12.697  25.450   7.664
 2664POPC   NC335687  27.549  10.530   9.464
 2664POPC   PO435688  27.564  10.531   9.164
 2664POPC   GL135689  27.563  10.548   8.864
 2664POPC   GL235690  27.491  10.395   8.864
 2664POPC   C1A35691  27.620  10.482   8.564
 2664POPC   D2A35692  27.555  10.542   8.264
 2664POPC   C3A35693  27.625  10.490   7.964
 2664POPC   C4A35694  27.555  10.507   7.664
 2664POPC   C1B35695  27.451  10.343   8.564
 2664POPC   C2B35696  27.360  10.324   8.264
 2664POPC   C3B35697  27.440  10.323   7.964
 2664POPC   C4B35698  27.381  10.387   7.664
 2665POPC   NC335699  26.814  16.691   9.464
 2665POPC   PO435700  26.815  16.728   9.164
 2665POPC   GL135701  26.805  16.715   8.864
 2665POPC   GL235702  26.834  16.645   8.864
 2665POPC   C1A35703  26.813  16.685   8.564
 2665POPC   D2A35704  26.827  16.780   8.264
 2665POPC   C3A35705  26.837  16.778   7.964
 2665POPC   C4A35706  26.852  16.775   7.664
 2665POPC   C1B35707  26.791  16.527   8.564
 2665POPC   C2B35708  26.764  16.503   8.264
 2665POPC   C3B35709  26.823  16.500   7.964
 2665POPC   C4B35710  26.809  16.449   7.664
 2666POPC   NC335711  43.873  39.192   9.464
 2666POPC   PO435712  43.862  39.273   9.164
 2666POPC   GL135713  43.848  39.200   8.864
 2666POPC   GL235714  43.968  39.307   8.864
 2666POPC   C1A35715  43.891  39.181   8.564
 2666POPC   D2A35716  43.912  39.183   8.264
 2666POPC   C3A35717  43.918  39.261   7.964
 2666POPC   C4A35718  43.919  39.237   7.664
 2666POPC   C1B35719  44.116  39.352   8.564
 2666POPC   C2B35720  44.024  39.371   8.264
 2666POPC   C3B35721  44.117  39.400   7.964
 2666POPC   C4B35722  44.058  39.403   7.664
 2667POPC   NC335723  16.713  40.050   9.464
 2667POPC   PO435724  16.718  40.051   9.164
 2667POPC   GL135725  16.752  40.005   8.864
 2667POPC   GL235726  16.837  40.062   8.864
 2667POPC   C1A35727  16.729  40.024   8.564
 2667POPC   D2A35728  16.734  40.005   8.264
 2667POPC   C3A35729  16.755  39.971   7.964
 2667POPC   C4A35730  16.776  40.039   7.664
 2667POPC   C1B35731  16.892  40.177   8.564
 2667POPC   C2B35732  16.938  40.175   8.264
 2667POPC   C3B35733  16.917  40.213   7.964
 2667POPC   C4B35734  16.951  40.209   7.664
 2668POPC   NC335735   1.241  10.553   9.464
 2668POPC   PO435736   1.241  10.561   9.164
 2668POPC   GL135737   1.192  10.506   8.864
 2668POPC   GL235738   1.159  10.630   8.864
 2668POPC   C1A35739   1.190  10.494   8.564
 2668POPC   D2A35740   1.247  10.485   8.264
 2668POPC   C3A35741   1.255  10.537   7.964
 2668POPC   C4A35742   1.167  10.480   7.664
 2668POPC   C1B35743   1.064  10.682   8.564
 2668POPC   C2B35744   1.069  10.738   8.264
 2668POPC   C3B35745   1.063  10.776   7.964
 2668POPC   C4B35746   1.032  10.747   7.664
 2669POPC   NC335747  43.143   3.568   9.464
 2669POPC   PO435748  43.155   3.542   9.164
 2669POPC   GL135749  43.126   3.585   8.864
 2669POPC   GL235750  43.180   3.616   8.864
 2669POPC   C1A35751  43.100   3.512   8.564
 2669POPC   D2A35752  43.106   3.582   8.264
 2669POPC   C3A35753  43.093   3.579   7.964
 2669POPC   C4A35754  43.120   3.586   7.664
 2669POPC   C1B35755  43.350   3.657   8.564
 2669POPC   C2B35756  43.346   3.629   8.264
 2669POPC   C3B35757  43.348   3.636   7.964
 2669POPC   C4B35758  43.294   3.630   7.664
 2670POPC   NC335759  40.773   3.590   9.464
 2670POPC   PO435760  40.742   3.521   9.164
 2670POPC   GL135761  40.759   3.583   8.864
 2670POPC   GL235762  40.881   3.401   8.864
 2670POPC   C1A35763  40.790   3.529   8.564
 2670POPC   D2A35764  40.764   3.555   8.264
 2670POPC   C3A35765  40.819   3.518   7.964
 2670POPC   C4A35766  40.794   3.541   7.664
 2670POPC   C1B35767  40.875   3.276   8.564
 2670POPC   C2B35768  40.849   3.337   8.264
 2670POPC   C3B35769  40.897   3.322   7.964
 2670POPC   C4B35770  40.931   3.324   7.664
 2671POPC   NC335771  22.155  17.507   9.464
 2671POPC   PO435772  22.210  17.514   9.164
 2671POPC   GL135773  22.171  17.526   8.864
 2671POPC   GL235774  22.200  17.355   8.864
 2671POPC   C1A35775  22.151  17.529   8.564
 2671POPC   D2A35776  22.201  17.498   8.264
 2671POPC   C3A35777  22.186  17.540   7.964
 2671POPC   C4A35778  22.115  17.520   7.664
 2671POPC   C1B35779  22.231  17.234   8.564
 2671POPC   C2B35780  22.300  17.266   8.264
 2671POPC   C3B35781  22.312  17.251   7.964
 2671POPC   C4B35782  22.261  17.308   7.664
 2672POPC   NC335783  12.036  15.139   9.464
 2672POPC   PO435784  12.058  15.173   9.164
 2672POPC   GL135785  12.101  15.134   8.864
 2672POPC   GL235786  12.153  15.064   8.864
 2672POPC   C1A35787  12.026  15.168   8.564
 2672POPC   D2A35788  12.064  15.146   8.264
 2672POPC   C3A35789  12.103  15.186   7.964
 2672POPC   C4A35790  12.083  15.146   7.664
 2672POPC   C1B35791  12.181  14.953   8.564
 2672POPC   C2B35792  12.100  14.927   8.264
 2672POPC   C3B35793  12.109  14.986   7.964
 2672POPC   C4B35794  12.132  14.940   7.664
 2673POPC   NC335795  26.815   1.233   9.464
 2673POPC   PO435796  26.821   1.183   9.164
 2673POPC   GL135797  26.781   1.264   8.864
 2673POPC   GL235798  26.785   1.301   8.864
 2673POPC   C1A35799  26.837   1.213   8.564
 2673POPC   D2A35800  26.815   1.211   8.264
 2673POPC   C3A35801  26.791   1.257   7.964
 2673POPC   C4A35802  26.827   1.240   7.664
 2673POPC   C1B35803  26.663   1.402   8.564
 2673POPC   C2B35804  26.675   1.433   8.264
 2673POPC   C3B35805  26.681   1.433   7.964
 2673POPC   C4B35806  26.714   1.443   7.664
 2674POPC   NC335807  12.101   0.461   9.464
 2674POPC   PO435808  12.105   0.413   9.164
 2674POPC   GL135809  12.037   0.470   8.864
 2674POPC   GL235810  12.105   0.574   8.864
 2674POPC   C1A35811  12.119   0.416   8.564
 2674POPC   D2A35812  12.035   0.407   8.264
 2674POPC   C3A35813  12.078   0.456   7.964
 2674POPC   C4A35814  12.032   0.458   7.664
 2674POPC   C1B35815  12.017   0.704   8.564
 2674POPC   C2B35816  12.039   0.707   8.264
 2674POPC   C3B35817  12.084   0.713   7.964
 2674POPC   C4B35818  12.019   0.724   7.664
 2675POPC   NC335819   7.470  22.974   9.464
 2675POPC   PO435820   7.381  22.922   9.164
 2675POPC   GL135821   7.460  22.948   8.864
 2675POPC   GL235822   7.274  22.936   8.864
 2675POPC   C1A35823   7.463  22.904   8.564
 2675POPC   D2A35824   7.442  22.942   8.264
 2675POPC   C3A35825   7.456  22.968   7.964
 2675POPC   C4A35826   7.415  22.919   7.664
 2675POPC   C1B35827   7.223  22.822   8.564
 2675POPC   C2B35828   7.237  22.875   8.264
 2675POPC   C3B35829   7.166  22.871   7.964
 2675POPC   C4B35830   7.205  22.884   7.664
 2676POPC   NC335831  44.644  39.976   9.464
 2676POPC   PO435832  44.657  40.004   9.164
 2676POPC   GL135833  44.614  40.030   8.864
 2676POPC   GL235834  44.692  40.132   8.864
 2676POPC   C1A35835  44.652  39.999   8.564
 2676POPC   D2A35836  44.690  39.998   8.264
 2676POPC   C3A35837  44.699  39.963   7.964
 2676POPC   C4A35838  44.680  39.970   7.664
 2676POPC   C1B35839  44.719  40.282   8.564
 2676POPC   C2B35840  44.679  40.267   8.264
 2676POPC   C3B35841  44.696  40.280   7.964
 2676POPC   C4B35842  44.661  40.261   7.664
 2677POPC   NC335843  30.712  39.188   9.464
 2677POPC   PO435844  30.713  39.184   9.164
 2677POPC   GL135845  30.653  39.219   8.864
 2677POPC   GL235846  30.760  39.364   8.864
 2677POPC   C1A35847  30.730  39.201   8.564
 2677POPC   D2A35848  30.676  39.245   8.264
 2677POPC   C3A35849  30.719  39.229   7.964
 2677POPC   C4A35850  30.684  39.273   7.664
 2677POPC   C1B35851  30.794  39.451   8.564
 2677POPC   C2B35852  30.817  39.478   8.264
 2677POPC   C3B35853  30.849  39.418   7.964
 2677POPC   C4B35854  30.785  39.435   7.664
 2678POPC   NC335855  19.042  12.096   9.464
 2678POPC   PO435856  19.077  12.091   9.164
 2678POPC   GL135857  19.092  12.046   8.864
 2678POPC   GL235858  19.088  12.171   8.864
 2678POPC   C1A35859  19.019  12.052   8.564
 2678POPC   D2A35860  19.067  12.050   8.264
 2678POPC   C3A35861  19.022  12.096   7.964
 2678POPC   C4A35862  19.074  12.091   7.664
 2678POPC   C1B35863  19.197  12.275   8.564
 2678POPC   C2B35864  19.142  12.311   8.264
 2678POPC   C3B35865  19.149  12.340   7.964
 2678POPC   C4B35866  19.159  12.274   7.664
 2679POPC   NC335867  13.591  15.221   9.464
 2679POPC   PO435868  13.631  15.169   9.164
 2679POPC   GL135869  13.669  15.207   8.864
 2679POPC   GL235870  13.575  15.076   8.864
 2679POPC   C1A35871  13.654  15.207   8.564
 2679POPC   D2A35872  13.599  15.166   8.264
 2679POPC   C3A35873  13.672  15.205   7.964
 2679POPC   C4A35874  13.611  15.175   7.664
 2679POPC   C1B35875  13.544  14.975   8.564
 2679POPC   C2B35876  13.600  14.968   8.264
 2679POPC   C3B35877  13.562  14.958   7.964
 2679POPC   C4B35878  13.562  14.963   7.664
 2680POPC   NC335879  26.775  19.023   9.464
 2680POPC   PO435880  26.827  19.045   9.164
 2680POPC   GL135881  26.796  19.019   8.864
 2680POPC   GL235882  26.925  19.067   8.864
 2680POPC   C1A35883  26.779  19.090   8.564
 2680POPC   D2A35884  26.795  19.042   8.264
 2680POPC   C3A35885  26.863  19.022   7.964
 2680POPC   C4A35886  26.780  19.083   7.664
 2680POPC   C1B35887  27.076  19.020   8.564
 2680POPC   C2B35888  27.090  18.994   8.264
 2680POPC   C3B35889  27.031  18.973   7.964
 2680POPC   C4B35890  27.110  19.031   7.664
 2681POPC   NC335891  37.696  15.911   9.464
 2681POPC   PO435892  37.721  15.910   9.164
 2681POPC   GL135893  37.675  15.985   8.864
 2681POPC   GL235894  37.581  16.014   8.864
 2681POPC   C1A35895  37.711  15.971   8.564
 2681POPC   D2A35896  37.643  16.004   8.264
 2681POPC   C3A35897  37.641  15.994   7.964
 2681POPC   C4A35898  37.636  15.921   7.664
 2681POPC   C1B35899  37.414  16.095   8.564
 2681POPC   C2B35900  37.459  16.084   8.264
 2681POPC   C3B35901  37.457  16.069   7.964
 2681POPC   C4B35902  37.411  16.093   7.664
 2682POPC   NC335903   2.767  19.838   9.464
 2682POPC   PO435904   2.814  19.837   9.164
 2682POPC   GL135905   2.811  19.848   8.864
 2682POPC   GL235906   2.677  19.859   8.864
 2682POPC   C1A35907   2.802  19.867   8.564
 2682POPC   D2A35908   2.742  19.853   8.264
 2682POPC   C3A35909   2.760  19.832   7.964
 2682POPC   C4A35910   2.755  19.853   7.664
 2682POPC   C1B35911   2.542  19.837   8.564
 2682POPC   C2B35912   2.477  19.852   8.264
 2682POPC   C3B35913   2.518  19.869   7.964
 2682POPC   C4B35914   2.467  19.900   7.664
 2683POPC   NC335915   3.519  19.860   9.464
 2683POPC   PO435916   3.504  19.811   9.164
 2683POPC   GL135917   3.548  19.882   8.864
 2683POPC   GL235918   3.409  19.861   8.864
 2683POPC   C1A35919   3.500  19.803   8.564
 2683POPC   D2A35920   3.504  19.801   8.264
 2683POPC   C3A35921   3.533  19.858   7.964
 2683POPC   C4A35922   3.532  19.883   7.664
 2683POPC   C1B35923   3.320  19.928   8.564
 2683POPC   C2B35924   3.338  19.919   8.264
 2683POPC   C3B35925   3.296  19.888   7.964
 2683POPC   C4B35926   3.356  19.968   7.664
 2684POPC   NC335927   5.134  26.849   9.464
 2684POPC   PO435928   5.048  26.834   9.164
 2684POPC   GL135929   5.138  26.810   8.864
 2684POPC   GL235930   5.001  26.907   8.864
 2684POPC   C1A35931   5.076  26.845   8.564
 2684POPC   D2A35932   5.048  26.829   8.264
 2684POPC   C3A35933   5.084  26.855   7.964
 2684POPC   C4A35934   5.110  26.827   7.664
 2684POPC   C1B35935   4.916  26.896   8.564
 2684POPC   C2B35936   4.875  26.976   8.264
 2684POPC   C3B35937   4.921  26.963   7.964
 2684POPC   C4B35938   4.841  26.905   7.664
 2685POPC   NC335939  31.436  18.319   9.464
 2685POPC   PO435940  31.491  18.288   9.164
 2685POPC   GL135941  31.438  18.328   8.864
 2685POPC   GL235942  31.390  18.271   8.864
 2685POPC   C1A35943  31.479  18.244   8.564
 2685POPC   D2A35944  31.460  18.283   8.264
 2685POPC   C3A35945  31.516  18.321   7.964
 2685POPC   C4A35946  31.429  18.278   7.664
 2685POPC   C1B35947  31.268  18.266   8.564
 2685POPC   C2B35948  31.206  18.247   8.264
 2685POPC   C3B35949  31.197  18.232   7.964
 2685POPC   C4B35950  31.268  18.169   7.664
 2686POPC   NC335951  27.614  42.342   9.464
 2686POPC   PO435952  27.614  42.346   9.164
 2686POPC   GL135953  27.551  42.308   8.864
 2686POPC   GL235954  27.474  42.263   8.864
 2686POPC   C1A35955  27.628  42.376   8.564
 2686POPC   D2A35956  27.575  42.345   8.264
 2686POPC   C3A35957  27.628  42.373   7.964
 2686POPC   C4A35958  27.638  42.322   7.664
 2686POPC   C1B35959  27.416  42.223   8.564
 2686POPC   C2B35960  27.371  42.179   8.264
 2686POPC   C3B35961  27.426  42.218   7.964
 2686POPC   C4B35962  27.413  42.164   7.664
 2687POPC   NC335963   5.066  25.287   9.464
 2687POPC   PO435964   5.064  25.310   9.164
 2687POPC   GL135965   5.110  25.260   8.864
 2687POPC   GL235966   5.210  25.320   8.864
 2687POPC   C1A35967   5.059  25.239   8.564
 2687POPC   D2A35968   5.061  25.281   8.264
 2687POPC   C3A35969   5.074  25.218   7.964
 2687POPC   C4A35970   5.085  25.271   7.664
 2687POPC   C1B35971   5.282  25.343   8.564
 2687POPC   C2B35972   5.358  25.324   8.264
 2687POPC   C3B35973   5.269  25.328   7.964
 2687POPC   C4B35974   5.321  25.388   7.664
 2688POPC   NC335975  21.424  12.075   9.464
 2688POPC   PO435976  21.376  12.039   9.164
 2688POPC   GL135977  21.337  12.074   8.864
 2688POPC   GL235978  21.303  12.202   8.864
 2688POPC   C1A35979  21.398  12.113   8.564
 2688POPC   D2A35980  21.368  12.069   8.264
 2688POPC   C3A35981  21.344  12.085   7.964
 2688POPC   C4A35982  21.379  12.036   7.664
 2688POPC   C1B35983  21.209  12.304   8.564
 2688POPC   C2B35984  21.274  12.332   8.264
 2688POPC   C3B35985  21.203  12.281   7.964
 2688POPC   C4B35986  21.278  12.263   7.664
 2689POPC   NC335987  17.494  34.571   9.464
 2689POPC   PO435988  17.542  34.597   9.164
 2689POPC   GL135989  17.498  34.583   8.864
 2689POPC   GL235990  17.412  34.547   8.864
 2689POPC   C1A35991  17.481  34.564   8.564
 2689POPC   D2A35992  17.502  34.581   8.264
 2689POPC   C3A35993  17.506  34.623   7.964
 2689POPC   C4A35994  17.529  34.603   7.664
 2689POPC   C1B35995  17.257  34.442   8.564
 2689POPC   C2B35996  17.295  34.399   8.264
 2689POPC   C3B35997  17.267  34.471   7.964
 2689POPC   C4B35998  17.301  34.466   7.664
 2690POPC   NC335999  43.903  40.790   9.464
 2690POPC   PO436000  43.887  40.810   9.164
 2690POPC   GL136001  43.932  40.743   8.864
 2690POPC   GL236002  43.722  40.724   8.864
 2690POPC   C1A36003  43.912  40.831   8.564
 2690POPC   D2A36004  43.896  40.807   8.264
 2690POPC   C3A36005  43.851  40.737   7.964
 2690POPC   C4A36006  43.887  40.752   7.664
 2690POPC   C1B36007  43.683  40.713   8.564
 2690POPC   C2B36008  43.621  40.750   8.264
 2690POPC   C3B36009  43.606  40.694   7.964
 2690POPC   C4B36010  43.648  40.723   7.664
 2691POPC   NC336011  44.689   8.208   9.464
 2691POPC   PO436012  44.675   8.196   9.164
 2691POPC   GL136013  44.682   8.166   8.864
 2691POPC   GL236014  44.649   8.369   8.864
 2691POPC   C1A36015  44.635   8.147   8.564
 2691POPC   D2A36016  44.689   8.175   8.264
 2691POPC   C3A36017  44.694   8.168   7.964
 2691POPC   C4A36018  44.691   8.218   7.664
 2691POPC   C1B36019  44.678   8.433   8.564
 2691POPC   C2B36020  44.715   8.400   8.264
 2691POPC   C3B36021  44.724   8.451   7.964
 2691POPC   C4B36022  44.691   8.467   7.664
 2692POPC   NC336023  17.475  36.162   9.464
 2692POPC   PO436024  17.500  36.152   9.164
 2692POPC   GL136025  17.462  36.163   8.864
 2692POPC   GL236026  17.453  36.242   8.864
 2692POPC   C1A36027  17.542  36.170   8.564
 2692POPC   D2A36028  17.516  36.158   8.264
 2692POPC   C3A36029  17.549  36.176   7.964
 2692POPC   C4A36030  17.532  36.170   7.664
 2692POPC   C1B36031  17.404  36.353   8.564
 2692POPC   C2B36032  17.495  36.368   8.264
 2692POPC   C3B36033  17.438  36.411   7.964
 2692POPC   C4B36034  17.433  36.358   7.664
 2693POPC   NC336035  12.833  43.071   9.464
 2693POPC   PO436036  12.859  43.093   9.164
 2693POPC   GL136037  12.892  43.084   8.864
 2693POPC   GL236038  12.934  43.129   8.864
 2693POPC   C1A36039  12.842  43.084   8.564
 2693POPC   D2A36040  12.852  43.101   8.264
 2693POPC   C3A36041  12.884  43.094   7.964
 2693POPC   C4A36042  12.819  43.064   7.664
 2693POPC   C1B36043  13.149  43.102   8.564
 2693POPC   C2B36044  13.091  43.149   8.264
 2693POPC   C3B36045  13.057  43.184   7.964
 2693POPC   C4B36046  13.075  43.126   7.664
 2694POPC   NC336047   3.502  39.995   9.464
 2694POPC   PO436048   3.545  39.986   9.164
 2694POPC   GL136049   3.579  39.961   8.864
 2694POPC   GL236050   3.624  39.920   8.864
 2694POPC   C1A36051   3.560  40.028   8.564
 2694POPC   D2A36052   3.545  40.031   8.264
 2694POPC   C3A36053   3.492  39.996   7.964
 2694POPC   C4A36054   3.571  40.001   7.664
 2694POPC   C1B36055   3.620  39.738   8.564
 2694POPC   C2B36056   3.673  39.746   8.264
 2694POPC   C3B36057   3.621  39.767   7.964
 2694POPC   C4B36058   3.598  39.731   7.664
 2695POPC   NC336059   3.591  27.632   9.464
 2695POPC   PO436060   3.582  27.584   9.164
 2695POPC   GL136061   3.561  27.588   8.864
 2695POPC   GL236062   3.479  27.676   8.864
 2695POPC   C1A36063   3.558  27.625   8.564
 2695POPC   D2A36064   3.547  27.605   8.264
 2695POPC   C3A36065   3.494  27.641   7.964
 2695POPC   C4A36066   3.492  27.586   7.664
 2695POPC   C1B36067   3.318  27.767   8.564
 2695POPC   C2B36068   3.342  27.711   8.264
 2695POPC   C3B36069   3.317  27.711   7.964
 2695POPC   C4B36070   3.315  27.750   7.664
 2696POPC   NC336071  24.483  23.699   9.464
 2696POPC   PO436072  24.506  23.729   9.164
 2696POPC   GL136073  24.509  23.684   8.864
 2696POPC   GL236074  24.412  23.829   8.864
 2696POPC   C1A36075  24.518  23.687   8.564
 2696POPC   D2A36076  24.478  23.741   8.264
 2696POPC   C3A36077  24.457  23.670   7.964
 2696POPC   C4A36078  24.517  23.755   7.664
 2696POPC   C1B36079  24.311  23.899   8.564
 2696POPC   C2B36080  24.304  23.912   8.264
 2696POPC   C3B36081  24.373  23.878   7.964
 2696POPC   C4B36082  24.374  23.909   7.664
 2697POPC   NC336083   2.765  18.298   9.464
 2697POPC   PO436084   2.722  18.288   9.164
 2697POPC   GL136085   2.791  18.300   8.864
 2697POPC   GL236086   2.819  18.445   8.864
 2697POPC   C1A36087   2.755  18.258   8.564
 2697POPC   D2A36088   2.717  18.242   8.264
 2697POPC   C3A36089   2.762  18.324   7.964
 2697POPC   C4A36090   2.794  18.310   7.664
 2697POPC   C1B36091   2.867  18.466   8.564
 2697POPC   C2B36092   2.885  18.495   8.264
 2697POPC   C3B36093   2.893  18.463   7.964
 2697POPC   C4B36094   2.828  18.537   7.664
 2698POPC   NC336095  43.855  32.214   9.464
 2698POPC   PO436096  43.862  32.291   9.164
 2698POPC   GL136097  43.898  32.243   8.864
 2698POPC   GL236098  43.962  32.312   8.864
 2698POPC   C1A36099  43.900  32.276   8.564
 2698POPC   D2A36100  43.907  32.260   8.264
 2698POPC   C3A36101  43.928  32.256   7.964
 2698POPC   C4A36102  43.862  32.292   7.664
 2698POPC   C1B36103  44.139  32.361   8.564
 2698POPC   C2B36104  44.143  32.402   8.264
 2698POPC   C3B36105  44.073  32.384   7.964
 2698POPC   C4B36106  44.131  32.329   7.664
 2699POPC   NC336107  14.365  36.874   9.464
 2699POPC   PO436108  14.401  36.891   9.164
 2699POPC   GL136109  14.371  36.905   8.864
 2699POPC   GL236110  14.442  37.000   8.864
 2699POPC   C1A36111  14.354  36.916   8.564
 2699POPC   D2A36112  14.399  36.926   8.264
 2699POPC   C3A36113  14.441  36.899   7.964
 2699POPC   C4A36114  14.441  36.878   7.664
 2699POPC   C1B36115  14.514  37.143   8.564
 2699POPC   C2B36116  14.550  37.105   8.264
 2699POPC   C3B36117  14.510  37.112   7.964
 2699POPC   C4B36118  14.593  37.088   7.664
 2700POPC   NC336119  13.667  22.198   9.464
 2700POPC   PO436120  13.615  22.206   9.164
 2700POPC   GL136121  13.582  22.208   8.864
 2700POPC   GL236122  13.717  22.299   8.864
 2700POPC   C1A36123  13.599  22.179   8.564
 2700POPC   D2A36124  13.625  22.140   8.264
 2700POPC   C3A36125  13.626  22.192   7.964
 2700POPC   C4A36126  13.623  22.205   7.664
 2700POPC   C1B36127  13.778  22.375   8.564
 2700POPC   C2B36128  13.799  22.372   8.264
 2700POPC   C3B36129  13.816  22.343   7.964
 2700POPC   C4B36130  13.784  22.340   7.664
 2701POPC   NC336131   8.973  43.915   9.464
 2701POPC   PO436132   8.939  43.918   9.164
 2701POPC   GL136133   9.012  43.860   8.864
 2701POPC   GL236134   9.137  43.865   8.864
 2701POPC   C1A36135   8.969  43.869   8.564
 2701POPC   D2A36136   8.943  43.926   8.264
 2701POPC   C3A36137   9.016  43.906   7.964
 2701POPC   C4A36138   8.964  43.847   7.664
 2701POPC   C1B36139   9.241  43.977   8.564
 2701POPC   C2B36140   9.259  43.911   8.264
 2701POPC   C3B36141   9.245  43.915   7.964
 2701POPC   C4B36142   9.236  43.940   7.664
 2702POPC   NC336143  20.649   8.952   9.464
 2702POPC   PO436144  20.565   8.940   9.164
 2702POPC   GL136145  20.651   8.992   8.864
 2702POPC   GL236146  20.557   9.045   8.864
 2702POPC   C1A36147  20.639   9.006   8.564
 2702POPC   D2A36148  20.601   8.975   8.264
 2702POPC   C3A36149  20.568   8.938   7.964
 2702POPC   C4A36150  20.592   8.927   7.664
 2702POPC   C1B36151  20.553   9.216   8.564
 2702POPC   C2B36152  20.546   9.180   8.264
 2702POPC   C3B36153  20.503   9.192   7.964
 2702POPC   C4B36154  20.491   9.169   7.664
 2703POPC   NC336155  30.728  40.753   9.464
 2703POPC   PO436156  30.684  40.756   9.164
 2703POPC   GL136157  30.658  40.735   8.864
 2703POPC   GL236158  30.607  40.670   8.864
 2703POPC   C1A36159  30.694  40.803   8.564
 2703POPC   D2A36160  30.740  40.742   8.264
 2703POPC   C3A36161  30.681  40.767   7.964
 2703POPC   C4A36162  30.737  40.772   7.664
 2703POPC   C1B36163  30.528  40.629   8.564
 2703POPC   C2B36164  30.536  40.535   8.264
 2703POPC   C3B36165  30.510  40.565   7.964
 2703POPC   C4B36166  30.528  40.555   7.664
 2704POPC   NC336167  32.984   5.875   9.464
 2704POPC   PO436168  33.040   5.832   9.164
 2704POPC   GL136169  32.984   5.898   8.864
 2704POPC   GL236170  32.967   5.759   8.864
 2704POPC   C1A36171  33.062   5.897   8.564
 2704POPC   D2A36172  33.044   5.896   8.264
 2704POPC   C3A36173  33.023   5.829   7.964
 2704POPC   C4A36174  33.052   5.834   7.664
 2704POPC   C1B36175  32.892   5.691   8.564
 2704POPC   C2B36176  32.871   5.681   8.264
 2704POPC   C3B36177  32.881   5.720   7.964
 2704POPC   C4B36178  32.860   5.644   7.664
 2705POPC   NC336179  41.544  39.971   9.464
 2705POPC   PO436180  41.559  40.034   9.164
 2705POPC   GL136181  41.565  40.032   8.864
 2705POPC   GL236182  41.575  40.160   8.864
 2705POPC   C1A36183  41.547  40.041   8.564
 2705POPC   D2A36184  41.559  40.002   8.264
 2705POPC   C3A36185  41.590  40.052   7.964
 2705POPC   C4A36186  41.582  39.973   7.664
 2705POPC   C1B36187  41.603  40.220   8.564
 2705POPC   C2B36188  41.602  40.220   8.264
 2705POPC   C3B36189  41.674  40.273   7.964
 2705POPC   C4B36190  41.586  40.208   7.664
 2706POPC   NC336191   2.762   7.396   9.464
 2706POPC   PO436192   2.804   7.374   9.164
 2706POPC   GL136193   2.809   7.455   8.864
 2706POPC   GL236194   2.816   7.575   8.864
 2706POPC   C1A36195   2.742   7.412   8.564
 2706POPC   D2A36196   2.780   7.470   8.264
 2706POPC   C3A36197   2.773   7.424   7.964
 2706POPC   C4A36198   2.772   7.387   7.664
 2706POPC   C1B36199   2.895   7.642   8.564
 2706POPC   C2B36200   2.846   7.631   8.264
 2706POPC   C3B36201   2.904   7.641   7.964
 2706POPC   C4B36202   2.866   7.652   7.664
 2707POPC   NC336203  35.375  12.125   9.464
 2707POPC   PO436204  35.322  12.122   9.164
 2707POPC   GL136205  35.353  12.071   8.864
 2707POPC   GL236206  35.377  12.225   8.864
 2707POPC   C1A36207  35.306  12.034   8.564
 2707POPC   D2A36208  35.401  12.034   8.264
 2707POPC   C3A36209  35.386  12.069   7.964
 2707POPC   C4A36210  35.358  12.099   7.664
 2707POPC   C1B36211  35.452  12.280   8.564
 2707POPC   C2B36212  35.444  12.362   8.264
 2707POPC   C3B36213  35.372  12.356   7.964
 2707POPC   C4B36214  35.429  12.318   7.664
 2708POPC   NC336215  25.281  22.973   9.464
 2708POPC   PO436216  25.231  22.913   9.164
 2708POPC   GL136217  25.269  22.931   8.864
 2708POPC   GL236218  25.207  22.782   8.864
 2708POPC   C1A36219  25.264  22.910   8.564
 2708POPC   D2A36220  25.277  22.977   8.264
 2708POPC   C3A36221  25.305  22.939   7.964
 2708POPC   C4A36222  25.255  22.968   7.664
 2708POPC   C1B36223  25.224  22.686   8.564
 2708POPC   C2B36224  25.172  22.674   8.264
 2708POPC   C3B36225  25.222  22.739   7.964
 2708POPC   C4B36226  25.182  22.707   7.664
 2709POPC   NC336227  23.754  11.273   9.464
 2709POPC   PO436228  23.702  11.279   9.164
 2709POPC   GL136229  23.755  11.311   8.864
 2709POPC   GL236230  23.590  11.184   8.864
 2709POPC   C1A36231  23.678  11.342   8.564
 2709POPC   D2A36232  23.679  11.313   8.264
 2709POPC   C3A36233  23.668  11.267   7.964
 2709POPC   C4A36234  23.727  11.298   7.664
 2709POPC   C1B36235  23.563  11.180   8.564
 2709POPC   C2B36236  23.553  11.106   8.264
 2709POPC   C3B36237  23.489  11.118   7.964
 2709POPC   C4B36238  23.519  11.111   7.664
 2710POPC   NC336239  15.911   9.709   9.464
 2710POPC   PO436240  15.993   9.759   9.164
 2710POPC   GL136241  15.986   9.715   8.864
 2710POPC   GL236242  15.819   9.689   8.864
 2710POPC   C1A36243  15.976   9.757   8.564
 2710POPC   D2A36244  15.946   9.761   8.264
 2710POPC   C3A36245  15.914   9.703   7.964
 2710POPC   C4A36246  15.967   9.767   7.664
 2710POPC   C1B36247  15.772   9.582   8.564
 2710POPC   C2B36248  15.738   9.597   8.264
 2710POPC   C3B36249  15.822   9.570   7.964
 2710POPC   C4B36250  15.768   9.592   7.664
 2711POPC   NC336251  33.023  19.860   9.464
 2711POPC   PO436252  33.055  19.803   9.164
 2711POPC   GL136253  33.018  19.794   8.864
 2711POPC   GL236254  33.111  19.854   8.864
 2711POPC   C1A36255  32.989  19.817   8.564
 2711POPC   D2A36256  33.050  19.836   8.264
 2711POPC   C3A36257  33.067  19.861   7.964
 2711POPC   C4A36258  33.002  19.862   7.664
 2711POPC   C1B36259  33.204  19.924   8.564
 2711POPC   C2B36260  33.267  19.987   8.264
 2711POPC   C3B36261  33.260  19.932   7.964
 2711POPC   C4B36262  33.281  19.947   7.664
 2712POPC   NC336263  19.037   1.217   9.464
 2712POPC   PO436264  19.108   1.184   9.164
 2712POPC   GL136265  19.106   1.205   8.864
 2712POPC   GL236266  19.015   1.314   8.864
 2712POPC   C1A36267  19.060   1.172   8.564
 2712POPC   D2A36268  19.053   1.209   8.264
 2712POPC   C3A36269  19.053   1.259   7.964
 2712POPC   C4A36270  19.097   1.216   7.664
 2712POPC   C1B36271  18.926   1.449   8.564
 2712POPC   C2B36272  18.955   1.432   8.264
 2712POPC   C3B36273  19.004   1.492   7.964
 2712POPC   C4B36274  19.008   1.407   7.664
 2713POPC   NC336275  31.469  38.477   9.464
 2713POPC   PO436276  31.441  38.409   9.164
 2713POPC   GL136277  31.507  38.413   8.864
 2713POPC   GL236278  31.554  38.371   8.864
 2713POPC   C1A36279  31.435  38.406   8.564
 2713POPC   D2A36280  31.474  38.416   8.264
 2713POPC   C3A36281  31.520  38.466   7.964
 2713POPC   C4A36282  31.478  38.459   7.664
 2713POPC   C1B36283  31.634  38.273   8.564
 2713POPC   C2B36284  31.684  38.276   8.264
 2713POPC   C3B36285  31.667  38.313   7.964
 2713POPC   C4B36286  31.688  38.289   7.664
 2714POPC   NC336287  22.176  38.440   9.464
 2714POPC   PO436288  22.157  38.495   9.164
 2714POPC   GL136289  22.194  38.422   8.864
 2714POPC   GL236290  22.220  38.581   8.864
 2714POPC   C1A36291  22.150  38.496   8.564
 2714POPC   D2A36292  22.132  38.489   8.264
 2714POPC   C3A36293  22.181  38.463   7.964
 2714POPC   C4A36294  22.163  38.461   7.664
 2714POPC   C1B36295  22.241  38.717   8.564
 2714POPC   C2B36296  22.206  38.712   8.264
 2714POPC   C3B36297  22.216  38.740   7.964
 2714POPC   C4B36298  22.260  38.720   7.664
 2715POPC   NC336299  10.484  13.593   9.464
 2715POPC   PO436300  10.508  13.674   9.164
 2715POPC   GL136301  10.557  13.662   8.864
 2715POPC   GL236302  10.607  13.612   8.864
 2715POPC   C1A36303  10.517  13.658   8.564
 2715POPC   D2A36304  10.481  13.618   8.264
 2715POPC   C3A36305  10.528  13.657   7.964
 2715POPC   C4A36306  10.542  13.670   7.664
 2715POPC   C1B36307  10.741  13.466   8.564
 2715POPC   C2B36308  10.794  13.462   8.264
 2715POPC   C3B36309  10.756  13.490   7.964
 2715POPC   C4B36310  10.708  13.550   7.664
 2716POPC   NC336311   0.409   6.673   9.464
 2716POPC   PO436312   0.446   6.597   9.164
 2716POPC   GL136313   0.396   6.617   8.864
 2716POPC   GL236314   0.412   6.520   8.864
 2716POPC   C1A36315   0.472   6.602   8.564
 2716POPC   D2A36316   0.407   6.627   8.264
 2716POPC   C3A36317   0.424   6.622   7.964
 2716POPC   C4A36318   0.422   6.650   7.664
 2716POPC   C1B36319   0.412   6.363   8.564
 2716POPC   C2B36320   0.355   6.420   8.264
 2716POPC   C3B36321   0.375   6.372   7.964
 2716POPC   C4B36322   0.414   6.404   7.664
 2717POPC   NC336323  34.612  19.815   9.464
 2717POPC   PO436324  34.529  19.793   9.164
 2717POPC   GL136325  34.576  19.848   8.864
 2717POPC   GL236326  34.716  19.767   8.864
 2717POPC   C1A36327  34.607  19.867   8.564
 2717POPC   D2A36328  34.546  19.833   8.264
 2717POPC   C3A36329  34.623  19.880   7.964
 2717POPC   C4A36330  34.537  19.813   7.664
 2717POPC   C1B36331  34.792  19.721   8.564
 2717POPC   C2B36332  34.834  19.728   8.264
 2717POPC   C3B36333  34.832  19.702   7.964
 2717POPC   C4B36334  34.825  19.787   7.664
 2718POPC   NC336335  36.867   2.022   9.464
 2718POPC   PO436336  36.912   2.005   9.164
 2718POPC   GL136337  36.893   1.959   8.864
 2718POPC   GL236338  36.890   1.874   8.864
 2718POPC   C1A36339  36.872   1.983   8.564
 2718POPC   D2A36340  36.940   1.988   8.264
 2718POPC   C3A36341  36.951   1.989   7.964
 2718POPC   C4A36342  36.903   2.039   7.664
 2718POPC   C1B36343  36.930   1.755   8.564
 2718POPC   C2B36344  36.936   1.773   8.264
 2718POPC   C3B36345  36.913   1.745   7.964
 2718POPC   C4B36346  36.915   1.744   7.664
 2719POPC   NC336347  26.783  14.374   9.464
 2719POPC   PO436348  26.808  14.410   9.164
 2719POPC   GL136349  26.789  14.452   8.864
 2719POPC   GL236350  26.743  14.483   8.864
 2719POPC   C1A36351  26.857  14.418   8.564
 2719POPC   D2A36352  26.811  14.432   8.264
 2719POPC   C3A36353  26.798  14.391   7.964
 2719POPC   C4A36354  26.790  14.369   7.664
 2719POPC   C1B36355  26.667  14.593   8.564
 2719POPC   C2B36356  26.598  14.618   8.264
 2719POPC   C3B36357  26.678  14.532   7.964
 2719POPC   C4B36358  26.584  14.574   7.664
 2720POPC   NC336359  40.765   8.196   9.464
 2720POPC   PO436360  40.810   8.182   9.164
 2720POPC   GL136361  40.818   8.193   8.864
 2720POPC   GL236362  40.670   8.181   8.864
 2720POPC   C1A36363  40.744   8.151   8.564
 2720POPC   D2A36364  40.800   8.204   8.264
 2720POPC   C3A36365  40.738   8.213   7.964
 2720POPC   C4A36366  40.799   8.212   7.664
 2720POPC   C1B36367  40.603   8.059   8.564
 2720POPC   C2B36368  40.510   8.045   8.264
 2720POPC   C3B36369  40.509   8.114   7.964
 2720POPC   C4B36370  40.581   8.122   7.664
 2721POPC   NC336371   8.197  32.225   9.464
 2721POPC   PO436372   8.147  32.237   9.164
 2721POPC   GL136373   8.148  32.266   8.864
 2721POPC   GL236374   8.234  32.183   8.864
 2721POPC   C1A36375   8.184  32.294   8.564
 2721POPC   D2A36376   8.158  32.252   8.264
 2721POPC   C3A36377   8.204  32.264   7.964
 2721POPC   C4A36378   8.206  32.229   7.664
 2721POPC   C1B36379   8.336  32.076   8.564
 2721POPC   C2B36380   8.361  31.990   8.264
 2721POPC   C3B36381   8.323  31.986   7.964
 2721POPC   C4B36382   8.296  31.999   7.664
 2722POPC   NC336383  32.294  39.209   9.464
 2722POPC   PO436384  32.273  39.205   9.164
 2722POPC   GL136385  32.275  39.222   8.864
 2722POPC   GL236386  32.344  39.189   8.864
 2722POPC   C1A36387  32.279  39.246   8.564
 2722POPC   D2A36388  32.222  39.277   8.264
 2722POPC   C3A36389  32.241  39.189   7.964
 2722POPC   C4A36390  32.244  39.274   7.664
 2722POPC   C1B36391  32.499  39.150   8.564
 2722POPC   C2B36392  32.427  39.127   8.264
 2722POPC   C3B36393  32.438  39.093   7.964
 2722POPC   C4B36394  32.459  39.132   7.664
 2723POPC   NC336395  12.080  41.517   9.464
 2723POPC   PO436396  12.051  41.518   9.164
 2723POPC   GL136397  12.080  41.522   8.864
 2723POPC   GL236398  11.966  41.470   8.864
 2723POPC   C1A36399  12.123  41.550   8.564
 2723POPC   D2A36400  12.095  41.540   8.264
 2723POPC   C3A36401  12.106  41.577   7.964
 2723POPC   C4A36402  12.035  41.529   7.664
 2723POPC   C1B36403  11.886  41.406   8.564
 2723POPC   C2B36404  11.853  41.403   8.264
 2723POPC   C3B36405  11.819  41.470   7.964
 2723POPC   C4B36406  11.904  41.405   7.664
 2724POPC   NC336407  33.058  41.531   9.464
 2724POPC   PO436408  33.052  41.588   9.164
 2724POPC   GL136409  33.060  41.573   8.864
 2724POPC   GL236410  32.920  41.611   8.864
 2724POPC   C1A36411  33.041  41.604   8.564
 2724POPC   D2A36412  33.027  41.581   8.264
 2724POPC   C3A36413  33.052  41.583   7.964
 2724POPC   C4A36414  33.074  41.527   7.664
 2724POPC   C1B36415  32.805  41.635   8.564
 2724POPC   C2B36416  32.745  41.612   8.264
 2724POPC   C3B36417  32.735  41.567   7.964
 2724POPC   C4B36418  32.766  41.592   7.664
 2725POPC   NC336419  22.210  36.103   9.464
 2725POPC   PO436420  22.198  36.123   9.164
 2725POPC   GL136421  22.174  36.084   8.864
 2725POPC   GL236422  22.141  35.999   8.864
 2725POPC   C1A36423  22.187  36.109   8.564
 2725POPC   D2A36424  22.146  36.082   8.264
 2725POPC   C3A36425  22.200  36.166   7.964
 2725POPC   C4A36426  22.156  36.080   7.664
 2725POPC   C1B36427  22.039  35.915   8.564
 2725POPC   C2B36428  22.087  35.873   8.264
 2725POPC   C3B36429  22.071  35.919   7.964
 2725POPC   C4B36430  22.033  35.949   7.664
 2726POPC   NC336431   8.927  33.064   9.464
 2726POPC   PO436432   8.961  32.984   9.164
 2726POPC   GL136433   9.006  33.067   8.864
 2726POPC   GL236434   8.832  32.948   8.864
 2726POPC   C1A36435   8.954  33.061   8.564
 2726POPC   D2A36436   8.922  33.019   8.264
 2726POPC   C3A36437   8.928  33.046   7.964
 2726POPC   C4A36438   8.927  33.061   7.664
 2726POPC   C1B36439   8.810  32.925   8.564
 2726POPC   C2B36440   8.729  32.858   8.264
 2726POPC   C3B36441   8.734  32.887   7.964
 2726POPC   C4B36442   8.760  32.929   7.664
 2727POPC   NC336443  34.549  18.272   9.464
 2727POPC   PO436444  34.588  18.328   9.164
 2727POPC   GL136445  34.589  18.320   8.864
 2727POPC   GL236446  34.638  18.326   8.864
 2727POPC   C1A36447  34.603  18.273   8.564
 2727POPC   D2A36448  34.537  18.317   8.264
 2727POPC   C3A36449  34.570  18.258   7.964
 2727POPC   C4A36450  34.555  18.323   7.664
 2727POPC   C1B36451  34.752  18.427   8.564
 2727POPC   C2B36452  34.771  18.495   8.264
 2727POPC   C3B36453  34.695  18.437   7.964
 2727POPC   C4B36454  34.732  18.467   7.664
 2728POPC   NC336455  13.642  33.795   9.464
 2728POPC   PO436456  13.616  33.762   9.164
 2728POPC   GL136457  13.660  33.813   8.864
 2728POPC   GL236458  13.555  33.755   8.864
 2728POPC   C1A36459  13.665  33.812   8.564
 2728POPC   D2A36460  13.674  33.845   8.264
 2728POPC   C3A36461  13.660  33.755   7.964
 2728POPC   C4A36462  13.590  33.802   7.664
 2728POPC   C1B36463  13.367  33.717   8.564
 2728POPC   C2B36464  13.377  33.691   8.264
 2728POPC   C3B36465  13.440  33.724   7.964
 2728POPC   C4B36466  13.398  33.662   7.664
 2729POPC   NC336467  43.114   9.723   9.464
 2729POPC   PO436468  43.091   9.712   9.164
 2729POPC   GL136469  43.124   9.716   8.864
 2729POPC   GL236470  43.131   9.834   8.864
 2729POPC   C1A36471  43.125   9.783   8.564
 2729POPC   D2A36472  43.113   9.717   8.264
 2729POPC   C3A36473  43.156   9.749   7.964
 2729POPC   C4A36474  43.070   9.772   7.664
 2729POPC   C1B36475  43.122   9.998   8.564
 2729POPC   C2B36476  43.084  10.021   8.264
 2729POPC   C3B36477  43.050  10.032   7.964
 2729POPC   C4B36478  43.100   9.996   7.664
 2730POPC   NC336479   1.991  33.768   9.464
 2730POPC   PO436480   2.009  33.798   9.164
 2730POPC   GL136481   2.016  33.843   8.864
 2730POPC   GL236482   2.076  33.657   8.864
 2730POPC   C1A36483   1.940  33.841   8.564
 2730POPC   D2A36484   1.967  33.844   8.264
 2730POPC   C3A36485   2.000  33.829   7.964
 2730POPC   C4A36486   2.020  33.754   7.664
 2730POPC   C1B36487   2.110  33.560   8.564
 2730POPC   C2B36488   2.175  33.635   8.264
 2730POPC   C3B36489   2.112  33.597   7.964
 2730POPC   C4B36490   2.162  33.621   7.664
 2731POPC   NC336491  34.592   4.296   9.464
 2731POPC   PO436492  34.619   4.357   9.164
 2731POPC   GL136493  34.579   4.328   8.864
 2731POPC   GL236494  34.676   4.221   8.864
 2731POPC   C1A36495  34.562   4.296   8.564
 2731POPC   D2A36496  34.554   4.366   8.264
 2731POPC   C3A36497  34.554   4.276   7.964
 2731POPC   C4A36498  34.575   4.345   7.664
 2731POPC   C1B36499  34.787   4.213   8.564
 2731POPC   C2B36500  34.781   4.170   8.264
 2731POPC   C3B36501  34.734   4.212   7.964
 2731POPC   C4B36502  34.750   4.211   7.664
 2732POPC   NC336503  39.236  19.090   9.464
 2732POPC   PO436504  39.244  19.011   9.164
 2732POPC   GL136505  39.273  19.033   8.864
 2732POPC   GL236506  39.310  19.044   8.864
 2732POPC   C1A36507  39.212  19.106   8.564
 2732POPC   D2A36508  39.240  19.016   8.264
 2732POPC   C3A36509  39.187  19.069   7.964
 2732POPC   C4A36510  39.188  19.036   7.664
 2732POPC   C1B36511  39.447  18.983   8.564
 2732POPC   C2B36512  39.513  18.968   8.264
 2732POPC   C3B36513  39.455  18.958   7.964
 2732POPC   C4B36514  39.469  19.004   7.664
 2733POPC   NC336515   8.172  25.220   9.464
 2733POPC   PO436516   8.217  25.310   9.164
 2733POPC   GL136517   8.197  25.222   8.864
 2733POPC   GL236518   8.171  25.388   8.864
 2733POPC   C1A36519   8.213  25.257   8.564
 2733POPC   D2A36520   8.162  25.284   8.264
 2733POPC   C3A36521   8.180  25.247   7.964
 2733POPC   C4A36522   8.153  25.247   7.664
 2733POPC   C1B36523   8.111  25.472   8.564
 2733POPC   C2B36524   8.100  25.530   8.264
 2733POPC   C3B36525   8.073  25.468   7.964
 2733POPC   C4B36526   8.158  25.498   7.664
 2734POPC   NC336527  12.055  15.940   9.464
 2734POPC   PO436528  12.048  16.000   9.164
 2734POPC   GL136529  12.062  15.989   8.864
 2734POPC   GL236530  12.166  15.844   8.864
 2734POPC   C1A36531  12.058  15.951   8.564
 2734POPC   D2A36532  12.040  15.913   8.264
 2734POPC   C3A36533  12.064  15.954   7.964
 2734POPC   C4A36534  12.043  15.949   7.664
 2734POPC   C1B36535  12.236  15.818   8.564
 2734POPC   C2B36536  12.286  15.832   8.264
 2734POPC   C3B36537  12.260  15.830   7.964
 2734POPC   C4B36538  12.256  15.769   7.664
 2735POPC   NC336539  24.508  20.585   9.464
 2735POPC   PO436540  24.494  20.658   9.164
 2735POPC   GL136541  24.516  20.609   8.864
 2735POPC   GL236542  24.372  20.536   8.864
 2735POPC   C1A36543  24.442  20.651   8.564
 2735POPC   D2A36544  24.532  20.655   8.264
 2735POPC   C3A36545  24.532  20.614   7.964
 2735POPC   C4A36546  24.459  20.618   7.664
 2735POPC   C1B36547  24.297  20.413   8.564
 2735POPC   C2B36548  24.341  20.440   8.264
 2735POPC   C3B36549  24.337  20.385   7.964
 2735POPC   C4B36550  24.322  20.430   7.664
 2736POPC   NC336551  37.687  39.985   9.464
 2736POPC   PO436552  37.648  40.039   9.164
 2736POPC   GL136553  37.695  39.972   8.864
 2736POPC   GL236554  37.676  40.113   8.864
 2736POPC   C1A36555  37.721  39.974   8.564
 2736POPC   D2A36556  37.651  39.958   8.264
 2736POPC   C3A36557  37.666  40.046   7.964
 2736POPC   C4A36558  37.695  39.975   7.664
 2736POPC   C1B36559  37.735  40.266   8.564
 2736POPC   C2B36560  37.756  40.275   8.264
 2736POPC   C3B36561  37.741  40.291   7.964
 2736POPC   C4B36562  37.745  40.234   7.664
 2737POPC   NC336563  16.709  11.291   9.464
 2737POPC   PO436564  16.700  11.349   9.164
 2737POPC   GL136565  16.730  11.341   8.864
 2737POPC   GL236566  16.620  11.251   8.864
 2737POPC   C1A36567  16.731  11.255   8.564
 2737POPC   D2A36568  16.695  11.281   8.264
 2737POPC   C3A36569  16.758  11.318   7.964
 2737POPC   C4A36570  16.774  11.287   7.664
 2737POPC   C1B36571  16.499  11.244   8.564
 2737POPC   C2B36572  16.493  11.277   8.264
 2737POPC   C3B36573  16.457  11.278   7.964
 2737POPC   C4B36574  16.449  11.287   7.664
 2738POPC   NC336575   8.227  19.023   9.464
 2738POPC   PO436576   8.245  19.020   9.164
 2738POPC   GL136577   8.151  19.023   8.864
 2738POPC   GL236578   8.101  18.980   8.864
 2738POPC   C1A36579   8.229  19.070   8.564
 2738POPC   D2A36580   8.172  19.088   8.264
 2738POPC   C3A36581   8.208  19.078   7.964
 2738POPC   C4A36582   8.189  19.026   7.664
 2738POPC   C1B36583   7.927  18.921   8.564
 2738POPC   C2B36584   7.967  18.968   8.264
 2738POPC   C3B36585   7.976  19.001   7.964
 2738POPC   C4B36586   7.959  18.998   7.664
 2739POPC   NC336587  29.134   8.185   9.464
 2739POPC   PO436588  29.100   8.147   9.164
 2739POPC   GL136589  29.135   8.168   8.864
 2739POPC   GL236590  29.201   8.338   8.864
 2739POPC   C1A36591  29.132   8.244   8.564
 2739POPC   D2A36592  29.099   8.151   8.264
 2739POPC   C3A36593  29.184   8.179   7.964
 2739POPC   C4A36594  29.101   8.171   7.664
 2739POPC   C1B36595  29.204   8.485   8.564
 2739POPC   C2B36596  29.212   8.426   8.264
 2739POPC   C3B36597  29.148   8.403   7.964
 2739POPC   C4B36598  29.127   8.439   7.664
 2740POPC   NC336599  25.271  18.296   9.464
 2740POPC   PO436600  25.239  18.278   9.164
 2740POPC   GL136601  25.216  18.244   8.864
 2740POPC   GL236602  25.177  18.395   8.864
 2740POPC   C1A36603  25.255  18.319   8.564
 2740POPC   D2A36604  25.263  18.318   8.264
 2740POPC   C3A36605  25.216  18.268   7.964
 2740POPC   C4A36606  25.311  18.322   7.664
 2740POPC   C1B36607  25.108  18.529   8.564
 2740POPC   C2B36608  25.179  18.546   8.264
 2740POPC   C3B36609  25.113  18.511   7.964
 2740POPC   C4B36610  25.152  18.488   7.664
 2741POPC   NC336611  24.519  36.134   9.464
 2741POPC   PO436612  24.455  36.132   9.164
 2741POPC   GL136613  24.512  36.132   8.864
 2741POPC   GL236614  24.532  36.180   8.864
 2741POPC   C1A36615  24.525  36.126   8.564
 2741POPC   D2A36616  24.490  36.169   8.264
 2741POPC   C3A36617  24.496  36.106   7.964
 2741POPC   C4A36618  24.460  36.171   7.664
 2741POPC   C1B36619  24.655  36.273   8.564
 2741POPC   C2B36620  24.679  36.300   8.264
 2741POPC   C3B36621  24.644  36.344   7.964
 2741POPC   C4B36622  24.681  36.319   7.664
 2742POPC   NC336623  15.911  17.550   9.464
 2742POPC   PO436624  15.929  17.489   9.164
 2742POPC   GL136625  15.921  17.499   8.864
 2742POPC   GL236626  15.930  17.373   8.864
 2742POPC   C1A36627  15.956  17.500   8.564
 2742POPC   D2A36628  16.000  17.476   8.264
 2742POPC   C3A36629  15.913  17.506   7.964
 2742POPC   C4A36630  15.917  17.519   7.664
 2742POPC   C1B36631  15.995  17.220   8.564
 2742POPC   C2B36632  15.975  17.285   8.264
 2742POPC   C3B36633  15.975  17.235   7.964
 2742POPC   C4B36634  16.023  17.254   7.664
 2743POPC   NC336635  33.793  33.839   9.464
 2743POPC   PO436636  33.780  33.790   9.164
 2743POPC   GL136637  33.821  33.781   8.864
 2743POPC   GL236638  33.720  33.840   8.864
 2743POPC   C1A36639  33.752  33.837   8.564
 2743POPC   D2A36640  33.830  33.791   8.264
 2743POPC   C3A36641  33.771  33.819   7.964
 2743POPC   C4A36642  33.836  33.791   7.664
 2743POPC   C1B36643  33.562  33.839   8.564
 2743POPC   C2B36644  33.512  33.826   8.264
 2743POPC   C3B36645  33.584  33.770   7.964
 2743POPC   C4B36646  33.508  33.798   7.664
 2744POPC   NC336647  13.663  36.131   9.464
 2744POPC   PO436648  13.665  36.151   9.164
 2744POPC   GL136649  13.641  36.137   8.864
 2744POPC   GL236650  13.551  36.051   8.864
 2744POPC   C1A36651  13.583  36.158   8.564
 2744POPC   D2A36652  13.659  36.170   8.264
 2744POPC   C3A36653  13.620  36.127   7.964
 2744POPC   C4A36654  13.646  36.088   7.664
 2744POPC   C1B36655  13.573  35.839   8.564
 2744POPC   C2B36656  13.616  35.894   8.264
 2744POPC   C3B36657  13.614  35.870   7.964
 2744POPC   C4B36658  13.621  35.919   7.664
 2745POPC   NC336659  13.604  26.069   9.464
 2745POPC   PO436660  13.628  26.003   9.164
 2745POPC   GL136661  13.592  26.001   8.864
 2745POPC   GL236662  13.596  26.102   8.864
 2745POPC   C1A36663  13.672  26.011   8.564
 2745POPC   D2A36664  13.643  26.081   8.264
 2745POPC   C3A36665  13.659  26.018   7.964
 2745POPC   C4A36666  13.645  26.066   7.664
 2745POPC   C1B36667  13.509  26.205   8.564
 2745POPC   C2B36668  13.502  26.270   8.264
 2745POPC   C3B36669  13.491  26.273   7.964
 2745POPC   C4B36670  13.446  26.263   7.664
 2746POPC   NC336671  36.083  13.675   9.464
 2746POPC   PO436672  36.080  13.656   9.164
 2746POPC   GL136673  36.148  13.667   8.864
 2746POPC   GL236674  36.041  13.552   8.864
 2746POPC   C1A36675  36.124  13.623   8.564
 2746POPC   D2A36676  36.156  13.646   8.264
 2746POPC   C3A36677  36.124  13.668   7.964
 2746POPC   C4A36678  36.177  13.628   7.664
 2746POPC   C1B36679  35.958  13.443   8.564
 2746POPC   C2B36680  35.980  13.480   8.264
 2746POPC   C3B36681  35.945  13.463   7.964
 2746POPC   C4B36682  35.903  13.496   7.664
 2747POPC   NC336683  26.807   9.007   9.464
 2747POPC   PO436684  26.795   8.926   9.164
 2747POPC   GL136685  26.862   9.010   8.864
 2747POPC   GL236686  26.726   9.072   8.864
 2747POPC   C1A36687  26.796   8.980   8.564
 2747POPC   D2A36688  26.775   8.936   8.264
 2747POPC   C3A36689  26.805   8.927   7.964
 2747POPC   C4A36690  26.811   8.924   7.664
 2747POPC   C1B36691  26.610   9.121   8.564
 2747POPC   C2B36692  26.637   9.118   8.264
 2747POPC   C3B36693  26.549   9.090   7.964
 2747POPC   C4B36694  26.571   9.041   7.664
 2748POPC   NC336695  28.395   6.653   9.464
 2748POPC   PO436696  28.380   6.641   9.164
 2748POPC   GL136697  28.334   6.644   8.864
 2748POPC   GL236698  28.303   6.664   8.864
 2748POPC   C1A36699  28.409   6.637   8.564
 2748POPC   D2A36700  28.388   6.620   8.264
 2748POPC   C3A36701  28.394   6.629   7.964
 2748POPC   C4A36702  28.369   6.628   7.664
 2748POPC   C1B36703  28.146   6.722   8.564
 2748POPC   C2B36704  28.142   6.736   8.264
 2748POPC   C3B36705  28.186   6.750   7.964
 2748POPC   C4B36706  28.102   6.736   7.664
 2749POPC   NC336707   5.829  17.518   9.464
 2749POPC   PO436708   5.902  17.459   9.164
 2749POPC   GL136709   5.879  17.542   8.864
 2749POPC   GL236710   5.891  17.393   8.864
 2749POPC   C1A36711   5.904  17.463   8.564
 2749POPC   D2A36712   5.883  17.551   8.264
 2749POPC   C3A36713   5.837  17.468   7.964
 2749POPC   C4A36714   5.886  17.465   7.664
 2749POPC   C1B36715   5.823  17.302   8.564
 2749POPC   C2B36716   5.837  17.258   8.264
 2749POPC   C3B36717   5.877  17.209   7.964
 2749POPC   C4B36718   5.830  17.303   7.664
 2750POPC   NC336719   0.476   0.442   9.464
 2750POPC   PO436720   0.455   0.425   9.164
 2750POPC   GL136721   0.435   0.421   8.864
 2750POPC   GL236722   0.406   0.343   8.864
 2750POPC   C1A36723   0.425   0.423   8.564
 2750POPC   D2A36724   0.399   0.419   8.264
 2750POPC   C3A36725   0.450   0.486   7.964
 2750POPC   C4A36726   0.431   0.464   7.664
 2750POPC   C1B36727   0.431   0.145   8.564
 2750POPC   C2B36728   0.503   0.169   8.264
 2750POPC   C3B36729   0.450   0.225   7.964
 2750POPC   C4B36730   0.451   0.235   7.664
 2751POPC   NC336731  31.486  19.091   9.464
 2751POPC   PO436732  31.473  19.020   9.164
 2751POPC   GL136733  31.521  19.049   8.864
 2751POPC   GL236734  31.607  19.035   8.864
 2751POPC   C1A36735  31.475  19.061   8.564
 2751POPC   D2A36736  31.455  19.034   8.264
 2751POPC   C3A36737  31.487  19.087   7.964
 2751POPC   C4A36738  31.520  19.066   7.664
 2751POPC   C1B36739  31.685  18.884   8.564
 2751POPC   C2B36740  31.647  18.964   8.264
 2751POPC   C3B36741  31.700  18.953   7.964
 2751POPC   C4B36742  31.712  18.894   7.664
 2752POPC   NC336743  13.586  18.284   9.464
 2752POPC   PO436744  13.579  18.289   9.164
 2752POPC   GL136745  13.599  18.264   8.864
 2752POPC   GL236746  13.629  18.424   8.864
 2752POPC   C1A36747  13.652  18.248   8.564
 2752POPC   D2A36748  13.656  18.287   8.264
 2752POPC   C3A36749  13.613  18.324   7.964
 2752POPC   C4A36750  13.658  18.242   7.664
 2752POPC   C1B36751  13.687  18.559   8.564
 2752POPC   C2B36752  13.646  18.523   8.264
 2752POPC   C3B36753  13.639  18.533   7.964
 2752POPC   C4B36754  13.635  18.570   7.664
 2753POPC   NC336755  24.533  44.627   9.464
 2753POPC   PO436756  24.474  44.625   9.164
 2753POPC   GL136757  24.456  44.643   8.864
 2753POPC   GL236758  24.368  44.622   8.864
 2753POPC   C1A36759  24.493  44.632   8.564
 2753POPC   D2A36760  24.476  44.637   8.264
 2753POPC   C3A36761  24.505  44.633   7.964
 2753POPC   C4A36762  24.524  44.698   7.664
 2753POPC   C1B36763  24.325  44.497   8.564
 2753POPC   C2B36764  24.288  44.470   8.264
 2753POPC   C3B36765  24.308  44.518   7.964
 2753POPC   C4B36766  24.333  44.527   7.664
 2754POPC   NC336767  42.331  21.371   9.464
 2754POPC   PO436768  42.295  21.357   9.164
 2754POPC   GL136769  42.326  21.360   8.864
 2754POPC   GL236770  42.251  21.451   8.864
 2754POPC   C1A36771  42.294  21.429   8.564
 2754POPC   D2A36772  42.303  21.348   8.264
 2754POPC   C3A36773  42.319  21.342   7.964
 2754POPC   C4A36774  42.312  21.355   7.664
 2754POPC   C1B36775  42.159  21.589   8.564
 2754POPC   C2B36776  42.119  21.509   8.264
 2754POPC   C3B36777  42.193  21.582   7.964
 2754POPC   C4B36778  42.173  21.549   7.664
 2755POPC   NC336779  29.895  27.584   9.464
 2755POPC   PO436780  29.938  27.591   9.164
 2755POPC   GL136781  29.937  27.585   8.864
 2755POPC   GL236782  29.807  27.673   8.864
 2755POPC   C1A36783  29.947  27.597   8.564
 2755POPC   D2A36784  29.962  27.619   8.264
 2755POPC   C3A36785  29.943  27.639   7.964
 2755POPC   C4A36786  29.910  27.577   7.664
 2755POPC   C1B36787  29.674  27.660   8.564
 2755POPC   C2B36788  29.656  27.660   8.264
 2755POPC   C3B36789  29.658  27.641   7.964
 2755POPC   C4B36790  29.712  27.701   7.664
 2756POPC   NC336791  10.542  17.554   9.464
 2756POPC   PO436792  10.487  17.501   9.164
 2756POPC   GL136793  10.548  17.505   8.864
 2756POPC   GL236794  10.550  17.597   8.864
 2756POPC   C1A36795  10.492  17.485   8.564
 2756POPC   D2A36796  10.535  17.521   8.264
 2756POPC   C3A36797  10.492  17.489   7.964
 2756POPC   C4A36798  10.542  17.469   7.664
 2756POPC   C1B36799  10.472  17.756   8.564
 2756POPC   C2B36800  10.530  17.785   8.264
 2756POPC   C3B36801  10.501  17.742   7.964
 2756POPC   C4B36802  10.540  17.763   7.664
 2757POPC   NC336803   5.870  28.406   9.464
 2757POPC   PO436804   5.839  28.379   9.164
 2757POPC   GL136805   5.867  28.399   8.864
 2757POPC   GL236806   6.018  28.391   8.864
 2757POPC   C1A36807   5.854  28.391   8.564
 2757POPC   D2A36808   5.907  28.338   8.264
 2757POPC   C3A36809   5.909  28.362   7.964
 2757POPC   C4A36810   5.866  28.418   7.664
 2757POPC   C1B36811   6.159  28.291   8.564
 2757POPC   C2B36812   6.087  28.321   8.264
 2757POPC   C3B36813   6.118  28.371   7.964
 2757POPC   C4B36814   6.100  28.324   7.664
 2758POPC   NC336815  34.540  37.651   9.464
 2758POPC   PO436816  34.623  37.644   9.164
 2758POPC   GL136817  34.590  37.709   8.864
 2758POPC   GL236818  34.454  37.539   8.864
 2758POPC   C1A36819  34.611  37.660   8.564
 2758POPC   D2A36820  34.541  37.695   8.264
 2758POPC   C3A36821  34.532  37.720   7.964
 2758POPC   C4A36822  34.529  37.655   7.664
 2758POPC   C1B36823  34.421  37.436   8.564
 2758POPC   C2B36824  34.387  37.509   8.264
 2758POPC   C3B36825  34.439  37.465   7.964
 2758POPC   C4B36826  34.395  37.459   7.664
 2759POPC   NC336827  26.010  31.457   9.464
 2759POPC   PO436828  26.017  31.489   9.164
 2759POPC   GL136829  25.996  31.506   8.864
 2759POPC   GL236830  26.204  31.407   8.864
 2759POPC   C1A36831  25.992  31.465   8.564
 2759POPC   D2A36832  26.001  31.507   8.264
 2759POPC   C3A36833  26.014  31.446   7.964
 2759POPC   C4A36834  26.027  31.510   7.664
 2759POPC   C1B36835  26.265  31.428   8.564
 2759POPC   C2B36836  26.239  31.377   8.264
 2759POPC   C3B36837  26.278  31.371   7.964
 2759POPC   C4B36838  26.251  31.452   7.664
 2760POPC   NC336839   1.234   5.058   9.464
 2760POPC   PO436840   1.242   5.110   9.164
 2760POPC   GL136841   1.259   5.045   8.864
 2760POPC   GL236842   1.304   4.985   8.864
 2760POPC   C1A36843   1.230   5.117   8.564
 2760POPC   D2A36844   1.245   5.075   8.264
 2760POPC   C3A36845   1.264   5.049   7.964
 2760POPC   C4A36846   1.180   5.093   7.664
 2760POPC   C1B36847   1.422   4.914   8.564
 2760POPC   C2B36848   1.442   4.965   8.264
 2760POPC   C3B36849   1.419   4.895   7.964
 2760POPC   C4B36850   1.387   4.904   7.664
 2761POPC   NC336851  16.714  20.593   9.464
 2761POPC   PO436852  16.733  20.638   9.164
 2761POPC   GL136853  16.710  20.611   8.864
 2761POPC   GL236854  16.747  20.755   8.864
 2761POPC   C1A36855  16.691  20.575   8.564
 2761POPC   D2A36856  16.775  20.591   8.264
 2761POPC   C3A36857  16.697  20.599   7.964
 2761POPC   C4A36858  16.766  20.660   7.664
 2761POPC   C1B36859  16.866  20.891   8.564
 2761POPC   C2B36860  16.859  20.816   8.264
 2761POPC   C3B36861  16.819  20.882   7.964
 2761POPC   C4B36862  16.768  20.887   7.664
 2762POPC   NC336863  39.251  43.898   9.464
 2762POPC   PO436864  39.234  43.878   9.164
 2762POPC   GL136865  39.249  43.842   8.864
 2762POPC   GL236866  39.205  43.727   8.864
 2762POPC   C1A36867  39.226  43.903   8.564
 2762POPC   D2A36868  39.204  43.889   8.264
 2762POPC   C3A36869  39.219  43.900   7.964
 2762POPC   C4A36870  39.223  43.845   7.664
 2762POPC   C1B36871  39.132  43.624   8.564
 2762POPC   C2B36872  39.117  43.687   8.264
 2762POPC   C3B36873  39.184  43.632   7.964
 2762POPC   C4B36874  39.160  43.614   7.664
 2763POPC   NC336875  44.707  23.691   9.464
 2763POPC   PO436876  44.693  23.724   9.164
 2763POPC   GL136877  44.691  23.725   8.864
 2763POPC   GL236878  44.589  23.835   8.864
 2763POPC   C1A36879  44.675  23.701   8.564
 2763POPC   D2A36880  44.622  23.699   8.264
 2763POPC   C3A36881  44.638  23.709   7.964
 2763POPC   C4A36882  44.629  23.725   7.664
 2763POPC   C1B36883  44.463  23.869   8.564
 2763POPC   C2B36884  44.490  23.836   8.264
 2763POPC   C3B36885  44.429  23.845   7.964
 2763POPC   C4B36886  44.476  23.887   7.664
 2764POPC   NC336887  38.469  29.145   9.464
 2764POPC   PO436888  38.461  29.106   9.164
 2764POPC   GL136889  38.462  29.143   8.864
 2764POPC   GL236890  38.366  29.208   8.864
 2764POPC   C1A36891  38.454  29.123   8.564
 2764POPC   D2A36892  38.477  29.120   8.264
 2764POPC   C3A36893  38.477  29.111   7.964
 2764POPC   C4A36894  38.462  29.144   7.664
 2764POPC   C1B36895  38.308  29.253   8.564
 2764POPC   C2B36896  38.303  29.333   8.264
 2764POPC   C3B36897  38.294  29.322   7.964
 2764POPC   C4B36898  38.241  29.341   7.664
 2765POPC   NC336899   8.217   8.925   9.464
 2765POPC   PO436900   8.246   9.022   9.164
 2765POPC   GL136901   8.188   8.980   8.864
 2765POPC   GL236902   8.115   9.008   8.864
 2765POPC   C1A36903   8.179   9.008   8.564
 2765POPC   D2A36904   8.161   8.956   8.264
 2765POPC   C3A36905   8.246   9.019   7.964
 2765POPC   C4A36906   8.156   9.019   7.664
 2765POPC   C1B36907   7.954   9.025   8.564
 2765POPC   C2B36908   7.902   8.991   8.264
 2765POPC   C3B36909   7.980   9.041   7.964
 2765POPC   C4B36910   7.969   8.963   7.664
 2766POPC   NC336911  27.587   4.308   9.464
 2766POPC   PO436912  27.623   4.289   9.164
 2766POPC   GL136913  27.642   4.275   8.864
 2766POPC   GL236914  27.657   4.283   8.864
 2766POPC   C1A36915  27.636   4.361   8.564
 2766POPC   D2A36916  27.624   4.294   8.264
 2766POPC   C3A36917  27.558   4.318   7.964
 2766POPC   C4A36918  27.607   4.303   7.664
 2766POPC   C1B36919  27.810   4.227   8.564
 2766POPC   C2B36920  27.817   4.236   8.264
 2766POPC   C3B36921  27.768   4.204   7.964
 2766POPC   C4B36922  27.768   4.239   7.664
 2767POPC   NC336923   1.239   7.413   9.464
 2767POPC   PO436924   1.186   7.401   9.164
 2767POPC   GL136925   1.214   7.456   8.864
 2767POPC   GL236926   1.299   7.562   8.864
 2767POPC   C1A36927   1.258   7.447   8.564
 2767POPC   D2A36928   1.183   7.374   8.264
 2767POPC   C3A36929   1.240   7.378   7.964
 2767POPC   C4A36930   1.193   7.452   7.664
 2767POPC   C1B36931   1.293   7.604   8.564
 2767POPC   C2B36932   1.271   7.675   8.264
 2767POPC   C3B36933   1.272   7.656   7.964
 2767POPC   C4B36934   1.293   7.632   7.664
 2768POPC   NC336935  21.434  30.664   9.464
 2768POPC   PO436936  21.387  30.739   9.164
 2768POPC   GL136937  21.365  30.740   8.864
 2768POPC   GL236938  21.322  30.789   8.864
 2768POPC   C1A36939  21.414  30.685   8.564
 2768POPC   D2A36940  21.345  30.650   8.264
 2768POPC   C3A36941  21.345  30.700   7.964
 2768POPC   C4A36942  21.409  30.745   7.664
 2768POPC   C1B36943  21.162  30.845   8.564
 2768POPC   C2B36944  21.224  30.814   8.264
 2768POPC   C3B36945  21.139  30.885   7.964
 2768POPC   C4B36946  21.199  30.879   7.664
 2769POPC   NC336947  44.708  11.322   9.464
 2769POPC   PO436948  44.703  11.330   9.164
 2769POPC   GL136949  44.616  11.254   8.864
 2769POPC   GL236950  44.528  11.207   8.864
 2769POPC   C1A36951  44.646  11.300   8.564
 2769POPC   D2A36952  44.646  11.286   8.264
 2769POPC   C3A36953  44.693  11.290   7.964
 2769POPC   C4A36954  44.684  11.329   7.664
 2769POPC   C1B36955  44.427  11.111   8.564
 2769POPC   C2B36956  44.431  11.152   8.264
 2769POPC   C3B36957  44.482  11.094   7.964
 2769POPC   C4B36958  44.441  11.111   7.664
 2770POPC   NC336959  38.461  22.913   9.464
 2770POPC   PO436960  38.450  22.945   9.164
 2770POPC   GL136961  38.477  22.904   8.864
 2770POPC   GL236962  38.563  23.088   8.864
 2770POPC   C1A36963  38.425  22.977   8.564
 2770POPC   D2A36964  38.480  22.912   8.264
 2770POPC   C3A36965  38.415  22.919   7.964
 2770POPC   C4A36966  38.462  22.967   7.664
 2770POPC   C1B36967  38.582  23.135   8.564
 2770POPC   C2B36968  38.648  23.109   8.264
 2770POPC   C3B36969  38.549  23.118   7.964
 2770POPC   C4B36970  38.619  23.137   7.664
 2771POPC   NC336971  36.931  15.224   9.464
 2771POPC   PO436972  36.873  15.181   9.164
 2771POPC   GL136973  36.930  15.219   8.864
 2771POPC   GL236974  36.946  15.303   8.864
 2771POPC   C1A36975  36.918  15.163   8.564
 2771POPC   D2A36976  36.897  15.130   8.264
 2771POPC   C3A36977  36.892  15.163   7.964
 2771POPC   C4A36978  36.923  15.224   7.664
 2771POPC   C1B36979  37.030  15.436   8.564
 2771POPC   C2B36980  36.998  15.386   8.264
 2771POPC   C3B36981  36.939  15.433   7.964
 2771POPC   C4B36982  37.030  15.438   7.664
 2772POPC   NC336983  28.329  13.659   9.464
 2772POPC   PO436984  28.340  13.649   9.164
 2772POPC   GL136985  28.333  13.583   8.864
 2772POPC   GL236986  28.473  13.593   8.864
 2772POPC   C1A36987  28.383  13.617   8.564
 2772POPC   D2A36988  28.406  13.667   8.264
 2772POPC   C3A36989  28.323  13.666   7.964
 2772POPC   C4A36990  28.328  13.638   7.664
 2772POPC   C1B36991  28.665  13.660   8.564
 2772POPC   C2B36992  28.601  13.647   8.264
 2772POPC   C3B36993  28.645  13.647   7.964
 2772POPC   C4B36994  28.606  13.685   7.664
 2773POPC   NC336995  20.583  16.733   9.464
 2773POPC   PO436996  20.581  16.764   9.164
 2773POPC   GL136997  20.598  16.777   8.864
 2773POPC   GL236998  20.520  16.801   8.864
 2773POPC   C1A36999  20.602  16.766   8.564
 2773POPC   D2A37000  20.588  16.722   8.264
 2773POPC   C3A37001  20.572  16.768   7.964
 2773POPC   C4A37002  20.600  16.683   7.664
 2773POPC   C1B37003  20.395  16.814   8.564
 2773POPC   C2B37004  20.435  16.823   8.264
 2773POPC   C3B37005  20.405  16.868   7.964
 2773POPC   C4B37006  20.365  16.846   7.664
 2774POPC   NC337007  24.475   1.192   9.464
 2774POPC   PO437008  24.522   1.224   9.164
 2774POPC   GL137009  24.466   1.202   8.864
 2774POPC   GL237010  24.483   1.053   8.864
 2774POPC   C1A37011  24.505   1.167   8.564
 2774POPC   D2A37012  24.464   1.216   8.264
 2774POPC   C3A37013  24.481   1.173   7.964
 2774POPC   C4A37014  24.475   1.257   7.664
 2774POPC   C1B37015  24.515   0.940   8.564
 2774POPC   C2B37016  24.502   0.934   8.264
 2774POPC   C3B37017  24.425   1.001   7.964
 2774POPC   C4B37018  24.495   0.950   7.664
 2775POPC   NC337019  22.190  18.263   9.464
 2775POPC   PO437020  22.209  18.301   9.164
 2775POPC   GL137021  22.189  18.273   8.864
 2775POPC   GL237022  22.291  18.213   8.864
 2775POPC   C1A37023  22.125  18.282   8.564
 2775POPC   D2A37024  22.118  18.302   8.264
 2775POPC   C3A37025  22.157  18.240   7.964
 2775POPC   C4A37026  22.161  18.309   7.664
 2775POPC   C1B37027  22.391  18.159   8.564
 2775POPC   C2B37028  22.378  18.133   8.264
 2775POPC   C3B37029  22.321  18.161   7.964
 2775POPC   C4B37030  22.326  18.148   7.664
 2776POPC   NC337031   2.812  14.402   9.464
 2776POPC   PO437032   2.761  14.402   9.164
 2776POPC   GL137033   2.799  14.431   8.864
 2776POPC   GL237034   2.711  14.550   8.864
 2776POPC   C1A37035   2.753  14.430   8.564
 2776POPC   D2A37036   2.805  14.420   8.264
 2776POPC   C3A37037   2.752  14.400   7.964
 2776POPC   C4A37038   2.807  14.420   7.664
 2776POPC   C1B37039   2.774  14.660   8.564
 2776POPC   C2B37040   2.731  14.636   8.264
 2776POPC   C3B37041   2.681  14.611   7.964
 2776POPC   C4B37042   2.681  14.607   7.664
 2777POPC   NC337043  37.654  26.829   9.464
 2777POPC   PO437044  37.690  26.816   9.164
 2777POPC   GL137045  37.697  26.769   8.864
 2777POPC   GL237046  37.665  26.914   8.864
 2777POPC   C1A37047  37.700  26.821   8.564
 2777POPC   D2A37048  37.635  26.799   8.264
 2777POPC   C3A37049  37.693  26.770   7.964
 2777POPC   C4A37050  37.630  26.833   7.664
 2777POPC   C1B37051  37.600  27.080   8.564
 2777POPC   C2B37052  37.597  27.026   8.264
 2777POPC   C3B37053  37.659  27.109   7.964
 2777POPC   C4B37054  37.628  27.037   7.664
 2778POPC   NC337055  41.582  27.615   9.464
 2778POPC   PO437056  41.523  27.544   9.164
 2778POPC   GL137057  41.532  27.580   8.864
 2778POPC   GL237058  41.508  27.737   8.864
 2778POPC   C1A37059  41.607  27.640   8.564
 2778POPC   D2A37060  41.561  27.614   8.264
 2778POPC   C3A37061  41.573  27.547   7.964
 2778POPC   C4A37062  41.584  27.617   7.664
 2778POPC   C1B37063  41.496  27.831   8.564
 2778POPC   C2B37064  41.455  27.813   8.264
 2778POPC   C3B37065  41.524  27.864   7.964
 2778POPC   C4B37066  41.439  27.856   7.664
 2779POPC   NC337067  36.107  36.135   9.464
 2779POPC   PO437068  36.104  36.088   9.164
 2779POPC   GL137069  36.080  36.160   8.864
 2779POPC   GL237070  36.249  36.221   8.864
 2779POPC   C1A37071  36.099  36.114   8.564
 2779POPC   D2A37072  36.099  36.118   8.264
 2779POPC   C3A37073  36.135  36.104   7.964
 2779POPC   C4A37074  36.161  36.078   7.664
 2779POPC   C1B37075  36.250  36.350   8.564
 2779POPC   C2B37076  36.273  36.289   8.264
 2779POPC   C3B37077  36.295  36.335   7.964
 2779POPC   C4B37078  36.283  36.300   7.664
 2780POPC   NC337079   1.965  22.210   9.464
 2780POPC   PO437080   1.972  22.141   9.164
 2780POPC   GL137081   2.015  22.134   8.864
 2780POPC   GL237082   2.140  22.093   8.864
 2780POPC   C1A37083   1.962  22.204   8.564
 2780POPC   D2A37084   1.955  22.129   8.264
 2780POPC   C3A37085   2.025  22.154   7.964
 2780POPC   C4A37086   2.025  22.145   7.664
 2780POPC   C1B37087   2.203  22.043   8.564
 2780POPC   C2B37088   2.252  22.003   8.264
 2780POPC   C3B37089   2.191  22.049   7.964
 2780POPC   C4B37090   2.174  22.078   7.664
 2781POPC   NC337091  26.075  12.122   9.464
 2781POPC   PO437092  26.029  12.089   9.164
 2781POPC   GL137093  26.025  12.092   8.864
 2781POPC   GL237094  26.022  12.193   8.864
 2781POPC   C1A37095  26.077  12.047   8.564
 2781POPC   D2A37096  26.017  12.057   8.264
 2781POPC   C3A37097  26.011  12.071   7.964
 2781POPC   C4A37098  26.056  12.093   7.664
 2781POPC   C1B37099  26.104  12.328   8.564
 2781POPC   C2B37100  26.062  12.352   8.264
 2781POPC   C3B37101  26.014  12.289   7.964
 2781POPC   C4B37102  26.032  12.283   7.664
 2782POPC   NC337103  14.415  35.354   9.464
 2782POPC   PO437104  14.440  35.302   9.164
 2782POPC   GL137105  14.355  35.377   8.864
 2782POPC   GL237106  14.508  35.421   8.864
 2782POPC   C1A37107  14.437  35.395   8.564
 2782POPC   D2A37108  14.414  35.313   8.264
 2782POPC   C3A37109  14.382  35.365   7.964
 2782POPC   C4A37110  14.376  35.318   7.664
 2782POPC   C1B37111  14.626  35.435   8.564
 2782POPC   C2B37112  14.639  35.455   8.264
 2782POPC   C3B37113  14.631  35.390   7.964
 2782POPC   C4B37114  14.621  35.475   7.664
 2783POPC   NC337115  21.426  28.370   9.464
 2783POPC   PO437116  21.346  28.418   9.164
 2783POPC   GL137117  21.356  28.324   8.864
 2783POPC   GL237118  21.483  28.300   8.864
 2783POPC   C1A37119  21.336  28.335   8.564
 2783POPC   D2A37120  21.357  28.353   8.264
 2783POPC   C3A37121  21.344  28.384   7.964
 2783POPC   C4A37122  21.397  28.368   7.664
 2783POPC   C1B37123  21.570  28.229   8.564
 2783POPC   C2B37124  21.627  28.191   8.264
 2783POPC   C3B37125  21.628  28.209   7.964
 2783POPC   C4B37126  21.555  28.247   7.664
 2784POPC   NC337127  19.054  35.396   9.464
 2784POPC   PO437128  19.057  35.389   9.164
 2784POPC   GL137129  19.041  35.337   8.864
 2784POPC   GL237130  18.975  35.520   8.864
 2784POPC   C1A37131  19.023  35.302   8.564
 2784POPC   D2A37132  19.067  35.331   8.264
 2784POPC   C3A37133  19.043  35.325   7.964
 2784POPC   C4A37134  19.068  35.311   7.664
 2784POPC   C1B37135  18.999  35.564   8.564
 2784POPC   C2B37136  18.997  35.570   8.264
 2784POPC   C3B37137  18.963  35.543   7.964
 2784POPC   C4B37138  18.948  35.574   7.664
 2785POPC   NC337139  37.724  32.213   9.464
 2785POPC   PO437140  37.687  32.210   9.164
 2785POPC   GL137141  37.668  32.292   8.864
 2785POPC   GL237142  37.762  32.192   8.864
 2785POPC   C1A37143  37.699  32.211   8.564
 2785POPC   D2A37144  37.666  32.276   8.264
 2785POPC   C3A37145  37.686  32.289   7.964
 2785POPC   C4A37146  37.684  32.292   7.664
 2785POPC   C1B37147  37.901  32.147   8.564
 2785POPC   C2B37148  37.918  32.052   8.264
 2785POPC   C3B37149  37.890  32.056   7.964
 2785POPC   C4B37150  37.849  32.069   7.664
 2786POPC   NC337151  30.649   5.912   9.464
 2786POPC   PO437152  30.732   5.840   9.164
 2786POPC   GL137153  30.667   5.914   8.864
 2786POPC   GL237154  30.728   6.031   8.864
 2786POPC   C1A37155  30.676   5.884   8.564
 2786POPC   D2A37156  30.697   5.887   8.264
 2786POPC   C3A37157  30.656   5.867   7.964
 2786POPC   C4A37158  30.673   5.827   7.664
 2786POPC   C1B37159  30.703   6.094   8.564
 2786POPC   C2B37160  30.671   6.164   8.264
 2786POPC   C3B37161  30.675   6.108   7.964
 2786POPC   C4B37162  30.651   6.142   7.664
 2787POPC   NC337163  21.376  19.817   9.464
 2787POPC   PO437164  21.350  19.809   9.164
 2787POPC   GL137165  21.370  19.813   8.864
 2787POPC   GL237166  21.228  19.871   8.864
 2787POPC   C1A37167  21.363  19.795   8.564
 2787POPC   D2A37168  21.347  19.845   8.264
 2787POPC   C3A37169  21.348  19.807   7.964
 2787POPC   C4A37170  21.435  19.859   7.664
 2787POPC   C1B37171  21.173  19.857   8.564
 2787POPC   C2B37172  21.114  19.897   8.264
 2787POPC   C3B37173  21.177  19.910   7.964
 2787POPC   C4B37174  21.144  19.942   7.664
 2788POPC   NC337175  29.126   0.429   9.464
 2788POPC   PO437176  29.186   0.430   9.164
 2788POPC   GL137177  29.102   0.452   8.864
 2788POPC   GL237178  29.132   0.571   8.864
 2788POPC   C1A37179  29.171   0.421   8.564
 2788POPC   D2A37180  29.108   0.469   8.264
 2788POPC   C3A37181  29.134   0.406   7.964
 2788POPC   C4A37182  29.125   0.466   7.664
 2788POPC   C1B37183  29.106   0.664   8.564
 2788POPC   C2B37184  29.168   0.716   8.264
 2788POPC   C3B37185  29.116   0.651   7.964
 2788POPC   C4B37186  29.181   0.691   7.664
 2789POPC   NC337187   6.617  14.397   9.464
 2789POPC   PO437188   6.685  14.395   9.164
 2789POPC   GL137189   6.690  14.370   8.864
 2789POPC   GL237190   6.659  14.310   8.864
 2789POPC   C1A37191   6.607  14.381   8.564
 2789POPC   D2A37192   6.645  14.415   8.264
 2789POPC   C3A37193   6.676  14.406   7.964
 2789POPC   C4A37194   6.659  14.378   7.664
 2789POPC   C1B37195   6.635  14.133   8.564
 2789POPC   C2B37196   6.605  14.110   8.264
 2789POPC   C3B37197   6.595  14.107   7.964
 2789POPC   C4B37198   6.582  14.188   7.664
 2790POPC   NC337199  20.638  35.375   9.464
 2790POPC   PO437200  20.635  35.335   9.164
 2790POPC   GL137201  20.612  35.375   8.864
 2790POPC   GL237202  20.695  35.478   8.864
 2790POPC   C1A37203  20.602  35.323   8.564
 2790POPC   D2A37204  20.619  35.353   8.264
 2790POPC   C3A37205  20.568  35.356   7.964
 2790POPC   C4A37206  20.632  35.375   7.664
 2790POPC   C1B37207  20.775  35.485   8.564
 2790POPC   C2B37208  20.782  35.569   8.264
 2790POPC   C3B37209  20.790  35.571   7.964
 2790POPC   C4B37210  20.822  35.503   7.664
 2791POPC   NC337211   8.197  43.113   9.464
 2791POPC   PO437212   8.155  43.156   9.164
 2791POPC   GL137213   8.242  43.106   8.864
 2791POPC   GL237214   8.347  43.063   8.864
 2791POPC   C1A37215   8.234  43.121   8.564
 2791POPC   D2A37216   8.241  43.105   8.264
 2791POPC   C3A37217   8.227  43.157   7.964
 2791POPC   C4A37218   8.158  43.139   7.664
 2791POPC   C1B37219   8.390  42.975   8.564
 2791POPC   C2B37220   8.469  43.056   8.264
 2791POPC   C3B37221   8.411  43.029   7.964
 2791POPC   C4B37222   8.408  43.061   7.664
 2792POPC   NC337223  15.146   9.778   9.464
 2792POPC   PO437224  15.169   9.732   9.164
 2792POPC   GL137225  15.145   9.782   8.864
 2792POPC   GL237226  15.233   9.690   8.864
 2792POPC   C1A37227  15.223   9.756   8.564
 2792POPC   D2A37228  15.202   9.783   8.264
 2792POPC   C3A37229  15.219   9.785   7.964
 2792POPC   C4A37230  15.192   9.709   7.664
 2792POPC   C1B37231  15.303   9.573   8.564
 2792POPC   C2B37232  15.362   9.567   8.264
 2792POPC   C3B37233  15.340   9.544   7.964
 2792POPC   C4B37234  15.346   9.606   7.664
 2793POPC   NC337235   6.633   1.183   9.464
 2793POPC   PO437236   6.631   1.188   9.164
 2793POPC   GL137237   6.687   1.221   8.864
 2793POPC   GL237238   6.680   1.345   8.864
 2793POPC   C1A37239   6.629   1.218   8.564
 2793POPC   D2A37240   6.660   1.173   8.264
 2793POPC   C3A37241   6.654   1.252   7.964
 2793POPC   C4A37242   6.644   1.240   7.664
 2793POPC   C1B37243   6.829   1.405   8.564
 2793POPC   C2B37244   6.817   1.441   8.264
 2793POPC   C3B37245   6.853   1.453   7.964
 2793POPC   C4B37246   6.767   1.378   7.664
 2794POPC   NC337247  27.598  39.186   9.464
 2794POPC   PO437248  27.620  39.206   9.164
 2794POPC   GL137249  27.587  39.248   8.864
 2794POPC   GL237250  27.630  39.139   8.864
 2794POPC   C1A37251  27.595  39.216   8.564
 2794POPC   D2A37252  27.611  39.202   8.264
 2794POPC   C3A37253  27.636  39.203   7.964
 2794POPC   C4A37254  27.558  39.206   7.664
 2794POPC   C1B37255  27.674  38.959   8.564
 2794POPC   C2B37256  27.663  38.993   8.264
 2794POPC   C3B37257  27.700  39.017   7.964
 2794POPC   C4B37258  27.648  38.994   7.664
 2795POPC   NC337259  35.363  22.146   9.464
 2795POPC   PO437260  35.316  22.161   9.164
 2795POPC   GL137261  35.321  22.167   8.864
 2795POPC   GL237262  35.457  22.176   8.864
 2795POPC   C1A37263  35.363  22.184   8.564
 2795POPC   D2A37264  35.311  22.146   8.264
 2795POPC   C3A37265  35.391  22.208   7.964
 2795POPC   C4A37266  35.358  22.191   7.664
 2795POPC   C1B37267  35.582  22.165   8.564
 2795POPC   C2B37268  35.611  22.090   8.264
 2795POPC   C3B37269  35.557  22.183   7.964
 2795POPC   C4B37270  35.555  22.127   7.664
 2796POPC   NC337271  15.141  28.365   9.464
 2796POPC   PO437272  15.206  28.332   9.164
 2796POPC   GL137273  15.135  28.329   8.864
 2796POPC   GL237274  15.300  28.431   8.864
 2796POPC   C1A37275  15.163  28.330   8.564
 2796POPC   D2A37276  15.224  28.401   8.264
 2796POPC   C3A37277  15.154  28.326   7.964
 2796POPC   C4A37278  15.196  28.388   7.664
 2796POPC   C1B37279  15.311  28.602   8.564
 2796POPC   C2B37280  15.341  28.565   8.264
 2796POPC   C3B37281  15.351  28.600   7.964
 2796POPC   C4B37282  15.347  28.614   7.664
 2797POPC   NC337283   2.812  34.622   9.464
 2797POPC   PO437284   2.815  34.605   9.164
 2797POPC   GL137285   2.794  34.579   8.864
 2797POPC   GL237286   2.879  34.514   8.864
 2797POPC   C1A37287   2.794  34.541   8.564
 2797POPC   D2A37288   2.759  34.553   8.264
 2797POPC   C3A37289   2.737  34.587   7.964
 2797POPC   C4A37290   2.730  34.534   7.664
 2797POPC   C1B37291   2.940  34.442   8.564
 2797POPC   C2B37292   2.905  34.423   8.264
 2797POPC   C3B37293   2.988  34.395   7.964
 2797POPC   C4B37294   2.928  34.410   7.664
 2798POPC   NC337295  15.991  34.604   9.464
 2798POPC   PO437296  15.955  34.529   9.164
 2798POPC   GL137297  15.974  34.532   8.864
 2798POPC   GL237298  15.914  34.736   8.864
 2798POPC   C1A37299  15.978  34.620   8.564
 2798POPC   D2A37300  15.930  34.604   8.264
 2798POPC   C3A37301  16.004  34.605   7.964
 2798POPC   C4A37302  15.999  34.608   7.664
 2798POPC   C1B37303  15.797  34.847   8.564
 2798POPC   C2B37304  15.845  34.757   8.264
 2798POPC   C3B37305  15.814  34.830   7.964
 2798POPC   C4B37306  15.795  34.787   7.664
 2799POPC   NC337307  10.515  38.462   9.464
 2799POPC   PO437308  10.506  38.417   9.164
 2799POPC   GL137309  10.564  38.456   8.864
 2799POPC   GL237310  10.457  38.577   8.864
 2799POPC   C1A37311  10.573  38.490   8.564
 2799POPC   D2A37312  10.525  38.504   8.264
 2799POPC   C3A37313  10.548  38.500   7.964
 2799POPC   C4A37314  10.536  38.495   7.664
 2799POPC   C1B37315  10.466  38.644   8.564
 2799POPC   C2B37316  10.450  38.722   8.264
 2799POPC   C3B37317  10.408  38.665   7.964
 2799POPC   C4B37318  10.426  38.722   7.664
 2800POPC   NC337319   8.179   1.944   9.464
 2800POPC   PO437320   8.237   1.942   9.164
 2800POPC   GL137321   8.189   1.957   8.864
 2800POPC   GL237322   8.292   2.052   8.864
 2800POPC   C1A37323   8.212   1.956   8.564
 2800POPC   D2A37324   8.224   1.988   8.264
 2800POPC   C3A37325   8.228   1.994   7.964
 2800POPC   C4A37326   8.206   2.009   7.664
 2800POPC   C1B37327   8.351   2.200   8.564
 2800POPC   C2B37328   8.419   2.179   8.264
 2800POPC   C3B37329   8.390   2.209   7.964
 2800POPC   C4B37330   8.408   2.157   7.664
 2801POPC   NC337331  37.636  43.118   9.464
 2801POPC   PO437332  37.677  43.151   9.164
 2801POPC   GL137333  37.676  43.137   8.864
 2801POPC   GL237334  37.809  43.103   8.864
 2801POPC   C1A37335  37.676  43.065   8.564
 2801POPC   D2A37336  37.659  43.095   8.264
 2801POPC   C3A37337  37.725  43.151   7.964
 2801POPC   C4A37338  37.695  43.104   7.664
 2801POPC   C1B37339  37.962  43.150   8.564
 2801POPC   C2B37340  37.909  43.172   8.264
 2801POPC   C3B37341  37.896  43.160   7.964
 2801POPC   C4B37342  37.948  43.162   7.664
 2802POPC   NC337343  33.048  11.348   9.464
 2802POPC   PO437344  33.060  11.322   9.164
 2802POPC   GL137345  33.064  11.328   8.864
 2802POPC   GL237346  33.118  11.291   8.864
 2802POPC   C1A37347  33.064  11.325   8.564
 2802POPC   D2A37348  32.999  11.334   8.264
 2802POPC   C3A37349  33.063  11.318   7.964
 2802POPC   C4A37350  33.053  11.339   7.664
 2802POPC   C1B37351  33.307  11.335   8.564
 2802POPC   C2B37352  33.306  11.250   8.264
 2802POPC   C3B37353  33.286  11.316   7.964
 2802POPC   C4B37354  33.309  11.275   7.664
 2803POPC   NC337355  24.490   7.423   9.464
 2803POPC   PO437356  24.508   7.429   9.164
 2803POPC   GL137357  24.440   7.396   8.864
 2803POPC   GL237358  24.565   7.316   8.864
 2803POPC   C1A37359  24.498   7.396   8.564
 2803POPC   D2A37360  24.440   7.456   8.264
 2803POPC   C3A37361  24.465   7.407   7.964
 2803POPC   C4A37362  24.499   7.451   7.664
 2803POPC   C1B37363  24.609   7.168   8.564
 2803POPC   C2B37364  24.613   7.240   8.264
 2803POPC   C3B37365  24.640   7.220   7.964
 2803POPC   C4B37366  24.620   7.166   7.664
 2804POPC   NC337367  40.772  33.020   9.464
 2804POPC   PO437368  40.802  33.051   9.164
 2804POPC   GL137369  40.771  33.018   8.864
 2804POPC   GL237370  40.946  32.990   8.864
 2804POPC   C1A37371  40.822  32.984   8.564
 2804POPC   D2A37372  40.785  32.979   8.264
 2804POPC   C3A37373  40.818  32.984   7.964
 2804POPC   C4A37374  40.781  33.040   7.664
 2804POPC   C1B37375  41.077  32.969   8.564
 2804POPC   C2B37376  41.053  33.036   8.264
 2804POPC   C3B37377  41.043  33.051   7.964
 2804POPC   C4B37378  41.015  32.964   7.664
 2805POPC   NC337379  13.639  41.594   9.464
 2805POPC   PO437380  13.625  41.593   9.164
 2805POPC   GL137381  13.580  41.598   8.864
 2805POPC   GL237382  13.662  41.640   8.864
 2805POPC   C1A37383  13.665  41.542   8.564
 2805POPC   D2A37384  13.665  41.520   8.264
 2805POPC   C3A37385  13.593  41.526   7.964
 2805POPC   C4A37386  13.677  41.554   7.664
 2805POPC   C1B37387  13.750  41.775   8.564
 2805POPC   C2B37388  13.749  41.787   8.264
 2805POPC   C3B37389  13.715  41.820   7.964
 2805POPC   C4B37390  13.701  41.797   7.664
 2806POPC   NC337391  29.913  31.478   9.464
 2806POPC   PO437392  29.873  31.459   9.164
 2806POPC   GL137393  29.962  31.499   8.864
 2806POPC   GL237394  30.083  31.425   8.864
 2806POPC   C1A37395  29.925  31.437   8.564
 2806POPC   D2A37396  29.946  31.454   8.264
 2806POPC   C3A37397  29.928  31.479   7.964
 2806POPC   C4A37398  29.880  31.470   7.664
 2806POPC   C1B37399  30.156  31.443   8.564
 2806POPC   C2B37400  30.187  31.421   8.264
 2806POPC   C3B37401  30.219  31.489   7.964
 2806POPC   C4B37402  30.207  31.453   7.664
 2807POPC   NC337403  26.850  12.894   9.464
 2807POPC   PO437404  26.834  12.854   9.164
 2807POPC   GL137405  26.781  12.813   8.864
 2807POPC   GL237406  26.894  12.694   8.864
 2807POPC   C1A37407  26.772  12.868   8.564
 2807POPC   D2A37408  26.773  12.863   8.264
 2807POPC   C3A37409  26.794  12.863   7.964
 2807POPC   C4A37410  26.801  12.895   7.664
 2807POPC   C1B37411  26.933  12.586   8.564
 2807POPC   C2B37412  26.864  12.591   8.264
 2807POPC   C3B37413  26.928  12.634   7.964
 2807POPC   C4B37414  26.862  12.659   7.664
 2808POPC   NC337415  26.794  33.804   9.464
 2808POPC   PO437416  26.827  33.779   9.164
 2808POPC   GL137417  26.818  33.800   8.864
 2808POPC   GL237418  26.668  33.858   8.864
 2808POPC   C1A37419  26.837  33.832   8.564
 2808POPC   D2A37420  26.830  33.800   8.264
 2808POPC   C3A37421  26.782  33.835   7.964
 2808POPC   C4A37422  26.857  33.840   7.664
 2808POPC   C1B37423  26.560  33.889   8.564
 2808POPC   C2B37424  26.635  33.913   8.264
 2808POPC   C3B37425  26.634  33.952   7.964
 2808POPC   C4B37426  26.605  33.887   7.664
 2809POPC   NC337427  32.294  12.096   9.464
 2809POPC   PO437428  32.264  12.106   9.164
 2809POPC   GL137429  32.279  12.093   8.864
 2809POPC   GL237430  32.234  12.187   8.864
 2809POPC   C1A37431  32.283  12.047   8.564
 2809POPC   D2A37432  32.249  12.110   8.264
 2809POPC   C3A37433  32.241  12.058   7.964
 2809POPC   C4A37434  32.206  12.061   7.664
 2809POPC   C1B37435  32.165  12.276   8.564
 2809POPC   C2B37436  32.170  12.371   8.264
 2809POPC   C3B37437  32.204  12.340   7.964
 2809POPC   C4B37438  32.200  12.354   7.664
 2810POPC   NC337439  22.143  43.862   9.464
 2810POPC   PO437440  22.143  43.912   9.164
 2810POPC   GL137441  22.139  43.838   8.864
 2810POPC   GL237442  22.041  44.029   8.864
 2810POPC   C1A37443  22.153  43.936   8.564
 2810POPC   D2A37444  22.186  43.908   8.264
 2810POPC   C3A37445  22.166  43.901   7.964
 2810POPC   C4A37446  22.127  43.926   7.664
 2810POPC   C1B37447  21.992  44.072   8.564
 2810POPC   C2B37448  21.986  44.103   8.264
 2810POPC   C3B37449  21.984  44.034   7.964
 2810POPC   C4B37450  21.990  44.045   7.664
 2811POPC   NC337451  13.596  17.523   9.464
 2811POPC   PO437452  13.588  17.554   9.164
 2811POPC   GL137453  13.641  17.495   8.864
 2811POPC   GL237454  13.677  17.428   8.864
 2811POPC   C1A37455  13.636  17.533   8.564
 2811POPC   D2A37456  13.616  17.470   8.264
 2811POPC   C3A37457  13.615  17.465   7.964
 2811POPC   C4A37458  13.585  17.471   7.664
 2811POPC   C1B37459  13.781  17.293   8.564
 2811POPC   C2B37460  13.768  17.250   8.264
 2811POPC   C3B37461  13.701  17.245   7.964
 2811POPC   C4B37462  13.736  17.291   7.664
 2812POPC   NC337463  29.109   3.558   9.464
 2812POPC   PO437464  29.134   3.526   9.164
 2812POPC   GL137465  29.179   3.526   8.864
 2812POPC   GL237466  29.268   3.572   8.864
 2812POPC   C1A37467  29.194   3.591   8.564
 2812POPC   D2A37468  29.128   3.568   8.264
 2812POPC   C3A37469  29.185   3.571   7.964
 2812POPC   C4A37470  29.148   3.505   7.664
 2812POPC   C1B37471  29.361   3.602   8.564
 2812POPC   C2B37472  29.428   3.630   8.264
 2812POPC   C3B37473  29.402   3.626   7.964
 2812POPC   C4B37474  29.374   3.585   7.664
 2813POPC   NC337475  36.089  44.683   9.464
 2813POPC   PO437476  36.138  44.638   9.164
 2813POPC   GL137477  36.101  44.681   8.864
 2813POPC   GL237478  36.020  44.676   8.864
 2813POPC   C1A37479  36.172  44.653   8.564
 2813POPC   D2A37480  36.079  44.634   8.264
 2813POPC   C3A37481  36.112  44.700   7.964
 2813POPC   C4A37482  36.174  44.655   7.664
 2813POPC   C1B37483  35.929  44.743   8.564
 2813POPC   C2B37484  35.918  44.735   8.264
 2813POPC   C3B37485  35.929  44.735   7.964
 2813POPC   C4B37486  35.893  44.814   7.664
 2814POPC   NC337487  29.154  35.396   9.464
 2814POPC   PO437488  29.158  35.328   9.164
 2814POPC   GL137489  29.127  35.305   8.864
 2814POPC   GL237490  29.238  35.330   8.864
 2814POPC   C1A37491  29.156  35.364   8.564
 2814POPC   D2A37492  29.149  35.380   8.264
 2814POPC   C3A37493  29.174  35.304   7.964
 2814POPC   C4A37494  29.145  35.352   7.664
 2814POPC   C1B37495  29.407  35.411   8.564
 2814POPC   C2B37496  29.375  35.364   8.264
 2814POPC   C3B37497  29.383  35.368   7.964
 2814POPC   C4B37498  29.402  35.334   7.664
 2815POPC   NC337499   8.944  12.819   9.464
 2815POPC   PO437500   8.985  12.849   9.164
 2815POPC   GL137501   9.001  12.883   8.864
 2815POPC   GL237502   9.101  12.803   8.864
 2815POPC   C1A37503   8.932  12.876   8.564
 2815POPC   D2A37504   9.016  12.841   8.264
 2815POPC   C3A37505   8.932  12.894   7.964
 2815POPC   C4A37506   9.005  12.899   7.664
 2815POPC   C1B37507   9.149  12.672   8.564
 2815POPC   C2B37508   9.151  12.653   8.264
 2815POPC   C3B37509   9.142  12.699   7.964
 2815POPC   C4B37510   9.119  12.628   7.664
 2816POPC   NC337511  26.805   3.577   9.464
 2816POPC   PO437512  26.817   3.551   9.164
 2816POPC   GL137513  26.774   3.529   8.864
 2816POPC   GL237514  26.759   3.406   8.864
 2816POPC   C1A37515  26.782   3.527   8.564
 2816POPC   D2A37516  26.857   3.511   8.264
 2816POPC   C3A37517  26.808   3.554   7.964
 2816POPC   C4A37518  26.812   3.504   7.664
 2816POPC   C1B37519  26.655   3.387   8.564
 2816POPC   C2B37520  26.664   3.388   8.264
 2816POPC   C3B37521  26.656   3.293   7.964
 2816POPC   C4B37522  26.689   3.359   7.664
 2817POPC   NC337523  19.796   6.694   9.464
 2817POPC   PO437524  19.849   6.678   9.164
 2817POPC   GL137525  19.822   6.622   8.864
 2817POPC   GL237526  19.777   6.809   8.864
 2817POPC   C1A37527  19.856   6.611   8.564
 2817POPC   D2A37528  19.805   6.655   8.264
 2817POPC   C3A37529  19.790   6.613   7.964
 2817POPC   C4A37530  19.788   6.688   7.664
 2817POPC   C1B37531  19.780   6.942   8.564
 2817POPC   C2B37532  19.782   6.852   8.264
 2817POPC   C3B37533  19.799   6.929   7.964
 2817POPC   C4B37534  19.806   6.915   7.664
 2818POPC   NC337535   8.182   9.759   9.464
 2818POPC   PO437536   8.192   9.743   9.164
 2818POPC   GL137537   8.240   9.753   8.864
 2818POPC   GL237538   8.321   9.849   8.864
 2818POPC   C1A37539   8.166   9.724   8.564
 2818POPC   D2A37540   8.162   9.710   8.264
 2818POPC   C3A37541   8.246   9.756   7.964
 2818POPC   C4A37542   8.176   9.746   7.664
 2818POPC   C1B37543   8.400   9.842   8.564
 2818POPC   C2B37544   8.466   9.828   8.264
 2818POPC   C3B37545   8.389   9.809   7.964
 2818POPC   C4B37546   8.472   9.816   7.664
 2819POPC   NC337547   7.423  19.789   9.464
 2819POPC   PO437548   7.408  19.881   9.164
 2819POPC   GL137549   7.435  19.870   8.864
 2819POPC   GL237550   7.446  19.697   8.864
 2819POPC   C1A37551   7.405  19.786   8.564
 2819POPC   D2A37552   7.375  19.881   8.264
 2819POPC   C3A37553   7.373  19.790   7.964
 2819POPC   C4A37554   7.451  19.812   7.664
 2819POPC   C1B37555   7.523  19.604   8.564
 2819POPC   C2B37556   7.452  19.574   8.264
 2819POPC   C3B37557   7.458  19.598   7.964
 2819POPC   C4B37558   7.469  19.542   7.664
 2820POPC   NC337559  30.746  22.967   9.464
 2820POPC   PO437560  30.660  22.922   9.164
 2820POPC   GL137561  30.735  22.929   8.864
 2820POPC   GL237562  30.612  22.886   8.864
 2820POPC   C1A37563  30.704  22.897   8.564
 2820POPC   D2A37564  30.745  22.891   8.264
 2820POPC   C3A37565  30.740  22.925   7.964
 2820POPC   C4A37566  30.730  22.929   7.664
 2820POPC   C1B37567  30.516  22.725   8.564
 2820POPC   C2B37568  30.536  22.748   8.264
 2820POPC   C3B37569  30.546  22.751   7.964
 2820POPC   C4B37570  30.515  22.702   7.664
 2821POPC   NC337571  40.811  30.716   9.464
 2821POPC   PO437572  40.737  30.745   9.164
 2821POPC   GL137573  40.829  30.658   8.864
 2821POPC   GL237574  40.840  30.816   8.864
 2821POPC   C1A37575  40.791  30.651   8.564
 2821POPC   D2A37576  40.763  30.716   8.264
 2821POPC   C3A37577  40.781  30.667   7.964
 2821POPC   C4A37578  40.744  30.674   7.664
 2821POPC   C1B37579  40.982  30.877   8.564
 2821POPC   C2B37580  40.909  30.898   8.264
 2821POPC   C3B37581  40.999  30.845   7.964
 2821POPC   C4B37582  40.912  30.882   7.664
 2822POPC   NC337583  22.171  33.016   9.464
 2822POPC   PO437584  22.198  33.050   9.164
 2822POPC   GL137585  22.183  33.053   8.864
 2822POPC   GL237586  22.263  33.115   8.864
 2822POPC   C1A37587  22.145  33.005   8.564
 2822POPC   D2A37588  22.180  33.059   8.264
 2822POPC   C3A37589  22.204  33.039   7.964
 2822POPC   C4A37590  22.149  32.997   7.664
 2822POPC   C1B37591  22.338  33.219   8.564
 2822POPC   C2B37592  22.398  33.146   8.264
 2822POPC   C3B37593  22.342  33.143   7.964
 2822POPC   C4B37594  22.366  33.215   7.664
 2823POPC   NC337595  33.803  15.906   9.464
 2823POPC   PO437596  33.777  15.994   9.164
 2823POPC   GL137597  33.768  15.911   8.864
 2823POPC   GL237598  33.919  15.848   8.864
 2823POPC   C1A37599  33.808  15.996   8.564
 2823POPC   D2A37600  33.835  15.977   8.264
 2823POPC   C3A37601  33.831  15.943   7.964
 2823POPC   C4A37602  33.833  15.946   7.664
 2823POPC   C1B37603  33.954  15.769   8.564
 2823POPC   C2B37604  33.943  15.780   8.264
 2823POPC   C3B37605  33.988  15.810   7.964
 2823POPC   C4B37606  34.019  15.799   7.664
 2824POPC   NC337607  44.632   4.302   9.464
 2824POPC   PO437608  44.686   4.366   9.164
 2824POPC   GL137609  44.686   4.348   8.864
 2824POPC   GL237610  44.566   4.371   8.864
 2824POPC   C1A37611  44.675   4.316   8.564
 2824POPC   D2A37612  44.690   4.315   8.264
 2824POPC   C3A37613  44.707   4.311   7.964
 2824POPC   C4A37614  44.636   4.309   7.664
 2824POPC   C1B37615  44.402   4.336   8.564
 2824POPC   C2B37616  44.432   4.364   8.264
 2824POPC   C3B37617  44.446   4.366   7.964
 2824POPC   C4B37618  44.379   4.369   7.664
 2825POPC   NC337619  11.335   5.842   9.464
 2825POPC   PO437620  11.271   5.878   9.164
 2825POPC   GL137621  11.321   5.859   8.864
 2825POPC   GL237622  11.152   5.844   8.864
 2825POPC   C1A37623  11.335   5.909   8.564
 2825POPC   D2A37624  11.257   5.916   8.264
 2825POPC   C3A37625  11.324   5.833   7.964
 2825POPC   C4A37626  11.347   5.908   7.664
 2825POPC   C1B37627  11.022   5.832   8.564
 2825POPC   C2B37628  11.025   5.878   8.264
 2825POPC   C3B37629  11.070   5.791   7.964
 2825POPC   C4B37630  11.032   5.820   7.664
 2826POPC   NC337631   9.757  42.346   9.464
 2826POPC   PO437632   9.720  42.327   9.164
 2826POPC   GL137633   9.733  42.341   8.864
 2826POPC   GL237634   9.865  42.400   8.864
 2826POPC   C1A37635   9.744  42.345   8.564
 2826POPC   D2A37636   9.701  42.370   8.264
 2826POPC   C3A37637   9.778  42.307   7.964
 2826POPC   C4A37638   9.733  42.382   7.664
 2826POPC   C1B37639   9.966  42.455   8.564
 2826POPC   C2B37640   9.991  42.465   8.264
 2826POPC   C3B37641   9.972  42.496   7.964
 2826POPC   C4B37642   9.918  42.482   7.664
 2827POPC   NC337643  44.651  41.570   9.464
 2827POPC   PO437644  44.706  41.605   9.164
 2827POPC   GL137645  44.656  41.556   8.864
 2827POPC   GL237646  44.619  41.642   8.864
 2827POPC   C1A37647  44.631  41.566   8.564
 2827POPC   D2A37648  44.682  41.585   8.264
 2827POPC   C3A37649  44.708  41.589   7.964
 2827POPC   C4A37650  44.674  41.589   7.664
 2827POPC   C1B37651  44.647  41.783   8.564
 2827POPC   C2B37652  44.615  41.802   8.264
 2827POPC   C3B37653  44.573  41.793   7.964
 2827POPC   C4B37654  44.610  41.850   7.664
 2828POPC   NC337655  16.711   8.182   9.464
 2828POPC   PO437656  16.766   8.155   9.164
 2828POPC   GL137657  16.752   8.220   8.864
 2828POPC   GL237658  16.729   8.313   8.864
 2828POPC   C1A37659  16.763   8.209   8.564
 2828POPC   D2A37660  16.776   8.205   8.264
 2828POPC   C3A37661  16.702   8.241   7.964
 2828POPC   C4A37662  16.685   8.228   7.664
 2828POPC   C1B37663  16.781   8.488   8.564
 2828POPC   C2B37664  16.791   8.395   8.264
 2828POPC   C3B37665  16.814   8.487   7.964
 2828POPC   C4B37666  16.756   8.441   7.664
 2829POPC   NC337667   8.975  19.861   9.464
 2829POPC   PO437668   9.018  19.791   9.164
 2829POPC   GL137669   8.963  19.824   8.864
 2829POPC   GL237670   9.139  19.828   8.864
 2829POPC   C1A37671   8.954  19.881   8.564
 2829POPC   D2A37672   8.938  19.789   8.264
 2829POPC   C3A37673   8.964  19.814   7.964
 2829POPC   C4A37674   8.950  19.800   7.664
 2829POPC   C1B37675   9.262  19.817   8.564
 2829POPC   C2B37676   9.250  19.807   8.264
 2829POPC   C3B37677   9.216  19.838   7.964
 2829POPC   C4B37678   9.209  19.771   7.664
 2830POPC   NC337679  36.083  43.863   9.464
 2830POPC   PO437680  36.078  43.850   9.164
 2830POPC   GL137681  36.157  43.897   8.864
 2830POPC   GL237682  36.162  43.785   8.864
 2830POPC   C1A37683  36.162  43.868   8.564
 2830POPC   D2A37684  36.146  43.881   8.264
 2830POPC   C3A37685  36.114  43.883   7.964
 2830POPC   C4A37686  36.168  43.842   7.664
 2830POPC   C1B37687  36.272  43.673   8.564
 2830POPC   C2B37688  36.301  43.728   8.264
 2830POPC   C3B37689  36.312  43.700   7.964
 2830POPC   C4B37690  36.325  43.696   7.664
 2831POPC   NC337691  16.750  38.439   9.464
 2831POPC   PO437692  16.764  38.466   9.164
 2831POPC   GL137693  16.726  38.452   8.864
 2831POPC   GL237694  16.667  38.527   8.864
 2831POPC   C1A37695  16.735  38.439   8.564
 2831POPC   D2A37696  16.705  38.473   8.264
 2831POPC   C3A37697  16.687  38.463   7.964
 2831POPC   C4A37698  16.692  38.433   7.664
 2831POPC   C1B37699  16.554  38.571   8.564
 2831POPC   C2B37700  16.504  38.627   8.264
 2831POPC   C3B37701  16.499  38.650   7.964
 2831POPC   C4B37702  16.535  38.587   7.664
 2832POPC   NC337703   9.778  28.381   9.464
 2832POPC   PO437704   9.760  28.344   9.164
 2832POPC   GL137705   9.709  28.376   8.864
 2832POPC   GL237706   9.700  28.249   8.864
 2832POPC   C1A37707   9.734  28.339   8.564
 2832POPC   D2A37708   9.707  28.326   8.264
 2832POPC   C3A37709   9.719  28.371   7.964
 2832POPC   C4A37710   9.703  28.343   7.664
 2832POPC   C1B37711   9.710  28.140   8.564
 2832POPC   C2B37712   9.735  28.088   8.264
 2832POPC   C3B37713   9.690  28.092   7.964
 2832POPC   C4B37714   9.721  28.144   7.664
 2833POPC   NC337715  31.470  28.382   9.464
 2833POPC   PO437716  31.501  28.399   9.164
 2833POPC   GL137717  31.445  28.330   8.864
 2833POPC   GL237718  31.485  28.251   8.864
 2833POPC   C1A37719  31.512  28.414   8.564
 2833POPC   D2A37720  31.518  28.321   8.264
 2833POPC   C3A37721  31.497  28.365   7.964
 2833POPC   C4A37722  31.425  28.405   7.664
 2833POPC   C1B37723  31.506  28.088   8.564
 2833POPC   C2B37724  31.531  28.116   8.264
 2833POPC   C3B37725  31.516  28.121   7.964
 2833POPC   C4B37726  31.502  28.078   7.664
 2834POPC   NC337727  43.901  38.430   9.464
 2834POPC   PO437728  43.845  38.466   9.164
 2834POPC   GL137729  43.855  38.480   8.864
 2834POPC   GL237730  44.035  38.444   8.864
 2834POPC   C1A37731  43.908  38.452   8.564
 2834POPC   D2A37732  43.894  38.475   8.264
 2834POPC   C3A37733  43.881  38.418   7.964
 2834POPC   C4A37734  43.886  38.479   7.664
 2834POPC   C1B37735  44.146  38.372   8.564
 2834POPC   C2B37736  44.095  38.436   8.264
 2834POPC   C3B37737  44.111  38.382   7.964
 2834POPC   C4B37738  44.132  38.414   7.664
 2835POPC   NC337739  27.609  26.019   9.464
 2835POPC   PO437740  27.570  26.044   9.164
 2835POPC   GL137741  27.608  26.004   8.864
 2835POPC   GL237742  27.494  26.048   8.864
 2835POPC   C1A37743  27.599  26.008   8.564
 2835POPC   D2A37744  27.603  26.070   8.264
 2835POPC   C3A37745  27.544  26.013   7.964
 2835POPC   C4A37746  27.621  25.997   7.664
 2835POPC   C1B37747  27.345  26.140   8.564
 2835POPC   C2B37748  27.367  26.062   8.264
 2835POPC   C3B37749  27.338  26.064   7.964
 2835POPC   C4B37750  27.359  26.089   7.664
 2836POPC   NC337751  40.017  38.468   9.464
 2836POPC   PO437752  39.958  38.482   9.164
 2836POPC   GL137753  40.047  38.480   8.864
 2836POPC   GL237754  39.976  38.591   8.864
 2836POPC   C1A37755  40.033  38.436   8.564
 2836POPC   D2A37756  40.049  38.452   8.264
 2836POPC   C3A37757  40.023  38.416   7.964
 2836POPC   C4A37758  40.048  38.474   7.664
 2836POPC   C1B37759  39.845  38.631   8.564
 2836POPC   C2B37760  39.875  38.638   8.264
 2836POPC   C3B37761  39.846  38.694   7.964
 2836POPC   C4B37762  39.851  38.665   7.664
 2837POPC   NC337763   4.327  23.719   9.464
 2837POPC   PO437764   4.310  23.696   9.164
 2837POPC   GL137765   4.272  23.740   8.864
 2837POPC   GL237766   4.404  23.676   8.864
 2837POPC   C1A37767   4.282  23.736   8.564
 2837POPC   D2A37768   4.290  23.680   8.264
 2837POPC   C3A37769   4.313  23.675   7.964
 2837POPC   C4A37770   4.332  23.715   7.664
 2837POPC   C1B37771   4.585  23.618   8.564
 2837POPC   C2B37772   4.603  23.667   8.264
 2837POPC   C3B37773   4.576  23.687   7.964
 2837POPC   C4B37774   4.596  23.668   7.664
 2838POPC   NC337775  25.311  31.505   9.464
 2838POPC   PO437776  25.259  31.448   9.164
 2838POPC   GL137777  25.227  31.485   8.864
 2838POPC   GL237778  25.239  31.624   8.864
 2838POPC   C1A37779  25.219  31.509   8.564
 2838POPC   D2A37780  25.219  31.472   8.264
 2838POPC   C3A37781  25.306  31.443   7.964
 2838POPC   C4A37782  25.274  31.470   7.664
 2838POPC   C1B37783  25.250  31.763   8.564
 2838POPC   C2B37784  25.253  31.724   8.264
 2838POPC   C3B37785  25.229  31.761   7.964
 2838POPC   C4B37786  25.253  31.727   7.664
 2839POPC   NC337787   9.750  40.806   9.464
 2839POPC   PO437788   9.785  40.818   9.164
 2839POPC   GL137789   9.756  40.830   8.864
 2839POPC   GL237790   9.748  40.862   8.864
 2839POPC   C1A37791   9.776  40.754   8.564
 2839POPC   D2A37792   9.774  40.739   8.264
 2839POPC   C3A37793   9.794  40.830   7.964
 2839POPC   C4A37794   9.765  40.824   7.664
 2839POPC   C1B37795   9.696  41.004   8.564
 2839POPC   C2B37796   9.736  41.037   8.264
 2839POPC   C3B37797   9.732  40.993   7.964
 2839POPC   C4B37798   9.753  41.044   7.664
 2840POPC   NC337799  12.808  44.658   9.464
 2840POPC   PO437800  12.814  44.630   9.164
 2840POPC   GL137801  12.814  44.664   8.864
 2840POPC   GL237802  12.743  44.616   8.864
 2840POPC   C1A37803  12.888  44.672   8.564
 2840POPC   D2A37804  12.812  44.639   8.264
 2840POPC   C3A37805  12.847  44.671   7.964
 2840POPC   C4A37806  12.878  44.663   7.664
 2840POPC   C1B37807  12.620  44.557   8.564
 2840POPC   C2B37808  12.606  44.550   8.264
 2840POPC   C3B37809  12.688  44.489   7.964
 2840POPC   C4B37810  12.592  44.541   7.664
 2841POPC   NC337811   8.945  10.498   9.464
 2841POPC   PO437812   8.937  10.529   9.164
 2841POPC   GL137813   9.012  10.547   8.864
 2841POPC   GL237814   8.814  10.565   8.864
 2841POPC   C1A37815   8.998  10.548   8.564
 2841POPC   D2A37816   8.952  10.527   8.264
 2841POPC   C3A37817   9.014  10.572   7.964
 2841POPC   C4A37818   8.930  10.511   7.664
 2841POPC   C1B37819   8.766  10.656   8.564
 2841POPC   C2B37820   8.757  10.611   8.264
 2841POPC   C3B37821   8.782  10.608   7.964
 2841POPC   C4B37822   8.786  10.600   7.664
 2842POPC   NC337823   9.737  30.700   9.464
 2842POPC   PO437824   9.769  30.723   9.164
 2842POPC   GL137825   9.771  30.683   8.864
 2842POPC   GL237826   9.652  30.748   8.864
 2842POPC   C1A37827   9.767  30.689   8.564
 2842POPC   D2A37828   9.700  30.719   8.264
 2842POPC   C3A37829   9.725  30.667   7.964
 2842POPC   C4A37830   9.741  30.721   7.664
 2842POPC   C1B37831   9.526  30.890   8.564
 2842POPC   C2B37832   9.576  30.839   8.264
 2842POPC   C3B37833   9.602  30.912   7.964
 2842POPC   C4B37834   9.547  30.890   7.664
 2843POPC   NC337835  37.644  25.248   9.464
 2843POPC   PO437836  37.686  25.296   9.164
 2843POPC   GL137837  37.665  25.234   8.864
 2843POPC   GL237838  37.549  25.259   8.864
 2843POPC   C1A37839  37.692  25.224   8.564
 2843POPC   D2A37840  37.650  25.308   8.264
 2843POPC   C3A37841  37.649  25.291   7.964
 2843POPC   C4A37842  37.729  25.313   7.664
 2843POPC   C1B37843  37.431  25.299   8.564
 2843POPC   C2B37844  37.474  25.250   8.264
 2843POPC   C3B37845  37.383  25.221   7.964
 2843POPC   C4B37846  37.406  25.217   7.664
 2844POPC   NC337847  24.503  33.000   9.464
 2844POPC   PO437848  24.450  33.051   9.164
 2844POPC   GL137849  24.440  33.062   8.864
 2844POPC   GL237850  24.386  33.060   8.864
 2844POPC   C1A37851  24.475  33.059   8.564
 2844POPC   D2A37852  24.525  33.061   8.264
 2844POPC   C3A37853  24.514  32.979   7.964
 2844POPC   C4A37854  24.456  33.057   7.664
 2844POPC   C1B37855  24.279  33.195   8.564
 2844POPC   C2B37856  24.251  33.144   8.264
 2844POPC   C3B37857  24.331  33.199   7.964
 2844POPC   C4B37858  24.265  33.139   7.664
 2845POPC   NC337859  19.853   7.425   9.464
 2845POPC   PO437860  19.832   7.371   9.164
 2845POPC   GL137861  19.839   7.411   8.864
 2845POPC   GL237862  19.852   7.268   8.864
 2845POPC   C1A37863  19.806   7.421   8.564
 2845POPC   D2A37864  19.808   7.452   8.264
 2845POPC   C3A37865  19.830   7.437   7.964
 2845POPC   C4A37866  19.787   7.379   7.664
 2845POPC   C1B37867  19.775   7.127   8.564
 2845POPC   C2B37868  19.778   7.123   8.264
 2845POPC   C3B37869  19.755   7.158   7.964
 2845POPC   C4B37870  19.785   7.193   7.664
 2846POPC   NC337871  36.087   5.858   9.464
 2846POPC   PO437872  36.157   5.837   9.164
 2846POPC   GL137873  36.160   5.832   8.864
 2846POPC   GL237874  36.132   5.734   8.864
 2846POPC   C1A37875  36.086   5.848   8.564
 2846POPC   D2A37876  36.135   5.833   8.264
 2846POPC   C3A37877  36.081   5.826   7.964
 2846POPC   C4A37878  36.134   5.853   7.664
 2846POPC   C1B37879  36.140   5.602   8.564
 2846POPC   C2B37880  36.168   5.614   8.264
 2846POPC   C3B37881  36.116   5.637   7.964
 2846POPC   C4B37882  36.165   5.645   7.664
 2847POPC   NC337883  29.932  13.623   9.464
 2847POPC   PO437884  29.911  13.607   9.164
 2847POPC   GL137885  29.945  13.606   8.864
 2847POPC   GL237886  29.924  13.782   8.864
 2847POPC   C1A37887  29.902  13.581   8.564
 2847POPC   D2A37888  29.964  13.600   8.264
 2847POPC   C3A37889  29.929  13.585   7.964
 2847POPC   C4A37890  29.875  13.620   7.664
 2847POPC   C1B37891  29.967  13.860   8.564
 2847POPC   C2B37892  29.971  13.871   8.264
 2847POPC   C3B37893  29.927  13.880   7.964
 2847POPC   C4B37894  29.935  13.861   7.664
 2848POPC   NC337895  33.774   0.450   9.464
 2848POPC   PO437896  33.819   0.484   9.164
 2848POPC   GL137897  33.844   0.396   8.864
 2848POPC   GL237898  33.933   0.576   8.864
 2848POPC   C1A37899  33.831   0.448   8.564
 2848POPC   D2A37900  33.768   0.466   8.264
 2848POPC   C3A37901  33.846   0.391   7.964
 2848POPC   C4A37902  33.832   0.410   7.664
 2848POPC   C1B37903  33.942   0.616   8.564
 2848POPC   C2B37904  33.998   0.587   8.264
 2848POPC   C3B37905  34.007   0.624   7.964
 2848POPC   C4B37906  33.979   0.575   7.664
 2849POPC   NC337907  39.957   1.164   9.464
 2849POPC   PO437908  40.045   1.181   9.164
 2849POPC   GL137909  40.003   1.262   8.864
 2849POPC   GL237910  39.993   1.360   8.864
 2849POPC   C1A37911  39.985   1.254   8.564
 2849POPC   D2A37912  39.963   1.231   8.264
 2849POPC   C3A37913  40.042   1.172   7.964
 2849POPC   C4A37914  40.040   1.189   7.664
 2849POPC   C1B37915  40.063   1.466   8.564
 2849POPC   C2B37916  40.052   1.419   8.264
 2849POPC   C3B37917  40.040   1.446   7.964
 2849POPC   C4B37918  40.099   1.494   7.664
 2850POPC   NC337919  21.410   1.190   9.464
 2850POPC   PO437920  21.374   1.192   9.164
 2850POPC   GL137921  21.368   1.239   8.864
 2850POPC   GL237922  21.272   1.176   8.864
 2850POPC   C1A37923  21.402   1.233   8.564
 2850POPC   D2A37924  21.337   1.242   8.264
 2850POPC   C3A37925  21.343   1.199   7.964
 2850POPC   C4A37926  21.416   1.179   7.664
 2850POPC   C1B37927  21.116   1.147   8.564
 2850POPC   C2B37928  21.110   1.097   8.264
 2850POPC   C3B37929  21.111   1.158   7.964
 2850POPC   C4B37930  21.151   1.160   7.664
 2851POPC   NC337931  26.003  28.391   9.464
 2851POPC   PO437932  26.080  28.406   9.164
 2851POPC   GL137933  26.073  28.336   8.864
 2851POPC   GL237934  25.981  28.477   8.864
 2851POPC   C1A37935  26.073  28.352   8.564
 2851POPC   D2A37936  26.043  28.398   8.264
 2851POPC   C3A37937  25.997  28.418   7.964
 2851POPC   C4A37938  26.069  28.350   7.664
 2851POPC   C1B37939  25.810  28.450   8.564
 2851POPC   C2B37940  25.800  28.512   8.264
 2851POPC   C3B37941  25.846  28.464   7.964
 2851POPC   C4B37942  25.812  28.494   7.664
 2852POPC   NC337943  35.374  21.411   9.464
 2852POPC   PO437944  35.334  21.345   9.164
 2852POPC   GL137945  35.366  21.357   8.864
 2852POPC   GL237946  35.304  21.451   8.864
 2852POPC   C1A37947  35.312  21.350   8.564
 2852POPC   D2A37948  35.330  21.424   8.264
 2852POPC   C3A37949  35.329  21.342   7.964
 2852POPC   C4A37950  35.317  21.342   7.664
 2852POPC   C1B37951  35.224  21.615   8.564
 2852POPC   C2B37952  35.279  21.573   8.264
 2852POPC   C3B37953  35.227  21.569   7.964
 2852POPC   C4B37954  35.243  21.629   7.664
 2853POPC   NC337955  40.828   5.845   9.464
 2853POPC   PO437956  40.754   5.827   9.164
 2853POPC   GL137957  40.734   5.874   8.864
 2853POPC   GL237958  40.811   5.699   8.864
 2853POPC   C1A37959  40.748   5.851   8.564
 2853POPC   D2A37960  40.798   5.893   8.264
 2853POPC   C3A37961  40.832   5.823   7.964
 2853POPC   C4A37962  40.769   5.840   7.664
 2853POPC   C1B37963  40.801   5.602   8.564
 2853POPC   C2B37964  40.773   5.591   8.264
 2853POPC   C3B37965  40.771   5.602   7.964
 2853POPC   C4B37966  40.792   5.617   7.664
 2854POPC   NC337967  31.480  32.279   9.464
 2854POPC   PO437968  31.487  32.287   9.164
 2854POPC   GL137969  31.515  32.222   8.864
 2854POPC   GL237970  31.561  32.272   8.864
 2854POPC   C1A37971  31.438  32.257   8.564
 2854POPC   D2A37972  31.481  32.292   8.264
 2854POPC   C3A37973  31.483  32.274   7.964
 2854POPC   C4A37974  31.479  32.294   7.664
 2854POPC   C1B37975  31.683  32.360   8.564
 2854POPC   C2B37976  31.733  32.304   8.264
 2854POPC   C3B37977  31.669  32.387   7.964
 2854POPC   C4B37978  31.686  32.333   7.664
 2855POPC   NC337979   5.860  19.108   9.464
 2855POPC   PO437980   5.830  19.026   9.164
 2855POPC   GL137981   5.865  19.070   8.864
 2855POPC   GL237982   5.762  19.186   8.864
 2855POPC   C1A37983   5.892  19.105   8.564
 2855POPC   D2A37984   5.892  19.101   8.264
 2855POPC   C3A37985   5.884  19.042   7.964
 2855POPC   C4A37986   5.828  19.020   7.664
 2855POPC   C1B37987   5.704  19.271   8.564
 2855POPC   C2B37988   5.709  19.204   8.264
 2855POPC   C3B37989   5.664  19.212   7.964
 2855POPC   C4B37990   5.695  19.217   7.664
 2856POPC   NC337991  10.532  20.591   9.464
 2856POPC   PO437992  10.525  20.561   9.164
 2856POPC   GL137993  10.562  20.622   8.864
 2856POPC   GL237994  10.466  20.717   8.864
 2856POPC   C1A37995  10.524  20.600   8.564
 2856POPC   D2A37996  10.572  20.611   8.264
 2856POPC   C3A37997  10.543  20.613   7.964
 2856POPC   C4A37998  10.511  20.602   7.664
 2856POPC   C1B37999  10.271  20.705   8.564
 2856POPC   C2B38000  10.321  20.740   8.264
 2856POPC   C3B38001  10.341  20.762   7.964
 2856POPC   C4B38002  10.364  20.774   7.664
 2857POPC   NC338003  26.049  41.519   9.464
 2857POPC   PO438004  26.075  41.545   9.164
 2857POPC   GL138005  26.046  41.600   8.864
 2857POPC   GL238006  25.894  41.597   8.864
 2857POPC   C1A38007  26.085  41.558   8.564
 2857POPC   D2A38008  26.041  41.592   8.264
 2857POPC   C3A38009  26.053  41.515   7.964
 2857POPC   C4A38010  26.082  41.555   7.664
 2857POPC   C1B38011  25.808  41.701   8.564
 2857POPC   C2B38012  25.838  41.731   8.264
 2857POPC   C3B38013  25.795  41.700   7.964
 2857POPC   C4B38014  25.786  41.670   7.664
 2858POPC   NC338015  30.648  41.516   9.464
 2858POPC   PO438016  30.729  41.541   9.164
 2858POPC   GL138017  30.716  41.556   8.864
 2858POPC   GL238018  30.588  41.441   8.864
 2858POPC   C1A38019  30.693  41.530   8.564
 2858POPC   D2A38020  30.715  41.569   8.264
 2858POPC   C3A38021  30.655  41.576   7.964
 2858POPC   C4A38022  30.737  41.516   7.664
 2858POPC   C1B38023  30.465  41.401   8.564
 2858POPC   C2B38024  30.531  41.433   8.264
 2858POPC   C3B38025  30.459  41.367   7.964
 2858POPC   C4B38026  30.488  41.403   7.664
 2859POPC   NC338027   5.841  16.685   9.464
 2859POPC   PO438028   5.842  16.709   9.164
 2859POPC   GL138029   5.906  16.684   8.864
 2859POPC   GL238030   5.865  16.609   8.864
 2859POPC   C1A38031   5.824  16.763   8.564
 2859POPC   D2A38032   5.833  16.687   8.264
 2859POPC   C3A38033   5.874  16.734   7.964
 2859POPC   C4A38034   5.850  16.778   7.664
 2859POPC   C1B38035   5.897  16.436   8.564
 2859POPC   C2B38036   5.882  16.500   8.264
 2859POPC   C3B38037   5.862  16.487   7.964
 2859POPC   C4B38038   5.820  16.488   7.664
 2860POPC   NC338039   8.168  23.683   9.464
 2860POPC   PO438040   8.178  23.670   9.164
 2860POPC   GL138041   8.176  23.675   8.864
 2860POPC   GL238042   8.193  23.883   8.864
 2860POPC   C1A38043   8.186  23.707   8.564
 2860POPC   D2A38044   8.243  23.716   8.264
 2860POPC   C3A38045   8.164  23.745   7.964
 2860POPC   C4A38046   8.172  23.750   7.664
 2860POPC   C1B38047   8.140  23.913   8.564
 2860POPC   C2B38048   8.136  23.978   8.264
 2860POPC   C3B38049   8.118  23.953   7.964
 2860POPC   C4B38050   8.119  23.924   7.664
 2861POPC   NC338051  38.467  14.417   9.464
 2861POPC   PO438052  38.475  14.418   9.164
 2861POPC   GL138053  38.463  14.438   8.864
 2861POPC   GL238054  38.512  14.527   8.864
 2861POPC   C1A38055  38.422  14.383   8.564
 2861POPC   D2A38056  38.494  14.385   8.264
 2861POPC   C3A38057  38.431  14.435   7.964
 2861POPC   C4A38058  38.427  14.405   7.664
 2861POPC   C1B38059  38.514  14.643   8.564
 2861POPC   C2B38060  38.566  14.626   8.264
 2861POPC   C3B38061  38.496  14.630   7.964
 2861POPC   C4B38062  38.547  14.629   7.664
 2862POPC   NC338063  39.232  31.436   9.464
 2862POPC   PO438064  39.229  31.444   9.164
 2862POPC   GL138065  39.229  31.520   8.864
 2862POPC   GL238066  39.200  31.342   8.864
 2862POPC   C1A38067  39.267  31.474   8.564
 2862POPC   D2A38068  39.210  31.520   8.264
 2862POPC   C3A38069  39.193  31.445   7.964
 2862POPC   C4A38070  39.194  31.517   7.664
 2862POPC   C1B38071  39.122  31.304   8.564
 2862POPC   C2B38072  39.137  31.297   8.264
 2862POPC   C3B38073  39.093  31.256   7.964
 2862POPC   C4B38074  39.147  31.212   7.664
 2863POPC   NC338075  11.311   0.406   9.464
 2863POPC   PO438076  11.302   0.438   9.164
 2863POPC   GL138077  11.251   0.404   8.864
 2863POPC   GL238078  11.223   0.511   8.864
 2863POPC   C1A38079  11.345   0.419   8.564
 2863POPC   D2A38080  11.276   0.435   8.264
 2863POPC   C3A38081  11.268   0.403   7.964
 2863POPC   C4A38082  11.325   0.414   7.664
 2863POPC   C1B38083  11.123   0.649   8.564
 2863POPC   C2B38084  11.124   0.629   8.264
 2863POPC   C3B38085  11.158   0.576   7.964
 2863POPC   C4B38086  11.084   0.647   7.664
 2864POPC   NC338087  44.680   9.785   9.464
 2864POPC   PO438088  44.632   9.740   9.164
 2864POPC   GL138089  44.627   9.740   8.864
 2864POPC   GL238090  44.547   9.702   8.864
 2864POPC   C1A38091  44.648   9.778   8.564
 2864POPC   D2A38092  44.617   9.720   8.264
 2864POPC   C3A38093  44.672   9.710   7.964
 2864POPC   C4A38094  44.702   9.782   7.664
 2864POPC   C1B38095  44.476   9.623   8.564
 2864POPC   C2B38096  44.406   9.594   8.264
 2864POPC   C3B38097  44.439   9.638   7.964
 2864POPC   C4B38098  44.492   9.575   7.664
 2865POPC   NC338099  15.222  36.922   9.464
 2865POPC   PO438100  15.153  36.935   9.164
 2865POPC   GL138101  15.131  36.865   8.864
 2865POPC   GL238102  15.071  36.886   8.864
 2865POPC   C1A38103  15.192  36.883   8.564
 2865POPC   D2A38104  15.134  36.889   8.264
 2865POPC   C3A38105  15.155  36.935   7.964
 2865POPC   C4A38106  15.198  36.943   7.664
 2865POPC   C1B38107  14.970  36.865   8.564
 2865POPC   C2B38108  14.917  36.903   8.264
 2865POPC   C3B38109  14.954  36.916   7.964
 2865POPC   C4B38110  14.940  36.956   7.664
 2866POPC   NC338111   8.232  29.965   9.464
 2866POPC   PO438112   8.161  29.966   9.164
 2866POPC   GL138113   8.226  29.881   8.864
 2866POPC   GL238114   8.276  29.951   8.864
 2866POPC   C1A38115   8.196  29.953   8.564
 2866POPC   D2A38116   8.179  29.895   8.264
 2866POPC   C3A38117   8.149  29.951   7.964
 2866POPC   C4A38118   8.166  29.901   7.664
 2866POPC   C1B38119   8.458  29.958   8.564
 2866POPC   C2B38120   8.463  29.958   8.264
 2866POPC   C3B38121   8.427  29.910   7.964
 2866POPC   C4B38122   8.436  29.926   7.664
 2867POPC   NC338123  19.080   8.948   9.464
 2867POPC   PO438124  19.017   8.978   9.164
 2867POPC   GL138125  19.089   9.018   8.864
 2867POPC   GL238126  19.014   9.102   8.864
 2867POPC   C1A38127  19.105   9.018   8.564
 2867POPC   D2A38128  19.027   9.009   8.264
 2867POPC   C3A38129  19.108   8.984   7.964
 2867POPC   C4A38130  19.028   8.998   7.664
 2867POPC   C1B38131  19.051   9.242   8.564
 2867POPC   C2B38132  18.979   9.179   8.264
 2867POPC   C3B38133  18.970   9.246   7.964
 2867POPC   C4B38134  18.997   9.192   7.664
 2868POPC   NC338135  43.111  28.325   9.464
 2868POPC   PO438136  43.112  28.349   9.164
 2868POPC   GL138137  43.152  28.364   8.864
 2868POPC   GL238138  43.190  28.345   8.864
 2868POPC   C1A38139  43.144  28.363   8.564
 2868POPC   D2A38140  43.106  28.347   8.264
 2868POPC   C3A38141  43.115  28.371   7.964
 2868POPC   C4A38142  43.111  28.381   7.664
 2868POPC   C1B38143  43.379  28.392   8.564
 2868POPC   C2B38144  43.337  28.407   8.264
 2868POPC   C3B38145  43.355  28.438   7.964
 2868POPC   C4B38146  43.360  28.449   7.664
 2869POPC   NC338147  44.661  22.122   9.464
 2869POPC   PO438148  44.705  22.154   9.164
 2869POPC   GL138149  44.700  22.144   8.864
 2869POPC   GL238150  44.629  22.041   8.864
 2869POPC   C1A38151  44.647  22.139   8.564
 2869POPC   D2A38152  44.615  22.161   8.264
 2869POPC   C3A38153  44.627  22.164   7.964
 2869POPC   C4A38154  44.651  22.125   7.664
 2869POPC   C1B38155  44.697  21.953   8.564
 2869POPC   C2B38156  44.665  21.943   8.264
 2869POPC   C3B38157  44.684  21.864   7.964
 2869POPC   C4B38158  44.688  21.895   7.664
 2870POPC   NC338159  37.631   8.979   9.464
 2870POPC   PO438160  37.674   8.963   9.164
 2870POPC   GL138161  37.716   8.977   8.864
 2870POPC   GL238162  37.648   9.034   8.864
 2870POPC   C1A38163  37.720   9.020   8.564
 2870POPC   D2A38164  37.704   9.020   8.264
 2870POPC   C3A38165  37.636   8.949   7.964
 2870POPC   C4A38166  37.727   8.982   7.664
 2870POPC   C1B38167  37.561   9.186   8.564
 2870POPC   C2B38168  37.567   9.160   8.264
 2870POPC   C3B38169  37.518   9.154   7.964
 2870POPC   C4B38170  37.498   9.219   7.664
 2871POPC   NC338171  15.941  37.693   9.464
 2871POPC   PO438172  15.928  37.695   9.164
 2871POPC   GL138173  15.988  37.706   8.864
 2871POPC   GL238174  16.097  37.666   8.864
 2871POPC   C1A38175  15.940  37.677   8.564
 2871POPC   D2A38176  15.906  37.629   8.264
 2871POPC   C3A38177  15.974  37.673   7.964
 2871POPC   C4A38178  15.951  37.697   7.664
 2871POPC   C1B38179  16.196  37.722   8.564
 2871POPC   C2B38180  16.154  37.753   8.264
 2871POPC   C3B38181  16.200  37.688   7.964
 2871POPC   C4B38182  16.185  37.689   7.664
 2872POPC   NC338183   4.362   2.763   9.464
 2872POPC   PO438184   4.356   2.776   9.164
 2872POPC   GL138185   4.302   2.777   8.864
 2872POPC   GL238186   4.197   2.835   8.864
 2872POPC   C1A38187   4.312   2.766   8.564
 2872POPC   D2A38188   4.350   2.722   8.264
 2872POPC   C3A38189   4.327   2.742   7.964
 2872POPC   C4A38190   4.326   2.768   7.664
 2872POPC   C1B38191   4.157   2.968   8.564
 2872POPC   C2B38192   4.157   2.920   8.264
 2872POPC   C3B38193   4.217   2.923   7.964
 2872POPC   C4B38194   4.198   2.967   7.664
 2873POPC   NC338195   8.207  27.593   9.464
 2873POPC   PO438196   8.244  27.622   9.164
 2873POPC   GL138197   8.207  27.609   8.864
 2873POPC   GL238198   8.271  27.461   8.864
 2873POPC   C1A38199   8.192  27.616   8.564
 2873POPC   D2A38200   8.205  27.609   8.264
 2873POPC   C3A38201   8.228  27.581   7.964
 2873POPC   C4A38202   8.223  27.598   7.664
 2873POPC   C1B38203   8.319  27.402   8.564
 2873POPC   C2B38204   8.325  27.364   8.264
 2873POPC   C3B38205   8.334  27.416   7.964
 2873POPC   C4B38206   8.383  27.411   7.664
 2874POPC   NC338207   7.436  25.234   9.464
 2874POPC   PO438208   7.467  25.234   9.164
 2874POPC   GL138209   7.390  25.222   8.864
 2874POPC   GL238210   7.374  25.197   8.864
 2874POPC   C1A38211   7.467  25.267   8.564
 2874POPC   D2A38212   7.426  25.222   8.264
 2874POPC   C3A38213   7.441  25.261   7.964
 2874POPC   C4A38214   7.443  25.289   7.664
 2874POPC   C1B38215   7.189  25.086   8.564
 2874POPC   C2B38216   7.198  25.099   8.264
 2874POPC   C3B38217   7.212  25.137   7.964
 2874POPC   C4B38218   7.252  25.082   7.664
 2875POPC   NC338219  33.770  17.471   9.464
 2875POPC   PO438220  33.786  17.490   9.164
 2875POPC   GL138221  33.779  17.460   8.864
 2875POPC   GL238222  33.863  17.626   8.864
 2875POPC   C1A38223  33.791  17.463   8.564
 2875POPC   D2A38224  33.849  17.549   8.264
 2875POPC   C3A38225  33.768  17.518   7.964
 2875POPC   C4A38226  33.817  17.460   7.664
 2875POPC   C1B38227  33.827  17.729   8.564
 2875POPC   C2B38228  33.887  17.787   8.264
 2875POPC   C3B38229  33.846  17.783   7.964
 2875POPC   C4B38230  33.850  17.734   7.664
 2876POPC   NC338231  27.592   6.695   9.464
 2876POPC   PO438232  27.605   6.688   9.164
 2876POPC   GL138233  27.570   6.598   8.864
 2876POPC   GL238234  27.545   6.804   8.864
 2876POPC   C1A38235  27.589   6.626   8.564
 2876POPC   D2A38236  27.591   6.692   8.264
 2876POPC   C3A38237  27.598   6.615   7.964
 2876POPC   C4A38238  27.584   6.662   7.664
 2876POPC   C1B38239  27.563   6.907   8.564
 2876POPC   C2B38240  27.633   6.879   8.264
 2876POPC   C3B38241  27.624   6.850   7.964
 2876POPC   C4B38242  27.585   6.889   7.664
 2877POPC   NC338243  33.025  33.038   9.464
 2877POPC   PO438244  32.994  33.041   9.164
 2877POPC   GL138245  32.993  33.039   8.864
 2877POPC   GL238246  33.163  33.041   8.864
 2877POPC   C1A38247  32.993  33.034   8.564
 2877POPC   D2A38248  32.995  32.986   8.264
 2877POPC   C3A38249  32.978  33.060   7.964
 2877POPC   C4A38250  33.042  32.989   7.664
 2877POPC   C1B38251  33.217  33.096   8.564
 2877POPC   C2B38252  33.245  33.060   8.264
 2877POPC   C3B38253  33.308  33.066   7.964
 2877POPC   C4B38254  33.219  33.051   7.664
 2878POPC   NC338255  15.960  29.183   9.464
 2878POPC   PO438256  15.993  29.125   9.164
 2878POPC   GL138257  15.914  29.179   8.864
 2878POPC   GL238258  16.038  29.070   8.864
 2878POPC   C1A38259  15.982  29.106   8.564
 2878POPC   D2A38260  15.990  29.159   8.264
 2878POPC   C3A38261  15.996  29.124   7.964
 2878POPC   C4A38262  15.966  29.131   7.664
 2878POPC   C1B38263  16.138  28.979   8.564
 2878POPC   C2B38264  16.073  28.959   8.264
 2878POPC   C3B38265  16.097  28.956   7.964
 2878POPC   C4B38266  16.085  28.977   7.664
 2879POPC   NC338267   2.022  29.107   9.464
 2879POPC   PO438268   2.014  29.128   9.164
 2879POPC   GL138269   2.003  29.158   8.864
 2879POPC   GL238270   1.922  29.203   8.864
 2879POPC   C1A38271   1.961  29.185   8.564
 2879POPC   D2A38272   1.988  29.129   8.264
 2879POPC   C3A38273   1.970  29.098   7.964
 2879POPC   C4A38274   1.999  29.112   7.664
 2879POPC   C1B38275   1.761  29.232   8.564
 2879POPC   C2B38276   1.751  29.271   8.264
 2879POPC   C3B38277   1.783  29.290   7.964
 2879POPC   C4B38278   1.825  29.272   7.664
 2880POPC   NC338279  26.793  25.311   9.464
 2880POPC   PO438280  26.804  25.262   9.164
 2880POPC   GL138281  26.798  25.275   8.864
 2880POPC   GL238282  26.705  25.267   8.864
 2880POPC   C1A38283  26.807  25.270   8.564
 2880POPC   D2A38284  26.854  25.221   8.264
 2880POPC   C3A38285  26.806  25.295   7.964
 2880POPC   C4A38286  26.815  25.272   7.664
 2880POPC   C1B38287  26.614  25.157   8.564
 2880POPC   C2B38288  26.602  25.144   8.264
 2880POPC   C3B38289  26.600  25.209   7.964
 2880POPC   C4B38290  26.566  25.190   7.664
 2881POPC   NC338291  16.694  19.067   9.464
 2881POPC   PO438292  16.713  19.075   9.164
 2881POPC   GL138293  16.748  19.029   8.864
 2881POPC   GL238294  16.569  19.068   8.864
 2881POPC   C1A38295  16.714  19.053   8.564
 2881POPC   D2A38296  16.716  19.030   8.264
 2881POPC   C3A38297  16.698  19.044   7.964
 2881POPC   C4A38298  16.768  19.038   7.664
 2881POPC   C1B38299  16.488  19.146   8.564
 2881POPC   C2B38300  16.462  19.128   8.264
 2881POPC   C3B38301  16.479  19.151   7.964
 2881POPC   C4B38302  16.508  19.082   7.664
 2882POPC   NC338303  30.728  29.145   9.464
 2882POPC   PO438304  30.713  29.128   9.164
 2882POPC   GL138305  30.693  29.178   8.864
 2882POPC   GL238306  30.743  29.041   8.864
 2882POPC   C1A38307  30.715  29.133   8.564
 2882POPC   D2A38308  30.686  29.165   8.264
 2882POPC   C3A38309  30.680  29.139   7.964
 2882POPC   C4A38310  30.688  29.150   7.664
 2882POPC   C1B38311  30.857  28.881   8.564
 2882POPC   C2B38312  30.802  28.897   8.264
 2882POPC   C3B38313  30.797  28.932   7.964
 2882POPC   C4B38314  30.802  28.919   7.664
 2883POPC   NC338315  22.956  40.008   9.464
 2883POPC   PO438316  22.915  40.010   9.164
 2883POPC   GL138317  22.891  39.999   8.864
 2883POPC   GL238318  22.849  40.015   8.864
 2883POPC   C1A38319  22.901  40.015   8.564
 2883POPC   D2A38320  22.916  40.056   8.264
 2883POPC   C3A38321  22.909  39.999   7.964
 2883POPC   C4A38322  22.918  39.986   7.664
 2883POPC   C1B38323  22.695  40.033   8.564
 2883POPC   C2B38324  22.686  39.974   8.264
 2883POPC   C3B38325  22.655  39.991   7.964
 2883POPC   C4B38326  22.727  40.030   7.664
 2884POPC   NC338327  32.270  20.621   9.464
 2884POPC   PO438328  32.276  20.655   9.164
 2884POPC   GL138329  32.198  20.575   8.864
 2884POPC   GL238330  32.140  20.560   8.864
 2884POPC   C1A38331  32.291  20.584   8.564
 2884POPC   D2A38332  32.250  20.602   8.264
 2884POPC   C3A38333  32.230  20.623   7.964
 2884POPC   C4A38334  32.217  20.597   7.664
 2884POPC   C1B38335  32.044  20.537   8.564
 2884POPC   C2B38336  31.996  20.606   8.264
 2884POPC   C3B38337  32.005  20.613   7.964
 2884POPC   C4B38338  32.032  20.591   7.664
 2885POPC   NC338339  33.061  14.357   9.464
 2885POPC   PO438340  32.996  14.427   9.164
 2885POPC   GL138341  33.071  14.446   8.864
 2885POPC   GL238342  32.954  14.457   8.864
 2885POPC   C1A38343  32.999  14.383   8.564
 2885POPC   D2A38344  33.030  14.448   8.264
 2885POPC   C3A38345  33.008  14.364   7.964
 2885POPC   C4A38346  33.066  14.376   7.664
 2885POPC   C1B38347  32.856  14.533   8.564
 2885POPC   C2B38348  32.829  14.564   8.264
 2885POPC   C3B38349  32.834  14.526   7.964
 2885POPC   C4B38350  32.845  14.497   7.664
 2886POPC   NC338351   2.744  19.012   9.464
 2886POPC   PO438352   2.786  19.076   9.164
 2886POPC   GL138353   2.734  19.028   8.864
 2886POPC   GL238354   2.802  19.179   8.864
 2886POPC   C1A38355   2.753  19.088   8.564
 2886POPC   D2A38356   2.774  19.075   8.264
 2886POPC   C3A38357   2.793  19.050   7.964
 2886POPC   C4A38358   2.771  19.092   7.664
 2886POPC   C1B38359   2.751  19.312   8.564
 2886POPC   C2B38360   2.718  19.330   8.264
 2886POPC   C3B38361   2.711  19.319   7.964
 2886POPC   C4B38362   2.743  19.291   7.664
 2887POPC   NC338363   0.461  28.416   9.464
 2887POPC   PO438364   0.451  28.363   9.164
 2887POPC   GL138365   0.462  28.335   8.864
 2887POPC   GL238366   0.366  28.263   8.864
 2887POPC   C1A38367   0.415  28.353   8.564
 2887POPC   D2A38368   0.413  28.409   8.264
 2887POPC   C3A38369   0.473  28.362   7.964
 2887POPC   C4A38370   0.409  28.401   7.664
 2887POPC   C1B38371   0.234  28.195   8.564
 2887POPC   C2B38372   0.211  28.203   8.264
 2887POPC   C3B38373   0.176  28.194   7.964
 2887POPC   C4B38374   0.257  28.207   7.664
 2888POPC   NC338375   9.717   3.536   9.464
 2888POPC   PO438376   9.747   3.560   9.164
 2888POPC   GL138377   9.730   3.582   8.864
 2888POPC   GL238378   9.616   3.574   8.864
 2888POPC   C1A38379   9.705   3.532   8.564
 2888POPC   D2A38380   9.721   3.532   8.264
 2888POPC   C3A38381   9.794   3.495   7.964
 2888POPC   C4A38382   9.700   3.508   7.664
 2888POPC   C1B38383   9.491   3.568   8.564
 2888POPC   C2B38384   9.530   3.631   8.264
 2888POPC   C3B38385   9.519   3.594   7.964
 2888POPC   C4B38386   9.497   3.622   7.664
 2889POPC   NC338387   4.341  21.406   9.464
 2889POPC   PO438388   4.311  21.436   9.164
 2889POPC   GL138389   4.344  21.344   8.864
 2889POPC   GL238390   4.333  21.472   8.864
 2889POPC   C1A38391   4.293  21.397   8.564
 2889POPC   D2A38392   4.267  21.372   8.264
 2889POPC   C3A38393   4.317  21.374   7.964
 2889POPC   C4A38394   4.321  21.429   7.664
 2889POPC   C1B38395   4.404  21.631   8.564
 2889POPC   C2B38396   4.452  21.584   8.264
 2889POPC   C3B38397   4.466  21.573   7.964
 2889POPC   C4B38398   4.424  21.647   7.664
 2890POPC   NC338399  37.693  12.046   9.464
 2890POPC   PO438400  37.629  12.031   9.164
 2890POPC   GL138401  37.643  12.080   8.864
 2890POPC   GL238402  37.803  12.133   8.864
 2890POPC   C1A38403  37.640  12.097   8.564
 2890POPC   D2A38404  37.723  12.110   8.264
 2890POPC   C3A38405  37.631  12.093   7.964
 2890POPC   C4A38406  37.678  12.062   7.664
 2890POPC   C1B38407  37.911  12.134   8.564
 2890POPC   C2B38408  37.940  12.219   8.264
 2890POPC   C3B38409  37.904  12.159   7.964
 2890POPC   C4B38410  37.898  12.189   7.664
 2891POPC   NC338411  43.085   5.048   9.464
 2891POPC   PO438412  43.152   5.056   9.164
 2891POPC   GL138413  43.113   5.125   8.864
 2891POPC   GL238414  43.134   4.983   8.864
 2891POPC   C1A38415  43.137   5.080   8.564
 2891POPC   D2A38416  43.119   5.073   8.264
 2891POPC   C3A38417  43.136   5.131   7.964
 2891POPC   C4A38418  43.108   5.082   7.664
 2891POPC   C1B38419  43.204   4.834   8.564
 2891POPC   C2B38420  43.235   4.865   8.264
 2891POPC   C3B38421  43.215   4.891   7.964
 2891POPC   C4B38422  43.157   4.833   7.664
 2892POPC   NC338423  43.912  15.144   9.464
 2892POPC   PO438424  43.903  15.193   9.164
 2892POPC   GL138425  43.917  15.183   8.864
 2892POPC   GL238426  43.967  15.295   8.864
 2892POPC   C1A38427  43.870  15.191   8.564
 2892POPC   D2A38428  43.871  15.141   8.264
 2892POPC   C3A38429  43.930  15.179   7.964
 2892POPC   C4A38430  43.895  15.149   7.664
 2892POPC   C1B38431  44.084  15.368   8.564
 2892POPC   C2B38432  44.024  15.367   8.264
 2892POPC   C3B38433  44.093  15.339   7.964
 2892POPC   C4B38434  44.082  15.394   7.664
 2893POPC   NC338435  12.101  19.066   9.464
 2893POPC   PO438436  12.092  19.041   9.164
 2893POPC   GL138437  12.073  19.065   8.864
 2893POPC   GL238438  12.155  19.100   8.864
 2893POPC   C1A38439  12.096  19.064   8.564
 2893POPC   D2A38440  12.043  19.072   8.264
 2893POPC   C3A38441  12.065  19.054   7.964
 2893POPC   C4A38442  12.122  19.093   7.664
 2893POPC   C1B38443  12.284  19.263   8.564
 2893POPC   C2B38444  12.239  19.249   8.264
 2893POPC   C3B38445  12.314  19.258   7.964
 2893POPC   C4B38446  12.230  19.193   7.664
 2894POPC   NC338447   3.510  18.286   9.464
 2894POPC   PO438448   3.539  18.311   9.164
 2894POPC   GL138449   3.524  18.298   8.864
 2894POPC   GL238450   3.396  18.280   8.864
 2894POPC   C1A38451   3.581  18.313   8.564
 2894POPC   D2A38452   3.526  18.273   8.264
 2894POPC   C3A38453   3.499  18.283   7.964
 2894POPC   C4A38454   3.537  18.307   7.664
 2894POPC   C1B38455   3.298  18.317   8.564
 2894POPC   C2B38456   3.307  18.311   8.264
 2894POPC   C3B38457   3.268  18.381   7.964
 2894POPC   C4B38458   3.293  18.341   7.664
 2895POPC   NC338459  36.916  42.349   9.464
 2895POPC   PO438460  36.876  42.321   9.164
 2895POPC   GL138461  36.942  42.369   8.864
 2895POPC   GL238462  36.812  42.363   8.864
 2895POPC   C1A38463  36.866  42.329   8.564
 2895POPC   D2A38464  36.950  42.344   8.264
 2895POPC   C3A38465  36.888  42.307   7.964
 2895POPC   C4A38466  36.935  42.365   7.664
 2895POPC   C1B38467  36.670  42.450   8.564
 2895POPC   C2B38468  36.711  42.507   8.264
 2895POPC   C3B38469  36.696  42.464   7.964
 2895POPC   C4B38470  36.679  42.455   7.664
 2896POPC   NC338471  12.068  29.930   9.464
 2896POPC   PO438472  12.085  29.894   9.164
 2896POPC   GL138473  12.111  29.923   8.864
 2896POPC   GL238474  12.035  29.806   8.864
 2896POPC   C1A38475  12.045  29.928   8.564
 2896POPC   D2A38476  12.125  29.945   8.264
 2896POPC   C3A38477  12.042  29.969   7.964
 2896POPC   C4A38478  12.054  29.943   7.664
 2896POPC   C1B38479  11.915  29.698   8.564
 2896POPC   C2B38480  11.857  29.706   8.264
 2896POPC   C3B38481  11.924  29.731   7.964
 2896POPC   C4B38482  11.908  29.783   7.664
 2897POPC   NC338483  23.732   0.453   9.464
 2897POPC   PO438484  23.685   0.403   9.164
 2897POPC   GL138485  23.756   0.465   8.864
 2897POPC   GL238486  23.758   0.558   8.864
 2897POPC   C1A38487  23.711   0.410   8.564
 2897POPC   D2A38488  23.738   0.400   8.264
 2897POPC   C3A38489  23.716   0.396   7.964
 2897POPC   C4A38490  23.728   0.452   7.664
 2897POPC   C1B38491  23.705   0.730   8.564
 2897POPC   C2B38492  23.730   0.717   8.264
 2897POPC   C3B38493  23.715   0.655   7.964
 2897POPC   C4B38494  23.771   0.646   7.664
 2898POPC   NC338495  29.925  12.059   9.464
 2898POPC   PO438496  29.897  12.057   9.164
 2898POPC   GL138497  29.886  12.105   8.864
 2898POPC   GL238498  29.932  12.155   8.864
 2898POPC   C1A38499  29.906  12.071   8.564
 2898POPC   D2A38500  29.916  12.075   8.264
 2898POPC   C3A38501  29.889  12.032   7.964
 2898POPC   C4A38502  29.889  12.052   7.664
 2898POPC   C1B38503  30.077  12.318   8.564
 2898POPC   C2B38504  30.014  12.265   8.264
 2898POPC   C3B38505  30.018  12.340   7.964
 2898POPC   C4B38506  30.025  12.326   7.664
 2899POPC   NC338507  18.305  27.574   9.464
 2899POPC   PO438508  18.280  27.568   9.164
 2899POPC   GL138509  18.260  27.596   8.864
 2899POPC   GL238510  18.318  27.543   8.864
 2899POPC   C1A38511  18.293  27.573   8.564
 2899POPC   D2A38512  18.320  27.551   8.264
 2899POPC   C3A38513  18.277  27.631   7.964
 2899POPC   C4A38514  18.332  27.594   7.664
 2899POPC   C1B38515  18.412  27.380   8.564
 2899POPC   C2B38516  18.477  27.393   8.264
 2899POPC   C3B38517  18.440  27.374   7.964
 2899POPC   C4B38518  18.396  27.354   7.664
 2900POPC   NC338519  44.703   2.032   9.464
 2900POPC   PO438520  44.643   1.961   9.164
 2900POPC   GL138521  44.670   1.980   8.864
 2900POPC   GL238522  44.544   1.909   8.864
 2900POPC   C1A38523  44.639   1.963   8.564
 2900POPC   D2A38524  44.665   2.024   8.264
 2900POPC   C3A38525  44.645   1.953   7.964
 2900POPC   C4A38526  44.647   1.977   7.664
 2900POPC   C1B38527  44.425   1.851   8.564
 2900POPC   C2B38528  44.456   1.864   8.264
 2900POPC   C3B38529  44.458   1.880   7.964
 2900POPC   C4B38530  44.405   1.851   7.664
 2901POPC   NC338531  36.902  29.119   9.464
 2901POPC   PO438532  36.880  29.151   9.164
 2901POPC   GL138533  36.924  29.098   8.864
 2901POPC   GL238534  36.732  29.099   8.864
 2901POPC   C1A38535  36.879  29.118   8.564
 2901POPC   D2A38536  36.864  29.175   8.264
 2901POPC   C3A38537  36.935  29.193   7.964
 2901POPC   C4A38538  36.944  29.107   7.664
 2901POPC   C1B38539  36.624  29.114   8.564
 2901POPC   C2B38540  36.640  29.070   8.264
 2901POPC   C3B38541  36.624  29.071   7.964
 2901POPC   C4B38542  36.633  29.139   7.664
 2902POPC   NC338543  36.928  22.901   9.464
 2902POPC   PO438544  36.928  22.984   9.164
 2902POPC   GL138545  36.929  22.980   8.864
 2902POPC   GL238546  36.934  22.851   8.864
 2902POPC   C1A38547  36.950  22.967   8.564
 2902POPC   D2A38548  36.913  22.914   8.264
 2902POPC   C3A38549  36.890  22.961   7.964
 2902POPC   C4A38550  36.873  22.924   7.664
 2902POPC   C1B38551  36.972  22.648   8.564
 2902POPC   C2B38552  36.966  22.658   8.264
 2902POPC   C3B38553  36.968  22.687   7.964
 2902POPC   C4B38554  36.937  22.742   7.664
 2903POPC   NC338555   1.250  29.188   9.464
 2903POPC   PO438556   1.196  29.183   9.164
 2903POPC   GL138557   1.247  29.150   8.864
 2903POPC   GL238558   1.305  29.121   8.864
 2903POPC   C1A38559   1.195  29.152   8.564
 2903POPC   D2A38560   1.211  29.163   8.264
 2903POPC   C3A38561   1.172  29.140   7.964
 2903POPC   C4A38562   1.236  29.133   7.664
 2903POPC   C1B38563   1.462  29.127   8.564
 2903POPC   C2B38564   1.513  29.118   8.264
 2903POPC   C3B38565   1.463  29.126   7.964
 2903POPC   C4B38566   1.493  29.134   7.664
 2904POPC   NC338567  12.084  44.670   9.464
 2904POPC   PO438568  12.091  44.624   9.164
 2904POPC   GL138569  12.031  44.711   8.864
 2904POPC   GL238570  12.146  44.755   8.864
 2904POPC   C1A38571  12.037  44.677   8.564
 2904POPC   D2A38572  12.083  44.626   8.264
 2904POPC   C3A38573  12.119  44.695   7.964
 2904POPC   C4A38574  12.038  44.683   7.664
 2904POPC   C1B38575  12.277  44.825   8.564
 2904POPC   C2B38576  12.254  44.804   8.264
 2904POPC   C3B38577  12.314  44.766   7.964
 2904POPC   C4B38578  12.311  44.792   7.664
 2905POPC   NC338579   2.015  43.156   9.464
 2905POPC   PO438580   2.009  43.120   9.164
 2905POPC   GL138581   1.972  43.109   8.864
 2905POPC   GL238582   2.116  43.163   8.864
 2905POPC   C1A38583   2.011  43.092   8.564
 2905POPC   D2A38584   2.011  43.097   8.264
 2905POPC   C3A38585   2.013  43.123   7.964
 2905POPC   C4A38586   2.039  43.077   7.664
 2905POPC   C1B38587   2.175  43.266   8.564
 2905POPC   C2B38588   2.175  43.295   8.264
 2905POPC   C3B38589   2.236  43.239   7.964
 2905POPC   C4B38590   2.153  43.259   7.664
 2906POPC   NC338591  11.324  15.175   9.464
 2906POPC   PO438592  11.339  15.131   9.164
 2906POPC   GL138593  11.337  15.209   8.864
 2906POPC   GL238594  11.442  15.175   8.864
 2906POPC   C1A38595  11.335  15.170   8.564
 2906POPC   D2A38596  11.329  15.217   8.264
 2906POPC   C3A38597  11.342  15.133   7.964
 2906POPC   C4A38598  11.343  15.227   7.664
 2906POPC   C1B38599  11.562  15.153   8.564
 2906POPC   C2B38600  11.508  15.099   8.264
 2906POPC   C3B38601  11.530  15.111   7.964
 2906POPC   C4B38602  11.593  15.138   7.664
 2907POPC   NC338603  17.553   5.870   9.464
 2907POPC   PO438604  17.555   5.831   9.164
 2907POPC   GL138605  17.552   5.908   8.864
 2907POPC   GL238606  17.647   5.958   8.864
 2907POPC   C1A38607  17.501   5.877   8.564
 2907POPC   D2A38608  17.499   5.908   8.264
 2907POPC   C3A38609  17.469   5.874   7.964
 2907POPC   C4A38610  17.515   5.838   7.664
 2907POPC   C1B38611  17.743   6.012   8.564
 2907POPC   C2B38612  17.715   6.074   8.264
 2907POPC   C3B38613  17.722   5.988   7.964
 2907POPC   C4B38614  17.735   6.038   7.664
 2908POPC   NC338615  36.947  12.042   9.464
 2908POPC   PO438616  36.923  12.067   9.164
 2908POPC   GL138617  36.922  12.054   8.864
 2908POPC   GL238618  36.844  12.175   8.864
 2908POPC   C1A38619  36.900  12.112   8.564
 2908POPC   D2A38620  36.952  12.111   8.264
 2908POPC   C3A38621  36.952  12.050   7.964
 2908POPC   C4A38622  36.922  12.041   7.664
 2908POPC   C1B38623  36.715  12.287   8.564
 2908POPC   C2B38624  36.769  12.289   8.264
 2908POPC   C3B38625  36.757  12.290   7.964
 2908POPC   C4B38626  36.799  12.275   7.664
 2909POPC   NC338627  39.994  37.675   9.464
 2909POPC   PO438628  39.974  37.632   9.164
 2909POPC   GL138629  40.046  37.703   8.864
 2909POPC   GL238630  40.133  37.664   8.864
 2909POPC   C1A38631  40.055  37.684   8.564
 2909POPC   D2A38632  39.991  37.701   8.264
 2909POPC   C3A38633  40.057  37.692   7.964
 2909POPC   C4A38634  40.051  37.678   7.664
 2909POPC   C1B38635  40.242  37.551   8.564
 2909POPC   C2B38636  40.184  37.553   8.264
 2909POPC   C3B38637  40.224  37.591   7.964
 2909POPC   C4B38638  40.232  37.540   7.664
 2910POPC   NC338639  19.067  11.313   9.464
 2910POPC   PO438640  19.106  11.324   9.164
 2910POPC   GL138641  19.105  11.281   8.864
 2910POPC   GL238642  19.005  11.367   8.864
 2910POPC   C1A38643  19.017  11.304   8.564
 2910POPC   D2A38644  19.087  11.305   8.264
 2910POPC   C3A38645  19.056  11.318   7.964
 2910POPC   C4A38646  19.016  11.340   7.664
 2910POPC   C1B38647  18.855  11.437   8.564
 2910POPC   C2B38648  18.854  11.415   8.264
 2910POPC   C3B38649  18.864  11.469   7.964
 2910POPC   C4B38650  18.890  11.492   7.664
 2911POPC   NC338651   9.710  33.043   9.464
 2911POPC   PO438652   9.784  33.003   9.164
 2911POPC   GL138653   9.711  33.045   8.864
 2911POPC   GL238654   9.633  33.058   8.864
 2911POPC   C1A38655   9.783  33.047   8.564
 2911POPC   D2A38656   9.772  33.040   8.264
 2911POPC   C3A38657   9.726  33.069   7.964
 2911POPC   C4A38658   9.768  33.065   7.664
 2911POPC   C1B38659   9.522  33.131   8.564
 2911POPC   C2B38660   9.488  33.043   8.264
 2911POPC   C3B38661   9.511  33.093   7.964
 2911POPC   C4B38662   9.556  33.095   7.664
 2912POPC   NC338663   4.268   9.012   9.464
 2912POPC   PO438664   4.362   8.959   9.164
 2912POPC   GL138665   4.354   9.022   8.864
 2912POPC   GL238666   4.226   8.833   8.864
 2912POPC   C1A38667   4.305   9.010   8.564
 2912POPC   D2A38668   4.333   9.006   8.264
 2912POPC   C3A38669   4.267   9.015   7.964
 2912POPC   C4A38670   4.363   8.993   7.664
 2912POPC   C1B38671   4.193   8.718   8.564
 2912POPC   C2B38672   4.217   8.745   8.264
 2912POPC   C3B38673   4.202   8.717   7.964
 2912POPC   C4B38674   4.213   8.751   7.664
 2913POPC   NC338675   7.427   9.701   9.464
 2913POPC   PO438676   7.432   9.710   9.164
 2913POPC   GL138677   7.375   9.746   8.864
 2913POPC   GL238678   7.389   9.834   8.864
 2913POPC   C1A38679   7.403   9.726   8.564
 2913POPC   D2A38680   7.383   9.755   8.264
 2913POPC   C3A38681   7.430   9.729   7.964
 2913POPC   C4A38682   7.425   9.751   7.664
 2913POPC   C1B38683   7.351   9.996   8.564
 2913POPC   C2B38684   7.314  10.013   8.264
 2913POPC   C3B38685   7.352   9.926   7.964
 2913POPC   C4B38686   7.330  10.016   7.664
 2914POPC   NC338687   1.256  24.479   9.464
 2914POPC   PO438688   1.201  24.456   9.164
 2914POPC   GL138689   1.172  24.463   8.864
 2914POPC   GL238690   1.364  24.506   8.864
 2914POPC   C1A38691   1.186  24.485   8.564
 2914POPC   D2A38692   1.221  24.467   8.264
 2914POPC   C3A38693   1.239  24.441   7.964
 2914POPC   C4A38694   1.207  24.447   7.664
 2914POPC   C1B38695   1.505  24.435   8.564
 2914POPC   C2B38696   1.462  24.453   8.264
 2914POPC   C3B38697   1.452  24.428   7.964
 2914POPC   C4B38698   1.457  24.439   7.664
 2915POPC   NC338699   8.187   2.788   9.464
 2915POPC   PO438700   8.204   2.750   9.164
 2915POPC   GL138701   8.162   2.769   8.864
 2915POPC   GL238702   8.277   2.855   8.864
 2915POPC   C1A38703   8.187   2.797   8.564
 2915POPC   D2A38704   8.189   2.743   8.264
 2915POPC   C3A38705   8.234   2.752   7.964
 2915POPC   C4A38706   8.181   2.723   7.664
 2915POPC   C1B38707   8.310   3.028   8.564
 2915POPC   C2B38708   8.325   2.980   8.264
 2915POPC   C3B38709   8.269   3.002   7.964
 2915POPC   C4B38710   8.255   3.015   7.664
 2916POPC   NC338711   8.186  16.682   9.464
 2916POPC   PO438712   8.181  16.710   9.164
 2916POPC   GL138713   8.225  16.717   8.864
 2916POPC   GL238714   8.158  16.797   8.864
 2916POPC   C1A38715   8.217  16.740   8.564
 2916POPC   D2A38716   8.148  16.769   8.264
 2916POPC   C3A38717   8.167  16.712   7.964
 2916POPC   C4A38718   8.223  16.700   7.664
 2916POPC   C1B38719   8.101  16.992   8.564
 2916POPC   C2B38720   8.049  16.990   8.264
 2916POPC   C3B38721   8.060  16.969   7.964
 2916POPC   C4B38722   8.041  16.953   7.664
 2917POPC   NC338723  12.832  40.770   9.464
 2917POPC   PO438724  12.823  40.804   9.164
 2917POPC   GL138725  12.889  40.827   8.864
 2917POPC   GL238726  12.758  40.869   8.864
 2917POPC   C1A38727  12.838  40.785   8.564
 2917POPC   D2A38728  12.900  40.752   8.264
 2917POPC   C3A38729  12.828  40.765   7.964
 2917POPC   C4A38730  12.901  40.810   7.664
 2917POPC   C1B38731  12.727  40.987   8.564
 2917POPC   C2B38732  12.721  41.030   8.264
 2917POPC   C3B38733  12.701  41.017   7.964
 2917POPC   C4B38734  12.750  41.011   7.664
 2918POPC   NC338735  13.646   0.394   9.464
 2918POPC   PO438736  13.600   0.458   9.164
 2918POPC   GL138737  13.619   0.475   8.864
 2918POPC   GL238738  13.776   0.391   8.864
 2918POPC   C1A38739  13.610   0.443   8.564
 2918POPC   D2A38740  13.599   0.457   8.264
 2918POPC   C3A38741  13.652   0.435   7.964
 2918POPC   C4A38742  13.634   0.405   7.664
 2918POPC   C1B38743  13.881   0.261   8.564
 2918POPC   C2B38744  13.878   0.286   8.264
 2918POPC   C3B38745  13.816   0.254   7.964
 2918POPC   C4B38746  13.791   0.325   7.664
 2919POPC   NC338747  28.395  12.071   9.464
 2919POPC   PO438748  28.371  12.059   9.164
 2919POPC   GL138749  28.417  12.029   8.864
 2919POPC   GL238750  28.287  12.004   8.864
 2919POPC   C1A38751  28.339  12.072   8.564
 2919POPC   D2A38752  28.335  12.033   8.264
 2919POPC   C3A38753  28.384  12.117   7.964
 2919POPC   C4A38754  28.370  12.126   7.664
 2919POPC   C1B38755  28.158  11.910   8.564
 2919POPC   C2B38756  28.150  11.944   8.264
 2919POPC   C3B38757  28.133  11.992   7.964
 2919POPC   C4B38758  28.109  11.909   7.664
 2920POPC   NC338759  15.939  15.191   9.464
 2920POPC   PO438760  15.970  15.165   9.164
 2920POPC   GL138761  15.954  15.135   8.864
 2920POPC   GL238762  16.033  15.188   8.864
 2920POPC   C1A38763  15.940  15.170   8.564
 2920POPC   D2A38764  15.932  15.191   8.264
 2920POPC   C3A38765  15.968  15.183   7.964
 2920POPC   C4A38766  15.989  15.201   7.664
 2920POPC   C1B38767  16.151  15.100   8.564
 2920POPC   C2B38768  16.232  15.060   8.264
 2920POPC   C3B38769  16.220  15.084   7.964
 2920POPC   C4B38770  16.165  15.075   7.664
 2921POPC   NC338771   1.948  23.747   9.464
 2921POPC   PO438772   1.986  23.743   9.164
 2921POPC   GL138773   1.976  23.713   8.864
 2921POPC   GL238774   2.005  23.580   8.864
 2921POPC   C1A38775   1.990  23.763   8.564
 2921POPC   D2A38776   1.990  23.667   8.264
 2921POPC   C3A38777   2.038  23.743   7.964
 2921POPC   C4A38778   1.998  23.665   7.664
 2921POPC   C1B38779   1.888  23.492   8.564
 2921POPC   C2B38780   1.946  23.479   8.264
 2921POPC   C3B38781   1.908  23.481   7.964
 2921POPC   C4B38782   1.972  23.430   7.664
 2922POPC   NC338783  41.577   5.906   9.464
 2922POPC   PO438784  41.549   5.851   9.164
 2922POPC   GL138785  41.577   5.913   8.864
 2922POPC   GL238786  41.469   5.786   8.864
 2922POPC   C1A38787  41.595   5.849   8.564
 2922POPC   D2A38788  41.590   5.908   8.264
 2922POPC   C3A38789  41.560   5.836   7.964
 2922POPC   C4A38790  41.556   5.857   7.664
 2922POPC   C1B38791  41.360   5.709   8.564
 2922POPC   C2B38792  41.380   5.680   8.264
 2922POPC   C3B38793  41.385   5.739   7.964
 2922POPC   C4B38794  41.387   5.658   7.664
 2923POPC   NC338795  29.935  15.949   9.464
 2923POPC   PO438796  29.910  15.958   9.164
 2923POPC   GL138797  29.940  15.931   8.864
 2923POPC   GL238798  29.891  15.785   8.864
 2923POPC   C1A38799  29.883  15.998   8.564
 2923POPC   D2A38800  29.926  15.929   8.264
 2923POPC   C3A38801  29.919  15.990   7.964
 2923POPC   C4A38802  29.913  15.916   7.664
 2923POPC   C1B38803  29.818  15.755   8.564
 2923POPC   C2B38804  29.817  15.757   8.264
 2923POPC   C3B38805  29.895  15.701   7.964
 2923POPC   C4B38806  29.846  15.733   7.664
 2924POPC   NC338807  21.407  40.740   9.464
 2924POPC   PO438808  21.400  40.741   9.164
 2924POPC   GL138809  21.431  40.827   8.864
 2924POPC   GL238810  21.248  40.846   8.864
 2924POPC   C1A38811  21.390  40.786   8.564
 2924POPC   D2A38812  21.425  40.820   8.264
 2924POPC   C3A38813  21.429  40.777   7.964
 2924POPC   C4A38814  21.388  40.826   7.664
 2924POPC   C1B38815  21.177  40.924   8.564
 2924POPC   C2B38816  21.173  40.891   8.264
 2924POPC   C3B38817  21.109  40.862   7.964
 2924POPC   C4B38818  21.123  40.838   7.664
 2925POPC   NC338819  28.414  15.945   9.464
 2925POPC   PO438820  28.407  15.919   9.164
 2925POPC   GL138821  28.412  15.945   8.864
 2925POPC   GL238822  28.292  15.917   8.864
 2925POPC   C1A38823  28.398  15.982   8.564
 2925POPC   D2A38824  28.342  15.998   8.264
 2925POPC   C3A38825  28.394  15.956   7.964
 2925POPC   C4A38826  28.365  15.930   7.664
 2925POPC   C1B38827  28.148  15.895   8.564
 2925POPC   C2B38828  28.107  15.953   8.264
 2925POPC   C3B38829  28.111  15.909   7.964
 2925POPC   C4B38830  28.097  15.944   7.664
 2926POPC   NC338831  15.167  36.161   9.464
 2926POPC   PO438832  15.208  36.115   9.164
 2926POPC   GL138833  15.154  36.126   8.864
 2926POPC   GL238834  15.213  36.189   8.864
 2926POPC   C1A38835  15.194  36.159   8.564
 2926POPC   D2A38836  15.136  36.114   8.264
 2926POPC   C3A38837  15.150  36.099   7.964
 2926POPC   C4A38838  15.183  36.129   7.664
 2926POPC   C1B38839  15.359  36.347   8.564
 2926POPC   C2B38840  15.369  36.367   8.264
 2926POPC   C3B38841  15.346  36.346   7.964
 2926POPC   C4B38842  15.287  36.334   7.664
 2927POPC   NC338843  15.223   7.450   9.464
 2927POPC   PO438844  15.176   7.391   9.164
 2927POPC   GL138845  15.144   7.440   8.864
 2927POPC   GL238846  15.097   7.397   8.864
 2927POPC   C1A38847  15.178   7.387   8.564
 2927POPC   D2A38848  15.220   7.385   8.264
 2927POPC   C3A38849  15.218   7.412   7.964
 2927POPC   C4A38850  15.204   7.371   7.664
 2927POPC   C1B38851  14.906   7.397   8.564
 2927POPC   C2B38852  14.953   7.358   8.264
 2927POPC   C3B38853  14.944   7.378   7.964
 2927POPC   C4B38854  14.891   7.400   7.664
 2928POPC   NC338855  36.884  19.842   9.464
 2928POPC   PO438856  36.873  19.852   9.164
 2928POPC   GL138857  36.863  19.837   8.864
 2928POPC   GL238858  37.076  19.862   8.864
 2928POPC   C1A38859  36.873  19.791   8.564
 2928POPC   D2A38860  36.892  19.867   8.264
 2928POPC   C3A38861  36.902  19.830   7.964
 2928POPC   C4A38862  36.933  19.833   7.664
 2928POPC   C1B38863  37.110  19.806   8.564
 2928POPC   C2B38864  37.108  19.818   8.264
 2928POPC   C3B38865  37.201  19.804   7.964
 2928POPC   C4B38866  37.127  19.851   7.664
 2929POPC   NC338867  32.225  43.065   9.464
 2929POPC   PO438868  32.253  43.124   9.164
 2929POPC   GL138869  32.225  43.159   8.864
 2929POPC   GL238870  32.360  43.193   8.864
 2929POPC   C1A38871  32.272  43.109   8.564
 2929POPC   D2A38872  32.201  43.153   8.264
 2929POPC   C3A38873  32.221  43.124   7.964
 2929POPC   C4A38874  32.260  43.138   7.664
 2929POPC   C1B38875  32.350  43.356   8.564
 2929POPC   C2B38876  32.346  43.302   8.264
 2929POPC   C3B38877  32.365  43.271   7.964
 2929POPC   C4B38878  32.411  43.288   7.664
 2930POPC   NC338879  16.699   2.733   9.464
 2930POPC   PO438880  16.711   2.736   9.164
 2930POPC   GL138881  16.751   2.808   8.864
 2930POPC   GL238882  16.672   2.833   8.864
 2930POPC   C1A38883  16.689   2.759   8.564
 2930POPC   D2A38884  16.744   2.732   8.264
 2930POPC   C3A38885  16.719   2.815   7.964
 2930POPC   C4A38886  16.756   2.737   7.664
 2930POPC   C1B38887  16.585   3.002   8.564
 2930POPC   C2B38888  16.589   3.023   8.264
 2930POPC   C3B38889  16.642   2.965   7.964
 2930POPC   C4B38890  16.569   2.982   7.664
 2931POPC   NC338891   7.379  22.156   9.464
 2931POPC   PO438892   7.423  22.189   9.164
 2931POPC   GL138893   7.395  22.117   8.864
 2931POPC   GL238894   7.520  22.156   8.864
 2931POPC   C1A38895   7.415  22.124   8.564
 2931POPC   D2A38896   7.412  22.168   8.264
 2931POPC   C3A38897   7.384  22.186   7.964
 2931POPC   C4A38898   7.388  22.156   7.664
 2931POPC   C1B38899   7.634  22.103   8.564
 2931POPC   C2B38900   7.684  22.100   8.264
 2931POPC   C3B38901   7.666  22.077   7.964
 2931POPC   C4B38902   7.644  22.019   7.664
 2932POPC   NC338903  15.939  44.658   9.464
 2932POPC   PO438904  16.003  44.692   9.164
 2932POPC   GL138905  15.971  44.678   8.864
 2932POPC   GL238906  15.929  44.773   8.864
 2932POPC   C1A38907  15.988  44.660   8.564
 2932POPC   D2A38908  15.992  44.630   8.264
 2932POPC   C3A38909  15.992  44.627   7.964
 2932POPC   C4A38910  15.940  44.673   7.664
 2932POPC   C1B38911  15.916  44.894   8.564
 2932POPC   C2B38912  15.957  44.886   8.264
 2932POPC   C3B38913  15.908  44.961   7.964
 2932POPC   C4B38914  15.937  44.870   7.664
 2933POPC   NC338915  16.739   7.376   9.464
 2933POPC   PO438916  16.693   7.374   9.164
 2933POPC   GL138917  16.689   7.435   8.864
 2933POPC   GL238918  16.628   7.389   8.864
 2933POPC   C1A38919  16.743   7.385   8.564
 2933POPC   D2A38920  16.705   7.433   8.264
 2933POPC   C3A38921  16.768   7.463   7.964
 2933POPC   C4A38922  16.697   7.395   7.664
 2933POPC   C1B38923  16.459   7.333   8.564
 2933POPC   C2B38924  16.485   7.351   8.264
 2933POPC   C3B38925  16.512   7.301   7.964
 2933POPC   C4B38926  16.458   7.329   7.664
 2934POPC   NC338927  43.877  22.979   9.464
 2934POPC   PO438928  43.914  22.911   9.164
 2934POPC   GL138929  43.934  22.955   8.864
 2934POPC   GL238930  43.791  23.056   8.864
 2934POPC   C1A38931  43.892  22.900   8.564
 2934POPC   D2A38932  43.870  22.936   8.264
 2934POPC   C3A38933  43.914  22.942   7.964
 2934POPC   C4A38934  43.893  22.944   7.664
 2934POPC   C1B38935  43.731  23.138   8.564
 2934POPC   C2B38936  43.731  23.077   8.264
 2934POPC   C3B38937  43.741  23.078   7.964
 2934POPC   C4B38938  43.751  23.077   7.664
 2935POPC   NC338939  16.764  24.457   9.464
 2935POPC   PO438940  16.720  24.483   9.164
 2935POPC   GL138941  16.744  24.503   8.864
 2935POPC   GL238942  16.861  24.500   8.864
 2935POPC   C1A38943  16.751  24.506   8.564
 2935POPC   D2A38944  16.708  24.496   8.264
 2935POPC   C3A38945  16.734  24.484   7.964
 2935POPC   C4A38946  16.757  24.519   7.664
 2935POPC   C1B38947  16.942  24.511   8.564
 2935POPC   C2B38948  17.006  24.445   8.264
 2935POPC   C3B38949  16.999  24.425   7.964
 2935POPC   C4B38950  16.966  24.512   7.664
 2936POPC   NC338951  35.395  35.399   9.464
 2936POPC   PO438952  35.320  35.313   9.164
 2936POPC   GL138953  35.372  35.353   8.864
 2936POPC   GL238954  35.414  35.278   8.864
 2936POPC   C1A38955  35.383  35.366   8.564
 2936POPC   D2A38956  35.392  35.345   8.264
 2936POPC   C3A38957  35.386  35.306   7.964
 2936POPC   C4A38958  35.377  35.358   7.664
 2936POPC   C1B38959  35.450  35.124   8.564
 2936POPC   C2B38960  35.481  35.194   8.264
 2936POPC   C3B38961  35.533  35.160   7.964
 2936POPC   C4B38962  35.542  35.121   7.664
 2937POPC   NC338963  13.597  43.112   9.464
 2937POPC   PO438964  13.607  43.118   9.164
 2937POPC   GL138965  13.665  43.101   8.864
 2937POPC   GL238966  13.601  43.280   8.864
 2937POPC   C1A38967  13.665  43.135   8.564
 2937POPC   D2A38968  13.609  43.124   8.264
 2937POPC   C3A38969  13.675  43.080   7.964
 2937POPC   C4A38970  13.596  43.094   7.664
 2937POPC   C1B38971  13.606  43.395   8.564
 2937POPC   C2B38972  13.571  43.340   8.264
 2937POPC   C3B38973  13.585  43.352   7.964
 2937POPC   C4B38974  13.541  43.312   7.664
 2938POPC   NC338975   4.341  15.981   9.464
 2938POPC   PO438976   4.323  15.931   9.164
 2938POPC   GL138977   4.305  15.946   8.864
 2938POPC   GL238978   4.309  15.830   8.864
 2938POPC   C1A38979   4.340  15.998   8.564
 2938POPC   D2A38980   4.270  15.936   8.264
 2938POPC   C3A38981   4.332  15.957   7.964
 2938POPC   C4A38982   4.367  16.003   7.664
 2938POPC   C1B38983   4.240  15.714   8.564
 2938POPC   C2B38984   4.317  15.740   8.264
 2938POPC   C3B38985   4.312  15.711   7.964
 2938POPC   C4B38986   4.231  15.671   7.664
 2939POPC   NC338987  23.694  21.384   9.464
 2939POPC   PO438988  23.726  21.359   9.164
 2939POPC   GL138989  23.726  21.398   8.864
 2939POPC   GL238990  23.815  21.309   8.864
 2939POPC   C1A38991  23.712  21.360   8.564
 2939POPC   D2A38992  23.734  21.361   8.264
 2939POPC   C3A38993  23.730  21.401   7.964
 2939POPC   C4A38994  23.751  21.352   7.664
 2939POPC   C1B38995  23.928  21.276   8.564
 2939POPC   C2B38996  23.895  21.226   8.264
 2939POPC   C3B38997  23.932  21.249   7.964
 2939POPC   C4B38998  23.962  21.288   7.664
 2940POPC   NC338999   2.795  23.679   9.464
 2940POPC   PO439000   2.804  23.711   9.164
 2940POPC   GL139001   2.778  23.746   8.864
 2940POPC   GL239002   2.671  23.692   8.864
 2940POPC   C1A39003   2.800  23.763   8.564
 2940POPC   D2A39004   2.750  23.762   8.264
 2940POPC   C3A39005   2.767  23.750   7.964
 2940POPC   C4A39006   2.717  23.670   7.664
 2940POPC   C1B39007   2.516  23.578   8.564
 2940POPC   C2B39008   2.596  23.600   8.264
 2940POPC   C3B39009   2.521  23.620   7.964
 2940POPC   C4B39010   2.534  23.621   7.664
 2941POPC   NC339011  10.519  33.051   9.464
 2941POPC   PO439012  10.536  32.976   9.164
 2941POPC   GL139013  10.570  33.009   8.864
 2941POPC   GL239014  10.628  33.012   8.864
 2941POPC   C1A39015  10.501  33.029   8.564
 2941POPC   D2A39016  10.562  32.996   8.264
 2941POPC   C3A39017  10.565  33.044   7.964
 2941POPC   C4A39018  10.525  32.980   7.664
 2941POPC   C1B39019  10.737  32.985   8.564
 2941POPC   C2B39020  10.733  32.988   8.264
 2941POPC   C3B39021  10.719  32.959   7.964
 2941POPC   C4B39022  10.775  32.928   7.664
 2942POPC   NC339023  20.640  19.787   9.464
 2942POPC   PO439024  20.575  19.811   9.164
 2942POPC   GL139025  20.564  19.883   8.864
 2942POPC   GL239026  20.736  19.881   8.864
 2942POPC   C1A39027  20.646  19.833   8.564
 2942POPC   D2A39028  20.571  19.850   8.264
 2942POPC   C3A39029  20.605  19.851   7.964
 2942POPC   C4A39030  20.584  19.820   7.664
 2942POPC   C1B39031  20.757  19.960   8.564
 2942POPC   C2B39032  20.828  20.027   8.264
 2942POPC   C3B39033  20.833  19.952   7.964
 2942POPC   C4B39034  20.785  19.950   7.664
 2943POPC   NC339035  11.275  33.018   9.464
 2943POPC   PO439036  11.251  32.976   9.164
 2943POPC   GL139037  11.286  32.996   8.864
 2943POPC   GL239038  11.388  33.033   8.864
 2943POPC   C1A39039  11.252  33.051   8.564
 2943POPC   D2A39040  11.253  33.035   8.264
 2943POPC   C3A39041  11.270  33.052   7.964
 2943POPC   C4A39042  11.349  32.998   7.664
 2943POPC   C1B39043  11.499  32.947   8.564
 2943POPC   C2B39044  11.529  32.985   8.264
 2943POPC   C3B39045  11.588  32.961   7.964
 2943POPC   C4B39046  11.497  32.938   7.664
 2944POPC   NC339047  42.329  12.053   9.464
 2944POPC   PO439048  42.376  12.080   9.164
 2944POPC   GL139049  42.315  12.073   8.864
 2944POPC   GL239050  42.269  11.934   8.864
 2944POPC   C1A39051  42.348  12.120   8.564
 2944POPC   D2A39052  42.356  12.072   8.264
 2944POPC   C3A39053  42.373  12.051   7.964
 2944POPC   C4A39054  42.331  12.028   7.664
 2944POPC   C1B39055  42.132  11.880   8.564
 2944POPC   C2B39056  42.127  11.940   8.264
 2944POPC   C3B39057  42.188  11.842   7.964
 2944POPC   C4B39058  42.216  11.930   7.664
 2945POPC   NC339059  22.177  39.236   9.464
 2945POPC   PO439060  22.149  39.251   9.164
 2945POPC   GL139061  22.185  39.260   8.864
 2945POPC   GL239062  22.221  39.097   8.864
 2945POPC   C1A39063  22.134  39.261   8.564
 2945POPC   D2A39064  22.200  39.221   8.264
 2945POPC   C3A39065  22.158  39.279   7.964
 2945POPC   C4A39066  22.113  39.257   7.664
 2945POPC   C1B39067  22.304  39.003   8.564
 2945POPC   C2B39068  22.258  39.017   8.264
 2945POPC   C3B39069  22.310  39.003   7.964
 2945POPC   C4B39070  22.325  38.988   7.664
 2946POPC   NC339071  43.075  26.051   9.464
 2946POPC   PO439072  43.082  26.076   9.164
 2946POPC   GL139073  43.146  26.048   8.864
 2946POPC   GL239074  42.965  26.070   8.864
 2946POPC   C1A39075  43.065  26.059   8.564
 2946POPC   D2A39076  43.096  26.006   8.264
 2946POPC   C3A39077  43.120  26.067   7.964
 2946POPC   C4A39078  43.075  26.010   7.664
 2946POPC   C1B39079  42.903  26.066   8.564
 2946POPC   C2B39080  42.827  25.987   8.264
 2946POPC   C3B39081  42.824  25.989   7.964
 2946POPC   C4B39082  42.890  26.016   7.664
 2947POPC   NC339083  40.784  37.682   9.464
 2947POPC   PO439084  40.798  37.665   9.164
 2947POPC   GL139085  40.818  37.709   8.864
 2947POPC   GL239086  40.897  37.806   8.864
 2947POPC   C1A39087  40.781  37.648   8.564
 2947POPC   D2A39088  40.780  37.673   8.264
 2947POPC   C3A39089  40.750  37.709   7.964
 2947POPC   C4A39090  40.801  37.660   7.664
 2947POPC   C1B39091  40.947  37.882   8.564
 2947POPC   C2B39092  40.976  37.907   8.264
 2947POPC   C3B39093  40.927  37.863   7.964
 2947POPC   C4B39094  40.975  37.882   7.664
 2948POPC   NC339095  21.351  11.303   9.464
 2948POPC   PO439096  21.340  11.267   9.164
 2948POPC   GL139097  21.435  11.259   8.864
 2948POPC   GL239098  21.466  11.228   8.864
 2948POPC   C1A39099  21.393  11.290   8.564
 2948POPC   D2A39100  21.366  11.253   8.264
 2948POPC   C3A39101  21.418  11.290   7.964
 2948POPC   C4A39102  21.389  11.293   7.664
 2948POPC   C1B39103  21.606  11.138   8.564
 2948POPC   C2B39104  21.607  11.170   8.264
 2948POPC   C3B39105  21.631  11.169   7.964
 2948POPC   C4B39106  21.642  11.179   7.664
 2949POPC   NC339107  19.012  17.551   9.464
 2949POPC   PO439108  19.056  17.471   9.164
 2949POPC   GL139109  19.106  17.483   8.864
 2949POPC   GL239110  19.150  17.547   8.864
 2949POPC   C1A39111  19.092  17.503   8.564
 2949POPC   D2A39112  19.101  17.507   8.264
 2949POPC   C3A39113  19.071  17.512   7.964
 2949POPC   C4A39114  19.013  17.525   7.664
 2949POPC   C1B39115  19.278  17.642   8.564
 2949POPC   C2B39116  19.270  17.587   8.264
 2949POPC   C3B39117  19.276  17.606   7.964
 2949POPC   C4B39118  19.292  17.570   7.664
 2950POPC   NC339119  31.486   2.735   9.464
 2950POPC   PO439120  31.486   2.809   9.164
 2950POPC   GL139121  31.521   2.758   8.864
 2950POPC   GL239122  31.394   2.612   8.864
 2950POPC   C1A39123  31.434   2.780   8.564
 2950POPC   D2A39124  31.488   2.760   8.264
 2950POPC   C3A39125  31.439   2.786   7.964
 2950POPC   C4A39126  31.429   2.761   7.664
 2950POPC   C1B39127  31.354   2.522   8.564
 2950POPC   C2B39128  31.343   2.497   8.264
 2950POPC   C3B39129  31.389   2.531   7.964
 2950POPC   C4B39130  31.330   2.546   7.664
 2951POPC   NC339131  19.040   6.645   9.464
 2951POPC   PO439132  19.054   6.692   9.164
 2951POPC   GL139133  19.071   6.649   8.864
 2951POPC   GL239134  19.181   6.658   8.864
 2951POPC   C1A39135  19.022   6.672   8.564
 2951POPC   D2A39136  19.032   6.652   8.264
 2951POPC   C3A39137  19.015   6.643   7.964
 2951POPC   C4A39138  19.050   6.637   7.664
 2951POPC   C1B39139  19.268   6.610   8.564
 2951POPC   C2B39140  19.301   6.598   8.264
 2951POPC   C3B39141  19.289   6.633   7.964
 2951POPC   C4B39142  19.354   6.652   7.664
 2952POPC   NC339143  30.648  38.466   9.464
 2952POPC   PO439144  30.694  38.408   9.164
 2952POPC   GL139145  30.703  38.424   8.864
 2952POPC   GL239146  30.681  38.340   8.864
 2952POPC   C1A39147  30.674  38.457   8.564
 2952POPC   D2A39148  30.720  38.491   8.264
 2952POPC   C3A39149  30.724  38.421   7.964
 2952POPC   C4A39150  30.666  38.437   7.664
 2952POPC   C1B39151  30.576  38.218   8.564
 2952POPC   C2B39152  30.607  38.233   8.264
 2952POPC   C3B39153  30.573  38.205   7.964
 2952POPC   C4B39154  30.557  38.218   7.664
 2953POPC   NC339155  15.951  43.142   9.464
 2953POPC   PO439156  15.979  43.141   9.164
 2953POPC   GL139157  16.005  43.107   8.864
 2953POPC   GL239158  16.067  43.084   8.864
 2953POPC   C1A39159  15.950  43.086   8.564
 2953POPC   D2A39160  16.000  43.085   8.264
 2953POPC   C3A39161  15.977  43.121   7.964
 2953POPC   C4A39162  15.945  43.150   7.664
 2953POPC   C1B39163  16.210  43.007   8.564
 2953POPC   C2B39164  16.144  42.954   8.264
 2953POPC   C3B39165  16.220  42.970   7.964
 2953POPC   C4B39166  16.169  42.952   7.664
 2954POPC   NC339167  26.849  10.476   9.464
 2954POPC   PO439168  26.821  10.485   9.164
 2954POPC   GL139169  26.796  10.492   8.864
 2954POPC   GL239170  26.874  10.414   8.864
 2954POPC   C1A39171  26.853  10.565   8.564
 2954POPC   D2A39172  26.835  10.476   8.264
 2954POPC   C3A39173  26.846  10.574   7.964
 2954POPC   C4A39174  26.839  10.527   7.664
 2954POPC   C1B39175  26.953  10.350   8.564
 2954POPC   C2B39176  26.928  10.312   8.264
 2954POPC   C3B39177  26.992  10.311   7.964
 2954POPC   C4B39178  26.986  10.277   7.664
 2955POPC   NC339179  20.643   6.601   9.464
 2955POPC   PO439180  20.603   6.676   9.164
 2955POPC   GL139181  20.586   6.683   8.864
 2955POPC   GL239182  20.576   6.753   8.864
 2955POPC   C1A39183  20.565   6.616   8.564
 2955POPC   D2A39184  20.659   6.635   8.264
 2955POPC   C3A39185  20.636   6.692   7.964
 2955POPC   C4A39186  20.582   6.673   7.664
 2955POPC   C1B39187  20.477   6.889   8.564
 2955POPC   C2B39188  20.520   6.823   8.264
 2955POPC   C3B39189  20.496   6.810   7.964
 2955POPC   C4B39190  20.463   6.810   7.664
 2956POPC   NC339191  15.202   6.641   9.464
 2956POPC   PO439192  15.131   6.634   9.164
 2956POPC   GL139193  15.169   6.676   8.864
 2956POPC   GL239194  15.089   6.616   8.864
 2956POPC   C1A39195  15.131   6.652   8.564
 2956POPC   D2A39196  15.157   6.662   8.264
 2956POPC   C3A39197  15.184   6.623   7.964
 2956POPC   C4A39198  15.167   6.606   7.664
 2956POPC   C1B39199  14.942   6.708   8.564
 2956POPC   C2B39200  14.908   6.635   8.264
 2956POPC   C3B39201  14.912   6.632   7.964
 2956POPC   C4B39202  14.936   6.702   7.664
 2957POPC   NC339203   7.446  41.568   9.464
 2957POPC   PO439204   7.388  41.517   9.164
 2957POPC   GL139205   7.467  41.572   8.864
 2957POPC   GL239206   7.469  41.720   8.864
 2957POPC   C1A39207   7.386  41.516   8.564
 2957POPC   D2A39208   7.425  41.602   8.264
 2957POPC   C3A39209   7.394  41.574   7.964
 2957POPC   C4A39210   7.463  41.520   7.664
 2957POPC   C1B39211   7.389  41.779   8.564
 2957POPC   C2B39212   7.465  41.830   8.264
 2957POPC   C3B39213   7.422  41.821   7.964
 2957POPC   C4B39214   7.452  41.820   7.664
 2958POPC   NC339215  15.994   7.441   9.464
 2958POPC   PO439216  15.986   7.404   9.164
 2958POPC   GL139217  15.987   7.392   8.864
 2958POPC   GL239218  15.855   7.501   8.864
 2958POPC   C1A39219  15.960   7.447   8.564
 2958POPC   D2A39220  15.984   7.440   8.264
 2958POPC   C3A39221  15.973   7.401   7.964
 2958POPC   C4A39222  15.965   7.424   7.664
 2958POPC   C1B39223  15.694   7.513   8.564
 2958POPC   C2B39224  15.675   7.490   8.264
 2958POPC   C3B39225  15.734   7.483   7.964
 2958POPC   C4B39226  15.713   7.521   7.664
 2959POPC   NC339227  44.652   5.917   9.464
 2959POPC   PO439228  44.648   5.858   9.164
 2959POPC   GL139229  44.662   5.862   8.864
 2959POPC   GL239230  44.722   5.957   8.864
 2959POPC   C1A39231  44.645   5.887   8.564
 2959POPC   D2A39232  44.688   5.885   8.264
 2959POPC   C3A39233  44.613   5.888   7.964
 2959POPC   C4A39234  44.649   5.835   7.664
 2959POPC   C1B39235  44.832   6.056   8.564
 2959POPC   C2B39236  44.912   6.016   8.264
 2959POPC   C3B39237  44.870   5.995   7.964
 2959POPC   C4B39238  44.852   5.995   7.664
 2960POPC   NC339239  16.747   5.044   9.464
 2960POPC   PO439240  16.751   5.102   9.164
 2960POPC   GL139241  16.745   5.044   8.864
 2960POPC   GL239242  16.730   5.203   8.864
 2960POPC   C1A39243  16.779   5.133   8.564
 2960POPC   D2A39244  16.736   5.081   8.264
 2960POPC   C3A39245  16.700   5.053   7.964
 2960POPC   C4A39246  16.701   5.059   7.664
 2960POPC   C1B39247  16.753   5.362   8.564
 2960POPC   C2B39248  16.718   5.323   8.264
 2960POPC   C3B39249  16.686   5.371   7.964
 2960POPC   C4B39250  16.758   5.387   7.664
 2961POPC   NC339251  32.979  40.812   9.464
 2961POPC   PO439252  33.026  40.740   9.164
 2961POPC   GL139253  33.020  40.771   8.864
 2961POPC   GL239254  33.025  40.708   8.864
 2961POPC   C1A39255  33.061  40.824   8.564
 2961POPC   D2A39256  33.005  40.829   8.264
 2961POPC   C3A39257  33.046  40.781   7.964
 2961POPC   C4A39258  33.052  40.753   7.664
 2961POPC   C1B39259  33.082  40.563   8.564
 2961POPC   C2B39260  33.106  40.501   8.264
 2961POPC   C3B39261  33.087  40.506   7.964
 2961POPC   C4B39262  33.135  40.530   7.664
 2962POPC   NC339263  36.144  32.283   9.464
 2962POPC   PO439264  36.085  32.260   9.164
 2962POPC   GL139265  36.167  32.282   8.864
 2962POPC   GL239266  36.287  32.297   8.864
 2962POPC   C1A39267  36.146  32.225   8.564
 2962POPC   D2A39268  36.125  32.214   8.264
 2962POPC   C3A39269  36.079  32.279   7.964
 2962POPC   C4A39270  36.165  32.262   7.664
 2962POPC   C1B39271  36.352  32.362   8.564
 2962POPC   C2B39272  36.367  32.374   8.264
 2962POPC   C3B39273  36.357  32.334   7.964
 2962POPC   C4B39274  36.390  32.393   7.664
 2963POPC   NC339275   1.180  14.379   9.464
 2963POPC   PO439276   1.221  14.392   9.164
 2963POPC   GL139277   1.225  14.415   8.864
 2963POPC   GL239278   1.288  14.314   8.864
 2963POPC   C1A39279   1.196  14.381   8.564
 2963POPC   D2A39280   1.218  14.358   8.264
 2963POPC   C3A39281   1.249  14.387   7.964
 2963POPC   C4A39282   1.258  14.427   7.664
 2963POPC   C1B39283   1.333  14.177   8.564
 2963POPC   C2B39284   1.275  14.195   8.264
 2963POPC   C3B39285   1.299  14.116   7.964
 2963POPC   C4B39286   1.247  14.196   7.664
 2964POPC   NC339287  26.045  20.655   9.464
 2964POPC   PO439288  26.091  20.589   9.164
 2964POPC   GL139289  26.087  20.637   8.864
 2964POPC   GL239290  26.115  20.689   8.864
 2964POPC   C1A39291  26.087  20.653   8.564
 2964POPC   D2A39292  26.030  20.593   8.264
 2964POPC   C3A39293  26.076  20.599   7.964
 2964POPC   C4A39294  26.029  20.654   7.664
 2964POPC   C1B39295  26.215  20.822   8.564
 2964POPC   C2B39296  26.199  20.852   8.264
 2964POPC   C3B39297  26.199  20.833   7.964
 2964POPC   C4B39298  26.135  20.860   7.664
 2965POPC   NC339299  22.904   7.424   9.464
 2965POPC   PO439300  22.924   7.408   9.164
 2965POPC   GL139301  22.974   7.378   8.864
 2965POPC   GL239302  22.896   7.481   8.864
 2965POPC   C1A39303  22.933   7.410   8.564
 2965POPC   D2A39304  22.935   7.410   8.264
 2965POPC   C3A39305  22.940   7.459   7.964
 2965POPC   C4A39306  22.939   7.425   7.664
 2965POPC   C1B39307  22.757   7.614   8.564
 2965POPC   C2B39308  22.731   7.641   8.264
 2965POPC   C3B39309  22.757   7.632   7.964
 2965POPC   C4B39310  22.764   7.659   7.664
 2966POPC   NC339311  22.202   1.197   9.464
 2966POPC   PO439312  22.201   1.232   9.164
 2966POPC   GL139313  22.151   1.249   8.864
 2966POPC   GL239314  22.136   1.121   8.864
 2966POPC   C1A39315  22.187   1.181   8.564
 2966POPC   D2A39316  22.209   1.253   8.264
 2966POPC   C3A39317  22.184   1.210   7.964
 2966POPC   C4A39318  22.139   1.199   7.664
 2966POPC   C1B39319  22.021   0.993   8.564
 2966POPC   C2B39320  21.975   1.030   8.264
 2966POPC   C3B39321  22.043   1.028   7.964
 2966POPC   C4B39322  22.046   1.043   7.664
 2967POPC   NC339323   8.941  13.601   9.464
 2967POPC   PO439324   9.013  13.591   9.164
 2967POPC   GL139325   8.973  13.626   8.864
 2967POPC   GL239326   8.913  13.705   8.864
 2967POPC   C1A39327   8.934  13.658   8.564
 2967POPC   D2A39328   8.941  13.630   8.264
 2967POPC   C3A39329   8.931  13.586   7.964
 2967POPC   C4A39330   8.925  13.617   7.664
 2967POPC   C1B39331   8.979  13.909   8.564
 2967POPC   C2B39332   8.909  13.873   8.264
 2967POPC   C3B39333   8.964  13.840   7.964
 2967POPC   C4B39334   8.898  13.904   7.664
 2968POPC   NC339335   1.211  22.908   9.464
 2968POPC   PO439336   1.179  22.963   9.164
 2968POPC   GL139337   1.206  22.920   8.864
 2968POPC   GL239338   1.319  22.885   8.864
 2968POPC   C1A39339   1.187  22.910   8.564
 2968POPC   D2A39340   1.186  22.939   8.264
 2968POPC   C3A39341   1.237  22.957   7.964
 2968POPC   C4A39342   1.259  22.947   7.664
 2968POPC   C1B39343   1.421  22.730   8.564
 2968POPC   C2B39344   1.382  22.739   8.264
 2968POPC   C3B39345   1.341  22.762   7.964
 2968POPC   C4B39346   1.344  22.762   7.664
 2969POPC   NC339347  11.305  16.769   9.464
 2969POPC   PO439348  11.302  16.718   9.164
 2969POPC   GL139349  11.329  16.775   8.864
 2969POPC   GL239350  11.313  16.864   8.864
 2969POPC   C1A39351  11.265  16.763   8.564
 2969POPC   D2A39352  11.266  16.686   8.264
 2969POPC   C3A39353  11.315  16.695   7.964
 2969POPC   C4A39354  11.322  16.688   7.664
 2969POPC   C1B39355  11.218  16.987   8.564
 2969POPC   C2B39356  11.234  16.976   8.264
 2969POPC   C3B39357  11.234  16.949   7.964
 2969POPC   C4B39358  11.216  16.942   7.664
 2970POPC   NC339359   1.205  35.310   9.464
 2970POPC   PO439360   1.181  35.313   9.164
 2970POPC   GL139361   1.232  35.304   8.864
 2970POPC   GL239362   1.298  35.402   8.864
 2970POPC   C1A39363   1.198  35.378   8.564
 2970POPC   D2A39364   1.242  35.392   8.264
 2970POPC   C3A39365   1.235  35.365   7.964
 2970POPC   C4A39366   1.231  35.393   7.664
 2970POPC   C1B39367   1.321  35.553   8.564
 2970POPC   C2B39368   1.396  35.594   8.264
 2970POPC   C3B39369   1.370  35.527   7.964
 2970POPC   C4B39370   1.386  35.587   7.664
 2971POPC   NC339371   4.303   0.398   9.464
 2971POPC   PO439372   4.341   0.462   9.164
 2971POPC   GL139373   4.332   0.389   8.864
 2971POPC   GL239374   4.216   0.313   8.864
 2971POPC   C1A39375   4.294   0.452   8.564
 2971POPC   D2A39376   4.281   0.462   8.264
 2971POPC   C3A39377   4.340   0.400   7.964
 2971POPC   C4A39378   4.353   0.422   7.664
 2971POPC   C1B39379   4.156   0.283   8.564
 2971POPC   C2B39380   4.104   0.291   8.264
 2971POPC   C3B39381   4.176   0.229   7.964
 2971POPC   C4B39382   4.105   0.245   7.664
 2972POPC   NC339383  31.436  24.445   9.464
 2972POPC   PO439384  31.507  24.517   9.164
 2972POPC   GL139385  31.479  24.487   8.864
 2972POPC   GL239386  31.375  24.479   8.864
 2972POPC   C1A39387  31.470  24.473   8.564
 2972POPC   D2A39388  31.425  24.468   8.264
 2972POPC   C3A39389  31.435  24.486   7.964
 2972POPC   C4A39390  31.503  24.494   7.664
 2972POPC   C1B39391  31.185  24.528   8.564
 2972POPC   C2B39392  31.223  24.541   8.264
 2972POPC   C3B39393  31.259  24.521   7.964
 2972POPC   C4B39394  31.230  24.486   7.664
 2973POPC   NC339395   3.559   4.365   9.464
 2973POPC   PO439396   3.535   4.297   9.164
 2973POPC   GL139397   3.551   4.335   8.864
 2973POPC   GL239398   3.597   4.441   8.864
 2973POPC   C1A39399   3.516   4.332   8.564
 2973POPC   D2A39400   3.563   4.351   8.264
 2973POPC   C3A39401   3.519   4.352   7.964
 2973POPC   C4A39402   3.546   4.315   7.664
 2973POPC   C1B39403   3.714   4.527   8.564
 2973POPC   C2B39404   3.676   4.514   8.264
 2973POPC   C3B39405   3.667   4.503   7.964
 2973POPC   C4B39406   3.654   4.500   7.664
 2974POPC   NC339407  23.730  13.597   9.464
 2974POPC   PO439408  23.682  13.592   9.164
 2974POPC   GL139409  23.758  13.584   8.864
 2974POPC   GL239410  23.637  13.757   8.864
 2974POPC   C1A39411  23.691  13.601   8.564
 2974POPC   D2A39412  23.726  13.606   8.264
 2974POPC   C3A39413  23.729  13.614   7.964
 2974POPC   C4A39414  23.716  13.581   7.664
 2974POPC   C1B39415  23.548  13.813   8.564
 2974POPC   C2B39416  23.539  13.771   8.264
 2974POPC   C3B39417  23.570  13.771   7.964
 2974POPC   C4B39418  23.542  13.777   7.664
 2975POPC   NC339419  39.998  23.697   9.464
 2975POPC   PO439420  39.985  23.708   9.164
 2975POPC   GL139421  39.970  23.678   8.864
 2975POPC   GL239422  39.890  23.780   8.864
 2975POPC   C1A39423  40.050  23.667   8.564
 2975POPC   D2A39424  39.965  23.726   8.264
 2975POPC   C3A39425  40.057  23.716   7.964
 2975POPC   C4A39426  40.038  23.711   7.664
 2975POPC   C1B39427  39.735  23.760   8.564
 2975POPC   C2B39428  39.799  23.752   8.264
 2975POPC   C3B39429  39.814  23.745   7.964
 2975POPC   C4B39430  39.732  23.756   7.664
 2976POPC   NC339431   4.267   1.993   9.464
 2976POPC   PO439432   4.279   1.941   9.164
 2976POPC   GL139433   4.367   2.015   8.864
 2976POPC   GL239434   4.348   1.879   8.864
 2976POPC   C1A39435   4.328   1.966   8.564
 2976POPC   D2A39436   4.270   1.987   8.264
 2976POPC   C3A39437   4.280   1.957   7.964
 2976POPC   C4A39438   4.305   1.960   7.664
 2976POPC   C1B39439   4.315   1.734   8.564
 2976POPC   C2B39440   4.279   1.704   8.264
 2976POPC   C3B39441   4.336   1.778   7.964
 2976POPC   C4B39442   4.299   1.768   7.664
 2977POPC   NC339443   4.358  29.140   9.464
 2977POPC   PO439444   4.267  29.148   9.164
 2977POPC   GL139445   4.284  29.106   8.864
 2977POPC   GL239446   4.170  29.143   8.864
 2977POPC   C1A39447   4.292  29.106   8.564
 2977POPC   D2A39448   4.272  29.193   8.264
 2977POPC   C3A39449   4.316  29.095   7.964
 2977POPC   C4A39450   4.328  29.139   7.664
 2977POPC   C1B39451   4.027  29.179   8.564
 2977POPC   C2B39452   4.039  29.215   8.264
 2977POPC   C3B39453   4.021  29.154   7.964
 2977POPC   C4B39454   4.101  29.215   7.664
 2978POPC   NC339455  33.049  43.928   9.464
 2978POPC   PO439456  33.018  43.849   9.164
 2978POPC   GL139457  33.014  43.919   8.864
 2978POPC   GL239458  33.091  44.005   8.864
 2978POPC   C1A39459  32.983  43.842   8.564
 2978POPC   D2A39460  33.064  43.904   8.264
 2978POPC   C3A39461  33.062  43.836   7.964
 2978POPC   C4A39462  33.041  43.926   7.664
 2978POPC   C1B39463  33.132  44.140   8.564
 2978POPC   C2B39464  33.156  44.065   8.264
 2978POPC   C3B39465  33.129  44.095   7.964
 2978POPC   C4B39466  33.122  44.148   7.664
 2979POPC   NC339467  38.494  36.169   9.464
 2979POPC   PO439468  38.474  36.135   9.164
 2979POPC   GL139469  38.416  36.101   8.864
 2979POPC   GL239470  38.559  36.027   8.864
 2979POPC   C1A39471  38.485  36.157   8.564
 2979POPC   D2A39472  38.413  36.112   8.264
 2979POPC   C3A39473  38.497  36.115   7.964
 2979POPC   C4A39474  38.456  36.120   7.664
 2979POPC   C1B39475  38.639  35.961   8.564
 2979POPC   C2B39476  38.691  35.975   8.264
 2979POPC   C3B39477  38.647  35.930   7.964
 2979POPC   C4B39478  38.626  36.003   7.664
 2980POPC   NC339479  29.182  15.190   9.464
 2980POPC   PO439480  29.175  15.136   9.164
 2980POPC   GL139481  29.192  15.198   8.864
 2980POPC   GL239482  29.135  15.298   8.864
 2980POPC   C1A39483  29.186  15.179   8.564
 2980POPC   D2A39484  29.142  15.195   8.264
 2980POPC   C3A39485  29.097  15.153   7.964
 2980POPC   C4A39486  29.178  15.139   7.664
 2980POPC   C1B39487  29.175  15.418   8.564
 2980POPC   C2B39488  29.189  15.463   8.264
 2980POPC   C3B39489  29.122  15.438   7.964
 2980POPC   C4B39490  29.182  15.448   7.664
 2981POPC   NC339491  44.616   1.259   9.464
 2981POPC   PO439492  44.662   1.253   9.164
 2981POPC   GL139493  44.648   1.231   8.864
 2981POPC   GL239494  44.678   1.315   8.864
 2981POPC   C1A39495  44.687   1.247   8.564
 2981POPC   D2A39496  44.688   1.166   8.264
 2981POPC   C3A39497  44.657   1.256   7.964
 2981POPC   C4A39498  44.673   1.226   7.664
 2981POPC   C1B39499  44.754   1.428   8.564
 2981POPC   C2B39500  44.793   1.415   8.264
 2981POPC   C3B39501  44.796   1.466   7.964
 2981POPC   C4B39502  44.765   1.388   7.664
 2982POPC   NC339503  36.940  40.764   9.464
 2982POPC   PO439504  36.941  40.745   9.164
 2982POPC   GL139505  36.904  40.766   8.864
 2982POPC   GL239506  36.956  40.940   8.864
 2982POPC   C1A39507  36.918  40.826   8.564
 2982POPC   D2A39508  36.891  40.806   8.264
 2982POPC   C3A39509  36.908  40.766   7.964
 2982POPC   C4A39510  36.881  40.802   7.664
 2982POPC   C1B39511  36.957  40.998   8.564
 2982POPC   C2B39512  36.973  41.013   8.264
 2982POPC   C3B39513  37.017  41.060   7.964
 2982POPC   C4B39514  36.952  41.003   7.664
 2983POPC   NC339515   7.404  15.935   9.464
 2983POPC   PO439516   7.423  15.975   9.164
 2983POPC   GL139517   7.442  15.958   8.864
 2983POPC   GL239518   7.546  15.841   8.864
 2983POPC   C1A39519   7.446  15.965   8.564
 2983POPC   D2A39520   7.387  15.968   8.264
 2983POPC   C3A39521   7.469  15.936   7.964
 2983POPC   C4A39522   7.382  15.988   7.664
 2983POPC   C1B39523   7.566  15.739   8.564
 2983POPC   C2B39524   7.607  15.773   8.264
 2983POPC   C3B39525   7.583  15.822   7.964
 2983POPC   C4B39526   7.548  15.737   7.664
 2984POPC   NC339527   7.426   5.826   9.464
 2984POPC   PO439528   7.403   5.872   9.164
 2984POPC   GL139529   7.435   5.838   8.864
 2984POPC   GL239530   7.249   5.910   8.864
 2984POPC   C1A39531   7.446   5.853   8.564
 2984POPC   D2A39532   7.384   5.912   8.264
 2984POPC   C3A39533   7.414   5.860   7.964
 2984POPC   C4A39534   7.388   5.865   7.664
 2984POPC   C1B39535   7.214   5.845   8.564
 2984POPC   C2B39536   7.187   5.893   8.264
 2984POPC   C3B39537   7.159   5.915   7.964
 2984POPC   C4B39538   7.124   5.886   7.664
 2985POPC   NC339539  38.421  28.412   9.464
 2985POPC   PO439540  38.430  28.325   9.164
 2985POPC   GL139541  38.496  28.340   8.864
 2985POPC   GL239542  38.516  28.457   8.864
 2985POPC   C1A39543  38.505  28.321   8.564
 2985POPC   D2A39544  38.452  28.351   8.264
 2985POPC   C3A39545  38.418  28.393   7.964
 2985POPC   C4A39546  38.422  28.328   7.664
 2985POPC   C1B39547  38.653  28.482   8.564
 2985POPC   C2B39548  38.669  28.564   8.264
 2985POPC   C3B39549  38.667  28.493   7.964
 2985POPC   C4B39550  38.694  28.573   7.664
 2986POPC   NC339551  25.284  23.672   9.464
 2986POPC   PO439552  25.234  23.760   9.164
 2986POPC   GL139553  25.228  23.748   8.864
 2986POPC   GL239554  25.245  23.597   8.864
 2986POPC   C1A39555  25.253  23.736   8.564
 2986POPC   D2A39556  25.307  23.691   8.264
 2986POPC   C3A39557  25.245  23.668   7.964
 2986POPC   C4A39558  25.283  23.737   7.664
 2986POPC   C1B39559  25.279  23.495   8.564
 2986POPC   C2B39560  25.267  23.423   8.264
 2986POPC   C3B39561  25.192  23.514   7.964
 2986POPC   C4B39562  25.219  23.452   7.664
 2987POPC   NC339563  40.048  18.241   9.464
 2987POPC   PO439564  40.014  18.330   9.164
 2987POPC   GL139565  39.996  18.308   8.864
 2987POPC   GL239566  39.891  18.320   8.864
 2987POPC   C1A39567  39.996  18.236   8.564
 2987POPC   D2A39568  40.042  18.260   8.264
 2987POPC   C3A39569  40.052  18.327   7.964
 2987POPC   C4A39570  40.032  18.297   7.664
 2987POPC   C1B39571  39.730  18.412   8.564
 2987POPC   C2B39572  39.758  18.423   8.264
 2987POPC   C3B39573  39.811  18.351   7.964
 2987POPC   C4B39574  39.766  18.421   7.664
 2988POPC   NC339575   2.737  26.063   9.464
 2988POPC   PO439576   2.769  26.046   9.164
 2988POPC   GL139577   2.724  25.992   8.864
 2988POPC   GL239578   2.876  25.993   8.864
 2988POPC   C1A39579   2.798  26.085   8.564
 2988POPC   D2A39580   2.737  26.033   8.264
 2988POPC   C3A39581   2.723  26.079   7.964
 2988POPC   C4A39582   2.799  26.053   7.664
 2988POPC   C1B39583   2.972  26.059   8.564
 2988POPC   C2B39584   2.988  25.998   8.264
 2988POPC   C3B39585   3.054  26.077   7.964
 2988POPC   C4B39586   2.998  26.074   7.664
 2989POPC   NC339587   2.729  21.338   9.464
 2989POPC   PO439588   2.773  21.411   9.164
 2989POPC   GL139589   2.780  21.337   8.864
 2989POPC   GL239590   2.755  21.224   8.864
 2989POPC   C1A39591   2.766  21.360   8.564
 2989POPC   D2A39592   2.721  21.370   8.264
 2989POPC   C3A39593   2.741  21.354   7.964
 2989POPC   C4A39594   2.774  21.388   7.664
 2989POPC   C1B39595   2.812  21.110   8.564
 2989POPC   C2B39596   2.731  21.149   8.264
 2989POPC   C3B39597   2.796  21.152   7.964
 2989POPC   C4B39598   2.758  21.101   7.664
 2990POPC   NC339599  37.716  34.577   9.464
 2990POPC   PO439600  37.644  34.527   9.164
 2990POPC   GL139601  37.693  34.573   8.864
 2990POPC   GL239602  37.589  34.474   8.864
 2990POPC   C1A39603  37.703  34.561   8.564
 2990POPC   D2A39604  37.633  34.622   8.264
 2990POPC   C3A39605  37.723  34.589   7.964
 2990POPC   C4A39606  37.636  34.558   7.664
 2990POPC   C1B39607  37.546  34.417   8.564
 2990POPC   C2B39608  37.535  34.372   8.264
 2990POPC   C3B39609  37.522  34.437   7.964
 2990POPC   C4B39610  37.538  34.383   7.664
 2991POPC   NC339611  12.846  34.547   9.464
 2991POPC   PO439612  12.897  34.535   9.164
 2991POPC   GL139613  12.836  34.554   8.864
 2991POPC   GL239614  12.967  34.627   8.864
 2991POPC   C1A39615  12.898  34.584   8.564
 2991POPC   D2A39616  12.864  34.616   8.264
 2991POPC   C3A39617  12.867  34.534   7.964
 2991POPC   C4A39618  12.810  34.621   7.664
 2991POPC   C1B39619  13.008  34.753   8.564
 2991POPC   C2B39620  13.074  34.708   8.264
 2991POPC   C3B39621  13.009  34.722   7.964
 2991POPC   C4B39622  13.062  34.749   7.664
 2992POPC   NC339623  11.309   8.237   9.464
 2992POPC   PO439624  11.311   8.229   9.164
 2992POPC   GL139625  11.337   8.153   8.864
 2992POPC   GL239626  11.345   8.259   8.864
 2992POPC   C1A39627  11.286   8.199   8.564
 2992POPC   D2A39628  11.252   8.173   8.264
 2992POPC   C3A39629  11.279   8.168   7.964
 2992POPC   C4A39630  11.276   8.151   7.664
 2992POPC   C1B39631  11.426   8.404   8.564
 2992POPC   C2B39632  11.407   8.433   8.264
 2992POPC   C3B39633  11.463   8.392   7.964
 2992POPC   C4B39634  11.413   8.453   7.664
 2993POPC   NC339635  12.829  24.539   9.464
 2993POPC   PO439636  12.819  24.525   9.164
 2993POPC   GL139637  12.853  24.493   8.864
 2993POPC   GL239638  12.751  24.515   8.864
 2993POPC   C1A39639  12.840  24.470   8.564
 2993POPC   D2A39640  12.812  24.530   8.264
 2993POPC   C3A39641  12.820  24.468   7.964
 2993POPC   C4A39642  12.847  24.478   7.664
 2993POPC   C1B39643  12.639  24.508   8.564
 2993POPC   C2B39644  12.640  24.572   8.264
 2993POPC   C3B39645  12.613  24.534   7.964
 2993POPC   C4B39646  12.634  24.504   7.664
 2994POPC   NC339647  30.713  21.373   9.464
 2994POPC   PO439648  30.702  21.404   9.164
 2994POPC   GL139649  30.691  21.352   8.864
 2994POPC   GL239650  30.832  21.370   8.864
 2994POPC   C1A39651  30.669  21.375   8.564
 2994POPC   D2A39652  30.650  21.392   8.264
 2994POPC   C3A39653  30.709  21.346   7.964
 2994POPC   C4A39654  30.657  21.398   7.664
 2994POPC   C1B39655  30.942  21.238   8.564
 2994POPC   C2B39656  30.914  21.295   8.264
 2994POPC   C3B39657  30.931  21.257   7.964
 2994POPC   C4B39658  30.890  21.322   7.664
 2995POPC   NC339659  17.527   3.533   9.464
 2995POPC   PO439660  17.482   3.571   9.164
 2995POPC   GL139661  17.500   3.537   8.864
 2995POPC   GL239662  17.638   3.633   8.864
 2995POPC   C1A39663  17.483   3.514   8.564
 2995POPC   D2A39664  17.554   3.572   8.264
 2995POPC   C3A39665  17.462   3.540   7.964
 2995POPC   C4A39666  17.472   3.589   7.664
 2995POPC   C1B39667  17.666   3.673   8.564
 2995POPC   C2B39668  17.718   3.721   8.264
 2995POPC   C3B39669  17.668   3.685   7.964
 2995POPC   C4B39670  17.686   3.723   7.664
 2996POPC   NC339671   0.426   3.585   9.464
 2996POPC   PO439672   0.429   3.544   9.164
 2996POPC   GL139673   0.431   3.568   8.864
 2996POPC   GL239674   0.561   3.463   8.864
 2996POPC   C1A39675   0.430   3.566   8.564
 2996POPC   D2A39676   0.476   3.564   8.264
 2996POPC   C3A39677   0.423   3.530   7.964
 2996POPC   C4A39678   0.392   3.515   7.664
 2996POPC   C1B39679   0.700   3.375   8.564
 2996POPC   C2B39680   0.643   3.404   8.264
 2996POPC   C3B39681   0.634   3.411   7.964
 2996POPC   C4B39682   0.640   3.367   7.664
 2997POPC   NC339683  10.478  25.304   9.464
 2997POPC   PO439684  10.520  25.283   9.164
 2997POPC   GL139685  10.549  25.233   8.864
 2997POPC   GL239686  10.613  25.192   8.864
 2997POPC   C1A39687  10.481  25.250   8.564
 2997POPC   D2A39688  10.553  25.298   8.264
 2997POPC   C3A39689  10.558  25.311   7.964
 2997POPC   C4A39690  10.477  25.265   7.664
 2997POPC   C1B39691  10.675  25.102   8.564
 2997POPC   C2B39692  10.709  25.059   8.264
 2997POPC   C3B39693  10.673  25.119   7.964
 2997POPC   C4B39694  10.713  25.101   7.664
 2998POPC   NC339695  27.616  17.471   9.464
 2998POPC   PO439696  27.631  17.465   9.164
 2998POPC   GL139697  27.564  17.514   8.864
 2998POPC   GL239698  27.464  17.448   8.864
 2998POPC   C1A39699  27.638  17.461   8.564
 2998POPC   D2A39700  27.554  17.520   8.264
 2998POPC   C3A39701  27.608  17.484   7.964
 2998POPC   C4A39702  27.581  17.528   7.664
 2998POPC   C1B39703  27.331  17.426   8.564
 2998POPC   C2B39704  27.311  17.382   8.264
 2998POPC   C3B39705  27.394  17.408   7.964
 2998POPC   C4B39706  27.378  17.454   7.664
 2999POPC   NC339707   1.210  41.570   9.464
 2999POPC   PO439708   1.175  41.545   9.164
 2999POPC   GL139709   1.261  41.591   8.864
 2999POPC   GL239710   1.143  41.472   8.864
 2999POPC   C1A39711   1.205  41.602   8.564
 2999POPC   D2A39712   1.229  41.537   8.264
 2999POPC   C3A39713   1.183  41.557   7.964
 2999POPC   C4A39714   1.208  41.535   7.664
 2999POPC   C1B39715   1.010  41.443   8.564
 2999POPC   C2B39716   0.979  41.413   8.264
 2999POPC   C3B39717   0.997  41.447   7.964
 2999POPC   C4B39718   1.016  41.441   7.664
 3000POPC   NC339719   9.772   5.916   9.464
 3000POPC   PO439720   9.753   5.892   9.164
 3000POPC   GL139721   9.762   5.910   8.864
 3000POPC   GL239722   9.661   5.806   8.864
 3000POPC   C1A39723   9.740   5.862   8.564
 3000POPC   D2A39724   9.793   5.911   8.264
 3000POPC   C3A39725   9.786   5.871   7.964
 3000POPC   C4A39726   9.768   5.889   7.664
 3000POPC   C1B39727   9.572   5.761   8.564
 3000POPC   C2B39728   9.495   5.738   8.264
 3000POPC   C3B39729   9.514   5.749   7.964
 3000POPC   C4B39730   9.547   5.798   7.664
 3001POPC   NC339731  33.771   5.069   9.464
 3001POPC   PO439732  33.792   5.125   9.164
 3001POPC   GL139733  33.780   5.101   8.864
 3001POPC   GL239734  33.671   5.022   8.864
 3001POPC   C1A39735  33.842   5.052   8.564
 3001POPC   D2A39736  33.772   5.073   8.264
 3001POPC   C3A39737  33.826   5.053   7.964
 3001POPC   C4A39738  33.759   5.137   7.664
 3001POPC   C1B39739  33.576   5.006   8.564
 3001POPC   C2B39740  33.601   4.985   8.264
 3001POPC   C3B39741  33.517   5.040   7.964
 3001POPC   C4B39742  33.524   5.005   7.664
 3002POPC   NC339743  10.562  14.385   9.464
 3002POPC   PO439744  10.550  14.432   9.164
 3002POPC   GL139745  10.524  14.426   8.864
 3002POPC   GL239746  10.454  14.566   8.864
 3002POPC   C1A39747  10.523  14.411   8.564
 3002POPC   D2A39748  10.564  14.448   8.264
 3002POPC   C3A39749  10.538  14.369   7.964
 3002POPC   C4A39750  10.491  14.417   7.664
 3002POPC   C1B39751  10.388  14.643   8.564
 3002POPC   C2B39752  10.395  14.636   8.264
 3002POPC   C3B39753  10.396  14.637   7.964
 3002POPC   C4B39754  10.461  14.589   7.664
 3003POPC   NC339755  11.343  22.194   9.464
 3003POPC   PO439756  11.300  22.204   9.164
 3003POPC   GL139757  11.305  22.167   8.864
 3003POPC   GL239758  11.416  22.106   8.864
 3003POPC   C1A39759  11.303  22.175   8.564
 3003POPC   D2A39760  11.291  22.188   8.264
 3003POPC   C3A39761  11.283  22.116   7.964
 3003POPC   C4A39762  11.320  22.201   7.664
 3003POPC   C1B39763  11.502  22.033   8.564
 3003POPC   C2B39764  11.548  21.996   8.264
 3003POPC   C3B39765  11.532  21.989   7.964
 3003POPC   C4B39766  11.511  22.030   7.664
 3004POPC   NC339767  41.590  40.796   9.464
 3004POPC   PO439768  41.544  40.786   9.164
 3004POPC   GL139769  41.525  40.767   8.864
 3004POPC   GL239770  41.651  40.822   8.864
 3004POPC   C1A39771  41.510  40.778   8.564
 3004POPC   D2A39772  41.509  40.761   8.264
 3004POPC   C3A39773  41.544  40.815   7.964
 3004POPC   C4A39774  41.592  40.800   7.664
 3004POPC   C1B39775  41.812  40.869   8.564
 3004POPC   C2B39776  41.824  40.865   8.264
 3004POPC   C3B39777  41.727  40.867   7.964
 3004POPC   C4B39778  41.743  40.931   7.664
 3005POPC   NC339779  13.604  40.034   9.464
 3005POPC   PO439780  13.600  39.991   9.164
 3005POPC   GL139781  13.670  39.978   8.864
 3005POPC   GL239782  13.590  40.118   8.864
 3005POPC   C1A39783  13.673  40.051   8.564
 3005POPC   D2A39784  13.621  40.024   8.264
 3005POPC   C3A39785  13.585  39.972   7.964
 3005POPC   C4A39786  13.668  40.011   7.664
 3005POPC   C1B39787  13.587  40.283   8.564
 3005POPC   C2B39788  13.612  40.250   8.264
 3005POPC   C3B39789  13.551  40.262   7.964
 3005POPC   C4B39790  13.566  40.297   7.664
 3006POPC   NC339791  31.490  26.771   9.464
 3006POPC   PO439792  31.493  26.819   9.164
 3006POPC   GL139793  31.456  26.787   8.864
 3006POPC   GL239794  31.532  26.735   8.864
 3006POPC   C1A39795  31.482  26.803   8.564
 3006POPC   D2A39796  31.520  26.865   8.264
 3006POPC   C3A39797  31.463  26.814   7.964
 3006POPC   C4A39798  31.453  26.866   7.664
 3006POPC   C1B39799  31.666  26.665   8.564
 3006POPC   C2B39800  31.633  26.655   8.264
 3006POPC   C3B39801  31.626  26.607   7.964
 3006POPC   C4B39802  31.608  26.579   7.664
 3007POPC   NC339803  11.261   4.276   9.464
 3007POPC   PO439804  11.326   4.348   9.164
 3007POPC   GL139805  11.340   4.323   8.864
 3007POPC   GL239806  11.179   4.200   8.864
 3007POPC   C1A39807  11.329   4.355   8.564
 3007POPC   D2A39808  11.310   4.351   8.264
 3007POPC   C3A39809  11.335   4.297   7.964
 3007POPC   C4A39810  11.301   4.300   7.664
 3007POPC   C1B39811  11.133   4.183   8.564
 3007POPC   C2B39812  11.138   4.130   8.264
 3007POPC   C3B39813  11.150   4.142   7.964
 3007POPC   C4B39814  11.149   4.157   7.664
 3008POPC   NC339815  36.107  19.018   9.464
 3008POPC   PO439816  36.147  19.067   9.164
 3008POPC   GL139817  36.162  19.091   8.864
 3008POPC   GL239818  36.236  19.106   8.864
 3008POPC   C1A39819  36.089  19.032   8.564
 3008POPC   D2A39820  36.168  19.036   8.264
 3008POPC   C3A39821  36.131  19.091   7.964
 3008POPC   C4A39822  36.168  19.043   7.664
 3008POPC   C1B39823  36.404  19.111   8.564
 3008POPC   C2B39824  36.341  19.091   8.264
 3008POPC   C3B39825  36.386  19.106   7.964
 3008POPC   C4B39826  36.352  19.121   7.664
 3009POPC   NC339827   8.955  15.973   9.464
 3009POPC   PO439828   8.944  15.916   9.164
 3009POPC   GL139829   8.941  15.917   8.864
 3009POPC   GL239830   8.954  15.870   8.864
 3009POPC   C1A39831   8.951  15.971   8.564
 3009POPC   D2A39832   9.008  16.001   8.264
 3009POPC   C3A39833   8.973  15.981   7.964
 3009POPC   C4A39834   8.960  15.936   7.664
 3009POPC   C1B39835   8.888  15.674   8.564
 3009POPC   C2B39836   8.937  15.732   8.264
 3009POPC   C3B39837   8.863  15.745   7.964
 3009POPC   C4B39838   8.850  15.736   7.664
 3010POPC   NC339839  43.129  13.584   9.464
 3010POPC   PO439840  43.142  13.584   9.164
 3010POPC   GL139841  43.143  13.642   8.864
 3010POPC   GL239842  43.025  13.600   8.864
 3010POPC   C1A39843  43.097  13.616   8.564
 3010POPC   D2A39844  43.077  13.661   8.264
 3010POPC   C3A39845  43.070  13.599   7.964
 3010POPC   C4A39846  43.114  13.616   7.664
 3010POPC   C1B39847  42.913  13.487   8.564
 3010POPC   C2B39848  42.944  13.516   8.264
 3010POPC   C3B39849  42.948  13.472   7.964
 3010POPC   C4B39850  42.904  13.455   7.664
 3011POPC   NC339851  26.012   9.744   9.464
 3011POPC   PO439852  26.057   9.706   9.164
 3011POPC   GL139853  26.084   9.707   8.864
 3011POPC   GL239854  26.071   9.868   8.864
 3011POPC   C1A39855  26.051   9.717   8.564
 3011POPC   D2A39856  26.021   9.753   8.264
 3011POPC   C3A39857  25.992   9.721   7.964
 3011POPC   C4A39858  26.059   9.785   7.664
 3011POPC   C1B39859  26.104   9.945   8.564
 3011POPC   C2B39860  26.122   9.940   8.264
 3011POPC   C3B39861  26.196  10.002   7.964
 3011POPC   C4B39862  26.156   9.991   7.664
 3012POPC   NC339863   9.768  33.780   9.464
 3012POPC   PO439864   9.772  33.820   9.164
 3012POPC   GL139865   9.736  33.751   8.864
 3012POPC   GL239866   9.793  33.871   8.864
 3012POPC   C1A39867   9.745  33.792   8.564
 3012POPC   D2A39868   9.774  33.769   8.264
 3012POPC   C3A39869   9.776  33.847   7.964
 3012POPC   C4A39870   9.730  33.754   7.664
 3012POPC   C1B39871   9.913  33.942   8.564
 3012POPC   C2B39872   9.918  34.000   8.264
 3012POPC   C3B39873   9.956  34.026   7.964
 3012POPC   C4B39874   9.942  34.025   7.664
 3013POPC   NC339875  13.602  33.024   9.464
 3013POPC   PO439876  13.615  33.016   9.164
 3013POPC   GL139877  13.626  33.072   8.864
 3013POPC   GL239878  13.641  33.083   8.864
 3013POPC   C1A39879  13.640  33.011   8.564
 3013POPC   D2A39880  13.644  33.024   8.264
 3013POPC   C3A39881  13.617  33.023   7.964
 3013POPC   C4A39882  13.614  32.975   7.664
 3013POPC   C1B39883  13.745  33.289   8.564
 3013POPC   C2B39884  13.758  33.246   8.264
 3013POPC   C3B39885  13.716  33.253   7.964
 3013POPC   C4B39886  13.711  33.247   7.664
 3014POPC   NC339887  24.525  43.083   9.464
 3014POPC   PO439888  24.457  43.112   9.164
 3014POPC   GL139889  24.484  43.131   8.864
 3014POPC   GL239890  24.610  43.070   8.864
 3014POPC   C1A39891  24.449  43.086   8.564
 3014POPC   D2A39892  24.477  43.153   8.264
 3014POPC   C3A39893  24.473  43.101   7.964
 3014POPC   C4A39894  24.514  43.124   7.664
 3014POPC   C1B39895  24.698  43.081   8.564
 3014POPC   C2B39896  24.768  43.076   8.264
 3014POPC   C3B39897  24.755  43.078   7.964
 3014POPC   C4B39898  24.771  43.159   7.664
 3015POPC   NC339899  42.308   4.358   9.464
 3015POPC   PO439900  42.295   4.325   9.164
 3015POPC   GL139901  42.383   4.304   8.864
 3015POPC   GL239902  42.491   4.294   8.864
 3015POPC   C1A39903  42.306   4.286   8.564
 3015POPC   D2A39904  42.300   4.303   8.264
 3015POPC   C3A39905  42.317   4.343   7.964
 3015POPC   C4A39906  42.310   4.347   7.664
 3015POPC   C1B39907  42.546   4.174   8.564
 3015POPC   C2B39908  42.526   4.224   8.264
 3015POPC   C3B39909  42.569   4.192   7.964
 3015POPC   C4B39910  42.538   4.222   7.664
 3016POPC   NC339911   8.210  15.164   9.464
 3016POPC   PO439912   8.212  15.141   9.164
 3016POPC   GL139913   8.177  15.211   8.864
 3016POPC   GL239914   8.211  15.322   8.864
 3016POPC   C1A39915   8.223  15.206   8.564
 3016POPC   D2A39916   8.245  15.194   8.264
 3016POPC   C3A39917   8.161  15.139   7.964
 3016POPC   C4A39918   8.181  15.227   7.664
 3016POPC   C1B39919   8.192  15.448   8.564
 3016POPC   C2B39920   8.162  15.407   8.264
 3016POPC   C3B39921   8.165  15.452   7.964
 3016POPC   C4B39922   8.250  15.423   7.664
 3017POPC   NC339923  44.644  26.039   9.464
 3017POPC   PO439924  44.669  26.058   9.164
 3017POPC   GL139925  44.620  26.089   8.864
 3017POPC   GL239926  44.837  26.007   8.864
 3017POPC   C1A39927  44.614  26.060   8.564
 3017POPC   D2A39928  44.626  26.030   8.264
 3017POPC   C3A39929  44.669  26.009   7.964
 3017POPC   C4A39930  44.617  26.030   7.664
 3017POPC   C1B39931  44.919  26.033   8.564
 3017POPC   C2B39932  44.893  26.014   8.264
 3017POPC   C3B39933  44.910  26.075   7.964
 3017POPC   C4B39934  44.879  26.003   7.664
 3018POPC   NC339935   8.985  44.673   9.464
 3018POPC   PO439936   8.965  44.637   9.164
 3018POPC   GL139937   9.005  44.630   8.864
 3018POPC   GL239938   8.832  44.704   8.864
 3018POPC   C1A39939   8.984  44.690   8.564
 3018POPC   D2A39940   8.980  44.653   8.264
 3018POPC   C3A39941   9.017  44.643   7.964
 3018POPC   C4A39942   8.943  44.643   7.664
 3018POPC   C1B39943   8.775  44.686   8.564
 3018POPC   C2B39944   8.725  44.708   8.264
 3018POPC   C3B39945   8.765  44.736   7.964
 3018POPC   C4B39946   8.752  44.776   7.664
 3019POPC   NC339947  12.084  10.476   9.464
 3019POPC   PO439948  12.050  10.494   9.164
 3019POPC   GL139949  12.071  10.525   8.864
 3019POPC   GL239950  11.915  10.541   8.864
 3019POPC   C1A39951  12.101  10.481   8.564
 3019POPC   D2A39952  12.124  10.525   8.264
 3019POPC   C3A39953  12.098  10.560   7.964
 3019POPC   C4A39954  12.099  10.489   7.664
 3019POPC   C1B39955  11.822  10.495   8.564
 3019POPC   C2B39956  11.790  10.445   8.264
 3019POPC   C3B39957  11.831  10.502   7.964
 3019POPC   C4B39958  11.882  10.416   7.664
 3020POPC   NC339959  36.091   8.182   9.464
 3020POPC   PO439960  36.142   8.217   9.164
 3020POPC   GL139961  36.160   8.208   8.864
 3020POPC   GL239962  36.247   8.128   8.864
 3020POPC   C1A39963  36.169   8.156   8.564
 3020POPC   D2A39964  36.127   8.179   8.264
 3020POPC   C3A39965  36.095   8.176   7.964
 3020POPC   C4A39966  36.091   8.211   7.664
 3020POPC   C1B39967  36.360   8.086   8.564
 3020POPC   C2B39968  36.291   8.081   8.264
 3020POPC   C3B39969  36.307   8.057   7.964
 3020POPC   C4B39970  36.373   8.080   7.664
 3021POPC   NC339971  32.975   1.228   9.464
 3021POPC   PO439972  33.024   1.169   9.164
 3021POPC   GL139973  33.000   1.196   8.864
 3021POPC   GL239974  33.090   1.337   8.864
 3021POPC   C1A39975  33.012   1.185   8.564
 3021POPC   D2A39976  32.978   1.194   8.264
 3021POPC   C3A39977  33.061   1.216   7.964
 3021POPC   C4A39978  33.062   1.177   7.664
 3021POPC   C1B39979  33.160   1.453   8.564
 3021POPC   C2B39980  33.108   1.425   8.264
 3021POPC   C3B39981  33.139   1.467   7.964
 3021POPC   C4B39982  33.092   1.462   7.664
 3022POPC   NC339983  27.616  25.230   9.464
 3022POPC   PO439984  27.604  25.256   9.164
 3022POPC   GL139985  27.559  25.295   8.864
 3022POPC   GL239986  27.663  25.395   8.864
 3022POPC   C1A39987  27.600  25.256   8.564
 3022POPC   D2A39988  27.548  25.307   8.264
 3022POPC   C3A39989  27.572  25.222   7.964
 3022POPC   C4A39990  27.575  25.233   7.664
 3022POPC   C1B39991  27.665  25.525   8.564
 3022POPC   C2B39992  27.647  25.502   8.264
 3022POPC   C3B39993  27.700  25.473   7.964
 3022POPC   C4B39994  27.612  25.480   7.664
 3023POPC   NC339995  13.603  11.271   9.464
 3023POPC   PO439996  13.635  11.267   9.164
 3023POPC   GL139997  13.636  11.262   8.864
 3023POPC   GL239998  13.686  11.337   8.864
 3023POPC   C1A39999  13.618  11.319   8.564
 3023POPC   D2A40000  13.677  11.344   8.264
 3023POPC   C3A40001  13.584  11.259   7.964
 3023POPC   C4A40002  13.642  11.340   7.664
 3023POPC   C1B40003  13.834  11.460   8.564
 3023POPC   C2B40004  13.844  11.467   8.264
 3023POPC   C3B40005  13.871  11.470   7.964
 3023POPC   C4B40006  13.834  11.442   7.664
 3024POPC   NC340007  12.887  14.406   9.464
 3024POPC   PO440008  12.846  14.430   9.164
 3024POPC   GL140009  12.885  14.398   8.864
 3024POPC   GL240010  12.763  14.495   8.864
 3024POPC   C1A40011  12.901  14.425   8.564
 3024POPC   D2A40012  12.862  14.361   8.264
 3024POPC   C3A40013  12.891  14.427   7.964
 3024POPC   C4A40014  12.849  14.438   7.664
 3024POPC   C1B40015  12.606  14.520   8.564
 3024POPC   C2B40016  12.642  14.573   8.264
 3024POPC   C3B40017  12.647  14.577   7.964
 3024POPC   C4B40018  12.675  14.487   7.664
 3025POPC   NC340019  37.674   0.467   9.464
 3025POPC   PO440020  37.705   0.389   9.164
 3025POPC   GL140021  37.659   0.439   8.864
 3025POPC   GL240022  37.761   0.385   8.864
 3025POPC   C1A40023  37.636   0.399   8.564
 3025POPC   D2A40024  37.714   0.419   8.264
 3025POPC   C3A40025  37.633   0.433   7.964
 3025POPC   C4A40026  37.657   0.430   7.664
 3025POPC   C1B40027  37.873   0.333   8.564
 3025POPC   C2B40028  37.910   0.386   8.264
 3025POPC   C3B40029  37.946   0.289   7.964
 3025POPC   C4B40030  37.895   0.328   7.664
 3026POPC   NC340031   2.036  12.064   9.464
 3026POPC   PO440032   1.942  12.033   9.164
 3026POPC   GL140033   1.960  12.043   8.864
 3026POPC   GL240034   1.886  12.025   8.864
 3026POPC   C1A40035   2.028  12.084   8.564
 3026POPC   D2A40036   1.981  12.092   8.264
 3026POPC   C3A40037   1.961  12.125   7.964
 3026POPC   C4A40038   1.944  12.086   7.664
 3026POPC   C1B40039   1.799  11.918   8.564
 3026POPC   C2B40040   1.780  11.918   8.264
 3026POPC   C3B40041   1.806  11.896   7.964
 3026POPC   C4B40042   1.825  11.951   7.664
 3027POPC   NC340043  11.327  30.702   9.464
 3027POPC   PO440044  11.322  30.658   9.164
 3027POPC   GL140045  11.330  30.730   8.864
 3027POPC   GL240046  11.371  30.616   8.864
 3027POPC   C1A40047  11.271  30.691   8.564
 3027POPC   D2A40048  11.296  30.738   8.264
 3027POPC   C3A40049  11.310  30.696   7.964
 3027POPC   C4A40050  11.304  30.694   7.664
 3027POPC   C1B40051  11.405  30.413   8.564
 3027POPC   C2B40052  11.388  30.458   8.264
 3027POPC   C3B40053  11.361  30.490   7.964
 3027POPC   C4B40054  11.309  30.478   7.664
 3028POPC   NC340055  12.806  22.915   9.464
 3028POPC   PO440056  12.819  22.933   9.164
 3028POPC   GL140057  12.859  22.943   8.864
 3028POPC   GL240058  12.954  22.926   8.864
 3028POPC   C1A40059  12.816  22.924   8.564
 3028POPC   D2A40060  12.819  22.908   8.264
 3028POPC   C3A40061  12.860  22.973   7.964
 3028POPC   C4A40062  12.806  22.922   7.664
 3028POPC   C1B40063  13.145  22.991   8.564
 3028POPC   C2B40064  13.059  22.950   8.264
 3028POPC   C3B40065  13.079  22.987   7.964
 3028POPC   C4B40066  13.075  22.930   7.664
 3029POPC   NC340067  26.021   3.573   9.464
 3029POPC   PO440068  26.007   3.545   9.164
 3029POPC   GL140069  26.024   3.568   8.864
 3029POPC   GL240070  25.912   3.502   8.864
 3029POPC   C1A40071  26.055   3.553   8.564
 3029POPC   D2A40072  26.068   3.520   8.264
 3029POPC   C3A40073  26.038   3.502   7.964
 3029POPC   C4A40074  26.051   3.524   7.664
 3029POPC   C1B40075  25.852   3.378   8.564
 3029POPC   C2B40076  25.848   3.387   8.264
 3029POPC   C3B40077  25.835   3.357   7.964
 3029POPC   C4B40078  25.857   3.404   7.664
 3030POPC   NC340079  38.482  23.745   9.464
 3030POPC   PO440080  38.458  23.731   9.164
 3030POPC   GL140081  38.411  23.725   8.864
 3030POPC   GL240082  38.501  23.598   8.864
 3030POPC   C1A40083  38.487  23.684   8.564
 3030POPC   D2A40084  38.491  23.736   8.264
 3030POPC   C3A40085  38.439  23.682   7.964
 3030POPC   C4A40086  38.458  23.721   7.664
 3030POPC   C1B40087  38.656  23.546   8.564
 3030POPC   C2B40088  38.644  23.582   8.264
 3030POPC   C3B40089  38.599  23.561   7.964
 3030POPC   C4B40090  38.647  23.576   7.664
 3031POPC   NC340091   8.150  21.403   9.464
 3031POPC   PO440092   8.191  21.431   9.164
 3031POPC   GL140093   8.168  21.336   8.864
 3031POPC   GL240094   8.080  21.334   8.864
 3031POPC   C1A40095   8.148  21.387   8.564
 3031POPC   D2A40096   8.155  21.412   8.264
 3031POPC   C3A40097   8.153  21.419   7.964
 3031POPC   C4A40098   8.206  21.365   7.664
 3031POPC   C1B40099   7.938  21.371   8.564
 3031POPC   C2B40100   7.937  21.407   8.264
 3031POPC   C3B40101   7.965  21.341   7.964
 3031POPC   C4B40102   7.935  21.334   7.664
 3032POPC   NC340103  12.055  13.629   9.464
 3032POPC   PO440104  12.050  13.662   9.164
 3032POPC   GL140105  12.083  13.639   8.864
 3032POPC   GL240106  11.994  13.508   8.864
 3032POPC   C1A40107  12.044  13.642   8.564
 3032POPC   D2A40108  12.078  13.604   8.264
 3032POPC   C3A40109  12.095  13.579   7.964
 3032POPC   C4A40110  12.109  13.592   7.664
 3032POPC   C1B40111  11.926  13.439   8.564
 3032POPC   C2B40112  11.914  13.447   8.264
 3032POPC   C3B40113  11.918  13.449   7.964
 3032POPC   C4B40114  11.904  13.423   7.664
 3033POPC   NC340115  34.555  10.503   9.464
 3033POPC   PO440116  34.530  10.499   9.164
 3033POPC   GL140117  34.570  10.484   8.864
 3033POPC   GL240118  34.459  10.522   8.864
 3033POPC   C1A40119  34.542  10.512   8.564
 3033POPC   D2A40120  34.557  10.537   8.264
 3033POPC   C3A40121  34.558  10.515   7.964
 3033POPC   C4A40122  34.546  10.527   7.664
 3033POPC   C1B40123  34.389  10.631   8.564
 3033POPC   C2B40124  34.340  10.575   8.264
 3033POPC   C3B40125  34.389  10.593   7.964
 3033POPC   C4B40126  34.360  10.572   7.664
 3034POPC   NC340127  36.867   9.717   9.464
 3034POPC   PO440128  36.885   9.735   9.164
 3034POPC   GL140129  36.926   9.741   8.864
 3034POPC   GL240130  37.030   9.767   8.864
 3034POPC   C1A40131  36.886   9.784   8.564
 3034POPC   D2A40132  36.907   9.757   8.264
 3034POPC   C3A40133  36.865   9.738   7.964
 3034POPC   C4A40134  36.926   9.725   7.664
 3034POPC   C1B40135  37.157   9.835   8.564
 3034POPC   C2B40136  37.172   9.791   8.264
 3034POPC   C3B40137  37.198   9.818   7.964
 3034POPC   C4B40138  37.145   9.750   7.664
 3035POPC   NC340139  19.085  40.022   9.464
 3035POPC   PO440140  19.018  40.048   9.164
 3035POPC   GL140141  19.065  40.038   8.864
 3035POPC   GL240142  19.140  40.016   8.864
 3035POPC   C1A40143  19.038  40.035   8.564
 3035POPC   D2A40144  19.096  39.957   8.264
 3035POPC   C3A40145  19.073  39.988   7.964
 3035POPC   C4A40146  19.105  40.048   7.664
 3035POPC   C1B40147  19.340  39.972   8.564
 3035POPC   C2B40148  19.351  40.050   8.264
 3035POPC   C3B40149  19.302  39.964   7.964
 3035POPC   C4B40150  19.284  39.989   7.664
 3036POPC   NC340151   0.395  15.977   9.464
 3036POPC   PO440152   0.457  15.974   9.164
 3036POPC   GL140153   0.483  15.961   8.864
 3036POPC   GL240154   0.318  15.918   8.864
 3036POPC   C1A40155   0.437  15.988   8.564
 3036POPC   D2A40156   0.419  15.990   8.264
 3036POPC   C3A40157   0.432  15.982   7.964
 3036POPC   C4A40158   0.431  15.975   7.664
 3036POPC   C1B40159   0.230  15.860   8.564
 3036POPC   C2B40160   0.154  15.895   8.264
 3036POPC   C3B40161   0.245  15.897   7.964
 3036POPC   C4B40162   0.208  15.899   7.664
 3037POPC   NC340163   6.629  37.651   9.464
 3037POPC   PO440164   6.661  37.640   9.164
 3037POPC   GL140165   6.692  37.634   8.864
 3037POPC   GL240166   6.724  37.623   8.864
 3037POPC   C1A40167   6.636  37.716   8.564
 3037POPC   D2A40168   6.620  37.698   8.264
 3037POPC   C3A40169   6.693  37.694   7.964
 3037POPC   C4A40170   6.656  37.649   7.664
 3037POPC   C1B40171   6.903  37.631   8.564
 3037POPC   C2B40172   6.916  37.600   8.264
 3037POPC   C3B40173   6.874  37.640   7.964
 3037POPC   C4B40174   6.897  37.671   7.664
 3038POPC   NC340175  38.504   5.110   9.464
 3038POPC   PO440176  38.424   5.099   9.164
 3038POPC   GL140177  38.454   5.075   8.864
 3038POPC   GL240178  38.466   4.945   8.864
 3038POPC   C1A40179  38.453   5.115   8.564
 3038POPC   D2A40180  38.437   5.116   8.264
 3038POPC   C3A40181  38.414   5.128   7.964
 3038POPC   C4A40182  38.450   5.129   7.664
 3038POPC   C1B40183  38.552   4.883   8.564
 3038POPC   C2B40184  38.581   4.857   8.264
 3038POPC   C3B40185  38.500   4.903   7.964
 3038POPC   C4B40186  38.578   4.886   7.664
 3039POPC   NC340187   6.631   9.738   9.464
 3039POPC   PO440188   6.618   9.707   9.164
 3039POPC   GL140189   6.604   9.732   8.864
 3039POPC   GL240190   6.777   9.856   8.864
 3039POPC   C1A40191   6.598   9.759   8.564
 3039POPC   D2A40192   6.688   9.757   8.264
 3039POPC   C3A40193   6.651   9.758   7.964
 3039POPC   C4A40194   6.627   9.727   7.664
 3039POPC   C1B40195   6.792   9.902   8.564
 3039POPC   C2B40196   6.790   9.881   8.264
 3039POPC   C3B40197   6.854   9.893   7.964
 3039POPC   C4B40198   6.786   9.870   7.664
 3040POPC   NC340199   4.278  10.514   9.464
 3040POPC   PO440200   4.340  10.532   9.164
 3040POPC   GL140201   4.355  10.570   8.864
 3040POPC   GL240202   4.474  10.588   8.864
 3040POPC   C1A40203   4.297  10.564   8.564
 3040POPC   D2A40204   4.286  10.532   8.264
 3040POPC   C3A40205   4.343  10.544   7.964
 3040POPC   C4A40206   4.277  10.481   7.664
 3040POPC   C1B40207   4.580  10.671   8.564
 3040POPC   C2B40208   4.509  10.603   8.264
 3040POPC   C3B40209   4.572  10.621   7.964
 3040POPC   C4B40210   4.502  10.607   7.664
 3041POPC   NC340211  17.506  29.933   9.464
 3041POPC   PO440212  17.474  29.943   9.164
 3041POPC   GL140213  17.499  29.948   8.864
 3041POPC   GL240214  17.512  30.065   8.864
 3041POPC   C1A40215  17.469  29.923   8.564
 3041POPC   D2A40216  17.505  29.909   8.264
 3041POPC   C3A40217  17.497  29.921   7.964
 3041POPC   C4A40218  17.489  29.953   7.664
 3041POPC   C1B40219  17.562  30.185   8.564
 3041POPC   C2B40220  17.624  30.155   8.264
 3041POPC   C3B40221  17.616  30.107   7.964
 3041POPC   C4B40222  17.559  30.111   7.664
 3042POPC   NC340223  38.489  19.018   9.464
 3042POPC   PO440224  38.456  19.055   9.164
 3042POPC   GL140225  38.473  19.059   8.864
 3042POPC   GL240226  38.417  18.972   8.864
 3042POPC   C1A40227  38.459  19.020   8.564
 3042POPC   D2A40228  38.482  19.056   8.264
 3042POPC   C3A40229  38.448  19.092   7.964
 3042POPC   C4A40230  38.457  19.080   7.664
 3042POPC   C1B40231  38.296  18.835   8.564
 3042POPC   C2B40232  38.273  18.891   8.264
 3042POPC   C3B40233  38.311  18.855   7.964
 3042POPC   C4B40234  38.346  18.836   7.664
 3043POPC   NC340235  14.394  29.186   9.464
 3043POPC   PO440236  14.366  29.117   9.164
 3043POPC   GL140237  14.449  29.168   8.864
 3043POPC   GL240238  14.429  29.299   8.864
 3043POPC   C1A40239  14.356  29.161   8.564
 3043POPC   D2A40240  14.445  29.102   8.264
 3043POPC   C3A40241  14.392  29.127   7.964
 3043POPC   C4A40242  14.408  29.101   7.664
 3043POPC   C1B40243  14.403  29.353   8.564
 3043POPC   C2B40244  14.347  29.392   8.264
 3043POPC   C3B40245  14.350  29.385   7.964
 3043POPC   C4B40246  14.406  29.404   7.664
 3044POPC   NC340247   1.232  43.107   9.464
 3044POPC   PO440248   1.176  43.124   9.164
 3044POPC   GL140249   1.210  43.114   8.864
 3044POPC   GL240250   1.204  43.255   8.864
 3044POPC   C1A40251   1.180  43.096   8.564
 3044POPC   D2A40252   1.170  43.135   8.264
 3044POPC   C3A40253   1.208  43.142   7.964
 3044POPC   C4A40254   1.239  43.076   7.664
 3044POPC   C1B40255   1.232  43.377   8.564
 3044POPC   C2B40256   1.231  43.403   8.264
 3044POPC   C3B40257   1.188  43.343   7.964
 3044POPC   C4B40258   1.191  43.399   7.664
 3045POPC   NC340259  40.002   2.023   9.464
 3045POPC   PO440260  39.981   2.024   9.164
 3045POPC   GL140261  39.976   2.011   8.864
 3045POPC   GL240262  40.096   1.958   8.864
 3045POPC   C1A40263  40.055   1.942   8.564
 3045POPC   D2A40264  39.979   2.029   8.264
 3045POPC   C3A40265  40.009   2.017   7.964
 3045POPC   C4A40266  39.973   1.970   7.664
 3045POPC   C1B40267  40.217   1.962   8.564
 3045POPC   C2B40268  40.297   1.967   8.264
 3045POPC   C3B40269  40.235   1.945   7.964
 3045POPC   C4B40270  40.227   1.920   7.664
 3046POPC   NC340271  32.239   2.731   9.464
 3046POPC   PO440272  32.235   2.728   9.164
 3046POPC   GL140273  32.224   2.724   8.864
 3046POPC   GL240274  32.212   2.659   8.864
 3046POPC   C1A40275  32.278   2.804   8.564
 3046POPC   D2A40276  32.256   2.720   8.264
 3046POPC   C3A40277  32.283   2.811   7.964
 3046POPC   C4A40278  32.225   2.788   7.664
 3046POPC   C1B40279  32.239   2.526   8.564
 3046POPC   C2B40280  32.192   2.517   8.264
 3046POPC   C3B40281  32.201   2.501   7.964
 3046POPC   C4B40282  32.234   2.494   7.664
 3047POPC   NC340283  25.284  15.927   9.464
 3047POPC   PO440284  25.305  15.968   9.164
 3047POPC   GL140285  25.308  15.933   8.864
 3047POPC   GL240286  25.150  16.029   8.864
 3047POPC   C1A40287  25.255  15.915   8.564
 3047POPC   D2A40288  25.259  15.984   8.264
 3047POPC   C3A40289  25.235  15.927   7.964
 3047POPC   C4A40290  25.273  15.944   7.664
 3047POPC   C1B40291  25.039  16.072   8.564
 3047POPC   C2B40292  25.094  16.100   8.264
 3047POPC   C3B40293  25.024  16.144   7.964
 3047POPC   C4B40294  25.069  16.130   7.664
 3048POPC   NC340295  21.397  32.271   9.464
 3048POPC   PO440296  21.361  32.235   9.164
 3048POPC   GL140297  21.380  32.222   8.864
 3048POPC   GL240298  21.392  32.332   8.864
 3048POPC   C1A40299  21.346  32.235   8.564
 3048POPC   D2A40300  21.426  32.293   8.264
 3048POPC   C3A40301  21.372  32.271   7.964
 3048POPC   C4A40302  21.382  32.295   7.664
 3048POPC   C1B40303  21.489  32.505   8.564
 3048POPC   C2B40304  21.410  32.497   8.264
 3048POPC   C3B40305  21.487  32.526   7.964
 3048POPC   C4B40306  21.482  32.466   7.664
 3049POPC   NC340307   4.300  34.568   9.464
 3049POPC   PO440308   4.313  34.619   9.164
 3049POPC   GL140309   4.337  34.601   8.864
 3049POPC   GL240310   4.367  34.698   8.864
 3049POPC   C1A40311   4.316  34.528   8.564
 3049POPC   D2A40312   4.331  34.576   8.264
 3049POPC   C3A40313   4.275  34.562   7.964
 3049POPC   C4A40314   4.274  34.574   7.664
 3049POPC   C1B40315   4.355  34.875   8.564
 3049POPC   C2B40316   4.382  34.818   8.264
 3049POPC   C3B40317   4.345  34.859   7.964
 3049POPC   C4B40318   4.363  34.811   7.664
 3050POPC   NC340319  43.061  36.937   9.464
 3050POPC   PO440320  43.126  36.932   9.164
 3050POPC   GL140321  43.097  36.948   8.864
 3050POPC   GL240322  43.096  37.021   8.864
 3050POPC   C1A40323  43.110  36.868   8.564
 3050POPC   D2A40324  43.130  36.866   8.264
 3050POPC   C3A40325  43.072  36.939   7.964
 3050POPC   C4A40326  43.105  36.917   7.664
 3050POPC   C1B40327  43.028  37.181   8.564
 3050POPC   C2B40328  43.079  37.191   8.264
 3050POPC   C3B40329  43.054  37.160   7.964
 3050POPC   C4B40330  43.000  37.154   7.664
 3051POPC   NC340331  12.104  39.265   9.464
 3051POPC   PO440332  12.026  39.244   9.164
 3051POPC   GL140333  12.113  39.218   8.864
 3051POPC   GL240334  12.220  39.259   8.864
 3051POPC   C1A40335  12.070  39.202   8.564
 3051POPC   D2A40336  12.048  39.267   8.264
 3051POPC   C3A40337  12.096  39.257   7.964
 3051POPC   C4A40338  12.124  39.212   7.664
 3051POPC   C1B40339  12.300  39.371   8.564
 3051POPC   C2B40340  12.295  39.343   8.264
 3051POPC   C3B40341  12.258  39.367   7.964
 3051POPC   C4B40342  12.324  39.349   7.664
 3052POPC   NC340343   8.987   7.371   9.464
 3052POPC   PO440344   8.982   7.394   9.164
 3052POPC   GL140345   8.935   7.446   8.864
 3052POPC   GL240346   9.013   7.574   8.864
 3052POPC   C1A40347   8.929   7.461   8.564
 3052POPC   D2A40348   8.999   7.378   8.264
 3052POPC   C3A40349   8.948   7.407   7.964
 3052POPC   C4A40350   8.965   7.434   7.664
 3052POPC   C1B40351   9.091   7.673   8.564
 3052POPC   C2B40352   9.048   7.623   8.264
 3052POPC   C3B40353   9.093   7.613   7.964
 3052POPC   C4B40354   9.010   7.627   7.664
 3053POPC   NC340355   6.602  12.091   9.464
 3053POPC   PO440356   6.682  12.068   9.164
 3053POPC   GL140357   6.614  12.069   8.864
 3053POPC   GL240358   6.645  11.928   8.864
 3053POPC   C1A40359   6.597  12.031   8.564
 3053POPC   D2A40360   6.629  12.037   8.264
 3053POPC   C3A40361   6.621  12.052   7.964
 3053POPC   C4A40362   6.691  12.108   7.664
 3053POPC   C1B40363   6.617  11.866   8.564
 3053POPC   C2B40364   6.579  11.840   8.264
 3053POPC   C3B40365   6.644  11.841   7.964
 3053POPC   C4B40366   6.646  11.868   7.664
 3054POPC   NC340367  13.649  15.989   9.464
 3054POPC   PO440368  13.608  16.002   9.164
 3054POPC   GL140369  13.639  15.928   8.864
 3054POPC   GL240370  13.513  16.009   8.864
 3054POPC   C1A40371  13.609  15.923   8.564
 3054POPC   D2A40372  13.624  15.907   8.264
 3054POPC   C3A40373  13.673  15.917   7.964
 3054POPC   C4A40374  13.651  15.955   7.664
 3054POPC   C1B40375  13.422  15.960   8.564
 3054POPC   C2B40376  13.363  15.957   8.264
 3054POPC   C3B40377  13.387  15.942   7.964
 3054POPC   C4B40378  13.375  15.963   7.664
 3055POPC   NC340379   7.408  24.463   9.464
 3055POPC   PO440380   7.398  24.486   9.164
 3055POPC   GL140381   7.432  24.519   8.864
 3055POPC   GL240382   7.397  24.362   8.864
 3055POPC   C1A40383   7.382  24.446   8.564
 3055POPC   D2A40384   7.453  24.529   8.264
 3055POPC   C3A40385   7.462  24.485   7.964
 3055POPC   C4A40386   7.440  24.450   7.664
 3055POPC   C1B40387   7.441  24.246   8.564
 3055POPC   C2B40388   7.435  24.231   8.264
 3055POPC   C3B40389   7.431  24.227   7.964
 3055POPC   C4B40390   7.404  24.214   7.664
 3056POPC   NC340391  43.111  26.848   9.464
 3056POPC   PO440392  43.075  26.830   9.164
 3056POPC   GL140393  43.072  26.772   8.864
 3056POPC   GL240394  42.940  26.876   8.864
 3056POPC   C1A40395  43.113  26.863   8.564
 3056POPC   D2A40396  43.125  26.846   8.264
 3056POPC   C3A40397  43.117  26.774   7.964
 3056POPC   C4A40398  43.070  26.805   7.664
 3056POPC   C1B40399  42.817  26.821   8.564
 3056POPC   C2B40400  42.860  26.893   8.264
 3056POPC   C3B40401  42.878  26.888   7.964
 3056POPC   C4B40402  42.863  26.863   7.664
 3057POPC   NC340403  32.272  19.836   9.464
 3057POPC   PO440404  32.199  19.841   9.164
 3057POPC   GL140405  32.269  19.853   8.864
 3057POPC   GL240406  32.258  19.931   8.864
 3057POPC   C1A40407  32.290  19.865   8.564
 3057POPC   D2A40408  32.211  19.867   8.264
 3057POPC   C3A40409  32.294  19.787   7.964
 3057POPC   C4A40410  32.212  19.852   7.664
 3057POPC   C1B40411  32.161  20.027   8.564
 3057POPC   C2B40412  32.210  20.030   8.264
 3057POPC   C3B40413  32.141  20.090   7.964
 3057POPC   C4B40414  32.143  20.033   7.664
 3058POPC   NC340415   4.354  11.258   9.464
 3058POPC   PO440416   4.344  11.284   9.164
 3058POPC   GL140417   4.343  11.306   8.864
 3058POPC   GL240418   4.360  11.466   8.864
 3058POPC   C1A40419   4.277  11.291   8.564
 3058POPC   D2A40420   4.327  11.279   8.264
 3058POPC   C3A40421   4.279  11.314   7.964
 3058POPC   C4A40422   4.286  11.308   7.664
 3058POPC   C1B40423   4.402  11.584   8.564
 3058POPC   C2B40424   4.392  11.562   8.264
 3058POPC   C3B40425   4.404  11.577   7.964
 3058POPC   C4B40426   4.434  11.494   7.664
 3059POPC   NC340427  31.505   1.185   9.464
 3059POPC   PO440428  31.451   1.178   9.164
 3059POPC   GL140429  31.441   1.166   8.864
 3059POPC   GL240430  31.384   1.051   8.864
 3059POPC   C1A40431  31.474   1.253   8.564
 3059POPC   D2A40432  31.486   1.240   8.264
 3059POPC   C3A40433  31.445   1.189   7.964
 3059POPC   C4A40434  31.468   1.223   7.664
 3059POPC   C1B40435  31.435   0.934   8.564
 3059POPC   C2B40436  31.418   0.948   8.264
 3059POPC   C3B40437  31.375   0.935   7.964
 3059POPC   C4B40438  31.434   0.997   7.664
 3060POPC   NC340439  13.597  35.309   9.464
 3060POPC   PO440440  13.601  35.368   9.164
 3060POPC   GL140441  13.664  35.355   8.864
 3060POPC   GL240442  13.725  35.367   8.864
 3060POPC   C1A40443  13.592  35.373   8.564
 3060POPC   D2A40444  13.640  35.392   8.264
 3060POPC   C3A40445  13.643  35.316   7.964
 3060POPC   C4A40446  13.597  35.388   7.664
 3060POPC   C1B40447  13.827  35.299   8.564
 3060POPC   C2B40448  13.883  35.303   8.264
 3060POPC   C3B40449  13.920  35.361   7.964
 3060POPC   C4B40450  13.896  35.350   7.664
 3061POPC   NC340451  41.510  12.883   9.464
 3061POPC   PO440452  41.566  12.888   9.164
 3061POPC   GL140453  41.532  12.886   8.864
 3061POPC   GL240454  41.613  12.738   8.864
 3061POPC   C1A40455  41.558  12.901   8.564
 3061POPC   D2A40456  41.577  12.847   8.264
 3061POPC   C3A40457  41.569  12.835   7.964
 3061POPC   C4A40458  41.585  12.819   7.664
 3061POPC   C1B40459  41.675  12.590   8.564
 3061POPC   C2B40460  41.673  12.658   8.264
 3061POPC   C3B40461  41.629  12.613   7.964
 3061POPC   C4B40462  41.622  12.564   7.664
 3062POPC   NC340463   5.852  33.838   9.464
 3062POPC   PO440464   5.879  33.819   9.164
 3062POPC   GL140465   5.892  33.767   8.864
 3062POPC   GL240466   5.765  33.785   8.864
 3062POPC   C1A40467   5.884  33.805   8.564
 3062POPC   D2A40468   5.873  33.849   8.264
 3062POPC   C3A40469   5.833  33.834   7.964
 3062POPC   C4A40470   5.884  33.794   7.664
 3062POPC   C1B40471   5.639  33.748   8.564
 3062POPC   C2B40472   5.661  33.737   8.264
 3062POPC   C3B40473   5.654  33.739   7.964
 3062POPC   C4B40474   5.603  33.760   7.664
 3063POPC   NC340475  44.645  42.337   9.464
 3063POPC   PO440476  44.621  42.329   9.164
 3063POPC   GL140477  44.640  42.319   8.864
 3063POPC   GL240478  44.497  42.298   8.864
 3063POPC   C1A40479  44.693  42.295   8.564
 3063POPC   D2A40480  44.694  42.344   8.264
 3063POPC   C3A40481  44.689  42.324   7.964
 3063POPC   C4A40482  44.613  42.297   7.664
 3063POPC   C1B40483  44.433  42.323   8.564
 3063POPC   C2B40484  44.462  42.295   8.264
 3063POPC   C3B40485  44.458  42.241   7.964
 3063POPC   C4B40486  44.389  42.247   7.664
 3064POPC   NC340487  36.168  31.434   9.464
 3064POPC   PO440488  36.085  31.503   9.164
 3064POPC   GL140489  36.080  31.440   8.864
 3064POPC   GL240490  36.229  31.468   8.864
 3064POPC   C1A40491  36.079  31.509   8.564
 3064POPC   D2A40492  36.137  31.428   8.264
 3064POPC   C3A40493  36.087  31.494   7.964
 3064POPC   C4A40494  36.096  31.436   7.664
 3064POPC   C1B40495  36.325  31.412   8.564
 3064POPC   C2B40496  36.316  31.384   8.264
 3064POPC   C3B40497  36.321  31.330   7.964
 3064POPC   C4B40498  36.398  31.394   7.664
 3065POPC   NC340499   0.458   8.172   9.464
 3065POPC   PO440500   0.480   8.173   9.164
 3065POPC   GL140501   0.471   8.242   8.864
 3065POPC   GL240502   0.517   8.344   8.864
 3065POPC   C1A40503   0.405   8.207   8.564
 3065POPC   D2A40504   0.443   8.195   8.264
 3065POPC   C3A40505   0.409   8.194   7.964
 3065POPC   C4A40506   0.442   8.173   7.664
 3065POPC   C1B40507   0.523   8.412   8.564
 3065POPC   C2B40508   0.547   8.475   8.264
 3065POPC   C3B40509   0.552   8.385   7.964
 3065POPC   C4B40510   0.545   8.474   7.664
 3066POPC   NC340511  13.638  40.753   9.464
 3066POPC   PO440512  13.607  40.777   9.164
 3066POPC   GL140513  13.622  40.830   8.864
 3066POPC   GL240514  13.633  40.869   8.864
 3066POPC   C1A40515  13.633  40.820   8.564
 3066POPC   D2A40516  13.581  40.820   8.264
 3066POPC   C3A40517  13.605  40.757   7.964
 3066POPC   C4A40518  13.621  40.780   7.664
 3066POPC   C1B40519  13.698  41.029   8.564
 3066POPC   C2B40520  13.752  41.036   8.264
 3066POPC   C3B40521  13.686  41.005   7.964
 3066POPC   C4B40522  13.690  41.038   7.664
 3067POPC   NC340523   1.985   1.957   9.464
 3067POPC   PO440524   1.982   1.973   9.164
 3067POPC   GL140525   1.993   1.945   8.864
 3067POPC   GL240526   2.027   2.067   8.864
 3067POPC   C1A40527   1.960   1.981   8.564
 3067POPC   D2A40528   1.963   2.030   8.264
 3067POPC   C3A40529   1.944   1.995   7.964
 3067POPC   C4A40530   1.951   1.954   7.664
 3067POPC   C1B40531   2.065   2.163   8.564
 3067POPC   C2B40532   2.088   2.181   8.264
 3067POPC   C3B40533   2.116   2.207   7.964
 3067POPC   C4B40534   2.098   2.166   7.664
 3068POPC   NC340535  31.521  15.218   9.464
 3068POPC   PO440536  31.428  15.171   9.164
 3068POPC   GL140537  31.498  15.150   8.864
 3068POPC   GL240538  31.477  15.055   8.864
 3068POPC   C1A40539  31.436  15.191   8.564
 3068POPC   D2A40540  31.464  15.197   8.264
 3068POPC   C3A40541  31.498  15.142   7.964
 3068POPC   C4A40542  31.450  15.191   7.664
 3068POPC   C1B40543  31.554  14.922   8.564
 3068POPC   C2B40544  31.578  14.901   8.264
 3068POPC   C3B40545  31.556  14.923   7.964
 3068POPC   C4B40546  31.600  14.963   7.664
 3069POPC   NC340547  19.816  19.818   9.464
 3069POPC   PO440548  19.851  19.787   9.164
 3069POPC   GL140549  19.808  19.858   8.864
 3069POPC   GL240550  19.839  19.970   8.864
 3069POPC   C1A40551  19.856  19.791   8.564
 3069POPC   D2A40552  19.807  19.789   8.264
 3069POPC   C3A40553  19.874  19.870   7.964
 3069POPC   C4A40554  19.824  19.834   7.664
 3069POPC   C1B40555  19.742  20.105   8.564
 3069POPC   C2B40556  19.831  20.086   8.264
 3069POPC   C3B40557  19.831  20.105   7.964
 3069POPC   C4B40558  19.778  20.041   7.664
 3070POPC   NC340559  12.067   7.448   9.464
 3070POPC   PO440560  12.113   7.377   9.164
 3070POPC   GL140561  12.114   7.430   8.864
 3070POPC   GL240562  11.912   7.448   8.864
 3070POPC   C1A40563  12.086   7.452   8.564
 3070POPC   D2A40564  12.125   7.373   8.264
 3070POPC   C3A40565  12.096   7.423   7.964
 3070POPC   C4A40566  12.094   7.395   7.664
 3070POPC   C1B40567  11.830   7.350   8.564
 3070POPC   C2B40568  11.799   7.359   8.264
 3070POPC   C3B40569  11.870   7.360   7.964
 3070POPC   C4B40570  11.876   7.370   7.664
 3071POPC   NC340571  17.504  13.666   9.464
 3071POPC   PO440572  17.492  13.661   9.164
 3071POPC   GL140573  17.491  13.603   8.864
 3071POPC   GL240574  17.490  13.751   8.864
 3071POPC   C1A40575  17.501  13.651   8.564
 3071POPC   D2A40576  17.498  13.606   8.264
 3071POPC   C3A40577  17.537  13.631   7.964
 3071POPC   C4A40578  17.502  13.670   7.664
 3071POPC   C1B40579  17.535  13.882   8.564
 3071POPC   C2B40580  17.543  13.886   8.264
 3071POPC   C3B40581  17.481  13.864   7.964
 3071POPC   C4B40582  17.494  13.836   7.664
 3072POPC   NC340583   1.953   6.602   9.464
 3072POPC   PO440584   1.955   6.658   9.164
 3072POPC   GL140585   1.991   6.610   8.864
 3072POPC   GL240586   1.917   6.570   8.864
 3072POPC   C1A40587   1.982   6.691   8.564
 3072POPC   D2A40588   2.020   6.662   8.264
 3072POPC   C3A40589   2.014   6.600   7.964
 3072POPC   C4A40590   1.943   6.689   7.664
 3072POPC   C1B40591   1.874   6.471   8.564
 3072POPC   C2B40592   1.864   6.445   8.264
 3072POPC   C3B40593   1.880   6.482   7.964
 3072POPC   C4B40594   1.807   6.456   7.664
 3073POPC   NC340595   4.310  22.138   9.464
 3073POPC   PO440596   4.270  22.188   9.164
 3073POPC   GL140597   4.315  22.134   8.864
 3073POPC   GL240598   4.455  22.270   8.864
 3073POPC   C1A40599   4.316  22.198   8.564
 3073POPC   D2A40600   4.306  22.144   8.264
 3073POPC   C3A40601   4.322  22.126   7.964
 3073POPC   C4A40602   4.305  22.181   7.664
 3073POPC   C1B40603   4.514  22.295   8.564
 3073POPC   C2B40604   4.532  22.299   8.264
 3073POPC   C3B40605   4.560  22.351   7.964
 3073POPC   C4B40606   4.483  22.307   7.664
 3074POPC   NC340607   1.182  26.848   9.464
 3074POPC   PO440608   1.218  26.772   9.164
 3074POPC   GL140609   1.190  26.799   8.864
 3074POPC   GL240610   1.293  26.721   8.864
 3074POPC   C1A40611   1.211  26.823   8.564
 3074POPC   D2A40612   1.222  26.806   8.264
 3074POPC   C3A40613   1.257  26.846   7.964
 3074POPC   C4A40614   1.243  26.838   7.664
 3074POPC   C1B40615   1.284  26.614   8.564
 3074POPC   C2B40616   1.373  26.566   8.264
 3074POPC   C3B40617   1.370  26.566   7.964
 3074POPC   C4B40618   1.362  26.612   7.664
 3075POPC   NC340619  37.705  23.674   9.464
 3075POPC   PO440620  37.660  23.745   9.164
 3075POPC   GL140621  37.696  23.691   8.864
 3075POPC   GL240622  37.547  23.813   8.864
 3075POPC   C1A40623  37.728  23.713   8.564
 3075POPC   D2A40624  37.721  23.707   8.264
 3075POPC   C3A40625  37.671  23.733   7.964
 3075POPC   C4A40626  37.664  23.707   7.664
 3075POPC   C1B40627  37.504  23.881   8.564
 3075POPC   C2B40628  37.523  23.905   8.264
 3075POPC   C3B40629  37.449  23.910   7.964
 3075POPC   C4B40630  37.455  23.885   7.664
 3076POPC   NC340631  33.067  44.625   9.464
 3076POPC   PO440632  32.978  44.630   9.164
 3076POPC   GL140633  33.041  44.653   8.864
 3076POPC   GL240634  32.928  44.765   8.864
 3076POPC   C1A40635  33.031  44.698   8.564
 3076POPC   D2A40636  33.024  44.675   8.264
 3076POPC   C3A40637  32.987  44.676   7.964
 3076POPC   C4A40638  32.999  44.672   7.664
 3076POPC   C1B40639  32.782  44.787   8.564
 3076POPC   C2B40640  32.785  44.789   8.264
 3076POPC   C3B40641  32.765  44.749   7.964
 3076POPC   C4B40642  32.794  44.747   7.664
 3077POPC   NC340643  32.256  15.225   9.464
 3077POPC   PO440644  32.239  15.193   9.164
 3077POPC   GL140645  32.204  15.192   8.864
 3077POPC   GL240646  32.157  15.246   8.864
 3077POPC   C1A40647  32.288  15.148   8.564
 3077POPC   D2A40648  32.287  15.151   8.264
 3077POPC   C3A40649  32.219  15.136   7.964
 3077POPC   C4A40650  32.202  15.199   7.664
 3077POPC   C1B40651  31.967  15.201   8.564
 3077POPC   C2B40652  31.963  15.258   8.264
 3077POPC   C3B40653  32.049  15.186   7.964
 3077POPC   C4B40654  32.007  15.228   7.664
 3078POPC   NC340655  43.877  43.146   9.464
 3078POPC   PO440656  43.859  43.148   9.164
 3078POPC   GL140657  43.892  43.078   8.864
 3078POPC   GL240658  43.997  43.180   8.864
 3078POPC   C1A40659  43.844  43.067   8.564
 3078POPC   D2A40660  43.885  43.084   8.264
 3078POPC   C3A40661  43.920  43.105   7.964
 3078POPC   C4A40662  43.919  43.067   7.664
 3078POPC   C1B40663  44.008  43.323   8.564
 3078POPC   C2B40664  44.002  43.334   8.264
 3078POPC   C3B40665  44.038  43.320   7.964
 3078POPC   C4B40666  44.070  43.272   7.664
 3079POPC   NC340667  14.363   6.672   9.464
 3079POPC   PO440668  14.416   6.611   9.164
 3079POPC   GL140669  14.453   6.652   8.864
 3079POPC   GL240670  14.341   6.791   8.864
 3079POPC   C1A40671  14.434   6.606   8.564
 3079POPC   D2A40672  14.363   6.621   8.264
 3079POPC   C3A40673  14.406   6.674   7.964
 3079POPC   C4A40674  14.442   6.595   7.664
 3079POPC   C1B40675  14.325   6.894   8.564
 3079POPC   C2B40676  14.371   6.884   8.264
 3079POPC   C3B40677  14.358   6.836   7.964
 3079POPC   C4B40678  14.364   6.862   7.664
 3080POPC   NC340679   4.361  35.367   9.464
 3080POPC   PO440680   4.349  35.326   9.164
 3080POPC   GL140681   4.301  35.374   8.864
 3080POPC   GL240682   4.292  35.184   8.864
 3080POPC   C1A40683   4.355  35.323   8.564
 3080POPC   D2A40684   4.279  35.351   8.264
 3080POPC   C3A40685   4.351  35.314   7.964
 3080POPC   C4A40686   4.287  35.359   7.664
 3080POPC   C1B40687   4.242  35.116   8.564
 3080POPC   C2B40688   4.192  35.163   8.264
 3080POPC   C3B40689   4.189  35.112   7.964
 3080POPC   C4B40690   4.277  35.092   7.664
 3081POPC   NC340691  25.247  43.093   9.464
 3081POPC   PO440692  25.277  43.151   9.164
 3081POPC   GL140693  25.258  43.159   8.864
 3081POPC   GL240694  25.146  43.252   8.864
 3081POPC   C1A40695  25.282  43.147   8.564
 3081POPC   D2A40696  25.280  43.111   8.264
 3081POPC   C3A40697  25.311  43.142   7.964
 3081POPC   C4A40698  25.269  43.080   7.664
 3081POPC   C1B40699  25.081  43.329   8.564
 3081POPC   C2B40700  25.076  43.350   8.264
 3081POPC   C3B40701  25.089  43.279   7.964
 3081POPC   C4B40702  25.069  43.279   7.664
 3082POPC   NC340703   5.073  20.647   9.464
 3082POPC   PO440704   5.096  20.596   9.164
 3082POPC   GL140705   5.141  20.654   8.864
 3082POPC   GL240706   5.185  20.694   8.864
 3082POPC   C1A40707   5.139  20.597   8.564
 3082POPC   D2A40708   5.077  20.622   8.264
 3082POPC   C3A40709   5.141  20.647   7.964
 3082POPC   C4A40710   5.058  20.655   7.664
 3082POPC   C1B40711   5.235  20.775   8.564
 3082POPC   C2B40712   5.259  20.813   8.264
 3082POPC   C3B40713   5.205  20.835   7.964
 3082POPC   C4B40714   5.173  20.805   7.664
 3083POPC   NC340715  11.335  44.655   9.464
 3083POPC   PO440716  11.322  44.706   9.164
 3083POPC   GL140717  11.332  44.641   8.864
 3083POPC   GL240718  11.366  44.495   8.864
 3083POPC   C1A40719  11.321  44.663   8.564
 3083POPC   D2A40720  11.340  44.656   8.264
 3083POPC   C3A40721  11.336  44.648   7.964
 3083POPC   C4A40722  11.258  44.672   7.664
 3083POPC   C1B40723  11.356  44.398   8.564
 3083POPC   C2B40724  11.382  44.461   8.264
 3083POPC   C3B40725  11.295  44.419   7.964
 3083POPC   C4B40726  11.315  44.420   7.664
 3084POPC   NC340727  43.067   2.815   9.464
 3084POPC   PO440728  43.102   2.779   9.164
 3084POPC   GL140729  43.125   2.754   8.864
 3084POPC   GL240730  43.261   2.719   8.864
 3084POPC   C1A40731  43.144   2.810   8.564
 3084POPC   D2A40732  43.111   2.794   8.264
 3084POPC   C3A40733  43.157   2.774   7.964
 3084POPC   C4A40734  43.141   2.772   7.664
 3084POPC   C1B40735  43.312   2.697   8.564
 3084POPC   C2B40736  43.388   2.724   8.264
 3084POPC   C3B40737  43.370   2.744   7.964
 3084POPC   C4B40738  43.331   2.764   7.664
 3085POPC   NC340739   3.575  10.573   9.464
 3085POPC   PO440740   3.565  10.527   9.164
 3085POPC   GL140741   3.590  10.573   8.864
 3085POPC   GL240742   3.663  10.586   8.864
 3085POPC   C1A40743   3.567  10.516   8.564
 3085POPC   D2A40744   3.520  10.553   8.264
 3085POPC   C3A40745   3.565  10.549   7.964
 3085POPC   C4A40746   3.500  10.562   7.664
 3085POPC   C1B40747   3.678  10.664   8.564
 3085POPC   C2B40748   3.700  10.729   8.264
 3085POPC   C3B40749   3.727  10.691   7.964
 3085POPC   C4B40750   3.743  10.663   7.664
 3086POPC   NC340751  26.819  17.494   9.464
 3086POPC   PO440752  26.775  17.554   9.164
 3086POPC   GL140753  26.824  17.526   8.864
 3086POPC   GL240754  26.796  17.640   8.864
 3086POPC   C1A40755  26.803  17.472   8.564
 3086POPC   D2A40756  26.854  17.522   8.264
 3086POPC   C3A40757  26.820  17.532   7.964
 3086POPC   C4A40758  26.772  17.551   7.664
 3086POPC   C1B40759  26.898  17.798   8.564
 3086POPC   C2B40760  26.888  17.740   8.264
 3086POPC   C3B40761  26.842  17.717   7.964
 3086POPC   C4B40762  26.862  17.788   7.664
 3087POPC   NC340763  19.801  17.496   9.464
 3087POPC   PO440764  19.871  17.500   9.164
 3087POPC   GL140765  19.856  17.549   8.864
 3087POPC   GL240766  19.772  17.610   8.864
 3087POPC   C1A40767  19.829  17.554   8.564
 3087POPC   D2A40768  19.884  17.553   8.264
 3087POPC   C3A40769  19.884  17.486   7.964
 3087POPC   C4A40770  19.789  17.535   7.664
 3087POPC   C1B40771  19.646  17.714   8.564
 3087POPC   C2B40772  19.677  17.693   8.264
 3087POPC   C3B40773  19.685  17.668   7.964
 3087POPC   C4B40774  19.680  17.665   7.664
 3088POPC   NC340775   0.477  40.056   9.464
 3088POPC   PO440776   0.404  39.992   9.164
 3088POPC   GL140777   0.456  40.048   8.864
 3088POPC   GL240778   0.546  39.899   8.864
 3088POPC   C1A40779   0.429  39.969   8.564
 3088POPC   D2A40780   0.458  40.030   8.264
 3088POPC   C3A40781   0.424  40.008   7.964
 3088POPC   C4A40782   0.485  39.970   7.664
 3088POPC   C1B40783   0.650  39.824   8.564
 3088POPC   C2B40784   0.609  39.879   8.264
 3088POPC   C3B40785   0.625  39.885   7.964
 3088POPC   C4B40786   0.661  39.894   7.664
 3089POPC   NC340787  22.921  15.908   9.464
 3089POPC   PO440788  22.895  15.999   9.164
 3089POPC   GL140789  22.932  15.947   8.864
 3089POPC   GL240790  22.949  15.855   8.864
 3089POPC   C1A40791  22.964  15.993   8.564
 3089POPC   D2A40792  22.925  15.942   8.264
 3089POPC   C3A40793  22.936  15.996   7.964
 3089POPC   C4A40794  22.933  15.917   7.664
 3089POPC   C1B40795  22.901  15.673   8.564
 3089POPC   C2B40796  22.979  15.745   8.264
 3089POPC   C3B40797  22.987  15.753   7.964
 3089POPC   C4B40798  22.898  15.688   7.664
 3090POPC   NC340799   8.200  12.062   9.464
 3090POPC   PO440800   8.237  12.057   9.164
 3090POPC   GL140801   8.150  12.109   8.864
 3090POPC   GL240802   8.171  12.129   8.864
 3090POPC   C1A40803   8.160  12.126   8.564
 3090POPC   D2A40804   8.197  12.122   8.264
 3090POPC   C3A40805   8.190  12.098   7.964
 3090POPC   C4A40806   8.173  12.064   7.664
 3090POPC   C1B40807   8.055  12.284   8.564
 3090POPC   C2B40808   8.063  12.253   8.264
 3090POPC   C3B40809   8.059  12.320   7.964
 3090POPC   C4B40810   8.009  12.317   7.664
 3091POPC   NC340811   6.599  36.894   9.464
 3091POPC   PO440812   6.667  36.936   9.164
 3091POPC   GL140813   6.666  36.937   8.864
 3091POPC   GL240814   6.583  36.746   8.864
 3091POPC   C1A40815   6.659  36.947   8.564
 3091POPC   D2A40816   6.604  36.952   8.264
 3091POPC   C3A40817   6.600  36.865   7.964
 3091POPC   C4A40818   6.656  36.944   7.664
 3091POPC   C1B40819   6.566  36.703   8.564
 3091POPC   C2B40820   6.579  36.670   8.264
 3091POPC   C3B40821   6.540  36.620   7.964
 3091POPC   C4B40822   6.572  36.691   7.664
 3092POPC   NC340823  20.575  23.716   9.464
 3092POPC   PO440824  20.645  23.719   9.164
 3092POPC   GL140825  20.606  23.679   8.864
 3092POPC   GL240826  20.553  23.816   8.864
 3092POPC   C1A40827  20.588  23.670   8.564
 3092POPC   D2A40828  20.589  23.675   8.264
 3092POPC   C3A40829  20.569  23.719   7.964
 3092POPC   C4A40830  20.610  23.730   7.664
 3092POPC   C1B40831  20.547  23.953   8.564
 3092POPC   C2B40832  20.602  24.010   8.264
 3092POPC   C3B40833  20.609  23.969   7.964
 3092POPC   C4B40834  20.551  23.995   7.664
 3093POPC   NC340835  12.031  43.135   9.464
 3093POPC   PO440836  12.046  43.067   9.164
 3093POPC   GL140837  12.094  43.064   8.864
 3093POPC   GL240838  12.057  43.260   8.864
 3093POPC   C1A40839  12.118  43.140   8.564
 3093POPC   D2A40840  12.103  43.112   8.264
 3093POPC   C3A40841  12.052  43.082   7.964
 3093POPC   C4A40842  12.113  43.112   7.664
 3093POPC   C1B40843  12.116  43.328   8.564
 3093POPC   C2B40844  12.092  43.329   8.264
 3093POPC   C3B40845  12.146  43.403   7.964
 3093POPC   C4B40846  12.089  43.313   7.664
 3094POPC   NC340847  10.548  40.772   9.464
 3094POPC   PO440848  10.543  40.775   9.164
 3094POPC   GL140849  10.567  40.740   8.864
 3094POPC   GL240850  10.454  40.682   8.864
 3094POPC   C1A40851  10.524  40.757   8.564
 3094POPC   D2A40852  10.488  40.823   8.264
 3094POPC   C3A40853  10.528  40.795   7.964
 3094POPC   C4A40854  10.515  40.798   7.664
 3094POPC   C1B40855  10.358  40.595   8.564
 3094POPC   C2B40856  10.316  40.576   8.264
 3094POPC   C3B40857  10.404  40.611   7.964
 3094POPC   C4B40858  10.402  40.565   7.664
 3095POPC   NC340859  35.371  43.117   9.464
 3095POPC   PO440860  35.377  43.079   9.164
 3095POPC   GL140861  35.316  43.096   8.864
 3095POPC   GL240862  35.186  43.105   8.864
 3095POPC   C1A40863  35.331  43.143   8.564
 3095POPC   D2A40864  35.371  43.066   8.264
 3095POPC   C3A40865  35.315  43.083   7.964
 3095POPC   C4A40866  35.368  43.064   7.664
 3095POPC   C1B40867  35.104  43.146   8.564
 3095POPC   C2B40868  35.073  43.203   8.264
 3095POPC   C3B40869  35.120  43.141   7.964
 3095POPC   C4B40870  35.123  43.186   7.664
 3096POPC   NC340871   5.092   7.374   9.464
 3096POPC   PO440872   5.064   7.441   9.164
 3096POPC   GL140873   5.058   7.418   8.864
 3096POPC   GL240874   5.190   7.352   8.864
 3096POPC   C1A40875   5.071   7.439   8.564
 3096POPC   D2A40876   5.124   7.433   8.264
 3096POPC   C3A40877   5.059   7.375   7.964
 3096POPC   C4A40878   5.139   7.425   7.664
 3096POPC   C1B40879   5.232   7.213   8.564
 3096POPC   C2B40880   5.306   7.227   8.264
 3096POPC   C3B40881   5.230   7.250   7.964
 3096POPC   C4B40882   5.239   7.255   7.664
 3097POPC   NC340883  41.528  25.277   9.464
 3097POPC   PO440884  41.607  25.232   9.164
 3097POPC   GL140885  41.573  25.217   8.864
 3097POPC   GL240886  41.539  25.379   8.864
 3097POPC   C1A40887  41.540  25.225   8.564
 3097POPC   D2A40888  41.594  25.263   8.264
 3097POPC   C3A40889  41.535  25.222   7.964
 3097POPC   C4A40890  41.590  25.242   7.664
 3097POPC   C1B40891  41.526  25.548   8.564
 3097POPC   C2B40892  41.455  25.502   8.264
 3097POPC   C3B40893  41.444  25.475   7.964
 3097POPC   C4B40894  41.484  25.455   7.664
 3098POPC   NC340895   9.750  43.122   9.464
 3098POPC   PO440896   9.778  43.084   9.164
 3098POPC   GL140897   9.744  43.080   8.864
 3098POPC   GL240898   9.623  43.141   8.864
 3098POPC   C1A40899   9.759  43.094   8.564
 3098POPC   D2A40900   9.756  43.151   8.264
 3098POPC   C3A40901   9.789  43.129   7.964
 3098POPC   C4A40902   9.733  43.116   7.664
 3098POPC   C1B40903   9.558  43.309   8.564
 3098POPC   C2B40904   9.576  43.253   8.264
 3098POPC   C3B40905   9.567  43.241   7.964
 3098POPC   C4B40906   9.551  43.257   7.664
 3099POPC   NC340907  27.630  27.595   9.464
 3099POPC   PO440908  27.567  27.605   9.164
 3099POPC   GL140909  27.558  27.641   8.864
 3099POPC   GL240910  27.655  27.467   8.864
 3099POPC   C1A40911  27.588  27.544   8.564
 3099POPC   D2A40912  27.589  27.639   8.264
 3099POPC   C3A40913  27.629  27.604   7.964
 3099POPC   C4A40914  27.576  27.618   7.664
 3099POPC   C1B40915  27.744  27.416   8.564
 3099POPC   C2B40916  27.750  27.355   8.264
 3099POPC   C3B40917  27.780  27.389   7.964
 3099POPC   C4B40918  27.727  27.410   7.664
 3100POPC   NC340919  36.135   2.038   9.464
 3100POPC   PO440920  36.177   1.948   9.164
 3100POPC   GL140921  36.088   2.004   8.864
 3100POPC   GL240922  36.036   1.997   8.864
 3100POPC   C1A40923  36.138   1.941   8.564
 3100POPC   D2A40924  36.123   2.028   8.264
 3100POPC   C3A40925  36.152   1.958   7.964
 3100POPC   C4A40926  36.131   1.987   7.664
 3100POPC   C1B40927  35.885   2.072   8.564
 3100POPC   C2B40928  35.881   2.060   8.264
 3100POPC   C3B40929  35.881   2.066   7.964
 3100POPC   C4B40930  35.931   2.109   7.664
 3101POPC   NC340931  37.712  39.203   9.464
 3101POPC   PO440932  37.644  39.200   9.164
 3101POPC   GL140933  37.638  39.191   8.864
 3101POPC   GL240934  37.678  39.141   8.864
 3101POPC   C1A40935  37.666  39.257   8.564
 3101POPC   D2A40936  37.727  39.211   8.264
 3101POPC   C3A40937  37.720  39.245   7.964
 3101POPC   C4A40938  37.638  39.203   7.664
 3101POPC   C1B40939  37.633  39.025   8.564
 3101POPC   C2B40940  37.604  38.959   8.264
 3101POPC   C3B40941  37.640  38.978   7.964
 3101POPC   C4B40942  37.599  38.988   7.664
 3102POPC   NC340943  35.359  33.821   9.464
 3102POPC   PO440944  35.390  33.819   9.164
 3102POPC   GL140945  35.344  33.792   8.864
 3102POPC   GL240946  35.417  33.900   8.864
 3102POPC   C1A40947  35.314  33.825   8.564
 3102POPC   D2A40948  35.368  33.773   8.264
 3102POPC   C3A40949  35.308  33.818   7.964
 3102POPC   C4A40950  35.355  33.811   7.664
 3102POPC   C1B40951  35.621  33.922   8.564
 3102POPC   C2B40952  35.613  33.862   8.264
 3102POPC   C3B40953  35.531  33.866   7.964
 3102POPC   C4B40954  35.534  33.872   7.664
 3103POPC   NC340955  27.550  19.826   9.464
 3103POPC   PO440956  27.580  19.817   9.164
 3103POPC   GL140957  27.629  19.787   8.864
 3103POPC   GL240958  27.613  19.718   8.864
 3103POPC   C1A40959  27.606  19.806   8.564
 3103POPC   D2A40960  27.586  19.832   8.264
 3103POPC   C3A40961  27.623  19.848   7.964
 3103POPC   C4A40962  27.606  19.847   7.664
 3103POPC   C1B40963  27.675  19.614   8.564
 3103POPC   C2B40964  27.738  19.610   8.264
 3103POPC   C3B40965  27.691  19.593   7.964
 3103POPC   C4B40966  27.692  19.629   7.664
 3104POPC   NC340967   8.966  11.328   9.464
 3104POPC   PO440968   8.997  11.288   9.164
 3104POPC   GL140969   9.008  11.339   8.864
 3104POPC   GL240970   8.872  11.304   8.864
 3104POPC   C1A40971   8.944  11.322   8.564
 3104POPC   D2A40972   9.015  11.336   8.264
 3104POPC   C3A40973   8.931  11.315   7.964
 3104POPC   C4A40974   8.925  11.325   7.664
 3104POPC   C1B40975   8.719  11.268   8.564
 3104POPC   C2B40976   8.766  11.263   8.264
 3104POPC   C3B40977   8.706  11.263   7.964
 3104POPC   C4B40978   8.754  11.286   7.664
 3105POPC   NC340979  11.289   2.033   9.464
 3105POPC   PO440980  11.342   2.004   9.164
 3105POPC   GL140981  11.298   1.971   8.864
 3105POPC   GL240982  11.328   2.160   8.864
 3105POPC   C1A40983  11.262   1.973   8.564
 3105POPC   D2A40984  11.268   1.981   8.264
 3105POPC   C3A40985  11.331   2.011   7.964
 3105POPC   C4A40986  11.343   1.991   7.664
 3105POPC   C1B40987  11.338   2.259   8.564
 3105POPC   C2B40988  11.305   2.209   8.264
 3105POPC   C3B40989  11.319   2.200   7.964
 3105POPC   C4B40990  11.286   2.218   7.664
 3106POPC   NC340991  38.447   5.864   9.464
 3106POPC   PO440992  38.499   5.847   9.164
 3106POPC   GL140993  38.474   5.823   8.864
 3106POPC   GL240994  38.592   5.853   8.864
 3106POPC   C1A40995  38.432   5.863   8.564
 3106POPC   D2A40996  38.497   5.869   8.264
 3106POPC   C3A40997  38.495   5.874   7.964
 3106POPC   C4A40998  38.456   5.834   7.664
 3106POPC   C1B40999  38.683   5.880   8.564
 3106POPC   C2B41000  38.737   5.846   8.264
 3106POPC   C3B41001  38.719   5.834   7.964
 3106POPC   C4B41002  38.684   5.872   7.664
 3107POPC   NC341003  16.759  19.821   9.464
 3107POPC   PO441004  16.709  19.850   9.164
 3107POPC   GL141005  16.766  19.799   8.864
 3107POPC   GL241006  16.814  19.895   8.864
 3107POPC   C1A41007  16.766  19.876   8.564
 3107POPC   D2A41008  16.780  19.829   8.264
 3107POPC   C3A41009  16.735  19.868   7.964
 3107POPC   C4A41010  16.761  19.807   7.664
 3107POPC   C1B41011  16.957  19.941   8.564
 3107POPC   C2B41012  16.935  19.978   8.264
 3107POPC   C3B41013  16.900  20.038   7.964
 3107POPC   C4B41014  16.960  19.977   7.664
 3108POPC   NC341015  41.545   2.764   9.464
 3108POPC   PO441016  41.579   2.780   9.164
 3108POPC   GL141017  41.538   2.738   8.864
 3108POPC   GL241018  41.498   2.693   8.864
 3108POPC   C1A41019  41.574   2.770   8.564
 3108POPC   D2A41020  41.564   2.729   8.264
 3108POPC   C3A41021  41.549   2.746   7.964
 3108POPC   C4A41022  41.531   2.764   7.664
 3108POPC   C1B41023  41.486   2.541   8.564
 3108POPC   C2B41024  41.475   2.558   8.264
 3108POPC   C3B41025  41.468   2.497   7.964
 3108POPC   C4B41026  41.508   2.497   7.664
 3109POPC   NC341027   8.993   2.751   9.464
 3109POPC   PO441028   8.969   2.752   9.164
 3109POPC   GL141029   8.924   2.771   8.864
 3109POPC   GL241030   8.808   2.767   8.864
 3109POPC   C1A41031   8.942   2.803   8.564
 3109POPC   D2A41032   8.960   2.752   8.264
 3109POPC   C3A41033   8.958   2.716   7.964
 3109POPC   C4A41034   9.012   2.788   7.664
 3109POPC   C1B41035   8.677   2.748   8.564
 3109POPC   C2B41036   8.728   2.721   8.264
 3109POPC   C3B41037   8.695   2.765   7.964
 3109POPC   C4B41038   8.769   2.702   7.664
 3110POPC   NC341039  32.980  12.036   9.464
 3110POPC   PO441040  33.052  12.088   9.164
 3110POPC   GL141041  33.025  12.088   8.864
 3110POPC   GL241042  33.086  11.970   8.864
 3110POPC   C1A41043  32.983  12.051   8.564
 3110POPC   D2A41044  33.066  12.124   8.264
 3110POPC   C3A41045  33.073  12.070   7.964
 3110POPC   C4A41046  33.013  12.122   7.664
 3110POPC   C1B41047  33.046  11.866   8.564
 3110POPC   C2B41048  33.067  11.874   8.264
 3110POPC   C3B41049  33.091  11.870   7.964
 3110POPC   C4B41050  33.096  11.839   7.664
 3111POPC   NC341051  33.754  41.512   9.464
 3111POPC   PO441052  33.848  41.528   9.164
 3111POPC   GL141053  33.825  41.526   8.864
 3111POPC   GL241054  33.706  41.652   8.864
 3111POPC   C1A41055  33.758  41.603   8.564
 3111POPC   D2A41056  33.848  41.604   8.264
 3111POPC   C3A41057  33.806  41.554   7.964
 3111POPC   C4A41058  33.807  41.531   7.664
 3111POPC   C1B41059  33.583  41.624   8.564
 3111POPC   C2B41060  33.604  41.712   8.264
 3111POPC   C3B41061  33.551  41.716   7.964
 3111POPC   C4B41062  33.600  41.713   7.664
 3112POPC   NC341063  26.034  33.064   9.464
 3112POPC   PO441064  26.012  33.030   9.164
 3112POPC   GL141065  26.016  33.021   8.864
 3112POPC   GL241066  26.054  32.907   8.864
 3112POPC   C1A41067  26.066  33.063   8.564
 3112POPC   D2A41068  26.012  32.975   8.264
 3112POPC   C3A41069  26.077  33.037   7.964
 3112POPC   C4A41070  26.046  33.037   7.664
 3112POPC   C1B41071  26.064  32.819   8.564
 3112POPC   C2B41072  26.079  32.748   8.264
 3112POPC   C3B41073  26.061  32.780   7.964
 3112POPC   C4B41074  26.111  32.817   7.664
 3113POPC   NC341075   8.952  20.607   9.464
 3113POPC   PO441076   8.977  20.632   9.164
 3113POPC   GL141077   9.022  20.631   8.864
 3113POPC   GL241078   9.007  20.528   8.864
 3113POPC   C1A41079   8.924  20.650   8.564
 3113POPC   D2A41080   8.984  20.633   8.264
 3113POPC   C3A41081   8.959  20.624   7.964
 3113POPC   C4A41082   8.941  20.631   7.664
 3113POPC   C1B41083   9.085  20.359   8.564
 3113POPC   C2B41084   9.029  20.406   8.264
 3113POPC   C3B41085   9.053  20.338   7.964
 3113POPC   C4B41086   9.084  20.408   7.664
 3114POPC   NC341087   2.764  38.487   9.464
 3114POPC   PO441088   2.799  38.462   9.164
 3114POPC   GL141089   2.808  38.481   8.864
 3114POPC   GL241090   2.760  38.348   8.864
 3114POPC   C1A41091   2.763  38.453   8.564
 3114POPC   D2A41092   2.770  38.476   8.264
 3114POPC   C3A41093   2.785  38.495   7.964
 3114POPC   C4A41094   2.812  38.439   7.664
 3114POPC   C1B41095   2.787  38.208   8.564
 3114POPC   C2B41096   2.745  38.204   8.264
 3114POPC   C3B41097   2.816  38.239   7.964
 3114POPC   C4B41098   2.837  38.175   7.664
 3115POPC   NC341099   9.769  23.736   9.464
 3115POPC   PO441100   9.711  23.716   9.164
 3115POPC   GL141101   9.746  23.750   8.864
 3115POPC   GL241102   9.670  23.660   8.864
 3115POPC   C1A41103   9.716  23.736   8.564
 3115POPC   D2A41104   9.782  23.744   8.264
 3115POPC   C3A41105   9.747  23.698   7.964
 3115POPC   C4A41106   9.760  23.686   7.664
 3115POPC   C1B41107   9.580  23.593   8.564
 3115POPC   C2B41108   9.537  23.601   8.264
 3115POPC   C3B41109   9.517  23.588   7.964
 3115POPC   C4B41110   9.559  23.579   7.664
 3116POPC   NC341111  12.059   4.272   9.464
 3116POPC   PO441112  12.112   4.285   9.164
 3116POPC   GL141113  12.076   4.354   8.864
 3116POPC   GL241114  12.095   4.454   8.864
 3116POPC   C1A41115  12.099   4.343   8.564
 3116POPC   D2A41116  12.114   4.355   8.264
 3116POPC   C3A41117  12.045   4.317   7.964
 3116POPC   C4A41118  12.067   4.273   7.664
 3116POPC   C1B41119  12.160   4.585   8.564
 3116POPC   C2B41120  12.152   4.558   8.264
 3116POPC   C3B41121  12.169   4.560   7.964
 3116POPC   C4B41122  12.235   4.585   7.664
 3117POPC   NC341123  36.884  17.474   9.464
 3117POPC   PO441124  36.941  17.498   9.164
 3117POPC   GL141125  36.878  17.530   8.864
 3117POPC   GL241126  36.862  17.379   8.864
 3117POPC   C1A41127  36.864  17.474   8.564
 3117POPC   D2A41128  36.926  17.551   8.264
 3117POPC   C3A41129  36.931  17.471   7.964
 3117POPC   C4A41130  36.897  17.555   7.664
 3117POPC   C1B41131  36.843  17.223   8.564
 3117POPC   C2B41132  36.913  17.265   8.264
 3117POPC   C3B41133  36.837  17.238   7.964
 3117POPC   C4B41134  36.879  17.310   7.664
 3118POPC   NC341135   9.730  25.295   9.464
 3118POPC   PO441136   9.717  25.226   9.164
 3118POPC   GL141137   9.780  25.298   8.864
 3118POPC   GL241138   9.693  25.339   8.864
 3118POPC   C1A41139   9.749  25.300   8.564
 3118POPC   D2A41140   9.704  25.250   8.264
 3118POPC   C3A41141   9.709  25.285   7.964
 3118POPC   C4A41142   9.729  25.232   7.664
 3118POPC   C1B41143   9.505  25.427   8.564
 3118POPC   C2B41144   9.530  25.410   8.264
 3118POPC   C3B41145   9.512  25.387   7.964
 3118POPC   C4B41146   9.552  25.459   7.664
 3119POPC   NC341147  22.960  39.197   9.464
 3119POPC   PO441148  22.934  39.223   9.164
 3119POPC   GL141149  22.976  39.209   8.864
 3119POPC   GL241150  22.853  39.321   8.864
 3119POPC   C1A41151  22.941  39.190   8.564
 3119POPC   D2A41152  22.982  39.190   8.264
 3119POPC   C3A41153  22.918  39.196   7.964
 3119POPC   C4A41154  22.981  39.249   7.664
 3119POPC   C1B41155  22.757  39.427   8.564
 3119POPC   C2B41156  22.802  39.396   8.264
 3119POPC   C3B41157  22.749  39.375   7.964
 3119POPC   C4B41158  22.742  39.402   7.664
 3120POPC   NC341159  28.374  14.417   5.564
 3120POPC   PO441160  28.415  14.375   5.864
 3120POPC   GL141161  28.376  14.452   6.164
 3120POPC   GL241162  28.355  14.483   6.164
 3120POPC   C1A41163  28.365  14.442   6.464
 3120POPC   D2A41164  28.391  14.371   6.764
 3120POPC   C3A41165  28.327  14.408   7.064
 3120POPC   C4A41166  28.416  14.436   7.364
 3120POPC   C1B41167  28.389  14.637   6.464
 3120POPC   C2B41168  28.375  14.661   6.764
 3120POPC   C3B41169  28.381  14.700   7.064
 3120POPC   C4B41170  28.353  14.631   7.364
 3121POPC   NC341171  31.482  38.465   5.564
 3121POPC   PO441172  31.423  38.452   5.864
 3121POPC   GL141173  31.445  38.414   6.164
 3121POPC   GL241174  31.407  38.566   6.164
 3121POPC   C1A41175  31.434  38.453   6.464
 3121POPC   D2A41176  31.442  38.462   6.764
 3121POPC   C3A41177  31.440  38.503   7.064
 3121POPC   C4A41178  31.495  38.442   7.364
 3121POPC   C1B41179  31.433  38.710   6.464
 3121POPC   C2B41180  31.440  38.654   6.764
 3121POPC   C3B41181  31.423  38.733   7.064
 3121POPC   C4B41182  31.393  38.705   7.364
 3122POPC   NC341183  29.916  36.146   5.564
 3122POPC   PO441184  29.925  36.153   5.864
 3122POPC   GL141185  29.947  36.140   6.164
 3122POPC   GL241186  29.832  36.066   6.164
 3122POPC   C1A41187  29.901  36.122   6.464
 3122POPC   D2A41188  29.960  36.156   6.764
 3122POPC   C3A41189  29.888  36.096   7.064
 3122POPC   C4A41190  29.871  36.161   7.364
 3122POPC   C1B41191  29.728  36.013   6.464
 3122POPC   C2B41192  29.696  35.975   6.764
 3122POPC   C3B41193  29.698  35.998   7.064
 3122POPC   C4B41194  29.699  36.020   7.364
 3123POPC   NC341195  40.028  28.390   5.564
 3123POPC   PO441196  40.050  28.391   5.864
 3123POPC   GL141197  39.963  28.339   6.164
 3123POPC   GL241198  39.930  28.247   6.164
 3123POPC   C1A41199  40.021  28.410   6.464
 3123POPC   D2A41200  40.017  28.357   6.764
 3123POPC   C3A41201  40.052  28.353   7.064
 3123POPC   C4A41202  40.022  28.329   7.364
 3123POPC   C1B41203  39.858  28.217   6.464
 3123POPC   C2B41204  39.809  28.164   6.764
 3123POPC   C3B41205  39.889  28.187   7.064
 3123POPC   C4B41206  39.805  28.200   7.364
 3124POPC   NC341207  39.273  20.648   5.564
 3124POPC   PO441208  39.181  20.599   5.864
 3124POPC   GL141209  39.246  20.595   6.164
 3124POPC   GL241210  39.172  20.491   6.164
 3124POPC   C1A41211  39.216  20.581   6.464
 3124POPC   D2A41212  39.272  20.642   6.764
 3124POPC   C3A41213  39.206  20.648   7.064
 3124POPC   C4A41214  39.257  20.587   7.364
 3124POPC   C1B41215  39.130  20.335   6.464
 3124POPC   C2B41216  39.215  20.332   6.764
 3124POPC   C3B41217  39.150  20.372   7.064
 3124POPC   C4B41218  39.167  20.374   7.364
 3125POPC   NC341219  38.422  44.694   5.564
 3125POPC   PO441220  38.414  44.621   5.864
 3125POPC   GL141221  38.412  44.628   6.164
 3125POPC   GL241222  38.475  44.571   6.164
 3125POPC   C1A41223  38.474  44.668   6.464
 3125POPC   D2A41224  38.483  44.619   6.764
 3125POPC   C3A41225  38.433  44.711   7.064
 3125POPC   C4A41226  38.462  44.653   7.364
 3125POPC   C1B41227  38.559  44.481   6.464
 3125POPC   C2B41228  38.574  44.444   6.764
 3125POPC   C3B41229  38.609  44.437   7.064
 3125POPC   C4B41230  38.621  44.454   7.364
 3126POPC   NC341231  10.486   8.156   5.564
 3126POPC   PO441232  10.483   8.180   5.864
 3126POPC   GL141233  10.509   8.211   6.164
 3126POPC   GL241234  10.393   8.306   6.164
 3126POPC   C1A41235  10.492   8.225   6.464
 3126POPC   D2A41236  10.497   8.165   6.764
 3126POPC   C3A41237  10.479   8.191   7.064
 3126POPC   C4A41238  10.480   8.158   7.364
 3126POPC   C1B41239  10.296   8.332   6.464
 3126POPC   C2B41240  10.260   8.310   6.764
 3126POPC   C3B41241  10.312   8.349   7.064
 3126POPC   C4B41242  10.295   8.331   7.364
 3127POPC   NC341243  19.789  29.148   5.564
 3127POPC   PO441244  19.843  29.147   5.864
 3127POPC   GL141245  19.837  29.147   6.164
 3127POPC   GL241246  19.914  29.091   6.164
 3127POPC   C1A41247  19.875  29.120   6.464
 3127POPC   D2A41248  19.826  29.184   6.764
 3127POPC   C3A41249  19.787  29.180   7.064
 3127POPC   C4A41250  19.821  29.112   7.364
 3127POPC   C1B41251  20.032  29.034   6.464
 3127POPC   C2B41252  20.076  29.007   6.764
 3127POPC   C3B41253  20.039  29.023   7.064
 3127POPC   C4B41254  20.054  29.037   7.364
 3128POPC   NC341255  21.431  37.661   5.564
 3128POPC   PO441256  21.427  37.631   5.864
 3128POPC   GL141257  21.378  37.705   6.164
 3128POPC   GL241258  21.532  37.664   6.164
 3128POPC   C1A41259  21.371  37.658   6.464
 3128POPC   D2A41260  21.360  37.719   6.764
 3128POPC   C3A41261  21.350  37.680   7.064
 3128POPC   C4A41262  21.396  37.712   7.364
 3128POPC   C1B41263  21.649  37.651   6.464
 3128POPC   C2B41264  21.587  37.636   6.764
 3128POPC   C3B41265  21.597  37.653   7.064
 3128POPC   C4B41266  21.631  37.589   7.364
 3129POPC   NC341267   0.456  16.692   5.564
 3129POPC   PO441268   0.453  16.748   5.864
 3129POPC   GL141269   0.415  16.697   6.164
 3129POPC   GL241270   0.403  16.643   6.164
 3129POPC   C1A41271   0.440  16.778   6.464
 3129POPC   D2A41272   0.422  16.687   6.764
 3129POPC   C3A41273   0.408  16.762   7.064
 3129POPC   C4A41274   0.480  16.773   7.364
 3129POPC   C1B41275   0.285  16.460   6.464
 3129POPC   C2B41276   0.319  16.529   6.764
 3129POPC   C3B41277   0.284  16.490   7.064
 3129POPC   C4B41278   0.295  16.492   7.364
 3130POPC   NC341279   8.931  27.598   5.564
 3130POPC   PO441280   8.948  27.558   5.864
 3130POPC   GL141281   8.968  27.563   6.164
 3130POPC   GL241282   8.955  27.745   6.164
 3130POPC   C1A41283   8.970  27.568   6.464
 3130POPC   D2A41284   8.990  27.556   6.764
 3130POPC   C3A41285   8.931  27.562   7.064
 3130POPC   C4A41286   8.973  27.578   7.364
 3130POPC   C1B41287   8.876  27.797   6.464
 3130POPC   C2B41288   8.859  27.839   6.764
 3130POPC   C3B41289   8.897  27.844   7.064
 3130POPC   C4B41290   8.822  27.854   7.364
 3131POPC   NC341291  29.935  12.816   5.564
 3131POPC   PO441292  29.967  12.892   5.864
 3131POPC   GL141293  29.875  12.824   6.164
 3131POPC   GL241294  29.797  12.833   6.164
 3131POPC   C1A41295  29.971  12.802   6.464
 3131POPC   D2A41296  29.875  12.851   6.764
 3131POPC   C3A41297  29.917  12.820   7.064
 3131POPC   C4A41298  29.941  12.819   7.364
 3131POPC   C1B41299  29.667  12.715   6.464
 3131POPC   C2B41300  29.664  12.736   6.764
 3131POPC   C3B41301  29.662  12.755   7.064
 3131POPC   C4B41302  29.681  12.717   7.364
 3132POPC   NC341303   3.546  35.305   5.564
 3132POPC   PO441304   3.564  35.358   5.864
 3132POPC   GL141305   3.591  35.349   6.164
 3132POPC   GL241306   3.573  35.495   6.164
 3132POPC   C1A41307   3.535  35.392   6.464
 3132POPC   D2A41308   3.508  35.391   6.764
 3132POPC   C3A41309   3.591  35.356   7.064
 3132POPC   C4A41310   3.518  35.352   7.364
 3132POPC   C1B41311   3.683  35.523   6.464
 3132POPC   C2B41312   3.639  35.613   6.764
 3132POPC   C3B41313   3.670  35.557   7.064
 3132POPC   C4B41314   3.664  35.609   7.364
 3133POPC   NC341315  43.924  30.655   5.564
 3133POPC   PO441316  43.904  30.727   5.864
 3133POPC   GL141317  43.930  30.656   6.164
 3133POPC   GL241318  43.733  30.742   6.164
 3133POPC   C1A41319  43.862  30.665   6.464
 3133POPC   D2A41320  43.932  30.724   6.764
 3133POPC   C3A41321  43.882  30.746   7.064
 3133POPC   C4A41322  43.893  30.719   7.364
 3133POPC   C1B41323  43.655  30.719   6.464
 3133POPC   C2B41324  43.620  30.715   6.764
 3133POPC   C3B41325  43.689  30.784   7.064
 3133POPC   C4B41326  43.652  30.723   7.364
 3134POPC   NC341327   0.396  18.268   5.564
 3134POPC   PO441328   0.471  18.236   5.864
 3134POPC   GL141329   0.457  18.273   6.164
 3134POPC   GL241330   0.435  18.175   6.164
 3134POPC   C1A41331   0.446  18.303   6.464
 3134POPC   D2A41332   0.404  18.273   6.764
 3134POPC   C3A41333   0.399  18.303   7.064
 3134POPC   C4A41334   0.484  18.242   7.364
 3134POPC   C1B41335   0.328  18.031   6.464
 3134POPC   C2B41336   0.354  18.023   6.764
 3134POPC   C3B41337   0.418  18.044   7.064
 3134POPC   C4B41338   0.424  18.069   7.364
 3135POPC   NC341339  37.682   5.120   5.564
 3135POPC   PO441340  37.641   5.095   5.864
 3135POPC   GL141341  37.634   5.073   6.164
 3135POPC   GL241342  37.787   5.043   6.164
 3135POPC   C1A41343  37.670   5.091   6.464
 3135POPC   D2A41344  37.696   5.096   6.764
 3135POPC   C3A41345  37.690   5.051   7.064
 3135POPC   C4A41346  37.636   5.140   7.364
 3135POPC   C1B41347  37.858   4.891   6.464
 3135POPC   C2B41348  37.866   4.918   6.764
 3135POPC   C3B41349  37.888   4.924   7.064
 3135POPC   C4B41350  37.846   4.904   7.364
 3136POPC   NC341351  17.532   1.211   5.564
 3136POPC   PO441352  17.534   1.199   5.864
 3136POPC   GL141353  17.501   1.170   6.164
 3136POPC   GL241354  17.439   1.317   6.164
 3136POPC   C1A41355  17.533   1.181   6.464
 3136POPC   D2A41356  17.538   1.240   6.764
 3136POPC   C3A41357  17.533   1.223   7.064
 3136POPC   C4A41358  17.542   1.238   7.364
 3136POPC   C1B41359  17.417   1.462   6.464
 3136POPC   C2B41360  17.409   1.437   6.764
 3136POPC   C3B41361  17.396   1.422   7.064
 3136POPC   C4B41362  17.353   1.420   7.364
 3137POPC   NC341363  24.490  38.414   5.564
 3137POPC   PO441364  24.462  38.493   5.864
 3137POPC   GL141365  24.457  38.414   6.164
 3137POPC   GL241366  24.621  38.409   6.164
 3137POPC   C1A41367  24.500  38.478   6.464
 3137POPC   D2A41368  24.464  38.424   6.764
 3137POPC   C3A41369  24.451  38.453   7.064
 3137POPC   C4A41370  24.517  38.492   7.364
 3137POPC   C1B41371  24.637  38.292   6.464
 3137POPC   C2B41372  24.718  38.307   6.764
 3137POPC   C3B41373  24.690  38.254   7.064
 3137POPC   C4B41374  24.656  38.294   7.364
 3138POPC   NC341375   9.009   6.612   5.564
 3138POPC   PO441376   8.933   6.606   5.864
 3138POPC   GL141377   8.973   6.653   6.164
 3138POPC   GL241378   8.886   6.725   6.164
 3138POPC   C1A41379   8.970   6.611   6.464
 3138POPC   D2A41380   9.005   6.647   6.764
 3138POPC   C3A41381   9.016   6.668   7.064
 3138POPC   C4A41382   8.995   6.606   7.364
 3138POPC   C1B41383   8.844   6.892   6.464
 3138POPC   C2B41384   8.865   6.802   6.764
 3138POPC   C3B41385   8.851   6.804   7.064
 3138POPC   C4B41386   8.804   6.826   7.364
 3139POPC   NC341387  12.031  12.899   5.564
 3139POPC   PO441388  12.068  12.833   5.864
 3139POPC   GL141389  12.122  12.871   6.164
 3139POPC   GL241390  12.149  12.799   6.164
 3139POPC   C1A41391  12.034  12.879   6.464
 3139POPC   D2A41392  12.074  12.841   6.764
 3139POPC   C3A41393  12.097  12.887   7.064
 3139POPC   C4A41394  12.110  12.818   7.364
 3139POPC   C1B41395  12.318  12.810   6.464
 3139POPC   C2B41396  12.336  12.806   6.764
 3139POPC   C3B41397  12.278  12.778   7.064
 3139POPC   C4B41398  12.355  12.776   7.364
 3140POPC   NC341399  42.286   6.623   5.564
 3140POPC   PO441400  42.379   6.615   5.864
 3140POPC   GL141401  42.354   6.691   6.164
 3140POPC   GL241402  42.216   6.622   6.164
 3140POPC   C1A41403  42.367   6.651   6.464
 3140POPC   D2A41404  42.380   6.620   6.764
 3140POPC   C3A41405  42.300   6.665   7.064
 3140POPC   C4A41406  42.342   6.618   7.364
 3140POPC   C1B41407  42.118   6.598   6.464
 3140POPC   C2B41408  42.107   6.549   6.764
 3140POPC   C3B41409  42.059   6.556   7.064
 3140POPC   C4B41410  42.135   6.637   7.364
 3141POPC   NC341411   2.790  22.159   5.564
 3141POPC   PO441412   2.732  22.193   5.864
 3141POPC   GL141413   2.756  22.159   6.164
 3141POPC   GL241414   2.601  22.229   6.164
 3141POPC   C1A41415   2.774  22.181   6.464
 3141POPC   D2A41416   2.719  22.170   6.764
 3141POPC   C3A41417   2.801  22.162   7.064
 3141POPC   C4A41418   2.772  22.163   7.364
 3141POPC   C1B41419   2.551  22.244   6.464
 3141POPC   C2B41420   2.508  22.290   6.764
 3141POPC   C3B41421   2.540  22.236   7.064
 3141POPC   C4B41422   2.485  22.268   7.364
 3142POPC   NC341423  25.279  34.559   5.564
 3142POPC   PO441424  25.222  34.535   5.864
 3142POPC   GL141425  25.236  34.623   6.164
 3142POPC   GL241426  25.150  34.558   6.164
 3142POPC   C1A41427  25.238  34.565   6.464
 3142POPC   D2A41428  25.229  34.560   6.764
 3142POPC   C3A41429  25.303  34.563   7.064
 3142POPC   C4A41430  25.293  34.626   7.364
 3142POPC   C1B41431  24.973  34.669   6.464
 3142POPC   C2B41432  25.029  34.645   6.764
 3142POPC   C3B41433  25.044  34.638   7.064
 3142POPC   C4B41434  25.027  34.639   7.364
 3143POPC   NC341435   3.497  27.622   5.564
 3143POPC   PO441436   3.537  27.642   5.864
 3143POPC   GL141437   3.541  27.614   6.164
 3143POPC   GL241438   3.550  27.729   6.164
 3143POPC   C1A41439   3.570  27.605   6.464
 3143POPC   D2A41440   3.529  27.562   6.764
 3143POPC   C3A41441   3.582  27.591   7.064
 3143POPC   C4A41442   3.532  27.577   7.364
 3143POPC   C1B41443   3.539  27.805   6.464
 3143POPC   C2B41444   3.468  27.821   6.764
 3143POPC   C3B41445   3.540  27.813   7.064
 3143POPC   C4B41446   3.478  27.880   7.364
 3144POPC   NC341447   2.004  32.998   5.564
 3144POPC   PO441448   1.979  33.008   5.864
 3144POPC   GL141449   2.016  33.012   6.164
 3144POPC   GL241450   2.073  33.088   6.164
 3144POPC   C1A41451   2.025  33.018   6.464
 3144POPC   D2A41452   2.025  33.068   6.764
 3144POPC   C3A41453   1.962  33.059   7.064
 3144POPC   C4A41454   1.953  33.040   7.364
 3144POPC   C1B41455   2.236  33.101   6.464
 3144POPC   C2B41456   2.228  33.129   6.764
 3144POPC   C3B41457   2.239  33.145   7.064
 3144POPC   C4B41458   2.256  33.131   7.364
 3145POPC   NC341459  41.548   2.002   5.564
 3145POPC   PO441460  41.520   1.944   5.864
 3145POPC   GL141461  41.583   1.944   6.164
 3145POPC   GL241462  41.606   1.878   6.164
 3145POPC   C1A41463  41.513   1.951   6.464
 3145POPC   D2A41464  41.598   1.993   6.764
 3145POPC   C3A41465  41.536   1.944   7.064
 3145POPC   C4A41466  41.539   1.974   7.364
 3145POPC   C1B41467  41.763   1.823   6.464
 3145POPC   C2B41468  41.755   1.779   6.764
 3145POPC   C3B41469  41.712   1.787   7.064
 3145POPC   C4B41470  41.725   1.833   7.364
 3146POPC   NC341471  22.969  27.591   5.564
 3146POPC   PO441472  22.902  27.612   5.864
 3146POPC   GL141473  22.981  27.567   6.164
 3146POPC   GL241474  22.875  27.696   6.164
 3146POPC   C1A41475  22.932  27.624   6.464
 3146POPC   D2A41476  22.980  27.604   6.764
 3146POPC   C3A41477  22.943  27.547   7.064
 3146POPC   C4A41478  22.980  27.625   7.364
 3146POPC   C1B41479  22.746  27.707   6.464
 3146POPC   C2B41480  22.706  27.676   6.764
 3146POPC   C3B41481  22.697  27.709   7.064
 3146POPC   C4B41482  22.713  27.745   7.364
 3147POPC   NC341483  14.360   6.603   5.564
 3147POPC   PO441484  14.422   6.613   5.864
 3147POPC   GL141485  14.354   6.673   6.164
 3147POPC   GL241486  14.483   6.565   6.164
 3147POPC   C1A41487  14.397   6.676   6.464
 3147POPC   D2A41488  14.407   6.650   6.764
 3147POPC   C3A41489  14.363   6.656   7.064
 3147POPC   C4A41490  14.421   6.628   7.364
 3147POPC   C1B41491  14.487   6.390   6.464
 3147POPC   C2B41492  14.530   6.421   6.764
 3147POPC   C3B41493  14.500   6.476   7.064
 3147POPC   C4B41494  14.573   6.384   7.364
 3148POPC   NC341495  33.020  16.753   5.564
 3148POPC   PO441496  33.034  16.713   5.864
 3148POPC   GL141497  32.998  16.699   6.164
 3148POPC   GL241498  33.035  16.894   6.164
 3148POPC   C1A41499  33.036  16.778   6.464
 3148POPC   D2A41500  32.994  16.721   6.764
 3148POPC   C3A41501  33.065  16.707   7.064
 3148POPC   C4A41502  33.031  16.725   7.364
 3148POPC   C1B41503  33.022  17.014   6.464
 3148POPC   C2B41504  33.029  17.023   6.764
 3148POPC   C3B41505  33.022  16.988   7.064
 3148POPC   C4B41506  33.049  17.022   7.364
 3149POPC   NC341507  43.062  14.408   5.564
 3149POPC   PO441508  43.158  14.360   5.864
 3149POPC   GL141509  43.072  14.395   6.164
 3149POPC   GL241510  43.262  14.507   6.164
 3149POPC   C1A41511  43.118  14.431   6.464
 3149POPC   D2A41512  43.087  14.444   6.764
 3149POPC   C3A41513  43.134  14.366   7.064
 3149POPC   C4A41514  43.146  14.406   7.364
 3149POPC   C1B41515  43.290  14.511   6.464
 3149POPC   C2B41516  43.364  14.463   6.764
 3149POPC   C3B41517  43.375  14.481   7.064
 3149POPC   C4B41518  43.378  14.525   7.364
 3150POPC   NC341519   3.550  14.411   5.564
 3150POPC   PO441520   3.533  14.410   5.864
 3150POPC   GL141521   3.510  14.450   6.164
 3150POPC   GL241522   3.455  14.479   6.164
 3150POPC   C1A41523   3.513  14.359   6.464
 3150POPC   D2A41524   3.547  14.452   6.764
 3150POPC   C3A41525   3.561  14.424   7.064
 3150POPC   C4A41526   3.508  14.373   7.364
 3150POPC   C1B41527   3.327  14.507   6.464
 3150POPC   C2B41528   3.328  14.434   6.764
 3150POPC   C3B41529   3.321  14.442   7.064
 3150POPC   C4B41530   3.307  14.492   7.364
 3151POPC   NC341531  29.918  38.461   5.564
 3151POPC   PO441532  29.877  38.420   5.864
 3151POPC   GL141533  29.928  38.434   6.164
 3151POPC   GL241534  29.817  38.511   6.164
 3151POPC   C1A41535  29.883  38.495   6.464
 3151POPC   D2A41536  29.872  38.502   6.764
 3151POPC   C3A41537  29.910  38.444   7.064
 3151POPC   C4A41538  29.956  38.454   7.364
 3151POPC   C1B41539  29.805  38.620   6.464
 3151POPC   C2B41540  29.763  38.620   6.764
 3151POPC   C3B41541  29.761  38.670   7.064
 3151POPC   C4B41542  29.806  38.649   7.364
 3152POPC   NC341543  17.538  17.489   5.564
 3152POPC   PO441544  17.498  17.462   5.864
 3152POPC   GL141545  17.529  17.485   6.164
 3152POPC   GL241546  17.444  17.412   6.164
 3152POPC   C1A41547  17.461  17.465   6.464
 3152POPC   D2A41548  17.482  17.518   6.764
 3152POPC   C3A41549  17.527  17.534   7.064
 3152POPC   C4A41550  17.491  17.465   7.364
 3152POPC   C1B41551  17.315  17.255   6.464
 3152POPC   C2B41552  17.372  17.348   6.764
 3152POPC   C3B41553  17.393  17.294   7.064
 3152POPC   C4B41554  17.325  17.260   7.364
 3153POPC   NC341555  28.319  34.598   5.564
 3153POPC   PO441556  28.390  34.579   5.864
 3153POPC   GL141557  28.364  34.608   6.164
 3153POPC   GL241558  28.276  34.596   6.164
 3153POPC   C1A41559  28.371  34.606   6.464
 3153POPC   D2A41560  28.354  34.531   6.764
 3153POPC   C3A41561  28.337  34.568   7.064
 3153POPC   C4A41562  28.365  34.565   7.364
 3153POPC   C1B41563  28.135  34.603   6.464
 3153POPC   C2B41564  28.103  34.656   6.764
 3153POPC   C3B41565  28.114  34.640   7.064
 3153POPC   C4B41566  28.160  34.651   7.364
 3154POPC   NC341567  26.833  40.770   5.564
 3154POPC   PO441568  26.794  40.816   5.864
 3154POPC   GL141569  26.855  40.758   6.164
 3154POPC   GL241570  26.909  40.895   6.164
 3154POPC   C1A41571  26.807  40.766   6.464
 3154POPC   D2A41572  26.818  40.800   6.764
 3154POPC   C3A41573  26.845  40.809   7.064
 3154POPC   C4A41574  26.824  40.766   7.364
 3154POPC   C1B41575  27.051  40.869   6.464
 3154POPC   C2B41576  27.050  40.892   6.764
 3154POPC   C3B41577  27.051  40.905   7.064
 3154POPC   C4B41578  26.995  40.931   7.364
 3155POPC   NC341579  44.709  12.056   5.564
 3155POPC   PO441580  44.666  12.103   5.864
 3155POPC   GL141581  44.664  12.087   6.164
 3155POPC   GL241582  44.804  12.115   6.164
 3155POPC   C1A41583  44.613  12.086   6.464
 3155POPC   D2A41584  44.627  12.027   6.764
 3155POPC   C3A41585  44.696  12.089   7.064
 3155POPC   C4A41586  44.640  12.102   7.364
 3155POPC   C1B41587  44.867  12.185   6.464
 3155POPC   C2B41588  44.949  12.198   6.764
 3155POPC   C3B41589  44.884  12.197   7.064
 3155POPC   C4B41590  44.919  12.192   7.364
 3156POPC   NC341591   1.961  22.899   5.564
 3156POPC   PO441592   2.037  22.923   5.864
 3156POPC   GL141593   2.015  22.953   6.164
 3156POPC   GL241594   1.849  23.027   6.164
 3156POPC   C1A41595   1.997  22.976   6.464
 3156POPC   D2A41596   1.992  22.980   6.764
 3156POPC   C3A41597   1.969  22.980   7.064
 3156POPC   C4A41598   2.038  22.906   7.364
 3156POPC   C1B41599   1.807  23.032   6.464
 3156POPC   C2B41600   1.783  23.042   6.764
 3156POPC   C3B41601   1.738  23.026   7.064
 3156POPC   C4B41602   1.803  23.040   7.364
 3157POPC   NC341603  29.968  33.773   5.564
 3157POPC   PO441604  29.966  33.753   5.864
 3157POPC   GL141605  29.946  33.807   6.164
 3157POPC   GL241606  29.929  33.892   6.164
 3157POPC   C1A41607  29.961  33.833   6.464
 3157POPC   D2A41608  29.956  33.774   6.764
 3157POPC   C3A41609  29.959  33.825   7.064
 3157POPC   C4A41610  29.885  33.797   7.364
 3157POPC   C1B41611  30.025  33.993   6.464
 3157POPC   C2B41612  29.961  34.033   6.764
 3157POPC   C3B41613  29.959  34.014   7.064
 3157POPC   C4B41614  29.999  34.026   7.364
 3158POPC   NC341615  25.269  27.636   5.564
 3158POPC   PO441616  25.286  27.632   5.864
 3158POPC   GL141617  25.243  27.549   6.164
 3158POPC   GL241618  25.192  27.688   6.164
 3158POPC   C1A41619  25.298  27.628   6.464
 3158POPC   D2A41620  25.294  27.626   6.764
 3158POPC   C3A41621  25.276  27.549   7.064
 3158POPC   C4A41622  25.244  27.636   7.364
 3158POPC   C1B41623  25.044  27.703   6.464
 3158POPC   C2B41624  25.054  27.724   6.764
 3158POPC   C3B41625  25.062  27.698   7.064
 3158POPC   C4B41626  25.077  27.740   7.364
 3159POPC   NC341627  12.123  24.460   5.564
 3159POPC   PO441628  12.042  24.520   5.864
 3159POPC   GL141629  12.098  24.509   6.164
 3159POPC   GL241630  11.908  24.504   6.164
 3159POPC   C1A41631  12.038  24.528   6.464
 3159POPC   D2A41632  12.066  24.493   6.764
 3159POPC   C3A41633  12.072  24.485   7.064
 3159POPC   C4A41634  12.098  24.521   7.364
 3159POPC   C1B41635  11.844  24.472   6.464
 3159POPC   C2B41636  11.858  24.485   6.764
 3159POPC   C3B41637  11.861  24.441   7.064
 3159POPC   C4B41638  11.858  24.450   7.364
 3160POPC   NC341639  12.036   7.395   5.564
 3160POPC   PO441640  12.125   7.444   5.864
 3160POPC   GL141641  12.110   7.426   6.164
 3160POPC   GL241642  12.044   7.586   6.164
 3160POPC   C1A41643  12.041   7.448   6.464
 3160POPC   D2A41644  12.085   7.390   6.764
 3160POPC   C3A41645  12.116   7.383   7.064
 3160POPC   C4A41646  12.111   7.438   7.364
 3160POPC   C1B41647  12.086   7.660   6.464
 3160POPC   C2B41648  12.104   7.647   6.764
 3160POPC   C3B41649  12.073   7.679   7.064
 3160POPC   C4B41650  12.133   7.701   7.364
 3161POPC   NC341651  39.223   8.940   5.564
 3161POPC   PO441652  39.252   8.963   5.864
 3161POPC   GL141653  39.275   9.010   6.164
 3161POPC   GL241654  39.133   9.040   6.164
 3161POPC   C1A41655  39.217   8.967   6.464
 3161POPC   D2A41656  39.227   8.987   6.764
 3161POPC   C3A41657  39.262   8.926   7.064
 3161POPC   C4A41658  39.217   9.005   7.364
 3161POPC   C1B41659  38.977   9.079   6.464
 3161POPC   C2B41660  39.065   9.107   6.764
 3161POPC   C3B41661  39.013   9.124   7.064
 3161POPC   C4B41662  38.996   9.093   7.364
 3162POPC   NC341663   5.878   4.272   5.564
 3162POPC   PO441664   5.888   4.302   5.864
 3162POPC   GL141665   5.906   4.311   6.164
 3162POPC   GL241666   5.768   4.394   6.164
 3162POPC   C1A41667   5.902   4.358   6.464
 3162POPC   D2A41668   5.859   4.364   6.764
 3162POPC   C3A41669   5.860   4.319   7.064
 3162POPC   C4A41670   5.882   4.317   7.364
 3162POPC   C1B41671   5.740   4.531   6.464
 3162POPC   C2B41672   5.688   4.524   6.764
 3162POPC   C3B41673   5.726   4.454   7.064
 3162POPC   C4B41674   5.711   4.473   7.364
 3163POPC   NC341675  25.229  31.453   5.564
 3163POPC   PO441676  25.276  31.437   5.864
 3163POPC   GL141677  25.258  31.471   6.164
 3163POPC   GL241678  25.358  31.398   6.164
 3163POPC   C1A41679  25.229  31.479   6.464
 3163POPC   D2A41680  25.244  31.497   6.764
 3163POPC   C3A41681  25.216  31.461   7.064
 3163POPC   C4A41682  25.233  31.500   7.364
 3163POPC   C1B41683  25.484  31.366   6.464
 3163POPC   C2B41684  25.535  31.345   6.764
 3163POPC   C3B41685  25.517  31.384   7.064
 3163POPC   C4B41686  25.500  31.330   7.364
 3164POPC   NC341687  30.679  15.983   5.564
 3164POPC   PO441688  30.719  15.941   5.864
 3164POPC   GL141689  30.717  15.960   6.164
 3164POPC   GL241690  30.703  15.853   6.164
 3164POPC   C1A41691  30.665  15.970   6.464
 3164POPC   D2A41692  30.690  15.988   6.764
 3164POPC   C3A41693  30.700  15.923   7.064
 3164POPC   C4A41694  30.686  15.986   7.364
 3164POPC   C1B41695  30.744  15.674   6.464
 3164POPC   C2B41696  30.711  15.681   6.764
 3164POPC   C3B41697  30.749  15.706   7.064
 3164POPC   C4B41698  30.710  15.661   7.364
 3165POPC   NC341699  22.195   8.954   5.564
 3165POPC   PO441700  22.193   8.993   5.864
 3165POPC   GL141701  22.193   8.973   6.164
 3165POPC   GL241702  22.305   8.994   6.164
 3165POPC   C1A41703  22.119   8.976   6.464
 3165POPC   D2A41704  22.140   8.936   6.764
 3165POPC   C3A41705  22.190   8.970   7.064
 3165POPC   C4A41706  22.169   8.941   7.364
 3165POPC   C1B41707  22.362   8.970   6.464
 3165POPC   C2B41708  22.388   8.905   6.764
 3165POPC   C3B41709  22.415   8.954   7.064
 3165POPC   C4B41710  22.435   8.951   7.364
 3166POPC   NC341711   8.169  20.572   5.564
 3166POPC   PO441712   8.244  20.616   5.864
 3166POPC   GL141713   8.201  20.630   6.164
 3166POPC   GL241714   8.223  20.770   6.164
 3166POPC   C1A41715   8.178  20.641   6.464
 3166POPC   D2A41716   8.221  20.649   6.764
 3166POPC   C3A41717   8.148  20.601   7.064
 3166POPC   C4A41718   8.227  20.632   7.364
 3166POPC   C1B41719   8.276  20.846   6.464
 3166POPC   C2B41720   8.322  20.845   6.764
 3166POPC   C3B41721   8.295  20.795   7.064
 3166POPC   C4B41722   8.329  20.814   7.364
 3167POPC   NC341723  12.098  33.808   5.564
 3167POPC   PO441724  12.124  33.848   5.864
 3167POPC   GL141725  12.122  33.799   6.164
 3167POPC   GL241726  12.044  33.907   6.164
 3167POPC   C1A41727  12.083  33.833   6.464
 3167POPC   D2A41728  12.080  33.783   6.764
 3167POPC   C3A41729  12.097  33.785   7.064
 3167POPC   C4A41730  12.041  33.847   7.364
 3167POPC   C1B41731  11.936  34.051   6.464
 3167POPC   C2B41732  11.968  33.994   6.764
 3167POPC   C3B41733  11.917  33.975   7.064
 3167POPC   C4B41734  11.967  34.026   7.364
 3168POPC   NC341735  14.450  37.642   5.564
 3168POPC   PO441736  14.375  37.710   5.864
 3168POPC   GL141737  14.412  37.728   6.164
 3168POPC   GL241738  14.384  37.601   6.164
 3168POPC   C1A41739  14.447  37.664   6.464
 3168POPC   D2A41740  14.411  37.697   6.764
 3168POPC   C3A41741  14.449  37.655   7.064
 3168POPC   C4A41742  14.378  37.710   7.364
 3168POPC   C1B41743  14.333  37.460   6.464
 3168POPC   C2B41744  14.367  37.472   6.764
 3168POPC   C3B41745  14.355  37.463   7.064
 3168POPC   C4B41746  14.368  37.397   7.364
 3169POPC   NC341747   8.203  12.107   5.564
 3169POPC   PO441748   8.199  12.090   5.864
 3169POPC   GL141749   8.173  12.106   6.164
 3169POPC   GL241750   8.108  12.195   6.164
 3169POPC   C1A41751   8.230  12.043   6.464
 3169POPC   D2A41752   8.173  12.043   6.764
 3169POPC   C3A41753   8.187  12.067   7.064
 3169POPC   C4A41754   8.187  12.039   7.364
 3169POPC   C1B41755   7.966  12.243   6.464
 3169POPC   C2B41756   7.987  12.242   6.764
 3169POPC   C3B41757   7.967  12.198   7.064
 3169POPC   C4B41758   7.987  12.174   7.364
 3170POPC   NC341759   9.020  44.679   5.564
 3170POPC   PO441760   8.924  44.660   5.864
 3170POPC   GL141761   9.019  44.636   6.164
 3170POPC   GL241762   8.988  44.495   6.164
 3170POPC   C1A41763   8.953  44.709   6.464
 3170POPC   D2A41764   8.967  44.612   6.764
 3170POPC   C3A41765   8.974  44.656   7.064
 3170POPC   C4A41766   8.961  44.642   7.364
 3170POPC   C1B41767   8.912  44.423   6.464
 3170POPC   C2B41768   8.927  44.447   6.764
 3170POPC   C3B41769   8.874  44.409   7.064
 3170POPC   C4B41770   8.955  44.393   7.364
 3171POPC   NC341771  24.488  12.854   5.564
 3171POPC   PO441772  24.497  12.894   5.864
 3171POPC   GL141773  24.500  12.861   6.164
 3171POPC   GL241774  24.581  12.979   6.164
 3171POPC   C1A41775  24.512  12.885   6.464
 3171POPC   D2A41776  24.504  12.859   6.764
 3171POPC   C3A41777  24.498  12.874   7.064
 3171POPC   C4A41778  24.456  12.817   7.364
 3171POPC   C1B41779  24.732  12.998   6.464
 3171POPC   C2B41780  24.663  12.991   6.764
 3171POPC   C3B41781  24.699  13.032   7.064
 3171POPC   C4B41782  24.722  12.977   7.364
 3172POPC   NC341783  21.412   6.661   5.564
 3172POPC   PO441784  21.381   6.684   5.864
 3172POPC   GL141785  21.424   6.612   6.164
 3172POPC   GL241786  21.450   6.588   6.164
 3172POPC   C1A41787  21.408   6.610   6.464
 3172POPC   D2A41788  21.348   6.663   6.764
 3172POPC   C3A41789  21.378   6.684   7.064
 3172POPC   C4A41790  21.421   6.604   7.364
 3172POPC   C1B41791  21.639   6.486   6.464
 3172POPC   C2B41792  21.576   6.532   6.764
 3172POPC   C3B41793  21.551   6.518   7.064
 3172POPC   C4B41794  21.571   6.531   7.364
 3173POPC   NC341795  35.339  17.529   5.564
 3173POPC   PO441796  35.343  17.468   5.864
 3173POPC   GL141797  35.346  17.504   6.164
 3173POPC   GL241798  35.287  17.651   6.164
 3173POPC   C1A41799  35.304  17.502   6.464
 3173POPC   D2A41800  35.369  17.495   6.764
 3173POPC   C3A41801  35.354  17.557   7.064
 3173POPC   C4A41802  35.391  17.509   7.364
 3173POPC   C1B41803  35.289  17.742   6.464
 3173POPC   C2B41804  35.309  17.718   6.764
 3173POPC   C3B41805  35.325  17.795   7.064
 3173POPC   C4B41806  35.287  17.769   7.364
 3174POPC   NC341807  24.532  10.490   5.564
 3174POPC   PO441808  24.528  10.558   5.864
 3174POPC   GL141809  24.500  10.569   6.164
 3174POPC   GL241810  24.530  10.370   6.164
 3174POPC   C1A41811  24.498  10.476   6.464
 3174POPC   D2A41812  24.511  10.493   6.764
 3174POPC   C3A41813  24.447  10.564   7.064
 3174POPC   C4A41814  24.448  10.502   7.364
 3174POPC   C1B41815  24.664  10.337   6.464
 3174POPC   C2B41816  24.581  10.309   6.764
 3174POPC   C3B41817  24.631  10.311   7.064
 3174POPC   C4B41818  24.671  10.340   7.364
 3175POPC   NC341819  33.777   2.771   5.564
 3175POPC   PO441820  33.812   2.740   5.864
 3175POPC   GL141821  33.825   2.804   6.164
 3175POPC   GL241822  33.917   2.725   6.164
 3175POPC   C1A41823  33.836   2.781   6.464
 3175POPC   D2A41824  33.763   2.791   6.764
 3175POPC   C3A41825  33.768   2.758   7.064
 3175POPC   C4A41826  33.804   2.781   7.364
 3175POPC   C1B41827  34.077   2.717   6.464
 3175POPC   C2B41828  34.083   2.805   6.764
 3175POPC   C3B41829  34.058   2.724   7.064
 3175POPC   C4B41830  34.045   2.735   7.364
 3176POPC   NC341831  31.467  19.035   5.564
 3176POPC   PO441832  31.509  19.083   5.864
 3176POPC   GL141833  31.438  19.062   6.164
 3176POPC   GL241834  31.570  19.149   6.164
 3176POPC   C1A41835  31.438  19.098   6.464
 3176POPC   D2A41836  31.465  19.052   6.764
 3176POPC   C3A41837  31.446  19.051   7.064
 3176POPC   C4A41838  31.469  19.011   7.364
 3176POPC   C1B41839  31.553  19.234   6.464
 3176POPC   C2B41840  31.606  19.321   6.764
 3176POPC   C3B41841  31.628  19.250   7.064
 3176POPC   C4B41842  31.610  19.251   7.364
 3177POPC   NC341843  15.209  42.306   5.564
 3177POPC   PO441844  15.178  42.357   5.864
 3177POPC   GL141845  15.130  42.342   6.164
 3177POPC   GL241846  15.132  42.207   6.164
 3177POPC   C1A41847  15.162  42.313   6.464
 3177POPC   D2A41848  15.167  42.301   6.764
 3177POPC   C3A41849  15.154  42.292   7.064
 3177POPC   C4A41850  15.194  42.303   7.364
 3177POPC   C1B41851  15.095  42.101   6.464
 3177POPC   C2B41852  15.114  42.090   6.764
 3177POPC   C3B41853  15.080  42.079   7.064
 3177POPC   C4B41854  15.131  42.045   7.364
 3178POPC   NC341855  16.693   1.177   5.564
 3178POPC   PO441856  16.707   1.215   5.864
 3178POPC   GL141857  16.728   1.225   6.164
 3178POPC   GL241858  16.759   1.100   6.164
 3178POPC   C1A41859  16.707   1.195   6.464
 3178POPC   D2A41860  16.760   1.196   6.764
 3178POPC   C3A41861  16.767   1.199   7.064
 3178POPC   C4A41862  16.707   1.177   7.364
 3178POPC   C1B41863  16.828   0.933   6.464
 3178POPC   C2B41864  16.805   0.931   6.764
 3178POPC   C3B41865  16.853   0.990   7.064
 3178POPC   C4B41866  16.854   0.933   7.364
 3179POPC   NC341867  32.279  17.474   5.564
 3179POPC   PO441868  32.207  17.528   5.864
 3179POPC   GL141869  32.290  17.458   6.164
 3179POPC   GL241870  32.164  17.440   6.164
 3179POPC   C1A41871  32.209  17.539   6.464
 3179POPC   D2A41872  32.274  17.479   6.764
 3179POPC   C3A41873  32.220  17.510   7.064
 3179POPC   C4A41874  32.233  17.460   7.364
 3179POPC   C1B41875  32.077  17.304   6.464
 3179POPC   C2B41876  32.049  17.334   6.764
 3179POPC   C3B41877  32.069  17.286   7.064
 3179POPC   C4B41878  32.062  17.347   7.364
 3180POPC   NC341879  43.890  15.150   5.564
 3180POPC   PO441880  43.848  15.153   5.864
 3180POPC   GL141881  43.862  15.138   6.164
 3180POPC   GL241882  43.852  15.261   6.164
 3180POPC   C1A41883  43.914  15.172   6.464
 3180POPC   D2A41884  43.890  15.200   6.764
 3180POPC   C3A41885  43.923  15.198   7.064
 3180POPC   C4A41886  43.841  15.196   7.364
 3180POPC   C1B41887  43.839  15.435   6.464
 3180POPC   C2B41888  43.756  15.439   6.764
 3180POPC   C3B41889  43.789  15.400   7.064
 3180POPC   C4B41890  43.768  15.441   7.364
 3181POPC   NC341891  33.769  13.640   5.564
 3181POPC   PO441892  33.804  13.650   5.864
 3181POPC   GL141893  33.767  13.641   6.164
 3181POPC   GL241894  33.917  13.542   6.164
 3181POPC   C1A41895  33.817  13.614   6.464
 3181POPC   D2A41896  33.819  13.606   6.764
 3181POPC   C3A41897  33.813  13.639   7.064
 3181POPC   C4A41898  33.789  13.579   7.364
 3181POPC   C1B41899  33.942  13.407   6.464
 3181POPC   C2B41900  33.946  13.497   6.764
 3181POPC   C3B41901  33.941  13.473   7.064
 3181POPC   C4B41902  33.965  13.460   7.364
 3182POPC   NC341903  12.836  24.517   5.564
 3182POPC   PO441904  12.885  24.533   5.864
 3182POPC   GL141905  12.811  24.532   6.164
 3182POPC   GL241906  12.967  24.532   6.164
 3182POPC   C1A41907  12.839  24.510   6.464
 3182POPC   D2A41908  12.838  24.487   6.764
 3182POPC   C3A41909  12.823  24.498   7.064
 3182POPC   C4A41910  12.821  24.493   7.364
 3182POPC   C1B41911  13.056  24.552   6.464
 3182POPC   C2B41912  13.069  24.497   6.764
 3182POPC   C3B41913  13.123  24.535   7.064
 3182POPC   C4B41914  13.094  24.531   7.364
 3183POPC   NC341915  27.583   2.000   5.564
 3183POPC   PO441916  27.618   1.999   5.864
 3183POPC   GL141917  27.621   1.968   6.164
 3183POPC   GL241918  27.494   2.092   6.164
 3183POPC   C1A41919  27.626   1.992   6.464
 3183POPC   D2A41920  27.643   1.999   6.764
 3183POPC   C3A41921  27.574   2.040   7.064
 3183POPC   C4A41922  27.624   2.016   7.364
 3183POPC   C1B41923  27.386   2.184   6.464
 3183POPC   C2B41924  27.356   2.165   6.764
 3183POPC   C3B41925  27.422   2.164   7.064
 3183POPC   C4B41926  27.352   2.113   7.364
 3184POPC   NC341927  29.128  31.475   5.564
 3184POPC   PO441928  29.114  31.423   5.864
 3184POPC   GL141929  29.138  31.433   6.164
 3184POPC   GL241930  29.199  31.561   6.164
 3184POPC   C1A41931  29.102  31.509   6.464
 3184POPC   D2A41932  29.131  31.456   6.764
 3184POPC   C3A41933  29.146  31.483   7.064
 3184POPC   C4A41934  29.147  31.489   7.364
 3184POPC   C1B41935  29.273  31.616   6.464
 3184POPC   C2B41936  29.288  31.620   6.764
 3184POPC   C3B41937  29.325  31.679   7.064
 3184POPC   C4B41938  29.370  31.656   7.364
 3185POPC   NC341939   7.399  13.670   5.564
 3185POPC   PO441940   7.383  13.612   5.864
 3185POPC   GL141941   7.439  13.661   6.164
 3185POPC   GL241942   7.445  13.498   6.164
 3185POPC   C1A41943   7.459  13.611   6.464
 3185POPC   D2A41944   7.400  13.615   6.764
 3185POPC   C3A41945   7.444  13.635   7.064
 3185POPC   C4A41946   7.446  13.612   7.364
 3185POPC   C1B41947   7.543  13.427   6.464
 3185POPC   C2B41948   7.566  13.435   6.764
 3185POPC   C3B41949   7.548  13.417   7.064
 3185POPC   C4B41950   7.568  13.397   7.364
 3186POPC   NC341951  34.565  33.045   5.564
 3186POPC   PO441952  34.557  33.055   5.864
 3186POPC   GL141953  34.618  33.017   6.164
 3186POPC   GL241954  34.549  32.898   6.164
 3186POPC   C1A41955  34.595  33.014   6.464
 3186POPC   D2A41956  34.582  33.000   6.764
 3186POPC   C3A41957  34.612  32.983   7.064
 3186POPC   C4A41958  34.573  33.029   7.364
 3186POPC   C1B41959  34.523  32.828   6.464
 3186POPC   C2B41960  34.525  32.834   6.764
 3186POPC   C3B41961  34.517  32.826   7.064
 3186POPC   C4B41962  34.435  32.778   7.364
 3187POPC   NC341963  12.858   0.479   5.564
 3187POPC   PO441964  12.805   0.457   5.864
 3187POPC   GL141965  12.826   0.438   6.164
 3187POPC   GL241966  12.746   0.373   6.164
 3187POPC   C1A41967  12.815   0.404   6.464
 3187POPC   D2A41968  12.811   0.401   6.764
 3187POPC   C3A41969  12.864   0.467   7.064
 3187POPC   C4A41970  12.807   0.405   7.364
 3187POPC   C1B41971  12.716   0.249   6.464
 3187POPC   C2B41972  12.686   0.222   6.764
 3187POPC   C3B41973  12.722   0.198   7.064
 3187POPC   C4B41974  12.702   0.205   7.364
 3188POPC   NC341975  14.402  23.740   5.564
 3188POPC   PO441976  14.417  23.681   5.864
 3188POPC   GL141977  14.407  23.731   6.164
 3188POPC   GL241978  14.559  23.702   6.164
 3188POPC   C1A41979  14.390  23.703   6.464
 3188POPC   D2A41980  14.439  23.725   6.764
 3188POPC   C3A41981  14.432  23.666   7.064
 3188POPC   C4A41982  14.373  23.666   7.364
 3188POPC   C1B41983  14.681  23.646   6.464
 3188POPC   C2B41984  14.637  23.722   6.764
 3188POPC   C3B41985  14.668  23.631   7.064
 3188POPC   C4B41986  14.610  23.657   7.364
 3189POPC   NC341987  23.754  36.937   5.564
 3189POPC   PO441988  23.755  36.914   5.864
 3189POPC   GL141989  23.736  36.862   6.164
 3189POPC   GL241990  23.680  36.739   6.164
 3189POPC   C1A41991  23.682  36.949   6.464
 3189POPC   D2A41992  23.750  36.906   6.764
 3189POPC   C3A41993  23.753  36.925   7.064
 3189POPC   C4A41994  23.758  36.892   7.364
 3189POPC   C1B41995  23.687  36.624   6.464
 3189POPC   C2B41996  23.693  36.646   6.764
 3189POPC   C3B41997  23.723  36.647   7.064
 3189POPC   C4B41998  23.678  36.628   7.364
 3190POPC   NC341999  32.199   6.623   5.564
 3190POPC   PO442000  32.217   6.689   5.864
 3190POPC   GL142001  32.245   6.689   6.164
 3190POPC   GL242002  32.191   6.753   6.164
 3190POPC   C1A42003  32.227   6.602   6.464
 3190POPC   D2A42004  32.222   6.616   6.764
 3190POPC   C3A42005  32.217   6.604   7.064
 3190POPC   C4A42006  32.254   6.618   7.364
 3190POPC   C1B42007  32.129   6.849   6.464
 3190POPC   C2B42008  32.075   6.866   6.764
 3190POPC   C3B42009  32.128   6.827   7.064
 3190POPC   C4B42010  32.078   6.814   7.364
 3191POPC   NC342011   0.410   8.936   5.564
 3191POPC   PO442012   0.428   8.928   5.864
 3191POPC   GL142013   0.444   8.992   6.164
 3191POPC   GL242014   0.396   9.081   6.164
 3191POPC   C1A42015   0.432   8.933   6.464
 3191POPC   D2A42016   0.421   8.985   6.764
 3191POPC   C3A42017   0.462   8.957   7.064
 3191POPC   C4A42018   0.420   9.000   7.364
 3191POPC   C1B42019   0.311   9.235   6.464
 3191POPC   C2B42020   0.408   9.206   6.764
 3191POPC   C3B42021   0.336   9.172   7.064
 3191POPC   C4B42022   0.372   9.227   7.364
 3192POPC   NC342023  14.437  14.407   5.564
 3192POPC   PO442024  14.382  14.381   5.864
 3192POPC   GL142025  14.418  14.377   6.164
 3192POPC   GL242026  14.480  14.386   6.164
 3192POPC   C1A42027  14.409  14.430   6.464
 3192POPC   D2A42028  14.385  14.376   6.764
 3192POPC   C3A42029  14.362  14.384   7.064
 3192POPC   C4A42030  14.435  14.366   7.364
 3192POPC   C1B42031  14.651  14.429   6.464
 3192POPC   C2B42032  14.694  14.457   6.764
 3192POPC   C3B42033  14.676  14.384   7.064
 3192POPC   C4B42034  14.695  14.458   7.364
 3193POPC   NC342035  32.980  22.970   5.564
 3193POPC   PO442036  33.068  22.896   5.864
 3193POPC   GL142037  33.042  22.908   6.164
 3193POPC   GL242038  32.885  22.956   6.164
 3193POPC   C1A42039  32.983  22.911   6.464
 3193POPC   D2A42040  33.071  22.951   6.764
 3193POPC   C3A42041  33.009  22.901   7.064
 3193POPC   C4A42042  33.071  22.916   7.364
 3193POPC   C1B42043  32.808  22.894   6.464
 3193POPC   C2B42044  32.763  22.911   6.764
 3193POPC   C3B42045  32.775  22.883   7.064
 3193POPC   C4B42046  32.820  22.876   7.364
 3194POPC   NC342047   6.598   5.052   5.564
 3194POPC   PO442048   6.655   5.117   5.864
 3194POPC   GL142049   6.630   5.104   6.164
 3194POPC   GL242050   6.594   5.171   6.164
 3194POPC   C1A42051   6.646   5.111   6.464
 3194POPC   D2A42052   6.675   5.130   6.764
 3194POPC   C3A42053   6.596   5.094   7.064
 3194POPC   C4A42054   6.686   5.076   7.364
 3194POPC   C1B42055   6.590   5.353   6.464
 3194POPC   C2B42056   6.525   5.379   6.764
 3194POPC   C3B42057   6.545   5.303   7.064
 3194POPC   C4B42058   6.574   5.368   7.364
 3195POPC   NC342059  40.744  26.064   5.564
 3195POPC   PO442060  40.804  26.043   5.864
 3195POPC   GL142061  40.820  26.034   6.164
 3195POPC   GL242062  40.662  25.972   6.164
 3195POPC   C1A42063  40.780  26.091   6.464
 3195POPC   D2A42064  40.770  26.070   6.764
 3195POPC   C3A42065  40.758  26.081   7.064
 3195POPC   C4A42066  40.788  26.076   7.364
 3195POPC   C1B42067  40.589  25.910   6.464
 3195POPC   C2B42068  40.598  25.971   6.764
 3195POPC   C3B42069  40.605  25.937   7.064
 3195POPC   C4B42070  40.603  25.905   7.364
 3196POPC   NC342071  42.328  40.016   5.564
 3196POPC   PO442072  42.377  39.996   5.864
 3196POPC   GL142073  42.291  40.021   6.164
 3196POPC   GL242074  42.449  40.103   6.164
 3196POPC   C1A42075  42.304  40.007   6.464
 3196POPC   D2A42076  42.374  39.984   6.764
 3196POPC   C3A42077  42.368  40.037   7.064
 3196POPC   C4A42078  42.314  39.984   7.364
 3196POPC   C1B42079  42.542  40.085   6.464
 3196POPC   C2B42080  42.552  40.147   6.764
 3196POPC   C3B42081  42.545  40.054   7.064
 3196POPC   C4B42082  42.604  40.094   7.364
 3197POPC   NC342083   1.259   7.443   5.564
 3197POPC   PO442084   1.256   7.391   5.864
 3197POPC   GL142085   1.164   7.461   6.164
 3197POPC   GL242086   1.127   7.305   6.164
 3197POPC   C1A42087   1.179   7.423   6.464
 3197POPC   D2A42088   1.239   7.442   6.764
 3197POPC   C3A42089   1.239   7.396   7.064
 3197POPC   C4A42090   1.210   7.459   7.364
 3197POPC   C1B42091   1.102   7.231   6.464
 3197POPC   C2B42092   1.018   7.230   6.764
 3197POPC   C3B42093   1.016   7.241   7.064
 3197POPC   C4B42094   1.003   7.183   7.364
 3198POPC   NC342095  22.971  29.117   5.564
 3198POPC   PO442096  22.963  29.098   5.864
 3198POPC   GL142097  22.951  29.144   6.164
 3198POPC   GL242098  22.935  28.997   6.164
 3198POPC   C1A42099  22.987  29.137   6.464
 3198POPC   D2A42100  22.948  29.117   6.764
 3198POPC   C3A42101  22.905  29.125   7.064
 3198POPC   C4A42102  22.982  29.112   7.364
 3198POPC   C1B42103  22.869  28.886   6.464
 3198POPC   C2B42104  22.898  28.898   6.764
 3198POPC   C3B42105  22.875  28.881   7.064
 3198POPC   C4B42106  22.916  28.889   7.364
 3199POPC   NC342107   1.228  36.943   5.564
 3199POPC   PO442108   1.171  36.855   5.864
 3199POPC   GL142109   1.226  36.914   6.164
 3199POPC   GL242110   1.304  36.801   6.164
 3199POPC   C1A42111   1.257  36.909   6.464
 3199POPC   D2A42112   1.192  36.929   6.764
 3199POPC   C3A42113   1.217  36.864   7.064
 3199POPC   C4A42114   1.230  36.863   7.364
 3199POPC   C1B42115   1.327  36.668   6.464
 3199POPC   C2B42116   1.404  36.725   6.764
 3199POPC   C3B42117   1.343  36.662   7.064
 3199POPC   C4B42118   1.385  36.734   7.364
 3200POPC   NC342119   9.774  19.856   5.564
 3200POPC   PO442120   9.729  19.853   5.864
 3200POPC   GL142121   9.701  19.867   6.164
 3200POPC   GL242122   9.825  19.824   6.164
 3200POPC   C1A42123   9.731  19.801   6.464
 3200POPC   D2A42124   9.748  19.875   6.764
 3200POPC   C3A42125   9.789  19.882   7.064
 3200POPC   C4A42126   9.718  19.813   7.364
 3200POPC   C1B42127   9.972  19.922   6.464
 3200POPC   C2B42128  10.013  19.889   6.764
 3200POPC   C3B42129  10.041  19.916   7.064
 3200POPC   C4B42130   9.975  19.907   7.364
 3201POPC   NC342131   5.129   5.059   5.564
 3201POPC   PO442132   5.119   5.095   5.864
 3201POPC   GL142133   5.075   5.073   6.164
 3201POPC   GL242134   5.153   5.252   6.164
 3201POPC   C1A42135   5.103   5.061   6.464
 3201POPC   D2A42136   5.114   5.077   6.764
 3201POPC   C3A42137   5.054   5.076   7.064
 3201POPC   C4A42138   5.045   5.053   7.364
 3201POPC   C1B42139   5.195   5.305   6.464
 3201POPC   C2B42140   5.181   5.307   6.764
 3201POPC   C3B42141   5.162   5.291   7.064
 3201POPC   C4B42142   5.121   5.375   7.364
 3202POPC   NC342143  33.004  35.312   5.564
 3202POPC   PO442144  33.068  35.385   5.864
 3202POPC   GL142145  33.001  35.388   6.164
 3202POPC   GL242146  33.115  35.250   6.164
 3202POPC   C1A42147  33.040  35.380   6.464
 3202POPC   D2A42148  33.004  35.378   6.764
 3202POPC   C3A42149  33.003  35.364   7.064
 3202POPC   C4A42150  33.068  35.362   7.364
 3202POPC   C1B42151  33.164  35.188   6.464
 3202POPC   C2B42152  33.171  35.165   6.764
 3202POPC   C3B42153  33.176  35.128   7.064
 3202POPC   C4B42154  33.228  35.162   7.364
 3203POPC   NC342155  25.995  16.731   5.564
 3203POPC   PO442156  26.030  16.747   5.864
 3203POPC   GL142157  26.067  16.773   6.164
 3203POPC   GL242158  26.097  16.847   6.164
 3203POPC   C1A42159  25.995  16.760   6.464
 3203POPC   D2A42160  26.022  16.755   6.764
 3203POPC   C3A42161  26.036  16.760   7.064
 3203POPC   C4A42162  26.031  16.698   7.364
 3203POPC   C1B42163  26.289  16.864   6.464
 3203POPC   C2B42164  26.230  16.878   6.764
 3203POPC   C3B42165  26.221  16.893   7.064
 3203POPC   C4B42166  26.212  16.834   7.364
 3204POPC   NC342167  12.834  38.500   5.564
 3204POPC   PO442168  12.898  38.505   5.864
 3204POPC   GL142169  12.822  38.451   6.164
 3204POPC   GL242170  12.869  38.347   6.164
 3204POPC   C1A42171  12.832  38.438   6.464
 3204POPC   D2A42172  12.883  38.405   6.764
 3204POPC   C3A42173  12.879  38.415   7.064
 3204POPC   C4A42174  12.890  38.475   7.364
 3204POPC   C1B42175  12.803  38.200   6.464
 3204POPC   C2B42176  12.761  38.207   6.764
 3204POPC   C3B42177  12.759  38.222   7.064
 3204POPC   C4B42178  12.826  38.230   7.364
 3205POPC   NC342179   9.769  14.363   5.564
 3205POPC   PO442180   9.784  14.387   5.864
 3205POPC   GL142181   9.766  14.435   6.164
 3205POPC   GL242182   9.609  14.361   6.164
 3205POPC   C1A42183   9.712  14.409   6.464
 3205POPC   D2A42184   9.777  14.415   6.764
 3205POPC   C3A42185   9.743  14.377   7.064
 3205POPC   C4A42186   9.728  14.445   7.364
 3205POPC   C1B42187   9.451  14.376   6.464
 3205POPC   C2B42188   9.450  14.379   6.764
 3205POPC   C3B42189   9.546  14.348   7.064
 3205POPC   C4B42190   9.466  14.423   7.364
 3206POPC   NC342191   3.574   1.958   5.564
 3206POPC   PO442192   3.521   2.015   5.864
 3206POPC   GL142193   3.537   2.000   6.164
 3206POPC   GL242194   3.680   2.006   6.164
 3206POPC   C1A42195   3.548   2.025   6.464
 3206POPC   D2A42196   3.518   2.036   6.764
 3206POPC   C3A42197   3.550   2.009   7.064
 3206POPC   C4A42198   3.552   1.968   7.364
 3206POPC   C1B42199   3.824   2.054   6.464
 3206POPC   C2B42200   3.792   2.100   6.764
 3206POPC   C3B42201   3.793   2.021   7.064
 3206POPC   C4B42202   3.823   2.097   7.364
 3207POPC   NC342203  10.536  19.020   5.564
 3207POPC   PO442204  10.488  19.012   5.864
 3207POPC   GL142205  10.546  19.024   6.164
 3207POPC   GL242206  10.441  19.087   6.164
 3207POPC   C1A42207  10.549  19.010   6.464
 3207POPC   D2A42208  10.493  19.062   6.764
 3207POPC   C3A42209  10.539  19.061   7.064
 3207POPC   C4A42210  10.551  19.105   7.364
 3207POPC   C1B42211  10.301  19.166   6.464
 3207POPC   C2B42212  10.352  19.132   6.764
 3207POPC   C3B42213  10.300  19.215   7.064
 3207POPC   C4B42214  10.310  19.132   7.364
 3208POPC   NC342215   6.665  42.344   5.564
 3208POPC   PO442216   6.604  42.329   5.864
 3208POPC   GL142217   6.676  42.334   6.164
 3208POPC   GL242218   6.599  42.203   6.164
 3208POPC   C1A42219   6.615  42.296   6.464
 3208POPC   D2A42220   6.603  42.346   6.764
 3208POPC   C3A42221   6.684  42.329   7.064
 3208POPC   C4A42222   6.679  42.343   7.364
 3208POPC   C1B42223   6.605  42.092   6.464
 3208POPC   C2B42224   6.563  42.098   6.764
 3208POPC   C3B42225   6.567  42.060   7.064
 3208POPC   C4B42226   6.573  42.078   7.364
 3209POPC   NC342227   5.883  19.026   5.564
 3209POPC   PO442228   5.855  19.060   5.864
 3209POPC   GL142229   5.853  19.067   6.164
 3209POPC   GL242230   5.765  18.923   6.164
 3209POPC   C1A42231   5.851  19.062   6.464
 3209POPC   D2A42232   5.868  19.069   6.764
 3209POPC   C3A42233   5.881  19.082   7.064
 3209POPC   C4A42234   5.896  19.078   7.364
 3209POPC   C1B42235   5.774  18.816   6.464
 3209POPC   C2B42236   5.749  18.885   6.764
 3209POPC   C3B42237   5.802  18.860   7.064
 3209POPC   C4B42238   5.799  18.833   7.364
 3210POPC   NC342239  28.330  11.329   5.564
 3210POPC   PO442240  28.344  11.319   5.864
 3210POPC   GL142241  28.393  11.346   6.164
 3210POPC   GL242242  28.446  11.181   6.164
 3210POPC   C1A42243  28.384  11.341   6.464
 3210POPC   D2A42244  28.392  11.285   6.764
 3210POPC   C3A42245  28.411  11.326   7.064
 3210POPC   C4A42246  28.354  11.280   7.364
 3210POPC   C1B42247  28.451  11.116   6.464
 3210POPC   C2B42248  28.523  11.056   6.764
 3210POPC   C3B42249  28.433  11.081   7.064
 3210POPC   C4B42250  28.517  11.100   7.364
 3211POPC   NC342251   5.854  25.249   5.564
 3211POPC   PO442252   5.902  25.308   5.864
 3211POPC   GL142253   5.837  25.218   6.164
 3211POPC   GL242254   5.974  25.312   6.164
 3211POPC   C1A42255   5.905  25.275   6.464
 3211POPC   D2A42256   5.857  25.278   6.764
 3211POPC   C3A42257   5.833  25.235   7.064
 3211POPC   C4A42258   5.865  25.247   7.364
 3211POPC   C1B42259   6.116  25.356   6.464
 3211POPC   C2B42260   6.100  25.388   6.764
 3211POPC   C3B42261   6.131  25.374   7.064
 3211POPC   C4B42262   6.049  25.371   7.364
 3212POPC   NC342263  36.886  33.826   5.564
 3212POPC   PO442264  36.868  33.779   5.864
 3212POPC   GL142265  36.900  33.810   6.164
 3212POPC   GL242266  36.943  33.687   6.164
 3212POPC   C1A42267  36.926  33.849   6.464
 3212POPC   D2A42268  36.920  33.764   6.764
 3212POPC   C3A42269  36.953  33.838   7.064
 3212POPC   C4A42270  36.932  33.780   7.364
 3212POPC   C1B42271  37.027  33.667   6.464
 3212POPC   C2B42272  37.081  33.637   6.764
 3212POPC   C3B42273  37.101  33.596   7.064
 3212POPC   C4B42274  37.096  33.660   7.364
 3213POPC   NC342275  39.197  27.618   5.564
 3213POPC   PO442276  39.228  27.576   5.864
 3213POPC   GL142277  39.280  27.635   6.164
 3213POPC   GL242278  39.328  27.510   6.164
 3213POPC   C1A42279  39.187  27.591   6.464
 3213POPC   D2A42280  39.196  27.598   6.764
 3213POPC   C3A42281  39.278  27.583   7.064
 3213POPC   C4A42282  39.267  27.611   7.364
 3213POPC   C1B42283  39.440  27.471   6.464
 3213POPC   C2B42284  39.465  27.459   6.764
 3213POPC   C3B42285  39.468  27.499   7.064
 3213POPC   C4B42286  39.490  27.481   7.364
 3214POPC   NC342287  41.572  15.222   5.564
 3214POPC   PO442288  41.581  15.225   5.864
 3214POPC   GL142289  41.531  15.139   6.164
 3214POPC   GL242290  41.542  15.342   6.164
 3214POPC   C1A42291  41.547  15.220   6.464
 3214POPC   D2A42292  41.550  15.150   6.764
 3214POPC   C3A42293  41.559  15.201   7.064
 3214POPC   C4A42294  41.561  15.166   7.364
 3214POPC   C1B42295  41.535  15.422   6.464
 3214POPC   C2B42296  41.479  15.380   6.764
 3214POPC   C3B42297  41.535  15.395   7.064
 3214POPC   C4B42298  41.522  15.412   7.364
 3215POPC   NC342299  33.818  33.034   5.564
 3215POPC   PO442300  33.800  32.981   5.864
 3215POPC   GL142301  33.770  32.988   6.164
 3215POPC   GL242302  33.695  33.159   6.164
 3215POPC   C1A42303  33.808  32.994   6.464
 3215POPC   D2A42304  33.765  32.990   6.764
 3215POPC   C3A42305  33.843  33.009   7.064
 3215POPC   C4A42306  33.846  33.039   7.364
 3215POPC   C1B42307  33.652  33.210   6.464
 3215POPC   C2B42308  33.621  33.218   6.764
 3215POPC   C3B42309  33.718  33.214   7.064
 3215POPC   C4B42310  33.620  33.206   7.364
 3216POPC   NC342311  13.617  25.219   5.564
 3216POPC   PO442312  13.658  25.268   5.864
 3216POPC   GL142313  13.585  25.254   6.164
 3216POPC   GL242314  13.780  25.232   6.164
 3216POPC   C1A42315  13.631  25.256   6.464
 3216POPC   D2A42316  13.676  25.271   6.764
 3216POPC   C3A42317  13.654  25.235   7.064
 3216POPC   C4A42318  13.587  25.311   7.364
 3216POPC   C1B42319  13.925  25.214   6.464
 3216POPC   C2B42320  13.871  25.274   6.764
 3216POPC   C3B42321  13.869  25.251   7.064
 3216POPC   C4B42322  13.871  25.221   7.364
 3217POPC   NC342323  11.321  35.322   5.564
 3217POPC   PO442324  11.312  35.351   5.864
 3217POPC   GL142325  11.264  35.399   6.164
 3217POPC   GL242326  11.363  35.491   6.164
 3217POPC   C1A42327  11.326  35.387   6.464
 3217POPC   D2A42328  11.325  35.391   6.764
 3217POPC   C3A42329  11.316  35.308   7.064
 3217POPC   C4A42330  11.349  35.351   7.364
 3217POPC   C1B42331  11.394  35.630   6.464
 3217POPC   C2B42332  11.336  35.569   6.764
 3217POPC   C3B42333  11.341  35.622   7.064
 3217POPC   C4B42334  11.384  35.635   7.364
 3218POPC   NC342335  14.395  12.900   5.564
 3218POPC   PO442336  14.386  12.802   5.864
 3218POPC   GL142337  14.422  12.853   6.164
 3218POPC   GL242338  14.246  12.921   6.164
 3218POPC   C1A42339  14.380  12.805   6.464
 3218POPC   D2A42340  14.381  12.817   6.764
 3218POPC   C3A42341  14.395  12.848   7.064
 3218POPC   C4A42342  14.428  12.854   7.364
 3218POPC   C1B42343  14.181  12.902   6.464
 3218POPC   C2B42344  14.164  12.853   6.764
 3218POPC   C3B42345  14.188  12.901   7.064
 3218POPC   C4B42346  14.176  12.913   7.364
 3219POPC   NC342347  12.841   7.457   5.564
 3219POPC   PO442348  12.862   7.404   5.864
 3219POPC   GL142349  12.897   7.437   6.164
 3219POPC   GL242350  12.938   7.442   6.164
 3219POPC   C1A42351  12.880   7.469   6.464
 3219POPC   D2A42352  12.852   7.470   6.764
 3219POPC   C3A42353  12.872   7.419   7.064
 3219POPC   C4A42354  12.805   7.373   7.364
 3219POPC   C1B42355  13.117   7.384   6.464
 3219POPC   C2B42356  13.080   7.368   6.764
 3219POPC   C3B42357  13.090   7.430   7.064
 3219POPC   C4B42358  13.086   7.416   7.364
 3220POPC   NC342359  19.859   1.254   5.564
 3220POPC   PO442360  19.797   1.200   5.864
 3220POPC   GL142361  19.858   1.183   6.164
 3220POPC   GL242362  19.819   1.375   6.164
 3220POPC   C1A42363  19.796   1.260   6.464
 3220POPC   D2A42364  19.830   1.182   6.764
 3220POPC   C3A42365  19.788   1.242   7.064
 3220POPC   C4A42366  19.825   1.204   7.364
 3220POPC   C1B42367  19.803   1.409   6.464
 3220POPC   C2B42368  19.746   1.441   6.764
 3220POPC   C3B42369  19.744   1.464   7.064
 3220POPC   C4B42370  19.813   1.415   7.364
 3221POPC   NC342371  13.583  26.052   5.564
 3221POPC   PO442372  13.635  26.081   5.864
 3221POPC   GL142373  13.607  26.077   6.164
 3221POPC   GL242374  13.644  25.877   6.164
 3221POPC   C1A42375  13.635  26.088   6.464
 3221POPC   D2A42376  13.583  26.024   6.764
 3221POPC   C3A42377  13.667  26.059   7.064
 3221POPC   C4A42378  13.610  26.061   7.364
 3221POPC   C1B42379  13.688  25.751   6.464
 3221POPC   C2B42380  13.611  25.835   6.764
 3221POPC   C3B42381  13.690  25.760   7.064
 3221POPC   C4B42382  13.651  25.842   7.364
 3222POPC   NC342383  29.939  19.036   5.564
 3222POPC   PO442384  29.963  19.022   5.864
 3222POPC   GL142385  29.928  19.033   6.164
 3222POPC   GL242386  30.044  19.011   6.164
 3222POPC   C1A42387  29.963  19.079   6.464
 3222POPC   D2A42388  29.951  19.053   6.764
 3222POPC   C3A42389  29.927  19.064   7.064
 3222POPC   C4A42390  29.898  19.062   7.364
 3222POPC   C1B42391  30.151  19.015   6.464
 3222POPC   C2B42392  30.115  18.961   6.764
 3222POPC   C3B42393  30.106  18.957   7.064
 3222POPC   C4B42394  30.144  18.935   7.364
 3223POPC   NC342395  41.601  22.938   5.564
 3223POPC   PO442396  41.512  22.936   5.864
 3223POPC   GL142397  41.578  22.899   6.164
 3223POPC   GL242398  41.587  23.053   6.164
 3223POPC   C1A42399  41.592  22.976   6.464
 3223POPC   D2A42400  41.571  22.921   6.764
 3223POPC   C3A42401  41.567  22.967   7.064
 3223POPC   C4A42402  41.562  22.950   7.364
 3223POPC   C1B42403  41.675  23.199   6.464
 3223POPC   C2B42404  41.652  23.122   6.764
 3223POPC   C3B42405  41.697  23.134   7.064
 3223POPC   C4B42406  41.695  23.138   7.364
 3224POPC   NC342407  26.832  43.839   5.564
 3224POPC   PO442408  26.785  43.862   5.864
 3224POPC   GL142409  26.846  43.848   6.164
 3224POPC   GL242410  26.778  43.722   6.164
 3224POPC   C1A42411  26.857  43.884   6.464
 3224POPC   D2A42412  26.859  43.903   6.764
 3224POPC   C3A42413  26.832  43.880   7.064
 3224POPC   C4A42414  26.852  43.893   7.364
 3224POPC   C1B42415  26.792  43.652   6.464
 3224POPC   C2B42416  26.749  43.652   6.764
 3224POPC   C3B42417  26.795  43.629   7.064
 3224POPC   C4B42418  26.822  43.624   7.364
 3225POPC   NC342419  40.043  31.476   5.564
 3225POPC   PO442420  40.026  31.443   5.864
 3225POPC   GL142421  40.019  31.511   6.164
 3225POPC   GL242422  39.882  31.424   6.164
 3225POPC   C1A42423  39.978  31.428   6.464
 3225POPC   D2A42424  39.992  31.490   6.764
 3225POPC   C3A42425  40.011  31.457   7.064
 3225POPC   C4A42426  39.982  31.452   7.364
 3225POPC   C1B42427  39.810  31.334   6.464
 3225POPC   C2B42428  39.794  31.306   6.764
 3225POPC   C3B42429  39.806  31.246   7.064
 3225POPC   C4B42430  39.867  31.280   7.364
 3226POPC   NC342431   2.786  24.490   5.564
 3226POPC   PO442432   2.745  24.529   5.864
 3226POPC   GL142433   2.724  24.524   6.164
 3226POPC   GL242434   2.620  24.548   6.164
 3226POPC   C1A42435   2.764  24.473   6.464
 3226POPC   D2A42436   2.808  24.449   6.764
 3226POPC   C3A42437   2.734  24.495   7.064
 3226POPC   C4A42438   2.721  24.444   7.364
 3226POPC   C1B42439   2.528  24.630   6.464
 3226POPC   C2B42440   2.604  24.589   6.764
 3226POPC   C3B42441   2.540  24.632   7.064
 3226POPC   C4B42442   2.515  24.658   7.364
 3227POPC   NC342443  37.720  37.726   5.564
 3227POPC   PO442444  37.631  37.651   5.864
 3227POPC   GL142445  37.635  37.661   6.164
 3227POPC   GL242446  37.618  37.519   6.164
 3227POPC   C1A42447  37.719  37.632   6.464
 3227POPC   D2A42448  37.637  37.699   6.764
 3227POPC   C3A42449  37.728  37.676   7.064
 3227POPC   C4A42450  37.632  37.660   7.364
 3227POPC   C1B42451  37.677  37.443   6.464
 3227POPC   C2B42452  37.585  37.432   6.764
 3227POPC   C3B42453  37.612  37.386   7.064
 3227POPC   C4B42454  37.617  37.413   7.364
 3228POPC   NC342455  17.478  15.934   5.564
 3228POPC   PO442456  17.523  15.993   5.864
 3228POPC   GL142457  17.491  15.917   6.164
 3228POPC   GL242458  17.476  16.091   6.164
 3228POPC   C1A42459  17.483  15.955   6.464
 3228POPC   D2A42460  17.546  15.916   6.764
 3228POPC   C3A42461  17.487  15.960   7.064
 3228POPC   C4A42462  17.480  15.912   7.364
 3228POPC   C1B42463  17.485  16.186   6.464
 3228POPC   C2B42464  17.504  16.252   6.764
 3228POPC   C3B42465  17.556  16.195   7.064
 3228POPC   C4B42466  17.485  16.222   7.364
 3229POPC   NC342467  24.476  26.822   5.564
 3229POPC   PO442468  24.447  26.783   5.864
 3229POPC   GL142469  24.520  26.865   6.164
 3229POPC   GL242470  24.573  26.932   6.164
 3229POPC   C1A42471  24.497  26.862   6.464
 3229POPC   D2A42472  24.531  26.793   6.764
 3229POPC   C3A42473  24.482  26.783   7.064
 3229POPC   C4A42474  24.450  26.858   7.364
 3229POPC   C1B42475  24.561  27.024   6.464
 3229POPC   C2B42476  24.637  27.009   6.764
 3229POPC   C3B42477  24.585  27.011   7.064
 3229POPC   C4B42478  24.578  27.041   7.364
 3230POPC   NC342479  22.909  39.181   5.564
 3230POPC   PO442480  22.920  39.220   5.864
 3230POPC   GL142481  22.961  39.195   6.164
 3230POPC   GL242482  23.016  39.083   6.164
 3230POPC   C1A42483  22.908  39.209   6.464
 3230POPC   D2A42484  22.889  39.280   6.764
 3230POPC   C3A42485  22.943  39.249   7.064
 3230POPC   C4A42486  22.944  39.185   7.364
 3230POPC   C1B42487  23.041  39.047   6.464
 3230POPC   C2B42488  23.047  39.018   6.764
 3230POPC   C3B42489  23.101  39.075   7.064
 3230POPC   C4B42490  23.127  38.997   7.364
 3231POPC   NC342491  19.089  10.477   5.564
 3231POPC   PO442492  19.098  10.499   5.864
 3231POPC   GL142493  19.019  10.535   6.164
 3231POPC   GL242494  18.936  10.452   6.164
 3231POPC   C1A42495  19.101  10.486   6.464
 3231POPC   D2A42496  19.080  10.526   6.764
 3231POPC   C3A42497  19.046  10.511   7.064
 3231POPC   C4A42498  19.044  10.526   7.364
 3231POPC   C1B42499  18.780  10.417   6.464
 3231POPC   C2B42500  18.810  10.423   6.764
 3231POPC   C3B42501  18.790  10.446   7.064
 3231POPC   C4B42502  18.782  10.393   7.364
 3232POPC   NC342503  12.826   6.653   5.564
 3232POPC   PO442504  12.883   6.684   5.864
 3232POPC   GL142505  12.870   6.664   6.164
 3232POPC   GL242506  12.829   6.782   6.164
 3232POPC   C1A42507  12.900   6.664   6.464
 3232POPC   D2A42508  12.803   6.629   6.764
 3232POPC   C3A42509  12.857   6.654   7.064
 3232POPC   C4A42510  12.882   6.643   7.364
 3232POPC   C1B42511  12.722   6.926   6.464
 3232POPC   C2B42512  12.749   6.845   6.764
 3232POPC   C3B42513  12.775   6.874   7.064
 3232POPC   C4B42514  12.783   6.863   7.364
 3233POPC   NC342515  21.361  27.573   5.564
 3233POPC   PO442516  21.339  27.605   5.864
 3233POPC   GL142517  21.365  27.549   6.164
 3233POPC   GL242518  21.302  27.734   6.164
 3233POPC   C1A42519  21.393  27.593   6.464
 3233POPC   D2A42520  21.400  27.544   6.764
 3233POPC   C3A42521  21.349  27.621   7.064
 3233POPC   C4A42522  21.395  27.577   7.364
 3233POPC   C1B42523  21.268  27.753   6.464
 3233POPC   C2B42524  21.217  27.818   6.764
 3233POPC   C3B42525  21.225  27.813   7.064
 3233POPC   C4B42526  21.182  27.738   7.364
 3234POPC   NC342527  30.693  22.957   5.564
 3234POPC   PO442528  30.715  22.932   5.864
 3234POPC   GL142529  30.679  22.949   6.164
 3234POPC   GL242530  30.623  23.014   6.164
 3234POPC   C1A42531  30.660  22.912   6.464
 3234POPC   D2A42532  30.662  22.939   6.764
 3234POPC   C3A42533  30.741  22.967   7.064
 3234POPC   C4A42534  30.683  22.956   7.364
 3234POPC   C1B42535  30.549  23.140   6.464
 3234POPC   C2B42536  30.568  23.178   6.764
 3234POPC   C3B42537  30.599  23.160   7.064
 3234POPC   C4B42538  30.587  23.128   7.364
 3235POPC   NC342539   5.048  26.820   5.564
 3235POPC   PO442540   5.049  26.786   5.864
 3235POPC   GL142541   5.142  26.855   6.164
 3235POPC   GL242542   5.249  26.891   6.164
 3235POPC   C1A42543   5.125  26.865   6.464
 3235POPC   D2A42544   5.119  26.813   6.764
 3235POPC   C3A42545   5.088  26.810   7.064
 3235POPC   C4A42546   5.059  26.811   7.364
 3235POPC   C1B42547   5.326  26.925   6.464
 3235POPC   C2B42548   5.289  26.901   6.764
 3235POPC   C3B42549   5.293  26.888   7.064
 3235POPC   C4B42550   5.288  26.898   7.364
 3236POPC   NC342551   2.014   8.152   5.564
 3236POPC   PO442552   2.039   8.218   5.864
 3236POPC   GL142553   2.004   8.163   6.164
 3236POPC   GL242554   2.107   8.065   6.164
 3236POPC   C1A42555   1.996   8.219   6.464
 3236POPC   D2A42556   2.003   8.167   6.764
 3236POPC   C3A42557   1.998   8.246   7.064
 3236POPC   C4A42558   1.961   8.195   7.364
 3236POPC   C1B42559   2.153   8.002   6.464
 3236POPC   C2B42560   2.189   8.077   6.764
 3236POPC   C3B42561   2.158   7.986   7.064
 3236POPC   C4B42562   2.126   7.979   7.364
 3237POPC   NC342563  19.810  27.572   5.564
 3237POPC   PO442564  19.868  27.643   5.864
 3237POPC   GL142565  19.821  27.585   6.164
 3237POPC   GL242566  19.979  27.580   6.164
 3237POPC   C1A42567  19.818  27.562   6.464
 3237POPC   D2A42568  19.850  27.545   6.764
 3237POPC   C3A42569  19.828  27.545   7.064
 3237POPC   C4A42570  19.837  27.603   7.364
 3237POPC   C1B42571  20.048  27.525   6.464
 3237POPC   C2B42572  20.107  27.588   6.764
 3237POPC   C3B42573  20.098  27.556   7.064
 3237POPC   C4B42574  20.072  27.570   7.364
 3238POPC   NC342575  28.335   1.261   5.564
 3238POPC   PO442576  28.352   1.193   5.864
 3238POPC   GL142577  28.404   1.225   6.164
 3238POPC   GL242578  28.349   1.111   6.164
 3238POPC   C1A42579  28.350   1.169   6.464
 3238POPC   D2A42580  28.352   1.183   6.764
 3238POPC   C3A42581  28.416   1.189   7.064
 3238POPC   C4A42582  28.376   1.251   7.364
 3238POPC   C1B42583  28.370   0.971   6.464
 3238POPC   C2B42584  28.425   0.989   6.764
 3238POPC   C3B42585  28.451   0.930   7.064
 3238POPC   C4B42586  28.412   0.963   7.364
 3239POPC   NC342587   0.473  39.269   5.564
 3239POPC   PO442588   0.467  39.186   5.864
 3239POPC   GL142589   0.487  39.255   6.164
 3239POPC   GL242590   0.538  39.233   6.164
 3239POPC   C1A42591   0.410  39.241   6.464
 3239POPC   D2A42592   0.437  39.221   6.764
 3239POPC   C3A42593   0.474  39.243   7.064
 3239POPC   C4A42594   0.430  39.251   7.364
 3239POPC   C1B42595   0.690  39.308   6.464
 3239POPC   C2B42596   0.685  39.276   6.764
 3239POPC   C3B42597   0.673  39.278   7.064
 3239POPC   C4B42598   0.654  39.319   7.364
 3240POPC   NC342599  23.692  12.052   5.564
 3240POPC   PO442600  23.749  12.041   5.864
 3240POPC   GL142601  23.682  12.039   6.164
 3240POPC   GL242602  23.834  12.122   6.164
 3240POPC   C1A42603  23.674  12.064   6.464
 3240POPC   D2A42604  23.671  12.079   6.764
 3240POPC   C3A42605  23.746  12.064   7.064
 3240POPC   C4A42606  23.733  12.052   7.364
 3240POPC   C1B42607  23.921  12.275   6.464
 3240POPC   C2B42608  23.873  12.293   6.764
 3240POPC   C3B42609  23.853  12.220   7.064
 3240POPC   C4B42610  23.893  12.232   7.364
 3241POPC   NC342611  11.258  10.517   5.564
 3241POPC   PO442612  11.284  10.535   5.864
 3241POPC   GL142613  11.305  10.492   6.164
 3241POPC   GL242614  11.430  10.523   6.164
 3241POPC   C1A42615  11.302  10.524   6.464
 3241POPC   D2A42616  11.272  10.550   6.764
 3241POPC   C3A42617  11.279  10.532   7.064
 3241POPC   C4A42618  11.292  10.536   7.364
 3241POPC   C1B42619  11.574  10.478   6.464
 3241POPC   C2B42620  11.557  10.482   6.764
 3241POPC   C3B42621  11.571  10.570   7.064
 3241POPC   C4B42622  11.584  10.562   7.364
 3242POPC   NC342623   5.853  15.217   5.564
 3242POPC   PO442624   5.907  15.167   5.864
 3242POPC   GL142625   5.833  15.139   6.164
 3242POPC   GL242626   5.776  15.112   6.164
 3242POPC   C1A42627   5.836  15.189   6.464
 3242POPC   D2A42628   5.854  15.224   6.764
 3242POPC   C3A42629   5.879  15.163   7.064
 3242POPC   C4A42630   5.906  15.210   7.364
 3242POPC   C1B42631   5.742  14.967   6.464
 3242POPC   C2B42632   5.728  14.928   6.764
 3242POPC   C3B42633   5.706  14.987   7.064
 3242POPC   C4B42634   5.770  15.017   7.364
 3243POPC   NC342635  41.531  30.696   5.564
 3243POPC   PO442636  41.571  30.716   5.864
 3243POPC   GL142637  41.573  30.688   6.164
 3243POPC   GL242638  41.673  30.729   6.164
 3243POPC   C1A42639  41.515  30.705   6.464
 3243POPC   D2A42640  41.580  30.648   6.764
 3243POPC   C3A42641  41.519  30.719   7.064
 3243POPC   C4A42642  41.570  30.714   7.364
 3243POPC   C1B42643  41.815  30.785   6.464
 3243POPC   C2B42644  41.760  30.790   6.764
 3243POPC   C3B42645  41.801  30.801   7.064
 3243POPC   C4B42646  41.842  30.785   7.364
 3244POPC   NC342647  36.155  19.825   5.564
 3244POPC   PO442648  36.093  19.863   5.864
 3244POPC   GL142649  36.131  19.814   6.164
 3244POPC   GL242650  36.207  19.772   6.164
 3244POPC   C1A42651  36.143  19.852   6.464
 3244POPC   D2A42652  36.129  19.831   6.764
 3244POPC   C3A42653  36.097  19.837   7.064
 3244POPC   C4A42654  36.127  19.811   7.364
 3244POPC   C1B42655  36.371  19.747   6.464
 3244POPC   C2B42656  36.343  19.834   6.764
 3244POPC   C3B42657  36.340  19.829   7.064
 3244POPC   C4B42658  36.398  19.741   7.364
 3245POPC   NC342659  36.120  23.746   5.564
 3245POPC   PO442660  36.168  23.750   5.864
 3245POPC   GL142661  36.108  23.709   6.164
 3245POPC   GL242662  36.185  23.551   6.164
 3245POPC   C1A42663  36.161  23.737   6.464
 3245POPC   D2A42664  36.128  23.712   6.764
 3245POPC   C3A42665  36.103  23.756   7.064
 3245POPC   C4A42666  36.079  23.703   7.364
 3245POPC   C1B42667  36.112  23.514   6.464
 3245POPC   C2B42668  36.174  23.463   6.764
 3245POPC   C3B42669  36.196  23.420   7.064
 3245POPC   C4B42670  36.131  23.500   7.364
 3246POPC   NC342671  40.052  16.750   5.564
 3246POPC   PO442672  40.022  16.711   5.864
 3246POPC   GL142673  40.031  16.732   6.164
 3246POPC   GL242674  39.849  16.641   6.164
 3246POPC   C1A42675  39.991  16.777   6.464
 3246POPC   D2A42676  39.981  16.747   6.764
 3246POPC   C3A42677  40.031  16.706   7.064
 3246POPC   C4A42678  40.023  16.734   7.364
 3246POPC   C1B42679  39.757  16.620   6.464
 3246POPC   C2B42680  39.827  16.619   6.764
 3246POPC   C3B42681  39.814  16.621   7.064
 3246POPC   C4B42682  39.831  16.593   7.364
 3247POPC   NC342683   4.273  17.553   5.564
 3247POPC   PO442684   4.342  17.474   5.864
 3247POPC   GL142685   4.364  17.520   6.164
 3247POPC   GL242686   4.249  17.598   6.164
 3247POPC   C1A42687   4.349  17.511   6.464
 3247POPC   D2A42688   4.342  17.472   6.764
 3247POPC   C3A42689   4.273  17.490   7.064
 3247POPC   C4A42690   4.364  17.498   7.364
 3247POPC   C1B42691   4.212  17.765   6.464
 3247POPC   C2B42692   4.132  17.697   6.764
 3247POPC   C3B42693   4.169  17.697   7.064
 3247POPC   C4B42694   4.171  17.673   7.364
 3248POPC   NC342695  10.541  38.461   5.564
 3248POPC   PO442696  10.474  38.410   5.864
 3248POPC   GL142697  10.543  38.494   6.164
 3248POPC   GL242698  10.553  38.325   6.164
 3248POPC   C1A42699  10.491  38.448   6.464
 3248POPC   D2A42700  10.504  38.445   6.764
 3248POPC   C3A42701  10.563  38.492   7.064
 3248POPC   C4A42702  10.512  38.452   7.364
 3248POPC   C1B42703  10.509  38.208   6.464
 3248POPC   C2B42704  10.528  38.211   6.764
 3248POPC   C3B42705  10.496  38.223   7.064
 3248POPC   C4B42706  10.561  38.159   7.364
 3249POPC   NC342707  38.462   4.357   5.564
 3249POPC   PO442708  38.482   4.305   5.864
 3249POPC   GL142709  38.481   4.305   6.164
 3249POPC   GL242710  38.318   4.305   6.164
 3249POPC   C1A42711  38.485   4.314   6.464
 3249POPC   D2A42712  38.496   4.335   6.764
 3249POPC   C3A42713  38.461   4.342   7.064
 3249POPC   C4A42714  38.478   4.351   7.364
 3249POPC   C1B42715  38.246   4.406   6.464
 3249POPC   C2B42716  38.185   4.402   6.764
 3249POPC   C3B42717  38.257   4.349   7.064
 3249POPC   C4B42718  38.239   4.428   7.364
 3250POPC   NC342719   0.397  12.816   5.564
 3250POPC   PO442720   0.430  12.813   5.864
 3250POPC   GL142721   0.431  12.847   6.164
 3250POPC   GL242722   0.273  12.919   6.164
 3250POPC   C1A42723   0.469  12.886   6.464
 3250POPC   D2A42724   0.407  12.893   6.764
 3250POPC   C3A42725   0.463  12.881   7.064
 3250POPC   C4A42726   0.447  12.810   7.364
 3250POPC   C1B42727   0.199  12.982   6.464
 3250POPC   C2B42728   0.235  12.914   6.764
 3250POPC   C3B42729   0.244  12.939   7.064
 3250POPC   C4B42730   0.237  12.938   7.364
 3251POPC   NC342731  37.670   0.397   5.564
 3251POPC   PO442732  37.646   0.425   5.864
 3251POPC   GL142733  37.679   0.407   6.164
 3251POPC   GL242734  37.727   0.339   6.164
 3251POPC   C1A42735  37.659   0.410   6.464
 3251POPC   D2A42736  37.723   0.406   6.764
 3251POPC   C3A42737  37.693   0.460   7.064
 3251POPC   C4A42738  37.674   0.451   7.364
 3251POPC   C1B42739  37.722   0.173   6.464
 3251POPC   C2B42740  37.773   0.198   6.764
 3251POPC   C3B42741  37.786   0.241   7.064
 3251POPC   C4B42742  37.696   0.224   7.364
 3252POPC   NC342743  19.047  38.428   5.564
 3252POPC   PO442744  19.016  38.440   5.864
 3252POPC   GL142745  19.034  38.411   6.164
 3252POPC   GL242746  18.970  38.484   6.164
 3252POPC   C1A42747  19.046  38.437   6.464
 3252POPC   D2A42748  19.106  38.495   6.764
 3252POPC   C3A42749  19.077  38.456   7.064
 3252POPC   C4A42750  19.074  38.437   7.364
 3252POPC   C1B42751  18.858  38.498   6.464
 3252POPC   C2B42752  18.836  38.467   6.764
 3252POPC   C3B42753  18.804  38.431   7.064
 3252POPC   C4B42754  18.826  38.514   7.364
 3253POPC   NC342755  36.121  43.151   5.564
 3253POPC   PO442756  36.167  43.096   5.864
 3253POPC   GL142757  36.146  43.110   6.164
 3253POPC   GL242758  36.207  43.181   6.164
 3253POPC   C1A42759  36.123  43.128   6.464
 3253POPC   D2A42760  36.119  43.069   6.764
 3253POPC   C3A42761  36.115  43.104   7.064
 3253POPC   C4A42762  36.104  43.152   7.364
 3253POPC   C1B42763  36.351  43.198   6.464
 3253POPC   C2B42764  36.317  43.172   6.764
 3253POPC   C3B42765  36.338  43.239   7.064
 3253POPC   C4B42766  36.403  43.213   7.364
 3254POPC   NC342767  39.219  13.659   5.564
 3254POPC   PO442768  39.265  13.668   5.864
 3254POPC   GL142769  39.243  13.609   6.164
 3254POPC   GL242770  39.355  13.517   6.164
 3254POPC   C1A42771  39.205  13.654   6.464
 3254POPC   D2A42772  39.230  13.588   6.764
 3254POPC   C3A42773  39.265  13.608   7.064
 3254POPC   C4A42774  39.181  13.596   7.364
 3254POPC   C1B42775  39.395  13.482   6.464
 3254POPC   C2B42776  39.397  13.459   6.764
 3254POPC   C3B42777  39.424  13.444   7.064
 3254POPC   C4B42778  39.417  13.536   7.364
 3255POPC   NC342779  38.459  32.281   5.564
 3255POPC   PO442780  38.503  32.271   5.864
 3255POPC   GL142781  38.482  32.293   6.164
 3255POPC   GL242782  38.538  32.208   6.164
 3255POPC   C1A42783  38.420  32.238   6.464
 3255POPC   D2A42784  38.479  32.253   6.764
 3255POPC   C3A42785  38.418  32.274   7.064
 3255POPC   C4A42786  38.425  32.257   7.364
 3255POPC   C1B42787  38.655  32.171   6.464
 3255POPC   C2B42788  38.671  32.201   6.764
 3255POPC   C3B42789  38.656  32.109   7.064
 3255POPC   C4B42790  38.673  32.149   7.364
 3256POPC   NC342791  37.655  43.868   5.564
 3256POPC   PO442792  37.708  43.850   5.864
 3256POPC   GL142793  37.652  43.904   6.164
 3256POPC   GL242794  37.641  43.768   6.164
 3256POPC   C1A42795  37.646  43.894   6.464
 3256POPC   D2A42796  37.677  43.899   6.764
 3256POPC   C3A42797  37.665  43.882   7.064
 3256POPC   C4A42798  37.638  43.906   7.364
 3256POPC   C1B42799  37.647  43.647   6.464
 3256POPC   C2B42800  37.680  43.668   6.764
 3256POPC   C3B42801  37.659  43.662   7.064
 3256POPC   C4B42802  37.684  43.649   7.364
 3257POPC   NC342803  23.758  21.386   5.564
 3257POPC   PO442804  23.720  21.431   5.864
 3257POPC   GL142805  23.715  21.348   6.164
 3257POPC   GL242806  23.756  21.475   6.164
 3257POPC   C1A42807  23.712  21.338   6.464
 3257POPC   D2A42808  23.746  21.420   6.764
 3257POPC   C3A42809  23.682  21.395   7.064
 3257POPC   C4A42810  23.728  21.356   7.364
 3257POPC   C1B42811  23.762  21.644   6.464
 3257POPC   C2B42812  23.756  21.581   6.764
 3257POPC   C3B42813  23.841  21.571   7.064
 3257POPC   C4B42814  23.809  21.658   7.364
 3258POPC   NC342815   0.460  33.018   5.564
 3258POPC   PO442816   0.404  33.029   5.864
 3258POPC   GL142817   0.448  33.037   6.164
 3258POPC   GL242818   0.393  33.190   6.164
 3258POPC   C1A42819   0.475  33.052   6.464
 3258POPC   D2A42820   0.438  33.034   6.764
 3258POPC   C3A42821   0.462  32.991   7.064
 3258POPC   C4A42822   0.403  33.068   7.364
 3258POPC   C1B42823   0.342  33.236   6.464
 3258POPC   C2B42824   0.390  33.249   6.764
 3258POPC   C3B42825   0.374  33.228   7.064
 3258POPC   C4B42826   0.358  33.246   7.364
 3259POPC   NC342827  32.222  23.700   5.564
 3259POPC   PO442828  32.278  23.725   5.864
 3259POPC   GL142829  32.263  23.670   6.164
 3259POPC   GL242830  32.256  23.861   6.164
 3259POPC   C1A42831  32.242  23.711   6.464
 3259POPC   D2A42832  32.207  23.728   6.764
 3259POPC   C3A42833  32.244  23.713   7.064
 3259POPC   C4A42834  32.214  23.704   7.364
 3259POPC   C1B42835  32.284  23.912   6.464
 3259POPC   C2B42836  32.294  24.005   6.764
 3259POPC   C3B42837  32.328  23.982   7.064
 3259POPC   C4B42838  32.250  23.991   7.364
 3260POPC   NC342839  25.993  14.361   5.564
 3260POPC   PO442840  26.069  14.428   5.864
 3260POPC   GL142841  26.002  14.432   6.164
 3260POPC   GL242842  26.071  14.543   6.164
 3260POPC   C1A42843  25.997  14.374   6.464
 3260POPC   D2A42844  26.084  14.398   6.764
 3260POPC   C3A42845  26.091  14.404   7.064
 3260POPC   C4A42846  26.069  14.358   7.364
 3260POPC   C1B42847  26.089  14.687   6.464
 3260POPC   C2B42848  26.096  14.695   6.764
 3260POPC   C3B42849  26.131  14.610   7.064
 3260POPC   C4B42850  26.114  14.659   7.364
 3261POPC   NC342851   6.684  30.718   5.564
 3261POPC   PO442852   6.605  30.667   5.864
 3261POPC   GL142853   6.615  30.707   6.164
 3261POPC   GL242854   6.560  30.803   6.164
 3261POPC   C1A42855   6.608  30.675   6.464
 3261POPC   D2A42856   6.686  30.707   6.764
 3261POPC   C3A42857   6.645  30.741   7.064
 3261POPC   C4A42858   6.600  30.654   7.364
 3261POPC   C1B42859   6.497  30.852   6.464
 3261POPC   C2B42860   6.442  30.862   6.764
 3261POPC   C3B42861   6.478  30.906   7.064
 3261POPC   C4B42862   6.508  30.897   7.364
 3262POPC   NC342863  39.225  31.484   5.564
 3262POPC   PO442864  39.229  31.472   5.864
 3262POPC   GL142865  39.254  31.460   6.164
 3262POPC   GL242866  39.372  31.440   6.164
 3262POPC   C1A42867  39.222  31.476   6.464
 3262POPC   D2A42868  39.267  31.481   6.764
 3262POPC   C3A42869  39.244  31.435   7.064
 3262POPC   C4A42870  39.263  31.439   7.364
 3262POPC   C1B42871  39.434  31.449   6.464
 3262POPC   C2B42872  39.433  31.497   6.764
 3262POPC   C3B42873  39.486  31.502   7.064
 3262POPC   C4B42874  39.490  31.463   7.364
 3263POPC   NC342875  38.478   1.239   5.564
 3263POPC   PO442876  38.431   1.264   5.864
 3263POPC   GL142877  38.461   1.231   6.164
 3263POPC   GL242878  38.378   1.091   6.164
 3263POPC   C1A42879  38.496   1.255   6.464
 3263POPC   D2A42880  38.416   1.203   6.764
 3263POPC   C3A42881  38.476   1.186   7.064
 3263POPC   C4A42882  38.504   1.190   7.364
 3263POPC   C1B42883  38.290   1.025   6.464
 3263POPC   C2B42884  38.334   0.961   6.764
 3263POPC   C3B42885  38.312   1.028   7.064
 3263POPC   C4B42886  38.347   1.014   7.364
 3264POPC   NC342887  32.992  19.804   5.564
 3264POPC   PO442888  32.991  19.875   5.864
 3264POPC   GL142889  33.006  19.863   6.164
 3264POPC   GL242890  32.937  19.919   6.164
 3264POPC   C1A42891  33.019  19.881   6.464
 3264POPC   D2A42892  33.073  19.834   6.764
 3264POPC   C3A42893  32.986  19.853   7.064
 3264POPC   C4A42894  32.983  19.828   7.364
 3264POPC   C1B42895  32.842  19.958   6.464
 3264POPC   C2B42896  32.819  19.969   6.764
 3264POPC   C3B42897  32.812  19.952   7.064
 3264POPC   C4B42898  32.870  19.983   7.364
 3265POPC   NC342899   2.729  25.272   5.564
 3265POPC   PO442900   2.738  25.245   5.864
 3265POPC   GL142901   2.810  25.273   6.164
 3265POPC   GL242902   2.773  25.413   6.164
 3265POPC   C1A42903   2.776  25.285   6.464
 3265POPC   D2A42904   2.773  25.270   6.764
 3265POPC   C3A42905   2.761  25.303   7.064
 3265POPC   C4A42906   2.733  25.311   7.364
 3265POPC   C1B42907   2.710  25.552   6.464
 3265POPC   C2B42908   2.712  25.486   6.764
 3265POPC   C3B42909   2.652  25.530   7.064
 3265POPC   C4B42910   2.646  25.493   7.364
 3266POPC   NC342911   4.290  29.936   5.564
 3266POPC   PO442912   4.290  29.896   5.864
 3266POPC   GL142913   4.318  29.934   6.164
 3266POPC   GL242914   4.276  29.809   6.164
 3266POPC   C1A42915   4.353  29.932   6.464
 3266POPC   D2A42916   4.347  29.922   6.764
 3266POPC   C3A42917   4.358  29.873   7.064
 3266POPC   C4A42918   4.340  29.911   7.364
 3266POPC   C1B42919   4.257  29.629   6.464
 3266POPC   C2B42920   4.226  29.700   6.764
 3266POPC   C3B42921   4.221  29.695   7.064
 3266POPC   C4B42922   4.274  29.716   7.364
 3267POPC   NC342923   8.216   9.739   5.564
 3267POPC   PO442924   8.202   9.780   5.864
 3267POPC   GL142925   8.184   9.747   6.164
 3267POPC   GL242926   8.282   9.689   6.164
 3267POPC   C1A42927   8.221   9.775   6.464
 3267POPC   D2A42928   8.163   9.767   6.764
 3267POPC   C3A42929   8.165   9.725   7.064
 3267POPC   C4A42930   8.196   9.784   7.364
 3267POPC   C1B42931   8.388   9.545   6.464
 3267POPC   C2B42932   8.374   9.523   6.764
 3267POPC   C3B42933   8.377   9.583   7.064
 3267POPC   C4B42934   8.349   9.614   7.364
 3268POPC   NC342935  43.909  32.223   5.564
 3268POPC   PO442936  43.851  32.285   5.864
 3268POPC   GL142937  43.931  32.237   6.164
 3268POPC   GL242938  44.036  32.161   6.164
 3268POPC   C1A42939  43.892  32.263   6.464
 3268POPC   D2A42940  43.927  32.284   6.764
 3268POPC   C3A42941  43.852  32.292   7.064
 3268POPC   C4A42942  43.916  32.284   7.364
 3268POPC   C1B42943  44.067  32.156   6.464
 3268POPC   C2B42944  44.073  32.134   6.764
 3268POPC   C3B42945  44.129  32.176   7.064
 3268POPC   C4B42946  44.098  32.170   7.364
 3269POPC   NC342947  10.532  43.086   5.564
 3269POPC   PO442948  10.489  43.078   5.864
 3269POPC   GL142949  10.555  43.063   6.164
 3269POPC   GL242950  10.485  42.970   6.164
 3269POPC   C1A42951  10.502  43.097   6.464
 3269POPC   D2A42952  10.526  43.143   6.764
 3269POPC   C3A42953  10.570  43.138   7.064
 3269POPC   C4A42954  10.511  43.095   7.364
 3269POPC   C1B42955  10.497  42.849   6.464
 3269POPC   C2B42956  10.454  42.815   6.764
 3269POPC   C3B42957  10.466  42.841   7.064
 3269POPC   C4B42958  10.453  42.884   7.364
 3270POPC   NC342959   0.411  22.941   5.564
 3270POPC   PO442960   0.447  22.948   5.864
 3270POPC   GL142961   0.463  22.971   6.164
 3270POPC   GL242962   0.396  23.045   6.164
 3270POPC   C1A42963   0.406  22.907   6.464
 3270POPC   D2A42964   0.462  22.915   6.764
 3270POPC   C3A42965   0.391  22.987   7.064
 3270POPC   C4A42966   0.430  22.988   7.364
 3270POPC   C1B42967   0.273  23.197   6.464
 3270POPC   C2B42968   0.283  23.161   6.764
 3270POPC   C3B42969   0.271  23.184   7.064
 3270POPC   C4B42970   0.319  23.199   7.364
 3271POPC   NC342971  38.423  12.124   5.564
 3271POPC   PO442972  38.411  12.043   5.864
 3271POPC   GL142973  38.456  12.067   6.164
 3271POPC   GL242974  38.554  11.937   6.164
 3271POPC   C1A42975  38.485  12.053   6.464
 3271POPC   D2A42976  38.484  12.121   6.764
 3271POPC   C3A42977  38.504  12.111   7.064
 3271POPC   C4A42978  38.439  12.112   7.364
 3271POPC   C1B42979  38.515  11.827   6.464
 3271POPC   C2B42980  38.528  11.858   6.764
 3271POPC   C3B42981  38.509  11.826   7.064
 3271POPC   C4B42982  38.571  11.889   7.364
 3272POPC   NC342983  12.866  19.852   5.564
 3272POPC   PO442984  12.899  19.863   5.864
 3272POPC   GL142985  12.856  19.806   6.164
 3272POPC   GL242986  12.715  19.892   6.164
 3272POPC   C1A42987  12.862  19.870   6.464
 3272POPC   D2A42988  12.875  19.867   6.764
 3272POPC   C3A42989  12.854  19.877   7.064
 3272POPC   C4A42990  12.824  19.883   7.364
 3272POPC   C1B42991  12.668  19.991   6.464
 3272POPC   C2B42992  12.595  19.975   6.764
 3272POPC   C3B42993  12.640  19.905   7.064
 3272POPC   C4B42994  12.616  19.968   7.364
 3273POPC   NC342995   1.261   4.273   5.564
 3273POPC   PO442996   1.245   4.348   5.864
 3273POPC   GL142997   1.251   4.336   6.164
 3273POPC   GL242998   1.125   4.227   6.164
 3273POPC   C1A42999   1.226   4.342   6.464
 3273POPC   D2A43000   1.210   4.346   6.764
 3273POPC   C3A43001   1.213   4.344   7.064
 3273POPC   C4A43002   1.183   4.333   7.364
 3273POPC   C1B43003   0.995   4.276   6.464
 3273POPC   C2B43004   0.993   4.185   6.764
 3273POPC   C3B43005   1.022   4.247   7.064
 3273POPC   C4B43006   0.981   4.189   7.364
 3274POPC   NC343007  33.758  38.469   5.564
 3274POPC   PO443008  33.792  38.461   5.864
 3274POPC   GL143009  33.829  38.505   6.164
 3274POPC   GL243010  33.726  38.373   6.164
 3274POPC   C1A43011  33.760  38.429   6.464
 3274POPC   D2A43012  33.752  38.406   6.764
 3274POPC   C3A43013  33.776  38.422   7.064
 3274POPC   C4A43014  33.801  38.464   7.364
 3274POPC   C1B43015  33.569  38.274   6.464
 3274POPC   C2B43016  33.620  38.352   6.764
 3274POPC   C3B43017  33.561  38.285   7.064
 3274POPC   C4B43018  33.616  38.336   7.364
 3275POPC   NC343019  26.072  29.162   5.564
 3275POPC   PO443020  25.996  29.154   5.864
 3275POPC   GL143021  26.022  29.122   6.164
 3275POPC   GL243022  25.982  29.220   6.164
 3275POPC   C1A43023  26.074  29.177   6.464
 3275POPC   D2A43024  26.024  29.183   6.764
 3275POPC   C3A43025  25.999  29.167   7.064
 3275POPC   C4A43026  26.048  29.153   7.364
 3275POPC   C1B43027  25.817  29.264   6.464
 3275POPC   C2B43028  25.820  29.288   6.764
 3275POPC   C3B43029  25.834  29.333   7.064
 3275POPC   C4B43030  25.821  29.298   7.364
 3276POPC   NC343031  29.961   1.195   5.564
 3276POPC   PO443032  29.894   1.219   5.864
 3276POPC   GL143033  29.953   1.236   6.164
 3276POPC   GL243034  29.952   1.041   6.164
 3276POPC   C1A43035  29.895   1.225   6.464
 3276POPC   D2A43036  29.953   1.238   6.764
 3276POPC   C3A43037  29.914   1.211   7.064
 3276POPC   C4A43038  29.940   1.231   7.364
 3276POPC   C1B43039  30.001   1.010   6.464
 3276POPC   C2B43040  29.976   0.971   6.764
 3276POPC   C3B43041  29.958   0.927   7.064
 3276POPC   C4B43042  29.999   0.927   7.364
 3277POPC   NC343043   5.888  24.476   5.564
 3277POPC   PO443044   5.834  24.466   5.864
 3277POPC   GL143045   5.843  24.459   6.164
 3277POPC   GL243046   5.852  24.605   6.164
 3277POPC   C1A43047   5.886  24.502   6.464
 3277POPC   D2A43048   5.900  24.471   6.764
 3277POPC   C3A43049   5.879  24.518   7.064
 3277POPC   C4A43050   5.897  24.504   7.364
 3277POPC   C1B43051   5.915  24.741   6.464
 3277POPC   C2B43052   5.864  24.701   6.764
 3277POPC   C3B43053   5.864  24.736   7.064
 3277POPC   C4B43054   5.912  24.731   7.364
 3278POPC   NC343055  33.068  34.575   5.564
 3278POPC   PO443056  33.028  34.532   5.864
 3278POPC   GL143057  32.997  34.584   6.164
 3278POPC   GL243058  33.046  34.721   6.164
 3278POPC   C1A43059  32.988  34.549   6.464
 3278POPC   D2A43060  33.034  34.527   6.764
 3278POPC   C3A43061  32.984  34.544   7.064
 3278POPC   C4A43062  33.070  34.617   7.364
 3278POPC   C1B43063  33.183  34.773   6.464
 3278POPC   C2B43064  33.103  34.814   6.764
 3278POPC   C3B43065  33.181  34.816   7.064
 3278POPC   C4B43066  33.178  34.761   7.364
 3279POPC   NC343067  29.154  26.057   5.564
 3279POPC   PO443068  29.173  26.007   5.864
 3279POPC   GL143069  29.123  26.051   6.164
 3279POPC   GL243070  29.008  26.067   6.164
 3279POPC   C1A43071  29.140  26.056   6.464
 3279POPC   D2A43072  29.113  26.017   6.764
 3279POPC   C3A43073  29.148  26.077   7.064
 3279POPC   C4A43074  29.189  26.034   7.364
 3279POPC   C1B43075  28.906  26.044   6.464
 3279POPC   C2B43076  28.893  26.113   6.764
 3279POPC   C3B43077  28.949  26.118   7.064
 3279POPC   C4B43078  28.916  26.109   7.364
 3280POPC   NC343079   5.868  14.425   5.564
 3280POPC   PO443080   5.899  14.375   5.864
 3280POPC   GL143081   5.902  14.365   6.164
 3280POPC   GL243082   5.952  14.516   6.164
 3280POPC   C1A43083   5.840  14.387   6.464
 3280POPC   D2A43084   5.876  14.367   6.764
 3280POPC   C3A43085   5.850  14.447   7.064
 3280POPC   C4A43086   5.904  14.359   7.364
 3280POPC   C1B43087   6.003  14.620   6.464
 3280POPC   C2B43088   6.019  14.648   6.764
 3280POPC   C3B43089   5.951  14.664   7.064
 3280POPC   C4B43090   5.941  14.603   7.364
 3281POPC   NC343091   5.124  41.605   5.564
 3281POPC   PO443092   5.127  41.555   5.864
 3281POPC   GL143093   5.063  41.582   6.164
 3281POPC   GL243094   5.015  41.506   6.164
 3281POPC   C1A43095   5.121  41.535   6.464
 3281POPC   D2A43096   5.073  41.533   6.764
 3281POPC   C3A43097   5.126  41.524   7.064
 3281POPC   C4A43098   5.130  41.513   7.364
 3281POPC   C1B43099   4.822  41.502   6.464
 3281POPC   C2B43100   4.857  41.422   6.764
 3281POPC   C3B43101   4.878  41.411   7.064
 3281POPC   C4B43102   4.899  41.425   7.364
 3282POPC   NC343103  35.387  34.605   5.564
 3282POPC   PO443104  35.381  34.591   5.864
 3282POPC   GL143105  35.322  34.597   6.164
 3282POPC   GL243106  35.311  34.500   6.164
 3282POPC   C1A43107  35.324  34.605   6.464
 3282POPC   D2A43108  35.397  34.598   6.764
 3282POPC   C3A43109  35.359  34.552   7.064
 3282POPC   C4A43110  35.364  34.610   7.364
 3282POPC   C1B43111  35.204  34.345   6.464
 3282POPC   C2B43112  35.221  34.376   6.764
 3282POPC   C3B43113  35.237  34.332   7.064
 3282POPC   C4B43114  35.217  34.312   7.364
 3283POPC   NC343115   5.117  13.641   5.564
 3283POPC   PO443116   5.057  13.602   5.864
 3283POPC   GL143117   5.075  13.665   6.164
 3283POPC   GL243118   5.102  13.505   6.164
 3283POPC   C1A43119   5.106  13.583   6.464
 3283POPC   D2A43120   5.047  13.598   6.764
 3283POPC   C3A43121   5.112  13.591   7.064
 3283POPC   C4A43122   5.074  13.674   7.364
 3283POPC   C1B43123   5.071  13.356   6.464
 3283POPC   C2B43124   5.015  13.380   6.764
 3283POPC   C3B43125   5.060  13.349   7.064
 3283POPC   C4B43126   5.073  13.429   7.364
 3284POPC   NC343127  37.720  20.629   5.564
 3284POPC   PO443128  37.668  20.579   5.864
 3284POPC   GL143129  37.637  20.579   6.164
 3284POPC   GL243130  37.767  20.498   6.164
 3284POPC   C1A43131  37.725  20.650   6.464
 3284POPC   D2A43132  37.689  20.659   6.764
 3284POPC   C3A43133  37.689  20.651   7.064
 3284POPC   C4A43134  37.726  20.640   7.364
 3284POPC   C1B43135  37.817  20.465   6.464
 3284POPC   C2B43136  37.885  20.424   6.764
 3284POPC   C3B43137  37.896  20.449   7.064
 3284POPC   C4B43138  37.796  20.433   7.364
 3285POPC   NC343139   0.434  14.356   5.564
 3285POPC   PO443140   0.432  14.380   5.864
 3285POPC   GL143141   0.398  14.357   6.164
 3285POPC   GL243142   0.475  14.266   6.164
 3285POPC   C1A43143   0.450  14.427   6.464
 3285POPC   D2A43144   0.464  14.447   6.764
 3285POPC   C3A43145   0.481  14.377   7.064
 3285POPC   C4A43146   0.476  14.384   7.364
 3285POPC   C1B43147   0.552  14.128   6.464
 3285POPC   C2B43148   0.580  14.137   6.764
 3285POPC   C3B43149   0.511  14.151   7.064
 3285POPC   C4B43150   0.514  14.148   7.364
 3286POPC   NC343151  26.026   9.773   5.564
 3286POPC   PO443152  26.017   9.713   5.864
 3286POPC   GL143153  26.084   9.763   6.164
 3286POPC   GL243154  26.197   9.740   6.164
 3286POPC   C1A43155  25.992   9.764   6.464
 3286POPC   D2A43156  26.089   9.733   6.764
 3286POPC   C3A43157  26.082   9.763   7.064
 3286POPC   C4A43158  26.074   9.793   7.364
 3286POPC   C1B43159  26.301   9.637   6.464
 3286POPC   C2B43160  26.272   9.592   6.764
 3286POPC   C3B43161  26.266   9.639   7.064
 3286POPC   C4B43162  26.264   9.678   7.364
 3287POPC   NC343163  14.382  36.140   5.564
 3287POPC   PO443164  14.373  36.126   5.864
 3287POPC   GL143165  14.361  36.101   6.164
 3287POPC   GL243166  14.574  36.128   6.164
 3287POPC   C1A43167  14.400  36.094   6.464
 3287POPC   D2A43168  14.381  36.172   6.764
 3287POPC   C3A43169  14.435  36.083   7.064
 3287POPC   C4A43170  14.383  36.129   7.364
 3287POPC   C1B43171  14.630  36.161   6.464
 3287POPC   C2B43172  14.657  36.203   6.764
 3287POPC   C3B43173  14.656  36.207   7.064
 3287POPC   C4B43174  14.664  36.194   7.364
 3288POPC   NC343175  31.443  21.423   5.564
 3288POPC   PO443176  31.468  21.378   5.864
 3288POPC   GL143177  31.446  21.359   6.164
 3288POPC   GL243178  31.503  21.541   6.164
 3288POPC   C1A43179  31.506  21.418   6.464
 3288POPC   D2A43180  31.515  21.412   6.764
 3288POPC   C3A43181  31.455  21.394   7.064
 3288POPC   C4A43182  31.439  21.351   7.364
 3288POPC   C1B43183  31.572  21.616   6.464
 3288POPC   C2B43184  31.568  21.602   6.764
 3288POPC   C3B43185  31.533  21.575   7.064
 3288POPC   C4B43186  31.528  21.611   7.364
 3289POPC   NC343187   8.154  19.817   5.564
 3289POPC   PO443188   8.247  19.880   5.864
 3289POPC   GL143189   8.152  19.819   6.164
 3289POPC   GL243190   8.062  19.908   6.164
 3289POPC   C1A43191   8.210  19.824   6.464
 3289POPC   D2A43192   8.221  19.837   6.764
 3289POPC   C3A43193   8.226  19.857   7.064
 3289POPC   C4A43194   8.194  19.823   7.364
 3289POPC   C1B43195   7.998  19.887   6.464
 3289POPC   C2B43196   8.008  19.901   6.764
 3289POPC   C3B43197   7.991  19.958   7.064
 3289POPC   C4B43198   7.972  19.962   7.364
 3290POPC   NC343199   9.763  26.013   5.564
 3290POPC   PO443200   9.700  26.090   5.864
 3290POPC   GL143201   9.795  26.026   6.164
 3290POPC   GL243202   9.722  26.161   6.164
 3290POPC   C1A43203   9.755  26.011   6.464
 3290POPC   D2A43204   9.720  26.032   6.764
 3290POPC   C3A43205   9.775  25.996   7.064
 3290POPC   C4A43206   9.708  25.994   7.364
 3290POPC   C1B43207   9.570  26.255   6.464
 3290POPC   C2B43208   9.559  26.270   6.764
 3290POPC   C3B43209   9.591  26.282   7.064
 3290POPC   C4B43210   9.655  26.226   7.364
 3291POPC   NC343211   5.095  29.148   5.564
 3291POPC   PO443212   5.112  29.123   5.864
 3291POPC   GL143213   5.124  29.181   6.164
 3291POPC   GL243214   5.020  29.184   6.164
 3291POPC   C1A43215   5.080  29.155   6.464
 3291POPC   D2A43216   5.130  29.112   6.764
 3291POPC   C3A43217   5.133  29.120   7.064
 3291POPC   C4A43218   5.110  29.096   7.364
 3291POPC   C1B43219   4.835  29.248   6.464
 3291POPC   C2B43220   4.848  29.254   6.764
 3291POPC   C3B43221   4.836  29.258   7.064
 3291POPC   C4B43222   4.871  29.269   7.364
 3292POPC   NC343223   7.449   3.535   5.564
 3292POPC   PO443224   7.440   3.543   5.864
 3292POPC   GL143225   7.466   3.577   6.164
 3292POPC   GL243226   7.280   3.647   6.164
 3292POPC   C1A43227   7.405   3.543   6.464
 3292POPC   D2A43228   7.437   3.580   6.764
 3292POPC   C3A43229   7.446   3.543   7.064
 3292POPC   C4A43230   7.419   3.529   7.364
 3292POPC   C1B43231   7.156   3.684   6.464
 3292POPC   C2B43232   7.169   3.690   6.764
 3292POPC   C3B43233   7.153   3.704   7.064
 3292POPC   C4B43234   7.200   3.683   7.364
 3293POPC   NC343235  21.407  40.765   5.564
 3293POPC   PO443236  21.399  40.801   5.864
 3293POPC   GL143237  21.418  40.763   6.164
 3293POPC   GL243238  21.262  40.757   6.164
 3293POPC   C1A43239  21.391  40.784   6.464
 3293POPC   D2A43240  21.423  40.759   6.764
 3293POPC   C3A43241  21.393  40.783   7.064
 3293POPC   C4A43242  21.436  40.794   7.364
 3293POPC   C1B43243  21.123  40.646   6.464
 3293POPC   C2B43244  21.156  40.678   6.764
 3293POPC   C3B43245  21.193  40.706   7.064
 3293POPC   C4B43246  21.134  40.654   7.364
 3294POPC   NC343247  12.813  33.032   5.564
 3294POPC   PO443248  12.811  32.977   5.864
 3294POPC   GL143249  12.840  32.991   6.164
 3294POPC   GL243250  12.818  32.905   6.164
 3294POPC   C1A43251  12.855  33.028   6.464
 3294POPC   D2A43252  12.890  33.073   6.764
 3294POPC   C3A43253  12.849  33.064   7.064
 3294POPC   C4A43254  12.873  33.037   7.364
 3294POPC   C1B43255  12.825  32.770   6.464
 3294POPC   C2B43256  12.777  32.821   6.764
 3294POPC   C3B43257  12.739  32.744   7.064
 3294POPC   C4B43258  12.755  32.759   7.364
 3295POPC   NC343259  28.324  36.111   5.564
 3295POPC   PO443260  28.334  36.171   5.864
 3295POPC   GL143261  28.377  36.130   6.164
 3295POPC   GL243262  28.424  36.291   6.164
 3295POPC   C1A43263  28.374  36.078   6.464
 3295POPC   D2A43264  28.349  36.117   6.764
 3295POPC   C3A43265  28.400  36.132   7.064
 3295POPC   C4A43266  28.407  36.123   7.364
 3295POPC   C1B43267  28.482  36.371   6.464
 3295POPC   C2B43268  28.432  36.389   6.764
 3295POPC   C3B43269  28.478  36.394   7.064
 3295POPC   C4B43270  28.454  36.376   7.364
 3296POPC   NC343271  38.468   8.213   5.564
 3296POPC   PO443272  38.504   8.165   5.864
 3296POPC   GL143273  38.495   8.179   6.164
 3296POPC   GL243274  38.362   8.257   6.164
 3296POPC   C1A43275  38.498   8.169   6.464
 3296POPC   D2A43276  38.428   8.231   6.764
 3296POPC   C3A43277  38.503   8.149   7.064
 3296POPC   C4A43278  38.426   8.243   7.364
 3296POPC   C1B43279  38.212   8.337   6.464
 3296POPC   C2B43280  38.255   8.324   6.764
 3296POPC   C3B43281  38.285   8.390   7.064
 3296POPC   C4B43282  38.283   8.304   7.364
 3297POPC   NC343283   4.307  38.497   5.564
 3297POPC   PO443284   4.325  38.465   5.864
 3297POPC   GL143285   4.285  38.495   6.164
 3297POPC   GL243286   4.227  38.498   6.164
 3297POPC   C1A43287   4.319  38.471   6.464
 3297POPC   D2A43288   4.318  38.435   6.764
 3297POPC   C3A43289   4.323  38.424   7.064
 3297POPC   C4A43290   4.344  38.447   7.364
 3297POPC   C1B43291   4.127  38.572   6.464
 3297POPC   C2B43292   4.151  38.625   6.764
 3297POPC   C3B43293   4.111  38.599   7.064
 3297POPC   C4B43294   4.063  38.595   7.364
 3298POPC   NC343295   6.622  17.507   5.564
 3298POPC   PO443296   6.617  17.530   5.864
 3298POPC   GL143297   6.604  17.481   6.164
 3298POPC   GL243298   6.492  17.484   6.164
 3298POPC   C1A43299   6.651  17.505   6.464
 3298POPC   D2A43300   6.595  17.524   6.764
 3298POPC   C3A43301   6.602  17.458   7.064
 3298POPC   C4A43302   6.656  17.544   7.364
 3298POPC   C1B43303   6.405  17.450   6.464
 3298POPC   C2B43304   6.413  17.423   6.764
 3298POPC   C3B43305   6.371  17.428   7.064
 3298POPC   C4B43306   6.439  17.421   7.364
 3299POPC   NC343307  34.612   9.785   5.564
 3299POPC   PO443308  34.572   9.782   5.864
 3299POPC   GL143309  34.602   9.703   6.164
 3299POPC   GL243310  34.737   9.701   6.164
 3299POPC   C1A43311  34.577   9.750   6.464
 3299POPC   D2A43312  34.608   9.795   6.764
 3299POPC   C3A43313  34.594   9.715   7.064
 3299POPC   C4A43314  34.565   9.706   7.364
 3299POPC   C1B43315  34.851   9.720   6.464
 3299POPC   C2B43316  34.777   9.673   6.764
 3299POPC   C3B43317  34.824   9.744   7.064
 3299POPC   C4B43318  34.871   9.703   7.364
 3300POPC   NC343319   7.417  27.604   5.564
 3300POPC   PO443320   7.431  27.603   5.864
 3300POPC   GL143321   7.389  27.618   6.164
 3300POPC   GL243322   7.522  27.477   6.164
 3300POPC   C1A43323   7.449  27.591   6.464
 3300POPC   D2A43324   7.414  27.554   6.764
 3300POPC   C3A43325   7.391  27.628   7.064
 3300POPC   C4A43326   7.411  27.564   7.364
 3300POPC   C1B43327   7.587  27.494   6.464
 3300POPC   C2B43328   7.596  27.487   6.764
 3300POPC   C3B43329   7.585  27.484   7.064
 3300POPC   C4B43330   7.658  27.488   7.364
 3301POPC   NC343331  15.176  13.635   5.564
 3301POPC   PO443332  15.132  13.674   5.864
 3301POPC   GL143333  15.130  13.622   6.164
 3301POPC   GL243334  15.197  13.744   6.164
 3301POPC   C1A43335  15.215  13.656   6.464
 3301POPC   D2A43336  15.228  13.675   6.764
 3301POPC   C3A43337  15.215  13.608   7.064
 3301POPC   C4A43338  15.193  13.666   7.364
 3301POPC   C1B43339  15.148  13.887   6.464
 3301POPC   C2B43340  15.189  13.848   6.764
 3301POPC   C3B43341  15.161  13.896   7.064
 3301POPC   C4B43342  15.114  13.925   7.364
 3302POPC   NC343343  19.873  40.051   5.564
 3302POPC   PO443344  19.813  39.988   5.864
 3302POPC   GL143345  19.816  39.962   6.164
 3302POPC   GL243346  19.887  40.097   6.164
 3302POPC   C1A43347  19.867  40.023   6.464
 3302POPC   D2A43348  19.808  39.999   6.764
 3302POPC   C3A43349  19.872  39.979   7.064
 3302POPC   C4A43350  19.828  40.052   7.364
 3302POPC   C1B43351  19.896  40.207   6.464
 3302POPC   C2B43352  19.914  40.291   6.764
 3302POPC   C3B43353  19.872  40.299   7.064
 3302POPC   C4B43354  19.839  40.244   7.364
 3303POPC   NC343355  31.469  23.726   5.564
 3303POPC   PO443356  31.473  23.685   5.864
 3303POPC   GL143357  31.511  23.671   6.164
 3303POPC   GL243358  31.457  23.868   6.164
 3303POPC   C1A43359  31.511  23.685   6.464
 3303POPC   D2A43360  31.505  23.670   6.764
 3303POPC   C3A43361  31.512  23.745   7.064
 3303POPC   C4A43362  31.432  23.742   7.364
 3303POPC   C1B43363  31.491  23.992   6.464
 3303POPC   C2B43364  31.499  23.958   6.764
 3303POPC   C3B43365  31.546  23.959   7.064
 3303POPC   C4B43366  31.509  23.948   7.364
 3304POPC   NC343367  44.621  31.459   5.564
 3304POPC   PO443368  44.637  31.476   5.864
 3304POPC   GL143369  44.636  31.482   6.164
 3304POPC   GL243370  44.649  31.582   6.164
 3304POPC   C1A43371  44.711  31.439   6.464
 3304POPC   D2A43372  44.700  31.476   6.764
 3304POPC   C3A43373  44.626  31.437   7.064
 3304POPC   C4A43374  44.669  31.463   7.364
 3304POPC   C1B43375  44.651  31.751   6.464
 3304POPC   C2B43376  44.643  31.731   6.764
 3304POPC   C3B43377  44.675  31.768   7.064
 3304POPC   C4B43378  44.680  31.711   7.364
 3305POPC   NC343379   2.758   6.659   5.564
 3305POPC   PO443380   2.758   6.600   5.864
 3305POPC   GL143381   2.769   6.601   6.164
 3305POPC   GL243382   2.888   6.772   6.164
 3305POPC   C1A43383   2.734   6.630   6.464
 3305POPC   D2A43384   2.737   6.644   6.764
 3305POPC   C3A43385   2.786   6.621   7.064
 3305POPC   C4A43386   2.727   6.601   7.364
 3305POPC   C1B43387   2.912   6.861   6.464
 3305POPC   C2B43388   2.892   6.856   6.764
 3305POPC   C3B43389   2.930   6.893   7.064
 3305POPC   C4B43390   2.957   6.854   7.364
 3306POPC   NC343391  14.444  44.691   5.564
 3306POPC   PO443392  14.412  44.647   5.864
 3306POPC   GL143393  14.409  44.658   6.164
 3306POPC   GL243394  14.291  44.686   6.164
 3306POPC   C1A43395  14.449  44.697   6.464
 3306POPC   D2A43396  14.426  44.622   6.764
 3306POPC   C3A43397  14.392  44.665   7.064
 3306POPC   C4A43398  14.408  44.612   7.364
 3306POPC   C1B43399  14.184  44.619   6.464
 3306POPC   C2B43400  14.151  44.669   6.764
 3306POPC   C3B43401  14.170  44.635   7.064
 3306POPC   C4B43402  14.172  44.658   7.364
 3307POPC   NC343403  39.219  43.142   5.564
 3307POPC   PO443404  39.247  43.083   5.864
 3307POPC   GL143405  39.208  43.071   6.164
 3307POPC   GL243406  39.282  43.200   6.164
 3307POPC   C1A43407  39.224  43.098   6.464
 3307POPC   D2A43408  39.193  43.092   6.764
 3307POPC   C3A43409  39.233  43.137   7.064
 3307POPC   C4A43410  39.262  43.097   7.364
 3307POPC   C1B43411  39.408  43.335   6.464
 3307POPC   C2B43412  39.376  43.306   6.764
 3307POPC   C3B43413  39.407  43.365   7.064
 3307POPC   C4B43414  39.389  43.307   7.364
 3308POPC   NC343415  40.810   8.959   5.564
 3308POPC   PO443416  40.741   8.990   5.864
 3308POPC   GL143417  40.758   8.928   6.164
 3308POPC   GL243418  40.862   8.981   6.164
 3308POPC   C1A43419  40.778   8.982   6.464
 3308POPC   D2A43420  40.802   8.938   6.764
 3308POPC   C3A43421  40.829   8.961   7.064
 3308POPC   C4A43422  40.832   8.962   7.364
 3308POPC   C1B43423  40.983   8.935   6.464
 3308POPC   C2B43424  41.047   8.900   6.764
 3308POPC   C3B43425  41.016   8.934   7.064
 3308POPC   C4B43426  41.064   8.949   7.364
 3309POPC   NC343427  18.233  43.934   5.564
 3309POPC   PO443428  18.314  43.936   5.864
 3309POPC   GL143429  18.317  43.852   6.164
 3309POPC   GL243430  18.337  44.058   6.164
 3309POPC   C1A43431  18.313  43.876   6.464
 3309POPC   D2A43432  18.273  43.876   6.764
 3309POPC   C3A43433  18.328  43.839   7.064
 3309POPC   C4A43434  18.322  43.889   7.364
 3309POPC   C1B43435  18.271  44.124   6.464
 3309POPC   C2B43436  18.352  44.173   6.764
 3309POPC   C3B43437  18.349  44.100   7.064
 3309POPC   C4B43438  18.353  44.175   7.364
 3310POPC   NC343439  31.497   2.803   5.564
 3310POPC   PO443440  31.430   2.760   5.864
 3310POPC   GL143441  31.486   2.746   6.164
 3310POPC   GL243442  31.355   2.734   6.164
 3310POPC   C1A43443  31.447   2.791   6.464
 3310POPC   D2A43444  31.438   2.748   6.764
 3310POPC   C3A43445  31.489   2.778   7.064
 3310POPC   C4A43446  31.520   2.795   7.364
 3310POPC   C1B43447  31.248   2.746   6.464
 3310POPC   C2B43448  31.202   2.704   6.764
 3310POPC   C3B43449  31.257   2.779   7.064
 3310POPC   C4B43450  31.180   2.707   7.364
 3311POPC   NC343451  29.158  12.125   5.564
 3311POPC   PO443452  29.174  12.073   5.864
 3311POPC   GL143453  29.154  12.075   6.164
 3311POPC   GL243454  29.258  12.002   6.164
 3311POPC   C1A43455  29.161  12.121   6.464
 3311POPC   D2A43456  29.151  12.056   6.764
 3311POPC   C3A43457  29.174  12.101   7.064
 3311POPC   C4A43458  29.145  12.050   7.364
 3311POPC   C1B43459  29.292  11.834   6.464
 3311POPC   C2B43460  29.321  11.901   6.764
 3311POPC   C3B43461  29.263  11.876   7.064
 3311POPC   C4B43462  29.305  11.843   7.364
 3312POPC   NC343463   2.772  42.301   5.564
 3312POPC   PO443464   2.777  42.332   5.864
 3312POPC   GL143465   2.765  42.331   6.164
 3312POPC   GL243466   2.818  42.208   6.164
 3312POPC   C1A43467   2.731  42.329   6.464
 3312POPC   D2A43468   2.728  42.349   6.764
 3312POPC   C3A43469   2.741  42.288   7.064
 3312POPC   C4A43470   2.747  42.343   7.364
 3312POPC   C1B43471   2.842  42.120   6.464
 3312POPC   C2B43472   2.833  42.133   6.764
 3312POPC   C3B43473   2.882  42.071   7.064
 3312POPC   C4B43474   2.898  42.092   7.364
 3313POPC   NC343475  14.453   5.829   5.564
 3313POPC   PO443476  14.392   5.895   5.864
 3313POPC   GL143477  14.426   5.854   6.164
 3313POPC   GL243478  14.255   5.856   6.164
 3313POPC   C1A43479  14.391   5.916   6.464
 3313POPC   D2A43480  14.397   5.836   6.764
 3313POPC   C3A43481  14.400   5.844   7.064
 3313POPC   C4A43482  14.452   5.868   7.364
 3313POPC   C1B43483  14.188   5.864   6.464
 3313POPC   C2B43484  14.105   5.863   6.764
 3313POPC   C3B43485  14.143   5.857   7.064
 3313POPC   C4B43486  14.148   5.894   7.364
 3314POPC   NC343487  29.895  34.582   5.564
 3314POPC   PO443488  29.931  34.557   5.864
 3314POPC   GL143489  29.952  34.561   6.164
 3314POPC   GL243490  29.918  34.649   6.164
 3314POPC   C1A43491  29.936  34.572   6.464
 3314POPC   D2A43492  29.938  34.567   6.764
 3314POPC   C3A43493  29.928  34.545   7.064
 3314POPC   C4A43494  29.886  34.617   7.364
 3314POPC   C1B43495  29.861  34.771   6.464
 3314POPC   C2B43496  29.814  34.813   6.764
 3314POPC   C3B43497  29.866  34.836   7.064
 3314POPC   C4B43498  29.851  34.766   7.364
 3315POPC   NC343499  39.976  33.015   5.564
 3315POPC   PO443500  40.011  32.989   5.864
 3315POPC   GL143501  40.018  32.986   6.164
 3315POPC   GL243502  39.943  33.146   6.164
 3315POPC   C1A43503  39.989  32.985   6.464
 3315POPC   D2A43504  40.052  33.067   6.764
 3315POPC   C3A43505  39.975  33.056   7.064
 3315POPC   C4A43506  40.044  33.015   7.364
 3315POPC   C1B43507  39.852  33.166   6.464
 3315POPC   C2B43508  39.813  33.198   6.764
 3315POPC   C3B43509  39.836  33.189   7.064
 3315POPC   C4B43510  39.790  33.141   7.364
 3316POPC   NC343511  26.032  11.327   5.564
 3316POPC   PO443512  26.032  11.327   5.864
 3316POPC   GL143513  26.074  11.271   6.164
 3316POPC   GL243514  26.154  11.319   6.164
 3316POPC   C1A43515  26.063  11.317   6.464
 3316POPC   D2A43516  26.051  11.281   6.764
 3316POPC   C3A43517  26.082  11.347   7.064
 3316POPC   C4A43518  26.017  11.342   7.364
 3316POPC   C1B43519  26.268  11.308   6.464
 3316POPC   C2B43520  26.287  11.365   6.764
 3316POPC   C3B43521  26.325  11.371   7.064
 3316POPC   C4B43522  26.314  11.285   7.364
 3317POPC   NC343523  43.848  20.631   5.564
 3317POPC   PO443524  43.849  20.591   5.864
 3317POPC   GL143525  43.934  20.599   6.164
 3317POPC   GL243526  43.794  20.529   6.164
 3317POPC   C1A43527  43.902  20.657   6.464
 3317POPC   D2A43528  43.925  20.650   6.764
 3317POPC   C3A43529  43.877  20.630   7.064
 3317POPC   C4A43530  43.855  20.612   7.364
 3317POPC   C1B43531  43.722  20.419   6.464
 3317POPC   C2B43532  43.704  20.375   6.764
 3317POPC   C3B43533  43.746  20.383   7.064
 3317POPC   C4B43534  43.689  20.444   7.364
 3318POPC   NC343535  36.081  36.102   5.564
 3318POPC   PO443536  36.098  36.130   5.864
 3318POPC   GL143537  36.123  36.143   6.164
 3318POPC   GL243538  35.959  36.167   6.164
 3318POPC   C1A43539  36.131  36.089   6.464
 3318POPC   D2A43540  36.167  36.131   6.764
 3318POPC   C3A43541  36.097  36.097   7.064
 3318POPC   C4A43542  36.172  36.097   7.364
 3318POPC   C1B43543  35.835  36.188   6.464
 3318POPC   C2B43544  35.899  36.136   6.764
 3318POPC   C3B43545  35.891  36.203   7.064
 3318POPC   C4B43546  35.873  36.136   7.364
 3319POPC   NC343547   8.966  13.607   5.564
 3319POPC   PO443548   8.995  13.642   5.864
 3319POPC   GL143549   8.933  13.672   6.164
 3319POPC   GL243550   9.114  13.636   6.164
 3319POPC   C1A43551   8.940  13.607   6.464
 3319POPC   D2A43552   8.932  13.646   6.764
 3319POPC   C3A43553   8.966  13.636   7.064
 3319POPC   C4A43554   9.018  13.590   7.364
 3319POPC   C1B43555   9.175  13.692   6.464
 3319POPC   C2B43556   9.243  13.690   6.764
 3319POPC   C3B43557   9.230  13.690   7.064
 3319POPC   C4B43558   9.260  13.688   7.364
 3320POPC   NC343559   3.554   8.246   5.564
 3320POPC   PO443560   3.568   8.159   5.864
 3320POPC   GL143561   3.543   8.178   6.164
 3320POPC   GL243562   3.462   8.229   6.164
 3320POPC   C1A43563   3.537   8.187   6.464
 3320POPC   D2A43564   3.519   8.201   6.764
 3320POPC   C3A43565   3.499   8.180   7.064
 3320POPC   C4A43566   3.528   8.147   7.364
 3320POPC   C1B43567   3.296   8.154   6.464
 3320POPC   C2B43568   3.268   8.158   6.764
 3320POPC   C3B43569   3.303   8.176   7.064
 3320POPC   C4B43570   3.257   8.204   7.364
 3321POPC   NC343571   1.194  22.189   5.564
 3321POPC   PO443572   1.223  22.138   5.864
 3321POPC   GL143573   1.229  22.129   6.164
 3321POPC   GL243574   1.138  22.056   6.164
 3321POPC   C1A43575   1.212  22.202   6.464
 3321POPC   D2A43576   1.227  22.202   6.764
 3321POPC   C3A43577   1.177  22.199   7.064
 3321POPC   C4A43578   1.189  22.189   7.364
 3321POPC   C1B43579   1.056  21.997   6.464
 3321POPC   C2B43580   0.992  21.974   6.764
 3321POPC   C3B43581   0.992  22.053   7.064
 3321POPC   C4B43582   0.972  21.987   7.364
 3322POPC   NC343583  34.592   3.545   5.564
 3322POPC   PO443584  34.546   3.498   5.864
 3322POPC   GL143585  34.550   3.570   6.164
 3322POPC   GL243586  34.499   3.527   6.164
 3322POPC   C1A43587  34.554   3.573   6.464
 3322POPC   D2A43588  34.613   3.538   6.764
 3322POPC   C3A43589  34.538   3.512   7.064
 3322POPC   C4A43590  34.530   3.577   7.364
 3322POPC   C1B43591  34.383   3.486   6.464
 3322POPC   C2B43592  34.301   3.439   6.764
 3322POPC   C3B43593  34.368   3.432   7.064
 3322POPC   C4B43594  34.368   3.450   7.364
 3323POPC   NC343595  26.023  32.208   5.564
 3323POPC   PO443596  26.028  32.199   5.864
 3323POPC   GL143597  25.994  32.229   6.164
 3323POPC   GL243598  26.121  32.392   6.164
 3323POPC   C1A43599  26.027  32.238   6.464
 3323POPC   D2A43600  26.065  32.235   6.764
 3323POPC   C3A43601  26.060  32.234   7.064
 3323POPC   C4A43602  26.040  32.268   7.364
 3323POPC   C1B43603  26.176  32.420   6.464
 3323POPC   C2B43604  26.189  32.492   6.764
 3323POPC   C3B43605  26.137  32.497   7.064
 3323POPC   C4B43606  26.161  32.501   7.364
 3324POPC   NC343607   5.825  16.766   5.564
 3324POPC   PO443608   5.854  16.686   5.864
 3324POPC   GL143609   5.832  16.725   6.164
 3324POPC   GL243610   5.951  16.840   6.164
 3324POPC   C1A43611   5.879  16.735   6.464
 3324POPC   D2A43612   5.820  16.706   6.764
 3324POPC   C3A43613   5.894  16.739   7.064
 3324POPC   C4A43614   5.888  16.749   7.364
 3324POPC   C1B43615   5.900  16.923   6.464
 3324POPC   C2B43616   5.960  16.974   6.764
 3324POPC   C3B43617   5.935  16.932   7.064
 3324POPC   C4B43618   5.948  16.957   7.364
 3325POPC   NC343619  18.246  34.541   5.564
 3325POPC   PO443620  18.238  34.596   5.864
 3325POPC   GL143621  18.268  34.527   6.164
 3325POPC   GL243622  18.425  34.606   6.164
 3325POPC   C1A43623  18.292  34.557   6.464
 3325POPC   D2A43624  18.296  34.580   6.764
 3325POPC   C3A43625  18.259  34.558   7.064
 3325POPC   C4A43626  18.310  34.604   7.364
 3325POPC   C1B43627  18.488  34.675   6.464
 3325POPC   C2B43628  18.487  34.726   6.764
 3325POPC   C3B43629  18.451  34.656   7.064
 3325POPC   C4B43630  18.533  34.685   7.364
 3326POPC   NC343631  26.836  41.529   5.564
 3326POPC   PO443632  26.808  41.564   5.864
 3326POPC   GL143633  26.846  41.603   6.164
 3326POPC   GL243634  26.985  41.597   6.164
 3326POPC   C1A43635  26.829  41.539   6.464
 3326POPC   D2A43636  26.792  41.605   6.764
 3326POPC   C3A43637  26.780  41.598   7.064
 3326POPC   C4A43638  26.805  41.512   7.364
 3326POPC   C1B43639  27.114  41.580   6.464
 3326POPC   C2B43640  27.098  41.514   6.764
 3326POPC   C3B43641  27.083  41.580   7.064
 3326POPC   C4B43642  27.040  41.525   7.364
 3327POPC   NC343643  37.728  25.286   5.564
 3327POPC   PO443644  37.702  25.217   5.864
 3327POPC   GL143645  37.640  25.307   6.164
 3327POPC   GL243646  37.509  25.296   6.164
 3327POPC   C1A43647  37.651  25.216   6.464
 3327POPC   D2A43648  37.678  25.268   6.764
 3327POPC   C3A43649  37.701  25.292   7.064
 3327POPC   C4A43650  37.669  25.244   7.364
 3327POPC   C1B43651  37.387  25.307   6.464
 3327POPC   C2B43652  37.383  25.280   6.764
 3327POPC   C3B43653  37.441  25.280   7.064
 3327POPC   C4B43654  37.429  25.285   7.364
 3328POPC   NC343655  44.656   5.820   5.564
 3328POPC   PO443656  44.677   5.859   5.864
 3328POPC   GL143657  44.690   5.864   6.164
 3328POPC   GL243658  44.805   5.821   6.164
 3328POPC   C1A43659  44.673   5.869   6.464
 3328POPC   D2A43660  44.700   5.869   6.764
 3328POPC   C3A43661  44.627   5.838   7.064
 3328POPC   C4A43662  44.621   5.840   7.364
 3328POPC   C1B43663  44.877   5.812   6.464
 3328POPC   C2B43664  44.906   5.887   6.764
 3328POPC   C3B43665  44.955   5.823   7.064
 3328POPC   C4B43666  44.936   5.853   7.364
 3329POPC   NC343667  36.084   9.791   5.564
 3329POPC   PO443668  36.162   9.754   5.864
 3329POPC   GL143669  36.158   9.793   6.164
 3329POPC   GL243670  36.237   9.730   6.164
 3329POPC   C1A43671  36.089   9.700   6.464
 3329POPC   D2A43672  36.133   9.776   6.764
 3329POPC   C3A43673  36.164   9.782   7.064
 3329POPC   C4A43674  36.173   9.701   7.364
 3329POPC   C1B43675  36.396   9.599   6.464
 3329POPC   C2B43676  36.379   9.616   6.764
 3329POPC   C3B43677  36.374   9.612   7.064
 3329POPC   C4B43678  36.380   9.655   7.364
 3330POPC   NC343679  26.064  40.733   5.564
 3330POPC   PO443680  26.023  40.814   5.864
 3330POPC   GL143681  26.076  40.760   6.164
 3330POPC   GL243682  25.932  40.810   6.164
 3330POPC   C1A43683  26.034  40.783   6.464
 3330POPC   D2A43684  26.036  40.742   6.764
 3330POPC   C3A43685  26.072  40.747   7.064
 3330POPC   C4A43686  25.993  40.757   7.364
 3330POPC   C1B43687  25.813  40.861   6.464
 3330POPC   C2B43688  25.764  40.818   6.764
 3330POPC   C3B43689  25.772  40.778   7.064
 3330POPC   C4B43690  25.778  40.836   7.364
 3331POPC   NC343691  37.722  19.843   5.564
 3331POPC   PO443692  37.676  19.829   5.864
 3331POPC   GL143693  37.692  19.785   6.164
 3331POPC   GL243694  37.596  19.825   6.164
 3331POPC   C1A43695  37.650  19.849   6.464
 3331POPC   D2A43696  37.643  19.860   6.764
 3331POPC   C3A43697  37.725  19.839   7.064
 3331POPC   C4A43698  37.719  19.787   7.364
 3331POPC   C1B43699  37.467  19.886   6.464
 3331POPC   C2B43700  37.432  19.896   6.764
 3331POPC   C3B43701  37.434  19.849   7.064
 3331POPC   C4B43702  37.419  19.889   7.364
 3332POPC   NC343703  11.279  29.888   5.564
 3332POPC   PO443704  11.332  29.954   5.864
 3332POPC   GL143705  11.313  29.944   6.164
 3332POPC   GL243706  11.363  30.057   6.164
 3332POPC   C1A43707  11.256  29.903   6.464
 3332POPC   D2A43708  11.306  29.905   6.764
 3332POPC   C3A43709  11.280  29.927   7.064
 3332POPC   C4A43710  11.311  29.930   7.364
 3332POPC   C1B43711  11.353  30.192   6.464
 3332POPC   C2B43712  11.428  30.182   6.764
 3332POPC   C3B43713  11.404  30.108   7.064
 3332POPC   C4B43714  11.377  30.128   7.364
 3333POPC   NC343715  30.719  33.795   5.564
 3333POPC   PO443716  30.677  33.792   5.864
 3333POPC   GL143717  30.674  33.844   6.164
 3333POPC   GL243718  30.679  33.714   6.164
 3333POPC   C1A43719  30.704  33.840   6.464
 3333POPC   D2A43720  30.698  33.755   6.764
 3333POPC   C3A43721  30.652  33.822   7.064
 3333POPC   C4A43722  30.725  33.761   7.364
 3333POPC   C1B43723  30.594  33.550   6.464
 3333POPC   C2B43724  30.632  33.519   6.764
 3333POPC   C3B43725  30.629  33.531   7.064
 3333POPC   C4B43726  30.631  33.565   7.364
 3334POPC   NC343727  11.272  36.157   5.564
 3334POPC   PO443728  11.335  36.095   5.864
 3334POPC   GL143729  11.337  36.084   6.164
 3334POPC   GL243730  11.433  36.192   6.164
 3334POPC   C1A43731  11.312  36.167   6.464
 3334POPC   D2A43732  11.328  36.089   6.764
 3334POPC   C3A43733  11.262  36.089   7.064
 3334POPC   C4A43734  11.346  36.159   7.364
 3334POPC   C1B43735  11.481  36.273   6.464
 3334POPC   C2B43736  11.487  36.207   6.764
 3334POPC   C3B43737  11.506  36.278   7.064
 3334POPC   C4B43738  11.556  36.249   7.364
 3335POPC   NC343739  19.849   9.771   5.564
 3335POPC   PO443740  19.871   9.794   5.864
 3335POPC   GL143741  19.809   9.709   6.164
 3335POPC   GL243742  19.931   9.719   6.164
 3335POPC   C1A43743  19.814   9.749   6.464
 3335POPC   D2A43744  19.802   9.707   6.764
 3335POPC   C3A43745  19.861   9.714   7.064
 3335POPC   C4A43746  19.868   9.711   7.364
 3335POPC   C1B43747  20.037   9.556   6.464
 3335POPC   C2B43748  20.000   9.617   6.764
 3335POPC   C3B43749  20.013   9.647   7.064
 3335POPC   C4B43750  20.049   9.583   7.364
 3336POPC   NC343751  27.567  26.088   5.564
 3336POPC   PO443752  27.553  26.068   5.864
 3336POPC   GL143753  27.611  26.081   6.164
 3336POPC   GL243754  27.700  25.958   6.164
 3336POPC   C1A43755  27.616  26.088   6.464
 3336POPC   D2A43756  27.611  26.078   6.764
 3336POPC   C3A43757  27.570  26.049   7.064
 3336POPC   C4A43758  27.626  26.024   7.364
 3336POPC   C1B43759  27.838  25.881   6.464
 3336POPC   C2B43760  27.846  25.860   6.764
 3336POPC   C3B43761  27.821  25.938   7.064
 3336POPC   C4B43762  27.778  25.860   7.364
 3337POPC   NC343763  29.958  35.356   5.564
 3337POPC   PO443764  29.965  35.368   5.864
 3337POPC   GL143765  29.909  35.399   6.164
 3337POPC   GL243766  29.901  35.481   6.164
 3337POPC   C1A43767  29.944  35.350   6.464
 3337POPC   D2A43768  29.953  35.325   6.764
 3337POPC   C3A43769  29.946  35.350   7.064
 3337POPC   C4A43770  29.892  35.303   7.364
 3337POPC   C1B43771  29.858  35.578   6.464
 3337POPC   C2B43772  29.851  35.559   6.764
 3337POPC   C3B43773  29.786  35.609   7.064
 3337POPC   C4B43774  29.855  35.560   7.364
 3338POPC   NC343775  26.778  12.102   5.564
 3338POPC   PO443776  26.807  12.068   5.864
 3338POPC   GL143777  26.792  12.033   6.164
 3338POPC   GL243778  26.810  11.974   6.164
 3338POPC   C1A43779  26.769  12.043   6.464
 3338POPC   D2A43780  26.779  12.120   6.764
 3338POPC   C3A43781  26.813  12.033   7.064
 3338POPC   C4A43782  26.826  12.067   7.364
 3338POPC   C1B43783  26.781  11.797   6.464
 3338POPC   C2B43784  26.726  11.824   6.764
 3338POPC   C3B43785  26.766  11.818   7.064
 3338POPC   C4B43786  26.763  11.851   7.364
 3339POPC   NC343787   7.406  10.540   5.564
 3339POPC   PO443788   7.415  10.521   5.864
 3339POPC   GL143789   7.390  10.568   6.164
 3339POPC   GL243790   7.552  10.508   6.164
 3339POPC   C1A43791   7.464  10.544   6.464
 3339POPC   D2A43792   7.389  10.512   6.764
 3339POPC   C3A43793   7.436  10.531   7.064
 3339POPC   C4A43794   7.444  10.550   7.364
 3339POPC   C1B43795   7.666  10.374   6.464
 3339POPC   C2B43796   7.683  10.370   6.764
 3339POPC   C3B43797   7.660  10.440   7.064
 3339POPC   C4B43798   7.679  10.372   7.364
 3340POPC   NC343799  22.158  36.914   5.564
 3340POPC   PO443800  22.211  36.926   5.864
 3340POPC   GL143801  22.119  36.866   6.164
 3340POPC   GL243802  22.226  37.007   6.164
 3340POPC   C1A43803  22.138  36.908   6.464
 3340POPC   D2A43804  22.141  36.886   6.764
 3340POPC   C3A43805  22.121  36.938   7.064
 3340POPC   C4A43806  22.163  36.912   7.364
 3340POPC   C1B43807  22.402  37.031   6.464
 3340POPC   C2B43808  22.409  37.011   6.764
 3340POPC   C3B43809  22.355  36.966   7.064
 3340POPC   C4B43810  22.340  37.009   7.364
 3341POPC   NC343811  36.086  29.959   5.564
 3341POPC   PO443812  36.176  29.926   5.864
 3341POPC   GL143813  36.125  29.951   6.164
 3341POPC   GL243814  36.259  29.932   6.164
 3341POPC   C1A43815  36.108  29.881   6.464
 3341POPC   D2A43816  36.146  29.934   6.764
 3341POPC   C3A43817  36.108  29.961   7.064
 3341POPC   C4A43818  36.154  29.930   7.364
 3341POPC   C1B43819  36.365  30.075   6.464
 3341POPC   C2B43820  36.352  30.023   6.764
 3341POPC   C3B43821  36.324  30.049   7.064
 3341POPC   C4B43822  36.370  30.061   7.364
 3342POPC   NC343823  39.999  26.031   5.564
 3342POPC   PO443824  39.996  26.024   5.864
 3342POPC   GL143825  40.048  26.035   6.164
 3342POPC   GL243826  40.049  25.942   6.164
 3342POPC   C1A43827  40.031  26.057   6.464
 3342POPC   D2A43828  40.047  25.997   6.764
 3342POPC   C3A43829  40.012  26.071   7.064
 3342POPC   C4A43830  40.022  26.005   7.364
 3342POPC   C1B43831  40.190  25.859   6.464
 3342POPC   C2B43832  40.110  25.859   6.764
 3342POPC   C3B43833  40.173  25.848   7.064
 3342POPC   C4B43834  40.166  25.885   7.364
 3343POPC   NC343835  41.577  32.295   5.564
 3343POPC   PO443836  41.568  32.290   5.864
 3343POPC   GL143837  41.603  32.207   6.164
 3343POPC   GL243838  41.434  32.269   6.164
 3343POPC   C1A43839  41.578  32.295   6.464
 3343POPC   D2A43840  41.551  32.270   6.764
 3343POPC   C3A43841  41.584  32.271   7.064
 3343POPC   C4A43842  41.548  32.234   7.364
 3343POPC   C1B43843  41.346  32.289   6.464
 3343POPC   C2B43844  41.369  32.328   6.764
 3343POPC   C3B43845  41.298  32.337   7.064
 3343POPC   C4B43846  41.337  32.326   7.364
 3344POPC   NC343847  22.912   7.454   5.564
 3344POPC   PO443848  22.981   7.445   5.864
 3344POPC   GL143849  22.915   7.437   6.164
 3344POPC   GL243850  22.825   7.453   6.164
 3344POPC   C1A43851  22.906   7.396   6.464
 3344POPC   D2A43852  22.893   7.453   6.764
 3344POPC   C3A43853  22.930   7.394   7.064
 3344POPC   C4A43854  22.897   7.463   7.364
 3344POPC   C1B43855  22.701   7.437   6.464
 3344POPC   C2B43856  22.647   7.444   6.764
 3344POPC   C3B43857  22.671   7.502   7.064
 3344POPC   C4B43858  22.736   7.480   7.364
 3345POPC   NC343859  25.254  10.481   5.564
 3345POPC   PO443860  25.225  10.532   5.864
 3345POPC   GL143861  25.219  10.522   6.164
 3345POPC   GL243862  25.094  10.563   6.164
 3345POPC   C1A43863  25.272  10.494   6.464
 3345POPC   D2A43864  25.223  10.486   6.764
 3345POPC   C3A43865  25.252  10.527   7.064
 3345POPC   C4A43866  25.258  10.515   7.364
 3345POPC   C1B43867  24.968  10.532   6.464
 3345POPC   C2B43868  24.984  10.519   6.764
 3345POPC   C3B43869  25.027  10.523   7.064
 3345POPC   C4B43870  24.990  10.521   7.364
 3346POPC   NC343871   2.021  30.670   5.564
 3346POPC   PO443872   2.012  30.670   5.864
 3346POPC   GL143873   1.966  30.666   6.164
 3346POPC   GL243874   2.032  30.786   6.164
 3346POPC   C1A43875   2.037  30.711   6.464
 3346POPC   D2A43876   1.956  30.746   6.764
 3346POPC   C3A43877   2.014  30.656   7.064
 3346POPC   C4A43878   1.976  30.685   7.364
 3346POPC   C1B43879   1.989  30.936   6.464
 3346POPC   C2B43880   1.951  30.940   6.764
 3346POPC   C3B43881   2.027  30.957   7.064
 3346POPC   C4B43882   1.958  30.903   7.364
 3347POPC   NC343883  40.006   3.509   5.564
 3347POPC   PO443884  39.985   3.505   5.864
 3347POPC   GL143885  40.029   3.566   6.164
 3347POPC   GL243886  39.933   3.429   6.164
 3347POPC   C1A43887  39.985   3.523   6.464
 3347POPC   D2A43888  40.013   3.503   6.764
 3347POPC   C3A43889  40.049   3.510   7.064
 3347POPC   C4A43890  40.025   3.547   7.364
 3347POPC   C1B43891  40.001   3.306   6.464
 3347POPC   C2B43892  39.907   3.293   6.764
 3347POPC   C3B43893  39.923   3.306   7.064
 3347POPC   C4B43894  39.970   3.334   7.364
 3348POPC   NC343895  42.294  25.994   5.564
 3348POPC   PO443896  42.289  26.023   5.864
 3348POPC   GL143897  42.315  26.048   6.164
 3348POPC   GL243898  42.451  26.116   6.164
 3348POPC   C1A43899  42.302  26.058   6.464
 3348POPC   D2A43900  42.345  26.023   6.764
 3348POPC   C3A43901  42.343  26.058   7.064
 3348POPC   C4A43902  42.306  26.070   7.364
 3348POPC   C1B43903  42.455  26.226   6.464
 3348POPC   C2B43904  42.442  26.268   6.764
 3348POPC   C3B43905  42.504  26.247   7.064
 3348POPC   C4B43906  42.438  26.266   7.364
 3349POPC   NC343907  37.634  18.291   5.564
 3349POPC   PO443908  37.669  18.237   5.864
 3349POPC   GL143909  37.685  18.282   6.164
 3349POPC   GL243910  37.570  18.378   6.164
 3349POPC   C1A43911  37.710  18.244   6.464
 3349POPC   D2A43912  37.649  18.277   6.764
 3349POPC   C3A43913  37.706  18.283   7.064
 3349POPC   C4A43914  37.693  18.273   7.364
 3349POPC   C1B43915  37.413  18.428   6.464
 3349POPC   C2B43916  37.412  18.374   6.764
 3349POPC   C3B43917  37.445  18.439   7.064
 3349POPC   C4B43918  37.485  18.360   7.364
 3350POPC   NC343919  33.045   8.940   5.564
 3350POPC   PO443920  33.012   8.964   5.864
 3350POPC   GL143921  32.993   8.990   6.164
 3350POPC   GL243922  33.093   8.922   6.164
 3350POPC   C1A43923  33.005   8.928   6.464
 3350POPC   D2A43924  32.998   8.943   6.764
 3350POPC   C3A43925  33.036   9.006   7.064
 3350POPC   C4A43926  33.052   8.927   7.364
 3350POPC   C1B43927  33.187   8.879   6.464
 3350POPC   C2B43928  33.268   8.822   6.764
 3350POPC   C3B43929  33.211   8.796   7.064
 3350POPC   C4B43930  33.263   8.833   7.364
 3351POPC   NC343931  32.270  20.575   5.564
 3351POPC   PO443932  32.236  20.562   5.864
 3351POPC   GL143933  32.210  20.641   6.164
 3351POPC   GL243934  32.284  20.496   6.164
 3351POPC   C1A43935  32.261  20.634   6.464
 3351POPC   D2A43936  32.234  20.583   6.764
 3351POPC   C3A43937  32.210  20.655   7.064
 3351POPC   C4A43938  32.288  20.651   7.364
 3351POPC   C1B43939  32.286  20.401   6.464
 3351POPC   C2B43940  32.258  20.313   6.764
 3351POPC   C3B43941  32.272  20.344   7.064
 3351POPC   C4B43942  32.219  20.409   7.364
 3352POPC   NC343943  20.620  30.684   5.564
 3352POPC   PO443944  20.601  30.668   5.864
 3352POPC   GL143945  20.569  30.691   6.164
 3352POPC   GL243946  20.578  30.794   6.164
 3352POPC   C1A43947  20.580  30.685   6.464
 3352POPC   D2A43948  20.626  30.745   6.764
 3352POPC   C3A43949  20.570  30.695   7.064
 3352POPC   C4A43950  20.579  30.719   7.364
 3352POPC   C1B43951  20.519  30.912   6.464
 3352POPC   C2B43952  20.439  30.869   6.764
 3352POPC   C3B43953  20.426  30.865   7.064
 3352POPC   C4B43954  20.426  30.911   7.364
 3353POPC   NC343955  22.200  17.494   5.564
 3353POPC   PO443956  22.200  17.503   5.864
 3353POPC   GL143957  22.190  17.519   6.164
 3353POPC   GL243958  22.054  17.464   6.164
 3353POPC   C1A43959  22.196  17.483   6.464
 3353POPC   D2A43960  22.177  17.469   6.764
 3353POPC   C3A43961  22.147  17.548   7.064
 3353POPC   C4A43962  22.190  17.512   7.364
 3353POPC   C1B43963  21.984  17.359   6.464
 3353POPC   C2B43964  21.975  17.305   6.764
 3353POPC   C3B43965  21.924  17.337   7.064
 3353POPC   C4B43966  22.007  17.367   7.364
 3354POPC   NC343967  32.254  19.839   5.564
 3354POPC   PO443968  32.249  19.789   5.864
 3354POPC   GL143969  32.224  19.828   6.164
 3354POPC   GL243970  32.399  19.911   6.164
 3354POPC   C1A43971  32.277  19.817   6.464
 3354POPC   D2A43972  32.233  19.806   6.764
 3354POPC   C3A43973  32.247  19.827   7.064
 3354POPC   C4A43974  32.228  19.861   7.364
 3354POPC   C1B43975  32.409  19.952   6.464
 3354POPC   C2B43976  32.457  19.984   6.764
 3354POPC   C3B43977  32.455  20.000   7.064
 3354POPC   C4B43978  32.440  19.937   7.364
 3355POPC   NC343979  38.452  22.162   5.564
 3355POPC   PO443980  38.459  22.205   5.864
 3355POPC   GL143981  38.423  22.156   6.164
 3355POPC   GL243982  38.467  22.318   6.164
 3355POPC   C1A43983  38.469  22.140   6.464
 3355POPC   D2A43984  38.418  22.166   6.764
 3355POPC   C3A43985  38.435  22.121   7.064
 3355POPC   C4A43986  38.457  22.131   7.364
 3355POPC   C1B43987  38.542  22.355   6.464
 3355POPC   C2B43988  38.561  22.352   6.764
 3355POPC   C3B43989  38.558  22.410   7.064
 3355POPC   C4B43990  38.546  22.354   7.364
 3356POPC   NC343991   1.197  26.799   5.564
 3356POPC   PO443992   1.215  26.830   5.864
 3356POPC   GL143993   1.189  26.795   6.164
 3356POPC   GL243994   1.245  26.682   6.164
 3356POPC   C1A43995   1.200  26.836   6.464
 3356POPC   D2A43996   1.226  26.779   6.764
 3356POPC   C3A43997   1.171  26.825   7.064
 3356POPC   C4A43998   1.166  26.860   7.364
 3356POPC   C1B43999   1.316  26.568   6.464
 3356POPC   C2B44000   1.407  26.587   6.764
 3356POPC   C3B44001   1.365  26.591   7.064
 3356POPC   C4B44002   1.382  26.643   7.364
 3357POPC   NC344003  21.431  13.603   5.564
 3357POPC   PO444004  21.347  13.646   5.864
 3357POPC   GL144005  21.405  13.666   6.164
 3357POPC   GL244006  21.339  13.538   6.164
 3357POPC   C1A44007  21.428  13.617   6.464
 3357POPC   D2A44008  21.378  13.656   6.764
 3357POPC   C3A44009  21.400  13.602   7.064
 3357POPC   C4A44010  21.404  13.630   7.364
 3357POPC   C1B44011  21.296  13.351   6.464
 3357POPC   C2B44012  21.285  13.409   6.764
 3357POPC   C3B44013  21.261  13.426   7.064
 3357POPC   C4B44014  21.308  13.370   7.364
 3358POPC   NC344015  36.146   8.179   5.564
 3358POPC   PO444016  36.116   8.160   5.864
 3358POPC   GL144017  36.159   8.166   6.164
 3358POPC   GL244018  36.035   8.168   6.164
 3358POPC   C1A44019  36.141   8.216   6.464
 3358POPC   D2A44020  36.175   8.211   6.764
 3358POPC   C3A44021  36.162   8.201   7.064
 3358POPC   C4A44022  36.156   8.216   7.364
 3358POPC   C1B44023  35.909   8.115   6.464
 3358POPC   C2B44024  35.919   8.122   6.764
 3358POPC   C3B44025  35.901   8.132   7.064
 3358POPC   C4B44026  35.865   8.161   7.364
 3359POPC   NC344027  30.726   3.544   5.564
 3359POPC   PO444028  30.716   3.511   5.864
 3359POPC   GL144029  30.707   3.504   6.164
 3359POPC   GL244030  30.613   3.487   6.164
 3359POPC   C1A44031  30.682   3.494   6.464
 3359POPC   D2A44032  30.716   3.563   6.764
 3359POPC   C3A44033  30.672   3.519   7.064
 3359POPC   C4A44034  30.718   3.585   7.364
 3359POPC   C1B44035  30.455   3.401   6.464
 3359POPC   C2B44036  30.472   3.426   6.764
 3359POPC   C3B44037  30.457   3.370   7.064
 3359POPC   C4B44038  30.513   3.388   7.364
 3360POPC   NC344039  40.811  36.119   5.564
 3360POPC   PO444040  40.761  36.105   5.864
 3360POPC   GL144041  40.736  36.100   6.164
 3360POPC   GL244042  40.781  36.206   6.164
 3360POPC   C1A44043  40.766  36.170   6.464
 3360POPC   D2A44044  40.734  36.167   6.764
 3360POPC   C3A44045  40.796  36.146   7.064
 3360POPC   C4A44046  40.787  36.156   7.364
 3360POPC   C1B44047  40.794  36.379   6.464
 3360POPC   C2B44048  40.850  36.386   6.764
 3360POPC   C3B44049  40.762  36.342   7.064
 3360POPC   C4B44050  40.846  36.377   7.364
 3361POPC   NC344051   1.245  29.109   5.564
 3361POPC   PO444052   1.251  29.110   5.864
 3361POPC   GL144053   1.259  29.111   6.164
 3361POPC   GL244054   1.171  29.197   6.164
 3361POPC   C1A44055   1.256  29.125   6.464
 3361POPC   D2A44056   1.220  29.135   6.764
 3361POPC   C3A44057   1.261  29.151   7.064
 3361POPC   C4A44058   1.249  29.142   7.364
 3361POPC   C1B44059   1.068  29.351   6.464
 3361POPC   C2B44060   1.070  29.341   6.764
 3361POPC   C3B44061   1.000  29.344   7.064
 3361POPC   C4B44062   1.054  29.304   7.364
 3362POPC   NC344063  26.787  43.140   5.564
 3362POPC   PO444064  26.771  43.062   5.864
 3362POPC   GL144065  26.802  43.123   6.164
 3362POPC   GL244066  26.855  43.205   6.164
 3362POPC   C1A44067  26.848  43.135   6.464
 3362POPC   D2A44068  26.800  43.101   6.764
 3362POPC   C3A44069  26.794  43.102   7.064
 3362POPC   C4A44070  26.772  43.100   7.364
 3362POPC   C1B44071  26.861  43.393   6.464
 3362POPC   C2B44072  26.927  43.371   6.764
 3362POPC   C3B44073  26.923  43.347   7.064
 3362POPC   C4B44074  26.830  43.394   7.364
 3363POPC   NC344075  12.807  39.958   5.564
 3363POPC   PO444076  12.887  39.980   5.864
 3363POPC   GL144077  12.810  40.034   6.164
 3363POPC   GL244078  12.886  40.075   6.164
 3363POPC   C1A44079  12.900  40.010   6.464
 3363POPC   D2A44080  12.809  39.980   6.764
 3363POPC   C3A44081  12.853  40.043   7.064
 3363POPC   C4A44082  12.900  39.958   7.364
 3363POPC   C1B44083  13.024  40.199   6.464
 3363POPC   C2B44084  12.976  40.208   6.764
 3363POPC   C3B44085  12.997  40.218   7.064
 3363POPC   C4B44086  12.992  40.152   7.364
 3364POPC   NC344087  12.071  20.561   5.564
 3364POPC   PO444088  12.060  20.561   5.864
 3364POPC   GL144089  12.061  20.631   6.164
 3364POPC   GL244090  12.006  20.452   6.164
 3364POPC   C1A44091  12.075  20.654   6.464
 3364POPC   D2A44092  12.031  20.562   6.764
 3364POPC   C3A44093  12.122  20.566   7.064
 3364POPC   C4A44094  12.042  20.612   7.364
 3364POPC   C1B44095  11.968  20.410   6.464
 3364POPC   C2B44096  11.920  20.343   6.764
 3364POPC   C3B44097  11.994  20.372   7.064
 3364POPC   C4B44098  11.980  20.432   7.364
 3365POPC   NC344099  19.808  43.151   5.564
 3365POPC   PO444100  19.858  43.125   5.864
 3365POPC   GL144101  19.863  43.075   6.164
 3365POPC   GL244102  19.880  43.035   6.164
 3365POPC   C1A44103  19.849  43.111   6.464
 3365POPC   D2A44104  19.795  43.127   6.764
 3365POPC   C3A44105  19.857  43.153   7.064
 3365POPC   C4A44106  19.865  43.134   7.364
 3365POPC   C1B44107  19.954  42.839   6.464
 3365POPC   C2B44108  19.945  42.877   6.764
 3365POPC   C3B44109  19.905  42.836   7.064
 3365POPC   C4B44110  19.955  42.914   7.364
 3366POPC   NC344111   5.143   3.569   5.564
 3366POPC   PO444112   5.083   3.530   5.864
 3366POPC   GL144113   5.066   3.575   6.164
 3366POPC   GL244114   5.009   3.524   6.164
 3366POPC   C1A44115   5.075   3.493   6.464
 3366POPC   D2A44116   5.096   3.541   6.764
 3366POPC   C3A44117   5.058   3.561   7.064
 3366POPC   C4A44118   5.100   3.549   7.364
 3366POPC   C1B44119   4.897   3.631   6.464
 3366POPC   C2B44120   4.856   3.618   6.764
 3366POPC   C3B44121   4.847   3.547   7.064
 3366POPC   C4B44122   4.846   3.574   7.364
 3367POPC   NC344123  31.516  26.829   5.564
 3367POPC   PO444124  31.518  26.833   5.864
 3367POPC   GL144125  31.475  26.812   6.164
 3367POPC   GL244126  31.477  26.675   6.164
 3367POPC   C1A44127  31.518  26.862   6.464
 3367POPC   D2A44128  31.450  26.820   6.764
 3367POPC   C3A44129  31.446  26.806   7.064
 3367POPC   C4A44130  31.491  26.852   7.364
 3367POPC   C1B44131  31.430  26.580   6.464
 3367POPC   C2B44132  31.490  26.525   6.764
 3367POPC   C3B44133  31.421  26.548   7.064
 3367POPC   C4B44134  31.415  26.613   7.364
 3368POPC   NC344135  15.909  41.569   5.564
 3368POPC   PO444136  15.992  41.560   5.864
 3368POPC   GL144137  15.961  41.581   6.164
 3368POPC   GL244138  15.847  41.567   6.164
 3368POPC   C1A44139  15.948  41.528   6.464
 3368POPC   D2A44140  15.991  41.583   6.764
 3368POPC   C3A44141  15.972  41.566   7.064
 3368POPC   C4A44142  15.959  41.544   7.364
 3368POPC   C1B44143  15.685  41.565   6.464
 3368POPC   C2B44144  15.683  41.509   6.764
 3368POPC   C3B44145  15.691  41.521   7.064
 3368POPC   C4B44146  15.711  41.529   7.364
 3369POPC   NC344147  24.462  33.018   5.564
 3369POPC   PO444148  24.537  33.066   5.864
 3369POPC   GL144149  24.445  33.063   6.164
 3369POPC   GL244150  24.595  33.029   6.164
 3369POPC   C1A44151  24.518  33.055   6.464
 3369POPC   D2A44152  24.502  33.052   6.764
 3369POPC   C3A44153  24.469  33.035   7.064
 3369POPC   C4A44154  24.471  33.000   7.364
 3369POPC   C1B44155  24.697  33.083   6.464
 3369POPC   C2B44156  24.687  33.172   6.764
 3369POPC   C3B44157  24.685  33.145   7.064
 3369POPC   C4B44158  24.766  33.105   7.364
 3370POPC   NC344159  40.055   1.208   5.564
 3370POPC   PO444160  40.007   1.261   5.864
 3370POPC   GL144161  40.000   1.261   6.164
 3370POPC   GL244162  39.969   1.334   6.164
 3370POPC   C1A44163  39.991   1.261   6.464
 3370POPC   D2A44164  40.022   1.178   6.764
 3370POPC   C3A44165  39.984   1.191   7.064
 3370POPC   C4A44166  39.974   1.180   7.364
 3370POPC   C1B44167  39.863   1.401   6.464
 3370POPC   C2B44168  39.816   1.452   6.764
 3370POPC   C3B44169  39.884   1.398   7.064
 3370POPC   C4B44170  39.868   1.397   7.364
 3371POPC   NC344171   4.343  43.147   5.564
 3371POPC   PO444172   4.301  43.072   5.864
 3371POPC   GL144173   4.353  43.098   6.164
 3371POPC   GL244174   4.398  42.963   6.164
 3371POPC   C1A44175   4.362  43.138   6.464
 3371POPC   D2A44176   4.343  43.114   6.764
 3371POPC   C3A44177   4.324  43.063   7.064
 3371POPC   C4A44178   4.351  43.130   7.364
 3371POPC   C1B44179   4.485  42.881   6.464
 3371POPC   C2B44180   4.440  42.869   6.764
 3371POPC   C3B44181   4.439  42.910   7.064
 3371POPC   C4B44182   4.454  42.863   7.364
 3372POPC   NC344183  20.656  25.291   5.564
 3372POPC   PO444184  20.598  25.310   5.864
 3372POPC   GL144185  20.596  25.278   6.164
 3372POPC   GL244186  20.482  25.143   6.164
 3372POPC   C1A44187  20.637  25.231   6.464
 3372POPC   D2A44188  20.654  25.254   6.764
 3372POPC   C3A44189  20.610  25.231   7.064
 3372POPC   C4A44190  20.660  25.262   7.364
 3372POPC   C1B44191  20.466  25.049   6.464
 3372POPC   C2B44192  20.474  25.115   6.764
 3372POPC   C3B44193  20.473  25.090   7.064
 3372POPC   C4B44194  20.411  25.112   7.364
 3373POPC   NC344195  36.941  13.594   5.564
 3373POPC   PO444196  36.866  13.655   5.864
 3373POPC   GL144197  36.869  13.647   6.164
 3373POPC   GL244198  36.742  13.599   6.164
 3373POPC   C1A44199  36.903  13.582   6.464
 3373POPC   D2A44200  36.911  13.673   6.764
 3373POPC   C3A44201  36.869  13.637   7.064
 3373POPC   C4A44202  36.924  13.601   7.364
 3373POPC   C1B44203  36.690  13.618   6.464
 3373POPC   C2B44204  36.638  13.612   6.764
 3373POPC   C3B44205  36.690  13.631   7.064
 3373POPC   C4B44206  36.641  13.628   7.364
 3374POPC   NC344207  10.493  22.898   5.564
 3374POPC   PO444208  10.524  22.903   5.864
 3374POPC   GL144209  10.543  22.982   6.164
 3374POPC   GL244210  10.656  22.969   6.164
 3374POPC   C1A44211  10.503  22.941   6.464
 3374POPC   D2A44212  10.570  22.974   6.764
 3374POPC   C3A44213  10.542  22.970   7.064
 3374POPC   C4A44214  10.552  22.926   7.364
 3374POPC   C1B44215  10.798  22.970   6.464
 3374POPC   C2B44216  10.755  22.930   6.764
 3374POPC   C3B44217  10.784  22.947   7.064
 3374POPC   C4B44218  10.818  22.956   7.364
 3375POPC   NC344219  19.795  28.408   5.564
 3375POPC   PO444220  19.832  28.383   5.864
 3375POPC   GL144221  19.856  28.409   6.164
 3375POPC   GL244222  19.885  28.543   6.164
 3375POPC   C1A44223  19.799  28.357   6.464
 3375POPC   D2A44224  19.806  28.333   6.764
 3375POPC   C3A44225  19.819  28.337   7.064
 3375POPC   C4A44226  19.845  28.415   7.364
 3375POPC   C1B44227  19.867  28.653   6.464
 3375POPC   C2B44228  19.840  28.653   6.764
 3375POPC   C3B44229  19.907  28.590   7.064
 3375POPC   C4B44230  19.861  28.645   7.364
 3376POPC   NC344231   4.272  39.188   5.564
 3376POPC   PO444232   4.290  39.265   5.864
 3376POPC   GL144233   4.280  39.258   6.164
 3376POPC   GL244234   4.205  39.354   6.164
 3376POPC   C1A44235   4.320  39.221   6.464
 3376POPC   D2A44236   4.349  39.224   6.764
 3376POPC   C3A44237   4.343  39.214   7.064
 3376POPC   C4A44238   4.359  39.200   7.364
 3376POPC   C1B44239   4.207  39.414   6.464
 3376POPC   C2B44240   4.212  39.390   6.764
 3376POPC   C3B44241   4.203  39.432   7.064
 3376POPC   C4B44242   4.191  39.429   7.364
 3377POPC   NC344243  36.155  37.660   5.564
 3377POPC   PO444244  36.157  37.680   5.864
 3377POPC   GL144245  36.101  37.690   6.164
 3377POPC   GL244246  36.263  37.615   6.164
 3377POPC   C1A44247  36.176  37.714   6.464
 3377POPC   D2A44248  36.098  37.644   6.764
 3377POPC   C3A44249  36.163  37.687   7.064
 3377POPC   C4A44250  36.112  37.725   7.364
 3377POPC   C1B44251  36.310  37.583   6.464
 3377POPC   C2B44252  36.318  37.546   6.764
 3377POPC   C3B44253  36.357  37.563   7.064
 3377POPC   C4B44254  36.344  37.551   7.364
 3378POPC   NC344255   1.207   0.458   5.564
 3378POPC   PO444256   1.222   0.389   5.864
 3378POPC   GL144257   1.240   0.484   6.164
 3378POPC   GL244258   1.302   0.329   6.164
 3378POPC   C1A44259   1.249   0.456   6.464
 3378POPC   D2A44260   1.212   0.432   6.764
 3378POPC   C3A44261   1.212   0.445   7.064
 3378POPC   C4A44262   1.243   0.477   7.364
 3378POPC   C1B44263   1.378   0.300   6.464
 3378POPC   C2B44264   1.440   0.297   6.764
 3378POPC   C3B44265   1.453   0.284   7.064
 3378POPC   C4B44266   1.467   0.305   7.364
 3379POPC   NC344267   8.978  33.070   5.564
 3379POPC   PO444268   8.953  32.994   5.864
 3379POPC   GL144269   9.002  33.074   6.164
 3379POPC   GL244270   9.044  32.978   6.164
 3379POPC   C1A44271   9.007  33.066   6.464
 3379POPC   D2A44272   9.012  33.073   6.764
 3379POPC   C3A44273   9.006  33.004   7.064
 3379POPC   C4A44274   8.961  32.987   7.364
 3379POPC   C1B44275   9.203  32.898   6.464
 3379POPC   C2B44276   9.174  32.872   6.764
 3379POPC   C3B44277   9.207  32.812   7.064
 3379POPC   C4B44278   9.185  32.882   7.364
 3380POPC   NC344279   4.321  37.700   5.564
 3380POPC   PO444280   4.310  37.667   5.864
 3380POPC   GL144281   4.285  37.675   6.164
 3380POPC   GL244282   4.203  37.579   6.164
 3380POPC   C1A44283   4.364  37.660   6.464
 3380POPC   D2A44284   4.350  37.643   6.764
 3380POPC   C3A44285   4.271  37.725   7.064
 3380POPC   C4A44286   4.275  37.703   7.364
 3380POPC   C1B44287   4.127  37.601   6.464
 3380POPC   C2B44288   4.101  37.541   6.764
 3380POPC   C3B44289   4.097  37.579   7.064
 3380POPC   C4B44290   4.081  37.609   7.364
 3381POPC   NC344291  37.640  41.537   5.564
 3381POPC   PO444292  37.644  41.582   5.864
 3381POPC   GL144293  37.720  41.532   6.164
 3381POPC   GL244294  37.792  41.567   6.164
 3381POPC   C1A44295  37.683  41.588   6.464
 3381POPC   D2A44296  37.680  41.592   6.764
 3381POPC   C3A44297  37.716  41.521   7.064
 3381POPC   C4A44298  37.728  41.532   7.364
 3381POPC   C1B44299  37.939  41.627   6.464
 3381POPC   C2B44300  37.971  41.608   6.764
 3381POPC   C3B44301  37.922  41.648   7.064
 3381POPC   C4B44302  37.907  41.592   7.364
 3382POPC   NC344303  12.114   9.763   5.564
 3382POPC   PO444304  12.041   9.704   5.864
 3382POPC   GL144305  12.106   9.778   6.164
 3382POPC   GL244306  11.992   9.759   6.164
 3382POPC   C1A44307  12.079   9.698   6.464
 3382POPC   D2A44308  12.065   9.782   6.764
 3382POPC   C3A44309  12.065   9.785   7.064
 3382POPC   C4A44310  12.067   9.784   7.364
 3382POPC   C1B44311  11.786   9.690   6.464
 3382POPC   C2B44312  11.869   9.708   6.764
 3382POPC   C3B44313  11.807   9.760   7.064
 3382POPC   C4B44314  11.865   9.735   7.364
 3383POPC   NC344315  43.841  13.646   5.564
 3383POPC   PO444316  43.853  13.594   5.864
 3383POPC   GL144317  43.933  13.600   6.164
 3383POPC   GL244318  43.844  13.775   6.164
 3383POPC   C1A44319  43.861  13.607   6.464
 3383POPC   D2A44320  43.854  13.626   6.764
 3383POPC   C3A44321  43.864  13.631   7.064
 3383POPC   C4A44322  43.901  13.671   7.364
 3383POPC   C1B44323  43.917  13.867   6.464
 3383POPC   C2B44324  43.880  13.916   6.764
 3383POPC   C3B44325  43.893  13.846   7.064
 3383POPC   C4B44326  43.893  13.903   7.364
 3384POPC   NC344327   7.441  17.471   5.564
 3384POPC   PO444328   7.390  17.538   5.864
 3384POPC   GL144329   7.399  17.492   6.164
 3384POPC   GL244330   7.361  17.375   6.164
 3384POPC   C1A44331   7.452  17.554   6.464
 3384POPC   D2A44332   7.393  17.508   6.764
 3384POPC   C3A44333   7.373  17.520   7.064
 3384POPC   C4A44334   7.377  17.490   7.364
 3384POPC   C1B44335   7.287  17.310   6.464
 3384POPC   C2B44336   7.261  17.309   6.764
 3384POPC   C3B44337   7.294  17.319   7.064
 3384POPC   C4B44338   7.272  17.274   7.364
 3385POPC   NC344339  29.159   6.621   5.564
 3385POPC   PO444340  29.152   6.628   5.864
 3385POPC   GL144341  29.180   6.602   6.164
 3385POPC   GL244342  29.092   6.788   6.164
 3385POPC   C1A44343  29.142   6.658   6.464
 3385POPC   D2A44344  29.156   6.610   6.764
 3385POPC   C3A44345  29.104   6.694   7.064
 3385POPC   C4A44346  29.174   6.680   7.364
 3385POPC   C1B44347  29.025   6.831   6.464
 3385POPC   C2B44348  29.015   6.921   6.764
 3385POPC   C3B44349  29.058   6.917   7.064
 3385POPC   C4B44350  29.002   6.884   7.364
 3386POPC   NC344351  36.939  21.422   5.564
 3386POPC   PO444352  36.854  21.351   5.864
 3386POPC   GL144353  36.891  21.360   6.164
 3386POPC   GL244354  36.893  21.307   6.164
 3386POPC   C1A44355  36.913  21.432   6.464
 3386POPC   D2A44356  36.926  21.419   6.764
 3386POPC   C3A44357  36.879  21.403   7.064
 3386POPC   C4A44358  36.927  21.380   7.364
 3386POPC   C1B44359  36.836  21.110   6.464
 3386POPC   C2B44360  36.823  21.168   6.764
 3386POPC   C3B44361  36.824  21.113   7.064
 3386POPC   C4B44362  36.840  21.193   7.364
 3387POPC   NC344363  24.446  31.426   5.564
 3387POPC   PO444364  24.488  31.444   5.864
 3387POPC   GL144365  24.453  31.436   6.164
 3387POPC   GL244366  24.410  31.484   6.164
 3387POPC   C1A44367  24.501  31.480   6.464
 3387POPC   D2A44368  24.459  31.443   6.764
 3387POPC   C3A44369  24.531  31.435   7.064
 3387POPC   C4A44370  24.441  31.465   7.364
 3387POPC   C1B44371  24.205  31.579   6.464
 3387POPC   C2B44372  24.258  31.534   6.764
 3387POPC   C3B44373  24.239  31.500   7.064
 3387POPC   C4B44374  24.271  31.557   7.364
 3388POPC   NC344375  31.462  15.913   5.564
 3388POPC   PO444376  31.506  15.945   5.864
 3388POPC   GL144377  31.522  15.933   6.164
 3388POPC   GL244378  31.435  16.032   6.164
 3388POPC   C1A44379  31.517  15.983   6.464
 3388POPC   D2A44380  31.423  15.983   6.764
 3388POPC   C3A44381  31.505  15.967   7.064
 3388POPC   C4A44382  31.425  15.937   7.364
 3388POPC   C1B44383  31.344  16.164   6.464
 3388POPC   C2B44384  31.282  16.138   6.764
 3388POPC   C3B44385  31.336  16.163   7.064
 3388POPC   C4B44386  31.281  16.128   7.364
 3389POPC   NC344387   1.963   8.993   5.564
 3389POPC   PO444388   1.957   8.946   5.864
 3389POPC   GL144389   1.968   9.001   6.164
 3389POPC   GL244390   2.148   8.924   6.164
 3389POPC   C1A44391   2.035   8.975   6.464
 3389POPC   D2A44392   2.010   8.956   6.764
 3389POPC   C3A44393   2.003   8.935   7.064
 3389POPC   C4A44394   1.955   8.998   7.364
 3389POPC   C1B44395   2.251   8.867   6.464
 3389POPC   C2B44396   2.198   8.887   6.764
 3389POPC   C3B44397   2.254   8.927   7.064
 3389POPC   C4B44398   2.260   8.893   7.364
 3390POPC   NC344399  21.359  40.044   5.564
 3390POPC   PO444400  21.402  39.981   5.864
 3390POPC   GL144401  21.428  39.989   6.164
 3390POPC   GL244402  21.522  40.082   6.164
 3390POPC   C1A44403  21.350  40.034   6.464
 3390POPC   D2A44404  21.395  39.972   6.764
 3390POPC   C3A44405  21.360  40.043   7.064
 3390POPC   C4A44406  21.436  40.010   7.364
 3390POPC   C1B44407  21.551  40.109   6.464
 3390POPC   C2B44408  21.611  40.160   6.764
 3390POPC   C3B44409  21.641  40.134   7.064
 3390POPC   C4B44410  21.592  40.172   7.364
 3391POPC   NC344411  31.438  20.627   5.564
 3391POPC   PO444412  31.482  20.612   5.864
 3391POPC   GL144413  31.500  20.593   6.164
 3391POPC   GL244414  31.327  20.684   6.164
 3391POPC   C1A44415  31.431  20.567   6.464
 3391POPC   D2A44416  31.437  20.582   6.764
 3391POPC   C3A44417  31.513  20.658   7.064
 3391POPC   C4A44418  31.520  20.578   7.364
 3391POPC   C1B44419  31.204  20.707   6.464
 3391POPC   C2B44420  31.261  20.643   6.764
 3391POPC   C3B44421  31.209  20.655   7.064
 3391POPC   C4B44422  31.199  20.720   7.364
 3392POPC   NC344423  41.528   8.162   5.564
 3392POPC   PO444424  41.557   8.156   5.864
 3392POPC   GL144425  41.520   8.169   6.164
 3392POPC   GL244426  41.431   8.108   6.164
 3392POPC   C1A44427  41.544   8.189   6.464
 3392POPC   D2A44428  41.552   8.199   6.764
 3392POPC   C3A44429  41.561   8.228   7.064
 3392POPC   C4A44430  41.529   8.168   7.364
 3392POPC   C1B44431  41.402   8.030   6.464
 3392POPC   C2B44432  41.328   8.002   6.764
 3392POPC   C3B44433  41.336   8.002   7.064
 3392POPC   C4B44434  41.354   8.046   7.364
 3393POPC   NC344435   6.606  14.359   5.564
 3393POPC   PO444436   6.662  14.387   5.864
 3393POPC   GL144437   6.668  14.393   6.164
 3393POPC   GL244438   6.620  14.254   6.164
 3393POPC   C1A44439   6.678  14.409   6.464
 3393POPC   D2A44440   6.671  14.438   6.764
 3393POPC   C3A44441   6.636  14.434   7.064
 3393POPC   C4A44442   6.694  14.433   7.364
 3393POPC   C1B44443   6.532  14.127   6.464
 3393POPC   C2B44444   6.528  14.189   6.764
 3393POPC   C3B44445   6.575  14.163   7.064
 3393POPC   C4B44446   6.577  14.115   7.364
 3394POPC   NC344447  32.249   5.903   5.564
 3394POPC   PO444448  32.200   5.919   5.864
 3394POPC   GL144449  32.236   5.853   6.164
 3394POPC   GL244450  32.351   5.956   6.164
 3394POPC   C1A44451  32.274   5.826   6.464
 3394POPC   D2A44452  32.201   5.849   6.764
 3394POPC   C3A44453  32.283   5.870   7.064
 3394POPC   C4A44454  32.275   5.847   7.364
 3394POPC   C1B44455  32.375   6.058   6.464
 3394POPC   C2B44456  32.439   6.057   6.764
 3394POPC   C3B44457  32.448   6.075   7.064
 3394POPC   C4B44458  32.379   6.065   7.364
 3395POPC   NC344459  22.984  34.548   5.564
 3395POPC   PO444460  22.938  34.537   5.864
 3395POPC   GL144461  22.963  34.572   6.164
 3395POPC   GL244462  22.833  34.487   6.164
 3395POPC   C1A44463  22.919  34.538   6.464
 3395POPC   D2A44464  22.981  34.607   6.764
 3395POPC   C3A44465  22.946  34.572   7.064
 3395POPC   C4A44466  22.984  34.540   7.364
 3395POPC   C1B44467  22.739  34.490   6.464
 3395POPC   C2B44468  22.692  34.484   6.764
 3395POPC   C3B44469  22.693  34.430   7.064
 3395POPC   C4B44470  22.684  34.438   7.364
 3396POPC   NC344471   8.154  38.444   5.564
 3396POPC   PO444472   8.148  38.442   5.864
 3396POPC   GL144473   8.161  38.425   6.164
 3396POPC   GL244474   8.086  38.574   6.164
 3396POPC   C1A44475   8.187  38.441   6.464
 3396POPC   D2A44476   8.193  38.497   6.764
 3396POPC   C3A44477   8.167  38.457   7.064
 3396POPC   C4A44478   8.157  38.450   7.364
 3396POPC   C1B44479   8.001  38.625   6.464
 3396POPC   C2B44480   8.018  38.612   6.764
 3396POPC   C3B44481   7.948  38.624   7.064
 3396POPC   C4B44482   8.037  38.593   7.364
 3397POPC   NC344483   5.101  36.888   5.564
 3397POPC   PO444484   5.126  36.862   5.864
 3397POPC   GL144485   5.121  36.882   6.164
 3397POPC   GL244486   5.223  36.920   6.164
 3397POPC   C1A44487   5.118  36.905   6.464
 3397POPC   D2A44488   5.048  36.858   6.764
 3397POPC   C3A44489   5.046  36.913   7.064
 3397POPC   C4A44490   5.102  36.948   7.364
 3397POPC   C1B44491   5.353  36.954   6.464
 3397POPC   C2B44492   5.321  36.907   6.764
 3397POPC   C3B44493   5.337  36.953   7.064
 3397POPC   C4B44494   5.363  36.934   7.364
 3398POPC   NC344495  16.717  27.579   5.564
 3398POPC   PO444496  16.766  27.619   5.864
 3398POPC   GL144497  16.732  27.566   6.164
 3398POPC   GL244498  16.643  27.605   6.164
 3398POPC   C1A44499  16.684  27.596   6.464
 3398POPC   D2A44500  16.736  27.616   6.764
 3398POPC   C3A44501  16.711  27.619   7.064
 3398POPC   C4A44502  16.713  27.587   7.364
 3398POPC   C1B44503  16.515  27.535   6.464
 3398POPC   C2B44504  16.458  27.581   6.764
 3398POPC   C3B44505  16.503  27.598   7.064
 3398POPC   C4B44506  16.503  27.579   7.364
 3399POPC   NC344507  43.914  39.187   5.564
 3399POPC   PO444508  43.900  39.222   5.864
 3399POPC   GL144509  43.888  39.187   6.164
 3399POPC   GL244510  43.983  39.293   6.164
 3399POPC   C1A44511  43.934  39.237   6.464
 3399POPC   D2A44512  43.895  39.263   6.764
 3399POPC   C3A44513  43.855  39.268   7.064
 3399POPC   C4A44514  43.896  39.241   7.364
 3399POPC   C1B44515  44.020  39.457   6.464
 3399POPC   C2B44516  44.023  39.373   6.764
 3399POPC   C3B44517  44.082  39.401   7.064
 3399POPC   C4B44518  44.055  39.420   7.364
 3400POPC   NC344519  40.004   5.852   5.564
 3400POPC   PO444520  40.056   5.853   5.864
 3400POPC   GL144521  40.050   5.871   6.164
 3400POPC   GL244522  39.893   5.958   6.164
 3400POPC   C1A44523  39.969   5.890   6.464
 3400POPC   D2A44524  39.970   5.842   6.764
 3400POPC   C3A44525  40.016   5.888   7.064
 3400POPC   C4A44526  40.030   5.829   7.364
 3400POPC   C1B44527  39.882   6.085   6.464
 3400POPC   C2B44528  39.808   6.100   6.764
 3400POPC   C3B44529  39.859   6.035   7.064
 3400POPC   C4B44530  39.824   6.017   7.364
 3401POPC   NC344531  11.297  30.727   5.564
 3401POPC   PO444532  11.250  30.652   5.864
 3401POPC   GL144533  11.286  30.698   6.164
 3401POPC   GL244534  11.356  30.828   6.164
 3401POPC   C1A44535  11.275  30.675   6.464
 3401POPC   D2A44536  11.300  30.677   6.764
 3401POPC   C3A44537  11.252  30.711   7.064
 3401POPC   C4A44538  11.331  30.665   7.364
 3401POPC   C1B44539  11.355  30.958   6.464
 3401POPC   C2B44540  11.291  30.982   6.764
 3401POPC   C3B44541  11.294  30.981   7.064
 3401POPC   C4B44542  11.305  30.978   7.364
 3402POPC   NC344543  40.746  28.361   5.564
 3402POPC   PO444544  40.756  28.395   5.864
 3402POPC   GL144545  40.756  28.333   6.164
 3402POPC   GL244546  40.880  28.380   6.164
 3402POPC   C1A44547  40.778  28.386   6.464
 3402POPC   D2A44548  40.769  28.323   6.764
 3402POPC   C3A44549  40.828  28.413   7.064
 3402POPC   C4A44550  40.748  28.352   7.364
 3402POPC   C1B44551  41.061  28.363   6.464
 3402POPC   C2B44552  41.060  28.366   6.764
 3402POPC   C3B44553  41.035  28.372   7.064
 3402POPC   C4B44554  40.991  28.374   7.364
 3403POPC   NC344555  44.709   8.243   5.564
 3403POPC   PO444556  44.702   8.165   5.864
 3403POPC   GL144557  44.663   8.243   6.164
 3403POPC   GL244558  44.504   8.241   6.164
 3403POPC   C1A44559  44.676   8.172   6.464
 3403POPC   D2A44560  44.694   8.214   6.764
 3403POPC   C3A44561  44.645   8.230   7.064
 3403POPC   C4A44562  44.619   8.189   7.364
 3403POPC   C1B44563  44.437   8.301   6.464
 3403POPC   C2B44564  44.400   8.301   6.764
 3403POPC   C3B44565  44.452   8.299   7.064
 3403POPC   C4B44566  44.477   8.278   7.364
 3404POPC   NC344567   5.870  38.440   5.564
 3404POPC   PO444568   5.834  38.438   5.864
 3404POPC   GL144569   5.904  38.423   6.164
 3404POPC   GL244570   5.896  38.540   6.164
 3404POPC   C1A44571   5.866  38.493   6.464
 3404POPC   D2A44572   5.856  38.455   6.764
 3404POPC   C3A44573   5.846  38.460   7.064
 3404POPC   C4A44574   5.849  38.437   7.364
 3404POPC   C1B44575   6.027  38.631   6.464
 3404POPC   C2B44576   5.989  38.700   6.764
 3404POPC   C3B44577   5.998  38.643   7.064
 3404POPC   C4B44578   6.055  38.617   7.364
 3405POPC   NC344579   2.806  14.375   5.564
 3405POPC   PO444580   2.815  14.362   5.864
 3405POPC   GL144581   2.765  14.397   6.164
 3405POPC   GL244582   2.874  14.385   6.164
 3405POPC   C1A44583   2.723  14.445   6.464
 3405POPC   D2A44584   2.796  14.427   6.764
 3405POPC   C3A44585   2.780  14.400   7.064
 3405POPC   C4A44586   2.734  14.406   7.364
 3405POPC   C1B44587   2.974  14.365   6.464
 3405POPC   C2B44588   2.968  14.387   6.764
 3405POPC   C3B44589   2.992  14.306   7.064
 3405POPC   C4B44590   3.047  14.344   7.364
 3406POPC   NC344591  32.282  29.165   5.564
 3406POPC   PO444592  32.284  29.154   5.864
 3406POPC   GL144593  32.264  29.191   6.164
 3406POPC   GL244594  32.367  29.225   6.164
 3406POPC   C1A44595  32.265  29.156   6.464
 3406POPC   D2A44596  32.210  29.180   6.764
 3406POPC   C3A44597  32.277  29.168   7.064
 3406POPC   C4A44598  32.251  29.135   7.364
 3406POPC   C1B44599  32.471  29.260   6.464
 3406POPC   C2B44600  32.445  29.291   6.764
 3406POPC   C3B44601  32.454  29.237   7.064
 3406POPC   C4B44602  32.448  29.262   7.364
 3407POPC   NC344603  22.185  12.061   5.564
 3407POPC   PO444604  22.168  12.056   5.864
 3407POPC   GL144605  22.179  12.050   6.164
 3407POPC   GL244606  22.247  12.232   6.164
 3407POPC   C1A44607  22.118  12.065   6.464
 3407POPC   D2A44608  22.184  12.095   6.764
 3407POPC   C3A44609  22.149  12.054   7.064
 3407POPC   C4A44610  22.199  12.066   7.364
 3407POPC   C1B44611  22.238  12.264   6.464
 3407POPC   C2B44612  22.278  12.304   6.764
 3407POPC   C3B44613  22.284  12.262   7.064
 3407POPC   C4B44614  22.297  12.332   7.364
 3408POPC   NC344615  28.349   9.783   5.564
 3408POPC   PO444616  28.377   9.771   5.864
 3408POPC   GL144617  28.350   9.781   6.164
 3408POPC   GL244618  28.250   9.797   6.164
 3408POPC   C1A44619  28.406   9.716   6.464
 3408POPC   D2A44620  28.414   9.780   6.764
 3408POPC   C3A44621  28.406   9.785   7.064
 3408POPC   C4A44622  28.327   9.740   7.364
 3408POPC   C1B44623  28.118   9.857   6.464
 3408POPC   C2B44624  28.193   9.878   6.764
 3408POPC   C3B44625  28.115   9.843   7.064
 3408POPC   C4B44626  28.104   9.870   7.364
 3409POPC   NC344627   4.357  15.997   5.564
 3409POPC   PO444628   4.268  15.917   5.864
 3409POPC   GL144629   4.332  15.987   6.164
 3409POPC   GL244630   4.431  16.010   6.164
 3409POPC   C1A44631   4.351  15.961   6.464
 3409POPC   D2A44632   4.296  15.946   6.764
 3409POPC   C3A44633   4.356  15.932   7.064
 3409POPC   C4A44634   4.334  16.001   7.364
 3409POPC   C1B44635   4.550  15.994   6.464
 3409POPC   C2B44636   4.533  15.979   6.764
 3409POPC   C3B44637   4.548  15.968   7.064
 3409POPC   C4B44638   4.603  15.965   7.364
 3410POPC   NC344639  33.766  34.580   5.564
 3410POPC   PO444640  33.789  34.605   5.864
 3410POPC   GL144641  33.831  34.561   6.164
 3410POPC   GL244642  33.854  34.680   6.164
 3410POPC   C1A44643  33.757  34.585   6.464
 3410POPC   D2A44644  33.791  34.532   6.764
 3410POPC   C3A44645  33.843  34.548   7.064
 3410POPC   C4A44646  33.781  34.534   7.364
 3410POPC   C1B44647  33.844  34.870   6.464
 3410POPC   C2B44648  33.790  34.778   6.764
 3410POPC   C3B44649  33.854  34.843   7.064
 3410POPC   C4B44650  33.835  34.811   7.364
 3411POPC   NC344651  12.126  14.369   5.564
 3411POPC   PO444652  12.076  14.370   5.864
 3411POPC   GL144653  12.103  14.445   6.164
 3411POPC   GL244654  12.007  14.506   6.164
 3411POPC   C1A44655  12.112  14.410   6.464
 3411POPC   D2A44656  12.093  14.383   6.764
 3411POPC   C3A44657  12.052  14.397   7.064
 3411POPC   C4A44658  12.046  14.437   7.364
 3411POPC   C1B44659  12.014  14.639   6.464
 3411POPC   C2B44660  12.040  14.661   6.764
 3411POPC   C3B44661  12.031  14.665   7.064
 3411POPC   C4B44662  12.034  14.615   7.364
 3412POPC   NC344663   4.350  25.261   5.564
 3412POPC   PO444664   4.337  25.298   5.864
 3412POPC   GL144665   4.352  25.229   6.164
 3412POPC   GL244666   4.242  25.170   6.164
 3412POPC   C1A44667   4.346  25.224   6.464
 3412POPC   D2A44668   4.325  25.245   6.764
 3412POPC   C3A44669   4.323  25.276   7.064
 3412POPC   C4A44670   4.358  25.243   7.364
 3412POPC   C1B44671   4.057  25.110   6.464
 3412POPC   C2B44672   4.127  25.143   6.764
 3412POPC   C3B44673   4.103  25.090   7.064
 3412POPC   C4B44674   4.131  25.133   7.364
 3413POPC   NC344675   9.003  31.479   5.564
 3413POPC   PO444676   8.961  31.477   5.864
 3413POPC   GL144677   8.946  31.460   6.164
 3413POPC   GL244678   9.023  31.594   6.164
 3413POPC   C1A44679   8.942  31.513   6.464
 3413POPC   D2A44680   8.977  31.509   6.764
 3413POPC   C3A44681   8.956  31.493   7.064
 3413POPC   C4A44682   8.960  31.521   7.364
 3413POPC   C1B44683   9.100  31.708   6.464
 3413POPC   C2B44684   9.084  31.740   6.764
 3413POPC   C3B44685   9.065  31.691   7.064
 3413POPC   C4B44686   9.073  31.694   7.364
 3414POPC   NC344687  14.377  42.298   5.564
 3414POPC   PO444688  14.404  42.325   5.864
 3414POPC   GL144689  14.402  42.328   6.164
 3414POPC   GL244690  14.538  42.248   6.164
 3414POPC   C1A44691  14.433  42.294   6.464
 3414POPC   D2A44692  14.409  42.338   6.764
 3414POPC   C3A44693  14.453  42.304   7.064
 3414POPC   C4A44694  14.375  42.358   7.364
 3414POPC   C1B44695  14.543  42.211   6.464
 3414POPC   C2B44696  14.565  42.190   6.764
 3414POPC   C3B44697  14.621  42.132   7.064
 3414POPC   C4B44698  14.608  42.132   7.364
 3415POPC   NC344699  14.427  24.461   5.564
 3415POPC   PO444700  14.354  24.471   5.864
 3415POPC   GL144701  14.382  24.481   6.164
 3415POPC   GL244702  14.364  24.634   6.164
 3415POPC   C1A44703  14.408  24.485   6.464
 3415POPC   D2A44704  14.358  24.533   6.764
 3415POPC   C3A44705  14.388  24.519   7.064
 3415POPC   C4A44706  14.432  24.510   7.364
 3415POPC   C1B44707  14.323  24.744   6.464
 3415POPC   C2B44708  14.296  24.674   6.764
 3415POPC   C3B44709  14.359  24.726   7.064
 3415POPC   C4B44710  14.332  24.736   7.364
 3416POPC   NC344711  38.489   8.978   5.564
 3416POPC   PO444712  38.417   8.931   5.864
 3416POPC   GL144713  38.430   8.925   6.164
 3416POPC   GL244714  38.326   8.890   6.164
 3416POPC   C1A44715  38.482   8.986   6.464
 3416POPC   D2A44716  38.463   8.980   6.764
 3416POPC   C3A44717  38.470   8.954   7.064
 3416POPC   C4A44718  38.421   9.019   7.364
 3416POPC   C1B44719  38.174   8.854   6.464
 3416POPC   C2B44720  38.189   8.941   6.764
 3416POPC   C3B44721  38.211   8.926   7.064
 3416POPC   C4B44722  38.213   8.925   7.364
 3417POPC   NC344723  29.176  30.727   5.564
 3417POPC   PO444724  29.173  30.722   5.864
 3417POPC   GL144725  29.142  30.673   6.164
 3417POPC   GL244726  29.163  30.803   6.164
 3417POPC   C1A44727  29.191  30.710   6.464
 3417POPC   D2A44728  29.100  30.668   6.764
 3417POPC   C3A44729  29.130  30.658   7.064
 3417POPC   C4A44730  29.133  30.724   7.364
 3417POPC   C1B44731  29.084  30.984   6.464
 3417POPC   C2B44732  29.119  30.976   6.764
 3417POPC   C3B44733  29.118  30.931   7.064
 3417POPC   C4B44734  29.177  30.979   7.364
 3418POPC   NC344735  29.100   4.310   5.564
 3418POPC   PO444736  29.162   4.291   5.864
 3418POPC   GL144737  29.150   4.305   6.164
 3418POPC   GL244738  29.049   4.370   6.164
 3418POPC   C1A44739  29.096   4.293   6.464
 3418POPC   D2A44740  29.130   4.339   6.764
 3418POPC   C3A44741  29.160   4.336   7.064
 3418POPC   C4A44742  29.192   4.302   7.364
 3418POPC   C1B44743  28.888   4.431   6.464
 3418POPC   C2B44744  28.876   4.438   6.764
 3418POPC   C3B44745  28.914   4.361   7.064
 3418POPC   C4B44746  28.862   4.444   7.364
 3419POPC   NC344747  27.571   0.425   5.564
 3419POPC   PO444748  27.622   0.444   5.864
 3419POPC   GL144749  27.552   0.413   6.164
 3419POPC   GL244750  27.619   0.528   6.164
 3419POPC   C1A44751  27.547   0.388   6.464
 3419POPC   D2A44752  27.610   0.457   6.764
 3419POPC   C3A44753  27.575   0.462   7.064
 3419POPC   C4A44754  27.620   0.435   7.364
 3419POPC   C1B44755  27.713   0.646   6.464
 3419POPC   C2B44756  27.687   0.603   6.764
 3419POPC   C3B44757  27.718   0.698   7.064
 3419POPC   C4B44758  27.761   0.633   7.364
 3420POPC   NC344759  14.416   8.163   5.564
 3420POPC   PO444760  14.415   8.240   5.864
 3420POPC   GL144761  14.372   8.190   6.164
 3420POPC   GL244762  14.567   8.208   6.164
 3420POPC   C1A44763  14.413   8.171   6.464
 3420POPC   D2A44764  14.441   8.242   6.764
 3420POPC   C3A44765  14.354   8.161   7.064
 3420POPC   C4A44766  14.425   8.227   7.364
 3420POPC   C1B44767  14.635   8.164   6.464
 3420POPC   C2B44768  14.677   8.174   6.764
 3420POPC   C3B44769  14.621   8.204   7.064
 3420POPC   C4B44770  14.644   8.163   7.364
 3421POPC   NC344771  11.278  26.048   5.564
 3421POPC   PO444772  11.252  26.072   5.864
 3421POPC   GL144773  11.283  26.018   6.164
 3421POPC   GL244774  11.276  26.130   6.164
 3421POPC   C1A44775  11.279  26.053   6.464
 3421POPC   D2A44776  11.259  26.021   6.764
 3421POPC   C3A44777  11.287  26.009   7.064
 3421POPC   C4A44778  11.260  26.016   7.364
 3421POPC   C1B44779  11.383  26.322   6.464
 3421POPC   C2B44780  11.346  26.274   6.764
 3421POPC   C3B44781  11.333  26.316   7.064
 3421POPC   C4B44782  11.371  26.254   7.364
 3422POPC   NC344783  14.422  16.694   5.564
 3422POPC   PO444784  14.434  16.713   5.864
 3422POPC   GL144785  14.387  16.762   6.164
 3422POPC   GL244786  14.356  16.561   6.164
 3422POPC   C1A44787  14.385  16.688   6.464
 3422POPC   D2A44788  14.418  16.692   6.764
 3422POPC   C3A44789  14.412  16.733   7.064
 3422POPC   C4A44790  14.440  16.764   7.364
 3422POPC   C1B44791  14.403  16.508   6.464
 3422POPC   C2B44792  14.348  16.466   6.764
 3422POPC   C3B44793  14.389  16.483   7.064
 3422POPC   C4B44794  14.400  16.473   7.364
 3423POPC   NC344795  13.650  23.689   5.564
 3423POPC   PO444796  13.602  23.702   5.864
 3423POPC   GL144797  13.633  23.697   6.164
 3423POPC   GL244798  13.608  23.840   6.164
 3423POPC   C1A44799  13.608  23.728   6.464
 3423POPC   D2A44800  13.601  23.679   6.764
 3423POPC   C3A44801  13.654  23.757   7.064
 3423POPC   C4A44802  13.643  23.674   7.364
 3423POPC   C1B44803  13.522  23.891   6.464
 3423POPC   C2B44804  13.504  23.900   6.764
 3423POPC   C3B44805  13.467  23.937   7.064
 3423POPC   C4B44806  13.544  23.969   7.364
 3424POPC   NC344807   3.535  34.585   5.564
 3424POPC   PO444808   3.539  34.618   5.864
 3424POPC   GL144809   3.525  34.611   6.164
 3424POPC   GL244810   3.655  34.606   6.164
 3424POPC   C1A44811   3.581  34.586   6.464
 3424POPC   D2A44812   3.552  34.612   6.764
 3424POPC   C3A44813   3.509  34.576   7.064
 3424POPC   C4A44814   3.553  34.577   7.364
 3424POPC   C1B44815   3.806  34.691   6.464
 3424POPC   C2B44816   3.806  34.721   6.764
 3424POPC   C3B44817   3.804  34.688   7.064
 3424POPC   C4B44818   3.800  34.645   7.364
 3425POPC   NC344819   2.783   5.876   5.564
 3425POPC   PO444820   2.738   5.889   5.864
 3425POPC   GL144821   2.780   5.876   6.164
 3425POPC   GL244822   2.830   5.940   6.164
 3425POPC   C1A44823   2.789   5.845   6.464
 3425POPC   D2A44824   2.789   5.835   6.764
 3425POPC   C3A44825   2.765   5.837   7.064
 3425POPC   C4A44826   2.763   5.854   7.364
 3425POPC   C1B44827   2.823   6.087   6.464
 3425POPC   C2B44828   2.825   6.123   6.764
 3425POPC   C3B44829   2.859   6.047   7.064
 3425POPC   C4B44830   2.871   6.068   7.364
 3426POPC   NC344831  39.184  29.191   5.564
 3426POPC   PO444832  39.239  29.174   5.864
 3426POPC   GL144833  39.224  29.173   6.164
 3426POPC   GL244834  39.070  29.184   6.164
 3426POPC   C1A44835  39.256  29.152   6.464
 3426POPC   D2A44836  39.234  29.124   6.764
 3426POPC   C3A44837  39.258  29.110   7.064
 3426POPC   C4A44838  39.236  29.172   7.364
 3426POPC   C1B44839  38.980  29.155   6.464
 3426POPC   C2B44840  39.018  29.119   6.764
 3426POPC   C3B44841  38.968  29.182   7.064
 3426POPC   C4B44842  38.956  29.102   7.364
 3427POPC   NC344843  39.970  40.036   5.564
 3427POPC   PO444844  40.009  40.002   5.864
 3427POPC   GL144845  39.967  40.022   6.164
 3427POPC   GL244846  40.118  39.892   6.164
 3427POPC   C1A44847  39.960  39.978   6.464
 3427POPC   D2A44848  40.015  40.017   6.764
 3427POPC   C3A44849  39.995  39.979   7.064
 3427POPC   C4A44850  40.031  40.041   7.364
 3427POPC   C1B44851  40.226  39.907   6.464
 3427POPC   C2B44852  40.236  39.837   6.764
 3427POPC   C3B44853  40.188  39.838   7.064
 3427POPC   C4B44854  40.188  39.840   7.364
 3428POPC   NC344855  13.643  33.833   5.564
 3428POPC   PO444856  13.641  33.814   5.864
 3428POPC   GL144857  13.614  33.829   6.164
 3428POPC   GL244858  13.670  33.716   6.164
 3428POPC   C1A44859  13.580  33.841   6.464
 3428POPC   D2A44860  13.596  33.840   6.764
 3428POPC   C3A44861  13.605  33.842   7.064
 3428POPC   C4A44862  13.613  33.794   7.364
 3428POPC   C1B44863  13.752  33.615   6.464
 3428POPC   C2B44864  13.783  33.558   6.764
 3428POPC   C3B44865  13.744  33.638   7.064
 3428POPC   C4B44866  13.790  33.563   7.364
 3429POPC   NC344867   8.210  24.522   5.564
 3429POPC   PO444868   8.199  24.520   5.864
 3429POPC   GL144869   8.228  24.455   6.164
 3429POPC   GL244870   8.362  24.521   6.164
 3429POPC   C1A44871   8.181  24.500   6.464
 3429POPC   D2A44872   8.203  24.503   6.764
 3429POPC   C3A44873   8.207  24.445   7.064
 3429POPC   C4A44874   8.205  24.504   7.364
 3429POPC   C1B44875   8.413  24.530   6.464
 3429POPC   C2B44876   8.481  24.583   6.764
 3429POPC   C3B44877   8.456  24.579   7.064
 3429POPC   C4B44878   8.452  24.572   7.364
 3430POPC   NC344879  28.373  39.252   5.564
 3430POPC   PO444880  28.350  39.281   5.864
 3430POPC   GL144881  28.331  39.229   6.164
 3430POPC   GL244882  28.338  39.069   6.164
 3430POPC   C1A44883  28.412  39.271   6.464
 3430POPC   D2A44884  28.340  39.200   6.764
 3430POPC   C3A44885  28.350  39.203   7.064
 3430POPC   C4A44886  28.387  39.182   7.364
 3430POPC   C1B44887  28.254  39.020   6.464
 3430POPC   C2B44888  28.309  39.037   6.764
 3430POPC   C3B44889  28.236  39.009   7.064
 3430POPC   C4B44890  28.256  39.022   7.364
 3431POPC   NC344891  31.458  33.051   5.564
 3431POPC   PO444892  31.480  33.049   5.864
 3431POPC   GL144893  31.450  33.036   6.164
 3431POPC   GL244894  31.313  32.998   6.164
 3431POPC   C1A44895  31.496  33.013   6.464
 3431POPC   D2A44896  31.491  32.975   6.764
 3431POPC   C3A44897  31.505  33.006   7.064
 3431POPC   C4A44898  31.490  33.026   7.364
 3431POPC   C1B44899  31.188  33.009   6.464
 3431POPC   C2B44900  31.246  32.981   6.764
 3431POPC   C3B44901  31.180  33.009   7.064
 3431POPC   C4B44902  31.191  32.976   7.364
 3432POPC   NC344903  22.896  44.638   5.564
 3432POPC   PO444904  22.914  44.686   5.864
 3432POPC   GL144905  22.968  44.704   6.164
 3432POPC   GL244906  23.072  44.528   6.164
 3432POPC   C1A44907  22.969  44.667   6.464
 3432POPC   D2A44908  22.894  44.705   6.764
 3432POPC   C3A44909  22.959  44.637   7.064
 3432POPC   C4A44910  22.975  44.695   7.364
 3432POPC   C1B44911  23.114  44.441   6.464
 3432POPC   C2B44912  23.125  44.454   6.764
 3432POPC   C3B44913  23.158  44.497   7.064
 3432POPC   C4B44914  23.148  44.467   7.364
 3433POPC   NC344915  29.884  40.743   5.564
 3433POPC   PO444916  29.908  40.808   5.864
 3433POPC   GL144917  29.906  40.751   6.164
 3433POPC   GL244918  29.845  40.728   6.164
 3433POPC   C1A44919  29.950  40.810   6.464
 3433POPC   D2A44920  29.957  40.801   6.764
 3433POPC   C3A44921  29.949  40.766   7.064
 3433POPC   C4A44922  29.872  40.757   7.364
 3433POPC   C1B44923  29.754  40.611   6.464
 3433POPC   C2B44924  29.751  40.653   6.764
 3433POPC   C3B44925  29.727  40.616   7.064
 3433POPC   C4B44926  29.740  40.658   7.364
 3434POPC   NC344927  19.095   9.018   5.564
 3434POPC   PO444928  19.081   8.985   5.864
 3434POPC   GL144929  19.031   9.017   6.164
 3434POPC   GL244930  19.060   8.900   6.164
 3434POPC   C1A44931  19.089   8.953   6.464
 3434POPC   D2A44932  19.014   9.010   6.764
 3434POPC   C3A44933  19.064   8.948   7.064
 3434POPC   C4A44934  19.048   8.986   7.364
 3434POPC   C1B44935  18.971   8.717   6.464
 3434POPC   C2B44936  18.964   8.742   6.764
 3434POPC   C3B44937  18.957   8.741   7.064
 3434POPC   C4B44938  18.978   8.749   7.364
 3435POPC   NC344939  25.280   9.017   5.564
 3435POPC   PO444940  25.278   9.013   5.864
 3435POPC   GL144941  25.296   8.980   6.164
 3435POPC   GL244942  25.267   8.842   6.164
 3435POPC   C1A44943  25.249   8.965   6.464
 3435POPC   D2A44944  25.233   9.012   6.764
 3435POPC   C3A44945  25.307   9.001   7.064
 3435POPC   C4A44946  25.225   8.923   7.364
 3435POPC   C1B44947  25.269   8.702   6.464
 3435POPC   C2B44948  25.215   8.691   6.764
 3435POPC   C3B44949  25.251   8.757   7.064
 3435POPC   C4B44950  25.272   8.723   7.364
 3436POPC   NC344951  16.773  26.846   5.564
 3436POPC   PO444952  16.733  26.828   5.864
 3436POPC   GL144953  16.757  26.834   6.164
 3436POPC   GL244954  16.745  26.905   6.164
 3436POPC   C1A44955  16.689  26.827   6.464
 3436POPC   D2A44956  16.736  26.802   6.764
 3436POPC   C3A44957  16.701  26.830   7.064
 3436POPC   C4A44958  16.775  26.776   7.364
 3436POPC   C1B44959  16.820  27.031   6.464
 3436POPC   C2B44960  16.798  27.027   6.764
 3436POPC   C3B44961  16.881  26.996   7.064
 3436POPC   C4B44962  16.870  26.996   7.364
 3437POPC   NC344963  14.439  12.102   5.564
 3437POPC   PO444964  14.451  12.070   5.864
 3437POPC   GL144965  14.391  12.095   6.164
 3437POPC   GL244966  14.368  12.170   6.164
 3437POPC   C1A44967  14.354  12.084   6.464
 3437POPC   D2A44968  14.411  12.046   6.764
 3437POPC   C3A44969  14.382  12.028   7.064
 3437POPC   C4A44970  14.414  12.100   7.364
 3437POPC   C1B44971  14.326  12.339   6.464
 3437POPC   C2B44972  14.268  12.307   6.764
 3437POPC   C3B44973  14.272  12.344   7.064
 3437POPC   C4B44974  14.292  12.342   7.364
 3438POPC   NC344975  33.844  25.286   5.564
 3438POPC   PO444976  33.805  25.232   5.864
 3438POPC   GL144977  33.819  25.256   6.164
 3438POPC   GL244978  33.811  25.111   6.164
 3438POPC   C1A44979  33.801  25.239   6.464
 3438POPC   D2A44980  33.821  25.253   6.764
 3438POPC   C3A44981  33.803  25.238   7.064
 3438POPC   C4A44982  33.804  25.311   7.364
 3438POPC   C1B44983  33.787  24.976   6.464
 3438POPC   C2B44984  33.822  25.044   6.764
 3438POPC   C3B44985  33.730  25.019   7.064
 3438POPC   C4B44986  33.790  25.049   7.364
 3439POPC   NC344987  32.995  37.691   5.564
 3439POPC   PO444988  33.006  37.642   5.864
 3439POPC   GL144989  33.065  37.662   6.164
 3439POPC   GL244990  32.901  37.775   6.164
 3439POPC   C1A44991  33.064  37.662   6.464
 3439POPC   D2A44992  33.068  37.716   6.764
 3439POPC   C3A44993  33.022  37.681   7.064
 3439POPC   C4A44994  33.031  37.685   7.364
 3439POPC   C1B44995  32.759  37.789   6.464
 3439POPC   C2B44996  32.785  37.759   6.764
 3439POPC   C3B44997  32.807  37.838   7.064
 3439POPC   C4B44998  32.778  37.833   7.364
 3440POPC   NC344999  27.614  19.792   5.564
 3440POPC   PO445000  27.549  19.794   5.864
 3440POPC   GL145001  27.633  19.815   6.164
 3440POPC   GL245002  27.631  19.951   6.164
 3440POPC   C1A45003  27.565  19.807   6.464
 3440POPC   D2A45004  27.608  19.841   6.764
 3440POPC   C3A45005  27.619  19.821   7.064
 3440POPC   C4A45006  27.549  19.828   7.364
 3440POPC   C1B45007  27.693  19.998   6.464
 3440POPC   C2B45008  27.723  20.006   6.764
 3440POPC   C3B45009  27.738  20.037   7.064
 3440POPC   C4B45010  27.776  20.076   7.364
 3441POPC   NC345011  26.850  31.449   5.564
 3441POPC   PO445012  26.784  31.448   5.864
 3441POPC   GL145013  26.827  31.425   6.164
 3441POPC   GL245014  26.754  31.367   6.164
 3441POPC   C1A45015  26.808  31.480   6.464
 3441POPC   D2A45016  26.791  31.463   6.764
 3441POPC   C3A45017  26.841  31.497   7.064
 3441POPC   C4A45018  26.822  31.517   7.364
 3441POPC   C1B45019  26.676  31.321   6.464
 3441POPC   C2B45020  26.677  31.320   6.764
 3441POPC   C3B45021  26.684  31.279   7.064
 3441POPC   C4B45022  26.689  31.244   7.364
 3442POPC   NC345023  24.444  11.334   5.564
 3442POPC   PO445024  24.538  11.272   5.864
 3442POPC   GL145025  24.501  11.308   6.164
 3442POPC   GL245026  24.352  11.389   6.164
 3442POPC   C1A45027  24.473  11.285   6.464
 3442POPC   D2A45028  24.481  11.322   6.764
 3442POPC   C3A45029  24.488  11.328   7.064
 3442POPC   C4A45030  24.499  11.299   7.364
 3442POPC   C1B45031  24.276  11.367   6.464
 3442POPC   C2B45032  24.238  11.433   6.764
 3442POPC   C3B45033  24.267  11.368   7.064
 3442POPC   C4B45034  24.296  11.388   7.364
 3443POPC   NC345035   8.228  39.234   5.564
 3443POPC   PO445036   8.208  39.182   5.864
 3443POPC   GL145037   8.212  39.259   6.164
 3443POPC   GL245038   8.111  39.328   6.164
 3443POPC   C1A45039   8.171  39.260   6.464
 3443POPC   D2A45040   8.179  39.267   6.764
 3443POPC   C3A45041   8.195  39.251   7.064
 3443POPC   C4A45042   8.212  39.258   7.364
 3443POPC   C1B45043   8.103  39.503   6.464
 3443POPC   C2B45044   8.056  39.413   6.764
 3443POPC   C3B45045   8.095  39.428   7.064
 3443POPC   C4B45046   8.092  39.413   7.364
 3444POPC   NC345047  19.793  11.256   5.564
 3444POPC   PO445048  19.789  11.279   5.864
 3444POPC   GL145049  19.805  11.288   6.164
 3444POPC   GL245050  19.685  11.330   6.164
 3444POPC   C1A45051  19.863  11.263   6.464
 3444POPC   D2A45052  19.809  11.348   6.764
 3444POPC   C3A45053  19.855  11.288   7.064
 3444POPC   C4A45054  19.829  11.298   7.364
 3444POPC   C1B45055  19.589  11.404   6.464
 3444POPC   C2B45056  19.646  11.408   6.764
 3444POPC   C3B45057  19.579  11.414   7.064
 3444POPC   C4B45058  19.644  11.414   7.364
 3445POPC   NC345059  35.342  29.890   5.564
 3445POPC   PO445060  35.387  29.953   5.864
 3445POPC   GL145061  35.399  29.904   6.164
 3445POPC   GL245062  35.401  29.813   6.164
 3445POPC   C1A45063  35.386  29.946   6.464
 3445POPC   D2A45064  35.386  29.893   6.764
 3445POPC   C3A45065  35.323  29.911   7.064
 3445POPC   C4A45066  35.309  29.953   7.364
 3445POPC   C1B45067  35.442  29.650   6.464
 3445POPC   C2B45068  35.450  29.733   6.764
 3445POPC   C3B45069  35.454  29.667   7.064
 3445POPC   C4B45070  35.408  29.695   7.364
 3446POPC   NC345071  43.934  22.129   5.564
 3446POPC   PO445072  43.932  22.126   5.864
 3446POPC   GL145073  43.836  22.194   6.164
 3446POPC   GL245074  43.769  22.035   6.164
 3446POPC   C1A45075  43.901  22.187   6.464
 3446POPC   D2A45076  43.878  22.128   6.764
 3446POPC   C3A45077  43.903  22.170   7.064
 3446POPC   C4A45078  43.849  22.151   7.364
 3446POPC   C1B45079  43.677  21.963   6.464
 3446POPC   C2B45080  43.670  22.004   6.764
 3446POPC   C3B45081  43.730  22.012   7.064
 3446POPC   C4B45082  43.745  22.043   7.364
 3447POPC   NC345083   1.250  37.636   5.564
 3447POPC   PO445084   1.228  37.652   5.864
 3447POPC   GL145085   1.240  37.659   6.164
 3447POPC   GL245086   1.130  37.819   6.164
 3447POPC   C1A45087   1.190  37.702   6.464
 3447POPC   D2A45088   1.237  37.702   6.764
 3447POPC   C3A45089   1.234  37.639   7.064
 3447POPC   C4A45090   1.218  37.671   7.364
 3447POPC   C1B45091   1.086  37.907   6.464
 3447POPC   C2B45092   1.113  37.921   6.764
 3447POPC   C3B45093   1.112  37.892   7.064
 3447POPC   C4B45094   1.136  37.954   7.364
 3448POPC   NC345095  23.665  40.819   5.564
 3448POPC   PO445096  23.669  40.736   5.864
 3448POPC   GL145097  23.738  40.774   6.164
 3448POPC   GL245098  23.581  40.744   6.164
 3448POPC   C1A45099  23.735  40.777   6.464
 3448POPC   D2A45100  23.693  40.787   6.764
 3448POPC   C3A45101  23.696  40.738   7.064
 3448POPC   C4A45102  23.748  40.771   7.364
 3448POPC   C1B45103  23.453  40.793   6.464
 3448POPC   C2B45104  23.457  40.722   6.764
 3448POPC   C3B45105  23.447  40.737   7.064
 3448POPC   C4B45106  23.489  40.776   7.364
 3449POPC   NC345107   2.780  43.850   5.564
 3449POPC   PO445108   2.755  43.915   5.864
 3449POPC   GL145109   2.764  43.851   6.164
 3449POPC   GL245110   2.848  43.993   6.164
 3449POPC   C1A45111   2.769  43.888   6.464
 3449POPC   D2A45112   2.795  43.843   6.764
 3449POPC   C3A45113   2.738  43.842   7.064
 3449POPC   C4A45114   2.740  43.856   7.364
 3449POPC   C1B45115   2.923  44.064   6.464
 3449POPC   C2B45116   2.909  44.136   6.764
 3449POPC   C3B45117   2.849  44.128   7.064
 3449POPC   C4B45118   2.900  44.105   7.364
 3450POPC   NC345119  15.947  15.214   5.564
 3450POPC   PO445120  15.949  15.160   5.864
 3450POPC   GL145121  15.923  15.136   6.164
 3450POPC   GL245122  16.019  15.313   6.164
 3450POPC   C1A45123  15.945  15.155   6.464
 3450POPC   D2A45124  15.948  15.205   6.764
 3450POPC   C3A45125  16.003  15.162   7.064
 3450POPC   C4A45126  15.914  15.171   7.364
 3450POPC   C1B45127  16.095  15.445   6.464
 3450POPC   C2B45128  16.042  15.422   6.764
 3450POPC   C3B45129  16.014  15.382   7.064
 3450POPC   C4B45130  16.057  15.412   7.364
 3451POPC   NC345131  33.064  27.630   5.564
 3451POPC   PO445132  32.984  27.549   5.864
 3451POPC   GL145133  33.013  27.580   6.164
 3451POPC   GL245134  33.150  27.673   6.164
 3451POPC   C1A45135  33.010  27.601   6.464
 3451POPC   D2A45136  33.020  27.627   6.764
 3451POPC   C3A45137  32.987  27.562   7.064
 3451POPC   C4A45138  33.066  27.567   7.364
 3451POPC   C1B45139  33.267  27.686   6.464
 3451POPC   C2B45140  33.295  27.717   6.764
 3451POPC   C3B45141  33.208  27.733   7.064
 3451POPC   C4B45142  33.261  27.731   7.364
 3452POPC   NC345143  41.519  24.472   5.564
 3452POPC   PO445144  41.550  24.502   5.864
 3452POPC   GL145145  41.534  24.445   6.164
 3452POPC   GL245146  41.679  24.520   6.164
 3452POPC   C1A45147  41.543  24.533   6.464
 3452POPC   D2A45148  41.592  24.448   6.764
 3452POPC   C3A45149  41.548  24.500   7.064
 3452POPC   C4A45150  41.531  24.522   7.364
 3452POPC   C1B45151  41.785  24.451   6.464
 3452POPC   C2B45152  41.785  24.456   6.764
 3452POPC   C3B45153  41.772  24.450   7.064
 3452POPC   C4B45154  41.829  24.450   7.364
 3453POPC   NC345155  39.208  26.048   5.564
 3453POPC   PO445156  39.214  26.035   5.864
 3453POPC   GL145157  39.232  26.073   6.164
 3453POPC   GL245158  39.275  25.956   6.164
 3453POPC   C1A45159  39.201  26.006   6.464
 3453POPC   D2A45160  39.243  26.091   6.764
 3453POPC   C3A45161  39.257  26.001   7.064
 3453POPC   C4A45162  39.235  26.031   7.364
 3453POPC   C1B45163  39.345  25.869   6.464
 3453POPC   C2B45164  39.343  25.806   6.764
 3453POPC   C3B45165  39.369  25.828   7.064
 3453POPC   C4B45166  39.408  25.848   7.364
 3454POPC   NC345167  18.248   5.882   5.564
 3454POPC   PO445168  18.325   5.877   5.864
 3454POPC   GL145169  18.298   5.869   6.164
 3454POPC   GL245170  18.151   5.831   6.164
 3454POPC   C1A45171  18.280   5.891   6.464
 3454POPC   D2A45172  18.239   5.842   6.764
 3454POPC   C3A45173  18.302   5.832   7.064
 3454POPC   C4A45174  18.234   5.866   7.364
 3454POPC   C1B45175  18.080   5.703   6.464
 3454POPC   C2B45176  18.084   5.724   6.764
 3454POPC   C3B45177  18.141   5.712   7.064
 3454POPC   C4B45178  18.135   5.654   7.364
 3455POPC   NC345179  12.900   8.955   5.564
 3455POPC   PO445180  12.861   8.972   5.864
 3455POPC   GL145181  12.840   9.006   6.164
 3455POPC   GL245182  12.765   8.936   6.164
 3455POPC   C1A45183  12.817   9.010   6.464
 3455POPC   D2A45184  12.834   9.020   6.764
 3455POPC   C3A45185  12.802   8.960   7.064
 3455POPC   C4A45186  12.838   9.021   7.364
 3455POPC   C1B45187  12.609   8.797   6.464
 3455POPC   C2B45188  12.638   8.880   6.764
 3455POPC   C3B45189  12.608   8.829   7.064
 3455POPC   C4B45190  12.610   8.868   7.364
 3456POPC   NC345191  25.308  19.798   5.564
 3456POPC   PO445192  25.258  19.841   5.864
 3456POPC   GL145193  25.243  19.861   6.164
 3456POPC   GL245194  25.243  19.700   6.164
 3456POPC   C1A45195  25.241  19.835   6.464
 3456POPC   D2A45196  25.241  19.877   6.764
 3456POPC   C3A45197  25.224  19.853   7.064
 3456POPC   C4A45198  25.269  19.841   7.364
 3456POPC   C1B45199  25.239  19.626   6.464
 3456POPC   C2B45200  25.158  19.626   6.764
 3456POPC   C3B45201  25.213  19.598   7.064
 3456POPC   C4B45202  25.192  19.561   7.364
 3457POPC   NC345203  41.514  19.828   5.564
 3457POPC   PO445204  41.582  19.871   5.864
 3457POPC   GL145205  41.515  19.827   6.164
 3457POPC   GL245206  41.609  19.784   6.164
 3457POPC   C1A45207  41.598  19.882   6.464
 3457POPC   D2A45208  41.595  19.811   6.764
 3457POPC   C3A45209  41.511  19.867   7.064
 3457POPC   C4A45210  41.553  19.856   7.364
 3457POPC   C1B45211  41.690  19.676   6.464
 3457POPC   C2B45212  41.730  19.709   6.764
 3457POPC   C3B45213  41.783  19.635   7.064
 3457POPC   C4B45214  41.757  19.615   7.364
 3458POPC   NC345215   3.574  38.505   5.564
 3458POPC   PO445216   3.553  38.429   5.864
 3458POPC   GL145217   3.576  38.446   6.164
 3458POPC   GL245218   3.584  38.340   6.164
 3458POPC   C1A45219   3.554  38.486   6.464
 3458POPC   D2A45220   3.497  38.418   6.764
 3458POPC   C3A45221   3.523  38.416   7.064
 3458POPC   C4A45222   3.497  38.452   7.364
 3458POPC   C1B45223   3.620  38.195   6.464
 3458POPC   C2B45224   3.614  38.198   6.764
 3458POPC   C3B45225   3.616  38.261   7.064
 3458POPC   C4B45226   3.609  38.220   7.364
 3459POPC   NC345227  23.710  44.642   5.564
 3459POPC   PO445228  23.744  44.621   5.864
 3459POPC   GL145229  23.715  44.654   6.164
 3459POPC   GL245230  23.797  44.758   6.164
 3459POPC   C1A45231  23.677  44.678   6.464
 3459POPC   D2A45232  23.670  44.679   6.764
 3459POPC   C3A45233  23.724  44.620   7.064
 3459POPC   C4A45234  23.730  44.688   7.364
 3459POPC   C1B45235  23.911  44.836   6.464
 3459POPC   C2B45236  23.896  44.797   6.764
 3459POPC   C3B45237  23.913  44.833   7.064
 3459POPC   C4B45238  23.923  44.787   7.364
 3460POPC   NC345239  30.745  22.143   5.564
 3460POPC   PO445240  30.663  22.148   5.864
 3460POPC   GL145241  30.729  22.124   6.164
 3460POPC   GL245242  30.811  22.086   6.164
 3460POPC   C1A45243  30.730  22.124   6.464
 3460POPC   D2A45244  30.650  22.170   6.764
 3460POPC   C3A45245  30.685  22.158   7.064
 3460POPC   C4A45246  30.735  22.177   7.364
 3460POPC   C1B45247  30.858  21.988   6.464
 3460POPC   C2B45248  30.865  21.989   6.764
 3460POPC   C3B45249  30.913  22.004   7.064
 3460POPC   C4B45250  30.879  21.984   7.364
 3461POPC   NC345251   0.424   9.771   5.564
 3461POPC   PO445252   0.416   9.728   5.864
 3461POPC   GL145253   0.428   9.719   6.164
 3461POPC   GL245254   0.357   9.857   6.164
 3461POPC   C1A45255   0.398   9.785   6.464
 3461POPC   D2A45256   0.433   9.717   6.764
 3461POPC   C3A45257   0.417   9.730   7.064
 3461POPC   C4A45258   0.479   9.765   7.364
 3461POPC   C1B45259   0.310   9.919   6.464
 3461POPC   C2B45260   0.275   9.981   6.764
 3461POPC   C3B45261   0.251   9.938   7.064
 3461POPC   C4B45262   0.276   9.913   7.364
 3462POPC   NC345263   7.407  28.389   5.564
 3462POPC   PO445264   7.385  28.379   5.864
 3462POPC   GL145265   7.459  28.373   6.164
 3462POPC   GL245266   7.506  28.425   6.164
 3462POPC   C1A45267   7.426  28.389   6.464
 3462POPC   D2A45268   7.447  28.378   6.764
 3462POPC   C3A45269   7.401  28.400   7.064
 3462POPC   C4A45270   7.446  28.379   7.364
 3462POPC   C1B45271   7.632  28.515   6.464
 3462POPC   C2B45272   7.609  28.528   6.764
 3462POPC   C3B45273   7.601  28.504   7.064
 3462POPC   C4B45274   7.617  28.476   7.364
 3463POPC   NC345275  11.261  40.817   5.564
 3463POPC   PO445276  11.327  40.812   5.864
 3463POPC   GL145277  11.291  40.780   6.164
 3463POPC   GL245278  11.228  40.810   6.164
 3463POPC   C1A45279  11.271  40.765   6.464
 3463POPC   D2A45280  11.306  40.804   6.764
 3463POPC   C3A45281  11.304  40.765   7.064
 3463POPC   C4A45282  11.294  40.755   7.364
 3463POPC   C1B45283  11.080  40.868   6.464
 3463POPC   C2B45284  11.079  40.913   6.764
 3463POPC   C3B45285  11.060  40.869   7.064
 3463POPC   C4B45286  11.030  40.927   7.364
 3464POPC   NC345287  36.916  22.906   5.564
 3464POPC   PO445288  36.911  22.921   5.864
 3464POPC   GL145289  36.866  22.982   6.164
 3464POPC   GL245290  36.889  23.097   6.164
 3464POPC   C1A45291  36.923  22.963   6.464
 3464POPC   D2A45292  36.941  22.966   6.764
 3464POPC   C3A45293  36.884  22.967   7.064
 3464POPC   C4A45294  36.904  22.952   7.364
 3464POPC   C1B45295  36.824  23.176   6.464
 3464POPC   C2B45296  36.781  23.123   6.764
 3464POPC   C3B45297  36.765  23.163   7.064
 3464POPC   C4B45298  36.843  23.164   7.364
 3465POPC   NC345299  39.996  30.740   5.564
 3465POPC   PO445300  39.988  30.651   5.864
 3465POPC   GL145301  39.958  30.704   6.164
 3465POPC   GL245302  40.136  30.602   6.164
 3465POPC   C1A45303  39.971  30.661   6.464
 3465POPC   D2A45304  39.976  30.667   6.764
 3465POPC   C3A45305  39.999  30.678   7.064
 3465POPC   C4A45306  39.993  30.658   7.364
 3465POPC   C1B45307  40.271  30.616   6.464
 3465POPC   C2B45308  40.197  30.576   6.764
 3465POPC   C3B45309  40.263  30.612   7.064
 3465POPC   C4B45310  40.230  30.651   7.364
 3466POPC   NC345311  39.191  24.460   5.564
 3466POPC   PO445312  39.228  24.463   5.864
 3466POPC   GL145313  39.213  24.448   6.164
 3466POPC   GL245314  39.093  24.459   6.164
 3466POPC   C1A45315  39.214  24.473   6.464
 3466POPC   D2A45316  39.207  24.500   6.764
 3466POPC   C3A45317  39.231  24.443   7.064
 3466POPC   C4A45318  39.246  24.449   7.364
 3466POPC   C1B45319  38.936  24.498   6.464
 3466POPC   C2B45320  38.998  24.512   6.764
 3466POPC   C3B45321  38.947  24.464   7.064
 3466POPC   C4B45322  38.995  24.517   7.364
 3467POPC   NC345323  34.592   0.403   5.564
 3467POPC   PO445324  34.604   0.435   5.864
 3467POPC   GL145325  34.590   0.432   6.164
 3467POPC   GL245326  34.715   0.540   6.164
 3467POPC   C1A45327  34.604   0.410   6.464
 3467POPC   D2A45328  34.557   0.472   6.764
 3467POPC   C3A45329  34.594   0.413   7.064
 3467POPC   C4A45330  34.575   0.485   7.364
 3467POPC   C1B45331  34.770   0.567   6.464
 3467POPC   C2B45332  34.741   0.576   6.764
 3467POPC   C3B45333  34.814   0.620   7.064
 3467POPC   C4B45334  34.769   0.552   7.364
 3468POPC   NC345335  13.635  15.154   5.564
 3468POPC   PO445336  13.600  15.177   5.864
 3468POPC   GL145337  13.674  15.158   6.164
 3468POPC   GL245338  13.639  15.028   6.164
 3468POPC   C1A45339  13.620  15.174   6.464
 3468POPC   D2A45340  13.637  15.185   6.764
 3468POPC   C3A45341  13.621  15.148   7.064
 3468POPC   C4A45342  13.641  15.209   7.364
 3468POPC   C1B45343  13.789  14.963   6.464
 3468POPC   C2B45344  13.710  15.000   6.764
 3468POPC   C3B45345  13.743  14.938   7.064
 3468POPC   C4B45346  13.778  15.004   7.364
 3469POPC   NC345347  24.472  26.009   5.564
 3469POPC   PO445348  24.516  26.054   5.864
 3469POPC   GL145349  24.440  26.027   6.164
 3469POPC   GL245350  24.398  26.048   6.164
 3469POPC   C1A45351  24.526  26.050   6.464
 3469POPC   D2A45352  24.504  26.067   6.764
 3469POPC   C3A45353  24.497  26.003   7.064
 3469POPC   C4A45354  24.494  26.028   7.364
 3469POPC   C1B45355  24.263  25.965   6.464
 3469POPC   C2B45356  24.231  25.963   6.764
 3469POPC   C3B45357  24.217  25.977   7.064
 3469POPC   C4B45358  24.223  26.017   7.364
 3470POPC   NC345359  25.239  12.868   5.564
 3470POPC   PO445360  25.302  12.802   5.864
 3470POPC   GL145361  25.306  12.897   6.164
 3470POPC   GL245362  25.176  12.961   6.164
 3470POPC   C1A45363  25.310  12.882   6.464
 3470POPC   D2A45364  25.298  12.808   6.764
 3470POPC   C3A45365  25.307  12.893   7.064
 3470POPC   C4A45366  25.270  12.831   7.364
 3470POPC   C1B45367  25.205  13.088   6.464
 3470POPC   C2B45368  25.161  13.085   6.764
 3470POPC   C3B45369  25.122  13.125   7.064
 3470POPC   C4B45370  25.133  13.040   7.364
 3471POPC   NC345371  34.588  22.143   5.564
 3471POPC   PO445372  34.618  22.153   5.864
 3471POPC   GL145373  34.585  22.209   6.164
 3471POPC   GL245374  34.457  22.153   6.164
 3471POPC   C1A45375  34.574  22.175   6.464
 3471POPC   D2A45376  34.547  22.138   6.764
 3471POPC   C3A45377  34.604  22.196   7.064
 3471POPC   C4A45378  34.602  22.191   7.364
 3471POPC   C1B45379  34.388  22.260   6.464
 3471POPC   C2B45380  34.327  22.267   6.764
 3471POPC   C3B45381  34.358  22.205   7.064
 3471POPC   C4B45382  34.333  22.245   7.364
 3472POPC   NC345383  21.365   3.533   5.564
 3472POPC   PO445384  21.433   3.575   5.864
 3472POPC   GL145385  21.371   3.502   6.164
 3472POPC   GL245386  21.368   3.667   6.164
 3472POPC   C1A45387  21.432   3.548   6.464
 3472POPC   D2A45388  21.346   3.576   6.764
 3472POPC   C3A45389  21.412   3.545   7.064
 3472POPC   C4A45390  21.356   3.560   7.364
 3472POPC   C1B45391  21.280   3.729   6.464
 3472POPC   C2B45392  21.333   3.772   6.764
 3472POPC   C3B45393  21.341   3.738   7.064
 3472POPC   C4B45394  21.260   3.802   7.364
 3473POPC   NC345395   6.625  33.009   5.564
 3473POPC   PO445396   6.629  33.070   5.864
 3473POPC   GL145397   6.616  33.036   6.164
 3473POPC   GL245398   6.707  33.160   6.164
 3473POPC   C1A45399   6.634  33.057   6.464
 3473POPC   D2A45400   6.597  33.049   6.764
 3473POPC   C3A45401   6.654  33.028   7.064
 3473POPC   C4A45402   6.618  33.011   7.364
 3473POPC   C1B45403   6.809  33.194   6.464
 3473POPC   C2B45404   6.763  33.224   6.764
 3473POPC   C3B45405   6.729  33.224   7.064
 3473POPC   C4B45406   6.818  33.211   7.364
 3474POPC   NC345407  34.596  36.926   5.564
 3474POPC   PO445408  34.618  36.899   5.864
 3474POPC   GL145409  34.551  36.904   6.164
 3474POPC   GL245410  34.588  36.995   6.164
 3474POPC   C1A45411  34.579  36.911   6.464
 3474POPC   D2A45412  34.593  36.916   6.764
 3474POPC   C3A45413  34.609  36.942   7.064
 3474POPC   C4A45414  34.613  36.873   7.364
 3474POPC   C1B45415  34.581  37.121   6.464
 3474POPC   C2B45416  34.565  37.200   6.764
 3474POPC   C3B45417  34.566  37.141   7.064
 3474POPC   C4B45418  34.538  37.141   7.364
 3475POPC   NC345419   5.880  42.348   5.564
 3475POPC   PO445420   5.847  42.291   5.864
 3475POPC   GL145421   5.856  42.345   6.164
 3475POPC   GL245422   5.937  42.406   6.164
 3475POPC   C1A45423   5.827  42.356   6.464
 3475POPC   D2A45424   5.898  42.344   6.764
 3475POPC   C3A45425   5.889  42.298   7.064
 3475POPC   C4A45426   5.858  42.318   7.364
 3475POPC   C1B45427   5.890  42.538   6.464
 3475POPC   C2B45428   5.934  42.618   6.764
 3475POPC   C3B45429   5.902  42.600   7.064
 3475POPC   C4B45430   5.958  42.568   7.364
 3476POPC   NC345431  10.488  18.306   5.564
 3476POPC   PO445432  10.559  18.285   5.864
 3476POPC   GL145433  10.533  18.245   6.164
 3476POPC   GL245434  10.670  18.169   6.164
 3476POPC   C1A45435  10.481  18.238   6.464
 3476POPC   D2A45436  10.560  18.308   6.764
 3476POPC   C3A45437  10.533  18.288   7.064
 3476POPC   C4A45438  10.546  18.328   7.364
 3476POPC   C1B45439  10.761  18.085   6.464
 3476POPC   C2B45440  10.715  18.167   6.764
 3476POPC   C3B45441  10.674  18.121   7.064
 3476POPC   C4B45442  10.737  18.140   7.364
 3477POPC   NC345443  38.446   7.394   5.564
 3477POPC   PO445444  38.461   7.428   5.864
 3477POPC   GL145445  38.501   7.444   6.164
 3477POPC   GL245446  38.313   7.483   6.164
 3477POPC   C1A45447  38.449   7.438   6.464
 3477POPC   D2A45448  38.433   7.427   6.764
 3477POPC   C3A45449  38.451   7.411   7.064
 3477POPC   C4A45450  38.412   7.454   7.364
 3477POPC   C1B45451  38.196   7.483   6.464
 3477POPC   C2B45452  38.246   7.513   6.764
 3477POPC   C3B45453  38.277   7.556   7.064
 3477POPC   C4B45454  38.205   7.541   7.364
 3478POPC   NC345455  17.462  33.795   5.564
 3478POPC   PO445456  17.459  33.813   5.864
 3478POPC   GL145457  17.534  33.752   6.164
 3478POPC   GL245458  17.531  33.946   6.164
 3478POPC   C1A45459  17.535  33.767   6.464
 3478POPC   D2A45460  17.485  33.824   6.764
 3478POPC   C3A45461  17.542  33.826   7.064
 3478POPC   C4A45462  17.510  33.770   7.364
 3478POPC   C1B45463  17.675  34.012   6.464
 3478POPC   C2B45464  17.671  33.992   6.764
 3478POPC   C3B45465  17.671  34.043   7.064
 3478POPC   C4B45466  17.627  33.971   7.364
 3479POPC   NC345467  23.733   8.227   5.564
 3479POPC   PO445468  23.705   8.232   5.864
 3479POPC   GL145469  23.723   8.203   6.164
 3479POPC   GL245470  23.760   8.071   6.164
 3479POPC   C1A45471  23.706   8.221   6.464
 3479POPC   D2A45472  23.746   8.154   6.764
 3479POPC   C3A45473  23.719   8.226   7.064
 3479POPC   C4A45474  23.673   8.221   7.364
 3479POPC   C1B45475  23.843   7.964   6.464
 3479POPC   C2B45476  23.834   7.955   6.764
 3479POPC   C3B45477  23.795   8.013   7.064
 3479POPC   C4B45478  23.870   7.959   7.364
 3480POPC   NC345479   0.415  40.750   5.564
 3480POPC   PO445480   0.396  40.817   5.864
 3480POPC   GL145481   0.442  40.760   6.164
 3480POPC   GL245482   0.457  40.684   6.164
 3480POPC   C1A45483   0.463  40.760   6.464
 3480POPC   D2A45484   0.462  40.789   6.764
 3480POPC   C3A45485   0.422  40.757   7.064
 3480POPC   C4A45486   0.446  40.827   7.364
 3480POPC   C1B45487   0.530  40.565   6.464
 3480POPC   C2B45488   0.594  40.536   6.764
 3480POPC   C3B45489   0.585  40.555   7.064
 3480POPC   C4B45490   0.525  40.517   7.364
 3481POPC   NC345491  19.814  18.241   5.564
 3481POPC   PO445492  19.853  18.287   5.864
 3481POPC   GL145493  19.875  18.321   6.164
 3481POPC   GL245494  19.912  18.216   6.164
 3481POPC   C1A45495  19.872  18.328   6.464
 3481POPC   D2A45496  19.861  18.302   6.764
 3481POPC   C3A45497  19.857  18.250   7.064
 3481POPC   C4A45498  19.881  18.257   7.364
 3481POPC   C1B45499  19.976  18.054   6.464
 3481POPC   C2B45500  20.007  18.075   6.764
 3481POPC   C3B45501  20.006  18.124   7.064
 3481POPC   C4B45502  19.990  18.082   7.364
 3482POPC   NC345503  31.453  31.494   5.564
 3482POPC   PO445504  31.490  31.489   5.864
 3482POPC   GL145505  31.467  31.469   6.164
 3482POPC   GL245506  31.539  31.362   6.164
 3482POPC   C1A45507  31.461  31.473   6.464
 3482POPC   D2A45508  31.497  31.426   6.764
 3482POPC   C3A45509  31.464  31.436   7.064
 3482POPC   C4A45510  31.437  31.517   7.364
 3482POPC   C1B45511  31.623  31.260   6.464
 3482POPC   C2B45512  31.569  31.304   6.764
 3482POPC   C3B45513  31.609  31.245   7.064
 3482POPC   C4B45514  31.608  31.266   7.364
 3483POPC   NC345515  42.349  13.622   5.564
 3483POPC   PO445516  42.290  13.617   5.864
 3483POPC   GL145517  42.349  13.636   6.164
 3483POPC   GL245518  42.290  13.733   6.164
 3483POPC   C1A45519  42.317  13.609   6.464
 3483POPC   D2A45520  42.359  13.675   6.764
 3483POPC   C3A45521  42.352  13.612   7.064
 3483POPC   C4A45522  42.373  13.651   7.364
 3483POPC   C1B45523  42.170  13.831   6.464
 3483POPC   C2B45524  42.166  13.865   6.764
 3483POPC   C3B45525  42.173  13.867   7.064
 3483POPC   C4B45526  42.211  13.871   7.364
 3484POPC   NC345527  20.622  11.271   5.564
 3484POPC   PO445528  20.635  11.289   5.864
 3484POPC   GL145529  20.622  11.260   6.164
 3484POPC   GL245530  20.528  11.161   6.164
 3484POPC   C1A45531  20.655  11.294   6.464
 3484POPC   D2A45532  20.653  11.311   6.764
 3484POPC   C3A45533  20.566  11.256   7.064
 3484POPC   C4A45534  20.574  11.339   7.364
 3484POPC   C1B45535  20.483  11.112   6.464
 3484POPC   C2B45536  20.487  11.106   6.764
 3484POPC   C3B45537  20.546  11.051   7.064
 3484POPC   C4B45538  20.513  11.084   7.364
 3485POPC   NC345539   0.454  10.574   5.564
 3485POPC   PO445540   0.469  10.513   5.864
 3485POPC   GL145541   0.447  10.485   6.164
 3485POPC   GL245542   0.565  10.478   6.164
 3485POPC   C1A45543   0.404  10.508   6.464
 3485POPC   D2A45544   0.454  10.515   6.764
 3485POPC   C3A45545   0.418  10.537   7.064
 3485POPC   C4A45546   0.391  10.573   7.364
 3485POPC   C1B45547   0.568  10.299   6.464
 3485POPC   C2B45548   0.632  10.303   6.764
 3485POPC   C3B45549   0.603  10.343   7.064
 3485POPC   C4B45550   0.618  10.340   7.364
 3486POPC   NC345551  26.059  21.359   5.564
 3486POPC   PO445552  25.994  21.422   5.864
 3486POPC   GL145553  26.084  21.419   6.164
 3486POPC   GL245554  26.115  21.263   6.164
 3486POPC   C1A45555  25.992  21.390   6.464
 3486POPC   D2A45556  26.065  21.338   6.764
 3486POPC   C3A45557  25.995  21.414   7.064
 3486POPC   C4A45558  25.996  21.412   7.364
 3486POPC   C1B45559  26.226  21.212   6.464
 3486POPC   C2B45560  26.166  21.230   6.764
 3486POPC   C3B45561  26.188  21.143   7.064
 3486POPC   C4B45562  26.190  21.150   7.364
 3487POPC   NC345563  29.147  12.895   5.564
 3487POPC   PO445564  29.104  12.810   5.864
 3487POPC   GL145565  29.153  12.889   6.164
 3487POPC   GL245566  29.042  12.867   6.164
 3487POPC   C1A45567  29.160  12.892   6.464
 3487POPC   D2A45568  29.125  12.850   6.764
 3487POPC   C3A45569  29.099  12.847   7.064
 3487POPC   C4A45570  29.189  12.851   7.364
 3487POPC   C1B45571  28.940  13.003   6.464
 3487POPC   C2B45572  28.916  12.980   6.764
 3487POPC   C3B45573  28.880  12.920   7.064
 3487POPC   C4B45574  28.967  12.937   7.364
 3488POPC   NC345575  30.702  29.968   5.564
 3488POPC   PO445576  30.653  29.874   5.864
 3488POPC   GL145577  30.662  29.947   6.164
 3488POPC   GL245578  30.600  29.873   6.164
 3488POPC   C1A45579  30.742  29.938   6.464
 3488POPC   D2A45580  30.685  29.895   6.764
 3488POPC   C3A45581  30.656  29.880   7.064
 3488POPC   C4A45582  30.720  29.943   7.364
 3488POPC   C1B45583  30.456  29.857   6.464
 3488POPC   C2B45584  30.404  29.906   6.764
 3488POPC   C3B45585  30.446  29.898   7.064
 3488POPC   C4B45586  30.459  29.900   7.364
 3489POPC   NC345587   7.393  37.700   5.564
 3489POPC   PO445588   7.421  37.692   5.864
 3489POPC   GL145589   7.410  37.649   6.164
 3489POPC   GL245590   7.338  37.556   6.164
 3489POPC   C1A45591   7.386  37.651   6.464
 3489POPC   D2A45592   7.448  37.727   6.764
 3489POPC   C3A45593   7.406  37.671   7.064
 3489POPC   C4A45594   7.378  37.668   7.364
 3489POPC   C1B45595   7.279  37.511   6.464
 3489POPC   C2B45596   7.215  37.515   6.764
 3489POPC   C3B45597   7.258  37.445   7.064
 3489POPC   C4B45598   7.254  37.447   7.364
 3490POPC   NC345599  36.872  37.640   5.564
 3490POPC   PO445600  36.938  37.663   5.864
 3490POPC   GL145601  36.862  37.678   6.164
 3490POPC   GL245602  36.766  37.688   6.164
 3490POPC   C1A45603  36.950  37.632   6.464
 3490POPC   D2A45604  36.944  37.654   6.764
 3490POPC   C3A45605  36.880  37.720   7.064
 3490POPC   C4A45606  36.855  37.650   7.364
 3490POPC   C1B45607  36.634  37.667   6.464
 3490POPC   C2B45608  36.695  37.685   6.764
 3490POPC   C3B45609  36.655  37.699   7.064
 3490POPC   C4B45610  36.629  37.705   7.364
 3491POPC   NC345611  33.029  23.762   5.564
 3491POPC   PO445612  33.013  23.702   5.864
 3491POPC   GL145613  33.056  23.678   6.164
 3491POPC   GL245614  33.145  23.678   6.164
 3491POPC   C1A45615  32.985  23.713   6.464
 3491POPC   D2A45616  33.000  23.745   6.764
 3491POPC   C3A45617  32.980  23.711   7.064
 3491POPC   C4A45618  32.999  23.686   7.364
 3491POPC   C1B45619  33.234  23.657   6.464
 3491POPC   C2B45620  33.253  23.707   6.764
 3491POPC   C3B45621  33.255  23.700   7.064
 3491POPC   C4B45622  33.277  23.723   7.364
 3492POPC   NC345623  35.373  11.252   5.564
 3492POPC   PO445624  35.355  11.259   5.864
 3492POPC   GL145625  35.381  11.348   6.164
 3492POPC   GL245626  35.504  11.312   6.164
 3492POPC   C1A45627  35.304  11.323   6.464
 3492POPC   D2A45628  35.302  11.258   6.764
 3492POPC   C3A45629  35.380  11.348   7.064
 3492POPC   C4A45630  35.352  11.348   7.364
 3492POPC   C1B45631  35.633  11.387   6.464
 3492POPC   C2B45632  35.552  11.362   6.764
 3492POPC   C3B45633  35.633  11.350   7.064
 3492POPC   C4B45634  35.627  11.345   7.364
 3493POPC   NC345635   8.186  31.466   5.564
 3493POPC   PO445636   8.201  31.466   5.864
 3493POPC   GL145637   8.240  31.453   6.164
 3493POPC   GL245638   8.305  31.568   6.164
 3493POPC   C1A45639   8.183  31.477   6.464
 3493POPC   D2A45640   8.246  31.512   6.764
 3493POPC   C3A45641   8.161  31.464   7.064
 3493POPC   C4A45642   8.181  31.463   7.364
 3493POPC   C1B45643   8.374  31.569   6.464
 3493POPC   C2B45644   8.384  31.600   6.764
 3493POPC   C3B45645   8.363  31.587   7.064
 3493POPC   C4B45646   8.382  31.597   7.364
 3494POPC   NC345647  12.074  25.301   5.564
 3494POPC   PO445648  12.100  25.282   5.864
 3494POPC   GL145649  12.097  25.262   6.164
 3494POPC   GL245650  12.010  25.130   6.164
 3494POPC   C1A45651  12.076  25.217   6.464
 3494POPC   D2A45652  12.118  25.262   6.764
 3494POPC   C3A45653  12.113  25.297   7.064
 3494POPC   C4A45654  12.054  25.256   7.364
 3494POPC   C1B45655  11.893  25.037   6.464
 3494POPC   C2B45656  11.869  25.112   6.764
 3494POPC   C3B45657  11.905  25.105   7.064
 3494POPC   C4B45658  11.952  25.079   7.364
 3495POPC   NC345659  34.546  32.200   5.564
 3495POPC   PO445660  34.579  32.281   5.864
 3495POPC   GL145661  34.531  32.226   6.164
 3495POPC   GL245662  34.649  32.202   6.164
 3495POPC   C1A45663  34.570  32.252   6.464
 3495POPC   D2A45664  34.528  32.247   6.764
 3495POPC   C3A45665  34.597  32.241   7.064
 3495POPC   C4A45666  34.590  32.257   7.364
 3495POPC   C1B45667  34.770  32.118   6.464
 3495POPC   C2B45668  34.711  32.109   6.764
 3495POPC   C3B45669  34.728  32.061   7.064
 3495POPC   C4B45670  34.725  32.063   7.364
 3496POPC   NC345671  26.031  33.817   5.564
 3496POPC   PO445672  26.079  33.778   5.864
 3496POPC   GL145673  26.033  33.844   6.164
 3496POPC   GL245674  26.184  33.849   6.164
 3496POPC   C1A45675  26.041  33.819   6.464
 3496POPC   D2A45676  26.016  33.781   6.764
 3496POPC   C3A45677  26.052  33.802   7.064
 3496POPC   C4A45678  26.072  33.809   7.364
 3496POPC   C1B45679  26.256  33.867   6.464
 3496POPC   C2B45680  26.253  33.840   6.764
 3496POPC   C3B45681  26.309  33.877   7.064
 3496POPC   C4B45682  26.304  33.820   7.364
 3497POPC   NC345683  27.566  13.631   5.564
 3497POPC   PO445684  27.603  13.619   5.864
 3497POPC   GL145685  27.573  13.627   6.164
 3497POPC   GL245686  27.555  13.754   6.164
 3497POPC   C1A45687  27.588  13.598   6.464
 3497POPC   D2A45688  27.583  13.594   6.764
 3497POPC   C3A45689  27.623  13.652   7.064
 3497POPC   C4A45690  27.602  13.615   7.364
 3497POPC   C1B45691  27.500  13.854   6.464
 3497POPC   C2B45692  27.519  13.812   6.764
 3497POPC   C3B45693  27.456  13.802   7.064
 3497POPC   C4B45694  27.464  13.832   7.364
 3498POPC   NC345695   8.985  43.883   5.564
 3498POPC   PO445696   8.939  43.877   5.864
 3498POPC   GL145697   8.979  43.917   6.164
 3498POPC   GL245698   8.855  43.758   6.164
 3498POPC   C1A45699   8.996  43.889   6.464
 3498POPC   D2A45700   8.952  43.856   6.764
 3498POPC   C3A45701   9.020  43.901   7.064
 3498POPC   C4A45702   8.971  43.905   7.364
 3498POPC   C1B45703   8.828  43.766   6.464
 3498POPC   C2B45704   8.731  43.717   6.764
 3498POPC   C3B45705   8.813  43.770   7.064
 3498POPC   C4B45706   8.789  43.736   7.364
 3499POPC   NC345707  19.870  41.554   5.564
 3499POPC   PO445708  19.856  41.537   5.864
 3499POPC   GL145709  19.846  41.526   6.164
 3499POPC   GL245710  19.935  41.558   6.164
 3499POPC   C1A45711  19.870  41.540   6.464
 3499POPC   D2A45712  19.826  41.597   6.764
 3499POPC   C3A45713  19.787  41.518   7.064
 3499POPC   C4A45714  19.863  41.524   7.364
 3499POPC   C1B45715  20.069  41.503   6.464
 3499POPC   C2B45716  20.037  41.454   6.764
 3499POPC   C3B45717  20.090  41.525   7.064
 3499POPC   C4B45718  20.052  41.506   7.364
 3500POPC   NC345719  43.085  12.842   5.564
 3500POPC   PO445720  43.157  12.867   5.864
 3500POPC   GL145721  43.156  12.834   6.164
 3500POPC   GL245722  43.087  12.757   6.164
 3500POPC   C1A45723  43.153  12.807   6.464
 3500POPC   D2A45724  43.131  12.842   6.764
 3500POPC   C3A45725  43.148  12.805   7.064
 3500POPC   C4A45726  43.082  12.860   7.364
 3500POPC   C1B45727  42.978  12.639   6.464
 3500POPC   C2B45728  42.937  12.670   6.764
 3500POPC   C3B45729  43.030  12.641   7.064
 3500POPC   C4B45730  43.022  12.668   7.364
 3501POPC   NC345731   2.008  11.341   5.564
 3501POPC   PO445732   1.995  11.319   5.864
 3501POPC   GL145733   1.954  11.316   6.164
 3501POPC   GL245734   1.873  11.179   6.164
 3501POPC   C1A45735   2.014  11.275   6.464
 3501POPC   D2A45736   2.013  11.337   6.764
 3501POPC   C3A45737   1.976  11.290   7.064
 3501POPC   C4A45738   2.011  11.323   7.364
 3501POPC   C1B45739   1.792  11.144   6.464
 3501POPC   C2B45740   1.834  11.153   6.764
 3501POPC   C3B45741   1.737  11.152   7.064
 3501POPC   C4B45742   1.781  11.149   7.364
 3502POPC   NC345743  19.019  15.973   5.564
 3502POPC   PO445744  19.042  15.982   5.864
 3502POPC   GL145745  19.049  15.934   6.164
 3502POPC   GL245746  18.896  15.891   6.164
 3502POPC   C1A45747  19.026  15.905   6.464
 3502POPC   D2A45748  19.081  15.921   6.764
 3502POPC   C3A45749  19.017  15.919   7.064
 3502POPC   C4A45750  19.088  15.982   7.364
 3502POPC   C1B45751  18.824  15.843   6.464
 3502POPC   C2B45752  18.851  15.876   6.764
 3502POPC   C3B45753  18.802  15.823   7.064
 3502POPC   C4B45754  18.838  15.910   7.364
 3503POPC   NC345755  38.477  25.253   5.564
 3503POPC   PO445756  38.458  25.266   5.864
 3503POPC   GL145757  38.460  25.286   6.164
 3503POPC   GL245758  38.417  25.341   6.164
 3503POPC   C1A45759  38.461  25.248   6.464
 3503POPC   D2A45760  38.482  25.250   6.764
 3503POPC   C3A45761  38.414  25.299   7.064
 3503POPC   C4A45762  38.426  25.302   7.364
 3503POPC   C1B45763  38.368  25.538   6.464
 3503POPC   C2B45764  38.371  25.532   6.764
 3503POPC   C3B45765  38.324  25.474   7.064
 3503POPC   C4B45766  38.390  25.515   7.364
 3504POPC   NC345767  44.670  33.061   5.564
 3504POPC   PO445768  44.689  33.061   5.864
 3504POPC   GL145769  44.656  33.009   6.164
 3504POPC   GL245770  44.696  32.931   6.164
 3504POPC   C1A45771  44.664  32.994   6.464
 3504POPC   D2A45772  44.630  33.030   6.764
 3504POPC   C3A45773  44.668  33.032   7.064
 3504POPC   C4A45774  44.683  33.032   7.364
 3504POPC   C1B45775  44.656  32.772   6.464
 3504POPC   C2B45776  44.677  32.750   6.764
 3504POPC   C3B45777  44.640  32.768   7.064
 3504POPC   C4B45778  44.709  32.753   7.364
 3505POPC   NC345779  11.314   9.718   5.564
 3505POPC   PO445780  11.324   9.796   5.864
 3505POPC   GL145781  11.307   9.775   6.164
 3505POPC   GL245782  11.421   9.713   6.164
 3505POPC   C1A45783  11.281   9.744   6.464
 3505POPC   D2A45784  11.298   9.785   6.764
 3505POPC   C3A45785  11.279   9.712   7.064
 3505POPC   C4A45786  11.323   9.711   7.364
 3505POPC   C1B45787  11.546   9.606   6.464
 3505POPC   C2B45788  11.507   9.632   6.764
 3505POPC   C3B45789  11.491   9.651   7.064
 3505POPC   C4B45790  11.514   9.588   7.364
 3506POPC   NC345791  40.044   0.397   5.564
 3506POPC   PO445792  40.032   0.389   5.864
 3506POPC   GL145793  40.057   0.447   6.164
 3506POPC   GL245794  40.090   0.505   6.164
 3506POPC   C1A45795  40.046   0.467   6.464
 3506POPC   D2A45796  40.044   0.429   6.764
 3506POPC   C3A45797  40.015   0.426   7.064
 3506POPC   C4A45798  40.014   0.459   7.364
 3506POPC   C1B45799  40.234   0.507   6.464
 3506POPC   C2B45800  40.261   0.596   6.764
 3506POPC   C3B45801  40.260   0.585   7.064
 3506POPC   C4B45802  40.230   0.543   7.364
 3507POPC   NC345803   3.573  28.363   5.564
 3507POPC   PO445804   3.522  28.389   5.864
 3507POPC   GL145805   3.580  28.383   6.164
 3507POPC   GL245806   3.642  28.260   6.164
 3507POPC   C1A45807   3.532  28.369   6.464
 3507POPC   D2A45808   3.580  28.350   6.764
 3507POPC   C3A45809   3.542  28.379   7.064
 3507POPC   C4A45810   3.559  28.402   7.364
 3507POPC   C1B45811   3.646  28.181   6.464
 3507POPC   C2B45812   3.663  28.113   6.764
 3507POPC   C3B45813   3.695  28.153   7.064
 3507POPC   C4B45814   3.629  28.174   7.364
 3508POPC   NC345815  21.383  22.915   5.564
 3508POPC   PO445816  21.359  22.908   5.864
 3508POPC   GL145817  21.370  22.986   6.164
 3508POPC   GL245818  21.471  22.868   6.164
 3508POPC   C1A45819  21.430  22.893   6.464
 3508POPC   D2A45820  21.412  22.967   6.764
 3508POPC   C3A45821  21.392  22.924   7.064
 3508POPC   C4A45822  21.374  22.907   7.364
 3508POPC   C1B45823  21.541  22.682   6.464
 3508POPC   C2B45824  21.453  22.697   6.764
 3508POPC   C3B45825  21.460  22.696   7.064
 3508POPC   C4B45826  21.514  22.726   7.364
 3509POPC   NC345827  17.471   0.407   5.564
 3509POPC   PO445828  17.497   0.480   5.864
 3509POPC   GL145829  17.465   0.447   6.164
 3509POPC   GL245830  17.438   0.479   6.164
 3509POPC   C1A45831  17.536   0.435   6.464
 3509POPC   D2A45832  17.495   0.424   6.764
 3509POPC   C3A45833  17.498   0.476   7.064
 3509POPC   C4A45834  17.544   0.478   7.364
 3509POPC   C1B45835  17.364   0.647   6.464
 3509POPC   C2B45836  17.328   0.617   6.764
 3509POPC   C3B45837  17.359   0.633   7.064
 3509POPC   C4B45838  17.271   0.566   7.364
 3510POPC   NC345839   2.717  32.295   5.564
 3510POPC   PO445840   2.748  32.257   5.864
 3510POPC   GL145841   2.804  32.298   6.164
 3510POPC   GL245842   2.656  32.117   6.164
 3510POPC   C1A45843   2.801  32.246   6.464
 3510POPC   D2A45844   2.743  32.292   6.764
 3510POPC   C3A45845   2.799  32.222   7.064
 3510POPC   C4A45846   2.774  32.257   7.364
 3510POPC   C1B45847   2.615  32.087   6.464
 3510POPC   C2B45848   2.674  32.026   6.764
 3510POPC   C3B45849   2.618  32.052   7.064
 3510POPC   C4B45850   2.621  32.020   7.364
 3511POPC   NC345851  33.800  22.158   5.564
 3511POPC   PO445852  33.843  22.157   5.864
 3511POPC   GL145853  33.778  22.165   6.164
 3511POPC   GL245854  33.690  22.055   6.164
 3511POPC   C1A45855  33.817  22.195   6.464
 3511POPC   D2A45856  33.840  22.113   6.764
 3511POPC   C3A45857  33.800  22.152   7.064
 3511POPC   C4A45858  33.768  22.146   7.364
 3511POPC   C1B45859  33.614  22.053   6.464
 3511POPC   C2B45860  33.613  22.095   6.764
 3511POPC   C3B45861  33.624  22.070   7.064
 3511POPC   C4B45862  33.557  21.999   7.364
 3512POPC   NC345863  19.818   8.236   5.564
 3512POPC   PO445864  19.880   8.167   5.864
 3512POPC   GL145865  19.849   8.244   6.164
 3512POPC   GL245866  19.937   8.119   6.164
 3512POPC   C1A45867  19.858   8.166   6.464
 3512POPC   D2A45868  19.805   8.199   6.764
 3512POPC   C3A45869  19.806   8.167   7.064
 3512POPC   C4A45870  19.882   8.185   7.364
 3512POPC   C1B45871  20.022   8.062   6.464
 3512POPC   C2B45872  19.985   8.005   6.764
 3512POPC   C3B45873  20.022   8.068   7.064
 3512POPC   C4B45874  20.075   8.067   7.364
 3513POPC   NC345875  35.353  33.781   5.564
 3513POPC   PO445876  35.342  33.816   5.864
 3513POPC   GL145877  35.373  33.774   6.164
 3513POPC   GL245878  35.395  33.677   6.164
 3513POPC   C1A45879  35.304  33.837   6.464
 3513POPC   D2A45880  35.362  33.762   6.764
 3513POPC   C3A45881  35.315  33.795   7.064
 3513POPC   C4A45882  35.362  33.803   7.364
 3513POPC   C1B45883  35.419  33.568   6.464
 3513POPC   C2B45884  35.373  33.586   6.764
 3513POPC   C3B45885  35.370  33.570   7.064
 3513POPC   C4B45886  35.380  33.589   7.364
 3514POPC   NC345887  18.302  35.358   5.564
 3514POPC   PO445888  18.255  35.304   5.864
 3514POPC   GL145889  18.238  35.350   6.164
 3514POPC   GL245890  18.260  35.278   6.164
 3514POPC   C1A45891  18.277  35.324   6.464
 3514POPC   D2A45892  18.270  35.365   6.764
 3514POPC   C3A45893  18.266  35.338   7.064
 3514POPC   C4A45894  18.256  35.331   7.364
 3514POPC   C1B45895  18.153  35.178   6.464
 3514POPC   C2B45896  18.095  35.186   6.764
 3514POPC   C3B45897  18.148  35.154   7.064
 3514POPC   C4B45898  18.105  35.184   7.364
 3515POPC   NC345899  23.672  31.450   5.564
 3515POPC   PO445900  23.732  31.459   5.864
 3515POPC   GL145901  23.701  31.491   6.164
 3515POPC   GL245902  23.611  31.376   6.164
 3515POPC   C1A45903  23.712  31.472   6.464
 3515POPC   D2A45904  23.703  31.435   6.764
 3515POPC   C3A45905  23.694  31.519   7.064
 3515POPC   C4A45906  23.706  31.502   7.364
 3515POPC   C1B45907  23.513  31.318   6.464
 3515POPC   C2B45908  23.529  31.366   6.764
 3515POPC   C3B45909  23.441  31.381   7.064
 3515POPC   C4B45910  23.522  31.339   7.364
 3516POPC   NC345911  31.488  35.303   5.564
 3516POPC   PO445912  31.432  35.353   5.864
 3516POPC   GL145913  31.432  35.322   6.164
 3516POPC   GL245914  31.461  35.200   6.164
 3516POPC   C1A45915  31.468  35.382   6.464
 3516POPC   D2A45916  31.522  35.310   6.764
 3516POPC   C3A45917  31.476  35.304   7.064
 3516POPC   C4A45918  31.475  35.317   7.364
 3516POPC   C1B45919  31.502  35.127   6.464
 3516POPC   C2B45920  31.533  35.136   6.764
 3516POPC   C3B45921  31.535  35.063   7.064
 3516POPC   C4B45922  31.506  35.108   7.364
 3517POPC   NC345923  12.831  15.162   5.564
 3517POPC   PO445924  12.884  15.173   5.864
 3517POPC   GL145925  12.821  15.173   6.164
 3517POPC   GL245926  12.746  15.257   6.164
 3517POPC   C1A45927  12.860  15.191   6.464
 3517POPC   D2A45928  12.894  15.184   6.764
 3517POPC   C3A45929  12.838  15.229   7.064
 3517POPC   C4A45930  12.853  15.142   7.364
 3517POPC   C1B45931  12.692  15.400   6.464
 3517POPC   C2B45932  12.726  15.437   6.764
 3517POPC   C3B45933  12.717  15.416   7.064
 3517POPC   C4B45934  12.690  15.372   7.364
 3518POPC   NC345935  32.290   3.508   5.564
 3518POPC   PO445936  32.256   3.570   5.864
 3518POPC   GL145937  32.213   3.526   6.164
 3518POPC   GL245938  32.102   3.520   6.164
 3518POPC   C1A45939  32.282   3.498   6.464
 3518POPC   D2A45940  32.260   3.557   6.764
 3518POPC   C3A45941  32.240   3.549   7.064
 3518POPC   C4A45942  32.227   3.583   7.364
 3518POPC   C1B45943  32.044   3.591   6.464
 3518POPC   C2B45944  32.047   3.548   6.764
 3518POPC   C3B45945  31.967   3.513   7.064
 3518POPC   C4B45946  32.029   3.576   7.364
 3519POPC   NC345947  16.754  18.322   5.564
 3519POPC   PO445948  16.742  18.286   5.864
 3519POPC   GL145949  16.753  18.251   6.164
 3519POPC   GL245950  16.795  18.216   6.164
 3519POPC   C1A45951  16.731  18.321   6.464
 3519POPC   D2A45952  16.756  18.250   6.764
 3519POPC   C3A45953  16.767  18.255   7.064
 3519POPC   C4A45954  16.695  18.315   7.364
 3519POPC   C1B45955  16.909  18.124   6.464
 3519POPC   C2B45956  16.881  18.164   6.764
 3519POPC   C3B45957  16.961  18.159   7.064
 3519POPC   C4B45958  16.938  18.158   7.364
 3520POPC   NC345959  34.625  19.013   5.564
 3520POPC   PO445960  34.545  19.024   5.864
 3520POPC   GL145961  34.620  19.033   6.164
 3520POPC   GL245962  34.516  19.131   6.164
 3520POPC   C1A45963  34.584  19.068   6.464
 3520POPC   D2A45964  34.558  19.022   6.764
 3520POPC   C3A45965  34.552  19.084   7.064
 3520POPC   C4A45966  34.574  19.039   7.364
 3520POPC   C1B45967  34.532  19.293   6.464
 3520POPC   C2B45968  34.519  19.253   6.764
 3520POPC   C3B45969  34.556  19.348   7.064
 3520POPC   C4B45970  34.547  19.320   7.364
 3521POPC   NC345971  39.194  36.896   5.564
 3521POPC   PO445972  39.226  36.903   5.864
 3521POPC   GL145973  39.190  36.862   6.164
 3521POPC   GL245974  39.296  36.834   6.164
 3521POPC   C1A45975  39.181  36.933   6.464
 3521POPC   D2A45976  39.197  36.880   6.764
 3521POPC   C3A45977  39.240  36.889   7.064
 3521POPC   C4A45978  39.242  36.869   7.364
 3521POPC   C1B45979  39.372  36.689   6.464
 3521POPC   C2B45980  39.366  36.675   6.764
 3521POPC   C3B45981  39.357  36.693   7.064
 3521POPC   C4B45982  39.345  36.722   7.364
 3522POPC   NC345983  44.691  13.622   5.564
 3522POPC   PO445984  44.640  13.677   5.864
 3522POPC   GL145985  44.662  13.587   6.164
 3522POPC   GL245986  44.546  13.520   6.164
 3522POPC   C1A45987  44.648  13.635   6.464
 3522POPC   D2A45988  44.703  13.613   6.764
 3522POPC   C3A45989  44.616  13.674   7.064
 3522POPC   C4A45990  44.683  13.623   7.364
 3522POPC   C1B45991  44.519  13.450   6.464
 3522POPC   C2B45992  44.473  13.467   6.764
 3522POPC   C3B45993  44.522  13.386   7.064
 3522POPC   C4B45994  44.546  13.447   7.364
 3523POPC   NC345995  38.419  12.867   5.564
 3523POPC   PO445996  38.409  12.873   5.864
 3523POPC   GL145997  38.426  12.835   6.164
 3523POPC   GL245998  38.568  12.938   6.164
 3523POPC   C1A45999  38.484  12.809   6.464
 3523POPC   D2A46000  38.505  12.810   6.764
 3523POPC   C3A46001  38.500  12.870   7.064
 3523POPC   C4A46002  38.469  12.865   7.364
 3523POPC   C1B46003  38.605  13.050   6.464
 3523POPC   C2B46004  38.637  13.023   6.764
 3523POPC   C3B46005  38.566  13.075   7.064
 3523POPC   C4B46006  38.563  13.044   7.364
 3524POPC   NC346007  23.757   9.003   5.564
 3524POPC   PO446008  23.734   8.937   5.864
 3524POPC   GL146009  23.673   8.981   6.164
 3524POPC   GL246010  23.698   9.091   6.164
 3524POPC   C1A46011  23.735   9.021   6.464
 3524POPC   D2A46012  23.758   8.997   6.764
 3524POPC   C3A46013  23.748   8.982   7.064
 3524POPC   C4A46014  23.753   9.016   7.364
 3524POPC   C1B46015  23.811   9.197   6.464
 3524POPC   C2B46016  23.801   9.216   6.764
 3524POPC   C3B46017  23.819   9.208   7.064
 3524POPC   C4B46018  23.735   9.174   7.364
 3525POPC   NC346019  38.484  37.653   5.564
 3525POPC   PO446020  38.468  37.705   5.864
 3525POPC   GL146021  38.422  37.644   6.164
 3525POPC   GL246022  38.331  37.722   6.164
 3525POPC   C1A46023  38.457  37.727   6.464
 3525POPC   D2A46024  38.467  37.682   6.764
 3525POPC   C3A46025  38.467  37.662   7.064
 3525POPC   C4A46026  38.444  37.638   7.364
 3525POPC   C1B46027  38.234  37.889   6.464
 3525POPC   C2B46028  38.251  37.887   6.764
 3525POPC   C3B46029  38.230  37.799   7.064
 3525POPC   C4B46030  38.284  37.821   7.364
 3526POPC   NC346031  43.126  21.419   5.564
 3526POPC   PO446032  43.102  21.433   5.864
 3526POPC   GL146033  43.136  21.394   6.164
 3526POPC   GL246034  43.108  21.466   6.164
 3526POPC   C1A46035  43.133  21.411   6.464
 3526POPC   D2A46036  43.114  21.363   6.764
 3526POPC   C3A46037  43.110  21.393   7.064
 3526POPC   C4A46038  43.129  21.426   7.364
 3526POPC   C1B46039  43.047  21.618   6.464
 3526POPC   C2B46040  43.067  21.591   6.764
 3526POPC   C3B46041  43.018  21.585   7.064
 3526POPC   C4B46042  43.028  21.649   7.364
 3527POPC   NC346043   5.840   1.192   5.564
 3527POPC   PO446044   5.889   1.220   5.864
 3527POPC   GL146045   5.848   1.191   6.164
 3527POPC   GL246046   6.001   1.269   6.164
 3527POPC   C1A46047   5.910   1.190   6.464
 3527POPC   D2A46048   5.900   1.220   6.764
 3527POPC   C3A46049   5.868   1.198   7.064
 3527POPC   C4A46050   5.897   1.263   7.364
 3527POPC   C1B46051   6.082   1.271   6.464
 3527POPC   C2B46052   6.098   1.306   6.764
 3527POPC   C3B46053   6.130   1.218   7.064
 3527POPC   C4B46054   6.100   1.247   7.364
 3528POPC   NC346055   5.826  33.024   5.564
 3528POPC   PO446056   5.834  33.065   5.864
 3528POPC   GL146057   5.870  32.978   6.164
 3528POPC   GL246058   5.790  33.004   6.164
 3528POPC   C1A46059   5.900  33.030   6.464
 3528POPC   D2A46060   5.906  33.047   6.764
 3528POPC   C3A46061   5.820  33.029   7.064
 3528POPC   C4A46062   5.844  33.056   7.364
 3528POPC   C1B46063   5.677  32.979   6.464
 3528POPC   C2B46064   5.608  32.976   6.764
 3528POPC   C3B46065   5.581  32.934   7.064
 3528POPC   C4B46066   5.581  32.923   7.364
 3529POPC   NC346067  29.132  40.748   5.564
 3529POPC   PO446068  29.148  40.769   5.864
 3529POPC   GL146069  29.172  40.817   6.164
 3529POPC   GL246070  29.254  40.642   6.164
 3529POPC   C1A46071  29.158  40.788   6.464
 3529POPC   D2A46072  29.128  40.762   6.764
 3529POPC   C3A46073  29.190  40.793   7.064
 3529POPC   C4A46074  29.189  40.785   7.364
 3529POPC   C1B46075  29.279  40.632   6.464
 3529POPC   C2B46076  29.360  40.556   6.764
 3529POPC   C3B46077  29.346  40.622   7.064
 3529POPC   C4B46078  29.311  40.555   7.364
 3530POPC   NC346079  15.984  14.366   5.564
 3530POPC   PO446080  15.999  14.402   5.864
 3530POPC   GL146081  15.969  14.362   6.164
 3530POPC   GL246082  15.958  14.478   6.164
 3530POPC   C1A46083  15.920  14.432   6.464
 3530POPC   D2A46084  16.004  14.359   6.764
 3530POPC   C3A46085  15.948  14.400   7.064
 3530POPC   C4A46086  15.913  14.443   7.364
 3530POPC   C1B46087  16.103  14.582   6.464
 3530POPC   C2B46088  16.071  14.601   6.764
 3530POPC   C3B46089  16.084  14.584   7.064
 3530POPC   C4B46090  16.106  14.662   7.364
 3531POPC   NC346091   6.669  15.180   5.564
 3531POPC   PO446092   6.633  15.197   5.864
 3531POPC   GL146093   6.613  15.202   6.164
 3531POPC   GL246094   6.619  15.281   6.164
 3531POPC   C1A46095   6.684  15.140   6.464
 3531POPC   D2A46096   6.643  15.227   6.764
 3531POPC   C3A46097   6.595  15.193   7.064
 3531POPC   C4A46098   6.646  15.178   7.364
 3531POPC   C1B46099   6.498  15.374   6.464
 3531POPC   C2B46100   6.535  15.396   6.764
 3531POPC   C3B46101   6.492  15.362   7.064
 3531POPC   C4B46102   6.533  15.429   7.364
 3532POPC   NC346103  18.286  15.168   5.564
 3532POPC   PO446104  18.274  15.190   5.864
 3532POPC   GL146105  18.322  15.205   6.164
 3532POPC   GL246106  18.386  15.135   6.164
 3532POPC   C1A46107  18.259  15.169   6.464
 3532POPC   D2A46108  18.315  15.218   6.764
 3532POPC   C3A46109  18.310  15.179   7.064
 3532POPC   C4A46110  18.261  15.176   7.364
 3532POPC   C1B46111  18.486  15.102   6.464
 3532POPC   C2B46112  18.501  15.101   6.764
 3532POPC   C3B46113  18.542  15.022   7.064
 3532POPC   C4B46114  18.517  15.073   7.364
 3533POPC   NC346115  41.556  36.862   5.564
 3533POPC   PO446116  41.595  36.891   5.864
 3533POPC   GL146117  41.591  36.939   6.164
 3533POPC   GL246118  41.471  36.810   6.164
 3533POPC   C1A46119  41.581  36.876   6.464
 3533POPC   D2A46120  41.523  36.876   6.764
 3533POPC   C3A46121  41.542  36.903   7.064
 3533POPC   C4A46122  41.554  36.889   7.364
 3533POPC   C1B46123  41.349  36.785   6.464
 3533POPC   C2B46124  41.313  36.769   6.764
 3533POPC   C3B46125  41.334  36.787   7.064
 3533POPC   C4B46126  41.345  36.801   7.364
 3534POPC   NC346127  10.569  25.304   5.564
 3534POPC   PO446128  10.560  25.218   5.864
 3534POPC   GL146129  10.570  25.275   6.164
 3534POPC   GL246130  10.615  25.202   6.164
 3534POPC   C1A46131  10.514  25.285   6.464
 3534POPC   D2A46132  10.567  25.225   6.764
 3534POPC   C3A46133  10.563  25.309   7.064
 3534POPC   C4A46134  10.518  25.252   7.364
 3534POPC   C1B46135  10.709  25.190   6.464
 3534POPC   C2B46136  10.771  25.212   6.764
 3534POPC   C3B46137  10.774  25.133   7.064
 3534POPC   C4B46138  10.711  25.125   7.364
 3535POPC   NC346139  27.623   9.783   5.564
 3535POPC   PO446140  27.545   9.775   5.864
 3535POPC   GL146141  27.640   9.783   6.164
 3535POPC   GL246142  27.542   9.611   6.164
 3535POPC   C1A46143  27.605   9.795   6.464
 3535POPC   D2A46144  27.620   9.789   6.764
 3535POPC   C3A46145  27.566   9.767   7.064
 3535POPC   C4A46146  27.595   9.769   7.364
 3535POPC   C1B46147  27.519   9.495   6.464
 3535POPC   C2B46148  27.526   9.533   6.764
 3535POPC   C3B46149  27.484   9.483   7.064
 3535POPC   C4B46150  27.544   9.522   7.364
 3536POPC   NC346151  11.298  15.968   5.564
 3536POPC   PO446152  11.342  15.927   5.864
 3536POPC   GL146153  11.277  15.930   6.164
 3536POPC   GL246154  11.203  16.033   6.164
 3536POPC   C1A46155  11.305  15.981   6.464
 3536POPC   D2A46156  11.324  15.973   6.764
 3536POPC   C3A46157  11.302  15.998   7.064
 3536POPC   C4A46158  11.293  15.921   7.364
 3536POPC   C1B46159  11.060  15.990   6.464
 3536POPC   C2B46160  11.041  15.978   6.764
 3536POPC   C3B46161  11.084  15.998   7.064
 3536POPC   C4B46162  11.030  15.980   7.364
 3537POPC   NC346163  14.361  13.660   5.564
 3537POPC   PO446164  14.359  13.604   5.864
 3537POPC   GL146165  14.430  13.672   6.164
 3537POPC   GL246166  14.376  13.479   6.164
 3537POPC   C1A46167  14.365  13.627   6.464
 3537POPC   D2A46168  14.400  13.667   6.764
 3537POPC   C3A46169  14.405  13.593   7.064
 3537POPC   C4A46170  14.384  13.630   7.364
 3537POPC   C1B46171  14.352  13.414   6.464
 3537POPC   C2B46172  14.340  13.334   6.764
 3537POPC   C3B46173  14.381  13.350   7.064
 3537POPC   C4B46174  14.335  13.384   7.364
 3538POPC   NC346175  25.224  44.618   5.564
 3538POPC   PO446176  25.241  44.646   5.864
 3538POPC   GL146177  25.290  44.635   6.164
 3538POPC   GL246178  25.341  44.790   6.164
 3538POPC   C1A46179  25.261  44.661   6.464
 3538POPC   D2A46180  25.252  44.616   6.764
 3538POPC   C3A46181  25.294  44.627   7.064
 3538POPC   C4A46182  25.238  44.616   7.364
 3538POPC   C1B46183  25.407  44.871   6.464
 3538POPC   C2B46184  25.446  44.831   6.764
 3538POPC   C3B46185  25.466  44.804   7.064
 3538POPC   C4B46186  25.424  44.825   7.364
 3539POPC   NC346187  32.279   4.290   5.564
 3539POPC   PO446188  32.216   4.295   5.864
 3539POPC   GL146189  32.279   4.343   6.164
 3539POPC   GL246190  32.233   4.396   6.164
 3539POPC   C1A46191  32.247   4.321   6.464
 3539POPC   D2A46192  32.207   4.296   6.764
 3539POPC   C3A46193  32.244   4.365   7.064
 3539POPC   C4A46194  32.222   4.309   7.364
 3539POPC   C1B46195  32.209   4.570   6.464
 3539POPC   C2B46196  32.246   4.546   6.764
 3539POPC   C3B46197  32.242   4.574   7.064
 3539POPC   C4B46198  32.158   4.611   7.364
 3540POPC   NC346199   7.459   5.827   5.564
 3540POPC   PO446200   7.469   5.888   5.864
 3540POPC   GL146201   7.408   5.868   6.164
 3540POPC   GL246202   7.464   5.755   6.164
 3540POPC   C1A46203   7.390   5.878   6.464
 3540POPC   D2A46204   7.418   5.915   6.764
 3540POPC   C3A46205   7.430   5.821   7.064
 3540POPC   C4A46206   7.448   5.901   7.364
 3540POPC   C1B46207   7.589   5.714   6.464
 3540POPC   C2B46208   7.632   5.695   6.764
 3540POPC   C3B46209   7.548   5.693   7.064
 3540POPC   C4B46210   7.593   5.649   7.364
 3541POPC   NC346211  29.949   2.021   5.564
 3541POPC   PO446212  29.880   2.031   5.864
 3541POPC   GL146213  29.912   1.959   6.164
 3541POPC   GL246214  29.898   2.065   6.164
 3541POPC   C1A46215  29.910   1.965   6.464
 3541POPC   D2A46216  29.882   1.977   6.764
 3541POPC   C3A46217  29.901   2.016   7.064
 3541POPC   C4A46218  29.919   2.013   7.364
 3541POPC   C1B46219  29.777   2.213   6.464
 3541POPC   C2B46220  29.776   2.255   6.764
 3541POPC   C3B46221  29.862   2.192   7.064
 3541POPC   C4B46222  29.872   2.216   7.364
 3542POPC   NC346223  36.875  24.443   5.564
 3542POPC   PO446224  36.922  24.473   5.864
 3542POPC   GL146225  36.921  24.457   6.164
 3542POPC   GL246226  36.839  24.628   6.164
 3542POPC   C1A46227  36.934  24.448   6.464
 3542POPC   D2A46228  36.934  24.461   6.764
 3542POPC   C3A46229  36.890  24.493   7.064
 3542POPC   C4A46230  36.898  24.509   7.364
 3542POPC   C1B46231  36.746  24.660   6.464
 3542POPC   C2B46232  36.809  24.701   6.764
 3542POPC   C3B46233  36.762  24.720   7.064
 3542POPC   C4B46234  36.761  24.663   7.364
 3543POPC   NC346235   1.958  19.813   5.564
 3543POPC   PO446236   1.950  19.816   5.864
 3543POPC   GL146237   1.952  19.846   6.164
 3543POPC   GL246238   1.902  19.763   6.164
 3543POPC   C1A46239   1.963  19.805   6.464
 3543POPC   D2A46240   1.980  19.785   6.764
 3543POPC   C3A46241   1.997  19.795   7.064
 3543POPC   C4A46242   2.018  19.830   7.364
 3543POPC   C1B46243   1.767  19.815   6.464
 3543POPC   C2B46244   1.738  19.775   6.764
 3543POPC   C3B46245   1.748  19.802   7.064
 3543POPC   C4B46246   1.789  19.802   7.364
 3544POPC   NC346247  15.150  23.711   5.564
 3544POPC   PO446248  15.212  23.725   5.864
 3544POPC   GL146249  15.185  23.744   6.164
 3544POPC   GL246250  15.100  23.680   6.164
 3544POPC   C1A46251  15.193  23.754   6.464
 3544POPC   D2A46252  15.171  23.691   6.764
 3544POPC   C3A46253  15.191  23.747   7.064
 3544POPC   C4A46254  15.165  23.690   7.364
 3544POPC   C1B46255  14.983  23.596   6.464
 3544POPC   C2B46256  14.940  23.591   6.764
 3544POPC   C3B46257  14.909  23.674   7.064
 3544POPC   C4B46258  14.901  23.676   7.364
 3545POPC   NC346259   9.714   0.433   5.564
 3545POPC   PO446260   9.728   0.404   5.864
 3545POPC   GL146261   9.797   0.395   6.164
 3545POPC   GL246262   9.664   0.419   6.164
 3545POPC   C1A46263   9.768   0.406   6.464
 3545POPC   D2A46264   9.704   0.460   6.764
 3545POPC   C3A46265   9.777   0.469   7.064
 3545POPC   C4A46266   9.762   0.472   7.364
 3545POPC   C1B46267   9.495   0.330   6.464
 3545POPC   C2B46268   9.579   0.293   6.764
 3545POPC   C3B46269   9.526   0.355   7.064
 3545POPC   C4B46270   9.575   0.268   7.364
 3546POPC   NC346271  27.591  44.628   5.564
 3546POPC   PO446272  27.588  44.705   5.864
 3546POPC   GL146273  27.579  44.665   6.164
 3546POPC   GL246274  27.443  44.693   6.164
 3546POPC   C1A46275  27.601  44.635   6.464
 3546POPC   D2A46276  27.567  44.671   6.764
 3546POPC   C3A46277  27.556  44.648   7.064
 3546POPC   C4A46278  27.617  44.654   7.364
 3546POPC   C1B46279  27.374  44.606   6.464
 3546POPC   C2B46280  27.312  44.630   6.764
 3546POPC   C3B46281  27.378  44.658   7.064
 3546POPC   C4B46282  27.378  44.594   7.364
 3547POPC   NC346283  33.788   4.276   5.564
 3547POPC   PO446284  33.782   4.293   5.864
 3547POPC   GL146285  33.754   4.276   6.164
 3547POPC   GL246286  33.752   4.376   6.164
 3547POPC   C1A46287  33.756   4.299   6.464
 3547POPC   D2A46288  33.834   4.366   6.764
 3547POPC   C3A46289  33.811   4.333   7.064
 3547POPC   C4A46290  33.776   4.302   7.364
 3547POPC   C1B46291  33.620   4.485   6.464
 3547POPC   C2B46292  33.662   4.516   6.764
 3547POPC   C3B46293  33.588   4.465   7.064
 3547POPC   C4B46294  33.667   4.506   7.364
 3548POPC   NC346295  29.946  15.199   5.564
 3548POPC   PO446296  29.964  15.137   5.864
 3548POPC   GL146297  29.961  15.226   6.164
 3548POPC   GL246298  29.783  15.221   6.164
 3548POPC   C1A46299  29.926  15.150   6.464
 3548POPC   D2A46300  29.936  15.152   6.764
 3548POPC   C3A46301  29.967  15.156   7.064
 3548POPC   C4A46302  29.957  15.194   7.364
 3548POPC   C1B46303  29.678  15.339   6.464
 3548POPC   C2B46304  29.677  15.285   6.764
 3548POPC   C3B46305  29.757  15.299   7.064
 3548POPC   C4B46306  29.737  15.347   7.364
 3549POPC   NC346307  37.692  32.223   5.564
 3549POPC   PO446308  37.673  32.214   5.864
 3549POPC   GL146309  37.714  32.284   6.164
 3549POPC   GL246310  37.545  32.257   6.164
 3549POPC   C1A46311  37.682  32.205   6.464
 3549POPC   D2A46312  37.695  32.202   6.764
 3549POPC   C3A46313  37.640  32.283   7.064
 3549POPC   C4A46314  37.698  32.276   7.364
 3549POPC   C1B46315  37.432  32.253   6.464
 3549POPC   C2B46316  37.412  32.286   6.764
 3549POPC   C3B46317  37.388  32.286   7.064
 3549POPC   C4B46318  37.439  32.330   7.364
 3550POPC   NC346319   3.511  13.584   5.564
 3550POPC   PO446320   3.506  13.612   5.864
 3550POPC   GL146321   3.579  13.629   6.164
 3550POPC   GL246322   3.462  13.527   6.164
 3550POPC   C1A46323   3.586  13.619   6.464
 3550POPC   D2A46324   3.495  13.642   6.764
 3550POPC   C3A46325   3.538  13.619   7.064
 3550POPC   C4A46326   3.519  13.623   7.364
 3550POPC   C1B46327   3.378  13.424   6.464
 3550POPC   C2B46328   3.354  13.448   6.764
 3550POPC   C3B46329   3.350  13.405   7.064
 3550POPC   C4B46330   3.398  13.442   7.364
 3551POPC   NC346331   8.923  11.294   5.564
 3551POPC   PO446332   9.016  11.303   5.864
 3551POPC   GL146333   8.946  11.277   6.164
 3551POPC   GL246334   8.827  11.230   6.164
 3551POPC   C1A46335   8.935  11.287   6.464
 3551POPC   D2A46336   9.017  11.321   6.764
 3551POPC   C3A46337   8.923  11.312   7.064
 3551POPC   C4A46338   8.994  11.310   7.364
 3551POPC   C1B46339   8.782  11.270   6.464
 3551POPC   C2B46340   8.719  11.238   6.764
 3551POPC   C3B46341   8.715  11.200   7.064
 3551POPC   C4B46342   8.725  11.216   7.364
 3552POPC   NC346343  15.217  15.948   5.564
 3552POPC   PO446344  15.145  15.997   5.864
 3552POPC   GL146345  15.132  15.965   6.164
 3552POPC   GL246346  15.160  16.081   6.164
 3552POPC   C1A46347  15.194  15.946   6.464
 3552POPC   D2A46348  15.192  15.915   6.764
 3552POPC   C3A46349  15.213  15.997   7.064
 3552POPC   C4A46350  15.222  15.929   7.364
 3552POPC   C1B46351  15.189  16.188   6.464
 3552POPC   C2B46352  15.226  16.154   6.764
 3552POPC   C3B46353  15.237  16.229   7.064
 3552POPC   C4B46354  15.216  16.159   7.364
 3553POPC   NC346355  13.631  29.949   5.564
 3553POPC   PO446356  13.663  29.963   5.864
 3553POPC   GL146357  13.594  29.936   6.164
 3553POPC   GL246358  13.468  29.942   6.164
 3553POPC   C1A46359  13.666  29.910   6.464
 3553POPC   D2A46360  13.641  29.904   6.764
 3553POPC   C3A46361  13.589  29.969   7.064
 3553POPC   C4A46362  13.636  29.875   7.364
 3553POPC   C1B46363  13.397  29.947   6.464
 3553POPC   C2B46364  13.373  29.939   6.764
 3553POPC   C3B46365  13.384  29.981   7.064
 3553POPC   C4B46366  13.377  29.987   7.364
 3554POPC   NC346367  32.231  35.324   5.564
 3554POPC   PO446368  32.295  35.342   5.864
 3554POPC   GL146369  32.223  35.390   6.164
 3554POPC   GL246370  32.125  35.247   6.164
 3554POPC   C1A46371  32.204  35.310   6.464
 3554POPC   D2A46372  32.215  35.353   6.764
 3554POPC   C3A46373  32.211  35.376   7.064
 3554POPC   C4A46374  32.245  35.373   7.364
 3554POPC   C1B46375  32.019  35.231   6.464
 3554POPC   C2B46376  32.072  35.165   6.764
 3554POPC   C3B46377  32.033  35.161   7.064
 3554POPC   C4B46378  32.082  35.165   7.364
 3555POPC   NC346379  21.431  28.377   5.564
 3555POPC   PO446380  21.433  28.392   5.864
 3555POPC   GL146381  21.346  28.417   6.164
 3555POPC   GL246382  21.496  28.409   6.164
 3555POPC   C1A46383  21.381  28.390   6.464
 3555POPC   D2A46384  21.391  28.373   6.764
 3555POPC   C3A46385  21.371  28.393   7.064
 3555POPC   C4A46386  21.405  28.333   7.364
 3555POPC   C1B46387  21.559  28.552   6.464
 3555POPC   C2B46388  21.553  28.553   6.764
 3555POPC   C3B46389  21.544  28.515   7.064
 3555POPC   C4B46390  21.568  28.504   7.364
 3556POPC   NC346391   5.053  22.981   5.564
 3556POPC   PO446392   5.118  22.983   5.864
 3556POPC   GL146393   5.091  22.962   6.164
 3556POPC   GL246394   5.183  23.018   6.164
 3556POPC   C1A46395   5.105  22.955   6.464
 3556POPC   D2A46396   5.130  22.956   6.764
 3556POPC   C3A46397   5.058  22.945   7.064
 3556POPC   C4A46398   5.058  22.905   7.364
 3556POPC   C1B46399   5.307  23.016   6.464
 3556POPC   C2B46400   5.318  23.037   6.764
 3556POPC   C3B46401   5.287  23.031   7.064
 3556POPC   C4B46402   5.317  23.043   7.364
 3557POPC   NC346403  29.162  17.522   5.564
 3557POPC   PO446404  29.153  17.478   5.864
 3557POPC   GL146405  29.135  17.465   6.164
 3557POPC   GL246406  29.242  17.593   6.164
 3557POPC   C1A46407  29.134  17.482   6.464
 3557POPC   D2A46408  29.148  17.462   6.764
 3557POPC   C3A46409  29.132  17.526   7.064
 3557POPC   C4A46410  29.132  17.465   7.364
 3557POPC   C1B46411  29.379  17.707   6.464
 3557POPC   C2B46412  29.331  17.655   6.764
 3557POPC   C3B46413  29.364  17.701   7.064
 3557POPC   C4B46414  29.298  17.657   7.364
 3558POPC   NC346415  37.668  42.346   5.564
 3558POPC   PO446416  37.698  42.306   5.864
 3558POPC   GL146417  37.649  42.302   6.164
 3558POPC   GL246418  37.530  42.376   6.164
 3558POPC   C1A46419  37.659  42.377   6.464
 3558POPC   D2A46420  37.667  42.302   6.764
 3558POPC   C3A46421  37.655  42.312   7.064
 3558POPC   C4A46422  37.704  42.293   7.364
 3558POPC   C1B46423  37.393  42.326   6.464
 3558POPC   C2B46424  37.432  42.317   6.764
 3558POPC   C3B46425  37.422  42.363   7.064
 3558POPC   C4B46426  37.411  42.338   7.364
 3559POPC   NC346427   5.112  32.213   5.564
 3559POPC   PO446428   5.134  32.203   5.864
 3559POPC   GL146429   5.063  32.262   6.164
 3559POPC   GL246430   5.039  32.160   6.164
 3559POPC   C1A46431   5.096  32.278   6.464
 3559POPC   D2A46432   5.086  32.203   6.764
 3559POPC   C3A46433   5.125  32.202   7.064
 3559POPC   C4A46434   5.143  32.265   7.364
 3559POPC   C1B46435   5.056  31.973   6.464
 3559POPC   C2B46436   5.029  31.989   6.764
 3559POPC   C3B46437   5.017  32.052   7.064
 3559POPC   C4B46438   5.095  31.960   7.364
 3560POPC   NC346439  32.998   2.796   5.564
 3560POPC   PO446440  33.008   2.761   5.864
 3560POPC   GL146441  33.025   2.797   6.164
 3560POPC   GL246442  33.142   2.736   6.164
 3560POPC   C1A46443  33.010   2.728   6.464
 3560POPC   D2A46444  32.980   2.811   6.764
 3560POPC   C3A46445  33.071   2.791   7.064
 3560POPC   C4A46446  33.022   2.766   7.364
 3560POPC   C1B46447  33.283   2.787   6.464
 3560POPC   C2B46448  33.269   2.736   6.764
 3560POPC   C3B46449  33.287   2.780   7.064
 3560POPC   C4B46450  33.281   2.774   7.364
 3561POPC   NC346451  10.561  13.623   5.564
 3561POPC   PO446452  10.475  13.593   5.864
 3561POPC   GL146453  10.562  13.587   6.164
 3561POPC   GL246454  10.473  13.506   6.164
 3561POPC   C1A46455  10.564  13.602   6.464
 3561POPC   D2A46456  10.498  13.665   6.764
 3561POPC   C3A46457  10.516  13.622   7.064
 3561POPC   C4A46458  10.566  13.663   7.364
 3561POPC   C1B46459  10.434  13.351   6.464
 3561POPC   C2B46460  10.450  13.391   6.764
 3561POPC   C3B46461  10.427  13.408   7.064
 3561POPC   C4B46462  10.411  13.406   7.364
 3562POPC   NC346463  18.329  14.447   5.564
 3562POPC   PO446464  18.242  14.395   5.864
 3562POPC   GL146465  18.307  14.430   6.164
 3562POPC   GL246466  18.419  14.406   6.164
 3562POPC   C1A46467  18.310  14.418   6.464
 3562POPC   D2A46468  18.240  14.422   6.764
 3562POPC   C3A46469  18.294  14.408   7.064
 3562POPC   C4A46470  18.315  14.437   7.364
 3562POPC   C1B46471  18.551  14.382   6.464
 3562POPC   C2B46472  18.539  14.378   6.764
 3562POPC   C3B46473  18.484  14.403   7.064
 3562POPC   C4B46474  18.550  14.396   7.364
 3563POPC   NC346475   5.833  44.700   5.564
 3563POPC   PO446476   5.883  44.619   5.864
 3563POPC   GL146477   5.849  44.690   6.164
 3563POPC   GL246478   5.792  44.704   6.164
 3563POPC   C1A46479   5.873  44.700   6.464
 3563POPC   D2A46480   5.875  44.687   6.764
 3563POPC   C3A46481   5.865  44.662   7.064
 3563POPC   C4A46482   5.898  44.693   7.364
 3563POPC   C1B46483   5.593  44.735   6.464
 3563POPC   C2B46484   5.594  44.664   6.764
 3563POPC   C3B46485   5.616  44.675   7.064
 3563POPC   C4B46486   5.587  44.713   7.364
 3564POPC   NC346487  41.598  10.555   5.564
 3564POPC   PO446488  41.576  10.477   5.864
 3564POPC   GL146489  41.528  10.524   6.164
 3564POPC   GL246490  41.626  10.420   6.164
 3564POPC   C1A46491  41.524  10.524   6.464
 3564POPC   D2A46492  41.545  10.508   6.764
 3564POPC   C3A46493  41.517  10.519   7.064
 3564POPC   C4A46494  41.571  10.545   7.364
 3564POPC   C1B46495  41.677  10.345   6.464
 3564POPC   C2B46496  41.704  10.314   6.764
 3564POPC   C3B46497  41.695  10.321   7.064
 3564POPC   C4B46498  41.743  10.325   7.364
 3565POPC   NC346499  33.774  19.816   5.564
 3565POPC   PO446500  33.789  19.793   5.864
 3565POPC   GL146501  33.790  19.795   6.164
 3565POPC   GL246502  33.735  19.888   6.164
 3565POPC   C1A46503  33.824  19.836   6.464
 3565POPC   D2A46504  33.805  19.798   6.764
 3565POPC   C3A46505  33.753  19.798   7.064
 3565POPC   C4A46506  33.807  19.854   7.364
 3565POPC   C1B46507  33.656  19.968   6.464
 3565POPC   C2B46508  33.652  20.043   6.764
 3565POPC   C3B46509  33.581  19.958   7.064
 3565POPC   C4B46510  33.644  19.967   7.364
 3566POPC   NC346511   7.461  44.679   5.564
 3566POPC   PO446512   7.412  44.681   5.864
 3566POPC   GL146513   7.428  44.632   6.164
 3566POPC   GL246514   7.501  44.711   6.164
 3566POPC   C1A46515   7.452  44.670   6.464
 3566POPC   D2A46516   7.445  44.709   6.764
 3566POPC   C3A46517   7.408  44.623   7.064
 3566POPC   C4A46518   7.385  44.670   7.364
 3566POPC   C1B46519   7.650  44.728   6.464
 3566POPC   C2B46520   7.671  44.754   6.764
 3566POPC   C3B46521   7.677  44.712   7.064
 3566POPC   C4B46522   7.616  44.747   7.364
 3567POPC   NC346523   9.732   5.096   5.564
 3567POPC   PO446524   9.699   5.122   5.864
 3567POPC   GL146525   9.761   5.118   6.164
 3567POPC   GL246526   9.604   5.058   6.164
 3567POPC   C1A46527   9.786   5.058   6.464
 3567POPC   D2A46528   9.708   5.142   6.764
 3567POPC   C3A46529   9.796   5.066   7.064
 3567POPC   C4A46530   9.707   5.067   7.364
 3567POPC   C1B46531   9.474   5.106   6.464
 3567POPC   C2B46532   9.545   5.124   6.764
 3567POPC   C3B46533   9.526   5.087   7.064
 3567POPC   C4B46534   9.451   5.070   7.364
 3568POPC   NC346535  43.890  40.745   5.564
 3568POPC   PO446536  43.866  40.760   5.864
 3568POPC   GL146537  43.878  40.831   6.164
 3568POPC   GL246538  43.873  40.934   6.164
 3568POPC   C1A46539  43.927  40.788   6.464
 3568POPC   D2A46540  43.880  40.795   6.764
 3568POPC   C3A46541  43.845  40.775   7.064
 3568POPC   C4A46542  43.879  40.744   7.364
 3568POPC   C1B46543  43.829  41.004   6.464
 3568POPC   C2B46544  43.762  40.988   6.764
 3568POPC   C3B46545  43.799  40.983   7.064
 3568POPC   C4B46546  43.813  40.998   7.364
 3569POPC   NC346547  35.385  13.646   5.564
 3569POPC   PO446548  35.334  13.589   5.864
 3569POPC   GL146549  35.367  13.598   6.164
 3569POPC   GL246550  35.268  13.686   6.164
 3569POPC   C1A46551  35.332  13.610   6.464
 3569POPC   D2A46552  35.334  13.664   6.764
 3569POPC   C3A46553  35.376  13.608   7.064
 3569POPC   C4A46554  35.319  13.581   7.364
 3569POPC   C1B46555  35.247  13.883   6.464
 3569POPC   C2B46556  35.229  13.857   6.764
 3569POPC   C3B46557  35.247  13.796   7.064
 3569POPC   C4B46558  35.243  13.871   7.364
 3570POPC   NC346559  42.303  40.759   5.564
 3570POPC   PO446560  42.352  40.821   5.864
 3570POPC   GL146561  42.320  40.736   6.164
 3570POPC   GL246562  42.463  40.768   6.164
 3570POPC   C1A46563  42.329  40.796   6.464
 3570POPC   D2A46564  42.299  40.757   6.764
 3570POPC   C3A46565  42.337  40.780   7.064
 3570POPC   C4A46566  42.360  40.744   7.364
 3570POPC   C1B46567  42.580  40.819   6.464
 3570POPC   C2B46568  42.574  40.834   6.764
 3570POPC   C3B46569  42.585  40.807   7.064
 3570POPC   C4B46570  42.596  40.842   7.364
 3571POPC   NC346571   8.213   7.424   5.564
 3571POPC   PO446572   8.204   7.428   5.864
 3571POPC   GL146573   8.218   7.454   6.164
 3571POPC   GL246574   8.125   7.478   6.164
 3571POPC   C1A46575   8.215   7.465   6.464
 3571POPC   D2A46576   8.209   7.392   6.764
 3571POPC   C3A46577   8.167   7.457   7.064
 3571POPC   C4A46578   8.150   7.453   7.364
 3571POPC   C1B46579   7.931   7.432   6.464
 3571POPC   C2B46580   7.926   7.524   6.764
 3571POPC   C3B46581   7.969   7.490   7.064
 3571POPC   C4B46582   7.971   7.458   7.364
 3572POPC   NC346583   1.986  28.404   5.564
 3572POPC   PO446584   2.008  28.377   5.864
 3572POPC   GL146585   1.971  28.331   6.164
 3572POPC   GL246586   2.075  28.276   6.164
 3572POPC   C1A46587   2.026  28.385   6.464
 3572POPC   D2A46588   1.948  28.377   6.764
 3572POPC   C3A46589   1.955  28.339   7.064
 3572POPC   C4A46590   1.956  28.380   7.364
 3572POPC   C1B46591   2.077  28.173   6.464
 3572POPC   C2B46592   2.097  28.153   6.764
 3572POPC   C3B46593   2.047  28.133   7.064
 3572POPC   C4B46594   2.026  28.093   7.364
 3573POPC   NC346595  11.308  19.856   5.564
 3573POPC   PO446596  11.300  19.882   5.864
 3573POPC   GL146597  11.286  19.818   6.164
 3573POPC   GL246598  11.322  19.760   6.164
 3573POPC   C1A46599  11.262  19.790   6.464
 3573POPC   D2A46600  11.282  19.876   6.764
 3573POPC   C3A46601  11.323  19.876   7.064
 3573POPC   C4A46602  11.271  19.827   7.364
 3573POPC   C1B46603  11.307  19.549   6.464
 3573POPC   C2B46604  11.338  19.608   6.764
 3573POPC   C3B46605  11.361  19.616   7.064
 3573POPC   C4B46606  11.392  19.608   7.364
 3574POPC   NC346607  19.105  12.037   5.564
 3574POPC   PO446608  19.095  12.075   5.864
 3574POPC   GL146609  19.073  12.089   6.164
 3574POPC   GL246610  19.052  11.911   6.164
 3574POPC   C1A46611  19.079  12.034   6.464
 3574POPC   D2A46612  19.053  12.069   6.764
 3574POPC   C3A46613  19.101  12.088   7.064
 3574POPC   C4A46614  19.085  12.107   7.364
 3574POPC   C1B46615  19.053  11.853   6.464
 3574POPC   C2B46616  19.080  11.825   6.764
 3574POPC   C3B46617  19.074  11.790   7.064
 3574POPC   C4B46618  19.026  11.787   7.364
 3575POPC   NC346619  26.064  25.303   5.564
 3575POPC   PO446620  26.035  25.249   5.864
 3575POPC   GL146621  26.075  25.231   6.164
 3575POPC   GL246622  26.196  25.301   6.164
 3575POPC   C1A46623  26.004  25.225   6.464
 3575POPC   D2A46624  26.001  25.298   6.764
 3575POPC   C3A46625  26.014  25.260   7.064
 3575POPC   C4A46626  26.029  25.247   7.364
 3575POPC   C1B46627  26.284  25.373   6.464
 3575POPC   C2B46628  26.261  25.332   6.764
 3575POPC   C3B46629  26.256  25.321   7.064
 3575POPC   C4B46630  26.267  25.355   7.364
 3576POPC   NC346631  33.050  29.173   5.564
 3576POPC   PO446632  33.038  29.105   5.864
 3576POPC   GL146633  33.039  29.118   6.164
 3576POPC   GL246634  33.021  29.315   6.164
 3576POPC   C1A46635  32.996  29.191   6.464
 3576POPC   D2A46636  33.019  29.167   6.764
 3576POPC   C3A46637  33.066  29.164   7.064
 3576POPC   C4A46638  33.005  29.103   7.364
 3576POPC   C1B46639  33.038  29.444   6.464
 3576POPC   C2B46640  32.997  29.385   6.764
 3576POPC   C3B46641  33.037  29.406   7.064
 3576POPC   C4B46642  32.974  29.396   7.364
 3577POPC   NC346643  19.859   6.661   5.564
 3577POPC   PO446644  19.858   6.688   5.864
 3577POPC   GL146645  19.844   6.668   6.164
 3577POPC   GL246646  19.696   6.696   6.164
 3577POPC   C1A46647  19.869   6.642   6.464
 3577POPC   D2A46648  19.804   6.677   6.764
 3577POPC   C3A46649  19.805   6.623   7.064
 3577POPC   C4A46650  19.807   6.614   7.364
 3577POPC   C1B46651  19.596   6.736   6.464
 3577POPC   C2B46652  19.625   6.780   6.764
 3577POPC   C3B46653  19.607   6.698   7.064
 3577POPC   C4B46654  19.568   6.757   7.364
 3578POPC   NC346655  24.530   8.210   5.564
 3578POPC   PO446656  24.465   8.159   5.864
 3578POPC   GL146657  24.517   8.230   6.164
 3578POPC   GL246658  24.521   8.073   6.164
 3578POPC   C1A46659  24.480   8.176   6.464
 3578POPC   D2A46660  24.536   8.192   6.764
 3578POPC   C3A46661  24.489   8.200   7.064
 3578POPC   C4A46662  24.523   8.192   7.364
 3578POPC   C1B46663  24.582   7.956   6.464
 3578POPC   C2B46664  24.592   7.954   6.764
 3578POPC   C3B46665  24.623   7.988   7.064
 3578POPC   C4B46666  24.618   7.990   7.364
 3579POPC   NC346667   2.731  39.986   5.564
 3579POPC   PO446668   2.809  39.975   5.864
 3579POPC   GL146669   2.780  40.041   6.164
 3579POPC   GL246670   2.677  40.004   6.164
 3579POPC   C1A46671   2.812  39.997   6.464
 3579POPC   D2A46672   2.763  40.037   6.764
 3579POPC   C3A46673   2.814  39.958   7.064
 3579POPC   C4A46674   2.795  39.981   7.364
 3579POPC   C1B46675   2.519  40.062   6.464
 3579POPC   C2B46676   2.512  40.108   6.764
 3579POPC   C3B46677   2.518  40.063   7.064
 3579POPC   C4B46678   2.543  40.119   7.364
 3580POPC   NC346679  27.558  18.259   5.564
 3580POPC   PO446680  27.624  18.298   5.864
 3580POPC   GL146681  27.550  18.272   6.164
 3580POPC   GL246682  27.691  18.400   6.164
 3580POPC   C1A46683  27.630  18.247   6.464
 3580POPC   D2A46684  27.620  18.289   6.764
 3580POPC   C3A46685  27.584  18.234   7.064
 3580POPC   C4A46686  27.604  18.290   7.364
 3580POPC   C1B46687  27.730  18.499   6.464
 3580POPC   C2B46688  27.797  18.475   6.764
 3580POPC   C3B46689  27.755  18.512   7.064
 3580POPC   C4B46690  27.785  18.427   7.364
 3581POPC   NC346691  40.790  26.822   5.564
 3581POPC   PO446692  40.789  26.775   5.864
 3581POPC   GL146693  40.825  26.817   6.164
 3581POPC   GL246694  40.639  26.889   6.164
 3581POPC   C1A46695  40.738  26.824   6.464
 3581POPC   D2A46696  40.790  26.820   6.764
 3581POPC   C3A46697  40.807  26.846   7.064
 3581POPC   C4A46698  40.787  26.847   7.364
 3581POPC   C1B46699  40.545  26.865   6.464
 3581POPC   C2B46700  40.504  26.926   6.764
 3581POPC   C3B46701  40.502  26.905   7.064
 3581POPC   C4B46702  40.587  26.947   7.364
 3582POPC   NC346703  10.496  26.062   5.564
 3582POPC   PO446704  10.509  26.044   5.864
 3582POPC   GL146705  10.515  26.029   6.164
 3582POPC   GL246706  10.433  26.135   6.164
 3582POPC   C1A46707  10.477  26.020   6.464
 3582POPC   D2A46708  10.519  26.076   6.764
 3582POPC   C3A46709  10.514  26.009   7.064
 3582POPC   C4A46710  10.559  26.045   7.364
 3582POPC   C1B46711  10.263  26.129   6.464
 3582POPC   C2B46712  10.318  26.177   6.764
 3582POPC   C3B46713  10.295  26.132   7.064
 3582POPC   C4B46714  10.287  26.194   7.364
 3583POPC   NC346715  40.043   2.721   5.564
 3583POPC   PO446716  40.037   2.785   5.864
 3583POPC   GL146717  40.048   2.754   6.164
 3583POPC   GL246718  39.930   2.866   6.164
 3583POPC   C1A46719  40.006   2.776   6.464
 3583POPC   D2A46720  39.994   2.744   6.764
 3583POPC   C3A46721  40.040   2.742   7.064
 3583POPC   C4A46722  40.024   2.775   7.364
 3583POPC   C1B46723  39.866   2.960   6.464
 3583POPC   C2B46724  39.894   2.989   6.764
 3583POPC   C3B46725  39.922   3.015   7.064
 3583POPC   C4B46726  39.907   2.963   7.364
 3584POPC   NC346727  18.284   7.454   5.564
 3584POPC   PO446728  18.309   7.464   5.864
 3584POPC   GL146729  18.242   7.457   6.164
 3584POPC   GL246730  18.340   7.307   6.164
 3584POPC   C1A46731  18.318   7.443   6.464
 3584POPC   D2A46732  18.234   7.390   6.764
 3584POPC   C3A46733  18.241   7.394   7.064
 3584POPC   C4A46734  18.278   7.401   7.364
 3584POPC   C1B46735  18.338   7.217   6.464
 3584POPC   C2B46736  18.285   7.172   6.764
 3584POPC   C3B46737  18.350   7.172   7.064
 3584POPC   C4B46738  18.326   7.158   7.364
 3585POPC   NC346739  21.421  10.480   5.564
 3585POPC   PO446740  21.359  10.566   5.864
 3585POPC   GL146741  21.374  10.507   6.164
 3585POPC   GL246742  21.290  10.608   6.164
 3585POPC   C1A46743  21.337  10.568   6.464
 3585POPC   D2A46744  21.338  10.479   6.764
 3585POPC   C3A46745  21.386  10.562   7.064
 3585POPC   C4A46746  21.340  10.537   7.364
 3585POPC   C1B46747  21.241  10.797   6.464
 3585POPC   C2B46748  21.312  10.718   6.764
 3585POPC   C3B46749  21.310  10.716   7.064
 3585POPC   C4B46750  21.307  10.714   7.364
 3586POPC   NC346751  26.821   2.038   5.564
 3586POPC   PO446752  26.783   1.964   5.864
 3586POPC   GL146753  26.800   2.004   6.164
 3586POPC   GL246754  26.922   2.091   6.164
 3586POPC   C1A46755  26.787   2.001   6.464
 3586POPC   D2A46756  26.777   1.961   6.764
 3586POPC   C3A46757  26.787   1.962   7.064
 3586POPC   C4A46758  26.857   1.967   7.364
 3586POPC   C1B46759  26.948   2.146   6.464
 3586POPC   C2B46760  27.005   2.135   6.764
 3586POPC   C3B46761  26.957   2.178   7.064
 3586POPC   C4B46762  26.998   2.141   7.364
 3587POPC   NC346763  18.296  10.505   5.564
 3587POPC   PO446764  18.286  10.535   5.864
 3587POPC   GL146765  18.275  10.488   6.164
 3587POPC   GL246766  18.204  10.627   6.164
 3587POPC   C1A46767  18.314  10.496   6.464
 3587POPC   D2A46768  18.276  10.571   6.764
 3587POPC   C3A46769  18.247  10.537   7.064
 3587POPC   C4A46770  18.247  10.508   7.364
 3587POPC   C1B46771  18.165  10.795   6.464
 3587POPC   C2B46772  18.217  10.766   6.764
 3587POPC   C3B46773  18.207  10.729   7.064
 3587POPC   C4B46774  18.186  10.804   7.364
 3588POPC   NC346775  33.018  33.014   5.564
 3588POPC   PO446776  33.006  32.990   5.864
 3588POPC   GL146777  32.987  32.978   6.164
 3588POPC   GL246778  32.996  33.126   6.164
 3588POPC   C1A46779  33.024  33.052   6.464
 3588POPC   D2A46780  33.031  33.034   6.764
 3588POPC   C3A46781  33.058  33.038   7.064
 3588POPC   C4A46782  33.048  32.974   7.364
 3588POPC   C1B46783  32.850  33.255   6.464
 3588POPC   C2B46784  32.841  33.215   6.764
 3588POPC   C3B46785  32.899  33.188   7.064
 3588POPC   C4B46786  32.887  33.260   7.364
 3589POPC   NC346787  29.900  13.622   5.564
 3589POPC   PO446788  29.948  13.588   5.864
 3589POPC   GL146789  29.897  13.588   6.164
 3589POPC   GL246790  29.918  13.708   6.164
 3589POPC   C1A46791  29.909  13.677   6.464
 3589POPC   D2A46792  29.914  13.640   6.764
 3589POPC   C3A46793  29.962  13.654   7.064
 3589POPC   C4A46794  29.939  13.596   7.364
 3589POPC   C1B46795  30.002  13.850   6.464
 3589POPC   C2B46796  29.992  13.855   6.764
 3589POPC   C3B46797  30.000  13.906   7.064
 3589POPC   C4B46798  29.964  13.860   7.364
 3590POPC   NC346799  16.764  15.176   5.564
 3590POPC   PO446800  16.731  15.216   5.864
 3590POPC   GL146801  16.755  15.197   6.164
 3590POPC   GL246802  16.797  15.070   6.164
 3590POPC   C1A46803  16.769  15.192   6.464
 3590POPC   D2A46804  16.699  15.132   6.764
 3590POPC   C3A46805  16.769  15.148   7.064
 3590POPC   C4A46806  16.741  15.149   7.364
 3590POPC   C1B46807  16.932  14.961   6.464
 3590POPC   C2B46808  16.875  14.955   6.764
 3590POPC   C3B46809  16.863  15.023   7.064
 3590POPC   C4B46810  16.839  14.967   7.364
 3591POPC   NC346811  13.584  28.325   5.564
 3591POPC   PO446812  13.621  28.377   5.864
 3591POPC   GL146813  13.596  28.368   6.164
 3591POPC   GL246814  13.555  28.402   6.164
 3591POPC   C1A46815  13.599  28.327   6.464
 3591POPC   D2A46816  13.638  28.327   6.764
 3591POPC   C3A46817  13.579  28.335   7.064
 3591POPC   C4A46818  13.644  28.381   7.364
 3591POPC   C1B46819  13.385  28.504   6.464
 3591POPC   C2B46820  13.381  28.478   6.764
 3591POPC   C3B46821  13.349  28.505   7.064
 3591POPC   C4B46822  13.352  28.471   7.364
 3592POPC   NC346823  10.520  37.724   5.564
 3592POPC   PO446824  10.499  37.657   5.864
 3592POPC   GL146825  10.567  37.720   6.164
 3592POPC   GL246826  10.408  37.596   6.164
 3592POPC   C1A46827  10.481  37.695   6.464
 3592POPC   D2A46828  10.538  37.654   6.764
 3592POPC   C3A46829  10.546  37.649   7.064
 3592POPC   C4A46830  10.483  37.709   7.364
 3592POPC   C1B46831  10.248  37.551   6.464
 3592POPC   C2B46832  10.283  37.631   6.764
 3592POPC   C3B46833  10.253  37.556   7.064
 3592POPC   C4B46834  10.267  37.532   7.364
 3593POPC   NC346835  25.222  30.721   5.564
 3593POPC   PO446836  25.250  30.717   5.864
 3593POPC   GL146837  25.253  30.731   6.164
 3593POPC   GL246838  25.290  30.629   6.164
 3593POPC   C1A46839  25.297  30.684   6.464
 3593POPC   D2A46840  25.245  30.731   6.764
 3593POPC   C3A46841  25.312  30.724   7.064
 3593POPC   C4A46842  25.265  30.721   7.364
 3593POPC   C1B46843  25.391  30.463   6.464
 3593POPC   C2B46844  25.339  30.522   6.764
 3593POPC   C3B46845  25.393  30.433   7.064
 3593POPC   C4B46846  25.426  30.525   7.364
 3594POPC   NC346847  15.958  37.664   5.564
 3594POPC   PO446848  15.995  37.676   5.864
 3594POPC   GL146849  16.000  37.643   6.164
 3594POPC   GL246850  15.805  37.627   6.164
 3594POPC   C1A46851  15.934  37.676   6.464
 3594POPC   D2A46852  15.972  37.637   6.764
 3594POPC   C3A46853  15.972  37.656   7.064
 3594POPC   C4A46854  15.926  37.707   7.364
 3594POPC   C1B46855  15.747  37.534   6.464
 3594POPC   C2B46856  15.691  37.553   6.764
 3594POPC   C3B46857  15.687  37.595   7.064
 3594POPC   C4B46858  15.697  37.526   7.364
 3595POPC   NC346859  13.655  18.320   5.564
 3595POPC   PO446860  13.631  18.313   5.864
 3595POPC   GL146861  13.647  18.331   6.164
 3595POPC   GL246862  13.738  18.267   6.164
 3595POPC   C1A46863  13.675  18.319   6.464
 3595POPC   D2A46864  13.643  18.256   6.764
 3595POPC   C3A46865  13.597  18.268   7.064
 3595POPC   C4A46866  13.595  18.248   7.364
 3595POPC   C1B46867  13.886  18.283   6.464
 3595POPC   C2B46868  13.898  18.345   6.764
 3595POPC   C3B46869  13.831  18.284   7.064
 3595POPC   C4B46870  13.866  18.310   7.364
 3596POPC   NC346871  29.896  43.076   5.564
 3596POPC   PO446872  29.914  43.067   5.864
 3596POPC   GL146873  29.951  43.070   6.164
 3596POPC   GL246874  29.778  43.203   6.164
 3596POPC   C1A46875  29.889  43.153   6.464
 3596POPC   D2A46876  29.899  43.121   6.764
 3596POPC   C3A46877  29.937  43.148   7.064
 3596POPC   C4A46878  29.888  43.135   7.364
 3596POPC   C1B46879  29.748  43.245   6.464
 3596POPC   C2B46880  29.699  43.298   6.764
 3596POPC   C3B46881  29.729  43.292   7.064
 3596POPC   C4B46882  29.740  43.228   7.364
 3597POPC   NC346883   0.482  38.499   5.564
 3597POPC   PO446884   0.463  38.503   5.864
 3597POPC   GL146885   0.433  38.497   6.164
 3597POPC   GL246886   0.499  38.594   6.164
 3597POPC   C1A46887   0.416  38.488   6.464
 3597POPC   D2A46888   0.403  38.436   6.764
 3597POPC   C3A46889   0.410  38.450   7.064
 3597POPC   C4A46890   0.404  38.469   7.364
 3597POPC   C1B46891   0.462  38.676   6.464
 3597POPC   C2B46892   0.452  38.734   6.764
 3597POPC   C3B46893   0.516  38.686   7.064
 3597POPC   C4B46894   0.440  38.652   7.364
 3598POPC   NC346895  31.497  41.541   5.564
 3598POPC   PO446896  31.431  41.550   5.864
 3598POPC   GL146897  31.424  41.512   6.164
 3598POPC   GL246898  31.436  41.708   6.164
 3598POPC   C1A46899  31.442  41.571   6.464
 3598POPC   D2A46900  31.507  41.516   6.764
 3598POPC   C3A46901  31.429  41.568   7.064
 3598POPC   C4A46902  31.489  41.538   7.364
 3598POPC   C1B46903  31.414  41.745   6.464
 3598POPC   C2B46904  31.373  41.791   6.764
 3598POPC   C3B46905  31.376  41.792   7.064
 3598POPC   C4B46906  31.424  41.807   7.364
 3599POPC   NC346907  13.595  43.147   5.564
 3599POPC   PO446908  13.623  43.141   5.864
 3599POPC   GL146909  13.578  43.157   6.164
 3599POPC   GL246910  13.597  42.949   6.164
 3599POPC   C1A46911  13.579  43.111   6.464
 3599POPC   D2A46912  13.586  43.092   6.764
 3599POPC   C3A46913  13.595  43.108   7.064
 3599POPC   C4A46914  13.599  43.108   7.364
 3599POPC   C1B46915  13.644  42.908   6.464
 3599POPC   C2B46916  13.680  42.912   6.764
 3599POPC   C3B46917  13.621  42.900   7.064
 3599POPC   C4B46918  13.642  42.824   7.364
 3600POPC   NC346919   2.022  26.048   5.564
 3600POPC   PO446920   1.968  26.079   5.864
 3600POPC   GL146921   1.977  26.029   6.164
 3600POPC   GL246922   1.877  26.138   6.164
 3600POPC   C1A46923   2.009  26.080   6.464
 3600POPC   D2A46924   1.989  26.037   6.764
 3600POPC   C3A46925   1.969  26.029   7.064
 3600POPC   C4A46926   2.038  25.997   7.364
 3600POPC   C1B46927   1.852  26.285   6.464
 3600POPC   C2B46928   1.833  26.284   6.764
 3600POPC   C3B46929   1.814  26.273   7.064
 3600POPC   C4B46930   1.833  26.286   7.364
 3601POPC   NC346931   9.759  43.911   5.564
 3601POPC   PO446932   9.725  43.931   5.864
 3601POPC   GL146933   9.786  43.867   6.164
 3601POPC   GL246934   9.717  43.956   6.164
 3601POPC   C1A46935   9.790  43.837   6.464
 3601POPC   D2A46936   9.757  43.887   6.764
 3601POPC   C3A46937   9.783  43.898   7.064
 3601POPC   C4A46938   9.718  43.916   7.364
 3601POPC   C1B46939   9.590  44.084   6.464
 3601POPC   C2B46940   9.627  44.089   6.764
 3601POPC   C3B46941   9.633  44.129   7.064
 3601POPC   C4B46942   9.635  44.092   7.364
 3602POPC   NC346943   8.166  29.145   5.564
 3602POPC   PO446944   8.171  29.121   5.864
 3602POPC   GL146945   8.189  29.107   6.164
 3602POPC   GL246946   8.215  29.240   6.164
 3602POPC   C1A46947   8.168  29.142   6.464
 3602POPC   D2A46948   8.242  29.130   6.764
 3602POPC   C3A46949   8.218  29.183   7.064
 3602POPC   C4A46950   8.189  29.167   7.364
 3602POPC   C1B46951   8.313  29.390   6.464
 3602POPC   C2B46952   8.281  29.370   6.764
 3602POPC   C3B46953   8.243  29.373   7.064
 3602POPC   C4B46954   8.309  29.370   7.364
 3603POPC   NC346955  31.484  44.620   5.564
 3603POPC   PO446956  31.507  44.702   5.864
 3603POPC   GL146957  31.453  44.683   6.164
 3603POPC   GL246958  31.639  44.599   6.164
 3603POPC   C1A46959  31.512  44.699   6.464
 3603POPC   D2A46960  31.484  44.702   6.764
 3603POPC   C3A46961  31.476  44.660   7.064
 3603POPC   C4A46962  31.434  44.697   7.364
 3603POPC   C1B46963  31.714  44.606   6.464
 3603POPC   C2B46964  31.689  44.648   6.764
 3603POPC   C3B46965  31.762  44.638   7.064
 3603POPC   C4B46966  31.738  44.591   7.364
 3604POPC   NC346967  12.833  41.607   5.564
 3604POPC   PO446968  12.862  41.542   5.864
 3604POPC   GL146969  12.869  41.564   6.164
 3604POPC   GL246970  12.904  41.477   6.164
 3604POPC   C1A46971  12.807  41.554   6.464
 3604POPC   D2A46972  12.851  41.607   6.764
 3604POPC   C3A46973  12.874  41.519   7.064
 3604POPC   C4A46974  12.876  41.601   7.364
 3604POPC   C1B46975  13.018  41.328   6.464
 3604POPC   C2B46976  12.944  41.347   6.764
 3604POPC   C3B46977  13.035  41.356   7.064
 3604POPC   C4B46978  12.956  41.312   7.364
 3605POPC   NC346979   9.794  15.191   5.564
 3605POPC   PO446980   9.736  15.167   5.864
 3605POPC   GL146981   9.773  15.183   6.164
 3605POPC   GL246982   9.855  15.163   6.164
 3605POPC   C1A46983   9.700  15.201   6.464
 3605POPC   D2A46984   9.729  15.159   6.764
 3605POPC   C3A46985   9.722  15.207   7.064
 3605POPC   C4A46986   9.765  15.210   7.364
 3605POPC   C1B46987  10.020  15.124   6.464
 3605POPC   C2B46988   9.938  15.124   6.764
 3605POPC   C3B46989  10.004  15.052   7.064
 3605POPC   C4B46990   9.955  15.098   7.364
 3606POPC   NC346991  19.801  38.451   5.564
 3606POPC   PO446992  19.870  38.471   5.864
 3606POPC   GL146993  19.883  38.452   6.164
 3606POPC   GL246994  19.935  38.508   6.164
 3606POPC   C1A46995  19.873  38.474   6.464
 3606POPC   D2A46996  19.867  38.457   6.764
 3606POPC   C3A46997  19.817  38.451   7.064
 3606POPC   C4A46998  19.825  38.490   7.364
 3606POPC   C1B46999  20.016  38.551   6.464
 3606POPC   C2B47000  20.108  38.575   6.764
 3606POPC   C3B47001  20.039  38.560   7.064
 3606POPC   C4B47002  20.067  38.508   7.364
 3607POPC   NC347003   9.784  22.983   5.564
 3607POPC   PO447004   9.786  22.899   5.864
 3607POPC   GL147005   9.765  22.925   6.164
 3607POPC   GL247006   9.637  23.021   6.164
 3607POPC   C1A47007   9.760  22.939   6.464
 3607POPC   D2A47008   9.777  22.935   6.764
 3607POPC   C3A47009   9.755  22.907   7.064
 3607POPC   C4A47010   9.756  22.945   7.364
 3607POPC   C1B47011   9.496  23.038   6.464
 3607POPC   C2B47012   9.482  23.013   6.764
 3607POPC   C3B47013   9.576  23.096   7.064
 3607POPC   C4B47014   9.577  23.032   7.364
 3608POPC   NC347015  37.690  16.700   5.564
 3608POPC   PO447016  37.634  16.757   5.864
 3608POPC   GL147017  37.649  16.764   6.164
 3608POPC   GL247018  37.591  16.879   6.164
 3608POPC   C1A47019  37.681  16.777   6.464
 3608POPC   D2A47020  37.651  16.776   6.764
 3608POPC   C3A47021  37.646  16.776   7.064
 3608POPC   C4A47022  37.632  16.779   7.364
 3608POPC   C1B47023  37.544  16.964   6.464
 3608POPC   C2B47024  37.576  16.908   6.764
 3608POPC   C3B47025  37.495  16.897   7.064
 3608POPC   C4B47026  37.500  16.924   7.364
 3609POPC   NC347027  33.797  15.160   5.564
 3609POPC   PO447028  33.819  15.193   5.864
 3609POPC   GL147029  33.788  15.130   6.164
 3609POPC   GL247030  33.646  15.213   6.164
 3609POPC   C1A47031  33.808  15.151   6.464
 3609POPC   D2A47032  33.813  15.219   6.764
 3609POPC   C3A47033  33.758  15.200   7.064
 3609POPC   C4A47034  33.762  15.171   7.364
 3609POPC   C1B47035  33.629  15.303   6.464
 3609POPC   C2B47036  33.571  15.337   6.764
 3609POPC   C3B47037  33.622  15.278   7.064
 3609POPC   C4B47038  33.589  15.282   7.364
 3610POPC   NC347039  44.640  22.939   5.564
 3610POPC   PO447040  44.644  22.902   5.864
 3610POPC   GL147041  44.668  22.934   6.164
 3610POPC   GL247042  44.580  23.037   6.164
 3610POPC   C1A47043  44.613  22.970   6.464
 3610POPC   D2A47044  44.637  22.922   6.764
 3610POPC   C3A47045  44.709  22.906   7.064
 3610POPC   C4A47046  44.615  22.946   7.364
 3610POPC   C1B47047  44.578  23.167   6.464
 3610POPC   C2B47048  44.534  23.205   6.764
 3610POPC   C3B47049  44.616  23.149   7.064
 3610POPC   C4B47050  44.631  23.190   7.364
 3611POPC   NC347051   2.814  36.866   5.564
 3611POPC   PO447052   2.815  36.938   5.864
 3611POPC   GL147053   2.745  36.868   6.164
 3611POPC   GL247054   2.761  36.821   6.164
 3611POPC   C1A47055   2.731  36.929   6.464
 3611POPC   D2A47056   2.716  36.882   6.764
 3611POPC   C3A47057   2.796  36.912   7.064
 3611POPC   C4A47058   2.717  36.928   7.364
 3611POPC   C1B47059   2.819  36.653   6.464
 3611POPC   C2B47060   2.811  36.680   6.764
 3611POPC   C3B47061   2.899  36.670   7.064
 3611POPC   C4B47062   2.896  36.654   7.364
 3612POPC   NC347063   8.975  14.393   5.564
 3612POPC   PO447064   9.003  14.446   5.864
 3612POPC   GL147065   8.971  14.381   6.164
 3612POPC   GL247066   9.068  14.543   6.164
 3612POPC   C1A47067   8.939  14.375   6.464
 3612POPC   D2A47068   8.996  14.424   6.764
 3612POPC   C3A47069   8.996  14.368   7.064
 3612POPC   C4A47070   9.006  14.419   7.364
 3612POPC   C1B47071   9.070  14.638   6.464
 3612POPC   C2B47072   9.069  14.639   6.764
 3612POPC   C3B47073   9.160  14.573   7.064
 3612POPC   C4B47074   9.108  14.634   7.364
 3613POPC   NC347075  28.363   5.060   5.564
 3613POPC   PO447076  28.350   5.114   5.864
 3613POPC   GL147077  28.324   5.074   6.164
 3613POPC   GL247078  28.384   5.233   6.164
 3613POPC   C1A47079  28.337   5.121   6.464
 3613POPC   D2A47080  28.341   5.120   6.764
 3613POPC   C3A47081  28.381   5.143   7.064
 3613POPC   C4A47082  28.418   5.112   7.364
 3613POPC   C1B47083  28.328   5.357   6.464
 3613POPC   C2B47084  28.347   5.370   6.764
 3613POPC   C3B47085  28.295   5.315   7.064
 3613POPC   C4B47086  28.330   5.332   7.364
 3614POPC   NC347087  33.019  38.497   5.564
 3614POPC   PO447088  33.023  38.416   5.864
 3614POPC   GL147089  33.037  38.450   6.164
 3614POPC   GL247090  32.963  38.294   6.164
 3614POPC   C1A47091  32.993  38.504   6.464
 3614POPC   D2A47092  32.977  38.415   6.764
 3614POPC   C3A47093  33.065  38.447   7.064
 3614POPC   C4A47094  32.979  38.469   7.364
 3614POPC   C1B47095  32.964  38.223   6.464
 3614POPC   C2B47096  33.008  38.170   6.764
 3614POPC   C3B47097  32.981  38.250   7.064
 3614POPC   C4B47098  32.993  38.187   7.364
 3615POPC   NC347099  39.266  36.086   5.564
 3615POPC   PO447100  39.266  36.083   5.864
 3615POPC   GL147101  39.259  36.078   6.164
 3615POPC   GL247102  39.170  36.213   6.164
 3615POPC   C1A47103  39.217  36.100   6.464
 3615POPC   D2A47104  39.212  36.148   6.764
 3615POPC   C3A47105  39.221  36.140   7.064
 3615POPC   C4A47106  39.271  36.107   7.364
 3615POPC   C1B47107  39.015  36.228   6.464
 3615POPC   C2B47108  39.035  36.226   6.764
 3615POPC   C3B47109  39.005  36.307   7.064
 3615POPC   C4B47110  38.990  36.316   7.364
 3616POPC   NC347111  39.255  32.270   5.564
 3616POPC   PO447112  39.215  32.281   5.864
 3616POPC   GL147113  39.212  32.252   6.164
 3616POPC   GL247114  39.308  32.356   6.164
 3616POPC   C1A47115  39.207  32.229   6.464
 3616POPC   D2A47116  39.183  32.230   6.764
 3616POPC   C3A47117  39.226  32.278   7.064
 3616POPC   C4A47118  39.231  32.200   7.364
 3616POPC   C1B47119  39.296  32.515   6.464
 3616POPC   C2B47120  39.251  32.509   6.764
 3616POPC   C3B47121  39.340  32.479   7.064
 3616POPC   C4B47122  39.308  32.532   7.364
 3617POPC   NC347123  38.411  41.606   5.564
 3617POPC   PO447124  38.493  41.607   5.864
 3617POPC   GL147125  38.408  41.594   6.164
 3617POPC   GL247126  38.409  41.456   6.164
 3617POPC   C1A47127  38.425  41.577   6.464
 3617POPC   D2A47128  38.427  41.600   6.764
 3617POPC   C3A47129  38.495  41.524   7.064
 3617POPC   C4A47130  38.489  41.534   7.364
 3617POPC   C1B47131  38.339  41.290   6.464
 3617POPC   C2B47132  38.389  41.313   6.764
 3617POPC   C3B47133  38.334  41.362   7.064
 3617POPC   C4B47134  38.356  41.352   7.364
 3618POPC   NC347135   2.034  26.812   5.564
 3618POPC   PO447136   2.002  26.794   5.864
 3618POPC   GL147137   2.026  26.813   6.164
 3618POPC   GL247138   2.077  26.892   6.164
 3618POPC   C1A47139   1.964  26.795   6.464
 3618POPC   D2A47140   1.959  26.818   6.764
 3618POPC   C3A47141   2.011  26.814   7.064
 3618POPC   C4A47142   1.973  26.864   7.364
 3618POPC   C1B47143   2.193  26.929   6.464
 3618POPC   C2B47144   2.161  26.924   6.764
 3618POPC   C3B47145   2.210  26.973   7.064
 3618POPC   C4B47146   2.183  26.964   7.364
 3619POPC   NC347147  18.324   0.399   5.564
 3619POPC   PO447148  18.238   0.462   5.864
 3619POPC   GL147149  18.293   0.487   6.164
 3619POPC   GL247150  18.379   0.372   6.164
 3619POPC   C1A47151  18.303   0.465   6.464
 3619POPC   D2A47152  18.304   0.425   6.764
 3619POPC   C3A47153  18.280   0.445   7.064
 3619POPC   C4A47154  18.249   0.485   7.364
 3619POPC   C1B47155  18.527   0.374   6.464
 3619POPC   C2B47156  18.510   0.380   6.764
 3619POPC   C3B47157  18.517   0.408   7.064
 3619POPC   C4B47158  18.494   0.352   7.364
 3620POPC   NC347159   5.103  36.137   5.564
 3620POPC   PO447160   5.138  36.082   5.864
 3620POPC   GL147161   5.096  36.168   6.164
 3620POPC   GL247162   5.143  36.183   6.164
 3620POPC   C1A47163   5.069  36.144   6.464
 3620POPC   D2A47164   5.105  36.162   6.764
 3620POPC   C3A47165   5.129  36.098   7.064
 3620POPC   C4A47166   5.085  36.155   7.364
 3620POPC   C1B47167   5.271  36.283   6.464
 3620POPC   C2B47168   5.227  36.318   6.764
 3620POPC   C3B47169   5.284  36.328   7.064
 3620POPC   C4B47170   5.260  36.337   7.364
 3621POPC   NC347171  15.995  22.162   5.564
 3621POPC   PO447172  15.964  22.143   5.864
 3621POPC   GL147173  15.962  22.199   6.164
 3621POPC   GL247174  15.863  22.147   6.164
 3621POPC   C1A47175  15.921  22.189   6.464
 3621POPC   D2A47176  15.962  22.188   6.764
 3621POPC   C3A47177  15.949  22.122   7.064
 3621POPC   C4A47178  15.968  22.114   7.364
 3621POPC   C1B47179  15.734  22.128   6.464
 3621POPC   C2B47180  15.698  22.158   6.764
 3621POPC   C3B47181  15.742  22.106   7.064
 3621POPC   C4B47182  15.693  22.132   7.364
 3622POPC   NC347183  34.586   1.944   5.564
 3622POPC   PO447184  34.609   1.977   5.864
 3622POPC   GL147185  34.620   1.944   6.164
 3622POPC   GL247186  34.666   1.915   6.164
 3622POPC   C1A47187  34.556   2.038   6.464
 3622POPC   D2A47188  34.549   2.020   6.764
 3622POPC   C3A47189  34.573   1.957   7.064
 3622POPC   C4A47190  34.549   2.036   7.364
 3622POPC   C1B47191  34.634   1.737   6.464
 3622POPC   C2B47192  34.657   1.734   6.764
 3622POPC   C3B47193  34.673   1.714   7.064
 3622POPC   C4B47194  34.678   1.718   7.364
 3623POPC   NC347195  35.392   7.393   5.564
 3623POPC   PO447196  35.401   7.468   5.864
 3623POPC   GL147197  35.377   7.388   6.164
 3623POPC   GL247198  35.463   7.314   6.164
 3623POPC   C1A47199  35.399   7.386   6.464
 3623POPC   D2A47200  35.347   7.469   6.764
 3623POPC   C3A47201  35.312   7.432   7.064
 3623POPC   C4A47202  35.307   7.455   7.364
 3623POPC   C1B47203  35.492   7.178   6.464
 3623POPC   C2B47204  35.481   7.174   6.764
 3623POPC   C3B47205  35.486   7.161   7.064
 3623POPC   C4B47206  35.437   7.194   7.364
 3624POPC   NC347207  40.771   3.590   5.564
 3624POPC   PO447208  40.754   3.585   5.864
 3624POPC   GL147209  40.779   3.520   6.164
 3624POPC   GL247210  40.708   3.492   6.164
 3624POPC   C1A47211  40.794   3.544   6.464
 3624POPC   D2A47212  40.778   3.591   6.764
 3624POPC   C3A47213  40.743   3.534   7.064
 3624POPC   C4A47214  40.776   3.513   7.364
 3624POPC   C1B47215  40.591   3.369   6.464
 3624POPC   C2B47216  40.545   3.378   6.764
 3624POPC   C3B47217  40.553   3.411   7.064
 3624POPC   C4B47218  40.588   3.391   7.364
 3625POPC   NC347219  32.225  26.038   5.564
 3625POPC   PO447220  32.284  26.089   5.864
 3625POPC   GL147221  32.247  26.057   6.164
 3625POPC   GL247222  32.356  25.963   6.164
 3625POPC   C1A47223  32.236  26.001   6.464
 3625POPC   D2A47224  32.289  26.040   6.764
 3625POPC   C3A47225  32.204  26.027   7.064
 3625POPC   C4A47226  32.253  26.051   7.364
 3625POPC   C1B47227  32.350  25.781   6.464
 3625POPC   C2B47228  32.419  25.785   6.764
 3625POPC   C3B47229  32.367  25.827   7.064
 3625POPC   C4B47230  32.399  25.844   7.364
 3626POPC   NC347231  22.906  36.118   5.564
 3626POPC   PO447232  22.945  36.094   5.864
 3626POPC   GL147233  22.986  36.150   6.164
 3626POPC   GL247234  23.068  36.248   6.164
 3626POPC   C1A47235  22.930  36.093   6.464
 3626POPC   D2A47236  22.926  36.164   6.764
 3626POPC   C3A47237  22.925  36.132   7.064
 3626POPC   C4A47238  22.947  36.116   7.364
 3626POPC   C1B47239  23.127  36.227   6.464
 3626POPC   C2B47240  23.143  36.229   6.764
 3626POPC   C3B47241  23.193  36.299   7.064
 3626POPC   C4B47242  23.141  36.267   7.364
 3627POPC   NC347243  24.468  15.970   5.564
 3627POPC   PO447244  24.511  15.919   5.864
 3627POPC   GL147245  24.494  15.969   6.164
 3627POPC   GL247246  24.339  15.931   6.164
 3627POPC   C1A47247  24.485  15.960   6.464
 3627POPC   D2A47248  24.505  15.994   6.764
 3627POPC   C3A47249  24.447  15.955   7.064
 3627POPC   C4A47250  24.449  15.925   7.364
 3627POPC   C1B47251  24.255  15.896   6.464
 3627POPC   C2B47252  24.255  15.850   6.764
 3627POPC   C3B47253  24.266  15.868   7.064
 3627POPC   C4B47254  24.287  15.896   7.364
 3628POPC   NC347255  34.544  30.679   5.564
 3628POPC   PO447256  34.605  30.717   5.864
 3628POPC   GL147257  34.562  30.653   6.164
 3628POPC   GL247258  34.435  30.747   6.164
 3628POPC   C1A47259  34.552  30.698   6.464
 3628POPC   D2A47260  34.551  30.720   6.764
 3628POPC   C3A47261  34.615  30.738   7.064
 3628POPC   C4A47262  34.552  30.693   7.364
 3628POPC   C1B47263  34.307  30.741   6.464
 3628POPC   C2B47264  34.330  30.729   6.764
 3628POPC   C3B47265  34.298  30.719   7.064
 3628POPC   C4B47266  34.353  30.768   7.364
 3629POPC   NC347267  29.900  36.879   5.564
 3629POPC   PO447268  29.924  36.902   5.864
 3629POPC   GL147269  29.875  36.892   6.164
 3629POPC   GL247270  29.929  36.744   6.164
 3629POPC   C1A47271  29.910  36.894   6.464
 3629POPC   D2A47272  29.889  36.858   6.764
 3629POPC   C3A47273  29.888  36.854   7.064
 3629POPC   C4A47274  29.950  36.855   7.364
 3629POPC   C1B47275  30.010  36.697   6.464
 3629POPC   C2B47276  30.070  36.676   6.764
 3629POPC   C3B47277  29.981  36.691   7.064
 3629POPC   C4B47278  30.059  36.719   7.364
 3630POPC   NC347279   7.441  29.149   5.564
 3630POPC   PO447280   7.418  29.099   5.864
 3630POPC   GL147281   7.414  29.136   6.164
 3630POPC   GL247282   7.453  29.270   6.164
 3630POPC   C1A47283   7.392  29.166   6.464
 3630POPC   D2A47284   7.385  29.184   6.764
 3630POPC   C3A47285   7.413  29.113   7.064
 3630POPC   C4A47286   7.416  29.154   7.364
 3630POPC   C1B47287   7.608  29.313   6.464
 3630POPC   C2B47288   7.573  29.313   6.764
 3630POPC   C3B47289   7.592  29.401   7.064
 3630POPC   C4B47290   7.550  29.330   7.364
 3631POPC   NC347291  35.382   6.610   5.564
 3631POPC   PO447292  35.386   6.660   5.864
 3631POPC   GL147293  35.305   6.657   6.164
 3631POPC   GL247294  35.316   6.764   6.164
 3631POPC   C1A47295  35.308   6.673   6.464
 3631POPC   D2A47296  35.390   6.647   6.764
 3631POPC   C3A47297  35.352   6.613   7.064
 3631POPC   C4A47298  35.371   6.679   7.364
 3631POPC   C1B47299  35.237   6.851   6.464
 3631POPC   C2B47300  35.231   6.825   6.764
 3631POPC   C3B47301  35.249   6.890   7.064
 3631POPC   C4B47302  35.205   6.839   7.364
 3632POPC   NC347303   9.775   7.467   5.564
 3632POPC   PO447304   9.788   7.457   5.864
 3632POPC   GL147305   9.769   7.385   6.164
 3632POPC   GL247306   9.820   7.287   6.164
 3632POPC   C1A47307   9.782   7.452   6.464
 3632POPC   D2A47308   9.732   7.444   6.764
 3632POPC   C3A47309   9.777   7.383   7.064
 3632POPC   C4A47310   9.725   7.425   7.364
 3632POPC   C1B47311   9.815   7.213   6.464
 3632POPC   C2B47312   9.804   7.195   6.764
 3632POPC   C3B47313   9.807   7.221   7.064
 3632POPC   C4B47314   9.799   7.185   7.364
 3633POPC   NC347315  42.379  12.874   5.564
 3633POPC   PO447316  42.296  12.818   5.864
 3633POPC   GL147317  42.310  12.854   6.164
 3633POPC   GL247318  42.312  12.731   6.164
 3633POPC   C1A47319  42.333  12.862   6.464
 3633POPC   D2A47320  42.368  12.873   6.764
 3633POPC   C3A47321  42.367  12.901   7.064
 3633POPC   C4A47322  42.359  12.885   7.364
 3633POPC   C1B47323  42.244  12.600   6.464
 3633POPC   C2B47324  42.273  12.630   6.764
 3633POPC   C3B47325  42.254  12.592   7.064
 3633POPC   C4B47326  42.245  12.670   7.364
 3634POPC   NC347327  26.077   2.746   5.564
 3634POPC   PO447328  26.032   2.791   5.864
 3634POPC   GL147329  26.023   2.745   6.164
 3634POPC   GL247330  25.993   2.873   6.164
 3634POPC   C1A47331  26.081   2.805   6.464
 3634POPC   D2A47332  25.995   2.767   6.764
 3634POPC   C3A47333  26.052   2.751   7.064
 3634POPC   C4A47334  26.064   2.787   7.364
 3634POPC   C1B47335  25.884   2.938   6.464
 3634POPC   C2B47336  25.881   2.939   6.764
 3634POPC   C3B47337  25.890   2.968   7.064
 3634POPC   C4B47338  25.869   2.985   7.364
 3635POPC   NC347339   4.313   8.200   5.564
 3635POPC   PO447340   4.300   8.167   5.864
 3635POPC   GL147341   4.310   8.220   6.164
 3635POPC   GL247342   4.270   8.040   6.164
 3635POPC   C1A47343   4.366   8.178   6.464
 3635POPC   D2A47344   4.302   8.212   6.764
 3635POPC   C3A47345   4.299   8.218   7.064
 3635POPC   C4A47346   4.345   8.238   7.364
 3635POPC   C1B47347   4.288   7.909   6.464
 3635POPC   C2B47348   4.270   7.930   6.764
 3635POPC   C3B47349   4.302   7.901   7.064
 3635POPC   C4B47350   4.324   7.916   7.364
 3636POPC   NC347351  30.713  31.497   5.564
 3636POPC   PO447352  30.725  31.508   5.864
 3636POPC   GL147353  30.744  31.495   6.164
 3636POPC   GL247354  30.778  31.472   6.164
 3636POPC   C1A47355  30.707  31.515   6.464
 3636POPC   D2A47356  30.662  31.426   6.764
 3636POPC   C3A47357  30.672  31.504   7.064
 3636POPC   C4A47358  30.718  31.430   7.364
 3636POPC   C1B47359  30.943  31.529   6.464
 3636POPC   C2B47360  30.901  31.470   6.764
 3636POPC   C3B47361  30.983  31.529   7.064
 3636POPC   C4B47362  30.947  31.538   7.364
 3637POPC   NC347363  43.837   4.326   5.564
 3637POPC   PO447364  43.857   4.318   5.864
 3637POPC   GL147365  43.861   4.294   6.164
 3637POPC   GL247366  43.789   4.315   6.164
 3637POPC   C1A47367  43.880   4.307   6.464
 3637POPC   D2A47368  43.926   4.285   6.764
 3637POPC   C3A47369  43.934   4.296   7.064
 3637POPC   C4A47370  43.877   4.345   7.364
 3637POPC   C1B47371  43.700   4.255   6.464
 3637POPC   C2B47372  43.633   4.202   6.764
 3637POPC   C3B47373  43.657   4.216   7.064
 3637POPC   C4B47374  43.696   4.231   7.364
 3638POPC   NC347375   8.171  43.844   5.564
 3638POPC   PO447376   8.197  43.920   5.864
 3638POPC   GL147377   8.147  43.929   6.164
 3638POPC   GL247378   8.153  43.784   6.164
 3638POPC   C1A47379   8.228  43.853   6.464
 3638POPC   D2A47380   8.183  43.904   6.764
 3638POPC   C3A47381   8.192  43.837   7.064
 3638POPC   C4A47382   8.180  43.865   7.364
 3638POPC   C1B47383   8.054  43.660   6.464
 3638POPC   C2B47384   8.080  43.726   6.764
 3638POPC   C3B47385   8.096  43.718   7.064
 3638POPC   C4B47386   8.010  43.661   7.364
 3639POPC   NC347387   8.238  22.967   5.564
 3639POPC   PO447388   8.217  22.905   5.864
 3639POPC   GL147389   8.185  22.905   6.164
 3639POPC   GL247390   8.092  22.879   6.164
 3639POPC   C1A47391   8.206  22.957   6.464
 3639POPC   D2A47392   8.191  22.968   6.764
 3639POPC   C3A47393   8.201  22.916   7.064
 3639POPC   C4A47394   8.201  22.973   7.364
 3639POPC   C1B47395   8.026  22.780   6.464
 3639POPC   C2B47396   8.040  22.768   6.764
 3639POPC   C3B47397   7.995  22.747   7.064
 3639POPC   C4B47398   7.991  22.759   7.364
 3640POPC   NC347399  33.812  21.429   5.564
 3640POPC   PO447400  33.750  21.351   5.864
 3640POPC   GL147401  33.752  21.405   6.164
 3640POPC   GL247402  33.676  21.258   6.164
 3640POPC   C1A47403  33.785  21.432   6.464
 3640POPC   D2A47404  33.782  21.421   6.764
 3640POPC   C3A47405  33.804  21.378   7.064
 3640POPC   C4A47406  33.788  21.436   7.364
 3640POPC   C1B47407  33.596  21.189   6.464
 3640POPC   C2B47408  33.619  21.276   6.764
 3640POPC   C3B47409  33.567  21.186   7.064
 3640POPC   C4B47410  33.655  21.272   7.364
 3641POPC   NC347411   2.810  29.165   5.564
 3641POPC   PO447412   2.759  29.131   5.864
 3641POPC   GL147413   2.737  29.146   6.164
 3641POPC   GL247414   2.682  29.200   6.164
 3641POPC   C1A47415   2.802  29.131   6.464
 3641POPC   D2A47416   2.812  29.138   6.764
 3641POPC   C3A47417   2.797  29.183   7.064
 3641POPC   C4A47418   2.733  29.173   7.364
 3641POPC   C1B47419   2.557  29.201   6.464
 3641POPC   C2B47420   2.549  29.275   6.764
 3641POPC   C3B47421   2.504  29.265   7.064
 3641POPC   C4B47422   2.526  29.212   7.364
 3642POPC   NC347423  11.300   3.549   5.564
 3642POPC   PO447424  11.286   3.590   5.864
 3642POPC   GL147425  11.323   3.507   6.164
 3642POPC   GL247426  11.216   3.637   6.164
 3642POPC   C1A47427  11.350   3.531   6.464
 3642POPC   D2A47428  11.297   3.528   6.764
 3642POPC   C3A47429  11.285   3.528   7.064
 3642POPC   C4A47430  11.337   3.514   7.364
 3642POPC   C1B47431  11.240   3.756   6.464
 3642POPC   C2B47432  11.248   3.809   6.764
 3642POPC   C3B47433  11.227   3.821   7.064
 3642POPC   C4B47434  11.233   3.797   7.364
 3643POPC   NC347435  10.555  11.339   5.564
 3643POPC   PO447436  10.484  11.262   5.864
 3643POPC   GL147437  10.475  11.256   6.164
 3643POPC   GL247438  10.587  11.265   6.164
 3643POPC   C1A47439  10.560  11.296   6.464
 3643POPC   D2A47440  10.561  11.288   6.764
 3643POPC   C3A47441  10.478  11.284   7.064
 3643POPC   C4A47442  10.491  11.265   7.364
 3643POPC   C1B47443  10.682  11.151   6.464
 3643POPC   C2B47444  10.681  11.122   6.764
 3643POPC   C3B47445  10.711  11.143   7.064
 3643POPC   C4B47446  10.707  11.145   7.364
 3644POPC   NC347447  29.122   5.904   5.564
 3644POPC   PO447448  29.169   5.905   5.864
 3644POPC   GL147449  29.110   5.913   6.164
 3644POPC   GL247450  29.012   5.964   6.164
 3644POPC   C1A47451  29.096   5.900   6.464
 3644POPC   D2A47452  29.136   5.833   6.764
 3644POPC   C3A47453  29.192   5.839   7.064
 3644POPC   C4A47454  29.097   5.892   7.364
 3644POPC   C1B47455  28.971   6.026   6.464
 3644POPC   C2B47456  28.975   6.018   6.764
 3644POPC   C3B47457  28.964   5.957   7.064
 3644POPC   C4B47458  28.958   6.023   7.364
 3645POPC   NC347459  44.656  41.599   5.564
 3645POPC   PO447460  44.668  41.582   5.864
 3645POPC   GL147461  44.704  41.555   6.164
 3645POPC   GL247462  44.673  41.473   6.164
 3645POPC   C1A47463  44.680  41.534   6.464
 3645POPC   D2A47464  44.711  41.562   6.764
 3645POPC   C3A47465  44.683  41.536   7.064
 3645POPC   C4A47466  44.712  41.536   7.364
 3645POPC   C1B47467  44.786  41.299   6.464
 3645POPC   C2B47468  44.726  41.346   6.764
 3645POPC   C3B47469  44.739  41.319   7.064
 3645POPC   C4B47470  44.777  41.299   7.364
 3646POPC   NC347471  17.550  37.699   5.564
 3646POPC   PO447472  17.488  37.645   5.864
 3646POPC   GL147473  17.459  37.681   6.164
 3646POPC   GL247474  17.506  37.520   6.164
 3646POPC   C1A47475  17.464  37.728   6.464
 3646POPC   D2A47476  17.460  37.724   6.764
 3646POPC   C3A47477  17.514  37.662   7.064
 3646POPC   C4A47478  17.536  37.721   7.364
 3646POPC   C1B47479  17.586  37.430   6.464
 3646POPC   C2B47480  17.561  37.406   6.764
 3646POPC   C3B47481  17.579  37.440   7.064
 3646POPC   C4B47482  17.581  37.431   7.364
 3647POPC   NC347483  36.144   1.968   5.564
 3647POPC   PO447484  36.110   1.945   5.864
 3647POPC   GL147485  36.175   1.973   6.164
 3647POPC   GL247486  36.032   1.950   6.164
 3647POPC   C1A47487  36.083   2.010   6.464
 3647POPC   D2A47488  36.138   2.031   6.764
 3647POPC   C3A47489  36.166   1.940   7.064
 3647POPC   C4A47490  36.175   1.987   7.364
 3647POPC   C1B47491  35.908   1.858   6.464
 3647POPC   C2B47492  35.886   1.898   6.764
 3647POPC   C3B47493  35.939   1.891   7.064
 3647POPC   C4B47494  35.883   1.895   7.364
 3648POPC   NC347495   9.796  20.641   5.564
 3648POPC   PO447496   9.732  20.572   5.864
 3648POPC   GL147497   9.792  20.629   6.164
 3648POPC   GL247498   9.815  20.489   6.164
 3648POPC   C1A47499   9.750  20.642   6.464
 3648POPC   D2A47500   9.782  20.602   6.764
 3648POPC   C3A47501   9.788  20.623   7.064
 3648POPC   C4A47502   9.766  20.633   7.364
 3648POPC   C1B47503   9.763  20.390   6.464
 3648POPC   C2B47504   9.800  20.366   6.764
 3648POPC   C3B47505   9.844  20.350   7.064
 3648POPC   C4B47506   9.761  20.321   7.364
 3649POPC   NC347507  26.024   0.431   5.564
 3649POPC   PO447508  26.054   0.420   5.864
 3649POPC   GL147509  26.067   0.458   6.164
 3649POPC   GL247510  25.938   0.500   6.164
 3649POPC   C1A47511  26.042   0.433   6.464
 3649POPC   D2A47512  26.000   0.411   6.764
 3649POPC   C3A47513  26.035   0.411   7.064
 3649POPC   C4A47514  26.075   0.472   7.364
 3649POPC   C1B47515  25.832   0.447   6.464
 3649POPC   C2B47516  25.765   0.447   6.764
 3649POPC   C3B47517  25.821   0.441   7.064
 3649POPC   C4B47518  25.763   0.449   7.364
 3650POPC   NC347519   8.977   4.367   5.564
 3650POPC   PO447520   8.975   4.329   5.864
 3650POPC   GL147521   8.927   4.359   6.164
 3650POPC   GL247522   8.893   4.351   6.164
 3650POPC   C1A47523   8.933   4.296   6.464
 3650POPC   D2A47524   8.959   4.298   6.764
 3650POPC   C3A47525   9.001   4.313   7.064
 3650POPC   C4A47526   8.999   4.344   7.364
 3650POPC   C1B47527   8.740   4.428   6.464
 3650POPC   C2B47528   8.754   4.514   6.764
 3650POPC   C3B47529   8.733   4.450   7.064
 3650POPC   C4B47530   8.749   4.508   7.364
 3651POPC   NC347531   5.875  22.901   5.564
 3651POPC   PO447532   5.846  22.894   5.864
 3651POPC   GL147533   5.867  22.974   6.164
 3651POPC   GL247534   5.878  22.863   6.164
 3651POPC   C1A47535   5.893  22.934   6.464
 3651POPC   D2A47536   5.903  22.973   6.764
 3651POPC   C3A47537   5.862  22.959   7.064
 3651POPC   C4A47538   5.875  22.896   7.364
 3651POPC   C1B47539   5.868  22.677   6.464
 3651POPC   C2B47540   5.906  22.656   6.764
 3651POPC   C3B47541   5.897  22.710   7.064
 3651POPC   C4B47542   5.887  22.640   7.364
 3652POPC   NC347543  29.156  43.068   5.564
 3652POPC   PO447544  29.100  43.111   5.864
 3652POPC   GL147545  29.152  43.135   6.164
 3652POPC   GL247546  29.152  43.243   6.164
 3652POPC   C1A47547  29.151  43.064   6.464
 3652POPC   D2A47548  29.135  43.137   6.764
 3652POPC   C3A47549  29.186  43.119   7.064
 3652POPC   C4A47550  29.153  43.150   7.364
 3652POPC   C1B47551  29.106  43.377   6.464
 3652POPC   C2B47552  29.096  43.374   6.764
 3652POPC   C3B47553  29.089  43.378   7.064
 3652POPC   C4B47554  29.170  43.392   7.364
 3653POPC   NC347555  33.791   1.257   5.564
 3653POPC   PO447556  33.788   1.260   5.864
 3653POPC   GL147557  33.773   1.262   6.164
 3653POPC   GL247558  33.789   1.081   6.164
 3653POPC   C1A47559  33.809   1.189   6.464
 3653POPC   D2A47560  33.825   1.231   6.764
 3653POPC   C3A47561  33.825   1.184   7.064
 3653POPC   C4A47562  33.796   1.262   7.364
 3653POPC   C1B47563  33.825   0.918   6.464
 3653POPC   C2B47564  33.809   1.013   6.764
 3653POPC   C3B47565  33.792   1.004   7.064
 3653POPC   C4B47566  33.838   0.938   7.364
 3654POPC   NC347567  29.919   5.918   5.564
 3654POPC   PO447568  29.967   5.892   5.864
 3654POPC   GL147569  29.916   5.906   6.164
 3654POPC   GL247570  30.060   5.811   6.164
 3654POPC   C1A47571  29.913   5.889   6.464
 3654POPC   D2A47572  29.874   5.859   6.764
 3654POPC   C3A47573  29.876   5.859   7.064
 3654POPC   C4A47574  29.971   5.875   7.364
 3654POPC   C1B47575  30.183   5.798   6.464
 3654POPC   C2B47576  30.197   5.782   6.764
 3654POPC   C3B47577  30.164   5.753   7.064
 3654POPC   C4B47578  30.184   5.812   7.364
 3655POPC   NC347579  36.879  19.880   5.564
 3655POPC   PO447580  36.927  19.834   5.864
 3655POPC   GL147581  36.863  19.799   6.164
 3655POPC   GL247582  36.945  19.904   6.164
 3655POPC   C1A47583  36.925  19.843   6.464
 3655POPC   D2A47584  36.891  19.835   6.764
 3655POPC   C3A47585  36.948  19.864   7.064
 3655POPC   C4A47586  36.923  19.865   7.364
 3655POPC   C1B47587  36.992  20.072   6.464
 3655POPC   C2B47588  36.980  20.077   6.764
 3655POPC   C3B47589  37.007  20.105   7.064
 3655POPC   C4B47590  37.033  20.090   7.364
 3656POPC   NC347591   0.422   5.894   5.564
 3656POPC   PO447592   0.470   5.893   5.864
 3656POPC   GL147593   0.417   5.904   6.164
 3656POPC   GL247594   0.528   5.737   6.164
 3656POPC   C1A47595   0.450   5.840   6.464
 3656POPC   D2A47596   0.442   5.864   6.764
 3656POPC   C3A47597   0.407   5.854   7.064
 3656POPC   C4A47598   0.432   5.838   7.364
 3656POPC   C1B47599   0.581   5.590   6.464
 3656POPC   C2B47600   0.505   5.663   6.764
 3656POPC   C3B47601   0.564   5.614   7.064
 3656POPC   C4B47602   0.574   5.673   7.364
 3657POPC   NC347603  16.749  19.030   5.564
 3657POPC   PO447604  16.769  19.068   5.864
 3657POPC   GL147605  16.709  19.095   6.164
 3657POPC   GL247606  16.827  19.186   6.164
 3657POPC   C1A47607  16.768  19.094   6.464
 3657POPC   D2A47608  16.736  19.050   6.764
 3657POPC   C3A47609  16.703  19.107   7.064
 3657POPC   C4A47610  16.716  19.043   7.364
 3657POPC   C1B47611  16.890  19.228   6.464
 3657POPC   C2B47612  16.861  19.273   6.764
 3657POPC   C3B47613  16.881  19.224   7.064
 3657POPC   C4B47614  16.926  19.207   7.364
 3658POPC   NC347615  23.740  16.735   5.564
 3658POPC   PO447616  23.684  16.758   5.864
 3658POPC   GL147617  23.685  16.703   6.164
 3658POPC   GL247618  23.659  16.599   6.164
 3658POPC   C1A47619  23.683  16.728   6.464
 3658POPC   D2A47620  23.741  16.738   6.764
 3658POPC   C3A47621  23.667  16.692   7.064
 3658POPC   C4A47622  23.759  16.734   7.364
 3658POPC   C1B47623  23.562  16.458   6.464
 3658POPC   C2B47624  23.575  16.479   6.764
 3658POPC   C3B47625  23.607  16.520   7.064
 3658POPC   C4B47626  23.571  16.512   7.364
 3659POPC   NC347627   5.839  40.039   5.564
 3659POPC   PO447628   5.917  40.053   5.864
 3659POPC   GL147629   5.850  39.990   6.164
 3659POPC   GL247630   5.778  40.041   6.164
 3659POPC   C1A47631   5.871  40.006   6.464
 3659POPC   D2A47632   5.870  40.011   6.764
 3659POPC   C3A47633   5.841  40.036   7.064
 3659POPC   C4A47634   5.852  39.977   7.364
 3659POPC   C1B47635   5.616  40.071   6.464
 3659POPC   C2B47636   5.683  40.099   6.764
 3659POPC   C3B47637   5.680  40.119   7.064
 3659POPC   C4B47638   5.663  40.139   7.364
 3660POPC   NC347639  38.439  33.003   5.564
 3660POPC   PO447640  38.463  33.009   5.864
 3660POPC   GL147641  38.491  33.024   6.164
 3660POPC   GL247642  38.395  32.885   6.164
 3660POPC   C1A47643  38.505  32.991   6.464
 3660POPC   D2A47644  38.479  33.057   6.764
 3660POPC   C3A47645  38.409  32.984   7.064
 3660POPC   C4A47646  38.500  33.003   7.364
 3660POPC   C1B47647  38.383  32.759   6.464
 3660POPC   C2B47648  38.334  32.826   6.764
 3660POPC   C3B47649  38.365  32.763   7.064
 3660POPC   C4B47650  38.387  32.804   7.364
 3661POPC   NC347651  25.285   1.243   5.564
 3661POPC   PO447652  25.281   1.203   5.864
 3661POPC   GL147653  25.274   1.220   6.164
 3661POPC   GL247654  25.358   1.276   6.164
 3661POPC   C1A47655  25.301   1.240   6.464
 3661POPC   D2A47656  25.244   1.180   6.764
 3661POPC   C3A47657  25.222   1.214   7.064
 3661POPC   C4A47658  25.270   1.178   7.364
 3661POPC   C1B47659  25.379   1.419   6.464
 3661POPC   C2B47660  25.425   1.404   6.764
 3661POPC   C3B47661  25.359   1.474   7.064
 3661POPC   C4B47662  25.419   1.445   7.364
 3662POPC   NC347663  42.335  20.609   5.564
 3662POPC   PO447664  42.348  20.622   5.864
 3662POPC   GL147665  42.289  20.604   6.164
 3662POPC   GL247666  42.300  20.772   6.164
 3662POPC   C1A47667  42.308  20.586   6.464
 3662POPC   D2A47668  42.354  20.646   6.764
 3662POPC   C3A47669  42.286  20.624   7.064
 3662POPC   C4A47670  42.302  20.582   7.364
 3662POPC   C1B47671  42.318  20.894   6.464
 3662POPC   C2B47672  42.269  20.806   6.764
 3662POPC   C3B47673  42.318  20.842   7.064
 3662POPC   C4B47674  42.235  20.836   7.364
 3663POPC   NC347675  34.563  15.979   5.564
 3663POPC   PO447676  34.553  15.986   5.864
 3663POPC   GL147677  34.553  15.910   6.164
 3663POPC   GL247678  34.720  16.023   6.164
 3663POPC   C1A47679  34.593  15.923   6.464
 3663POPC   D2A47680  34.529  15.963   6.764
 3663POPC   C3A47681  34.598  15.985   7.064
 3663POPC   C4A47682  34.535  15.922   7.364
 3663POPC   C1B47683  34.791  16.062   6.464
 3663POPC   C2B47684  34.735  16.132   6.764
 3663POPC   C3B47685  34.787  16.119   7.064
 3663POPC   C4B47686  34.760  16.095   7.364
 3664POPC   NC347687  36.921  43.110   5.564
 3664POPC   PO447688  36.886  43.143   5.864
 3664POPC   GL147689  36.952  43.070   6.164
 3664POPC   GL247690  36.829  42.949   6.164
 3664POPC   C1A47691  36.925  43.100   6.464
 3664POPC   D2A47692  36.901  43.128   6.764
 3664POPC   C3A47693  36.869  43.079   7.064
 3664POPC   C4A47694  36.891  43.082   7.364
 3664POPC   C1B47695  36.880  42.895   6.464
 3664POPC   C2B47696  36.849  42.875   6.764
 3664POPC   C3B47697  36.804  42.878   7.064
 3664POPC   C4B47698  36.824  42.914   7.364
 3665POPC   NC347699  43.907  11.292   5.564
 3665POPC   PO447700  43.860  11.331   5.864
 3665POPC   GL147701  43.853  11.293   6.164
 3665POPC   GL247702  43.816  11.189   6.164
 3665POPC   C1A47703  43.905  11.343   6.464
 3665POPC   D2A47704  43.894  11.252   6.764
 3665POPC   C3A47705  43.845  11.342   7.064
 3665POPC   C4A47706  43.923  11.307   7.364
 3665POPC   C1B47707  43.728  11.128   6.464
 3665POPC   C2B47708  43.723  11.118   6.764
 3665POPC   C3B47709  43.740  11.088   7.064
 3665POPC   C4B47710  43.782  11.129   7.364
 3666POPC   NC347711  40.780   5.082   5.564
 3666POPC   PO447712  40.785   5.115   5.864
 3666POPC   GL147713  40.748   5.072   6.164
 3666POPC   GL247714  40.728   5.001   6.164
 3666POPC   C1A47715  40.745   5.049   6.464
 3666POPC   D2A47716  40.792   5.059   6.764
 3666POPC   C3A47717  40.808   5.058   7.064
 3666POPC   C4A47718  40.764   5.080   7.364
 3666POPC   C1B47719  40.638   4.899   6.464
 3666POPC   C2B47720  40.677   4.891   6.764
 3666POPC   C3B47721  40.674   4.932   7.064
 3666POPC   C4B47722  40.677   4.936   7.364
 3667POPC   NC347723  33.783  26.819   5.564
 3667POPC   PO447724  33.831  26.856   5.864
 3667POPC   GL147725  33.809  26.858   6.164
 3667POPC   GL247726  33.840  26.677   6.164
 3667POPC   C1A47727  33.848  26.866   6.464
 3667POPC   D2A47728  33.844  26.843   6.764
 3667POPC   C3A47729  33.843  26.829   7.064
 3667POPC   C4A47730  33.838  26.772   7.364
 3667POPC   C1B47731  33.771  26.607   6.464
 3667POPC   C2B47732  33.834  26.569   6.764
 3667POPC   C3B47733  33.829  26.561   7.064
 3667POPC   C4B47734  33.781  26.576   7.364
 3668POPC   NC347735   5.129   8.185   5.564
 3668POPC   PO447736   5.126   8.192   5.864
 3668POPC   GL147737   5.062   8.154   6.164
 3668POPC   GL247738   5.171   8.226   6.164
 3668POPC   C1A47739   5.097   8.167   6.464
 3668POPC   D2A47740   5.097   8.175   6.764
 3668POPC   C3A47741   5.067   8.209   7.064
 3668POPC   C4A47742   5.044   8.171   7.364
 3668POPC   C1B47743   5.346   8.243   6.464
 3668POPC   C2B47744   5.338   8.252   6.764
 3668POPC   C3B47745   5.367   8.252   7.064
 3668POPC   C4B47746   5.385   8.181   7.364
 3669POPC   NC347747  23.676  12.802   5.564
 3669POPC   PO447748  23.726  12.864   5.864
 3669POPC   GL147749  23.702  12.884   6.164
 3669POPC   GL247750  23.717  12.741   6.164
 3669POPC   C1A47751  23.698  12.806   6.464
 3669POPC   D2A47752  23.744  12.837   6.764
 3669POPC   C3A47753  23.714  12.812   7.064
 3669POPC   C4A47754  23.669  12.870   7.364
 3669POPC   C1B47755  23.857  12.670   6.464
 3669POPC   C2B47756  23.838  12.597   6.764
 3669POPC   C3B47757  23.843  12.588   7.064
 3669POPC   C4B47758  23.834  12.583   7.364
 3670POPC   NC347759  15.936  17.458   5.564
 3670POPC   PO447760  15.976  17.464   5.864
 3670POPC   GL147761  15.973  17.501   6.164
 3670POPC   GL247762  15.826  17.514   6.164
 3670POPC   C1A47763  15.998  17.527   6.464
 3670POPC   D2A47764  15.970  17.527   6.764
 3670POPC   C3A47765  15.921  17.555   7.064
 3670POPC   C4A47766  15.923  17.494   7.364
 3670POPC   C1B47767  15.736  17.527   6.464
 3670POPC   C2B47768  15.697  17.553   6.764
 3670POPC   C3B47769  15.753  17.549   7.064
 3670POPC   C4B47770  15.674  17.489   7.364
 3671POPC   NC347771  27.583  11.303   5.564
 3671POPC   PO447772  27.640  11.305   5.864
 3671POPC   GL147773  27.639  11.330   6.164
 3671POPC   GL247774  27.451  11.288   6.164
 3671POPC   C1A47775  27.638  11.336   6.464
 3671POPC   D2A47776  27.615  11.338   6.764
 3671POPC   C3A47777  27.593  11.346   7.064
 3671POPC   C4A47778  27.548  11.260   7.364
 3671POPC   C1B47779  27.379  11.344   6.464
 3671POPC   C2B47780  27.323  11.358   6.764
 3671POPC   C3B47781  27.317  11.364   7.064
 3671POPC   C4B47782  27.319  11.295   7.364
 3672POPC   NC347783  22.187  29.145   5.564
 3672POPC   PO447784  22.159  29.095   5.864
 3672POPC   GL147785  22.137  29.145   6.164
 3672POPC   GL247786  22.324  29.110   6.164
 3672POPC   C1A47787  22.136  29.180   6.464
 3672POPC   D2A47788  22.210  29.159   6.764
 3672POPC   C3A47789  22.148  29.095   7.064
 3672POPC   C4A47790  22.125  29.103   7.364
 3672POPC   C1B47791  22.402  29.003   6.464
 3672POPC   C2B47792  22.428  29.028   6.764
 3672POPC   C3B47793  22.411  29.076   7.064
 3672POPC   C4B47794  22.361  29.038   7.364
 3673POPC   NC347795  40.809  15.139   5.564
 3673POPC   PO447796  40.763  15.187   5.864
 3673POPC   GL147797  40.827  15.152   6.164
 3673POPC   GL247798  40.751  15.264   6.164
 3673POPC   C1A47799  40.766  15.209   6.464
 3673POPC   D2A47800  40.788  15.222   6.764
 3673POPC   C3A47801  40.797  15.150   7.064
 3673POPC   C4A47802  40.771  15.133   7.364
 3673POPC   C1B47803  40.694  15.444   6.464
 3673POPC   C2B47804  40.680  15.411   6.764
 3673POPC   C3B47805  40.682  15.374   7.064
 3673POPC   C4B47806  40.667  15.427   7.364
 3674POPC   NC347807  19.847  20.610   5.564
 3674POPC   PO447808  19.872  20.583   5.864
 3674POPC   GL147809  19.846  20.601   6.164
 3674POPC   GL247810  19.743  20.660   6.164
 3674POPC   C1A47811  19.844  20.627   6.464
 3674POPC   D2A47812  19.794  20.568   6.764
 3674POPC   C3A47813  19.828  20.570   7.064
 3674POPC   C4A47814  19.790  20.564   7.364
 3674POPC   C1B47815  19.660  20.719   6.464
 3674POPC   C2B47816  19.578  20.748   6.764
 3674POPC   C3B47817  19.626  20.733   7.064
 3674POPC   C4B47818  19.642  20.700   7.364
 3675POPC   NC347819   1.961  12.865   5.564
 3675POPC   PO447820   1.956  12.803   5.864
 3675POPC   GL147821   2.033  12.891   6.164
 3675POPC   GL247822   1.984  12.990   6.164
 3675POPC   C1A47823   1.975  12.803   6.464
 3675POPC   D2A47824   2.004  12.840   6.764
 3675POPC   C3A47825   1.971  12.863   7.064
 3675POPC   C4A47826   2.036  12.848   7.364
 3675POPC   C1B47827   2.061  13.064   6.464
 3675POPC   C2B47828   2.039  13.097   6.764
 3675POPC   C3B47829   2.011  13.074   7.064
 3675POPC   C4B47830   1.977  13.122   7.364
 3676POPC   NC347831  31.469  28.357   5.564
 3676POPC   PO447832  31.438  28.358   5.864
 3676POPC   GL147833  31.463  28.350   6.164
 3676POPC   GL247834  31.346  28.417   6.164
 3676POPC   C1A47835  31.458  28.413   6.464
 3676POPC   D2A47836  31.468  28.335   6.764
 3676POPC   C3A47837  31.473  28.344   7.064
 3676POPC   C4A47838  31.488  28.379   7.364
 3676POPC   C1B47839  31.272  28.386   6.464
 3676POPC   C2B47840  31.236  28.372   6.764
 3676POPC   C3B47841  31.180  28.430   7.064
 3676POPC   C4B47842  31.225  28.428   7.364
 3677POPC   NC347843   4.351  36.136   5.564
 3677POPC   PO447844   4.316  36.111   5.864
 3677POPC   GL147845   4.287  36.085   6.164
 3677POPC   GL247846   4.398  36.072   6.164
 3677POPC   C1A47847   4.300  36.104   6.464
 3677POPC   D2A47848   4.367  36.113   6.764
 3677POPC   C3A47849   4.306  36.149   7.064
 3677POPC   C4A47850   4.320  36.104   7.364
 3677POPC   C1B47851   4.554  36.050   6.464
 3677POPC   C2B47852   4.582  36.059   6.764
 3677POPC   C3B47853   4.605  36.071   7.064
 3677POPC   C4B47854   4.571  36.080   7.364
 3678POPC   NC347855  14.413  17.509   5.564
 3678POPC   PO447856  14.355  17.499   5.864
 3678POPC   GL147857  14.443  17.521   6.164
 3678POPC   GL247858  14.568  17.458   6.164
 3678POPC   C1A47859  14.367  17.458   6.464
 3678POPC   D2A47860  14.405  17.458   6.764
 3678POPC   C3A47861  14.381  17.527   7.064
 3678POPC   C4A47862  14.393  17.490   7.364
 3678POPC   C1B47863  14.662  17.410   6.464
 3678POPC   C2B47864  14.689  17.452   6.764
 3678POPC   C3B47865  14.665  17.410   7.064
 3678POPC   C4B47866  14.626  17.429   7.364
 3679POPC   NC347867  15.991  36.161   5.564
 3679POPC   PO447868  15.908  36.150   5.864
 3679POPC   GL147869  15.921  36.111   6.164
 3679POPC   GL247870  15.895  36.233   6.164
 3679POPC   C1A47871  15.916  36.110   6.464
 3679POPC   D2A47872  15.994  36.102   6.764
 3679POPC   C3A47873  15.918  36.112   7.064
 3679POPC   C4A47874  15.988  36.120   7.364
 3679POPC   C1B47875  15.836  36.314   6.464
 3679POPC   C2B47876  15.837  36.312   6.764
 3679POPC   C3B47877  15.765  36.293   7.064
 3679POPC   C4B47878  15.798  36.375   7.364
 3680POPC   NC347879  30.743  28.390   5.564
 3680POPC   PO447880  30.650  28.355   5.864
 3680POPC   GL147881  30.727  28.350   6.164
 3680POPC   GL247882  30.831  28.397   6.164
 3680POPC   C1A47883  30.716  28.335   6.464
 3680POPC   D2A47884  30.727  28.366   6.764
 3680POPC   C3A47885  30.694  28.402   7.064
 3680POPC   C4A47886  30.687  28.410   7.364
 3680POPC   C1B47887  30.924  28.302   6.464
 3680POPC   C2B47888  30.965  28.345   6.764
 3680POPC   C3B47889  30.897  28.304   7.064
 3680POPC   C4B47890  30.990  28.291   7.364
 3681POPC   NC347891  37.677   7.445   5.564
 3681POPC   PO447892  37.671   7.420   5.864
 3681POPC   GL147893  37.645   7.427   6.164
 3681POPC   GL247894  37.793   7.554   6.164
 3681POPC   C1A47895  37.665   7.427   6.464
 3681POPC   D2A47896  37.672   7.379   6.764
 3681POPC   C3A47897  37.708   7.463   7.064
 3681POPC   C4A47898  37.639   7.416   7.364
 3681POPC   C1B47899  37.830   7.556   6.464
 3681POPC   C2B47900  37.891   7.575   6.764
 3681POPC   C3B47901  37.891   7.582   7.064
 3681POPC   C4B47902  37.839   7.629   7.364
 3682POPC   NC347903  11.335  37.712   5.564
 3682POPC   PO447904  11.319  37.699   5.864
 3682POPC   GL147905  11.309  37.654   6.164
 3682POPC   GL247906  11.373  37.673   6.164
 3682POPC   C1A47907  11.286  37.718   6.464
 3682POPC   D2A47908  11.342  37.710   6.764
 3682POPC   C3A47909  11.302  37.722   7.064
 3682POPC   C4A47910  11.262  37.630   7.364
 3682POPC   C1B47911  11.555  37.786   6.464
 3682POPC   C2B47912  11.567  37.690   6.764
 3682POPC   C3B47913  11.543  37.776   7.064
 3682POPC   C4B47914  11.558  37.694   7.364
 3683POPC   NC347915  39.221  37.728   5.564
 3683POPC   PO447916  39.184  37.723   5.864
 3683POPC   GL147917  39.256  37.697   6.164
 3683POPC   GL247918  39.372  37.596   6.164
 3683POPC   C1A47919  39.189  37.704   6.464
 3683POPC   D2A47920  39.247  37.640   6.764
 3683POPC   C3A47921  39.232  37.649   7.064
 3683POPC   C4A47922  39.186  37.659   7.364
 3683POPC   C1B47923  39.518  37.609   6.464
 3683POPC   C2B47924  39.480  37.568   6.764
 3683POPC   C3B47925  39.482  37.636   7.064
 3683POPC   C4B47926  39.507  37.635   7.364
 3684POPC   NC347927  31.512  36.155   5.564
 3684POPC   PO447928  31.480  36.093   5.864
 3684POPC   GL147929  31.496  36.131   6.164
 3684POPC   GL247930  31.368  36.069   6.164
 3684POPC   C1A47931  31.425  36.083   6.464
 3684POPC   D2A47932  31.451  36.078   6.764
 3684POPC   C3A47933  31.455  36.120   7.064
 3684POPC   C4A47934  31.476  36.098   7.364
 3684POPC   C1B47935  31.291  35.948   6.464
 3684POPC   C2B47936  31.258  35.935   6.764
 3684POPC   C3B47937  31.257  35.990   7.064
 3684POPC   C4B47938  31.303  35.963   7.364
 3685POPC   NC347939   4.283  19.802   5.564
 3685POPC   PO447940   4.326  19.802   5.864
 3685POPC   GL147941   4.311  19.875   6.164
 3685POPC   GL247942   4.451  19.909   6.164
 3685POPC   C1A47943   4.359  19.868   6.464
 3685POPC   D2A47944   4.276  19.810   6.764
 3685POPC   C3A47945   4.289  19.807   7.064
 3685POPC   C4A47946   4.360  19.821   7.364
 3685POPC   C1B47947   4.512  19.939   6.464
 3685POPC   C2B47948   4.526  19.902   6.764
 3685POPC   C3B47949   4.527  19.905   7.064
 3685POPC   C4B47950   4.607  19.883   7.364
 3686POPC   NC347951   2.807  43.099   5.564
 3686POPC   PO447952   2.785  43.153   5.864
 3686POPC   GL147953   2.727  43.090   6.164
 3686POPC   GL247954   2.908  43.025   6.164
 3686POPC   C1A47955   2.719  43.115   6.464
 3686POPC   D2A47956   2.720  43.145   6.764
 3686POPC   C3A47957   2.776  43.148   7.064
 3686POPC   C4A47958   2.748  43.123   7.364
 3686POPC   C1B47959   2.969  43.040   6.464
 3686POPC   C2B47960   3.021  42.997   6.764
 3686POPC   C3B47961   2.976  43.013   7.064
 3686POPC   C4B47962   2.989  43.049   7.364
 3687POPC   NC347963  26.019  43.076   5.564
 3687POPC   PO447964  26.050  43.070   5.864
 3687POPC   GL147965  26.073  43.119   6.164
 3687POPC   GL247966  25.991  42.989   6.164
 3687POPC   C1A47967  26.052  43.077   6.464
 3687POPC   D2A47968  26.080  43.123   6.764
 3687POPC   C3A47969  26.064  43.103   7.064
 3687POPC   C4A47970  25.997  43.145   7.364
 3687POPC   C1B47971  25.840  42.907   6.464
 3687POPC   C2B47972  25.802  42.929   6.764
 3687POPC   C3B47973  25.890  42.943   7.064
 3687POPC   C4B47974  25.882  42.953   7.364
 3688POPC   NC347975  28.366   0.479   5.564
 3688POPC   PO447976  28.377   0.485   5.864
 3688POPC   GL147977  28.337   0.461   6.164
 3688POPC   GL247978  28.298   0.402   6.164
 3688POPC   C1A47979  28.354   0.392   6.464
 3688POPC   D2A47980  28.336   0.446   6.764
 3688POPC   C3A47981  28.373   0.430   7.064
 3688POPC   C4A47982  28.408   0.404   7.364
 3688POPC   C1B47983  28.196   0.251   6.464
 3688POPC   C2B47984  28.175   0.278   6.764
 3688POPC   C3B47985  28.216   0.318   7.064
 3688POPC   C4B47986  28.118   0.304   7.364
 3689POPC   NC347987  32.285  33.071   5.564
 3689POPC   PO447988  32.283  33.029   5.864
 3689POPC   GL147989  32.250  33.028   6.164
 3689POPC   GL247990  32.373  33.050   6.164
 3689POPC   C1A47991  32.281  33.000   6.464
 3689POPC   D2A47992  32.224  33.037   6.764
 3689POPC   C3A47993  32.265  33.061   7.064
 3689POPC   C4A47994  32.298  33.065   7.364
 3689POPC   C1B47995  32.458  33.011   6.464
 3689POPC   C2B47996  32.451  32.968   6.764
 3689POPC   C3B47997  32.462  32.962   7.064
 3689POPC   C4B47998  32.538  33.011   7.364
 3690POPC   NC347999  24.466   0.436   5.564
 3690POPC   PO448000  24.531   0.457   5.864
 3690POPC   GL148001  24.492   0.459   6.164
 3690POPC   GL248002  24.613   0.408   6.164
 3690POPC   C1A48003  24.476   0.478   6.464
 3690POPC   D2A48004  24.501   0.460   6.764
 3690POPC   C3A48005  24.523   0.472   7.064
 3690POPC   C4A48006  24.467   0.388   7.364
 3690POPC   C1B48007  24.699   0.407   6.464
 3690POPC   C2B48008  24.723   0.450   6.764
 3690POPC   C3B48009  24.742   0.472   7.064
 3690POPC   C4B48010  24.736   0.438   7.364
 3691POPC   NC348011  29.181  15.158   5.564
 3691POPC   PO448012  29.100  15.158   5.864
 3691POPC   GL148013  29.129  15.197   6.164
 3691POPC   GL248014  29.111  15.067   6.164
 3691POPC   C1A48015  29.187  15.170   6.464
 3691POPC   D2A48016  29.097  15.154   6.764
 3691POPC   C3A48017  29.098  15.174   7.064
 3691POPC   C4A48018  29.120  15.145   7.364
 3691POPC   C1B48019  29.092  14.968   6.464
 3691POPC   C2B48020  29.050  14.968   6.764
 3691POPC   C3B48021  29.059  14.907   7.064
 3691POPC   C4B48022  29.113  14.969   7.364
 3692POPC   NC348023   2.034   1.211   5.564
 3692POPC   PO448024   2.038   1.172   5.864
 3692POPC   GL148025   1.948   1.213   6.164
 3692POPC   GL248026   1.942   1.119   6.164
 3692POPC   C1A48027   2.023   1.229   6.464
 3692POPC   D2A48028   1.942   1.210   6.764
 3692POPC   C3A48029   1.983   1.220   7.064
 3692POPC   C4A48030   2.020   1.193   7.364
 3692POPC   C1B48031   1.882   0.983   6.464
 3692POPC   C2B48032   1.881   1.018   6.764
 3692POPC   C3B48033   1.864   0.962   7.064
 3692POPC   C4B48034   1.909   0.996   7.364
 3693POPC   NC348035  22.195  11.315   5.564
 3693POPC   PO448036  22.182  11.341   5.864
 3693POPC   GL148037  22.139  11.338   6.164
 3693POPC   GL248038  22.240  11.275   6.164
 3693POPC   C1A48039  22.176  11.349   6.464
 3693POPC   D2A48040  22.141  11.328   6.764
 3693POPC   C3A48041  22.160  11.295   7.064
 3693POPC   C4A48042  22.200  11.313   7.364
 3693POPC   C1B48043  22.412  11.192   6.464
 3693POPC   C2B48044  22.347  11.157   6.764
 3693POPC   C3B48045  22.393  11.138   7.064
 3693POPC   C4B48046  22.367  11.123   7.364
 3694POPC   NC348047   2.782  33.838   5.564
 3694POPC   PO448048   2.764  33.790   5.864
 3694POPC   GL148049   2.716  33.781   6.164
 3694POPC   GL248050   2.803  33.902   6.164
 3694POPC   C1A48051   2.765  33.805   6.464
 3694POPC   D2A48052   2.745  33.847   6.764
 3694POPC   C3A48053   2.755  33.811   7.064
 3694POPC   C4A48054   2.756  33.828   7.364
 3694POPC   C1B48055   2.855  34.062   6.464
 3694POPC   C2B48056   2.806  34.085   6.764
 3694POPC   C3B48057   2.790  34.078   7.064
 3694POPC   C4B48058   2.830  34.004   7.364
 3695POPC   NC348059  11.339  33.798   5.564
 3695POPC   PO448060  11.258  33.799   5.864
 3695POPC   GL148061  11.322  33.771   6.164
 3695POPC   GL248062  11.465  33.752   6.164
 3695POPC   C1A48063  11.321  33.772   6.464
 3695POPC   D2A48064  11.291  33.768   6.764
 3695POPC   C3A48065  11.275  33.765   7.064
 3695POPC   C4A48066  11.298  33.801   7.364
 3695POPC   C1B48067  11.504  33.698   6.464
 3695POPC   C2B48068  11.534  33.746   6.764
 3695POPC   C3B48069  11.587  33.763   7.064
 3695POPC   C4B48070  11.517  33.774   7.364
 3696POPC   NC348071  26.020  26.048   5.564
 3696POPC   PO448072  26.034  26.076   5.864
 3696POPC   GL148073  26.017  26.087   6.164
 3696POPC   GL248074  26.129  26.181   6.164
 3696POPC   C1A48075  26.015  26.091   6.464
 3696POPC   D2A48076  26.039  25.994   6.764
 3696POPC   C3A48077  26.010  26.038   7.064
 3696POPC   C4A48078  26.085  26.029   7.364
 3696POPC   C1B48079  26.199  26.261   6.464
 3696POPC   C2B48080  26.135  26.250   6.764
 3696POPC   C3B48081  26.130  26.228   7.064
 3696POPC   C4B48082  26.121  26.285   7.364
 3697POPC   NC348083   1.258   3.497   5.564
 3697POPC   PO448084   1.238   3.578   5.864
 3697POPC   GL148085   1.247   3.511   6.164
 3697POPC   GL248086   1.332   3.547   6.164
 3697POPC   C1A48087   1.247   3.504   6.464
 3697POPC   D2A48088   1.165   3.525   6.764
 3697POPC   C3A48089   1.201   3.524   7.064
 3697POPC   C4A48090   1.220   3.575   7.364
 3697POPC   C1B48091   1.447   3.612   6.464
 3697POPC   C2B48092   1.457   3.584   6.764
 3697POPC   C3B48093   1.479   3.580   7.064
 3697POPC   C4B48094   1.472   3.575   7.364
 3698POPC   NC348095   6.620  12.825   5.564
 3698POPC   PO448096   6.672  12.883   5.864
 3698POPC   GL148097   6.602  12.826   6.164
 3698POPC   GL248098   6.529  12.957   6.164
 3698POPC   C1A48099   6.656  12.855   6.464
 3698POPC   D2A48100   6.666  12.854   6.764
 3698POPC   C3A48101   6.670  12.834   7.064
 3698POPC   C4A48102   6.615  12.858   7.364
 3698POPC   C1B48103   6.407  12.997   6.464
 3698POPC   C2B48104   6.445  12.981   6.764
 3698POPC   C3B48105   6.389  12.989   7.064
 3698POPC   C4B48106   6.398  12.950   7.364
 3699POPC   NC348107  10.542  14.354   5.564
 3699POPC   PO448108  10.522  14.370   5.864
 3699POPC   GL148109  10.531  14.431   6.164
 3699POPC   GL248110  10.381  14.362   6.164
 3699POPC   C1A48111  10.486  14.393   6.464
 3699POPC   D2A48112  10.571  14.432   6.764
 3699POPC   C3A48113  10.566  14.398   7.064
 3699POPC   C4A48114  10.479  14.373   7.364
 3699POPC   C1B48115  10.324  14.285   6.464
 3699POPC   C2B48116  10.315  14.308   6.764
 3699POPC   C3B48117  10.290  14.293   7.064
 3699POPC   C4B48118  10.345  14.335   7.364
 3700POPC   NC348119  38.492  13.635   5.564
 3700POPC   PO448120  38.475  13.622   5.864
 3700POPC   GL148121  38.432  13.657   6.164
 3700POPC   GL248122  38.356  13.602   6.164
 3700POPC   C1A48123  38.470  13.673   6.464
 3700POPC   D2A48124  38.473  13.610   6.764
 3700POPC   C3A48125  38.433  13.598   7.064
 3700POPC   C4A48126  38.479  13.581   7.364
 3700POPC   C1B48127  38.183  13.626   6.464
 3700POPC   C2B48128  38.182  13.628   6.764
 3700POPC   C3B48129  38.257  13.689   7.064
 3700POPC   C4B48130  38.234  13.651   7.364
 3701POPC   NC348131  16.781  44.613   5.564
 3701POPC   PO448132  16.760  44.712   5.864
 3701POPC   GL148133  16.741  44.625   6.164
 3701POPC   GL248134  16.845  44.719   6.164
 3701POPC   C1A48135  16.734  44.642   6.464
 3701POPC   D2A48136  16.749  44.681   6.764
 3701POPC   C3A48137  16.705  44.675   7.064
 3701POPC   C4A48138  16.744  44.641   7.364
 3701POPC   C1B48139  16.936  44.719   6.464
 3701POPC   C2B48140  16.950  44.702   6.764
 3701POPC   C3B48141  17.015  44.674   7.064
 3701POPC   C4B48142  16.944  44.679   7.364
 3702POPC   NC348143  17.491  19.103   5.564
 3702POPC   PO448144  17.458  19.098   5.864
 3702POPC   GL148145  17.517  19.086   6.164
 3702POPC   GL248146  17.568  19.175   6.164
 3702POPC   C1A48147  17.509  19.106   6.464
 3702POPC   D2A48148  17.470  19.060   6.764
 3702POPC   C3A48149  17.500  19.073   7.064
 3702POPC   C4A48150  17.499  19.051   7.364
 3702POPC   C1B48151  17.583  19.305   6.464
 3702POPC   C2B48152  17.564  19.252   6.764
 3702POPC   C3B48153  17.585  19.295   7.064
 3702POPC   C4B48154  17.543  19.328   7.364
 3703POPC   NC348155  32.297  22.132   5.564
 3703POPC   PO448156  32.254  22.115   5.864
 3703POPC   GL148157  32.227  22.149   6.164
 3703POPC   GL248158  32.390  22.042   6.164
 3703POPC   C1A48159  32.204  22.207   6.464
 3703POPC   D2A48160  32.220  22.156   6.764
 3703POPC   C3A48161  32.228  22.128   7.064
 3703POPC   C4A48162  32.232  22.187   7.364
 3703POPC   C1B48163  32.437  22.049   6.464
 3703POPC   C2B48164  32.449  22.028   6.764
 3703POPC   C3B48165  32.478  21.991   7.064
 3703POPC   C4B48166  32.469  22.003   7.364
 3704POPC   NC348167  34.618   6.632   5.564
 3704POPC   PO448168  34.587   6.628   5.864
 3704POPC   GL148169  34.580   6.681   6.164
 3704POPC   GL248170  34.672   6.576   6.164
 3704POPC   C1A48171  34.579   6.633   6.464
 3704POPC   D2A48172  34.603   6.664   6.764
 3704POPC   C3A48173  34.584   6.610   7.064
 3704POPC   C4A48174  34.574   6.682   7.364
 3704POPC   C1B48175  34.780   6.543   6.464
 3704POPC   C2B48176  34.823   6.530   6.764
 3704POPC   C3B48177  34.802   6.533   7.064
 3704POPC   C4B48178  34.848   6.554   7.364
 3705POPC   NC348179  15.957  26.854   5.564
 3705POPC   PO448180  15.974  26.823   5.864
 3705POPC   GL148181  15.913  26.771   6.164
 3705POPC   GL248182  15.927  26.930   6.164
 3705POPC   C1A48183  15.962  26.857   6.464
 3705POPC   D2A48184  15.989  26.845   6.764
 3705POPC   C3A48185  15.945  26.768   7.064
 3705POPC   C4A48186  15.997  26.832   7.364
 3705POPC   C1B48187  15.888  27.059   6.464
 3705POPC   C2B48188  15.936  27.029   6.764
 3705POPC   C3B48189  15.914  27.051   7.064
 3705POPC   C4B48190  15.902  27.019   7.364
 3706POPC   NC348191  34.567  40.751   5.564
 3706POPC   PO448192  34.556  40.755   5.864
 3706POPC   GL148193  34.621  40.824   6.164
 3706POPC   GL248194  34.567  40.934   6.164
 3706POPC   C1A48195  34.624  40.811   6.464
 3706POPC   D2A48196  34.546  40.737   6.764
 3706POPC   C3A48197  34.593  40.776   7.064
 3706POPC   C4A48198  34.593  40.830   7.364
 3706POPC   C1B48199  34.594  41.071   6.464
 3706POPC   C2B48200  34.642  41.035   6.764
 3706POPC   C3B48201  34.563  41.071   7.064
 3706POPC   C4B48202  34.565  41.009   7.364
 3707POPC   NC348203  32.267  34.580   5.564
 3707POPC   PO448204  32.208  34.577   5.864
 3707POPC   GL148205  32.205  34.589   6.164
 3707POPC   GL248206  32.193  34.483   6.164
 3707POPC   C1A48207  32.242  34.579   6.464
 3707POPC   D2A48208  32.296  34.579   6.764
 3707POPC   C3A48209  32.218  34.584   7.064
 3707POPC   C4A48210  32.259  34.623   7.364
 3707POPC   C1B48211  32.057  34.409   6.464
 3707POPC   C2B48212  32.036  34.454   6.764
 3707POPC   C3B48213  32.018  34.381   7.064
 3707POPC   C4B48214  32.069  34.420   7.364
 3708POPC   NC348215  37.708  30.721   5.564
 3708POPC   PO448216  37.652  30.706   5.864
 3708POPC   GL148217  37.651  30.694   6.164
 3708POPC   GL248218  37.735  30.831   6.164
 3708POPC   C1A48219  37.694  30.707   6.464
 3708POPC   D2A48220  37.634  30.718   6.764
 3708POPC   C3A48221  37.718  30.652   7.064
 3708POPC   C4A48222  37.643  30.674   7.364
 3708POPC   C1B48223  37.828  30.864   6.464
 3708POPC   C2B48224  37.881  30.875   6.764
 3708POPC   C3B48225  37.882  30.907   7.064
 3708POPC   C4B48226  37.838  30.885   7.364
 3709POPC   NC348227  29.902  26.038   5.564
 3709POPC   PO448228  29.874  26.090   5.864
 3709POPC   GL148229  29.873  26.087   6.164
 3709POPC   GL248230  29.798  26.037   6.164
 3709POPC   C1A48231  29.947  26.039   6.464
 3709POPC   D2A48232  29.924  25.992   6.764
 3709POPC   C3A48233  29.890  26.062   7.064
 3709POPC   C4A48234  29.963  26.080   7.364
 3709POPC   C1B48235  29.664  25.933   6.464
 3709POPC   C2B48236  29.678  25.964   6.764
 3709POPC   C3B48237  29.722  25.932   7.064
 3709POPC   C4B48238  29.720  25.978   7.364
 3710POPC   NC348239   2.716  13.633   5.564
 3710POPC   PO448240   2.798  13.675   5.864
 3710POPC   GL148241   2.719  13.624   6.164
 3710POPC   GL248242   2.841  13.482   6.164
 3710POPC   C1A48243   2.783  13.663   6.464
 3710POPC   D2A48244   2.788  13.653   6.764
 3710POPC   C3A48245   2.730  13.670   7.064
 3710POPC   C4A48246   2.774  13.584   7.364
 3710POPC   C1B48247   2.919  13.409   6.464
 3710POPC   C2B48248   2.930  13.433   6.764
 3710POPC   C3B48249   2.898  13.424   7.064
 3710POPC   C4B48250   2.960  13.448   7.364
 3711POPC   NC348251  40.770  22.210   5.564
 3711POPC   PO448252  40.797  22.204   5.864
 3711POPC   GL148253  40.793  22.138   6.164
 3711POPC   GL248254  40.789  22.275   6.164
 3711POPC   C1A48255  40.828  22.148   6.464
 3711POPC   D2A48256  40.763  22.159   6.764
 3711POPC   C3A48257  40.773  22.185   7.064
 3711POPC   C4A48258  40.747  22.131   7.364
 3711POPC   C1B48259  40.829  22.438   6.464
 3711POPC   C2B48260  40.819  22.396   6.764
 3711POPC   C3B48261  40.877  22.421   7.064
 3711POPC   C4B48262  40.818  22.410   7.364
 3712POPC   NC348263  37.687  26.041   5.564
 3712POPC   PO448264  37.633  26.002   5.864
 3712POPC   GL148265  37.673  26.075   6.164
 3712POPC   GL248266  37.779  26.077   6.164
 3712POPC   C1A48267  37.648  25.993   6.464
 3712POPC   D2A48268  37.667  26.016   6.764
 3712POPC   C3A48269  37.702  26.070   7.064
 3712POPC   C4A48270  37.691  26.034   7.364
 3712POPC   C1B48271  37.823  26.227   6.464
 3712POPC   C2B48272  37.902  26.217   6.764
 3712POPC   C3B48273  37.876  26.204   7.064
 3712POPC   C4B48274  37.905  26.226   7.364
 3713POPC   NC348275  39.997  12.092   5.564
 3713POPC   PO448276  39.964  12.059   5.864
 3713POPC   GL148277  39.995  12.069   6.164
 3713POPC   GL248278  40.142  12.148   6.164
 3713POPC   C1A48279  39.986  12.076   6.464
 3713POPC   D2A48280  40.011  12.036   6.764
 3713POPC   C3A48281  39.969  12.121   7.064
 3713POPC   C4A48282  40.049  12.114   7.364
 3713POPC   C1B48283  40.221  12.293   6.464
 3713POPC   C2B48284  40.226  12.238   6.764
 3713POPC   C3B48285  40.159  12.224   7.064
 3713POPC   C4B48286  40.196  12.210   7.364
 3714POPC   NC348287   7.416  14.357   5.564
 3714POPC   PO448288   7.467  14.383   5.864
 3714POPC   GL148289   7.388  14.382   6.164
 3714POPC   GL248290   7.320  14.345   6.164
 3714POPC   C1A48291   7.396  14.372   6.464
 3714POPC   D2A48292   7.445  14.441   6.764
 3714POPC   C3A48293   7.390  14.448   7.064
 3714POPC   C4A48294   7.417  14.379   7.364
 3714POPC   C1B48295   7.181  14.325   6.464
 3714POPC   C2B48296   7.210  14.327   6.764
 3714POPC   C3B48297   7.163  14.318   7.064
 3714POPC   C4B48298   7.145  14.261   7.364
 3715POPC   NC348299  15.154  39.249   5.564
 3715POPC   PO448300  15.221  39.194   5.864
 3715POPC   GL148301  15.222  39.200   6.164
 3715POPC   GL248302  15.211  39.313   6.164
 3715POPC   C1A48303  15.170  39.255   6.464
 3715POPC   D2A48304  15.159  39.249   6.764
 3715POPC   C3A48305  15.176  39.257   7.064
 3715POPC   C4A48306  15.160  39.225   7.364
 3715POPC   C1B48307  15.282  39.480   6.464
 3715POPC   C2B48308  15.342  39.406   6.764
 3715POPC   C3B48309  15.325  39.476   7.064
 3715POPC   C4B48310  15.284  39.434   7.364
 3716POPC   NC348311  40.044  20.608   5.564
 3716POPC   PO448312  40.033  20.649   5.864
 3716POPC   GL148313  40.049  20.631   6.164
 3716POPC   GL248314  40.110  20.629   6.164
 3716POPC   C1A48315  40.019  20.601   6.464
 3716POPC   D2A48316  39.973  20.589   6.764
 3716POPC   C3A48317  40.014  20.622   7.064
 3716POPC   C4A48318  39.967  20.565   7.364
 3716POPC   C1B48319  40.307  20.643   6.464
 3716POPC   C2B48320  40.305  20.647   6.764
 3716POPC   C3B48321  40.285  20.568   7.064
 3716POPC   C4B48322  40.236  20.661   7.364
 3717POPC   NC348323  26.773  15.947   5.564
 3717POPC   PO448324  26.801  15.963   5.864
 3717POPC   GL148325  26.809  15.939   6.164
 3717POPC   GL248326  26.907  15.890   6.164
 3717POPC   C1A48327  26.793  15.952   6.464
 3717POPC   D2A48328  26.866  15.938   6.764
 3717POPC   C3A48329  26.861  15.983   7.064
 3717POPC   C4A48330  26.855  15.969   7.364
 3717POPC   C1B48331  27.021  15.834   6.464
 3717POPC   C2B48332  27.034  15.833   6.764
 3717POPC   C3B48333  27.079  15.878   7.064
 3717POPC   C4B48334  27.071  15.841   7.364
 3718POPC   NC348335  18.316  29.108   5.564
 3718POPC   PO448336  18.314  29.164   5.864
 3718POPC   GL148337  18.306  29.105   6.164
 3718POPC   GL248338  18.138  29.177   6.164
 3718POPC   C1A48339  18.238  29.150   6.464
 3718POPC   D2A48340  18.251  29.102   6.764
 3718POPC   C3A48341  18.298  29.112   7.064
 3718POPC   C4A48342  18.325  29.144   7.364
 3718POPC   C1B48343  18.050  29.279   6.464
 3718POPC   C2B48344  18.010  29.222   6.764
 3718POPC   C3B48345  18.036  29.296   7.064
 3718POPC   C4B48346  18.038  29.299   7.364
 3719POPC   NC348347  22.973  19.817   5.564
 3719POPC   PO448348  22.893  19.842   5.864
 3719POPC   GL148349  22.923  19.851   6.164
 3719POPC   GL248350  22.953  19.761   6.164
 3719POPC   C1A48351  22.916  19.834   6.464
 3719POPC   D2A48352  22.961  19.786   6.764
 3719POPC   C3A48353  22.963  19.830   7.064
 3719POPC   C4A48354  22.946  19.788   7.364
 3719POPC   C1B48355  23.064  19.656   6.464
 3719POPC   C2B48356  23.050  19.579   6.764
 3719POPC   C3B48357  23.062  19.586   7.064
 3719POPC   C4B48358  23.044  19.646   7.364
 3720POPC   NC348359  30.675  36.100   5.564
 3720POPC   PO448360  30.700  36.114   5.864
 3720POPC   GL148361  30.673  36.135   6.164
 3720POPC   GL248362  30.676  36.288   6.164
 3720POPC   C1A48363  30.727  36.141   6.464
 3720POPC   D2A48364  30.691  36.125   6.764
 3720POPC   C3A48365  30.673  36.135   7.064
 3720POPC   C4A48366  30.694  36.176   7.364
 3720POPC   C1B48367  30.729  36.392   6.464
 3720POPC   C2B48368  30.650  36.337   6.764
 3720POPC   C3B48369  30.705  36.392   7.064
 3720POPC   C4B48370  30.651  36.343   7.364
 3721POPC   NC348371  34.546  29.184   5.564
 3721POPC   PO448372  34.587  29.193   5.864
 3721POPC   GL148373  34.576  29.187   6.164
 3721POPC   GL248374  34.658  29.120   6.164
 3721POPC   C1A48375  34.572  29.105   6.464
 3721POPC   D2A48376  34.589  29.155   6.764
 3721POPC   C3A48377  34.614  29.179   7.064
 3721POPC   C4A48378  34.566  29.132   7.364
 3721POPC   C1B48379  34.847  29.146   6.464
 3721POPC   C2B48380  34.853  29.169   6.764
 3721POPC   C3B48381  34.863  29.139   7.064
 3721POPC   C4B48382  34.785  29.170   7.364
 3722POPC   NC348383  43.086  28.334   5.564
 3722POPC   PO448384  43.088  28.327   5.864
 3722POPC   GL148385  43.129  28.363   6.164
 3722POPC   GL248386  43.218  28.301   6.164
 3722POPC   C1A48387  43.159  28.418   6.464
 3722POPC   D2A48388  43.080  28.386   6.764
 3722POPC   C3A48389  43.114  28.325   7.064
 3722POPC   C4A48390  43.094  28.376   7.364
 3722POPC   C1B48391  43.381  28.288   6.464
 3722POPC   C2B48392  43.365  28.306   6.764
 3722POPC   C3B48393  43.311  28.298   7.064
 3722POPC   C4B48394  43.353  28.253   7.364
 3723POPC   NC348395   3.519  22.123   5.564
 3723POPC   PO448396   3.495  22.175   5.864
 3723POPC   GL148397   3.492  22.159   6.164
 3723POPC   GL248398   3.542  22.300   6.164
 3723POPC   C1A48399   3.557  22.112   6.464
 3723POPC   D2A48400   3.568  22.166   6.764
 3723POPC   C3A48401   3.570  22.166   7.064
 3723POPC   C4A48402   3.582  22.119   7.364
 3723POPC   C1B48403   3.432  22.398   6.464
 3723POPC   C2B48404   3.450  22.427   6.764
 3723POPC   C3B48405   3.443  22.422   7.064
 3723POPC   C4B48406   3.461  22.441   7.364
 3724POPC   NC348407  12.103  40.042   5.564
 3724POPC   PO448408  12.089  40.007   5.864
 3724POPC   GL148409  12.118  39.998   6.164
 3724POPC   GL248410  11.978  40.023   6.164
 3724POPC   C1A48411  12.101  40.005   6.464
 3724POPC   D2A48412  12.113  40.016   6.764
 3724POPC   C3A48413  12.041  39.971   7.064
 3724POPC   C4A48414  12.069  39.997   7.364
 3724POPC   C1B48415  11.787  40.002   6.464
 3724POPC   C2B48416  11.856  39.939   6.764
 3724POPC   C3B48417  11.789  40.000   7.064
 3724POPC   C4B48418  11.859  40.007   7.364
 3725POPC   NC348419  40.801  30.707   5.564
 3725POPC   PO448420  40.784  30.711   5.864
 3725POPC   GL148421  40.779  30.727   6.164
 3725POPC   GL248422  40.883  30.709   6.164
 3725POPC   C1A48423  40.741  30.648   6.464
 3725POPC   D2A48424  40.799  30.678   6.764
 3725POPC   C3A48425  40.767  30.697   7.064
 3725POPC   C4A48426  40.783  30.718   7.364
 3725POPC   C1B48427  40.986  30.636   6.464
 3725POPC   C2B48428  41.025  30.639   6.764
 3725POPC   C3B48429  41.031  30.660   7.064
 3725POPC   C4B48430  41.027  30.636   7.364
 3726POPC   NC348431  18.278   5.098   5.564
 3726POPC   PO448432  18.328   5.116   5.864
 3726POPC   GL148433  18.277   5.120   6.164
 3726POPC   GL248434  18.188   5.159   6.164
 3726POPC   C1A48435  18.246   5.074   6.464
 3726POPC   D2A48436  18.241   5.140   6.764
 3726POPC   C3A48437  18.309   5.105   7.064
 3726POPC   C4A48438  18.247   5.138   7.364
 3726POPC   C1B48439  18.142   5.262   6.464
 3726POPC   C2B48440  18.143   5.317   6.764
 3726POPC   C3B48441  18.083   5.297   7.064
 3726POPC   C4B48442  18.085   5.315   7.364
 3727POPC   NC348443  34.598  33.847   5.564
 3727POPC   PO448444  34.598  33.810   5.864
 3727POPC   GL148445  34.605  33.816   6.164
 3727POPC   GL248446  34.575  33.877   6.164
 3727POPC   C1A48447  34.581  33.754   6.464
 3727POPC   D2A48448  34.578  33.832   6.764
 3727POPC   C3A48449  34.574  33.771   7.064
 3727POPC   C4A48450  34.536  33.833   7.364
 3727POPC   C1B48451  34.568  34.002   6.464
 3727POPC   C2B48452  34.583  34.023   6.764
 3727POPC   C3B48453  34.636  34.094   7.064
 3727POPC   C4B48454  34.606  34.076   7.364
 3728POPC   NC348455   0.428  43.927   5.564
 3728POPC   PO448456   0.469  43.877   5.864
 3728POPC   GL148457   0.449  43.920   6.164
 3728POPC   GL248458   0.496  44.014   6.164
 3728POPC   C1A48459   0.452  43.851   6.464
 3728POPC   D2A48460   0.439  43.846   6.764
 3728POPC   C3A48461   0.476  43.845   7.064
 3728POPC   C4A48462   0.464  43.855   7.364
 3728POPC   C1B48463   0.504  44.166   6.464
 3728POPC   C2B48464   0.493  44.135   6.764
 3728POPC   C3B48465   0.480  44.160   7.064
 3728POPC   C4B48466   0.492  44.137   7.364
 3729POPC   NC348467  11.338  28.378   5.564
 3729POPC   PO448468  11.293  28.360   5.864
 3729POPC   GL148469  11.324  28.348   6.164
 3729POPC   GL248470  11.251  28.217   6.164
 3729POPC   C1A48471  11.334  28.364   6.464
 3729POPC   D2A48472  11.265  28.379   6.764
 3729POPC   C3A48473  11.251  28.342   7.064
 3729POPC   C4A48474  11.278  28.407   7.364
 3729POPC   C1B48475  11.336  28.111   6.464
 3729POPC   C2B48476  11.298  28.129   6.764
 3729POPC   C3B48477  11.266  28.071   7.064
 3729POPC   C4B48478  11.245  28.091   7.364
 3730POPC   NC348479  30.667  44.672   5.564
 3730POPC   PO448480  30.685  44.624   5.864
 3730POPC   GL148481  30.718  44.705   6.164
 3730POPC   GL248482  30.592  44.698   6.164
 3730POPC   C1A48483  30.739  44.663   6.464
 3730POPC   D2A48484  30.670  44.642   6.764
 3730POPC   C3A48485  30.666  44.710   7.064
 3730POPC   C4A48486  30.658  44.616   7.364
 3730POPC   C1B48487  30.479  44.799   6.464
 3730POPC   C2B48488  30.535  44.868   6.764
 3730POPC   C3B48489  30.513  44.770   7.064
 3730POPC   C4B48490  30.467  44.846   7.364
 3731POPC   NC348491  44.620  20.640   5.564
 3731POPC   PO448492  44.697  20.590   5.864
 3731POPC   GL148493  44.711  20.620   6.164
 3731POPC   GL248494  44.755  20.654   6.164
 3731POPC   C1A48495  44.631  20.594   6.464
 3731POPC   D2A48496  44.682  20.579   6.764
 3731POPC   C3A48497  44.635  20.604   7.064
 3731POPC   C4A48498  44.636  20.563   7.364
 3731POPC   C1B48499  44.916  20.671   6.464
 3731POPC   C2B48500  44.902  20.684   6.764
 3731POPC   C3B48501  44.859  20.628   7.064
 3731POPC   C4B48502  44.936  20.639   7.364
 3732POPC   NC348503   5.137  26.027   5.564
 3732POPC   PO448504   5.079  26.003   5.864
 3732POPC   GL148505   5.105  26.076   6.164
 3732POPC   GL248506   4.971  26.076   6.164
 3732POPC   C1A48507   5.063  26.066   6.464
 3732POPC   D2A48508   5.117  26.083   6.764
 3732POPC   C3A48509   5.128  26.014   7.064
 3732POPC   C4A48510   5.122  26.009   7.364
 3732POPC   C1B48511   4.887  26.108   6.464
 3732POPC   C2B48512   4.816  26.094   6.764
 3732POPC   C3B48513   4.874  26.120   7.064
 3732POPC   C4B48514   4.853  26.060   7.364
 3733POPC   NC348515   5.099   4.293   5.564
 3733POPC   PO448516   5.133   4.359   5.864
 3733POPC   GL148517   5.137   4.346   6.164
 3733POPC   GL248518   5.015   4.378   6.164
 3733POPC   C1A48519   5.141   4.333   6.464
 3733POPC   D2A48520   5.086   4.306   6.764
 3733POPC   C3A48521   5.110   4.351   7.064
 3733POPC   C4A48522   5.088   4.353   7.364
 3733POPC   C1B48523   4.912   4.472   6.464
 3733POPC   C2B48524   4.930   4.555   6.764
 3733POPC   C3B48525   4.966   4.511   7.064
 3733POPC   C4B48526   4.939   4.502   7.364
 3734POPC   NC348527  25.304  26.061   5.564
 3734POPC   PO448528  25.244  26.070   5.864
 3734POPC   GL148529  25.238  26.033   6.164
 3734POPC   GL248530  25.197  26.157   6.164
 3734POPC   C1A48531  25.277  26.010   6.464
 3734POPC   D2A48532  25.228  26.048   6.764
 3734POPC   C3A48533  25.303  26.079   7.064
 3734POPC   C4A48534  25.233  26.057   7.364
 3734POPC   C1B48535  25.126  26.236   6.464
 3734POPC   C2B48536  25.158  26.228   6.764
 3734POPC   C3B48537  25.152  26.260   7.064
 3734POPC   C4B48538  25.177  26.241   7.364
 3735POPC   NC348539  15.982  35.325   5.564
 3735POPC   PO448540  15.920  35.381   5.864
 3735POPC   GL148541  15.947  35.368   6.164
 3735POPC   GL248542  15.967  35.274   6.164
 3735POPC   C1A48543  15.970  35.361   6.464
 3735POPC   D2A48544  15.916  35.315   6.764
 3735POPC   C3A48545  15.949  35.312   7.064
 3735POPC   C4A48546  15.943  35.397   7.364
 3735POPC   C1B48547  16.066  35.101   6.464
 3735POPC   C2B48548  16.037  35.108   6.764
 3735POPC   C3B48549  15.979  35.093   7.064
 3735POPC   C4B48550  16.015  35.078   7.364
 3736POPC   NC348551  26.828  34.549   5.564
 3736POPC   PO448552  26.855  34.623   5.864
 3736POPC   GL148553  26.839  34.550   6.164
 3736POPC   GL248554  26.882  34.665   6.164
 3736POPC   C1A48555  26.857  34.557   6.464
 3736POPC   D2A48556  26.812  34.536   6.764
 3736POPC   C3A48557  26.790  34.589   7.064
 3736POPC   C4A48558  26.788  34.620   7.364
 3736POPC   C1B48559  27.010  34.745   6.464
 3736POPC   C2B48560  26.996  34.746   6.764
 3736POPC   C3B48561  27.024  34.728   7.064
 3736POPC   C4B48562  27.000  34.719   7.364
 3737POPC   NC348563  39.206   1.993   5.564
 3737POPC   PO448564  39.230   1.968   5.864
 3737POPC   GL148565  39.272   2.009   6.164
 3737POPC   GL248566  39.123   1.936   6.164
 3737POPC   C1A48567  39.188   2.020   6.464
 3737POPC   D2A48568  39.280   1.987   6.764
 3737POPC   C3A48569  39.240   2.000   7.064
 3737POPC   C4A48570  39.199   2.005   7.364
 3737POPC   C1B48571  39.080   1.848   6.464
 3737POPC   C2B48572  39.036   1.837   6.764
 3737POPC   C3B48573  39.061   1.815   7.064
 3737POPC   C4B48574  39.083   1.821   7.364
 3738POPC   NC348575   2.779  34.550   5.564
 3738POPC   PO448576   2.735  34.542   5.864
 3738POPC   GL148577   2.763  34.531   6.164
 3738POPC   GL248578   2.818  34.678   6.164
 3738POPC   C1A48579   2.733  34.574   6.464
 3738POPC   D2A48580   2.719  34.617   6.764
 3738POPC   C3A48581   2.759  34.591   7.064
 3738POPC   C4A48582   2.728  34.559   7.364
 3738POPC   C1B48583   2.786  34.800   6.464
 3738POPC   C2B48584   2.801  34.841   6.764
 3738POPC   C3B48585   2.783  34.836   7.064
 3738POPC   C4B48586   2.807  34.872   7.364
 3739POPC   NC348587  18.306   1.258   5.564
 3739POPC   PO448588  18.321   1.216   5.864
 3739POPC   GL148589  18.281   1.257   6.164
 3739POPC   GL248590  18.326   1.099   6.164
 3739POPC   C1A48591  18.265   1.167   6.464
 3739POPC   D2A48592  18.317   1.170   6.764
 3739POPC   C3A48593  18.288   1.248   7.064
 3739POPC   C4A48594  18.302   1.206   7.364
 3739POPC   C1B48595  18.372   0.997   6.464
 3739POPC   C2B48596  18.356   0.937   6.764
 3739POPC   C3B48597  18.368   0.980   7.064
 3739POPC   C4B48598  18.315   0.996   7.364
 3740POPC   NC348599  20.588  14.361   5.564
 3740POPC   PO448600  20.603  14.373   5.864
 3740POPC   GL148601  20.617  14.398   6.164
 3740POPC   GL248602  20.675  14.523   6.164
 3740POPC   C1A48603  20.584  14.403   6.464
 3740POPC   D2A48604  20.608  14.404   6.764
 3740POPC   C3A48605  20.617  14.408   7.064
 3740POPC   C4A48606  20.562  14.418   7.364
 3740POPC   C1B48607  20.855  14.589   6.464
 3740POPC   C2B48608  20.842  14.552   6.764
 3740POPC   C3B48609  20.861  14.540   7.064
 3740POPC   C4B48610  20.766  14.504   7.364
 3741POPC   NC348611  30.699  26.853   5.564
 3741POPC   PO448612  30.732  26.820   5.864
 3741POPC   GL148613  30.682  26.830   6.164
 3741POPC   GL248614  30.762  26.729   6.164
 3741POPC   C1A48615  30.721  26.792   6.464
 3741POPC   D2A48616  30.727  26.838   6.764
 3741POPC   C3A48617  30.693  26.787   7.064
 3741POPC   C4A48618  30.704  26.792   7.364
 3741POPC   C1B48619  30.714  26.534   6.464
 3741POPC   C2B48620  30.773  26.574   6.764
 3741POPC   C3B48621  30.744  26.600   7.064
 3741POPC   C4B48622  30.707  26.561   7.364
 3742POPC   NC348623  28.364  38.438   5.564
 3742POPC   PO448624  28.418  38.471   5.864
 3742POPC   GL148625  28.372  38.414   6.164
 3742POPC   GL248626  28.256  38.414   6.164
 3742POPC   C1A48627  28.344  38.419   6.464
 3742POPC   D2A48628  28.339  38.422   6.764
 3742POPC   C3A48629  28.379  38.494   7.064
 3742POPC   C4A48630  28.397  38.462   7.364
 3742POPC   C1B48631  28.077  38.394   6.464
 3742POPC   C2B48632  28.081  38.358   6.764
 3742POPC   C3B48633  28.172  38.342   7.064
 3742POPC   C4B48634  28.159  38.385   7.364
 3743POPC   NC348635   8.985  22.980   5.564
 3743POPC   PO448636   8.932  22.964   5.864
 3743POPC   GL148637   8.949  22.966   6.164
 3743POPC   GL248638   8.915  22.809   6.164
 3743POPC   C1A48639   8.959  22.951   6.464
 3743POPC   D2A48640   8.928  22.965   6.764
 3743POPC   C3A48641   8.923  22.897   7.064
 3743POPC   C4A48642   8.984  22.969   7.364
 3743POPC   C1B48643   8.890  22.744   6.464
 3743POPC   C2B48644   8.918  22.693   6.764
 3743POPC   C3B48645   8.936  22.704   7.064
 3743POPC   C4B48646   8.926  22.711   7.364
 3744POPC   NC348647  13.658  24.501   5.564
 3744POPC   PO448648  13.670  24.494   5.864
 3744POPC   GL148649  13.643  24.528   6.164
 3744POPC   GL248650  13.637  24.338   6.164
 3744POPC   C1A48651  13.650  24.503   6.464
 3744POPC   D2A48652  13.606  24.523   6.764
 3744POPC   C3A48653  13.658  24.458   7.064
 3744POPC   C4A48654  13.628  24.482   7.364
 3744POPC   C1B48655  13.732  24.249   6.464
 3744POPC   C2B48656  13.671  24.239   6.764
 3744POPC   C3B48657  13.729  24.213   7.064
 3744POPC   C4B48658  13.641  24.252   7.364
 3745POPC   NC348659   5.065   9.018   5.564
 3745POPC   PO448660   5.088   8.927   5.864
 3745POPC   GL148661   5.111   9.022   6.164
 3745POPC   GL248662   5.139   9.108   6.164
 3745POPC   C1A48663   5.062   8.928   6.464
 3745POPC   D2A48664   5.062   8.987   6.764
 3745POPC   C3A48665   5.065   9.002   7.064
 3745POPC   C4A48666   5.099   8.943   7.364
 3745POPC   C1B48667   5.193   9.213   6.464
 3745POPC   C2B48668   5.190   9.236   6.764
 3745POPC   C3B48669   5.170   9.224   7.064
 3745POPC   C4B48670   5.205   9.181   7.364
 3746POPC   NC348671  32.227  18.256   5.564
 3746POPC   PO448672  32.210  18.296   5.864
 3746POPC   GL148673  32.287  18.306   6.164
 3746POPC   GL248674  32.325  18.356   6.164
 3746POPC   C1A48675  32.201  18.328   6.464
 3746POPC   D2A48676  32.241  18.241   6.764
 3746POPC   C3A48677  32.289  18.313   7.064
 3746POPC   C4A48678  32.217  18.285   7.364
 3746POPC   C1B48679  32.476  18.370   6.464
 3746POPC   C2B48680  32.461  18.401   6.764
 3746POPC   C3B48681  32.466  18.354   7.064
 3746POPC   C4B48682  32.527  18.356   7.364
 3747POPC   NC348683  19.807  19.851   5.564
 3747POPC   PO448684  19.790  19.820   5.864
 3747POPC   GL148685  19.836  19.786   6.164
 3747POPC   GL248686  19.967  19.802   6.164
 3747POPC   C1A48687  19.875  19.873   6.464
 3747POPC   D2A48688  19.826  19.830   6.764
 3747POPC   C3A48689  19.798  19.882   7.064
 3747POPC   C4A48690  19.883  19.809   7.364
 3747POPC   C1B48691  20.062  19.845   6.464
 3747POPC   C2B48692  20.060  19.879   6.764
 3747POPC   C3B48693  20.041  19.897   7.064
 3747POPC   C4B48694  20.078  19.893   7.364
 3748POPC   NC348695  35.397  16.694   5.564
 3748POPC   PO448696  35.380  16.769   5.864
 3748POPC   GL148697  35.396  16.773   6.164
 3748POPC   GL248698  35.474  16.589   6.164
 3748POPC   C1A48699  35.381  16.701   6.464
 3748POPC   D2A48700  35.372  16.681   6.764
 3748POPC   C3A48701  35.334  16.735   7.064
 3748POPC   C4A48702  35.326  16.758   7.364
 3748POPC   C1B48703  35.494  16.582   6.464
 3748POPC   C2B48704  35.523  16.591   6.764
 3748POPC   C3B48705  35.489  16.545   7.064
 3748POPC   C4B48706  35.512  16.524   7.364
 3749POPC   NC348707  12.071  33.038   5.564
 3749POPC   PO448708  12.118  33.037   5.864
 3749POPC   GL148709  12.045  33.068   6.164
 3749POPC   GL248710  12.016  33.100   6.164
 3749POPC   C1A48711  12.042  33.062   6.464
 3749POPC   D2A48712  12.031  33.036   6.764
 3749POPC   C3A48713  12.064  33.056   7.064
 3749POPC   C4A48714  12.090  33.057   7.364
 3749POPC   C1B48715  11.929  33.275   6.464
 3749POPC   C2B48716  11.952  33.226   6.764
 3749POPC   C3B48717  11.916  33.216   7.064
 3749POPC   C4B48718  11.976  33.264   7.364
 3750POPC   NC348719   1.244  26.008   5.564
 3750POPC   PO448720   1.243  26.077   5.864
 3750POPC   GL148721   1.188  26.054   6.164
 3750POPC   GL248722   1.178  26.155   6.164
 3750POPC   C1A48723   1.189  26.031   6.464
 3750POPC   D2A48724   1.204  26.010   6.764
 3750POPC   C3A48725   1.218  26.065   7.064
 3750POPC   C4A48726   1.206  26.080   7.364
 3750POPC   C1B48727   1.204  26.265   6.464
 3750POPC   C2B48728   1.179  26.256   6.764
 3750POPC   C3B48729   1.199  26.330   7.064
 3750POPC   C4B48730   1.206  26.248   7.364
 3751POPC   NC348731  34.564  43.130   5.564
 3751POPC   PO448732  34.602  43.071   5.864
 3751POPC   GL148733  34.613  43.158   6.164
 3751POPC   GL248734  34.582  43.035   6.164
 3751POPC   C1A48735  34.576  43.076   6.464
 3751POPC   D2A48736  34.608  43.139   6.764
 3751POPC   C3A48737  34.542  43.063   7.064
 3751POPC   C4A48738  34.587  43.158   7.364
 3751POPC   C1B48739  34.588  42.848   6.464
 3751POPC   C2B48740  34.624  42.816   6.764
 3751POPC   C3B48741  34.590  42.898   7.064
 3751POPC   C4B48742  34.610  42.838   7.364
 3752POPC   NC348743  35.378  26.841   5.564
 3752POPC   PO448744  35.359  26.792   5.864
 3752POPC   GL148745  35.331  26.788   6.164
 3752POPC   GL248746  35.202  26.831   6.164
 3752POPC   C1A48747  35.375  26.793   6.464
 3752POPC   D2A48748  35.363  26.849   6.764
 3752POPC   C3A48749  35.320  26.798   7.064
 3752POPC   C4A48750  35.358  26.833   7.364
 3752POPC   C1B48751  35.160  26.931   6.464
 3752POPC   C2B48752  35.102  26.936   6.764
 3752POPC   C3B48753  35.110  26.868   7.064
 3752POPC   C4B48754  35.140  26.885   7.364
 3753POPC   NC348755  25.220  28.341   5.564
 3753POPC   PO448756  25.293  28.326   5.864
 3753POPC   GL148757  25.248  28.328   6.164
 3753POPC   GL248758  25.330  28.260   6.164
 3753POPC   C1A48759  25.296  28.385   6.464
 3753POPC   D2A48760  25.240  28.383   6.764
 3753POPC   C3A48761  25.248  28.332   7.064
 3753POPC   C4A48762  25.264  28.404   7.364
 3753POPC   C1B48763  25.403  28.170   6.464
 3753POPC   C2B48764  25.427  28.148   6.764
 3753POPC   C3B48765  25.468  28.193   7.064
 3753POPC   C4B48766  25.456  28.152   7.364
 3754POPC   NC348767   5.109  28.369   5.564
 3754POPC   PO448768   5.099  28.383   5.864
 3754POPC   GL148769   5.129  28.413   6.164
 3754POPC   GL248770   5.261  28.375   6.164
 3754POPC   C1A48771   5.139  28.418   6.464
 3754POPC   D2A48772   5.046  28.367   6.764
 3754POPC   C3A48773   5.090  28.319   7.064
 3754POPC   C4A48774   5.093  28.372   7.364
 3754POPC   C1B48775   5.312  28.317   6.464
 3754POPC   C2B48776   5.291  28.327   6.764
 3754POPC   C3B48777   5.329  28.242   7.064
 3754POPC   C4B48778   5.351  28.243   7.364
 3755POPC   NC348779  27.547  26.797   5.564
 3755POPC   PO448780  27.560  26.824   5.864
 3755POPC   GL148781  27.567  26.828   6.164
 3755POPC   GL248782  27.617  26.677   6.164
 3755POPC   C1A48783  27.580  26.847   6.464
 3755POPC   D2A48784  27.628  26.811   6.764
 3755POPC   C3A48785  27.556  26.798   7.064
 3755POPC   C4A48786  27.544  26.864   7.364
 3755POPC   C1B48787  27.727  26.619   6.464
 3755POPC   C2B48788  27.681  26.578   6.764
 3755POPC   C3B48789  27.705  26.643   7.064
 3755POPC   C4B48790  27.700  26.625   7.364
 3756POPC   NC348791   5.837  22.190   5.564
 3756POPC   PO448792   5.832  22.171   5.864
 3756POPC   GL148793   5.844  22.141   6.164
 3756POPC   GL248794   5.731  22.214   6.164
 3756POPC   C1A48795   5.874  22.209   6.464
 3756POPC   D2A48796   5.831  22.150   6.764
 3756POPC   C3A48797   5.889  22.127   7.064
 3756POPC   C4A48798   5.882  22.192   7.364
 3756POPC   C1B48799   5.665  22.183   6.464
 3756POPC   C2B48800   5.606  22.160   6.764
 3756POPC   C3B48801   5.571  22.152   7.064
 3756POPC   C4B48802   5.597  22.205   7.364
 3757POPC   NC348803  12.048  29.957   5.564
 3757POPC   PO448804  12.030  29.886   5.864
 3757POPC   GL148805  12.100  29.904   6.164
 3757POPC   GL248806  11.929  29.911   6.164
 3757POPC   C1A48807  12.079  29.881   6.464
 3757POPC   D2A48808  12.065  29.889   6.764
 3757POPC   C3A48809  12.027  29.874   7.064
 3757POPC   C4A48810  12.053  29.875   7.364
 3757POPC   C1B48811  11.835  29.837   6.464
 3757POPC   C2B48812  11.814  29.855   6.764
 3757POPC   C3B48813  11.841  29.805   7.064
 3757POPC   C4B48814  11.829  29.803   7.364
 3758POPC   NC348815  40.792  40.044   5.564
 3758POPC   PO448816  40.741  39.985   5.864
 3758POPC   GL148817  40.784  40.044   6.164
 3758POPC   GL248818  40.829  40.156   6.164
 3758POPC   C1A48819  40.765  40.011   6.464
 3758POPC   D2A48820  40.736  40.026   6.764
 3758POPC   C3A48821  40.800  40.020   7.064
 3758POPC   C4A48822  40.812  39.991   7.364
 3758POPC   C1B48823  40.861  40.198   6.464
 3758POPC   C2B48824  40.879  40.230   6.764
 3758POPC   C3B48825  40.919  40.228   7.064
 3758POPC   C4B48826  40.877  40.250   7.364
 3759POPC   NC348827  17.471  18.303   5.564
 3759POPC   PO448828  17.544  18.288   5.864
 3759POPC   GL148829  17.469  18.312   6.164
 3759POPC   GL248830  17.594  18.163   6.164
 3759POPC   C1A48831  17.537  18.308   6.464
 3759POPC   D2A48832  17.541  18.274   6.764
 3759POPC   C3A48833  17.533  18.308   7.064
 3759POPC   C4A48834  17.517  18.253   7.364
 3759POPC   C1B48835  17.725  18.095   6.464
 3759POPC   C2B48836  17.675  18.124   6.764
 3759POPC   C3B48837  17.678  18.161   7.064
 3759POPC   C4B48838  17.695  18.097   7.364
 3760POPC   NC348839  44.614  11.335   5.564
 3760POPC   PO448840  44.652  11.314   5.864
 3760POPC   GL148841  44.697  11.310   6.164
 3760POPC   GL248842  44.661  11.140   6.164
 3760POPC   C1A48843  44.621  11.282   6.464
 3760POPC   D2A48844  44.655  11.306   6.764
 3760POPC   C3A48845  44.653  11.340   7.064
 3760POPC   C4A48846  44.682  11.263   7.364
 3760POPC   C1B48847  44.744  11.086   6.464
 3760POPC   C2B48848  44.717  11.023   6.764
 3760POPC   C3B48849  44.701  11.079   7.064
 3760POPC   C4B48850  44.698  11.054   7.364
 3761POPC   NC348851   1.234  35.308   5.564
 3761POPC   PO448852   1.245  35.382   5.864
 3761POPC   GL148853   1.232  35.326   6.164
 3761POPC   GL248854   1.160  35.451   6.164
 3761POPC   C1A48855   1.208  35.366   6.464
 3761POPC   D2A48856   1.237  35.360   6.764
 3761POPC   C3A48857   1.197  35.310   7.064
 3761POPC   C4A48858   1.240  35.369   7.364
 3761POPC   C1B48859   1.141  35.616   6.464
 3761POPC   C2B48860   1.188  35.631   6.764
 3761POPC   C3B48861   1.153  35.563   7.064
 3761POPC   C4B48862   1.208  35.575   7.364
 3762POPC   NC348863  41.562  12.103   5.564
 3762POPC   PO448864  41.562  12.099   5.864
 3762POPC   GL148865  41.531  12.085   6.164
 3762POPC   GL248866  41.448  12.051   6.164
 3762POPC   C1A48867  41.600  12.104   6.464
 3762POPC   D2A48868  41.547  12.056   6.764
 3762POPC   C3A48869  41.554  12.042   7.064
 3762POPC   C4A48870  41.543  12.111   7.364
 3762POPC   C1B48871  41.339  11.974   6.464
 3762POPC   C2B48872  41.332  11.916   6.764
 3762POPC   C3B48873  41.342  11.917   7.064
 3762POPC   C4B48874  41.306  11.938   7.364
 3763POPC   NC348875  43.068  32.992   5.564
 3763POPC   PO448876  43.063  33.065   5.864
 3763POPC   GL148877  43.138  32.999   6.164
 3763POPC   GL248878  43.231  32.958   6.164
 3763POPC   C1A48879  43.132  33.012   6.464
 3763POPC   D2A48880  43.152  33.015   6.764
 3763POPC   C3A48881  43.083  33.002   7.064
 3763POPC   C4A48882  43.070  33.034   7.364
 3763POPC   C1B48883  43.354  32.892   6.464
 3763POPC   C2B48884  43.318  32.943   6.764
 3763POPC   C3B48885  43.366  32.878   7.064
 3763POPC   C4B48886  43.382  32.911   7.364
 3764POPC   NC348887  43.921  42.345   5.564
 3764POPC   PO448888  43.867  42.309   5.864
 3764POPC   GL148889  43.855  42.286   6.164
 3764POPC   GL248890  43.961  42.407   6.164
 3764POPC   C1A48891  43.913  42.328   6.464
 3764POPC   D2A48892  43.865  42.308   6.764
 3764POPC   C3A48893  43.900  42.354   7.064
 3764POPC   C4A48894  43.839  42.363   7.364
 3764POPC   C1B48895  44.075  42.464   6.464
 3764POPC   C2B48896  44.076  42.434   6.764
 3764POPC   C3B48897  44.093  42.370   7.064
 3764POPC   C4B48898  44.172  42.391   7.364
 3765POPC   NC348899   0.411   6.670   5.564
 3765POPC   PO448900   0.456   6.668   5.864
 3765POPC   GL148901   0.436   6.640   6.164
 3765POPC   GL248902   0.328   6.704   6.164
 3765POPC   C1A48903   0.391   6.622   6.464
 3765POPC   D2A48904   0.428   6.694   6.764
 3765POPC   C3A48905   0.399   6.637   7.064
 3765POPC   C4A48906   0.442   6.653   7.364
 3765POPC   C1B48907   0.190   6.743   6.464
 3765POPC   C2B48908   0.194   6.758   6.764
 3765POPC   C3B48909   0.239   6.774   7.064
 3765POPC   C4B48910   0.223   6.719   7.364
 3766POPC   NC348911  15.998  28.337   5.564
 3766POPC   PO448912  15.935  28.393   5.864
 3766POPC   GL148913  15.965  28.387   6.164
 3766POPC   GL248914  16.115  28.409   6.164
 3766POPC   C1A48915  15.940  28.390   6.464
 3766POPC   D2A48916  15.978  28.418   6.764
 3766POPC   C3A48917  15.915  28.405   7.064
 3766POPC   C4A48918  15.982  28.332   7.364
 3766POPC   C1B48919  16.206  28.387   6.464
 3766POPC   C2B48920  16.165  28.462   6.764
 3766POPC   C3B48921  16.219  28.378   7.064
 3766POPC   C4B48922  16.153  28.388   7.364
 3767POPC   NC348923  24.473  44.711   5.564
 3767POPC   PO448924  24.489  44.635   5.864
 3767POPC   GL148925  24.459  44.613   6.164
 3767POPC   GL248926  24.611  44.566   6.164
 3767POPC   C1A48927  24.509  44.680   6.464
 3767POPC   D2A48928  24.484  44.666   6.764
 3767POPC   C3A48929  24.522  44.634   7.064
 3767POPC   C4A48930  24.520  44.638   7.364
 3767POPC   C1B48931  24.663  44.435   6.464
 3767POPC   C2B48932  24.669  44.459   6.764
 3767POPC   C3B48933  24.634  44.489   7.064
 3767POPC   C4B48934  24.630  44.454   7.364
 3768POPC   NC348935   8.150   1.972   5.564
 3768POPC   PO448936   8.180   1.988   5.864
 3768POPC   GL148937   8.178   1.975   6.164
 3768POPC   GL248938   8.168   2.116   6.164
 3768POPC   C1A48939   8.167   1.953   6.464
 3768POPC   D2A48940   8.149   1.942   6.764
 3768POPC   C3A48941   8.182   2.029   7.064
 3768POPC   C4A48942   8.198   2.012   7.364
 3768POPC   C1B48943   8.166   2.271   6.464
 3768POPC   C2B48944   8.179   2.235   6.764
 3768POPC   C3B48945   8.208   2.195   7.064
 3768POPC   C4B48946   8.208   2.230   7.364
 3769POPC   NC348947  10.490   8.939   5.564
 3769POPC   PO448948  10.523   9.006   5.864
 3769POPC   GL148949  10.478   8.951   6.164
 3769POPC   GL248950  10.645   9.031   6.164
 3769POPC   C1A48951  10.509   8.963   6.464
 3769POPC   D2A48952  10.563   8.952   6.764
 3769POPC   C3A48953  10.483   9.009   7.064
 3769POPC   C4A48954  10.510   9.001   7.364
 3769POPC   C1B48955  10.776   9.127   6.464
 3769POPC   C2B48956  10.775   9.044   6.764
 3769POPC   C3B48957  10.750   9.041   7.064
 3769POPC   C4B48958  10.764   9.068   7.364
 3770POPC   NC348959   5.880  19.848   5.564
 3770POPC   PO448960   5.843  19.804   5.864
 3770POPC   GL148961   5.875  19.866   6.164
 3770POPC   GL248962   5.777  19.895   6.164
 3770POPC   C1A48963   5.883  19.841   6.464
 3770POPC   D2A48964   5.868  19.834   6.764
 3770POPC   C3A48965   5.841  19.819   7.064
 3770POPC   C4A48966   5.878  19.808   7.364
 3770POPC   C1B48967   5.620  19.995   6.464
 3770POPC   C2B48968   5.638  20.007   6.764
 3770POPC   C3B48969   5.650  19.999   7.064
 3770POPC   C4B48970   5.684  19.987   7.364
 3771POPC   NC348971  44.672  43.842   5.564
 3771POPC   PO448972  44.642  43.851   5.864
 3771POPC   GL148973  44.626  43.923   6.164
 3771POPC   GL248974  44.587  44.039   6.164
 3771POPC   C1A48975  44.707  43.929   6.464
 3771POPC   D2A48976  44.678  43.904   6.764
 3771POPC   C3A48977  44.631  43.892   7.064
 3771POPC   C4A48978  44.640  43.873   7.364
 3771POPC   C1B48979  44.535  44.119   6.464
 3771POPC   C2B48980  44.540  44.127   6.764
 3771POPC   C3B48981  44.519  44.152   7.064
 3771POPC   C4B48982  44.601  44.095   7.364
 3772POPC   NC348983  33.808  10.548   5.564
 3772POPC   PO448984  33.818  10.530   5.864
 3772POPC   GL148985  33.770  10.519   6.164
 3772POPC   GL248986  33.707  10.594   6.164
 3772POPC   C1A48987  33.846  10.485   6.464
 3772POPC   D2A48988  33.786  10.568   6.764
 3772POPC   C3A48989  33.752  10.532   7.064
 3772POPC   C4A48990  33.761  10.547   7.364
 3772POPC   C1B48991  33.534  10.630   6.464
 3772POPC   C2B48992  33.552  10.644   6.764
 3772POPC   C3B48993  33.600  10.601   7.064
 3772POPC   C4B48994  33.587  10.606   7.364
 3773POPC   NC348995  37.634  34.575   5.564
 3773POPC   PO448996  37.670  34.544   5.864
 3773POPC   GL148997  37.718  34.558   6.164
 3773POPC   GL248998  37.512  34.565   6.164
 3773POPC   C1A48999  37.689  34.590   6.464
 3773POPC   D2A49000  37.723  34.547   6.764
 3773POPC   C3A49001  37.713  34.615   7.064
 3773POPC   C4A49002  37.681  34.605   7.364
 3773POPC   C1B49003  37.463  34.530   6.464
 3773POPC   C2B49004  37.402  34.529   6.764
 3773POPC   C3B49005  37.470  34.541   7.064
 3773POPC   C4B49006  37.490  34.455   7.364
 3774POPC   NC349007  12.073  12.119   5.564
 3774POPC   PO449008  12.108  12.029   5.864
 3774POPC   GL149009  12.108  12.041   6.164
 3774POPC   GL249010  12.152  12.224   6.164
 3774POPC   C1A49011  12.074  12.110   6.464
 3774POPC   D2A49012  12.040  12.105   6.764
 3774POPC   C3A49013  12.085  12.079   7.064
 3774POPC   C4A49014  12.031  12.070   7.364
 3774POPC   C1B49015  12.229  12.312   6.464
 3774POPC   C2B49016  12.214  12.273   6.764
 3774POPC   C3B49017  12.216  12.263   7.064
 3774POPC   C4B49018  12.210  12.304   7.364
 3775POPC   NC349019   1.953   4.298   5.564
 3775POPC   PO449020   1.958   4.282   5.864
 3775POPC   GL149021   2.038   4.354   6.164
 3775POPC   GL249022   2.083   4.194   6.164
 3775POPC   C1A49023   1.947   4.359   6.464
 3775POPC   D2A49024   1.978   4.326   6.764
 3775POPC   C3A49025   1.981   4.348   7.064
 3775POPC   C4A49026   2.026   4.356   7.364
 3775POPC   C1B49027   2.102   4.153   6.464
 3775POPC   C2B49028   2.112   4.094   6.764
 3775POPC   C3B49029   2.186   4.157   7.064
 3775POPC   C4B49030   2.128   4.099   7.364
 3776POPC   NC349031  19.799  15.949   5.564
 3776POPC   PO449032  19.843  15.977   5.864
 3776POPC   GL149033  19.883  15.989   6.164
 3776POPC   GL249034  19.809  15.877   6.164
 3776POPC   C1A49035  19.842  15.980   6.464
 3776POPC   D2A49036  19.801  15.988   6.764
 3776POPC   C3A49037  19.798  15.998   7.064
 3776POPC   C4A49038  19.871  16.001   7.364
 3776POPC   C1B49039  19.774  15.677   6.464
 3776POPC   C2B49040  19.773  15.715   6.764
 3776POPC   C3B49041  19.818  15.751   7.064
 3776POPC   C4B49042  19.868  15.670   7.364
 3777POPC   NC349043   1.966  20.573   5.564
 3777POPC   PO449044   1.966  20.652   5.864
 3777POPC   GL149045   2.036  20.627   6.164
 3777POPC   GL249046   1.899  20.679   6.164
 3777POPC   C1A49047   1.999  20.613   6.464
 3777POPC   D2A49048   2.013  20.591   6.764
 3777POPC   C3A49049   2.008  20.573   7.064
 3777POPC   C4A49050   2.010  20.604   7.364
 3777POPC   C1B49051   1.706  20.679   6.464
 3777POPC   C2B49052   1.707  20.679   6.764
 3777POPC   C3B49053   1.788  20.664   7.064
 3777POPC   C4B49054   1.754  20.649   7.364
 3778POPC   NC349055  33.789  43.139   5.564
 3778POPC   PO449056  33.843  43.061   5.864
 3778POPC   GL149057  33.833  43.073   6.164
 3778POPC   GL249058  33.829  43.013   6.164
 3778POPC   C1A49059  33.809  43.069   6.464
 3778POPC   D2A49060  33.815  43.082   6.764
 3778POPC   C3A49061  33.818  43.108   7.064
 3778POPC   C4A49062  33.818  43.151   7.364
 3778POPC   C1B49063  33.920  42.874   6.464
 3778POPC   C2B49064  33.899  42.877   6.764
 3778POPC   C3B49065  33.911  42.860   7.064
 3778POPC   C4B49066  33.905  42.895   7.364
 3779POPC   NC349067  15.149  29.896   5.564
 3779POPC   PO449068  15.203  29.877   5.864
 3779POPC   GL149069  15.163  29.917   6.164
 3779POPC   GL249070  15.164  29.755   6.164
 3779POPC   C1A49071  15.134  29.915   6.464
 3779POPC   D2A49072  15.202  29.961   6.764
 3779POPC   C3A49073  15.201  29.895   7.064
 3779POPC   C4A49074  15.199  29.907   7.364
 3779POPC   C1B49075  15.089  29.645   6.464
 3779POPC   C2B49076  15.138  29.654   6.764
 3779POPC   C3B49077  15.163  29.663   7.064
 3779POPC   C4B49078  15.164  29.644   7.364
 3780POPC   NC349079  32.995  36.951   5.564
 3780POPC   PO449080  32.996  36.869   5.864
 3780POPC   GL149081  33.002  36.953   6.164
 3780POPC   GL249082  33.110  36.809   6.164
 3780POPC   C1A49083  33.005  36.888   6.464
 3780POPC   D2A49084  33.053  36.892   6.764
 3780POPC   C3A49085  33.023  36.874   7.064
 3780POPC   C4A49086  33.003  36.927   7.364
 3780POPC   C1B49087  33.148  36.721   6.464
 3780POPC   C2B49088  33.150  36.636   6.764
 3780POPC   C3B49089  33.160  36.661   7.064
 3780POPC   C4B49090  33.103  36.675   7.364
 3781POPC   NC349091  43.070  22.910   5.564
 3781POPC   PO449092  43.061  22.905   5.864
 3781POPC   GL149093  43.068  22.984   6.164
 3781POPC   GL249094  43.177  22.844   6.164
 3781POPC   C1A49095  43.159  22.901   6.464
 3781POPC   D2A49096  43.072  22.983   6.764
 3781POPC   C3A49097  43.067  22.954   7.064
 3781POPC   C4A49098  43.068  22.958   7.364
 3781POPC   C1B49099  43.270  22.781   6.464
 3781POPC   C2B49100  43.269  22.826   6.764
 3781POPC   C3B49101  43.348  22.767   7.064
 3781POPC   C4B49102  43.309  22.786   7.364
 3782POPC   NC349103  41.540  33.821   5.564
 3782POPC   PO449104  41.552  33.799   5.864
 3782POPC   GL149105  41.603  33.771   6.164
 3782POPC   GL249106  41.634  33.926   6.164
 3782POPC   C1A49107  41.602  33.792   6.464
 3782POPC   D2A49108  41.514  33.764   6.764
 3782POPC   C3A49109  41.535  33.751   7.064
 3782POPC   C4A49110  41.538  33.768   7.364
 3782POPC   C1B49111  41.759  33.993   6.464
 3782POPC   C2B49112  41.717  33.995   6.764
 3782POPC   C3B49113  41.746  34.001   7.064
 3782POPC   C4B49114  41.723  33.934   7.364
 3783POPC   NC349115  43.114  20.582   5.564
 3783POPC   PO449116  43.145  20.582   5.864
 3783POPC   GL149117  43.156  20.638   6.164
 3783POPC   GL249118  43.207  20.719   6.164
 3783POPC   C1A49119  43.141  20.588   6.464
 3783POPC   D2A49120  43.082  20.623   6.764
 3783POPC   C3A49121  43.156  20.575   7.064
 3783POPC   C4A49122  43.129  20.639   7.364
 3783POPC   C1B49123  43.348  20.699   6.464
 3783POPC   C2B49124  43.323  20.723   6.764
 3783POPC   C3B49125  43.373  20.697   7.064
 3783POPC   C4B49126  43.278  20.710   7.364
 3784POPC   NC349127  34.569  12.124   5.564
 3784POPC   PO449128  34.530  12.115   5.864
 3784POPC   GL149129  34.575  12.037   6.164
 3784POPC   GL249130  34.520  11.910   6.164
 3784POPC   C1A49131  34.555  12.048   6.464
 3784POPC   D2A49132  34.563  12.078   6.764
 3784POPC   C3A49133  34.610  12.116   7.064
 3784POPC   C4A49134  34.584  12.082   7.364
 3784POPC   C1B49135  34.565  11.816   6.464
 3784POPC   C2B49136  34.508  11.785   6.764
 3784POPC   C3B49137  34.516  11.794   7.064
 3784POPC   C4B49138  34.495  11.833   7.364
 3785POPC   NC349139  14.355  32.289   5.564
 3785POPC   PO449140  14.448  32.221   5.864
 3785POPC   GL149141  14.394  32.272   6.164
 3785POPC   GL249142  14.355  32.408   6.164
 3785POPC   C1A49143  14.423  32.236   6.464
 3785POPC   D2A49144  14.420  32.263   6.764
 3785POPC   C3A49145  14.404  32.285   7.064
 3785POPC   C4A49146  14.401  32.272   7.364
 3785POPC   C1B49147  14.389  32.541   6.464
 3785POPC   C2B49148  14.364  32.481   6.764
 3785POPC   C3B49149  14.399  32.501   7.064
 3785POPC   C4B49150  14.400  32.500   7.364
 3786POPC   NC349151  44.634  28.384   5.564
 3786POPC   PO449152  44.626  28.391   5.864
 3786POPC   GL149153  44.613  28.414   6.164
 3786POPC   GL249154  44.596  28.290   6.164
 3786POPC   C1A49155  44.701  28.382   6.464
 3786POPC   D2A49156  44.702  28.332   6.764
 3786POPC   C3A49157  44.645  28.325   7.064
 3786POPC   C4A49158  44.644  28.343   7.364
 3786POPC   C1B49159  44.478  28.207   6.464
 3786POPC   C2B49160  44.399  28.237   6.764
 3786POPC   C3B49161  44.409  28.215   7.064
 3786POPC   C4B49162  44.458  28.221   7.364
 3787POPC   NC349163  40.041   8.239   5.564
 3787POPC   PO449164  40.049   8.244   5.864
 3787POPC   GL149165  39.957   8.220   6.164
 3787POPC   GL249166  39.983   8.340   6.164
 3787POPC   C1A49167  39.984   8.161   6.464
 3787POPC   D2A49168  40.031   8.197   6.764
 3787POPC   C3A49169  39.979   8.168   7.064
 3787POPC   C4A49170  39.982   8.194   7.364
 3787POPC   C1B49171  40.072   8.403   6.464
 3787POPC   C2B49172  40.025   8.413   6.764
 3787POPC   C3B49173  40.045   8.447   7.064
 3787POPC   C4B49174  40.088   8.477   7.364
 3788POPC   NC349175  42.358  32.241   5.564
 3788POPC   PO449176  42.363  32.248   5.864
 3788POPC   GL149177  42.294  32.240   6.164
 3788POPC   GL249178  42.198  32.306   6.164
 3788POPC   C1A49179  42.371  32.222   6.464
 3788POPC   D2A49180  42.361  32.288   6.764
 3788POPC   C3A49181  42.331  32.206   7.064
 3788POPC   C4A49182  42.322  32.236   7.364
 3788POPC   C1B49183  42.113  32.410   6.464
 3788POPC   C2B49184  42.188  32.448   6.764
 3788POPC   C3B49185  42.098  32.449   7.064
 3788POPC   C4B49186  42.145  32.376   7.364
 3789POPC   NC349187   8.969  40.786   5.564
 3789POPC   PO449188   8.999  40.738   5.864
 3789POPC   GL149189   8.958  40.737   6.164
 3789POPC   GL249190   9.091  40.829   6.164
 3789POPC   C1A49191   8.956  40.759   6.464
 3789POPC   D2A49192   9.004  40.809   6.764
 3789POPC   C3A49193   8.977  40.821   7.064
 3789POPC   C4A49194   8.983  40.762   7.364
 3789POPC   C1B49195   9.196  40.822   6.464
 3789POPC   C2B49196   9.255  40.831   6.764
 3789POPC   C3B49197   9.207  40.839   7.064
 3789POPC   C4B49198   9.205  40.748   7.364
 3790POPC   NC349199   9.020   7.393   5.564
 3790POPC   PO449200   8.941   7.465   5.864
 3790POPC   GL149201   8.972   7.461   6.164
 3790POPC   GL249202   8.849   7.505   6.164
 3790POPC   C1A49203   8.974   7.378   6.464
 3790POPC   D2A49204   8.982   7.430   6.764
 3790POPC   C3A49205   9.003   7.374   7.064
 3790POPC   C4A49206   9.021   7.381   7.364
 3790POPC   C1B49207   8.731   7.484   6.464
 3790POPC   C2B49208   8.771   7.508   6.764
 3790POPC   C3B49209   8.718   7.528   7.064
 3790POPC   C4B49210   8.759   7.480   7.364
 3791POPC   NC349211  33.060  43.104   5.564
 3791POPC   PO449212  33.034  43.120   5.864
 3791POPC   GL149213  33.002  43.061   6.164
 3791POPC   GL249214  32.997  43.254   6.164
 3791POPC   C1A49215  33.059  43.104   6.464
 3791POPC   D2A49216  33.069  43.152   6.764
 3791POPC   C3A49217  32.987  43.075   7.064
 3791POPC   C4A49218  32.981  43.105   7.364
 3791POPC   C1B49219  33.003  43.376   6.464
 3791POPC   C2B49220  32.980  43.391   6.764
 3791POPC   C3B49221  33.056  43.395   7.064
 3791POPC   C4B49222  32.989  43.406   7.364
 3792POPC   NC349223   2.793  41.526   5.564
 3792POPC   PO449224   2.718  41.556   5.864
 3792POPC   GL149225   2.758  41.548   6.164
 3792POPC   GL249226   2.645  41.631   6.164
 3792POPC   C1A49227   2.741  41.585   6.464
 3792POPC   D2A49228   2.756  41.583   6.764
 3792POPC   C3A49229   2.778  41.537   7.064
 3792POPC   C4A49230   2.720  41.549   7.364
 3792POPC   C1B49231   2.523  41.644   6.464
 3792POPC   C2B49232   2.504  41.681   6.764
 3792POPC   C3B49233   2.569  41.699   7.064
 3792POPC   C4B49234   2.498  41.633   7.364
 3793POPC   NC349235  33.836  26.066   5.564
 3793POPC   PO449236  33.764  26.065   5.864
 3793POPC   GL149237  33.811  26.075   6.164
 3793POPC   GL249238  33.734  26.093   6.164
 3793POPC   C1A49239  33.768  26.086   6.464
 3793POPC   D2A49240  33.770  26.055   6.764
 3793POPC   C3A49241  33.821  26.083   7.064
 3793POPC   C4A49242  33.849  26.085   7.364
 3793POPC   C1B49243  33.684  26.245   6.464
 3793POPC   C2B49244  33.681  26.260   6.764
 3793POPC   C3B49245  33.641  26.193   7.064
 3793POPC   C4B49246  33.630  26.288   7.364
 3794POPC   NC349247  15.200  12.878   5.564
 3794POPC   PO449248  15.179  12.805   5.864
 3794POPC   GL149249  15.172  12.872   6.164
 3794POPC   GL249250  15.240  12.685   6.164
 3794POPC   C1A49251  15.158  12.887   6.464
 3794POPC   D2A49252  15.191  12.896   6.764
 3794POPC   C3A49253  15.220  12.883   7.064
 3794POPC   C4A49254  15.134  12.901   7.364
 3794POPC   C1B49255  15.197  12.608   6.464
 3794POPC   C2B49256  15.221  12.592   6.764
 3794POPC   C3B49257  15.202  12.602   7.064
 3794POPC   C4B49258  15.215  12.633   7.364
 3795POPC   NC349259  15.215  43.871   5.564
 3795POPC   PO449260  15.130  43.934   5.864
 3795POPC   GL149261  15.226  43.852   6.164
 3795POPC   GL249262  15.223  44.029   6.164
 3795POPC   C1A49263  15.184  43.906   6.464
 3795POPC   D2A49264  15.189  43.845   6.764
 3795POPC   C3A49265  15.139  43.877   7.064
 3795POPC   C4A49266  15.224  43.910   7.364
 3795POPC   C1B49267  15.314  44.120   6.464
 3795POPC   C2B49268  15.289  44.088   6.764
 3795POPC   C3B49269  15.369  44.081   7.064
 3795POPC   C4B49270  15.328  44.109   7.364
 3796POPC   NC349271  31.436  43.123   5.564
 3796POPC   PO449272  31.491  43.088   5.864
 3796POPC   GL149273  31.448  43.067   6.164
 3796POPC   GL249274  31.571  43.155   6.164
 3796POPC   C1A49275  31.442  43.063   6.464
 3796POPC   D2A49276  31.461  43.089   6.764
 3796POPC   C3A49277  31.517  43.068   7.064
 3796POPC   C4A49278  31.436  43.110   7.364
 3796POPC   C1B49279  31.741  43.219   6.464
 3796POPC   C2B49280  31.663  43.261   6.764
 3796POPC   C3B49281  31.680  43.203   7.064
 3796POPC   C4B49282  31.745  43.184   7.364
 3797POPC   NC349283  13.592  41.559   5.564
 3797POPC   PO449284  13.676  41.581   5.864
 3797POPC   GL149285  13.654  41.566   6.164
 3797POPC   GL249286  13.610  41.650   6.164
 3797POPC   C1A49287  13.675  41.553   6.464
 3797POPC   D2A49288  13.587  41.590   6.764
 3797POPC   C3A49289  13.659  41.534   7.064
 3797POPC   C4A49290  13.602  41.514   7.364
 3797POPC   C1B49291  13.700  41.771   6.464
 3797POPC   C2B49292  13.706  41.794   6.764
 3797POPC   C3B49293  13.682  41.757   7.064
 3797POPC   C4B49294  13.625  41.806   7.364
 3798POPC   NC349295   3.508  23.674   5.564
 3798POPC   PO449296   3.585  23.722   5.864
 3798POPC   GL149297   3.529  23.753   6.164
 3798POPC   GL249298   3.418  23.667   6.164
 3798POPC   C1A49299   3.537  23.704   6.464
 3798POPC   D2A49300   3.548  23.665   6.764
 3798POPC   C3A49301   3.516  23.758   7.064
 3798POPC   C4A49302   3.588  23.672   7.364
 3798POPC   C1B49303   3.348  23.523   6.464
 3798POPC   C2B49304   3.386  23.576   6.764
 3798POPC   C3B49305   3.361  23.591   7.064
 3798POPC   C4B49306   3.365  23.553   7.364
 3799POPC   NC349307   4.317  13.594   5.564
 3799POPC   PO449308   4.272  13.639   5.864
 3799POPC   GL149309   4.289  13.665   6.164
 3799POPC   GL249310   4.181  13.717   6.164
 3799POPC   C1A49311   4.353  13.581   6.464
 3799POPC   D2A49312   4.291  13.662   6.764
 3799POPC   C3A49313   4.326  13.608   7.064
 3799POPC   C4A49314   4.271  13.583   7.364
 3799POPC   C1B49315   4.088  13.747   6.464
 3799POPC   C2B49316   4.095  13.735   6.764
 3799POPC   C3B49317   4.067  13.709   7.064
 3799POPC   C4B49318   4.054  13.751   7.364
 3800POPC   NC349319  37.659  19.079   5.564
 3800POPC   PO449320  37.696  19.039   5.864
 3800POPC   GL149321  37.704  19.104   6.164
 3800POPC   GL249322  37.739  19.195   6.164
 3800POPC   C1A49323  37.696  19.091   6.464
 3800POPC   D2A49324  37.686  19.052   6.764
 3800POPC   C3A49325  37.676  19.057   7.064
 3800POPC   C4A49326  37.638  19.010   7.364
 3800POPC   C1B49327  37.759  19.323   6.464
 3800POPC   C2B49328  37.760  19.329   6.764
 3800POPC   C3B49329  37.761  19.309   7.064
 3800POPC   C4B49330  37.801  19.301   7.364
 3801POPC   NC349331   2.763  22.949   5.564
 3801POPC   PO449332   2.774  22.956   5.864
 3801POPC   GL149333   2.801  22.961   6.164
 3801POPC   GL249334   2.727  23.061   6.164
 3801POPC   C1A49335   2.732  22.982   6.464
 3801POPC   D2A49336   2.779  22.899   6.764
 3801POPC   C3A49337   2.792  22.986   7.064
 3801POPC   C4A49338   2.809  22.984   7.364
 3801POPC   C1B49339   2.631  23.140   6.464
 3801POPC   C2B49340   2.578  23.160   6.764
 3801POPC   C3B49341   2.540  23.108   7.064
 3801POPC   C4B49342   2.562  23.129   7.364
 3802POPC   NC349343  17.474  12.058   5.564
 3802POPC   PO449344  17.517  12.100   5.864
 3802POPC   GL149345  17.497  12.093   6.164
 3802POPC   GL249346  17.463  12.000   6.164
 3802POPC   C1A49347  17.532  12.118   6.464
 3802POPC   D2A49348  17.529  12.083   6.764
 3802POPC   C3A49349  17.472  12.071   7.064
 3802POPC   C4A49350  17.485  12.094   7.364
 3802POPC   C1B49351  17.427  11.853   6.464
 3802POPC   C2B49352  17.468  11.845   6.764
 3802POPC   C3B49353  17.453  11.856   7.064
 3802POPC   C4B49354  17.493  11.833   7.364
 3803POPC   NC349355  36.890  27.606   5.564
 3803POPC   PO449356  36.869  27.632   5.864
 3803POPC   GL149357  36.865  27.596   6.164
 3803POPC   GL249358  36.957  27.502   6.164
 3803POPC   C1A49359  36.937  27.636   6.464
 3803POPC   D2A49360  36.919  27.544   6.764
 3803POPC   C3A49361  36.938  27.583   7.064
 3803POPC   C4A49362  36.939  27.586   7.364
 3803POPC   C1B49363  37.096  27.444   6.464
 3803POPC   C2B49364  37.104  27.402   6.764
 3803POPC   C3B49365  37.034  27.418   7.064
 3803POPC   C4B49366  37.046  27.448   7.364
 3804POPC   NC349367  36.151  44.693   5.564
 3804POPC   PO449368  36.177  44.626   5.864
 3804POPC   GL149369  36.085  44.658   6.164
 3804POPC   GL249370  36.265  44.639   6.164
 3804POPC   C1A49371  36.139  44.653   6.464
 3804POPC   D2A49372  36.093  44.668   6.764
 3804POPC   C3A49373  36.127  44.660   7.064
 3804POPC   C4A49374  36.153  44.645   7.364
 3804POPC   C1B49375  36.400  44.638   6.464
 3804POPC   C2B49376  36.367  44.590   6.764
 3804POPC   C3B49377  36.368  44.654   7.064
 3804POPC   C4B49378  36.410  44.634   7.364
 3805POPC   NC349379  21.423  23.758   5.564
 3805POPC   PO449380  21.389  23.735   5.864
 3805POPC   GL149381  21.431  23.751   6.164
 3805POPC   GL249382  21.273  23.777   6.164
 3805POPC   C1A49383  21.409  23.716   6.464
 3805POPC   D2A49384  21.415  23.709   6.764
 3805POPC   C3A49385  21.396  23.688   7.064
 3805POPC   C4A49386  21.403  23.712   7.364
 3805POPC   C1B49387  21.197  23.898   6.464
 3805POPC   C2B49388  21.272  23.927   6.764
 3805POPC   C3B49389  21.256  23.905   7.064
 3805POPC   C4B49390  21.237  23.890   7.364
 3806POPC   NC349391  36.109   6.597   5.564
 3806POPC   PO449392  36.122   6.681   5.864
 3806POPC   GL149393  36.147   6.635   6.164
 3806POPC   GL249394  36.197   6.569   6.164
 3806POPC   C1A49395  36.175   6.674   6.464
 3806POPC   D2A49396  36.113   6.648   6.764
 3806POPC   C3A49397  36.154   6.645   7.064
 3806POPC   C4A49398  36.134   6.617   7.364
 3806POPC   C1B49399  36.221   6.437   6.464
 3806POPC   C2B49400  36.282   6.444   6.764
 3806POPC   C3B49401  36.272   6.388   7.064
 3806POPC   C4B49402  36.292   6.380   7.364
 3807POPC   NC349403   2.024  15.210   5.564
 3807POPC   PO449404   1.954  15.155   5.864
 3807POPC   GL149405   1.948  15.216   6.164
 3807POPC   GL249406   1.897  15.132   6.164
 3807POPC   C1A49407   1.965  15.194   6.464
 3807POPC   D2A49408   2.028  15.205   6.764
 3807POPC   C3A49409   1.973  15.154   7.064
 3807POPC   C4A49410   2.037  15.194   7.364
 3807POPC   C1B49411   1.728  15.127   6.464
 3807POPC   C2B49412   1.743  15.113   6.764
 3807POPC   C3B49413   1.743  15.146   7.064
 3807POPC   C4B49414   1.764  15.076   7.364
 3808POPC   NC349415  30.682   2.738   5.564
 3808POPC   PO449416  30.686   2.727   5.864
 3808POPC   GL149417  30.670   2.801   6.164
 3808POPC   GL249418  30.703   2.593   6.164
 3808POPC   C1A49419  30.670   2.728   6.464
 3808POPC   D2A49420  30.662   2.741   6.764
 3808POPC   C3A49421  30.747   2.735   7.064
 3808POPC   C4A49422  30.740   2.787   7.364
 3808POPC   C1B49423  30.759   2.499   6.464
 3808POPC   C2B49424  30.685   2.474   6.764
 3808POPC   C3B49425  30.751   2.479   7.064
 3808POPC   C4B49426  30.739   2.560   7.364
 3809POPC   NC349427  36.876  39.999   5.564
 3809POPC   PO449428  36.856  40.018   5.864
 3809POPC   GL149429  36.869  40.009   6.164
 3809POPC   GL249430  36.921  40.138   6.164
 3809POPC   C1A49431  36.948  40.048   6.464
 3809POPC   D2A49432  36.948  40.045   6.764
 3809POPC   C3A49433  36.908  39.962   7.064
 3809POPC   C4A49434  36.900  39.967   7.364
 3809POPC   C1B49435  36.954  40.276   6.464
 3809POPC   C2B49436  36.939  40.258   6.764
 3809POPC   C3B49437  36.957  40.238   7.064
 3809POPC   C4B49438  36.975  40.301   7.364
 3810POPC   NC349439   7.430  21.388   5.564
 3810POPC   PO449440   7.374  21.342   5.864
 3810POPC   GL149441   7.444  21.380   6.164
 3810POPC   GL249442   7.435  21.472   6.164
 3810POPC   C1A49443   7.428  21.378   6.464
 3810POPC   D2A49444   7.394  21.364   6.764
 3810POPC   C3A49445   7.385  21.380   7.064
 3810POPC   C4A49446   7.388  21.403   7.364
 3810POPC   C1B49447   7.483  21.681   6.464
 3810POPC   C2B49448   7.488  21.600   6.764
 3810POPC   C3B49449   7.500  21.668   7.064
 3810POPC   C4B49450   7.426  21.625   7.364
 3811POPC   NC349451   1.249  44.654   5.564
 3811POPC   PO449452   1.166  44.710   5.864
 3811POPC   GL149453   1.230  44.630   6.164
 3811POPC   GL249454   1.168  44.740   6.164
 3811POPC   C1A49455   1.197  44.671   6.464
 3811POPC   D2A49456   1.164  44.664   6.764
 3811POPC   C3A49457   1.204  44.678   7.064
 3811POPC   C4A49458   1.258  44.667   7.364
 3811POPC   C1B49459   1.095  44.892   6.464
 3811POPC   C2B49460   1.113  44.836   6.764
 3811POPC   C3B49461   1.067  44.907   7.064
 3811POPC   C4B49462   1.112  44.853   7.364
 3812POPC   NC349463  36.163  12.814   5.564
 3812POPC   PO449464  36.103  12.862   5.864
 3812POPC   GL149465  36.103  12.832   6.164
 3812POPC   GL249466  36.085  12.898   6.164
 3812POPC   C1A49467  36.107  12.856   6.464
 3812POPC   D2A49468  36.098  12.877   6.764
 3812POPC   C3A49469  36.149  12.835   7.064
 3812POPC   C4A49470  36.113  12.859   7.364
 3812POPC   C1B49471  35.944  13.026   6.464
 3812POPC   C2B49472  35.963  13.011   6.764
 3812POPC   C3B49473  36.004  13.039   7.064
 3812POPC   C4B49474  35.991  13.084   7.364
 3813POPC   NC349475  18.257   1.944   5.564
 3813POPC   PO449476  18.329   1.943   5.864
 3813POPC   GL149477  18.254   1.992   6.164
 3813POPC   GL249478  18.287   1.892   6.164
 3813POPC   C1A49479  18.303   1.982   6.464
 3813POPC   D2A49480  18.254   2.010   6.764
 3813POPC   C3A49481  18.293   1.976   7.064
 3813POPC   C4A49482  18.300   1.979   7.364
 3813POPC   C1B49483  18.300   1.762   6.464
 3813POPC   C2B49484  18.276   1.761   6.764
 3813POPC   C3B49485  18.332   1.742   7.064
 3813POPC   C4B49486  18.295   1.728   7.364
 3814POPC   NC349487   7.442  12.119   5.564
 3814POPC   PO449488   7.376  12.076   5.864
 3814POPC   GL149489   7.401  12.071   6.164
 3814POPC   GL249490   7.281  12.127   6.164
 3814POPC   C1A49491   7.411  12.105   6.464
 3814POPC   D2A49492   7.462  12.045   6.764
 3814POPC   C3A49493   7.429  12.066   7.064
 3814POPC   C4A49494   7.375  12.026   7.364
 3814POPC   C1B49495   7.222  12.205   6.464
 3814POPC   C2B49496   7.231  12.219   6.764
 3814POPC   C3B49497   7.197  12.213   7.064
 3814POPC   C4B49498   7.212  12.242   7.364
 3815POPC   NC349499  40.751  31.429   5.564
 3815POPC   PO449500  40.814  31.496   5.864
 3815POPC   GL149501  40.743  31.472   6.164
 3815POPC   GL249502  40.804  31.353   6.164
 3815POPC   C1A49503  40.818  31.473   6.464
 3815POPC   D2A49504  40.750  31.474   6.764
 3815POPC   C3A49505  40.764  31.489   7.064
 3815POPC   C4A49506  40.737  31.459   7.364
 3815POPC   C1B49507  40.691  31.247   6.464
 3815POPC   C2B49508  40.705  31.232   6.764
 3815POPC   C3B49509  40.754  31.233   7.064
 3815POPC   C4B49510  40.776  31.207   7.364
 3816POPC   NC349511  25.999  23.719   5.564
 3816POPC   PO449512  26.035  23.722   5.864
 3816POPC   GL149513  26.079  23.728   6.164
 3816POPC   GL249514  25.930  23.740   6.164
 3816POPC   C1A49515  26.076  23.743   6.464
 3816POPC   D2A49516  26.038  23.691   6.764
 3816POPC   C3A49517  26.031  23.743   7.064
 3816POPC   C4A49518  26.019  23.699   7.364
 3816POPC   C1B49519  25.844  23.746   6.464
 3816POPC   C2B49520  25.762  23.753   6.764
 3816POPC   C3B49521  25.811  23.749   7.064
 3816POPC   C4B49522  25.783  23.749   7.364
 3817POPC   NC349523  37.694  35.317   5.564
 3817POPC   PO449524  37.693  35.396   5.864
 3817POPC   GL149525  37.634  35.384   6.164
 3817POPC   GL249526  37.780  35.352   6.164
 3817POPC   C1A49527  37.715  35.328   6.464
 3817POPC   D2A49528  37.682  35.323   6.764
 3817POPC   C3A49529  37.685  35.324   7.064
 3817POPC   C4A49530  37.645  35.351   7.364
 3817POPC   C1B49531  37.956  35.389   6.464
 3817POPC   C2B49532  37.945  35.382   6.764
 3817POPC   C3B49533  37.961  35.340   7.064
 3817POPC   C4B49534  37.901  35.425   7.364
 3818POPC   NC349535  18.245  36.886   5.564
 3818POPC   PO449536  18.264  36.880   5.864
 3818POPC   GL149537  18.244  36.868   6.164
 3818POPC   GL249538  18.199  36.986   6.164
 3818POPC   C1A49539  18.262  36.871   6.464
 3818POPC   D2A49540  18.307  36.921   6.764
 3818POPC   C3A49541  18.263  36.900   7.064
 3818POPC   C4A49542  18.260  36.918   7.364
 3818POPC   C1B49543  18.067  36.974   6.464
 3818POPC   C2B49544  18.016  36.972   6.764
 3818POPC   C3B49545  18.059  36.976   7.064
 3818POPC   C4B49546  18.083  37.008   7.364
 3819POPC   NC349547  28.345  43.134   5.564
 3819POPC   PO449548  28.401  43.072   5.864
 3819POPC   GL149549  28.392  43.121   6.164
 3819POPC   GL249550  28.292  43.223   6.164
 3819POPC   C1A49551  28.368  43.136   6.464
 3819POPC   D2A49552  28.381  43.100   6.764
 3819POPC   C3A49553  28.359  43.158   7.064
 3819POPC   C4A49554  28.365  43.085   7.364
 3819POPC   C1B49555  28.249  43.395   6.464
 3819POPC   C2B49556  28.312  43.336   6.764
 3819POPC   C3B49557  28.327  43.338   7.064
 3819POPC   C4B49558  28.326  43.364   7.364
 3820POPC   NC349559   7.440  15.906   5.564
 3820POPC   PO449560   7.397  15.961   5.864
 3820POPC   GL149561   7.406  15.910   6.164
 3820POPC   GL249562   7.484  15.818   6.164
 3820POPC   C1A49563   7.420  16.001   6.464
 3820POPC   D2A49564   7.379  15.974   6.764
 3820POPC   C3A49565   7.456  15.920   7.064
 3820POPC   C4A49566   7.437  15.907   7.364
 3820POPC   C1B49567   7.547  15.751   6.464
 3820POPC   C2B49568   7.520  15.687   6.764
 3820POPC   C3B49569   7.460  15.741   7.064
 3820POPC   C4B49570   7.502  15.720   7.364
 3821POPC   NC349571  25.992  12.828   5.564
 3821POPC   PO449572  26.044  12.892   5.864
 3821POPC   GL149573  26.045  12.859   6.164
 3821POPC   GL249574  25.883  12.949   6.164
 3821POPC   C1A49575  26.015  12.846   6.464
 3821POPC   D2A49576  26.073  12.818   6.764
 3821POPC   C3A49577  26.076  12.818   7.064
 3821POPC   C4A49578  26.068  12.862   7.364
 3821POPC   C1B49579  25.834  13.024   6.464
 3821POPC   C2B49580  25.870  12.996   6.764
 3821POPC   C3B49581  25.841  12.940   7.064
 3821POPC   C4B49582  25.802  12.991   7.364
 3822POPC   NC349583  16.683  42.331   5.564
 3822POPC   PO449584  16.773  42.344   5.864
 3822POPC   GL149585  16.692  42.306   6.164
 3822POPC   GL249586  16.766  42.460   6.164
 3822POPC   C1A49587  16.716  42.365   6.464
 3822POPC   D2A49588  16.732  42.313   6.764
 3822POPC   C3A49589  16.755  42.365   7.064
 3822POPC   C4A49590  16.693  42.353   7.364
 3822POPC   C1B49591  16.885  42.555   6.464
 3822POPC   C2B49592  16.827  42.512   6.764
 3822POPC   C3B49593  16.897  42.569   7.064
 3822POPC   C4B49594  16.862  42.555   7.364
 3823POPC   NC349595  31.506  17.501   5.564
 3823POPC   PO449596  31.517  17.468   5.864
 3823POPC   GL149597  31.474  17.544   6.164
 3823POPC   GL249598  31.536  17.612   6.164
 3823POPC   C1A49599  31.510  17.462   6.464
 3823POPC   D2A49600  31.496  17.468   6.764
 3823POPC   C3A49601  31.513  17.515   7.064
 3823POPC   C4A49602  31.485  17.531   7.364
 3823POPC   C1B49603  31.565  17.779   6.464
 3823POPC   C2B49604  31.576  17.788   6.764
 3823POPC   C3B49605  31.554  17.714   7.064
 3823POPC   C4B49606  31.520  17.716   7.364
 3824POPC   NC349607   4.352  15.215   5.564
 3824POPC   PO449608   4.287  15.165   5.864
 3824POPC   GL149609   4.268  15.157   6.164
 3824POPC   GL249610   4.259  15.249   6.164
 3824POPC   C1A49611   4.308  15.158   6.464
 3824POPC   D2A49612   4.281  15.225   6.764
 3824POPC   C3A49613   4.320  15.146   7.064
 3824POPC   C4A49614   4.303  15.209   7.364
 3824POPC   C1B49615   4.200  15.407   6.464
 3824POPC   C2B49616   4.238  15.378   6.764
 3824POPC   C3B49617   4.202  15.385   7.064
 3824POPC   C4B49618   4.288  15.407   7.364
 3825POPC   NC349619  12.066  22.178   5.564
 3825POPC   PO449620  12.096  22.124   5.864
 3825POPC   GL149621  12.062  22.176   6.164
 3825POPC   GL249622  11.941  22.079   6.164
 3825POPC   C1A49623  12.094  22.166   6.464
 3825POPC   D2A49624  12.070  22.132   6.764
 3825POPC   C3A49625  12.109  22.170   7.064
 3825POPC   C4A49626  12.063  22.155   7.364
 3825POPC   C1B49627  11.869  22.067   6.464
 3825POPC   C2B49628  11.808  22.088   6.764
 3825POPC   C3B49629  11.863  22.127   7.064
 3825POPC   C4B49630  11.802  22.126   7.364
 3826POPC   NC349631   2.798  30.678   5.564
 3826POPC   PO449632   2.766  30.731   5.864
 3826POPC   GL149633   2.770  30.661   6.164
 3826POPC   GL249634   2.849  30.564   6.164
 3826POPC   C1A49635   2.800  30.647   6.464
 3826POPC   D2A49636   2.765  30.650   6.764
 3826POPC   C3A49637   2.783  30.728   7.064
 3826POPC   C4A49638   2.718  30.674   7.364
 3826POPC   C1B49639   2.899  30.509   6.464
 3826POPC   C2B49640   2.878  30.519   6.764
 3826POPC   C3B49641   2.846  30.518   7.064
 3826POPC   C4B49642   2.918  30.486   7.364
 3827POPC   NC349643  38.485  27.619   5.564
 3827POPC   PO449644  38.490  27.636   5.864
 3827POPC   GL149645  38.437  27.568   6.164
 3827POPC   GL249646  38.399  27.701   6.164
 3827POPC   C1A49647  38.451  27.596   6.464
 3827POPC   D2A49648  38.493  27.604   6.764
 3827POPC   C3A49649  38.498  27.587   7.064
 3827POPC   C4A49650  38.432  27.605   7.364
 3827POPC   C1B49651  38.388  27.846   6.464
 3827POPC   C2B49652  38.382  27.883   6.764
 3827POPC   C3B49653  38.361  27.857   7.064
 3827POPC   C4B49654  38.363  27.791   7.364
 3828POPC   NC349655  15.199   8.938   5.564
 3828POPC   PO449656  15.187   8.923   5.864
 3828POPC   GL149657  15.227   8.935   6.164
 3828POPC   GL249658  15.082   9.025   6.164
 3828POPC   C1A49659  15.150   8.964   6.464
 3828POPC   D2A49660  15.167   8.962   6.764
 3828POPC   C3A49661  15.228   9.005   7.064
 3828POPC   C4A49662  15.137   8.971   7.364
 3828POPC   C1B49663  14.951   9.145   6.464
 3828POPC   C2B49664  14.989   9.096   6.764
 3828POPC   C3B49665  14.981   9.138   7.064
 3828POPC   C4B49666  15.042   9.155   7.364
 3829POPC   NC349667   3.590  33.061   5.564
 3829POPC   PO449668   3.556  32.990   5.864
 3829POPC   GL149669   3.566  33.050   6.164
 3829POPC   GL249670   3.428  32.970   6.164
 3829POPC   C1A49671   3.553  32.992   6.464
 3829POPC   D2A49672   3.502  33.041   6.764
 3829POPC   C3A49673   3.571  33.045   7.064
 3829POPC   C4A49674   3.513  32.990   7.364
 3829POPC   C1B49675   3.319  32.850   6.464
 3829POPC   C2B49676   3.350  32.823   6.764
 3829POPC   C3B49677   3.320  32.836   7.064
 3829POPC   C4B49678   3.299  32.830   7.364
 3830POPC   NC349679   1.994  10.513   5.564
 3830POPC   PO449680   2.013  10.560   5.864
 3830POPC   GL149681   1.959  10.548   6.164
 3830POPC   GL249682   1.884  10.441   6.164
 3830POPC   C1A49683   1.979  10.570   6.464
 3830POPC   D2A49684   1.965  10.482   6.764
 3830POPC   C3A49685   1.959  10.495   7.064
 3830POPC   C4A49686   2.018  10.533   7.364
 3830POPC   C1B49687   1.795  10.420   6.464
 3830POPC   C2B49688   1.738  10.505   6.764
 3830POPC   C3B49689   1.722  10.432   7.064
 3830POPC   C4B49690   1.713  10.484   7.364
 3831POPC   NC349691   2.732  15.227   5.564
 3831POPC   PO449692   2.797  15.214   5.864
 3831POPC   GL149693   2.744  15.158   6.164
 3831POPC   GL249694   2.653  15.070   6.164
 3831POPC   C1A49695   2.722  15.189   6.464
 3831POPC   D2A49696   2.779  15.156   6.764
 3831POPC   C3A49697   2.785  15.168   7.064
 3831POPC   C4A49698   2.774  15.148   7.364
 3831POPC   C1B49699   2.601  14.995   6.464
 3831POPC   C2B49700   2.538  15.068   6.764
 3831POPC   C3B49701   2.554  15.021   7.064
 3831POPC   C4B49702   2.598  15.073   7.364
 3832POPC   NC349703  30.656  15.143   5.564
 3832POPC   PO449704  30.700  15.173   5.864
 3832POPC   GL149705  30.694  15.177   6.164
 3832POPC   GL249706  30.607  15.175   6.164
 3832POPC   C1A49707  30.724  15.215   6.464
 3832POPC   D2A49708  30.719  15.142   6.764
 3832POPC   C3A49709  30.726  15.167   7.064
 3832POPC   C4A49710  30.701  15.200   7.364
 3832POPC   C1B49711  30.426  15.264   6.464
 3832POPC   C2B49712  30.463  15.223   6.764
 3832POPC   C3B49713  30.499  15.219   7.064
 3832POPC   C4B49714  30.508  15.294   7.364
 3833POPC   NC349715   6.690  16.755   5.564
 3833POPC   PO449716   6.645  16.749   5.864
 3833POPC   GL149717   6.634  16.734   6.164
 3833POPC   GL249718   6.673  16.588   6.164
 3833POPC   C1A49719   6.657  16.691   6.464
 3833POPC   D2A49720   6.640  16.766   6.764
 3833POPC   C3A49721   6.622  16.774   7.064
 3833POPC   C4A49722   6.632  16.684   7.364
 3833POPC   C1B49723   6.682  16.447   6.464
 3833POPC   C2B49724   6.623  16.436   6.764
 3833POPC   C3B49725   6.651  16.435   7.064
 3833POPC   C4B49726   6.609  16.485   7.364
 3834POPC   NC349727  22.148   7.422   5.564
 3834POPC   PO449728  22.187   7.432   5.864
 3834POPC   GL149729  22.175   7.433   6.164
 3834POPC   GL249730  22.123   7.295   6.164
 3834POPC   C1A49731  22.190   7.435   6.464
 3834POPC   D2A49732  22.182   7.422   6.764
 3834POPC   C3A49733  22.174   7.412   7.064
 3834POPC   C4A49734  22.112   7.385   7.364
 3834POPC   C1B49735  22.109   7.126   6.464
 3834POPC   C2B49736  22.144   7.211   6.764
 3834POPC   C3B49737  22.154   7.125   7.064
 3834POPC   C4B49738  22.173   7.138   7.364
 3835POPC   NC349739  34.611  18.290   5.564
 3835POPC   PO449740  34.572  18.327   5.864
 3835POPC   GL149741  34.580  18.305   6.164
 3835POPC   GL249742  34.666  18.356   6.164
 3835POPC   C1A49743  34.569  18.294   6.464
 3835POPC   D2A49744  34.603  18.301   6.764
 3835POPC   C3A49745  34.547  18.325   7.064
 3835POPC   C4A49746  34.549  18.239   7.364
 3835POPC   C1B49747  34.853  18.324   6.464
 3835POPC   C2B49748  34.816  18.370   6.764
 3835POPC   C3B49749  34.782  18.407   7.064
 3835POPC   C4B49750  34.809  18.398   7.364
 3836POPC   NC349751  22.195  43.848   5.564
 3836POPC   PO449752  22.205  43.911   5.864
 3836POPC   GL149753  22.210  43.911   6.164
 3836POPC   GL249754  22.167  44.057   6.164
 3836POPC   C1A49755  22.182  43.894   6.464
 3836POPC   D2A49756  22.192  43.878   6.764
 3836POPC   C3A49757  22.169  43.918   7.064
 3836POPC   C4A49758  22.151  43.872   7.364
 3836POPC   C1B49759  22.169  44.111   6.464
 3836POPC   C2B49760  22.160  44.120   6.764
 3836POPC   C3B49761  22.177  44.088   7.064
 3836POPC   C4B49762  22.133  44.088   7.364
 3837POPC   NC349763  22.121   1.183   5.564
 3837POPC   PO449764  22.196   1.187   5.864
 3837POPC   GL149765  22.134   1.208   6.164
 3837POPC   GL249766  22.087   1.069   6.164
 3837POPC   C1A49767  22.155   1.173   6.464
 3837POPC   D2A49768  22.138   1.258   6.764
 3837POPC   C3A49769  22.133   1.188   7.064
 3837POPC   C4A49770  22.131   1.164   7.364
 3837POPC   C1B49771  21.970   1.045   6.464
 3837POPC   C2B49772  21.982   0.979   6.764
 3837POPC   C3B49773  22.026   0.982   7.064
 3837POPC   C4B49774  21.983   1.024   7.364
 3838POPC   NC349775  39.217   7.464   5.564
 3838POPC   PO449776  39.263   7.438   5.864
 3838POPC   GL149777  39.247   7.449   6.164
 3838POPC   GL249778  39.146   7.331   6.164
 3838POPC   C1A49779  39.236   7.388   6.464
 3838POPC   D2A49780  39.255   7.425   6.764
 3838POPC   C3A49781  39.201   7.427   7.064
 3838POPC   C4A49782  39.258   7.396   7.364
 3838POPC   C1B49783  39.160   7.150   6.464
 3838POPC   C2B49784  39.148   7.243   6.764
 3838POPC   C3B49785  39.155   7.174   7.064
 3838POPC   C4B49786  39.083   7.194   7.364
 3839POPC   NC349787  33.832   5.838   5.564
 3839POPC   PO449788  33.762   5.843   5.864
 3839POPC   GL149789  33.770   5.917   6.164
 3839POPC   GL249790  33.885   5.953   6.164
 3839POPC   C1A49791  33.816   5.843   6.464
 3839POPC   D2A49792  33.764   5.873   6.764
 3839POPC   C3A49793  33.760   5.913   7.064
 3839POPC   C4A49794  33.793   5.882   7.364
 3839POPC   C1B49795  33.913   6.040   6.464
 3839POPC   C2B49796  33.917   6.128   6.764
 3839POPC   C3B49797  33.898   6.124   7.064
 3839POPC   C4B49798  33.929   6.086   7.364
 3840POPC   NC349799  34.566  41.566   5.564
 3840POPC   PO449800  34.620  41.586   5.864
 3840POPC   GL149801  34.605  41.576   6.164
 3840POPC   GL249802  34.637  41.722   6.164
 3840POPC   C1A49803  34.537  41.541   6.464
 3840POPC   D2A49804  34.543  41.536   6.764
 3840POPC   C3A49805  34.547  41.556   7.064
 3840POPC   C4A49806  34.545  41.518   7.364
 3840POPC   C1B49807  34.597  41.775   6.464
 3840POPC   C2B49808  34.646  41.805   6.764
 3840POPC   C3B49809  34.624  41.837   7.064
 3840POPC   C4B49810  34.621  41.771   7.364
 3841POPC   NC349811   9.734  16.727   5.564
 3841POPC   PO449812   9.739  16.723   5.864
 3841POPC   GL149813   9.789  16.776   6.164
 3841POPC   GL249814   9.868  16.796   6.164
 3841POPC   C1A49815   9.773  16.688   6.464
 3841POPC   D2A49816   9.765  16.760   6.764
 3841POPC   C3A49817   9.729  16.733   7.064
 3841POPC   C4A49818   9.775  16.738   7.364
 3841POPC   C1B49819  10.011  16.782   6.464
 3841POPC   C2B49820  10.036  16.728   6.764
 3841POPC   C3B49821   9.946  16.800   7.064
 3841POPC   C4B49822  10.005  16.783   7.364
 3842POPC   NC349823  36.869   8.191   5.564
 3842POPC   PO449824  36.910   8.192   5.864
 3842POPC   GL149825  36.895   8.245   6.164
 3842POPC   GL249826  37.047   8.104   6.164
 3842POPC   C1A49827  36.937   8.180   6.464
 3842POPC   D2A49828  36.868   8.221   6.764
 3842POPC   C3A49829  36.861   8.147   7.064
 3842POPC   C4A49830  36.930   8.180   7.364
 3842POPC   C1B49831  37.100   8.150   6.464
 3842POPC   C2B49832  37.153   8.125   6.764
 3842POPC   C3B49833  37.154   8.086   7.064
 3842POPC   C4B49834  37.136   8.152   7.364
 3843POPC   NC349835  44.673  14.432   5.564
 3843POPC   PO449836  44.702  14.448   5.864
 3843POPC   GL149837  44.708  14.409   6.164
 3843POPC   GL249838  44.711  14.330   6.164
 3843POPC   C1A49839  44.651  14.442   6.464
 3843POPC   D2A49840  44.651  14.416   6.764
 3843POPC   C3A49841  44.687  14.437   7.064
 3843POPC   C4A49842  44.657  14.423   7.364
 3843POPC   C1B49843  44.799  14.249   6.464
 3843POPC   C2B49844  44.804  14.258   6.764
 3843POPC   C3B49845  44.814  14.213   7.064
 3843POPC   C4B49846  44.828  14.271   7.364
 3844POPC   NC349847  34.529   8.174   5.564
 3844POPC   PO449848  34.590   8.238   5.864
 3844POPC   GL149849  34.552   8.179   6.164
 3844POPC   GL249850  34.479   8.292   6.164
 3844POPC   C1A49851  34.584   8.230   6.464
 3844POPC   D2A49852  34.541   8.190   6.764
 3844POPC   C3A49853  34.606   8.233   7.064
 3844POPC   C4A49854  34.546   8.151   7.364
 3844POPC   C1B49855  34.334   8.311   6.464
 3844POPC   C2B49856  34.324   8.288   6.764
 3844POPC   C3B49857  34.350   8.332   7.064
 3844POPC   C4B49858  34.383   8.284   7.364
 3845POPC   NC349859   4.293  19.086   5.564
 3845POPC   PO449860   4.297  19.047   5.864
 3845POPC   GL149861   4.311  19.056   6.164
 3845POPC   GL249862   4.159  19.040   6.164
 3845POPC   C1A49863   4.303  19.036   6.464
 3845POPC   D2A49864   4.273  19.013   6.764
 3845POPC   C3A49865   4.309  19.018   7.064
 3845POPC   C4A49866   4.294  19.037   7.364
 3845POPC   C1B49867   4.024  19.111   6.464
 3845POPC   C2B49868   4.030  19.129   6.764
 3845POPC   C3B49869   4.050  19.078   7.064
 3845POPC   C4B49870   4.025  19.107   7.364
 3846POPC   NC349871  28.417  16.683   5.564
 3846POPC   PO449872  28.325  16.694   5.864
 3846POPC   GL149873  28.344  16.714   6.164
 3846POPC   GL249874  28.470  16.778   6.164
 3846POPC   C1A49875  28.408  16.716   6.464
 3846POPC   D2A49876  28.325  16.772   6.764
 3846POPC   C3A49877  28.384  16.754   7.064
 3846POPC   C4A49878  28.417  16.767   7.364
 3846POPC   C1B49879  28.652  16.742   6.464
 3846POPC   C2B49880  28.588  16.744   6.764
 3846POPC   C3B49881  28.625  16.805   7.064
 3846POPC   C4B49882  28.593  16.731   7.364
 3847POPC   NC349883  37.699  23.680   5.564
 3847POPC   PO449884  37.657  23.673   5.864
 3847POPC   GL149885  37.684  23.680   6.164
 3847POPC   GL249886  37.582  23.769   6.164
 3847POPC   C1A49887  37.701  23.735   6.464
 3847POPC   D2A49888  37.679  23.677   6.764
 3847POPC   C3A49889  37.696  23.703   7.064
 3847POPC   C4A49890  37.726  23.757   7.364
 3847POPC   C1B49891  37.505  23.897   6.464
 3847POPC   C2B49892  37.480  23.827   6.764
 3847POPC   C3B49893  37.495  23.875   7.064
 3847POPC   C4B49894  37.492  23.812   7.364
 3848POPC   NC349895   8.171  16.716   5.564
 3848POPC   PO449896   8.243  16.701   5.864
 3848POPC   GL149897   8.170  16.703   6.164
 3848POPC   GL249898   8.295  16.869   6.164
 3848POPC   C1A49899   8.240  16.722   6.464
 3848POPC   D2A49900   8.242  16.686   6.764
 3848POPC   C3A49901   8.212  16.739   7.064
 3848POPC   C4A49902   8.237  16.742   7.364
 3848POPC   C1B49903   8.394  16.943   6.464
 3848POPC   C2B49904   8.309  16.933   6.764
 3848POPC   C3B49905   8.402  16.892   7.064
 3848POPC   C4B49906   8.392  16.973   7.364
 3849POPC   NC349907  36.153  11.286   5.564
 3849POPC   PO449908  36.149  11.254   5.864
 3849POPC   GL149909  36.145  11.304   6.164
 3849POPC   GL249910  36.041  11.311   6.164
 3849POPC   C1A49911  36.142  11.339   6.464
 3849POPC   D2A49912  36.142  11.270   6.764
 3849POPC   C3A49913  36.160  11.306   7.064
 3849POPC   C4A49914  36.125  11.345   7.364
 3849POPC   C1B49915  35.841  11.333   6.464
 3849POPC   C2B49916  35.831  11.265   6.764
 3849POPC   C3B49917  35.912  11.269   7.064
 3849POPC   C4B49918  35.918  11.331   7.364
 3850POPC   NC349919  19.087  15.206   5.564
 3850POPC   PO449920  19.028  15.140   5.864
 3850POPC   GL149921  19.041  15.204   6.164
 3850POPC   GL249922  18.998  15.241   6.164
 3850POPC   C1A49923  19.059  15.171   6.464
 3850POPC   D2A49924  19.087  15.200   6.764
 3850POPC   C3A49925  19.109  15.155   7.064
 3850POPC   C4A49926  19.049  15.215   7.364
 3850POPC   C1B49927  18.838  15.306   6.464
 3850POPC   C2B49928  18.832  15.280   6.764
 3850POPC   C3B49929  18.885  15.366   7.064
 3850POPC   C4B49930  18.854  15.332   7.364
 3851POPC   NC349931  33.027  26.066   5.564
 3851POPC   PO449932  33.070  26.070   5.864
 3851POPC   GL149933  32.992  25.999   6.164
 3851POPC   GL249934  32.966  26.183   6.164
 3851POPC   C1A49935  33.044  26.049   6.464
 3851POPC   D2A49936  33.015  26.004   6.764
 3851POPC   C3A49937  33.001  26.001   7.064
 3851POPC   C4A49938  33.047  26.030   7.364
 3851POPC   C1B49939  32.904  26.227   6.464
 3851POPC   C2B49940  32.852  26.303   6.764
 3851POPC   C3B49941  32.880  26.282   7.064
 3851POPC   C4B49942  32.868  26.253   7.364
 3852POPC   NC349943  25.261  40.003   5.564
 3852POPC   PO449944  25.276  40.014   5.864
 3852POPC   GL149945  25.270  39.984   6.164
 3852POPC   GL249946  25.345  39.881   6.164
 3852POPC   C1A49947  25.242  39.969   6.464
 3852POPC   D2A49948  25.278  40.034   6.764
 3852POPC   C3A49949  25.217  39.969   7.064
 3852POPC   C4A49950  25.277  40.048   7.364
 3852POPC   C1B49951  25.363  39.771   6.464
 3852POPC   C2B49952  25.351  39.732   6.764
 3852POPC   C3B49953  25.355  39.757   7.064
 3852POPC   C4B49954  25.368  39.777   7.364
 3853POPC   NC349955  36.112   4.336   5.564
 3853POPC   PO449956  36.095   4.307   5.864
 3853POPC   GL149957  36.140   4.306   6.164
 3853POPC   GL249958  35.980   4.363   6.164
 3853POPC   C1A49959  36.096   4.308   6.464
 3853POPC   D2A49960  36.137   4.276   6.764
 3853POPC   C3A49961  36.109   4.321   7.064
 3853POPC   C4A49962  36.170   4.348   7.364
 3853POPC   C1B49963  35.860   4.337   6.464
 3853POPC   C2B49964  35.920   4.310   6.764
 3853POPC   C3B49965  35.882   4.354   7.064
 3853POPC   C4B49966  35.858   4.300   7.364
 3854POPC   NC349967  36.175   2.813   5.564
 3854POPC   PO449968  36.148   2.749   5.864
 3854POPC   GL149969  36.116   2.769   6.164
 3854POPC   GL249970  36.236   2.784   6.164
 3854POPC   C1A49971  36.136   2.716   6.464
 3854POPC   D2A49972  36.122   2.754   6.764
 3854POPC   C3A49973  36.103   2.789   7.064
 3854POPC   C4A49974  36.131   2.782   7.364
 3854POPC   C1B49975  36.330   2.909   6.464
 3854POPC   C2B49976  36.340   2.871   6.764
 3854POPC   C3B49977  36.383   2.893   7.064
 3854POPC   C4B49978  36.395   2.913   7.364
 3855POPC   NC349979   3.585  37.655   5.564
 3855POPC   PO449980   3.535  37.663   5.864
 3855POPC   GL149981   3.516  37.653   6.164
 3855POPC   GL249982   3.520  37.793   6.164
 3855POPC   C1A49983   3.496  37.668   6.464
 3855POPC   D2A49984   3.502  37.706   6.764
 3855POPC   C3A49985   3.572  37.720   7.064
 3855POPC   C4A49986   3.537  37.681   7.364
 3855POPC   C1B49987   3.577  37.920   6.464
 3855POPC   C2B49988   3.543  37.897   6.764
 3855POPC   C3B49989   3.616  37.931   7.064
 3855POPC   C4B49990   3.604  37.934   7.364
 3856POPC   NC349991   3.589  29.962   5.564
 3856POPC   PO449992   3.569  29.910   5.864
 3856POPC   GL149993   3.553  29.875   6.164
 3856POPC   GL249994   3.462  29.798   6.164
 3856POPC   C1A49995   3.540  29.930   6.464
 3856POPC   D2A49996   3.533  29.951   6.764
 3856POPC   C3A49997   3.520  29.911   7.064
 3856POPC   C4A49998   3.542  29.878   7.364
 3856POPC   C1B49999   3.359  29.674   6.464
 3856POPC   C2B50000   3.443  29.694   6.764
 3856POPC   C3B50001   3.353  29.730   7.064
 3856POPC   C4B50002   3.363  29.684   7.364
 3857POPC   NC350003  11.314   9.011   5.564
 3857POPC   PO450004  11.263   9.007   5.864
 3857POPC   GL150005  11.263   9.008   6.164
 3857POPC   GL250006  11.208   8.953   6.164
 3857POPC   C1A50007  11.307   8.992   6.464
 3857POPC   D2A50008  11.324   9.013   6.764
 3857POPC   C3A50009  11.276   8.961   7.064
 3857POPC   C4A50010  11.300   9.013   7.364
 3857POPC   C1B50011  11.090   8.929   6.464
 3857POPC   C2B50012  11.015   8.995   6.764
 3857POPC   C3B50013  11.009   8.958   7.064
 3857POPC   C4B50014  11.056   8.916   7.364
 3858POPC   NC350015   5.101  18.293   5.564
 3858POPC   PO450016   5.132  18.319   5.864
 3858POPC   GL150017   5.082  18.280   6.164
 3858POPC   GL250018   5.213  18.215   6.164
 3858POPC   C1A50019   5.066  18.258   6.464
 3858POPC   D2A50020   5.138  18.303   6.764
 3858POPC   C3A50021   5.134  18.233   7.064
 3858POPC   C4A50022   5.105  18.284   7.364
 3858POPC   C1B50023   5.293  18.260   6.464
 3858POPC   C2B50024   5.349  18.165   6.764
 3858POPC   C3B50025   5.291  18.226   7.064
 3858POPC   C4B50026   5.350  18.230   7.364
 3859POPC   NC350027   0.445  41.553   5.564
 3859POPC   PO450028   0.467  41.530   5.864
 3859POPC   GL150029   0.482  41.518   6.164
 3859POPC   GL250030   0.536  41.561   6.164
 3859POPC   C1A50031   0.480  41.544   6.464
 3859POPC   D2A50032   0.443  41.570   6.764
 3859POPC   C3A50033   0.464  41.568   7.064
 3859POPC   C4A50034   0.441  41.595   7.364
 3859POPC   C1B50035   0.706  41.440   6.464
 3859POPC   C2B50036   0.651  41.461   6.764
 3859POPC   C3B50037   0.676  41.509   7.064
 3859POPC   C4B50038   0.630  41.465   7.364
 3860POPC   NC350039  18.269  44.621   5.564
 3860POPC   PO450040  18.249  44.641   5.864
 3860POPC   GL150041  18.284  44.643   6.164
 3860POPC   GL250042  18.410  44.608   6.164
 3860POPC   C1A50043  18.314  44.662   6.464
 3860POPC   D2A50044  18.242  44.640   6.764
 3860POPC   C3A50045  18.252  44.660   7.064
 3860POPC   C4A50046  18.332  44.623   7.364
 3860POPC   C1B50047  18.515  44.550   6.464
 3860POPC   C2B50048  18.504  44.536   6.764
 3860POPC   C3B50049  18.473  44.616   7.064
 3860POPC   C4B50050  18.481  44.540   7.364
 3861POPC   NC350051  23.740  25.313   5.564
 3861POPC   PO450052  23.680  25.276   5.864
 3861POPC   GL150053  23.702  25.273   6.164
 3861POPC   GL250054  23.593  25.210   6.164
 3861POPC   C1A50055  23.677  25.298   6.464
 3861POPC   D2A50056  23.721  25.227   6.764
 3861POPC   C3A50057  23.712  25.237   7.064
 3861POPC   C4A50058  23.695  25.260   7.364
 3861POPC   C1B50059  23.460  25.182   6.464
 3861POPC   C2B50060  23.439  25.142   6.764
 3861POPC   C3B50061  23.481  25.165   7.064
 3861POPC   C4B50062  23.472  25.191   7.364
 3862POPC   NC350063  31.497  18.262   5.564
 3862POPC   PO450064  31.440  18.247   5.864
 3862POPC   GL150065  31.452  18.243   6.164
 3862POPC   GL250066  31.371  18.310   6.164
 3862POPC   C1A50067  31.486  18.256   6.464
 3862POPC   D2A50068  31.486  18.327   6.764
 3862POPC   C3A50069  31.500  18.289   7.064
 3862POPC   C4A50070  31.518  18.295   7.364
 3862POPC   C1B50071  31.262  18.329   6.464
 3862POPC   C2B50072  31.271  18.249   6.764
 3862POPC   C3B50073  31.227  18.310   7.064
 3862POPC   C4B50074  31.181  18.302   7.364
 3863POPC   NC350075  15.941   4.304   5.564
 3863POPC   PO450076  15.916   4.325   5.864
 3863POPC   GL150077  15.938   4.361   6.164
 3863POPC   GL250078  15.934   4.204   6.164
 3863POPC   C1A50079  15.970   4.356   6.464
 3863POPC   D2A50080  15.911   4.348   6.764
 3863POPC   C3A50081  15.923   4.272   7.064
 3863POPC   C4A50082  15.944   4.351   7.364
 3863POPC   C1B50083  15.926   4.034   6.464
 3863POPC   C2B50084  15.949   4.049   6.764
 3863POPC   C3B50085  15.919   4.096   7.064
 3863POPC   C4B50086  15.904   4.090   7.364
 3864POPC   NC350087  22.131  19.009   5.564
 3864POPC   PO450088  22.199  19.046   5.864
 3864POPC   GL150089  22.168  19.020   6.164
 3864POPC   GL250090  22.140  19.169   6.164
 3864POPC   C1A50091  22.113  19.083   6.464
 3864POPC   D2A50092  22.166  19.044   6.764
 3864POPC   C3A50093  22.203  19.022   7.064
 3864POPC   C4A50094  22.129  19.097   7.364
 3864POPC   C1B50095  22.080  19.292   6.464
 3864POPC   C2B50096  22.128  19.298   6.764
 3864POPC   C3B50097  22.044  19.336   7.064
 3864POPC   C4B50098  22.042  19.291   7.364
 3865POPC   NC350099   9.794   2.786   5.564
 3865POPC   PO450100   9.712   2.776   5.864
 3865POPC   GL150101   9.787   2.768   6.164
 3865POPC   GL250102   9.728   2.640   6.164
 3865POPC   C1A50103   9.766   2.750   6.464
 3865POPC   D2A50104   9.727   2.759   6.764
 3865POPC   C3A50105   9.711   2.774   7.064
 3865POPC   C4A50106   9.738   2.782   7.364
 3865POPC   C1B50107   9.838   2.531   6.464
 3865POPC   C2B50108   9.783   2.558   6.764
 3865POPC   C3B50109   9.808   2.474   7.064
 3865POPC   C4B50110   9.765   2.550   7.364
 3866POPC   NC350111   5.826  31.481   5.564
 3866POPC   PO450112   5.849  31.454   5.864
 3866POPC   GL150113   5.826  31.512   6.164
 3866POPC   GL250114   5.967  31.399   6.164
 3866POPC   C1A50115   5.880  31.505   6.464
 3866POPC   D2A50116   5.842  31.466   6.764
 3866POPC   C3A50117   5.865  31.474   7.064
 3866POPC   C4A50118   5.902  31.436   7.364
 3866POPC   C1B50119   6.070  31.324   6.464
 3866POPC   C2B50120   6.053  31.281   6.764
 3866POPC   C3B50121   6.027  31.271   7.064
 3866POPC   C4B50122   6.074  31.286   7.364
 3867POPC   NC350123   0.452  19.079   5.564
 3867POPC   PO450124   0.412  19.029   5.864
 3867POPC   GL150125   0.476  19.020   6.164
 3867POPC   GL250126   0.362  19.107   6.164
 3867POPC   C1A50127   0.409  19.026   6.464
 3867POPC   D2A50128   0.424  19.085   6.764
 3867POPC   C3A50129   0.423  19.062   7.064
 3867POPC   C4A50130   0.417  19.064   7.364
 3867POPC   C1B50131   0.210  19.057   6.464
 3867POPC   C2B50132   0.157  19.091   6.764
 3867POPC   C3B50133   0.168  19.038   7.064
 3867POPC   C4B50134   0.141  19.111   7.364
 3868POPC   NC350135  41.582   6.633   5.564
 3868POPC   PO450136  41.532   6.685   5.864
 3868POPC   GL150137  41.531   6.610   6.164
 3868POPC   GL250138  41.397   6.599   6.164
 3868POPC   C1A50139  41.537   6.665   6.464
 3868POPC   D2A50140  41.559   6.665   6.764
 3868POPC   C3A50141  41.509   6.601   7.064
 3868POPC   C4A50142  41.572   6.667   7.364
 3868POPC   C1B50143  41.349   6.560   6.464
 3868POPC   C2B50144  41.344   6.555   6.764
 3868POPC   C3B50145  41.340   6.624   7.064
 3868POPC   C4B50146  41.315   6.607   7.364
 3869POPC   NC350147  43.861  15.992   5.564
 3869POPC   PO450148  43.896  15.929   5.864
 3869POPC   GL150149  43.875  16.001   6.164
 3869POPC   GL250150  43.799  15.941   6.164
 3869POPC   C1A50151  43.936  15.909   6.464
 3869POPC   D2A50152  43.882  15.923   6.764
 3869POPC   C3A50153  43.836  15.996   7.064
 3869POPC   C4A50154  43.919  15.958   7.364
 3869POPC   C1B50155  43.592  15.978   6.464
 3869POPC   C2B50156  43.673  15.974   6.764
 3869POPC   C3B50157  43.589  15.906   7.064
 3869POPC   C4B50158  43.608  15.964   7.364
 3870POPC   NC350159   0.473  31.505   5.564
 3870POPC   PO450160   0.389  31.438   5.864
 3870POPC   GL150161   0.440  31.468   6.164
 3870POPC   GL250162   0.362  31.565   6.164
 3870POPC   C1A50163   0.451  31.437   6.464
 3870POPC   D2A50164   0.395  31.513   6.764
 3870POPC   C3A50165   0.444  31.438   7.064
 3870POPC   C4A50166   0.429  31.491   7.364
 3870POPC   C1B50167   0.278  31.607   6.464
 3870POPC   C2B50168   0.288  31.615   6.764
 3870POPC   C3B50169   0.219  31.628   7.064
 3870POPC   C4B50170   0.239  31.669   7.364
 3871POPC   NC350171  10.560   9.736   5.564
 3871POPC   PO450172  10.523   9.765   5.864
 3871POPC   GL150173  10.567   9.763   6.164
 3871POPC   GL250174  10.470   9.645   6.164
 3871POPC   C1A50175  10.476   9.774   6.464
 3871POPC   D2A50176  10.485   9.798   6.764
 3871POPC   C3A50177  10.534   9.795   7.064
 3871POPC   C4A50178  10.549   9.743   7.364
 3871POPC   C1B50179  10.384   9.581   6.464
 3871POPC   C2B50180  10.348   9.502   6.764
 3871POPC   C3B50181  10.337   9.597   7.064
 3871POPC   C4B50182  10.392   9.589   7.364
 3872POPC   NC350183  43.860  38.427   5.564
 3872POPC   PO450184  43.871  38.481   5.864
 3872POPC   GL150185  43.896  38.416   6.164
 3872POPC   GL250186  43.719  38.462   6.164
 3872POPC   C1A50187  43.918  38.436   6.464
 3872POPC   D2A50188  43.895  38.505   6.764
 3872POPC   C3A50189  43.902  38.455   7.064
 3872POPC   C4A50190  43.858  38.501   7.364
 3872POPC   C1B50191  43.661  38.365   6.464
 3872POPC   C2B50192  43.615  38.412   6.764
 3872POPC   C3B50193  43.683  38.342   7.064
 3872POPC   C4B50194  43.635  38.372   7.364
 3873POPC   NC350195  22.981   1.260   5.564
 3873POPC   PO450196  22.946   1.175   5.864
 3873POPC   GL150197  22.960   1.234   6.164
 3873POPC   GL250198  23.026   1.157   6.164
 3873POPC   C1A50199  22.903   1.210   6.464
 3873POPC   D2A50200  22.902   1.201   6.764
 3873POPC   C3A50201  22.969   1.210   7.064
 3873POPC   C4A50202  22.979   1.261   7.364
 3873POPC   C1B50203  23.112   1.062   6.464
 3873POPC   C2B50204  23.069   0.986   6.764
 3873POPC   C3B50205  23.073   1.074   7.064
 3873POPC   C4B50206  23.068   1.014   7.364
 3874POPC   NC350207  15.214  33.060   5.564
 3874POPC   PO450208  15.172  33.050   5.864
 3874POPC   GL150209  15.129  33.062   6.164
 3874POPC   GL250210  15.090  33.123   6.164
 3874POPC   C1A50211  15.208  33.045   6.464
 3874POPC   D2A50212  15.199  33.000   6.764
 3874POPC   C3A50213  15.188  32.985   7.064
 3874POPC   C4A50214  15.140  33.064   7.364
 3874POPC   C1B50215  15.027  33.185   6.464
 3874POPC   C2B50216  14.986  33.230   6.764
 3874POPC   C3B50217  14.981  33.201   7.064
 3874POPC   C4B50218  15.066  33.262   7.364
 3875POPC   NC350219   3.555   3.512   5.564
 3875POPC   PO450220   3.582   3.538   5.864
 3875POPC   GL150221   3.538   3.577   6.164
 3875POPC   GL250222   3.413   3.463   6.164
 3875POPC   C1A50223   3.558   3.557   6.464
 3875POPC   D2A50224   3.544   3.558   6.764
 3875POPC   C3A50225   3.522   3.572   7.064
 3875POPC   C4A50226   3.586   3.503   7.364
 3875POPC   C1B50227   3.321   3.437   6.464
 3875POPC   C2B50228   3.307   3.368   6.764
 3875POPC   C3B50229   3.366   3.359   7.064
 3875POPC   C4B50230   3.309   3.376   7.364
 3876POPC   NC350231  19.045  36.880   5.564
 3876POPC   PO450232  19.017  36.890   5.864
 3876POPC   GL150233  19.045  36.949   6.164
 3876POPC   GL250234  19.089  36.753   6.164
 3876POPC   C1A50235  19.071  36.861   6.464
 3876POPC   D2A50236  19.094  36.883   6.764
 3876POPC   C3A50237  19.105  36.870   7.064
 3876POPC   C4A50238  19.050  36.857   7.364
 3876POPC   C1B50239  19.116  36.657   6.464
 3876POPC   C2B50240  19.087  36.653   6.764
 3876POPC   C3B50241  19.047  36.606   7.064
 3876POPC   C4B50242  19.052  36.617   7.364
 3877POPC   NC350243  30.723  39.209   5.564
 3877POPC   PO450244  30.699  39.230   5.864
 3877POPC   GL150245  30.701  39.254   6.164
 3877POPC   GL250246  30.719  39.078   6.164
 3877POPC   C1A50247  30.678  39.244   6.464
 3877POPC   D2A50248  30.659  39.260   6.764
 3877POPC   C3A50249  30.691  39.250   7.064
 3877POPC   C4A50250  30.681  39.235   7.364
 3877POPC   C1B50251  30.796  39.021   6.464
 3877POPC   C2B50252  30.813  38.995   6.764
 3877POPC   C3B50253  30.802  39.026   7.064
 3877POPC   C4B50254  30.746  39.012   7.364
 3878POPC   NC350255   9.015  37.704   5.564
 3878POPC   PO450256   8.947  37.640   5.864
 3878POPC   GL150257   8.985  37.696   6.164
 3878POPC   GL250258   8.932  37.517   6.164
 3878POPC   C1A50259   8.997  37.703   6.464
 3878POPC   D2A50260   8.978  37.636   6.764
 3878POPC   C3A50261   8.980  37.676   7.064
 3878POPC   C4A50262   9.002  37.683   7.364
 3878POPC   C1B50263   8.930  37.459   6.464
 3878POPC   C2B50264   8.899  37.494   6.764
 3878POPC   C3B50265   8.886  37.471   7.064
 3878POPC   C4B50266   8.920  37.406   7.364
 3879POPC   NC350267  44.672  24.514   5.564
 3879POPC   PO450268  44.689  24.444   5.864
 3879POPC   GL150269  44.632  24.515   6.164
 3879POPC   GL250270  44.746  24.583   6.164
 3879POPC   C1A50271  44.631  24.454   6.464
 3879POPC   D2A50272  44.686  24.475   6.764
 3879POPC   C3A50273  44.627  24.520   7.064
 3879POPC   C4A50274  44.677  24.502   7.364
 3879POPC   C1B50275  44.846  24.556   6.464
 3879POPC   C2B50276  44.876  24.555   6.764
 3879POPC   C3B50277  44.867  24.582   7.064
 3879POPC   C4B50278  44.888  24.592   7.364
 3880POPC   NC350279  20.659  36.907   5.564
 3880POPC   PO450280  20.659  36.872   5.864
 3880POPC   GL150281  20.613  36.881   6.164
 3880POPC   GL250282  20.601  36.746   6.164
 3880POPC   C1A50283  20.642  36.907   6.464
 3880POPC   D2A50284  20.566  36.925   6.764
 3880POPC   C3A50285  20.602  36.941   7.064
 3880POPC   C4A50286  20.574  36.894   7.364
 3880POPC   C1B50287  20.675  36.670   6.464
 3880POPC   C2B50288  20.683  36.661   6.764
 3880POPC   C3B50289  20.690  36.656   7.064
 3880POPC   C4B50290  20.694  36.646   7.364
 3881POPC   NC350291  13.667  22.962   5.564
 3881POPC   PO450292  13.673  22.926   5.864
 3881POPC   GL150293  13.623  22.893   6.164
 3881POPC   GL250294  13.518  22.934   6.164
 3881POPC   C1A50295  13.641  22.962   6.464
 3881POPC   D2A50296  13.606  22.957   6.764
 3881POPC   C3A50297  13.629  22.899   7.064
 3881POPC   C4A50298  13.599  22.930   7.364
 3881POPC   C1B50299  13.378  22.873   6.464
 3881POPC   C2B50300  13.344  22.881   6.764
 3881POPC   C3B50301  13.400  22.896   7.064
 3881POPC   C4B50302  13.421  22.810   7.364
 3882POPC   NC350303   7.440   4.311   5.564
 3882POPC   PO450304   7.380   4.269   5.864
 3882POPC   GL150305   7.426   4.273   6.164
 3882POPC   GL250306   7.476   4.421   6.164
 3882POPC   C1A50307   7.453   4.344   6.464
 3882POPC   D2A50308   7.377   4.340   6.764
 3882POPC   C3A50309   7.390   4.318   7.064
 3882POPC   C4A50310   7.453   4.297   7.364
 3882POPC   C1B50311   7.493   4.543   6.464
 3882POPC   C2B50312   7.492   4.537   6.764
 3882POPC   C3B50313   7.469   4.565   7.064
 3882POPC   C4B50314   7.535   4.514   7.364
 3883POPC   NC350315   0.417  43.156   5.564
 3883POPC   PO450316   0.416  43.139   5.864
 3883POPC   GL150317   0.447  43.127   6.164
 3883POPC   GL250318   0.522  43.202   6.164
 3883POPC   C1A50319   0.423  43.107   6.464
 3883POPC   D2A50320   0.398  43.105   6.764
 3883POPC   C3A50321   0.389  43.070   7.064
 3883POPC   C4A50322   0.428  43.095   7.364
 3883POPC   C1B50323   0.495  43.328   6.464
 3883POPC   C2B50324   0.567  43.362   6.764
 3883POPC   C3B50325   0.584  43.373   7.064
 3883POPC   C4B50326   0.586  43.388   7.364
 3884POPC   NC350327  10.547  39.996   5.564
 3884POPC   PO450328  10.528  40.017   5.864
 3884POPC   GL150329  10.557  39.970   6.164
 3884POPC   GL250330  10.413  40.028   6.164
 3884POPC   C1A50331  10.559  39.984   6.464
 3884POPC   D2A50332  10.479  40.032   6.764
 3884POPC   C3A50333  10.541  39.958   7.064
 3884POPC   C4A50334  10.574  40.000   7.364
 3884POPC   C1B50335  10.260  40.011   6.464
 3884POPC   C2B50336  10.228  40.002   6.764
 3884POPC   C3B50337  10.315  39.999   7.064
 3884POPC   C4B50338  10.226  40.017   7.364
 3885POPC   NC350339  19.045  40.044   5.564
 3885POPC   PO450340  19.015  39.962   5.864
 3885POPC   GL150341  19.084  40.040   6.164
 3885POPC   GL250342  18.891  40.023   6.164
 3885POPC   C1A50343  19.097  40.036   6.464
 3885POPC   D2A50344  19.029  39.990   6.764
 3885POPC   C3A50345  19.018  39.987   7.064
 3885POPC   C4A50346  19.045  39.992   7.364
 3885POPC   C1B50347  18.848  40.047   6.464
 3885POPC   C2B50348  18.842  40.099   6.764
 3885POPC   C3B50349  18.768  40.088   7.064
 3885POPC   C4B50350  18.789  40.023   7.364
 3886POPC   NC350351  10.571  26.821   5.564
 3886POPC   PO450352  10.512  26.768   5.864
 3886POPC   GL150353  10.501  26.846   6.164
 3886POPC   GL250354  10.596  26.973   6.164
 3886POPC   C1A50355  10.540  26.856   6.464
 3886POPC   D2A50356  10.510  26.862   6.764
 3886POPC   C3A50357  10.552  26.853   7.064
 3886POPC   C4A50358  10.476  26.863   7.364
 3886POPC   C1B50359  10.584  27.055   6.464
 3886POPC   C2B50360  10.564  27.088   6.764
 3886POPC   C3B50361  10.646  27.074   7.064
 3886POPC   C4B50362  10.570  27.099   7.364
 3887POPC   NC350363   5.135  33.037   5.564
 3887POPC   PO450364   5.119  33.045   5.864
 3887POPC   GL150365   5.045  32.977   6.164
 3887POPC   GL250366   5.124  33.139   6.164
 3887POPC   C1A50367   5.052  32.999   6.464
 3887POPC   D2A50368   5.088  33.072   6.764
 3887POPC   C3A50369   5.131  33.031   7.064
 3887POPC   C4A50370   5.125  33.009   7.364
 3887POPC   C1B50371   5.148  33.246   6.464
 3887POPC   C2B50372   5.152  33.285   6.764
 3887POPC   C3B50373   5.153  33.293   7.064
 3887POPC   C4B50374   5.131  33.255   7.364
 3888POPC   NC350375   3.493  11.321   5.564
 3888POPC   PO450376   3.510  11.273   5.864
 3888POPC   GL150377   3.558  11.347   6.164
 3888POPC   GL250378   3.586  11.416   6.164
 3888POPC   C1A50379   3.492  11.303   6.464
 3888POPC   D2A50380   3.580  11.304   6.764
 3888POPC   C3A50381   3.559  11.336   7.064
 3888POPC   C4A50382   3.528  11.346   7.364
 3888POPC   C1B50383   3.606  11.537   6.464
 3888POPC   C2B50384   3.599  11.544   6.764
 3888POPC   C3B50385   3.679  11.485   7.064
 3888POPC   C4B50386   3.640  11.492   7.364
 3889POPC   NC350387  16.739  12.119   5.564
 3889POPC   PO450388  16.719  12.051   5.864
 3889POPC   GL150389  16.761  12.055   6.164
 3889POPC   GL250390  16.874  12.014   6.164
 3889POPC   C1A50391  16.685  12.055   6.464
 3889POPC   D2A50392  16.754  12.110   6.764
 3889POPC   C3A50393  16.778  12.029   7.064
 3889POPC   C4A50394  16.731  12.079   7.364
 3889POPC   C1B50395  16.984  12.015   6.464
 3889POPC   C2B50396  17.003  12.060   6.764
 3889POPC   C3B50397  16.937  12.011   7.064
 3889POPC   C4B50398  16.999  12.009   7.364
 3890POPC   NC350399  15.145  30.656   5.564
 3890POPC   PO450400  15.168  30.722   5.864
 3890POPC   GL150401  15.142  30.666   6.164
 3890POPC   GL250402  15.113  30.745   6.164
 3890POPC   C1A50403  15.151  30.744   6.464
 3890POPC   D2A50404  15.201  30.727   6.764
 3890POPC   C3A50405  15.135  30.743   7.064
 3890POPC   C4A50406  15.151  30.730   7.364
 3890POPC   C1B50407  15.006  30.848   6.464
 3890POPC   C2B50408  14.951  30.796   6.764
 3890POPC   C3B50409  14.989  30.797   7.064
 3890POPC   C4B50410  15.001  30.850   7.364
 3891POPC   NC350411   5.134  19.867   5.564
 3891POPC   PO450412   5.063  19.845   5.864
 3891POPC   GL150413   5.082  19.876   6.164
 3891POPC   GL250414   5.066  19.943   6.164
 3891POPC   C1A50415   5.133  19.795   6.464
 3891POPC   D2A50416   5.048  19.884   6.764
 3891POPC   C3A50417   5.093  19.845   7.064
 3891POPC   C4A50418   5.138  19.813   7.364
 3891POPC   C1B50419   4.960  20.092   6.464
 3891POPC   C2B50420   5.018  20.024   6.764
 3891POPC   C3B50421   5.023  20.061   7.064
 3891POPC   C4B50422   4.993  20.059   7.364
 3892POPC   NC350423  24.450  39.978   5.564
 3892POPC   PO450424  24.523  39.984   5.864
 3892POPC   GL150425  24.533  40.024   6.164
 3892POPC   GL250426  24.339  39.999   6.164
 3892POPC   C1A50427  24.508  39.971   6.464
 3892POPC   D2A50428  24.479  40.048   6.764
 3892POPC   C3A50429  24.491  39.964   7.064
 3892POPC   C4A50430  24.510  40.028   7.364
 3892POPC   C1B50431  24.264  40.111   6.464
 3892POPC   C2B50432  24.228  40.113   6.764
 3892POPC   C3B50433  24.208  40.049   7.064
 3892POPC   C4B50434  24.266  40.127   7.364
 3893POPC   NC350435  43.095   8.951   5.564
 3893POPC   PO450436  43.143   8.981   5.864
 3893POPC   GL150437  43.071   9.000   6.164
 3893POPC   GL250438  43.188   9.035   6.164
 3893POPC   C1A50439  43.106   9.007   6.464
 3893POPC   D2A50440  43.130   8.986   6.764
 3893POPC   C3A50441  43.109   8.988   7.064
 3893POPC   C4A50442  43.157   8.961   7.364
 3893POPC   C1B50443  43.336   9.131   6.464
 3893POPC   C2B50444  43.343   9.184   6.764
 3893POPC   C3B50445  43.325   9.154   7.064
 3893POPC   C4B50446  43.266   9.120   7.364
 3894POPC   NC350447  42.312   2.769   5.564
 3894POPC   PO450448  42.297   2.800   5.864
 3894POPC   GL150449  42.332   2.788   6.164
 3894POPC   GL250450  42.480   2.668   6.164
 3894POPC   C1A50451  42.330   2.805   6.464
 3894POPC   D2A50452  42.374   2.733   6.764
 3894POPC   C3A50453  42.335   2.797   7.064
 3894POPC   C4A50454  42.312   2.803   7.364
 3894POPC   C1B50455  42.527   2.650   6.464
 3894POPC   C2B50456  42.560   2.629   6.764
 3894POPC   C3B50457  42.529   2.648   7.064
 3894POPC   C4B50458  42.541   2.664   7.364
 3895POPC   NC350459  22.908  16.752   5.564
 3895POPC   PO450460  22.910  16.755   5.864
 3895POPC   GL150461  22.922  16.779   6.164
 3895POPC   GL250462  22.860  16.675   6.164
 3895POPC   C1A50463  22.979  16.773   6.464
 3895POPC   D2A50464  22.889  16.738   6.764
 3895POPC   C3A50465  22.918  16.738   7.064
 3895POPC   C4A50466  22.916  16.772   7.364
 3895POPC   C1B50467  22.660  16.677   6.464
 3895POPC   C2B50468  22.697  16.733   6.764
 3895POPC   C3B50469  22.714  16.688   7.064
 3895POPC   C4B50470  22.739  16.645   7.364
 3896POPC   NC350471  18.315  12.095   5.564
 3896POPC   PO450472  18.293  12.056   5.864
 3896POPC   GL150473  18.253  12.035   6.164
 3896POPC   GL250474  18.165  12.016   6.164
 3896POPC   C1A50475  18.239  12.049   6.464
 3896POPC   D2A50476  18.253  12.034   6.764
 3896POPC   C3A50477  18.251  12.033   7.064
 3896POPC   C4A50478  18.305  12.030   7.364
 3896POPC   C1B50479  18.094  11.973   6.464
 3896POPC   C2B50480  18.068  11.954   6.764
 3896POPC   C3B50481  17.999  11.967   7.064
 3896POPC   C4B50482  18.045  11.981   7.364
 3897POPC   NC350483  15.953  16.735   5.564
 3897POPC   PO450484  15.931  16.716   5.864
 3897POPC   GL150485  15.976  16.765   6.164
 3897POPC   GL250486  15.890  16.791   6.164
 3897POPC   C1A50487  15.929  16.780   6.464
 3897POPC   D2A50488  15.908  16.700   6.764
 3897POPC   C3A50489  15.967  16.735   7.064
 3897POPC   C4A50490  15.953  16.772   7.364
 3897POPC   C1B50491  15.787  16.976   6.464
 3897POPC   C2B50492  15.791  16.946   6.764
 3897POPC   C3B50493  15.829  16.913   7.064
 3897POPC   C4B50494  15.767  16.975   7.364
 3898POPC   NC350495   2.724  20.616   5.564
 3898POPC   PO450496   2.781  20.639   5.864
 3898POPC   GL150497   2.739  20.601   6.164
 3898POPC   GL250498   2.753  20.473   6.164
 3898POPC   C1A50499   2.766  20.620   6.464
 3898POPC   D2A50500   2.725  20.579   6.764
 3898POPC   C3A50501   2.799  20.628   7.064
 3898POPC   C4A50502   2.776  20.625   7.364
 3898POPC   C1B50503   2.771  20.321   6.464
 3898POPC   C2B50504   2.709  20.413   6.764
 3898POPC   C3B50505   2.684  20.334   7.064
 3898POPC   C4B50506   2.692  20.347   7.364
 3899POPC   NC350507  27.588  37.658   5.564
 3899POPC   PO450508  27.614  37.659   5.864
 3899POPC   GL150509  27.552  37.726   6.164
 3899POPC   GL250510  27.624  37.795   6.164
 3899POPC   C1A50511  27.630  37.729   6.464
 3899POPC   D2A50512  27.545  37.726   6.764
 3899POPC   C3A50513  27.579  37.691   7.064
 3899POPC   C4A50514  27.562  37.673   7.364
 3899POPC   C1B50515  27.671  37.881   6.464
 3899POPC   C2B50516  27.626  37.914   6.764
 3899POPC   C3B50517  27.699  37.949   7.064
 3899POPC   C4B50518  27.659  37.911   7.364
 3900POPC   NC350519  21.371  15.992   5.564
 3900POPC   PO450520  21.400  15.988   5.864
 3900POPC   GL150521  21.370  15.956   6.164
 3900POPC   GL250522  21.487  16.076   6.164
 3900POPC   C1A50523  21.358  15.949   6.464
 3900POPC   D2A50524  21.403  15.964   6.764
 3900POPC   C3A50525  21.346  15.953   7.064
 3900POPC   C4A50526  21.341  15.937   7.364
 3900POPC   C1B50527  21.544  16.144   6.464
 3900POPC   C2B50528  21.623  16.159   6.764
 3900POPC   C3B50529  21.605  16.091   7.064
 3900POPC   C4B50530  21.626  16.119   7.364
 3901POPC   NC350531  40.767   4.351   5.564
 3901POPC   PO450532  40.781   4.337   5.864
 3901POPC   GL150533  40.803   4.352   6.164
 3901POPC   GL250534  40.815   4.221   6.164
 3901POPC   C1A50535  40.739   4.330   6.464
 3901POPC   D2A50536  40.775   4.272   6.764
 3901POPC   C3A50537  40.829   4.320   7.064
 3901POPC   C4A50538  40.763   4.349   7.364
 3901POPC   C1B50539  40.821   4.087   6.464
 3901POPC   C2B50540  40.876   4.122   6.764
 3901POPC   C3B50541  40.842   4.034   7.064
 3901POPC   C4B50542  40.842   4.106   7.364
 3902POPC   NC350543  15.977  36.890   5.564
 3902POPC   PO450544  15.930  36.916   5.864
 3902POPC   GL150545  15.932  36.872   6.164
 3902POPC   GL250546  15.972  37.017   6.164
 3902POPC   C1A50547  15.937  36.923   6.464
 3902POPC   D2A50548  15.938  36.918   6.764
 3902POPC   C3A50549  15.993  36.862   7.064
 3902POPC   C4A50550  15.909  36.857   7.364
 3902POPC   C1B50551  16.030  37.132   6.464
 3902POPC   C2B50552  16.031  37.115   6.764
 3902POPC   C3B50553  16.027  37.100   7.064
 3902POPC   C4B50554  15.961  37.152   7.364
 3903POPC   NC350555  36.168  24.533   5.564
 3903POPC   PO450556  36.147  24.521   5.864
 3903POPC   GL150557  36.094  24.455   6.164
 3903POPC   GL250558  35.987  24.541   6.164
 3903POPC   C1A50559  36.094  24.448   6.464
 3903POPC   D2A50560  36.121  24.510   6.764
 3903POPC   C3A50561  36.101  24.486   7.064
 3903POPC   C4A50562  36.138  24.489   7.364
 3903POPC   C1B50563  35.871  24.586   6.464
 3903POPC   C2B50564  35.896  24.572   6.764
 3903POPC   C3B50565  35.922  24.508   7.064
 3903POPC   C4B50566  35.895  24.496   7.364
 3904POPC   NC350567   0.448  32.293   5.564
 3904POPC   PO450568   0.465  32.248   5.864
 3904POPC   GL150569   0.408  32.265   6.164
 3904POPC   GL250570   0.353  32.296   6.164
 3904POPC   C1A50571   0.422  32.282   6.464
 3904POPC   D2A50572   0.395  32.288   6.764
 3904POPC   C3A50573   0.487  32.283   7.064
 3904POPC   C4A50574   0.442  32.226   7.364
 3904POPC   C1B50575   0.276  32.449   6.464
 3904POPC   C2B50576   0.231  32.445   6.764
 3904POPC   C3B50577   0.272  32.417   7.064
 3904POPC   C4B50578   0.308  32.462   7.364
 3905POPC   NC350579  22.172  33.806   5.564
 3905POPC   PO450580  22.184  33.807   5.864
 3905POPC   GL150581  22.180  33.795   6.164
 3905POPC   GL250582  22.116  33.644   6.164
 3905POPC   C1A50583  22.145  33.771   6.464
 3905POPC   D2A50584  22.148  33.757   6.764
 3905POPC   C3A50585  22.116  33.850   7.064
 3905POPC   C4A50586  22.158  33.815   7.364
 3905POPC   C1B50587  22.081  33.587   6.464
 3905POPC   C2B50588  22.023  33.611   6.764
 3905POPC   C3B50589  22.049  33.631   7.064
 3905POPC   C4B50590  22.011  33.552   7.364
 3906POPC   NC350591  42.371  21.368   5.564
 3906POPC   PO450592  42.299  21.381   5.864
 3906POPC   GL150593  42.327  21.402   6.164
 3906POPC   GL250594  42.197  21.377   6.164
 3906POPC   C1A50595  42.311  21.361   6.464
 3906POPC   D2A50596  42.348  21.403   6.764
 3906POPC   C3A50597  42.350  21.428   7.064
 3906POPC   C4A50598  42.366  21.390   7.364
 3906POPC   C1B50599  42.112  21.251   6.464
 3906POPC   C2B50600  42.145  21.296   6.764
 3906POPC   C3B50601  42.124  21.243   7.064
 3906POPC   C4B50602  42.070  21.240   7.364
 3907POPC   NC350603  19.860  26.808   5.564
 3907POPC   PO450604  19.809  26.798   5.864
 3907POPC   GL150605  19.797  26.830   6.164
 3907POPC   GL250606  19.857  26.907   6.164
 3907POPC   C1A50607  19.789  26.773   6.464
 3907POPC   D2A50608  19.855  26.815   6.764
 3907POPC   C3A50609  19.834  26.784   7.064
 3907POPC   C4A50610  19.822  26.848   7.364
 3907POPC   C1B50611  19.911  27.090   6.464
 3907POPC   C2B50612  19.861  27.105   6.764
 3907POPC   C3B50613  19.860  27.089   7.064
 3907POPC   C4B50614  19.887  27.076   7.364
 3908POPC   NC350615  44.635  30.742   5.564
 3908POPC   PO450616  44.685  30.717   5.864
 3908POPC   GL150617  44.638  30.651   6.164
 3908POPC   GL250618  44.729  30.604   6.164
 3908POPC   C1A50619  44.677  30.709   6.464
 3908POPC   D2A50620  44.676  30.710   6.764
 3908POPC   C3A50621  44.648  30.718   7.064
 3908POPC   C4A50622  44.693  30.724   7.364
 3908POPC   C1B50623  44.787  30.478   6.464
 3908POPC   C2B50624  44.800  30.479   6.764
 3908POPC   C3B50625  44.770  30.497   7.064
 3908POPC   C4B50626  44.783  30.443   7.364
 3909POPC   NC350627   8.206   2.765   5.564
 3909POPC   PO450628   8.157   2.802   5.864
 3909POPC   GL150629   8.241   2.747   6.164
 3909POPC   GL250630   8.157   2.613   6.164
 3909POPC   C1A50631   8.209   2.790   6.464
 3909POPC   D2A50632   8.150   2.731   6.764
 3909POPC   C3A50633   8.156   2.738   7.064
 3909POPC   C4A50634   8.171   2.736   7.364
 3909POPC   C1B50635   8.107   2.570   6.464
 3909POPC   C2B50636   8.089   2.512   6.764
 3909POPC   C3B50637   8.132   2.579   7.064
 3909POPC   C4B50638   8.056   2.493   7.364
 3910POPC   NC350639  39.243  15.959   5.564
 3910POPC   PO450640  39.240  15.914   5.864
 3910POPC   GL150641  39.186  15.913   6.164
 3910POPC   GL250642  39.098  15.876   6.164
 3910POPC   C1A50643  39.280  15.911   6.464
 3910POPC   D2A50644  39.262  15.929   6.764
 3910POPC   C3A50645  39.259  15.975   7.064
 3910POPC   C4A50646  39.194  15.927   7.364
 3910POPC   C1B50647  38.947  15.887   6.464
 3910POPC   C2B50648  38.998  15.880   6.764
 3910POPC   C3B50649  39.027  15.898   7.064
 3910POPC   C4B50650  39.009  15.877   7.364
 3911POPC   NC350651  36.923  42.329   5.564
 3911POPC   PO450652  36.894  42.368   5.864
 3911POPC   GL150653  36.906  42.368   6.164
 3911POPC   GL250654  36.824  42.276   6.164
 3911POPC   C1A50655  36.902  42.363   6.464
 3911POPC   D2A50656  36.935  42.370   6.764
 3911POPC   C3A50657  36.903  42.369   7.064
 3911POPC   C4A50658  36.870  42.294   7.364
 3911POPC   C1B50659  36.729  42.147   6.464
 3911POPC   C2B50660  36.702  42.106   6.764
 3911POPC   C3B50661  36.747  42.181   7.064
 3911POPC   C4B50662  36.740  42.123   7.364
 3912POPC   NC350663  25.239  29.138   5.564
 3912POPC   PO450664  25.269  29.142   5.864
 3912POPC   GL150665  25.293  29.152   6.164
 3912POPC   GL250666  25.191  29.039   6.164
 3912POPC   C1A50667  25.231  29.098   6.464
 3912POPC   D2A50668  25.292  29.101   6.764
 3912POPC   C3A50669  25.259  29.132   7.064
 3912POPC   C4A50670  25.261  29.112   7.364
 3912POPC   C1B50671  25.031  28.975   6.464
 3912POPC   C2B50672  25.014  29.044   6.764
 3912POPC   C3B50673  25.035  29.019   7.064
 3912POPC   C4B50674  25.029  28.972   7.364
 3913POPC   NC350675  29.114  20.593   5.564
 3913POPC   PO450676  29.109  20.572   5.864
 3913POPC   GL150677  29.179  20.656   6.164
 3913POPC   GL250678  29.164  20.466   6.164
 3913POPC   C1A50679  29.120  20.593   6.464
 3913POPC   D2A50680  29.154  20.647   6.764
 3913POPC   C3A50681  29.174  20.643   7.064
 3913POPC   C4A50682  29.117  20.599   7.364
 3913POPC   C1B50683  29.312  20.438   6.464
 3913POPC   C2B50684  29.238  20.412   6.764
 3913POPC   C3B50685  29.236  20.365   7.064
 3913POPC   C4B50686  29.245  20.370   7.364
 3914POPC   NC350687  32.297  40.048   5.564
 3914POPC   PO450688  32.276  39.982   5.864
 3914POPC   GL150689  32.227  40.055   6.164
 3914POPC   GL250690  32.322  40.020   6.164
 3914POPC   C1A50691  32.288  40.049   6.464
 3914POPC   D2A50692  32.290  39.974   6.764
 3914POPC   C3A50693  32.198  39.969   7.064
 3914POPC   C4A50694  32.276  40.053   7.364
 3914POPC   C1B50695  32.513  40.147   6.464
 3914POPC   C2B50696  32.436  40.120   6.764
 3914POPC   C3B50697  32.431  40.152   7.064
 3914POPC   C4B50698  32.443  40.163   7.364
 3915POPC   NC350699   1.999  42.360   5.564
 3915POPC   PO450700   2.018  42.369   5.864
 3915POPC   GL150701   2.029  42.321   6.164
 3915POPC   GL250702   2.097  42.220   6.164
 3915POPC   C1A50703   1.981  42.340   6.464
 3915POPC   D2A50704   1.954  42.370   6.764
 3915POPC   C3A50705   1.982  42.357   7.064
 3915POPC   C4A50706   1.983  42.348   7.364
 3915POPC   C1B50707   2.175  42.183   6.464
 3915POPC   C2B50708   2.230  42.148   6.764
 3915POPC   C3B50709   2.197  42.197   7.064
 3915POPC   C4B50710   2.204  42.172   7.364
 3916POPC   NC350711  26.793   9.731   5.564
 3916POPC   PO450712  26.863   9.767   5.864
 3916POPC   GL150713  26.835   9.741   6.164
 3916POPC   GL250714  26.842   9.610   6.164
 3916POPC   C1A50715  26.813   9.752   6.464
 3916POPC   D2A50716  26.782   9.736   6.764
 3916POPC   C3A50717  26.847   9.762   7.064
 3916POPC   C4A50718  26.795   9.793   7.364
 3916POPC   C1B50719  26.930   9.530   6.464
 3916POPC   C2B50720  26.865   9.522   6.764
 3916POPC   C3B50721  26.884   9.487   7.064
 3916POPC   C4B50722  26.937   9.512   7.364
 3917POPC   NC350723  31.433  32.218   5.564
 3917POPC   PO450724  31.479  32.288   5.864
 3917POPC   GL150725  31.460  32.210   6.164
 3917POPC   GL250726  31.450  32.356   6.164
 3917POPC   C1A50727  31.473  32.235   6.464
 3917POPC   D2A50728  31.486  32.218   6.764
 3917POPC   C3A50729  31.465  32.287   7.064
 3917POPC   C4A50730  31.505  32.282   7.364
 3917POPC   C1B50731  31.374  32.504   6.464
 3917POPC   C2B50732  31.399  32.476   6.764
 3917POPC   C3B50733  31.374  32.464   7.064
 3917POPC   C4B50734  31.427  32.532   7.364
 3918POPC   NC350735  43.108  12.073   5.564
 3918POPC   PO450736  43.144  12.092   5.864
 3918POPC   GL150737  43.133  12.044   6.164
 3918POPC   GL250738  43.205  12.213   6.164
 3918POPC   C1A50739  43.128  12.078   6.464
 3918POPC   D2A50740  43.095  12.073   6.764
 3918POPC   C3A50741  43.137  12.046   7.064
 3918POPC   C4A50742  43.146  12.050   7.364
 3918POPC   C1B50743  43.252  12.320   6.464
 3918POPC   C2B50744  43.226  12.276   6.764
 3918POPC   C3B50745  43.226  12.293   7.064
 3918POPC   C4B50746  43.226  12.288   7.364
 3919POPC   NC350747   6.596  43.894   5.564
 3919POPC   PO450748   6.653  43.848   5.864
 3919POPC   GL150749   6.688  43.873   6.164
 3919POPC   GL250750   6.580  43.934   6.164
 3919POPC   C1A50751   6.606  43.877   6.464
 3919POPC   D2A50752   6.656  43.915   6.764
 3919POPC   C3A50753   6.643  43.922   7.064
 3919POPC   C4A50754   6.694  43.891   7.364
 3919POPC   C1B50755   6.503  44.054   6.464
 3919POPC   C2B50756   6.464  44.038   6.764
 3919POPC   C3B50757   6.445  44.017   7.064
 3919POPC   C4B50758   6.497  44.081   7.364
 3920POPC   NC350759  25.266  36.160   5.564
 3920POPC   PO450760  25.241  36.109   5.864
 3920POPC   GL150761  25.312  36.141   6.164
 3920POPC   GL250762  25.220  36.056   6.164
 3920POPC   C1A50763  25.272  36.174   6.464
 3920POPC   D2A50764  25.298  36.167   6.764
 3920POPC   C3A50765  25.253  36.158   7.064
 3920POPC   C4A50766  25.268  36.079   7.364
 3920POPC   C1B50767  25.089  35.987   6.464
 3920POPC   C2B50768  25.124  35.961   6.764
 3920POPC   C3B50769  25.068  35.974   7.064
 3920POPC   C4B50770  25.146  35.914   7.364
 3921POPC   NC350771  27.607  39.969   5.564
 3921POPC   PO450772  27.607  39.961   5.864
 3921POPC   GL150773  27.639  39.964   6.164
 3921POPC   GL250774  27.513  40.046   6.164
 3921POPC   C1A50775  27.554  39.971   6.464
 3921POPC   D2A50776  27.579  39.996   6.764
 3921POPC   C3A50777  27.575  40.017   7.064
 3921POPC   C4A50778  27.547  40.045   7.364
 3921POPC   C1B50779  27.318  40.005   6.464
 3921POPC   C2B50780  27.349  40.017   6.764
 3921POPC   C3B50781  27.365  39.981   7.064
 3921POPC   C4B50782  27.379  39.972   7.364
 3922POPC   NC350783   1.206  28.395   5.564
 3922POPC   PO450784   1.183  28.380   5.864
 3922POPC   GL150785   1.262  28.411   6.164
 3922POPC   GL250786   1.302  28.448   6.164
 3922POPC   C1A50787   1.209  28.418   6.464
 3922POPC   D2A50788   1.253  28.381   6.764
 3922POPC   C3A50789   1.213  28.330   7.064
 3922POPC   C4A50790   1.253  28.410   7.364
 3922POPC   C1B50791   1.360  28.538   6.464
 3922POPC   C2B50792   1.387  28.548   6.764
 3922POPC   C3B50793   1.357  28.605   7.064
 3922POPC   C4B50794   1.338  28.608   7.364
 3923POPC   NC350795   2.010   5.846   5.564
 3923POPC   PO450796   1.984   5.855   5.864
 3923POPC   GL150797   1.998   5.909   6.164
 3923POPC   GL250798   1.982   5.956   6.164
 3923POPC   C1A50799   2.025   5.915   6.464
 3923POPC   D2A50800   1.998   5.824   6.764
 3923POPC   C3A50801   2.038   5.845   7.064
 3923POPC   C4A50802   1.960   5.836   7.364
 3923POPC   C1B50803   1.945   6.145   6.464
 3923POPC   C2B50804   1.963   6.135   6.764
 3923POPC   C3B50805   1.915   6.135   7.064
 3923POPC   C4B50806   1.922   6.112   7.364
 3924POPC   NC350807   8.923   5.865   5.564
 3924POPC   PO450808   8.949   5.890   5.864
 3924POPC   GL150809   8.926   5.894   6.164
 3924POPC   GL250810   8.974   5.766   6.164
 3924POPC   C1A50811   8.956   5.836   6.464
 3924POPC   D2A50812   8.959   5.916   6.764
 3924POPC   C3A50813   8.983   5.822   7.064
 3924POPC   C4A50814   8.988   5.901   7.364
 3924POPC   C1B50815   9.026   5.593   6.464
 3924POPC   C2B50816   9.098   5.663   6.764
 3924POPC   C3B50817   9.019   5.678   7.064
 3924POPC   C4B50818   9.041   5.641   7.364
 3925POPC   NC350819  38.449   3.524   5.564
 3925POPC   PO450820  38.411   3.565   5.864
 3925POPC   GL150821  38.437   3.536   6.164
 3925POPC   GL250822  38.517   3.652   6.164
 3925POPC   C1A50823  38.490   3.574   6.464
 3925POPC   D2A50824  38.418   3.563   6.764
 3925POPC   C3A50825  38.411   3.497   7.064
 3925POPC   C4A50826  38.495   3.543   7.364
 3925POPC   C1B50827  38.635   3.747   6.464
 3925POPC   C2B50828  38.646   3.762   6.764
 3925POPC   C3B50829  38.661   3.680   7.064
 3925POPC   C4B50830  38.636   3.683   7.364
 3926POPC   NC350831  32.231  27.563   5.564
 3926POPC   PO450832  32.219  27.576   5.864
 3926POPC   GL150833  32.286  27.576   6.164
 3926POPC   GL250834  32.269  27.669   6.164
 3926POPC   C1A50835  32.261  27.605   6.464
 3926POPC   D2A50836  32.261  27.604   6.764
 3926POPC   C3A50837  32.249  27.555   7.064
 3926POPC   C4A50838  32.290  27.549   7.364
 3926POPC   C1B50839  32.359  27.778   6.464
 3926POPC   C2B50840  32.344  27.773   6.764
 3926POPC   C3B50841  32.344  27.842   7.064
 3926POPC   C4B50842  32.350  27.753   7.364
 3927POPC   NC350843  42.323   3.574   5.564
 3927POPC   PO450844  42.338   3.530   5.864
 3927POPC   GL150845  42.374   3.542   6.164
 3927POPC   GL250846  42.392   3.453   6.164
 3927POPC   C1A50847  42.383   3.530   6.464
 3927POPC   D2A50848  42.293   3.518   6.764
 3927POPC   C3A50849  42.329   3.551   7.064
 3927POPC   C4A50850  42.382   3.540   7.364
 3927POPC   C1B50851  42.466   3.364   6.464
 3927POPC   C2B50852  42.505   3.326   6.764
 3927POPC   C3B50853  42.521   3.344   7.064
 3927POPC   C4B50854  42.445   3.324   7.364
 3928POPC   NC350855   5.849  12.069   5.564
 3928POPC   PO450856   5.856  12.064   5.864
 3928POPC   GL150857   5.889  12.055   6.164
 3928POPC   GL250858   5.698  12.100   6.164
 3928POPC   C1A50859   5.827  12.048   6.464
 3928POPC   D2A50860   5.914  12.047   6.764
 3928POPC   C3A50861   5.913  12.027   7.064
 3928POPC   C4A50862   5.894  12.124   7.364
 3928POPC   C1B50863   5.671  11.990   6.464
 3928POPC   C2B50864   5.665  12.006   6.764
 3928POPC   C3B50865   5.641  12.067   7.064
 3928POPC   C4B50866   5.643  12.001   7.364
 3929POPC   NC350867  33.038  41.593   5.564
 3929POPC   PO450868  33.022  41.558   5.864
 3929POPC   GL150869  33.015  41.579   6.164
 3929POPC   GL250870  33.080  41.505   6.164
 3929POPC   C1A50871  33.015  41.512   6.464
 3929POPC   D2A50872  32.989  41.591   6.764
 3929POPC   C3A50873  33.001  41.592   7.064
 3929POPC   C4A50874  33.041  41.595   7.364
 3929POPC   C1B50875  33.237  41.337   6.464
 3929POPC   C2B50876  33.216  41.431   6.764
 3929POPC   C3B50877  33.158  41.402   7.064
 3929POPC   C4B50878  33.246  41.369   7.364
 3930POPC   NC350879  15.166  40.764   5.564
 3930POPC   PO450880  15.147  40.800   5.864
 3930POPC   GL150881  15.165  40.739   6.164
 3930POPC   GL250882  15.228  40.663   6.164
 3930POPC   C1A50883  15.177  40.777   6.464
 3930POPC   D2A50884  15.149  40.832   6.764
 3930POPC   C3A50885  15.167  40.743   7.064
 3930POPC   C4A50886  15.172  40.806   7.364
 3930POPC   C1B50887  15.218  40.576   6.464
 3930POPC   C2B50888  15.253  40.575   6.764
 3930POPC   C3B50889  15.235  40.500   7.064
 3930POPC   C4B50890  15.201  40.509   7.364
 3931POPC   NC350891   7.447   7.384   5.564
 3931POPC   PO450892   7.385   7.436   5.864
 3931POPC   GL150893   7.400   7.421   6.164
 3931POPC   GL250894   7.292   7.519   6.164
 3931POPC   C1A50895   7.422   7.415   6.464
 3931POPC   D2A50896   7.434   7.432   6.764
 3931POPC   C3A50897   7.391   7.440   7.064
 3931POPC   C4A50898   7.451   7.447   7.364
 3931POPC   C1B50899   7.208   7.585   6.464
 3931POPC   C2B50900   7.206   7.576   6.764
 3931POPC   C3B50901   7.221   7.572   7.064
 3931POPC   C4B50902   7.222   7.583   7.364
 3932POPC   NC350903  43.106  13.671   5.564
 3932POPC   PO450904  43.111  13.594   5.864
 3932POPC   GL150905  43.074  13.613   6.164
 3932POPC   GL250906  43.210  13.576   6.164
 3932POPC   C1A50907  43.082  13.641   6.464
 3932POPC   D2A50908  43.078  13.632   6.764
 3932POPC   C3A50909  43.138  13.676   7.064
 3932POPC   C4A50910  43.095  13.666   7.364
 3932POPC   C1B50911  43.308  13.539   6.464
 3932POPC   C2B50912  43.318  13.552   6.764
 3932POPC   C3B50913  43.368  13.616   7.064
 3932POPC   C4B50914  43.365  13.559   7.364
 3933POPC   NC350915  18.321  42.367   5.564
 3933POPC   PO450916  18.271  42.381   5.864
 3933POPC   GL150917  18.267  42.331   6.164
 3933POPC   GL250918  18.373  42.390   6.164
 3933POPC   C1A50919  18.259  42.357   6.464
 3933POPC   D2A50920  18.262  42.340   6.764
 3933POPC   C3A50921  18.307  42.350   7.064
 3933POPC   C4A50922  18.300  42.327   7.364
 3933POPC   C1B50923  18.487  42.491   6.464
 3933POPC   C2B50924  18.436  42.510   6.764
 3933POPC   C3B50925  18.491  42.512   7.064
 3933POPC   C4B50926  18.526  42.507   7.364
 3934POPC   NC350927  43.914  43.124   5.564
 3934POPC   PO450928  43.935  43.084   5.864
 3934POPC   GL150929  43.931  43.100   6.164
 3934POPC   GL250930  43.723  43.080   6.164
 3934POPC   C1A50931  43.912  43.158   6.464
 3934POPC   D2A50932  43.921  43.122   6.764
 3934POPC   C3A50933  43.916  43.061   7.064
 3934POPC   C4A50934  43.894  43.128   7.364
 3934POPC   C1B50935  43.669  43.073   6.464
 3934POPC   C2B50936  43.679  43.112   6.764
 3934POPC   C3B50937  43.589  43.077   7.064
 3934POPC   C4B50938  43.667  43.052   7.364
 3935POPC   NC350939   1.215  43.137   5.564
 3935POPC   PO450940   1.235  43.154   5.864
 3935POPC   GL150941   1.237  43.081   6.164
 3935POPC   GL250942   1.149  43.040   6.164
 3935POPC   C1A50943   1.257  43.160   6.464
 3935POPC   D2A50944   1.178  43.135   6.764
 3935POPC   C3A50945   1.183  43.078   7.064
 3935POPC   C4A50946   1.193  43.133   7.364
 3935POPC   C1B50947   0.970  42.950   6.464
 3935POPC   C2B50948   1.051  43.008   6.764
 3935POPC   C3B50949   1.029  42.975   7.064
 3935POPC   C4B50950   0.988  42.971   7.364
 3936POPC   NC350951  28.366  19.042   5.564
 3936POPC   PO450952  28.347  19.108   5.864
 3936POPC   GL150953  28.333  19.048   6.164
 3936POPC   GL250954  28.463  19.079   6.164
 3936POPC   C1A50955  28.340  19.090   6.464
 3936POPC   D2A50956  28.397  19.074   6.764
 3936POPC   C3A50957  28.381  19.100   7.064
 3936POPC   C4A50958  28.419  19.096   7.364
 3936POPC   C1B50959  28.570  19.078   6.464
 3936POPC   C2B50960  28.616  19.105   6.764
 3936POPC   C3B50961  28.602  19.017   7.064
 3936POPC   C4B50962  28.634  19.066   7.364
 3937POPC   NC350963  38.440  26.805   5.564
 3937POPC   PO450964  38.462  26.795   5.864
 3937POPC   GL150965  38.405  26.794   6.164
 3937POPC   GL250966  38.499  26.955   6.164
 3937POPC   C1A50967  38.441  26.799   6.464
 3937POPC   D2A50968  38.457  26.772   6.764
 3937POPC   C3A50969  38.472  26.837   7.064
 3937POPC   C4A50970  38.504  26.839   7.364
 3937POPC   C1B50971  38.480  27.059   6.464
 3937POPC   C2B50972  38.512  27.020   6.764
 3937POPC   C3B50973  38.426  27.101   7.064
 3937POPC   C4B50974  38.503  27.023   7.364
 3938POPC   NC350975  35.378   8.208   5.564
 3938POPC   PO450976  35.371   8.174   5.864
 3938POPC   GL150977  35.340   8.244   6.164
 3938POPC   GL250978  35.256   8.183   6.164
 3938POPC   C1A50979  35.370   8.176   6.464
 3938POPC   D2A50980  35.331   8.209   6.764
 3938POPC   C3A50981  35.315   8.180   7.064
 3938POPC   C4A50982  35.347   8.196   7.364
 3938POPC   C1B50983  35.113   8.242   6.464
 3938POPC   C2B50984  35.078   8.250   6.764
 3938POPC   C3B50985  35.143   8.269   7.064
 3938POPC   C4B50986  35.100   8.274   7.364
 3939POPC   NC350987  12.898  26.021   5.564
 3939POPC   PO450988  12.872  26.001   5.864
 3939POPC   GL150989  12.823  26.076   6.164
 3939POPC   GL250990  12.909  26.159   6.164
 3939POPC   C1A50991  12.902  26.084   6.464
 3939POPC   D2A50992  12.878  26.031   6.764
 3939POPC   C3A50993  12.888  26.007   7.064
 3939POPC   C4A50994  12.884  26.057   7.364
 3939POPC   C1B50995  12.903  26.245   6.464
 3939POPC   C2B50996  12.854  26.251   6.764
 3939POPC   C3B50997  12.858  26.308   7.064
 3939POPC   C4B50998  12.866  26.335   7.364
 3940POPC   NC350999  36.103   5.844   5.564
 3940POPC   PO451000  36.139   5.908   5.864
 3940POPC   GL151001  36.085   5.857   6.164
 3940POPC   GL251002  36.229   5.873   6.164
 3940POPC   C1A51003  36.166   5.867   6.464
 3940POPC   D2A51004  36.160   5.872   6.764
 3940POPC   C3A51005  36.138   5.857   7.064
 3940POPC   C4A51006  36.107   5.832   7.364
 3940POPC   C1B51007  36.420   5.951   6.464
 3940POPC   C2B51008  36.361   5.936   6.764
 3940POPC   C3B51009  36.425   5.915   7.064
 3940POPC   C4B51010  36.366   5.925   7.364
 3941POPC   NC351011  41.556  39.189   5.564
 3941POPC   PO451012  41.517  39.185   5.864
 3941POPC   GL151013  41.536  39.229   6.164
 3941POPC   GL251014  41.649  39.251   6.164
 3941POPC   C1A51015  41.569  39.187   6.464
 3941POPC   D2A51016  41.539  39.221   6.764
 3941POPC   C3A51017  41.579  39.256   7.064
 3941POPC   C4A51018  41.511  39.268   7.364
 3941POPC   C1B51019  41.824  39.196   6.464
 3941POPC   C2B51020  41.808  39.225   6.764
 3941POPC   C3B51021  41.782  39.172   7.064
 3941POPC   C4B51022  41.844  39.192   7.364
 3942POPC   NC351023  10.507   5.112   5.564
 3942POPC   PO451024  10.486   5.142   5.864
 3942POPC   GL151025  10.563   5.104   6.164
 3942POPC   GL251026  10.635   5.074   6.164
 3942POPC   C1A51027  10.544   5.118   6.464
 3942POPC   D2A51028  10.493   5.125   6.764
 3942POPC   C3A51029  10.557   5.060   7.064
 3942POPC   C4A51030  10.522   5.094   7.364
 3942POPC   C1B51031  10.742   5.011   6.464
 3942POPC   C2B51032  10.767   5.070   6.764
 3942POPC   C3B51033  10.798   5.048   7.064
 3942POPC   C4B51034  10.753   5.059   7.364
 3943POPC   NC351035  19.052  41.573   5.564
 3943POPC   PO451036  19.051  41.546   5.864
 3943POPC   GL151037  19.105  41.515   6.164
 3943POPC   GL251038  19.129  41.524   6.164
 3943POPC   C1A51039  19.027  41.513   6.464
 3943POPC   D2A51040  19.084  41.576   6.764
 3943POPC   C3A51041  19.091  41.545   7.064
 3943POPC   C4A51042  19.023  41.599   7.364
 3943POPC   C1B51043  19.300  41.391   6.464
 3943POPC   C2B51044  19.252  41.445   6.764
 3943POPC   C3B51045  19.242  41.457   7.064
 3943POPC   C4B51046  19.308  41.437   7.364
 3944POPC   NC351047  19.108  14.439   5.564
 3944POPC   PO451048  19.081  14.450   5.864
 3944POPC   GL151049  19.038  14.420   6.164
 3944POPC   GL251050  19.174  14.462   6.164
 3944POPC   C1A51051  19.041  14.444   6.464
 3944POPC   D2A51052  19.034  14.395   6.764
 3944POPC   C3A51053  19.099  14.355   7.064
 3944POPC   C4A51054  19.054  14.436   7.364
 3944POPC   C1B51055  19.287  14.494   6.464
 3944POPC   C2B51056  19.267  14.466   6.764
 3944POPC   C3B51057  19.300  14.462   7.064
 3944POPC   C4B51058  19.272  14.465   7.364
 3945POPC   NC351059   6.633  26.798   5.564
 3945POPC   PO451060   6.644  26.817   5.864
 3945POPC   GL151061   6.636  26.781   6.164
 3945POPC   GL251062   6.532  26.934   6.164
 3945POPC   C1A51063   6.679  26.820   6.464
 3945POPC   D2A51064   6.651  26.856   6.764
 3945POPC   C3A51065   6.609  26.821   7.064
 3945POPC   C4A51066   6.600  26.805   7.364
 3945POPC   C1B51067   6.423  26.957   6.464
 3945POPC   C2B51068   6.415  27.004   6.764
 3945POPC   C3B51069   6.490  27.039   7.064
 3945POPC   C4B51070   6.507  27.031   7.364
 3946POPC   NC351071  36.084  33.755   5.564
 3946POPC   PO451072  36.125  33.821   5.864
 3946POPC   GL151073  36.101  33.785   6.164
 3946POPC   GL251074  36.037  33.779   6.164
 3946POPC   C1A51075  36.096  33.845   6.464
 3946POPC   D2A51076  36.131  33.822   6.764
 3946POPC   C3A51077  36.165  33.760   7.064
 3946POPC   C4A51078  36.154  33.823   7.364
 3946POPC   C1B51079  35.910  33.706   6.464
 3946POPC   C2B51080  35.883  33.640   6.764
 3946POPC   C3B51081  35.932  33.698   7.064
 3946POPC   C4B51082  35.873  33.654   7.364
 3947POPC   NC351083  21.344  29.121   5.564
 3947POPC   PO451084  21.398  29.097   5.864
 3947POPC   GL151085  21.338  29.136   6.164
 3947POPC   GL251086  21.232  29.155   6.164
 3947POPC   C1A51087  21.351  29.176   6.464
 3947POPC   D2A51088  21.396  29.118   6.764
 3947POPC   C3A51089  21.426  29.153   7.064
 3947POPC   C4A51090  21.345  29.138   7.364
 3947POPC   C1B51091  21.152  29.165   6.464
 3947POPC   C2B51092  21.151  29.133   6.764
 3947POPC   C3B51093  21.156  29.189   7.064
 3947POPC   C4B51094  21.126  29.132   7.364
 3948POPC   NC351095  28.403  36.950   5.564
 3948POPC   PO451096  28.341  36.924   5.864
 3948POPC   GL151097  28.321  36.946   6.164
 3948POPC   GL251098  28.270  36.876   6.164
 3948POPC   C1A51099  28.353  36.908   6.464
 3948POPC   D2A51100  28.385  36.906   6.764
 3948POPC   C3A51101  28.329  36.881   7.064
 3948POPC   C4A51102  28.362  36.950   7.364
 3948POPC   C1B51103  28.165  36.824   6.464
 3948POPC   C2B51104  28.100  36.915   6.764
 3948POPC   C3B51105  28.135  36.889   7.064
 3948POPC   C4B51106  28.109  36.830   7.364
 3949POPC   NC351107  11.274  22.960   5.564
 3949POPC   PO451108  11.295  22.927   5.864
 3949POPC   GL151109  11.263  22.913   6.164
 3949POPC   GL251110  11.211  22.975   6.164
 3949POPC   C1A51111  11.289  22.929   6.464
 3949POPC   D2A51112  11.255  22.976   6.764
 3949POPC   C3A51113  11.325  22.938   7.064
 3949POPC   C4A51114  11.274  22.981   7.364
 3949POPC   C1B51115  11.146  23.096   6.464
 3949POPC   C2B51116  11.120  23.102   6.764
 3949POPC   C3B51117  11.145  23.120   7.064
 3949POPC   C4B51118  11.151  23.054   7.364
 3950POPC   NC351119  43.912  21.397   5.564
 3950POPC   PO451120  43.915  21.401   5.864
 3950POPC   GL151121  43.843  21.421   6.164
 3950POPC   GL251122  43.933  21.240   6.164
 3950POPC   C1A51123  43.859  21.432   6.464
 3950POPC   D2A51124  43.886  21.397   6.764
 3950POPC   C3A51125  43.914  21.435   7.064
 3950POPC   C4A51126  43.852  21.368   7.364
 3950POPC   C1B51127  43.968  21.171   6.464
 3950POPC   C2B51128  43.986  21.143   6.764
 3950POPC   C3B51129  43.966  21.142   7.064
 3950POPC   C4B51130  44.046  21.140   7.364
 3951POPC   NC351131  37.697  36.902   5.564
 3951POPC   PO451132  37.658  36.881   5.864
 3951POPC   GL151133  37.716  36.875   6.164
 3951POPC   GL251134  37.591  36.906   6.164
 3951POPC   C1A51135  37.683  36.944   6.464
 3951POPC   D2A51136  37.642  36.903   6.764
 3951POPC   C3A51137  37.725  36.940   7.064
 3951POPC   C4A51138  37.652  36.912   7.364
 3951POPC   C1B51139  37.385  36.865   6.464
 3951POPC   C2B51140  37.384  36.851   6.764
 3951POPC   C3B51141  37.442  36.925   7.064
 3951POPC   C4B51142  37.464  36.865   7.364
 3952POPC   NC351143   2.014   5.075   5.564
 3952POPC   PO451144   1.991   5.121   5.864
 3952POPC   GL151145   2.019   5.071   6.164
 3952POPC   GL251146   2.091   5.146   6.164
 3952POPC   C1A51147   1.941   5.097   6.464
 3952POPC   D2A51148   1.991   5.087   6.764
 3952POPC   C3A51149   2.001   5.133   7.064
 3952POPC   C4A51150   1.958   5.049   7.364
 3952POPC   C1B51151   2.277   5.168   6.464
 3952POPC   C2B51152   2.213   5.127   6.764
 3952POPC   C3B51153   2.271   5.109   7.064
 3952POPC   C4B51154   2.274   5.141   7.364
 3953POPC   NC351155  33.750   6.642   5.564
 3953POPC   PO451156  33.807   6.669   5.864
 3953POPC   GL151157  33.774   6.603   6.164
 3953POPC   GL251158  33.887   6.777   6.164
 3953POPC   C1A51159  33.787   6.617   6.464
 3953POPC   D2A51160  33.790   6.648   6.764
 3953POPC   C3A51161  33.809   6.678   7.064
 3953POPC   C4A51162  33.776   6.684   7.364
 3953POPC   C1B51163  34.019   6.825   6.464
 3953POPC   C2B51164  34.025   6.787   6.764
 3953POPC   C3B51165  33.991   6.802   7.064
 3953POPC   C4B51166  34.024   6.843   7.364
 3954POPC   NC351167  28.394  13.673   5.564
 3954POPC   PO451168  28.328  13.645   5.864
 3954POPC   GL151169  28.389  13.595   6.164
 3954POPC   GL251170  28.347  13.747   6.164
 3954POPC   C1A51171  28.338  13.598   6.464
 3954POPC   D2A51172  28.341  13.625   6.764
 3954POPC   C3A51173  28.355  13.581   7.064
 3954POPC   C4A51174  28.359  13.666   7.364
 3954POPC   C1B51175  28.368  13.866   6.464
 3954POPC   C2B51176  28.310  13.861   6.764
 3954POPC   C3B51177  28.326  13.840   7.064
 3954POPC   C4B51178  28.388  13.856   7.364
 3955POPC   NC351179  35.360  35.346   5.564
 3955POPC   PO451180  35.324  35.367   5.864
 3955POPC   GL151181  35.345  35.359   6.164
 3955POPC   GL251182  35.319  35.209   6.164
 3955POPC   C1A51183  35.400  35.360   6.464
 3955POPC   D2A51184  35.341  35.308   6.764
 3955POPC   C3A51185  35.328  35.396   7.064
 3955POPC   C4A51186  35.385  35.339   7.364
 3955POPC   C1B51187  35.253  35.078   6.464
 3955POPC   C2B51188  35.263  35.154   6.764
 3955POPC   C3B51189  35.274  35.117   7.064
 3955POPC   C4B51190  35.207  35.091   7.364
 3956POPC   NC351191  26.036  36.914   5.564
 3956POPC   PO451192  26.022  36.943   5.864
 3956POPC   GL151193  26.058  36.877   6.164
 3956POPC   GL251194  26.027  36.835   6.164
 3956POPC   C1A51195  26.023  36.938   6.464
 3956POPC   D2A51196  26.081  36.860   6.764
 3956POPC   C3A51197  26.023  36.892   7.064
 3956POPC   C4A51198  26.008  36.877   7.364
 3956POPC   C1B51199  25.915  36.686   6.464
 3956POPC   C2B51200  25.906  36.687   6.764
 3956POPC   C3B51201  25.918  36.696   7.064
 3956POPC   C4B51202  25.962  36.685   7.364
 3957POPC   NC351203   9.711  25.253   5.564
 3957POPC   PO451204   9.707  25.267   5.864
 3957POPC   GL151205   9.719  25.234   6.164
 3957POPC   GL251206   9.831  25.336   6.164
 3957POPC   C1A51207   9.766  25.311   6.464
 3957POPC   D2A51208   9.706  25.273   6.764
 3957POPC   C3A51209   9.710  25.297   7.064
 3957POPC   C4A51210   9.738  25.243   7.364
 3957POPC   C1B51211   9.961  25.358   6.464
 3957POPC   C2B51212  10.022  25.367   6.764
 3957POPC   C3B51213   9.969  25.282   7.064
 3957POPC   C4B51214  10.037  25.338   7.364
 3958POPC   NC351215  33.759   9.766   5.564
 3958POPC   PO451216  33.793   9.706   5.864
 3958POPC   GL151217  33.791   9.753   6.164
 3958POPC   GL251218  33.807   9.587   6.164
 3958POPC   C1A51219  33.753   9.779   6.464
 3958POPC   D2A51220  33.796   9.783   6.764
 3958POPC   C3A51221  33.785   9.787   7.064
 3958POPC   C4A51222  33.826   9.738   7.364
 3958POPC   C1B51223  33.878   9.552   6.464
 3958POPC   C2B51224  33.853   9.513   6.764
 3958POPC   C3B51225  33.845   9.491   7.064
 3958POPC   C4B51226  33.846   9.477   7.364
 3959POPC   NC351227   3.578   9.012   5.564
 3959POPC   PO451228   3.574   8.995   5.864
 3959POPC   GL151229   3.521   9.003   6.164
 3959POPC   GL251230   3.403   8.999   6.164
 3959POPC   C1A51231   3.571   8.997   6.464
 3959POPC   D2A51232   3.548   8.965   6.764
 3959POPC   C3A51233   3.588   8.988   7.064
 3959POPC   C4A51234   3.547   8.962   7.364
 3959POPC   C1B51235   3.272   8.974   6.464
 3959POPC   C2B51236   3.280   8.949   6.764
 3959POPC   C3B51237   3.252   8.971   7.064
 3959POPC   C4B51238   3.338   8.986   7.364
 3960POPC   NC351239  36.123  22.966   5.564
 3960POPC   PO451240  36.133  22.939   5.864
 3960POPC   GL151241  36.134  22.940   6.164
 3960POPC   GL251242  36.288  22.891   6.164
 3960POPC   C1A51243  36.099  22.985   6.464
 3960POPC   D2A51244  36.155  22.889   6.764
 3960POPC   C3A51245  36.089  22.956   7.064
 3960POPC   C4A51246  36.154  22.981   7.364
 3960POPC   C1B51247  36.384  22.844   6.464
 3960POPC   C2B51248  36.349  22.845   6.764
 3960POPC   C3B51249  36.339  22.839   7.064
 3960POPC   C4B51250  36.405  22.833   7.364
 3961POPC   NC351251   3.518  16.739   5.564
 3961POPC   PO451252   3.517  16.754   5.864
 3961POPC   GL151253   3.573  16.758   6.164
 3961POPC   GL251254   3.482  16.646   6.164
 3961POPC   C1A51255   3.492  16.719   6.464
 3961POPC   D2A51256   3.511  16.742   6.764
 3961POPC   C3A51257   3.520  16.722   7.064
 3961POPC   C4A51258   3.536  16.755   7.364
 3961POPC   C1B51259   3.405  16.484   6.464
 3961POPC   C2B51260   3.413  16.482   6.764
 3961POPC   C3B51261   3.369  16.531   7.064
 3961POPC   C4B51262   3.388  16.554   7.364
 3962POPC   NC351263  44.662  22.194   5.564
 3962POPC   PO451264  44.695  22.208   5.864
 3962POPC   GL151265  44.637  22.199   6.164
 3962POPC   GL251266  44.761  22.264   6.164
 3962POPC   C1A51267  44.645  22.159   6.464
 3962POPC   D2A51268  44.649  22.163   6.764
 3962POPC   C3A51269  44.676  22.196   7.064
 3962POPC   C4A51270  44.652  22.146   7.364
 3962POPC   C1B51271  44.812  22.329   6.464
 3962POPC   C2B51272  44.814  22.365   6.764
 3962POPC   C3B51273  44.800  22.317   7.064
 3962POPC   C4B51274  44.821  22.363   7.364
 3963POPC   NC351275  28.381  40.025   5.564
 3963POPC   PO451276  28.410  39.964   5.864
 3963POPC   GL151277  28.332  40.007   6.164
 3963POPC   GL251278  28.403  39.882   6.164
 3963POPC   C1A51279  28.354  40.021   6.464
 3963POPC   D2A51280  28.359  40.031   6.764
 3963POPC   C3A51281  28.410  39.997   7.064
 3963POPC   C4A51282  28.329  40.045   7.364
 3963POPC   C1B51283  28.461  39.768   6.464
 3963POPC   C2B51284  28.430  39.747   6.764
 3963POPC   C3B51285  28.429  39.785   7.064
 3963POPC   C4B51286  28.456  39.805   7.364
 3964POPC   NC351287  33.814  41.602   5.564
 3964POPC   PO451288  33.830  41.526   5.864
 3964POPC   GL151289  33.844  41.512   6.164
 3964POPC   GL251290  33.696  41.609   6.164
 3964POPC   C1A51291  33.774  41.587   6.464
 3964POPC   D2A51292  33.833  41.530   6.764
 3964POPC   C3A51293  33.789  41.560   7.064
 3964POPC   C4A51294  33.756  41.543   7.364
 3964POPC   C1B51295  33.604  41.716   6.464
 3964POPC   C2B51296  33.627  41.706   6.764
 3964POPC   C3B51297  33.586  41.690   7.064
 3964POPC   C4B51298  33.565  41.702   7.364
 3965POPC   NC351299  39.247  39.966   5.564
 3965POPC   PO451300  39.256  40.036   5.864
 3965POPC   GL151301  39.233  40.028   6.164
 3965POPC   GL251302  39.290  40.088   6.164
 3965POPC   C1A51303  39.187  40.015   6.464
 3965POPC   D2A51304  39.203  40.021   6.764
 3965POPC   C3A51305  39.267  39.995   7.064
 3965POPC   C4A51306  39.228  40.048   7.364
 3965POPC   C1B51307  39.479  40.177   6.464
 3965POPC   C2B51308  39.436  40.153   6.764
 3965POPC   C3B51309  39.443  40.161   7.064
 3965POPC   C4B51310  39.458  40.098   7.364
 3966POPC   NC351311  10.524  16.734   5.564
 3966POPC   PO451312  10.496  16.721   5.864
 3966POPC   GL151313  10.525  16.747   6.164
 3966POPC   GL251314  10.466  16.780   6.164
 3966POPC   C1A51315  10.489  16.733   6.464
 3966POPC   D2A51316  10.536  16.683   6.764
 3966POPC   C3A51317  10.538  16.779   7.064
 3966POPC   C4A51318  10.544  16.745   7.364
 3966POPC   C1B51319  10.334  16.861   6.464
 3966POPC   C2B51320  10.349  16.908   6.764
 3966POPC   C3B51321  10.319  16.882   7.064
 3966POPC   C4B51322  10.273  16.843   7.364
 3967POPC   NC351323  10.519  44.684   5.564
 3967POPC   PO451324  10.517  44.705   5.864
 3967POPC   GL151325  10.484  44.710   6.164
 3967POPC   GL251326  10.674  44.642   6.164
 3967POPC   C1A51327  10.568  44.674   6.464
 3967POPC   D2A51328  10.494  44.679   6.764
 3967POPC   C3A51329  10.548  44.706   7.064
 3967POPC   C4A51330  10.519  44.712   7.364
 3967POPC   C1B51331  10.778  44.582   6.464
 3967POPC   C2B51332  10.767  44.644   6.764
 3967POPC   C3B51333  10.783  44.573   7.064
 3967POPC   C4B51334  10.802  44.563   7.364
 3968POPC   NC351335   7.408  22.973   5.564
 3968POPC   PO451336   7.391  22.982   5.864
 3968POPC   GL151337   7.384  22.951   6.164
 3968POPC   GL251338   7.384  23.046   6.164
 3968POPC   C1A51339   7.426  22.890   6.464
 3968POPC   D2A51340   7.434  22.955   6.764
 3968POPC   C3A51341   7.396  22.960   7.064
 3968POPC   C4A51342   7.448  22.920   7.364
 3968POPC   C1B51343   7.261  23.185   6.464
 3968POPC   C2B51344   7.224  23.164   6.764
 3968POPC   C3B51345   7.266  23.107   7.064
 3968POPC   C4B51346   7.264  23.112   7.364
 3969POPC   NC351347  36.858   0.435   5.564
 3969POPC   PO451348  36.856   0.435   5.864
 3969POPC   GL151349  36.936   0.421   6.164
 3969POPC   GL251350  36.980   0.501   6.164
 3969POPC   C1A51351  36.915   0.470   6.464
 3969POPC   D2A51352  36.866   0.429   6.764
 3969POPC   C3A51353  36.931   0.407   7.064
 3969POPC   C4A51354  36.944   0.404   7.364
 3969POPC   C1B51355  37.107   0.543   6.464
 3969POPC   C2B51356  37.110   0.607   6.764
 3969POPC   C3B51357  37.137   0.591   7.064
 3969POPC   C4B51358  37.119   0.555   7.364
 3970POPC   NC351359  27.552  16.703   5.564
 3970POPC   PO451360  27.556  16.703   5.864
 3970POPC   GL151361  27.636  16.742   6.164
 3970POPC   GL251362  27.751  16.752   6.164
 3970POPC   C1A51363  27.632  16.733   6.464
 3970POPC   D2A51364  27.573  16.741   6.764
 3970POPC   C3A51365  27.590  16.703   7.064
 3970POPC   C4A51366  27.628  16.701   7.364
 3970POPC   C1B51367  27.828  16.770   6.464
 3970POPC   C2B51368  27.824  16.697   6.764
 3970POPC   C3B51369  27.831  16.784   7.064
 3970POPC   C4B51370  27.799  16.747   7.364
 3971POPC   NC351371  25.221  15.191   5.564
 3971POPC   PO451372  25.244  15.139   5.864
 3971POPC   GL151373  25.274  15.173   6.164
 3971POPC   GL251374  25.396  15.105   6.164
 3971POPC   C1A51375  25.231  15.173   6.464
 3971POPC   D2A51376  25.289  15.216   6.764
 3971POPC   C3A51377  25.262  15.179   7.064
 3971POPC   C4A51378  25.272  15.221   7.364
 3971POPC   C1B51379  25.517  15.090   6.464
 3971POPC   C2B51380  25.528  15.107   6.764
 3971POPC   C3B51381  25.505  15.075   7.064
 3971POPC   C4B51382  25.492  15.103   7.364
 3972POPC   NC351383  33.756  39.963   5.564
 3972POPC   PO451384  33.821  40.017   5.864
 3972POPC   GL151385  33.849  40.052   6.164
 3972POPC   GL251386  33.670  40.052   6.164
 3972POPC   C1A51387  33.819  39.987   6.464
 3972POPC   D2A51388  33.812  40.017   6.764
 3972POPC   C3A51389  33.780  40.040   7.064
 3972POPC   C4A51390  33.808  40.043   7.364
 3972POPC   C1B51391  33.518  40.074   6.464
 3972POPC   C2B51392  33.538  40.083   6.764
 3972POPC   C3B51393  33.525  40.044   7.064
 3972POPC   C4B51394  33.568  40.108   7.364
 3973POPC   NC351395  43.069  40.048   5.564
 3973POPC   PO451396  43.062  39.992   5.864
 3973POPC   GL151397  43.158  39.970   6.164
 3973POPC   GL251398  43.196  40.017   6.164
 3973POPC   C1A51399  43.083  40.043   6.464
 3973POPC   D2A51400  43.084  40.019   6.764
 3973POPC   C3A51401  43.149  40.022   7.064
 3973POPC   C4A51402  43.123  40.044   7.364
 3973POPC   C1B51403  43.389  40.060   6.464
 3973POPC   C2B51404  43.333  40.079   6.764
 3973POPC   C3B51405  43.404  40.069   7.064
 3973POPC   C4B51406  43.309  40.050   7.364
 3974POPC   NC351407  33.834  43.935   5.564
 3974POPC   PO451408  33.783  43.850   5.864
 3974POPC   GL151409  33.783  43.896   6.164
 3974POPC   GL251410  33.780  43.799   6.164
 3974POPC   C1A51411  33.827  43.924   6.464
 3974POPC   D2A51412  33.840  43.915   6.764
 3974POPC   C3A51413  33.830  43.855   7.064
 3974POPC   C4A51414  33.784  43.851   7.364
 3974POPC   C1B51415  33.856  43.618   6.464
 3974POPC   C2B51416  33.783  43.598   6.764
 3974POPC   C3B51417  33.822  43.686   7.064
 3974POPC   C4B51418  33.809  43.627   7.364
 3975POPC   NC351419  20.603  26.066   5.564
 3975POPC   PO451420  20.613  26.070   5.864
 3975POPC   GL151421  20.657  26.046   6.164
 3975POPC   GL251422  20.461  26.013   6.164
 3975POPC   C1A51423  20.637  26.006   6.464
 3975POPC   D2A51424  20.655  26.086   6.764
 3975POPC   C3A51425  20.585  26.089   7.064
 3975POPC   C4A51426  20.653  26.089   7.364
 3975POPC   C1B51427  20.409  25.963   6.464
 3975POPC   C2B51428  20.402  25.985   6.764
 3975POPC   C3B51429  20.404  25.964   7.064
 3975POPC   C4B51430  20.355  25.904   7.364
 3976POPC   NC351431  17.552  25.305   5.564
 3976POPC   PO451432  17.470  25.224   5.864
 3976POPC   GL151433  17.486  25.228   6.164
 3976POPC   GL251434  17.528  25.147   6.164
 3976POPC   C1A51435  17.554  25.262   6.464
 3976POPC   D2A51436  17.493  25.270   6.764
 3976POPC   C3A51437  17.481  25.269   7.064
 3976POPC   C4A51438  17.524  25.245   7.364
 3976POPC   C1B51439  17.436  24.987   6.464
 3976POPC   C2B51440  17.448  25.030   6.764
 3976POPC   C3B51441  17.438  24.983   7.064
 3976POPC   C4B51442  17.491  24.981   7.364
 3977POPC   NC351443  26.072  15.187   5.564
 3977POPC   PO451444  26.017  15.177   5.864
 3977POPC   GL151445  26.078  15.155   6.164
 3977POPC   GL251446  25.922  15.061   6.164
 3977POPC   C1A51447  26.064  15.195   6.464
 3977POPC   D2A51448  26.014  15.203   6.764
 3977POPC   C3A51449  26.020  15.142   7.064
 3977POPC   C4A51450  26.067  15.207   7.364
 3977POPC   C1B51451  25.857  14.954   6.464
 3977POPC   C2B51452  25.880  15.018   6.764
 3977POPC   C3B51453  25.905  14.997   7.064
 3977POPC   C4B51454  25.859  14.984   7.364
 3978POPC   NC351455   5.085  16.729   5.564
 3978POPC   PO451456   5.141  16.768   5.864
 3978POPC   GL151457   5.121  16.759   6.164
 3978POPC   GL251458   5.236  16.705   6.164
 3978POPC   C1A51459   5.107  16.715   6.464
 3978POPC   D2A51460   5.125  16.701   6.764
 3978POPC   C3A51461   5.088  16.763   7.064
 3978POPC   C4A51462   5.124  16.697   7.364
 3978POPC   C1B51463   5.372  16.769   6.464
 3978POPC   C2B51464   5.314  16.790   6.764
 3978POPC   C3B51465   5.325  16.705   7.064
 3978POPC   C4B51466   5.326  16.744   7.364
 3979POPC   NC351467  39.274  30.684   5.564
 3979POPC   PO451468  39.189  30.677   5.864
 3979POPC   GL151469  39.242  30.716   6.164
 3979POPC   GL251470  39.205  30.532   6.164
 3979POPC   C1A51471  39.245  30.674   6.464
 3979POPC   D2A51472  39.207  30.651   6.764
 3979POPC   C3A51473  39.267  30.656   7.064
 3979POPC   C4A51474  39.202  30.690   7.364
 3979POPC   C1B51475  39.254  30.431   6.464
 3979POPC   C2B51476  39.195  30.470   6.764
 3979POPC   C3B51477  39.287  30.445   7.064
 3979POPC   C4B51478  39.263  30.427   7.364
 3980POPC   NC351479   1.165  24.479   5.564
 3980POPC   PO451480   1.205  24.495   5.864
 3980POPC   GL151481   1.230  24.529   6.164
 3980POPC   GL251482   1.224  24.372   6.164
 3980POPC   C1A51483   1.191  24.537   6.464
 3980POPC   D2A51484   1.220  24.520   6.764
 3980POPC   C3A51485   1.217  24.507   7.064
 3980POPC   C4A51486   1.245  24.528   7.364
 3980POPC   C1B51487   1.192  24.255   6.464
 3980POPC   C2B51488   1.135  24.236   6.764
 3980POPC   C3B51489   1.114  24.240   7.064
 3980POPC   C4B51490   1.175  24.264   7.364
 3981POPC   NC351491  44.629   6.630   5.564
 3981POPC   PO451492  44.620   6.598   5.864
 3981POPC   GL151493  44.691   6.678   6.164
 3981POPC   GL251494  44.779   6.742   6.164
 3981POPC   C1A51495  44.616   6.619   6.464
 3981POPC   D2A51496  44.629   6.619   6.764
 3981POPC   C3A51497  44.647   6.661   7.064
 3981POPC   C4A51498  44.700   6.685   7.364
 3981POPC   C1B51499  44.895   6.755   6.464
 3981POPC   C2B51500  44.903   6.721   6.764
 3981POPC   C3B51501  44.894   6.710   7.064
 3981POPC   C4B51502  44.923   6.788   7.364
 3982POPC   NC351503  13.604  16.732   5.564
 3982POPC   PO451504  13.626  16.735   5.864
 3982POPC   GL151505  13.664  16.687   6.164
 3982POPC   GL251506  13.603  16.622   6.164
 3982POPC   C1A51507  13.585  16.686   6.464
 3982POPC   D2A51508  13.633  16.734   6.764
 3982POPC   C3A51509  13.667  16.681   7.064
 3982POPC   C4A51510  13.622  16.683   7.364
 3982POPC   C1B51511  13.632  16.435   6.464
 3982POPC   C2B51512  13.623  16.494   6.764
 3982POPC   C3B51513  13.622  16.529   7.064
 3982POPC   C4B51514  13.615  16.511   7.364
 3983POPC   NC351515  19.839  44.629   5.564
 3983POPC   PO451516  19.872  44.621   5.864
 3983POPC   GL151517  19.818  44.651   6.164
 3983POPC   GL251518  19.928  44.601   6.164
 3983POPC   C1A51519  19.796  44.675   6.464
 3983POPC   D2A51520  19.882  44.677   6.764
 3983POPC   C3A51521  19.862  44.622   7.064
 3983POPC   C4A51522  19.862  44.704   7.364
 3983POPC   C1B51523  20.043  44.459   6.464
 3983POPC   C2B51524  19.988  44.502   6.764
 3983POPC   C3B51525  20.045  44.447   7.064
 3983POPC   C4B51526  19.980  44.471   7.364
 3984POPC   NC351527  10.492  19.797   5.564
 3984POPC   PO451528  10.556  19.831   5.864
 3984POPC   GL151529  10.499  19.865   6.164
 3984POPC   GL251530  10.457  19.762   6.164
 3984POPC   C1A51531  10.481  19.860   6.464
 3984POPC   D2A51532  10.478  19.816   6.764
 3984POPC   C3A51533  10.551  19.788   7.064
 3984POPC   C4A51534  10.558  19.818   7.364
 3984POPC   C1B51535  10.395  19.627   6.464
 3984POPC   C2B51536  10.394  19.620   6.764
 3984POPC   C3B51537  10.452  19.626   7.064
 3984POPC   C4B51538  10.457  19.632   7.364
 3985POPC   NC351539  23.671  32.248   5.564
 3985POPC   PO451540  23.747  32.244   5.864
 3985POPC   GL151541  23.749  32.236   6.164
 3985POPC   GL251542  23.809  32.180   6.164
 3985POPC   C1A51543  23.723  32.218   6.464
 3985POPC   D2A51544  23.723  32.257   6.764
 3985POPC   C3A51545  23.677  32.255   7.064
 3985POPC   C4A51546  23.718  32.283   7.364
 3985POPC   C1B51547  23.936  32.188   6.464
 3985POPC   C2B51548  23.924  32.216   6.764
 3985POPC   C3B51549  23.998  32.148   7.064
 3985POPC   C4B51550  23.989  32.152   7.364
 3986POPC   NC351551   3.506  31.469   5.564
 3986POPC   PO451552   3.547  31.457   5.864
 3986POPC   GL151553   3.531  31.449   6.164
 3986POPC   GL251554   3.632  31.346   6.164
 3986POPC   C1A51555   3.538  31.521   6.464
 3986POPC   D2A51556   3.526  31.433   6.764
 3986POPC   C3A51557   3.580  31.505   7.064
 3986POPC   C4A51558   3.494  31.447   7.364
 3986POPC   C1B51559   3.625  31.199   6.464
 3986POPC   C2B51560   3.638  31.260   6.764
 3986POPC   C3B51561   3.658  31.258   7.064
 3986POPC   C4B51562   3.612  31.212   7.364
 3987POPC   NC351563   9.774   6.645   5.564
 3987POPC   PO451564   9.720   6.668   5.864
 3987POPC   GL151565   9.731   6.609   6.164
 3987POPC   GL251566   9.656   6.602   6.164
 3987POPC   C1A51567   9.795   6.604   6.464
 3987POPC   D2A51568   9.740   6.688   6.764
 3987POPC   C3A51569   9.755   6.630   7.064
 3987POPC   C4A51570   9.784   6.661   7.364
 3987POPC   C1B51571   9.542   6.489   6.464
 3987POPC   C2B51572   9.553   6.481   6.764
 3987POPC   C3B51573   9.599   6.458   7.064
 3987POPC   C4B51574   9.543   6.474   7.364
 3988POPC   NC351575  25.254  22.115   5.564
 3988POPC   PO451576  25.217  22.181   5.864
 3988POPC   GL151577  25.256  22.194   6.164
 3988POPC   GL251578  25.156  22.063   6.164
 3988POPC   C1A51579  25.298  22.114   6.464
 3988POPC   D2A51580  25.241  22.194   6.764
 3988POPC   C3A51581  25.253  22.159   7.064
 3988POPC   C4A51582  25.286  22.117   7.364
 3988POPC   C1B51583  25.055  22.065   6.464
 3988POPC   C2B51584  25.073  22.031   6.764
 3988POPC   C3B51585  25.032  22.065   7.064
 3988POPC   C4B51586  25.065  21.997   7.364
 3989POPC   NC351587  12.044  30.724   5.564
 3989POPC   PO451588  12.078  30.718   5.864
 3989POPC   GL151589  12.067  30.671   6.164
 3989POPC   GL251590  12.198  30.775   6.164
 3989POPC   C1A51591  12.111  30.730   6.464
 3989POPC   D2A51592  12.097  30.685   6.764
 3989POPC   C3A51593  12.115  30.732   7.064
 3989POPC   C4A51594  12.109  30.693   7.364
 3989POPC   C1B51595  12.274  30.930   6.464
 3989POPC   C2B51596  12.280  30.894   6.764
 3989POPC   C3B51597  12.256  30.929   7.064
 3989POPC   C4B51598  12.261  30.940   7.364
 3990POPC   NC351599  40.039  10.561   5.564
 3990POPC   PO451600  40.028  10.491   5.864
 3990POPC   GL151601  39.957  10.574   6.164
 3990POPC   GL251602  39.883  10.447   6.164
 3990POPC   C1A51603  39.964  10.502   6.464
 3990POPC   D2A51604  40.025  10.486   6.764
 3990POPC   C3A51605  40.041  10.518   7.064
 3990POPC   C4A51606  39.962  10.514   7.364
 3990POPC   C1B51607  39.779  10.400   6.464
 3990POPC   C2B51608  39.830  10.388   6.764
 3990POPC   C3B51609  39.826  10.364   7.064
 3990POPC   C4B51610  39.840  10.316   7.364
 3991POPC   NC351611   5.106   1.996   5.564
 3991POPC   PO451612   5.062   1.983   5.864
 3991POPC   GL151613   5.076   1.960   6.164
 3991POPC   GL251614   5.057   2.148   6.164
 3991POPC   C1A51615   5.139   2.019   6.464
 3991POPC   D2A51616   5.051   1.951   6.764
 3991POPC   C3A51617   5.123   2.018   7.064
 3991POPC   C4A51618   5.096   1.949   7.364
 3991POPC   C1B51619   5.124   2.251   6.464
 3991POPC   C2B51620   5.118   2.236   6.764
 3991POPC   C3B51621   5.055   2.231   7.064
 3991POPC   C4B51622   5.095   2.198   7.364
 3992POPC   NC351623  27.603  42.361   5.564
 3992POPC   PO451624  27.629  42.345   5.864
 3992POPC   GL151625  27.627  42.365   6.164
 3992POPC   GL251626  27.712  42.456   6.164
 3992POPC   C1A51627  27.635  42.325   6.464
 3992POPC   D2A51628  27.569  42.301   6.764
 3992POPC   C3A51629  27.583  42.320   7.064
 3992POPC   C4A51630  27.587  42.355   7.364
 3992POPC   C1B51631  27.811  42.481   6.464
 3992POPC   C2B51632  27.750  42.472   6.764
 3992POPC   C3B51633  27.785  42.512   7.064
 3992POPC   C4B51634  27.734  42.522   7.364
 3993POPC   NC351635  22.957  15.183   5.564
 3993POPC   PO451636  22.962  15.186   5.864
 3993POPC   GL151637  22.961  15.157   6.164
 3993POPC   GL251638  23.003  15.033   6.164
 3993POPC   C1A51639  22.922  15.188   6.464
 3993POPC   D2A51640  22.906  15.152   6.764
 3993POPC   C3A51641  22.962  15.225   7.064
 3993POPC   C4A51642  22.969  15.218   7.364
 3993POPC   C1B51643  23.074  14.999   6.464
 3993POPC   C2B51644  23.028  14.969   6.764
 3993POPC   C3B51645  23.097  14.957   7.064
 3993POPC   C4B51646  23.073  14.937   7.364
 3994POPC   NC351647  17.476  26.814   5.564
 3994POPC   PO451648  17.497  26.801   5.864
 3994POPC   GL151649  17.477  26.828   6.164
 3994POPC   GL251650  17.534  26.657   6.164
 3994POPC   C1A51651  17.537  26.809   6.464
 3994POPC   D2A51652  17.503  26.795   6.764
 3994POPC   C3A51653  17.535  26.805   7.064
 3994POPC   C4A51654  17.514  26.825   7.364
 3994POPC   C1B51655  17.507  26.544   6.464
 3994POPC   C2B51656  17.538  26.599   6.764
 3994POPC   C3B51657  17.513  26.521   7.064
 3994POPC   C4B51658  17.594  26.533   7.364
 3995POPC   NC351659  37.692  10.498   5.564
 3995POPC   PO451660  37.719  10.493   5.864
 3995POPC   GL151661  37.631  10.484   6.164
 3995POPC   GL251662  37.689  10.449   6.164
 3995POPC   C1A51663  37.724  10.542   6.464
 3995POPC   D2A51664  37.662  10.509   6.764
 3995POPC   C3A51665  37.660  10.500   7.064
 3995POPC   C4A51666  37.709  10.476   7.364
 3995POPC   C1B51667  37.707  10.252   6.464
 3995POPC   C2B51668  37.686  10.294   6.764
 3995POPC   C3B51669  37.691  10.293   7.064
 3995POPC   C4B51670  37.679  10.277   7.364
 3996POPC   NC351671   9.700   5.918   5.564
 3996POPC   PO451672   9.735   5.855   5.864
 3996POPC   GL151673   9.766   5.847   6.164
 3996POPC   GL251674   9.620   5.799   6.164
 3996POPC   C1A51675   9.786   5.908   6.464
 3996POPC   D2A51676   9.792   5.889   6.764
 3996POPC   C3A51677   9.776   5.915   7.064
 3996POPC   C4A51678   9.792   5.895   7.364
 3996POPC   C1B51679   9.514   5.797   6.464
 3996POPC   C2B51680   9.554   5.745   6.764
 3996POPC   C3B51681   9.529   5.788   7.064
 3996POPC   C4B51682   9.485   5.820   7.364
 3997POPC   NC351683   5.056  33.808   5.564
 3997POPC   PO451684   5.108  33.790   5.864
 3997POPC   GL151685   5.116  33.837   6.164
 3997POPC   GL251686   4.986  33.830   6.164
 3997POPC   C1A51687   5.134  33.786   6.464
 3997POPC   D2A51688   5.100  33.836   6.764
 3997POPC   C3A51689   5.071  33.849   7.064
 3997POPC   C4A51690   5.108  33.829   7.364
 3997POPC   C1B51691   4.924  33.947   6.464
 3997POPC   C2B51692   4.893  33.928   6.764
 3997POPC   C3B51693   4.869  33.965   7.064
 3997POPC   C4B51694   4.912  33.952   7.364
 3998POPC   NC351695  24.463  22.169   5.564
 3998POPC   PO451696  24.465  22.194   5.864
 3998POPC   GL151697  24.474  22.126   6.164
 3998POPC   GL251698  24.331  22.102   6.164
 3998POPC   C1A51699  24.457  22.176   6.464
 3998POPC   D2A51700  24.455  22.135   6.764
 3998POPC   C3A51701  24.474  22.135   7.064
 3998POPC   C4A51702  24.484  22.163   7.364
 3998POPC   C1B51703  24.258  22.126   6.464
 3998POPC   C2B51704  24.274  22.157   6.764
 3998POPC   C3B51705  24.267  22.101   7.064
 3998POPC   C4B51706  24.272  22.150   7.364
 3999POPC   NC351707  35.342  28.419   5.564
 3999POPC   PO451708  35.382  28.328   5.864
 3999POPC   GL151709  35.329  28.364   6.164
 3999POPC   GL251710  35.515  28.427   6.164
 3999POPC   C1A51711  35.311  28.359   6.464
 3999POPC   D2A51712  35.384  28.366   6.764
 3999POPC   C3A51713  35.351  28.376   7.064
 3999POPC   C4A51714  35.373  28.377   7.364
 3999POPC   C1B51715  35.565  28.375   6.464
 3999POPC   C2B51716  35.599  28.421   6.764
 3999POPC   C3B51717  35.629  28.356   7.064
 3999POPC   C4B51718  35.609  28.389   7.364
 4000POPC   NC351719  32.217   2.735   5.564
 4000POPC   PO451720  32.291   2.757   5.864
 4000POPC   GL151721  32.263   2.750   6.164
 4000POPC   GL251722  32.241   2.644   6.164
 4000POPC   C1A51723  32.233   2.805   6.464
 4000POPC   D2A51724  32.199   2.745   6.764
 4000POPC   C3A51725  32.219   2.766   7.064
 4000POPC   C4A51726  32.243   2.792   7.364
 4000POPC   C1B51727  32.220   2.508   6.464
 4000POPC   C2B51728  32.170   2.472   6.764
 4000POPC   C3B51729  32.207   2.516   7.064
 4000POPC   C4B51730  32.224   2.565   7.364
 4001POPC   NC351731   4.310  11.261   5.564
 4001POPC   PO451732   4.353  11.311   5.864
 4001POPC   GL151733   4.318  11.264   6.164
 4001POPC   GL251734   4.292  11.437   6.164
 4001POPC   C1A51735   4.351  11.328   6.464
 4001POPC   D2A51736   4.338  11.327   6.764
 4001POPC   C3A51737   4.284  11.278   7.064
 4001POPC   C4A51738   4.269  11.296   7.364
 4001POPC   C1B51739   4.212  11.527   6.464
 4001POPC   C2B51740   4.245  11.539   6.764
 4001POPC   C3B51741   4.217  11.504   7.064
 4001POPC   C4B51742   4.194  11.531   7.364
 4002POPC   NC351743  31.432  29.909   5.564
 4002POPC   PO451744  31.436  29.933   5.864
 4002POPC   GL151745  31.424  29.948   6.164
 4002POPC   GL251746  31.540  30.006   6.164
 4002POPC   C1A51747  31.433  29.961   6.464
 4002POPC   D2A51748  31.502  29.952   6.764
 4002POPC   C3A51749  31.500  29.958   7.064
 4002POPC   C4A51750  31.465  29.890   7.364
 4002POPC   C1B51751  31.661  30.058   6.464
 4002POPC   C2B51752  31.658  30.105   6.764
 4002POPC   C3B51753  31.598  30.117   7.064
 4002POPC   C4B51754  31.623  30.093   7.364
 4003POPC   NC351755  17.504  10.512   5.564
 4003POPC   PO451756  17.541  10.550   5.864
 4003POPC   GL151757  17.536  10.505   6.164
 4003POPC   GL251758  17.581  10.598   6.164
 4003POPC   C1A51759  17.541  10.546   6.464
 4003POPC   D2A51760  17.501  10.520   6.764
 4003POPC   C3A51761  17.467  10.573   7.064
 4003POPC   C4A51762  17.483  10.566   7.364
 4003POPC   C1B51763  17.652  10.766   6.464
 4003POPC   C2B51764  17.637  10.741   6.764
 4003POPC   C3B51765  17.594  10.713   7.064
 4003POPC   C4B51766  17.604  10.711   7.364
 4004POPC   NC351767  42.321  37.713   5.564
 4004POPC   PO451768  42.314  37.695   5.864
 4004POPC   GL151769  42.321  37.652   6.164
 4004POPC   GL251770  42.248  37.780   6.164
 4004POPC   C1A51771  42.378  37.690   6.464
 4004POPC   D2A51772  42.370  37.726   6.764
 4004POPC   C3A51773  42.358  37.717   7.064
 4004POPC   C4A51774  42.322  37.717   7.364
 4004POPC   C1B51775  42.204  37.896   6.464
 4004POPC   C2B51776  42.136  37.814   6.764
 4004POPC   C3B51777  42.161  37.906   7.064
 4004POPC   C4B51778  42.172  37.826   7.364
 4005POPC   NC351779  40.771  21.373   5.564
 4005POPC   PO451780  40.797  21.432   5.864
 4005POPC   GL151781  40.775  21.345   6.164
 4005POPC   GL251782  40.694  21.376   6.164
 4005POPC   C1A51783  40.769  21.397   6.464
 4005POPC   D2A51784  40.759  21.398   6.764
 4005POPC   C3A51785  40.746  21.374   7.064
 4005POPC   C4A51786  40.735  21.396   7.364
 4005POPC   C1B51787  40.489  21.433   6.464
 4005POPC   C2B51788  40.550  21.468   6.764
 4005POPC   C3B51789  40.493  21.446   7.064
 4005POPC   C4B51790  40.558  21.434   7.364
 4006POPC   NC351791   5.064   9.733   5.564
 4006POPC   PO451792   5.078   9.771   5.864
 4006POPC   GL151793   5.051   9.793   6.164
 4006POPC   GL251794   5.052   9.843   6.164
 4006POPC   C1A51795   5.090   9.735   6.464
 4006POPC   D2A51796   5.105   9.779   6.764
 4006POPC   C3A51797   5.063   9.793   7.064
 4006POPC   C4A51798   5.115   9.702   7.364
 4006POPC   C1B51799   5.020   9.988   6.464
 4006POPC   C2B51800   5.059   9.987   6.764
 4006POPC   C3B51801   5.054   9.945   7.064
 4006POPC   C4B51802   4.999   9.982   7.364
 4007POPC   NC351803  17.512  19.806   5.564
 4007POPC   PO451804  17.537  19.853   5.864
 4007POPC   GL151805  17.546  19.803   6.164
 4007POPC   GL251806  17.448  19.758   6.164
 4007POPC   C1A51807  17.496  19.823   6.464
 4007POPC   D2A51808  17.488  19.791   6.764
 4007POPC   C3A51809  17.482  19.857   7.064
 4007POPC   C4A51810  17.533  19.787   7.364
 4007POPC   C1B51811  17.351  19.616   6.464
 4007POPC   C2B51812  17.363  19.648   6.764
 4007POPC   C3B51813  17.355  19.617   7.064
 4007POPC   C4B51814  17.310  19.676   7.364
 4008POPC   NC351815  36.875  29.130   5.564
 4008POPC   PO451816  36.912  29.155   5.864
 4008POPC   GL151817  36.929  29.140   6.164
 4008POPC   GL251818  36.747  29.144   6.164
 4008POPC   C1A51819  36.882  29.108   6.464
 4008POPC   D2A51820  36.855  29.139   6.764
 4008POPC   C3A51821  36.925  29.120   7.064
 4008POPC   C4A51822  36.944  29.097   7.364
 4008POPC   C1B51823  36.672  29.245   6.464
 4008POPC   C2B51824  36.684  29.263   6.764
 4008POPC   C3B51825  36.664  29.222   7.064
 4008POPC   C4B51826  36.665  29.256   7.364
 4009POPC   NC351827   1.942  21.412   5.564
 4009POPC   PO451828   1.988  21.373   5.864
 4009POPC   GL151829   1.954  21.405   6.164
 4009POPC   GL251830   1.828  21.442   6.164
 4009POPC   C1A51831   2.035  21.355   6.464
 4009POPC   D2A51832   1.992  21.372   6.764
 4009POPC   C3A51833   2.020  21.377   7.064
 4009POPC   C4A51834   1.963  21.396   7.364
 4009POPC   C1B51835   1.709  21.515   6.464
 4009POPC   C2B51836   1.738  21.440   6.764
 4009POPC   C3B51837   1.768  21.468   7.064
 4009POPC   C4B51838   1.781  21.491   7.364
 4010POPC   NC351839  32.242  33.781   5.564
 4010POPC   PO451840  32.286  33.834   5.864
 4010POPC   GL151841  32.277  33.792   6.164
 4010POPC   GL251842  32.224  33.883   6.164
 4010POPC   C1A51843  32.210  33.830   6.464
 4010POPC   D2A51844  32.234  33.760   6.764
 4010POPC   C3A51845  32.219  33.840   7.064
 4010POPC   C4A51846  32.272  33.827   7.364
 4010POPC   C1B51847  32.205  34.010   6.464
 4010POPC   C2B51848  32.234  34.066   6.764
 4010POPC   C3B51849  32.164  34.016   7.064
 4010POPC   C4B51850  32.245  34.071   7.364
 4011POPC   NC351851  39.998  18.234   5.564
 4011POPC   PO451852  40.008  18.239   5.864
 4011POPC   GL151853  40.048  18.308   6.164
 4011POPC   GL251854  40.066  18.360   6.164
 4011POPC   C1A51855  39.989  18.272   6.464
 4011POPC   D2A51856  40.055  18.291   6.764
 4011POPC   C3A51857  40.037  18.249   7.064
 4011POPC   C4A51858  40.024  18.264   7.364
 4011POPC   C1B51859  40.238  18.459   6.464
 4011POPC   C2B51860  40.203  18.462   6.764
 4011POPC   C3B51861  40.223  18.398   7.064
 4011POPC   C4B51862  40.210  18.412   7.364
 4012POPC   NC351863  31.517  29.124   5.564
 4012POPC   PO451864  31.503  29.131   5.864
 4012POPC   GL151865  31.490  29.122   6.164
 4012POPC   GL251866  31.441  29.015   6.164
 4012POPC   C1A51867  31.442  29.183   6.464
 4012POPC   D2A51868  31.433  29.147   6.764
 4012POPC   C3A51869  31.428  29.192   7.064
 4012POPC   C4A51870  31.433  29.127   7.364
 4012POPC   C1B51871  31.387  28.876   6.464
 4012POPC   C2B51872  31.443  28.899   6.764
 4012POPC   C3B51873  31.377  28.934   7.064
 4012POPC   C4B51874  31.443  28.912   7.364
 4013POPC   NC351875  19.835   4.276   5.564
 4013POPC   PO451876  19.861   4.329   5.864
 4013POPC   GL151877  19.850   4.317   6.164
 4013POPC   GL251878  19.823   4.242   6.164
 4013POPC   C1A51879  19.813   4.321   6.464
 4013POPC   D2A51880  19.838   4.301   6.764
 4013POPC   C3A51881  19.850   4.357   7.064
 4013POPC   C4A51882  19.815   4.279   7.364
 4013POPC   C1B51883  19.867   4.042   6.464
 4013POPC   C2B51884  19.866   4.045   6.764
 4013POPC   C3B51885  19.889   4.076   7.064
 4013POPC   C4B51886  19.805   4.078   7.364
 4014POPC   NC351887  18.273  28.401   5.564
 4014POPC   PO451888  18.234  28.353   5.864
 4014POPC   GL151889  18.244  28.374   6.164
 4014POPC   GL251890  18.285  28.268   6.164
 4014POPC   C1A51891  18.262  28.411   6.464
 4014POPC   D2A51892  18.241  28.348   6.764
 4014POPC   C3A51893  18.267  28.416   7.064
 4014POPC   C4A51894  18.253  28.327   7.364
 4014POPC   C1B51895  18.354  28.152   6.464
 4014POPC   C2B51896  18.275  28.128   6.764
 4014POPC   C3B51897  18.274  28.129   7.064
 4014POPC   C4B51898  18.265  28.151   7.364
 4015POPC   NC351899  12.868  12.073   5.564
 4015POPC   PO451900  12.832  12.087   5.864
 4015POPC   GL151901  12.847  12.123   6.164
 4015POPC   GL251902  12.792  12.159   6.164
 4015POPC   C1A51903  12.871  12.083   6.464
 4015POPC   D2A51904  12.865  12.124   6.764
 4015POPC   C3A51905  12.900  12.061   7.064
 4015POPC   C4A51906  12.873  12.103   7.364
 4015POPC   C1B51907  12.697  12.228   6.464
 4015POPC   C2B51908  12.653  12.230   6.764
 4015POPC   C3B51909  12.663  12.318   7.064
 4015POPC   C4B51910  12.654  12.272   7.364
 4016POPC   NC351911  41.576   5.914   5.564
 4016POPC   PO451912  41.522   5.896   5.864
 4016POPC   GL151913  41.569   5.896   6.164
 4016POPC   GL251914  41.602   5.785   6.164
 4016POPC   C1A51915  41.543   5.834   6.464
 4016POPC   D2A51916  41.527   5.887   6.764
 4016POPC   C3A51917  41.532   5.896   7.064
 4016POPC   C4A51918  41.516   5.856   7.364
 4016POPC   C1B51919  41.665   5.664   6.464
 4016POPC   C2B51920  41.651   5.657   6.764
 4016POPC   C3B51921  41.664   5.615   7.064
 4016POPC   C4B51922  41.615   5.641   7.364
 4017POPC   NC351923   9.011  22.161   5.564
 4017POPC   PO451924   9.008  22.164   5.864
 4017POPC   GL151925   8.986  22.189   6.164
 4017POPC   GL251926   9.115  22.131   6.164
 4017POPC   C1A51927   8.933  22.124   6.464
 4017POPC   D2A51928   9.013  22.188   6.764
 4017POPC   C3A51929   9.020  22.131   7.064
 4017POPC   C4A51930   8.969  22.204   7.364
 4017POPC   C1B51931   9.249  22.126   6.464
 4017POPC   C2B51932   9.230  22.104   6.764
 4017POPC   C3B51933   9.208  22.158   7.064
 4017POPC   C4B51934   9.219  22.101   7.364
 4018POPC   NC351935  14.439  32.996   5.564
 4018POPC   PO451936  14.356  33.020   5.864
 4018POPC   GL151937  14.442  33.026   6.164
 4018POPC   GL251938  14.357  33.129   6.164
 4018POPC   C1A51939  14.437  33.071   6.464
 4018POPC   D2A51940  14.412  32.990   6.764
 4018POPC   C3A51941  14.423  33.030   7.064
 4018POPC   C4A51942  14.378  33.033   7.364
 4018POPC   C1B51943  14.358  33.222   6.464
 4018POPC   C2B51944  14.415  33.278   6.764
 4018POPC   C3B51945  14.385  33.314   7.064
 4018POPC   C4B51946  14.329  33.314   7.364
 4019POPC   NC351947  17.478  16.759   5.564
 4019POPC   PO451948  17.486  16.685   5.864
 4019POPC   GL151949  17.468  16.749   6.164
 4019POPC   GL251950  17.368  16.822   6.164
 4019POPC   C1A51951  17.492  16.728   6.464
 4019POPC   D2A51952  17.485  16.719   6.764
 4019POPC   C3A51953  17.479  16.761   7.064
 4019POPC   C4A51954  17.489  16.744   7.364
 4019POPC   C1B51955  17.252  16.807   6.464
 4019POPC   C2B51956  17.235  16.856   6.764
 4019POPC   C3B51957  17.234  16.805   7.064
 4019POPC   C4B51958  17.323  16.870   7.364
 4020POPC   NC351959   3.537  22.967   5.564
 4020POPC   PO451960   3.523  22.922   5.864
 4020POPC   GL151961   3.590  22.977   6.164
 4020POPC   GL251962   3.602  23.070   6.164
 4020POPC   C1A51963   3.582  22.928   6.464
 4020POPC   D2A51964   3.541  22.960   6.764
 4020POPC   C3A51965   3.591  22.904   7.064
 4020POPC   C4A51966   3.533  22.965   7.364
 4020POPC   C1B51967   3.640  23.184   6.464
 4020POPC   C2B51968   3.681  23.185   6.764
 4020POPC   C3B51969   3.705  23.147   7.064
 4020POPC   C4B51970   3.624  23.132   7.364
 4021POPC   NC351971  36.162   1.250   5.564
 4021POPC   PO451972  36.144   1.194   5.864
 4021POPC   GL151973  36.112   1.217   6.164
 4021POPC   GL251974  36.044   1.301   6.164
 4021POPC   C1A51975  36.136   1.190   6.464
 4021POPC   D2A51976  36.134   1.174   6.764
 4021POPC   C3A51977  36.150   1.245   7.064
 4021POPC   C4A51978  36.126   1.166   7.364
 4021POPC   C1B51979  35.979   1.381   6.464
 4021POPC   C2B51980  35.995   1.376   6.764
 4021POPC   C3B51981  35.996   1.351   7.064
 4021POPC   C4B51982  35.990   1.390   7.364
 4022POPC   NC351983  37.685   1.186   5.564
 4022POPC   PO451984  37.634   1.173   5.864
 4022POPC   GL151985  37.640   1.242   6.164
 4022POPC   GL251986  37.646   1.123   6.164
 4022POPC   C1A51987  37.633   1.214   6.464
 4022POPC   D2A51988  37.709   1.253   6.764
 4022POPC   C3A51989  37.716   1.215   7.064
 4022POPC   C4A51990  37.674   1.250   7.364
 4022POPC   C1B51991  37.717   0.950   6.464
 4022POPC   C2B51992  37.665   0.964   6.764
 4022POPC   C3B51993  37.712   0.925   7.064
 4022POPC   C4B51994  37.715   1.007   7.364
 4023POPC   NC351995  35.381  19.032   5.564
 4023POPC   PO451996  35.342  19.043   5.864
 4023POPC   GL151997  35.334  19.098   6.164
 4023POPC   GL251998  35.501  19.102   6.164
 4023POPC   C1A51999  35.373  19.066   6.464
 4023POPC   D2A52000  35.363  19.103   6.764
 4023POPC   C3A52001  35.362  19.084   7.064
 4023POPC   C4A52002  35.336  19.098   7.364
 4023POPC   C1B52003  35.547  19.156   6.464
 4023POPC   C2B52004  35.590  19.199   6.764
 4023POPC   C3B52005  35.603  19.158   7.064
 4023POPC   C4B52006  35.577  19.115   7.364
 4024POPC   NC352007  12.060  17.530   5.564
 4024POPC   PO452008  12.031  17.469   5.864
 4024POPC   GL152009  12.031  17.507   6.164
 4024POPC   GL252010  12.001  17.455   6.164
 4024POPC   C1A52011  12.096  17.542   6.464
 4024POPC   D2A52012  12.079  17.516   6.764
 4024POPC   C3A52013  12.077  17.507   7.064
 4024POPC   C4A52014  12.077  17.486   7.364
 4024POPC   C1B52015  11.969  17.292   6.464
 4024POPC   C2B52016  11.932  17.341   6.764
 4024POPC   C3B52017  11.935  17.331   7.064
 4024POPC   C4B52018  11.884  17.313   7.364
 4025POPC   NC352019  28.345  29.927   5.564
 4025POPC   PO452020  28.335  29.914   5.864
 4025POPC   GL152021  28.383  29.949   6.164
 4025POPC   GL252022  28.205  29.922   6.164
 4025POPC   C1A52023  28.417  29.956   6.464
 4025POPC   D2A52024  28.345  29.969   6.764
 4025POPC   C3A52025  28.322  29.904   7.064
 4025POPC   C4A52026  28.329  29.912   7.364
 4025POPC   C1B52027  28.114  29.981   6.464
 4025POPC   C2B52028  28.141  29.926   6.764
 4025POPC   C3B52029  28.125  30.001   7.064
 4025POPC   C4B52030  28.122  29.968   7.364
 4026POPC   NC352031  17.534  28.338   5.564
 4026POPC   PO452032  17.476  28.357   5.864
 4026POPC   GL152033  17.489  28.340   6.164
 4026POPC   GL252034  17.637  28.294   6.164
 4026POPC   C1A52035  17.484  28.398   6.464
 4026POPC   D2A52036  17.513  28.345   6.764
 4026POPC   C3A52037  17.534  28.387   7.064
 4026POPC   C4A52038  17.547  28.393   7.364
 4026POPC   C1B52039  17.758  28.253   6.464
 4026POPC   C2B52040  17.751  28.260   6.764
 4026POPC   C3B52041  17.700  28.197   7.064
 4026POPC   C4B52042  17.740  28.226   7.364
 4027POPC   NC352043   2.040  40.735   5.564
 4027POPC   PO452044   1.951  40.823   5.864
 4027POPC   GL152045   1.945  40.772   6.164
 4027POPC   GL252046   1.925  40.640   6.164
 4027POPC   C1A52047   2.003  40.823   6.464
 4027POPC   D2A52048   1.946  40.741   6.764
 4027POPC   C3A52049   2.027  40.757   7.064
 4027POPC   C4A52050   1.986  40.788   7.364
 4027POPC   C1B52051   1.865  40.532   6.464
 4027POPC   C2B52052   1.929  40.579   6.764
 4027POPC   C3B52053   1.875  40.539   7.064
 4027POPC   C4B52054   1.885  40.526   7.364
 4028POPC   NC352055  12.836  35.385   5.564
 4028POPC   PO452056  12.879  35.320   5.864
 4028POPC   GL152057  12.881  35.377   6.164
 4028POPC   GL252058  12.992  35.305   6.164
 4028POPC   C1A52059  12.844  35.382   6.464
 4028POPC   D2A52060  12.822  35.389   6.764
 4028POPC   C3A52061  12.832  35.342   7.064
 4028POPC   C4A52062  12.833  35.354   7.364
 4028POPC   C1B52063  13.100  35.366   6.464
 4028POPC   C2B52064  13.090  35.339   6.764
 4028POPC   C3B52065  13.106  35.397   7.064
 4028POPC   C4B52066  13.093  35.374   7.364
 4029POPC   NC352067   4.315   3.549   5.564
 4029POPC   PO452068   4.357   3.537   5.864
 4029POPC   GL152069   4.325   3.530   6.164
 4029POPC   GL252070   4.277   3.637   6.164
 4029POPC   C1A52071   4.329   3.578   6.464
 4029POPC   D2A52072   4.355   3.575   6.764
 4029POPC   C3A52073   4.329   3.570   7.064
 4029POPC   C4A52074   4.300   3.564   7.364
 4029POPC   C1B52075   4.277   3.732   6.464
 4029POPC   C2B52076   4.240   3.820   6.764
 4029POPC   C3B52077   4.207   3.739   7.064
 4029POPC   C4B52078   4.190   3.733   7.364
 4030POPC   NC352079  29.135  36.941   5.564
 4030POPC   PO452080  29.170  36.946   5.864
 4030POPC   GL152081  29.150  36.882   6.164
 4030POPC   GL252082  29.121  36.967   6.164
 4030POPC   C1A52083  29.171  36.868   6.464
 4030POPC   D2A52084  29.181  36.896   6.764
 4030POPC   C3A52085  29.112  36.931   7.064
 4030POPC   C4A52086  29.135  36.895   7.364
 4030POPC   C1B52087  28.978  37.095   6.464
 4030POPC   C2B52088  29.013  37.135   6.764
 4030POPC   C3B52089  29.017  37.142   7.064
 4030POPC   C4B52090  28.972  37.126   7.364
 4031POPC   NC352091  36.115  31.449   5.564
 4031POPC   PO452092  36.098  31.478   5.864
 4031POPC   GL152093  36.137  31.465   6.164
 4031POPC   GL252094  36.019  31.368   6.164
 4031POPC   C1A52095  36.137  31.522   6.464
 4031POPC   D2A52096  36.142  31.512   6.764
 4031POPC   C3A52097  36.123  31.442   7.064
 4031POPC   C4A52098  36.130  31.470   7.364
 4031POPC   C1B52099  35.988  31.310   6.464
 4031POPC   C2B52100  35.968  31.277   6.764
 4031POPC   C3B52101  35.941  31.295   7.064
 4031POPC   C4B52102  35.990  31.304   7.364
 4032POPC   NC352103  30.725  13.672   5.564
 4032POPC   PO452104  30.689  13.630   5.864
 4032POPC   GL152105  30.648  13.627   6.164
 4032POPC   GL252106  30.574  13.626   6.164
 4032POPC   C1A52107  30.662  13.588   6.464
 4032POPC   D2A52108  30.687  13.638   6.764
 4032POPC   C3A52109  30.741  13.652   7.064
 4032POPC   C4A52110  30.696  13.672   7.364
 4032POPC   C1B52111  30.443  13.714   6.464
 4032POPC   C2B52112  30.498  13.651   6.764
 4032POPC   C3B52113  30.466  13.662   7.064
 4032POPC   C4B52114  30.463  13.658   7.364
 4033POPC   NC352115  36.898  25.231   5.564
 4033POPC   PO452116  36.859  25.308   5.864
 4033POPC   GL152117  36.859  25.260   6.164
 4033POPC   GL252118  36.953  25.349   6.164
 4033POPC   C1A52119  36.869  25.254   6.464
 4033POPC   D2A52120  36.893  25.309   6.764
 4033POPC   C3A52121  36.934  25.243   7.064
 4033POPC   C4A52122  36.927  25.277   7.364
 4033POPC   C1B52123  36.973  25.482   6.464
 4033POPC   C2B52124  36.981  25.534   6.764
 4033POPC   C3B52125  36.985  25.468   7.064
 4033POPC   C4B52126  37.003  25.479   7.364
 4034POPC   NC352127  26.010  37.687   5.564
 4034POPC   PO452128  26.083  37.693   5.864
 4034POPC   GL152129  26.026  37.684   6.164
 4034POPC   GL252130  26.039  37.548   6.164
 4034POPC   C1A52131  26.057  37.690   6.464
 4034POPC   D2A52132  26.089  37.648   6.764
 4034POPC   C3A52133  26.011  37.723   7.064
 4034POPC   C4A52134  26.074  37.685   7.364
 4034POPC   C1B52135  25.957  37.443   6.464
 4034POPC   C2B52136  25.987  37.429   6.764
 4034POPC   C3B52137  25.918  37.418   7.064
 4034POPC   C4B52138  25.986  37.415   7.364
 4035POPC   NC352139  24.510  16.760   5.564
 4035POPC   PO452140  24.498  16.686   5.864
 4035POPC   GL152141  24.536  16.712   6.164
 4035POPC   GL252142  24.400  16.684   6.164
 4035POPC   C1A52143  24.483  16.741   6.464
 4035POPC   D2A52144  24.505  16.689   6.764
 4035POPC   C3A52145  24.491  16.768   7.064
 4035POPC   C4A52146  24.499  16.718   7.364
 4035POPC   C1B52147  24.230  16.584   6.464
 4035POPC   C2B52148  24.269  16.637   6.764
 4035POPC   C3B52149  24.278  16.636   7.064
 4035POPC   C4B52150  24.268  16.580   7.364
 4036POPC   NC352151  12.123  38.458   5.564
 4036POPC   PO452152  12.046  38.422   5.864
 4036POPC   GL152153  12.080  38.429   6.164
 4036POPC   GL252154  12.021  38.390   6.164
 4036POPC   C1A52155  12.062  38.452   6.464
 4036POPC   D2A52156  12.096  38.430   6.764
 4036POPC   C3A52157  12.104  38.439   7.064
 4036POPC   C4A52158  12.096  38.454   7.364
 4036POPC   C1B52159  11.869  38.229   6.464
 4036POPC   C2B52160  11.874  38.296   6.764
 4036POPC   C3B52161  11.863  38.307   7.064
 4036POPC   C4B52162  11.937  38.229   7.364
 4037POPC   NC352163  13.611  20.561   5.564
 4037POPC   PO452164  13.603  20.629   5.864
 4037POPC   GL152165  13.605  20.627   6.164
 4037POPC   GL252166  13.605  20.737   6.164
 4037POPC   C1A52167  13.636  20.653   6.464
 4037POPC   D2A52168  13.660  20.585   6.764
 4037POPC   C3A52169  13.590  20.580   7.064
 4037POPC   C4A52170  13.579  20.598   7.364
 4037POPC   C1B52171  13.619  20.864   6.464
 4037POPC   C2B52172  13.531  20.866   6.764
 4037POPC   C3B52173  13.547  20.813   7.064
 4037POPC   C4B52174  13.530  20.870   7.364
 4038POPC   NC352175   7.388  12.892   5.564
 4038POPC   PO452176   7.446  12.863   5.864
 4038POPC   GL152177   7.408  12.890   6.164
 4038POPC   GL252178   7.524  12.783   6.164
 4038POPC   C1A52179   7.420  12.819   6.464
 4038POPC   D2A52180   7.372  12.881   6.764
 4038POPC   C3A52181   7.407  12.867   7.064
 4038POPC   C4A52182   7.443  12.820   7.364
 4038POPC   C1B52183   7.638  12.749   6.464
 4038POPC   C2B52184   7.634  12.724   6.764
 4038POPC   C3B52185   7.666  12.772   7.064
 4038POPC   C4B52186   7.657  12.707   7.364
 4039POPC   NC352187  44.698   1.976   5.564
 4039POPC   PO452188  44.643   2.015   5.864
 4039POPC   GL152189  44.633   1.948   6.164
 4039POPC   GL252190  44.605   2.042   6.164
 4039POPC   C1A52191  44.622   1.952   6.464
 4039POPC   D2A52192  44.710   1.997   6.764
 4039POPC   C3A52193  44.616   2.032   7.064
 4039POPC   C4A52194  44.649   2.001   7.364
 4039POPC   C1B52195  44.435   2.188   6.464
 4039POPC   C2B52196  44.445   2.121   6.764
 4039POPC   C3B52197  44.434   2.157   7.064
 4039POPC   C4B52198  44.521   2.196   7.364
 4040POPC   NC352199  22.902  12.863   5.564
 4040POPC   PO452200  22.904  12.886   5.864
 4040POPC   GL152201  22.901  12.810   6.164
 4040POPC   GL252202  22.820  12.855   6.164
 4040POPC   C1A52203  22.920  12.838   6.464
 4040POPC   D2A52204  22.976  12.881   6.764
 4040POPC   C3A52205  22.933  12.814   7.064
 4040POPC   C4A52206  22.966  12.855   7.364
 4040POPC   C1B52207  22.727  12.950   6.464
 4040POPC   C2B52208  22.673  12.944   6.764
 4040POPC   C3B52209  22.699  12.905   7.064
 4040POPC   C4B52210  22.706  12.914   7.364
 4041POPC   NC352211  40.813  41.577   5.564
 4041POPC   PO452212  40.794  41.572   5.864
 4041POPC   GL152213  40.822  41.548   6.164
 4041POPC   GL252214  40.692  41.671   6.164
 4041POPC   C1A52215  40.801  41.543   6.464
 4041POPC   D2A52216  40.779  41.542   6.764
 4041POPC   C3A52217  40.832  41.603   7.064
 4041POPC   C4A52218  40.811  41.531   7.364
 4041POPC   C1B52219  40.686  41.736   6.464
 4041POPC   C2B52220  40.657  41.786   6.764
 4041POPC   C3B52221  40.595  41.742   7.064
 4041POPC   C4B52222  40.622  41.726   7.364
 4042POPC   NC352223  36.094   8.983   5.564
 4042POPC   PO452224  36.131   8.941   5.864
 4042POPC   GL152225  36.078   8.927   6.164
 4042POPC   GL252226  36.294   8.964   6.164
 4042POPC   C1A52227  36.080   8.942   6.464
 4042POPC   D2A52228  36.153   8.958   6.764
 4042POPC   C3A52229  36.145   8.984   7.064
 4042POPC   C4A52230  36.111   8.930   7.364
 4042POPC   C1B52231  36.364   8.995   6.464
 4042POPC   C2B52232  36.356   9.050   6.764
 4042POPC   C3B52233  36.346   9.005   7.064
 4042POPC   C4B52234  36.410   8.973   7.364
 4043POPC   NC352235  21.407   5.065   5.564
 4043POPC   PO452236  21.384   5.092   5.864
 4043POPC   GL152237  21.381   5.058   6.164
 4043POPC   GL252238  21.235   5.105   6.164
 4043POPC   C1A52239  21.400   5.110   6.464
 4043POPC   D2A52240  21.372   5.140   6.764
 4043POPC   C3A52241  21.343   5.106   7.064
 4043POPC   C4A52242  21.398   5.045   7.364
 4043POPC   C1B52243  21.188   5.180   6.464
 4043POPC   C2B52244  21.153   5.200   6.764
 4043POPC   C3B52245  21.153   5.186   7.064
 4043POPC   C4B52246  21.124   5.244   7.364
 4044POPC   NC352247   7.395  25.239   5.564
 4044POPC   PO452248   7.461  25.314   5.864
 4044POPC   GL152249   7.410  25.222   6.164
 4044POPC   GL252250   7.511  25.238   6.164
 4044POPC   C1A52251   7.403  25.237   6.464
 4044POPC   D2A52252   7.414  25.306   6.764
 4044POPC   C3A52253   7.463  25.303   7.064
 4044POPC   C4A52254   7.400  25.229   7.364
 4044POPC   C1B52255   7.615  25.069   6.464
 4044POPC   C2B52256   7.664  25.143   6.764
 4044POPC   C3B52257   7.661  25.071   7.064
 4044POPC   C4B52258   7.646  25.095   7.364
 4045POPC   NC352259  12.810  15.987   5.564
 4045POPC   PO452260  12.814  15.991   5.864
 4045POPC   GL152261  12.858  15.984   6.164
 4045POPC   GL252262  12.945  16.046   6.164
 4045POPC   C1A52263  12.871  15.915   6.464
 4045POPC   D2A52264  12.833  15.970   6.764
 4045POPC   C3A52265  12.836  15.948   7.064
 4045POPC   C4A52266  12.837  15.995   7.364
 4045POPC   C1B52267  12.981  16.138   6.464
 4045POPC   C2B52268  13.048  16.129   6.764
 4045POPC   C3B52269  13.034  16.146   7.064
 4045POPC   C4B52270  13.041  16.121   7.364
 4046POPC   NC352271  19.833   0.418   5.564
 4046POPC   PO452272  19.845   0.465   5.864
 4046POPC   GL152273  19.853   0.462   6.164
 4046POPC   GL252274  19.711   0.348   6.164
 4046POPC   C1A52275  19.850   0.398   6.464
 4046POPC   D2A52276  19.849   0.407   6.764
 4046POPC   C3A52277  19.798   0.452   7.064
 4046POPC   C4A52278  19.848   0.406   7.364
 4046POPC   C1B52279  19.605   0.265   6.464
 4046POPC   C2B52280  19.643   0.250   6.764
 4046POPC   C3B52281  19.672   0.280   7.064
 4046POPC   C4B52282  19.649   0.262   7.364
 4047POPC   NC352283  12.900   1.224   5.564
 4047POPC   PO452284  12.855   1.250   5.864
 4047POPC   GL152285  12.832   1.180   6.164
 4047POPC   GL252286  12.953   1.124   6.164
 4047POPC   C1A52287  12.900   1.178   6.464
 4047POPC   D2A52288  12.845   1.207   6.764
 4047POPC   C3A52289  12.836   1.207   7.064
 4047POPC   C4A52290  12.858   1.192   7.364
 4047POPC   C1B52291  13.031   0.988   6.464
 4047POPC   C2B52292  13.050   1.003   6.764
 4047POPC   C3B52293  13.040   1.009   7.064
 4047POPC   C4B52294  12.981   1.073   7.364
 4048POPC   NC352295  12.830  21.378   5.564
 4048POPC   PO452296  12.894  21.424   5.864
 4048POPC   GL152297  12.818  21.427   6.164
 4048POPC   GL252298  12.870  21.258   6.164
 4048POPC   C1A52299  12.852  21.420   6.464
 4048POPC   D2A52300  12.813  21.405   6.764
 4048POPC   C3A52301  12.877  21.380   7.064
 4048POPC   C4A52302  12.872  21.359   7.364
 4048POPC   C1B52303  12.833  21.125   6.464
 4048POPC   C2B52304  12.860  21.125   6.764
 4048POPC   C3B52305  12.910  21.097   7.064
 4048POPC   C4B52306  12.898  21.129   7.364
 4049POPC   NC352307  15.151  24.521   5.564
 4049POPC   PO452308  15.145  24.500   5.864
 4049POPC   GL152309  15.205  24.498   6.164
 4049POPC   GL252310  15.084  24.507   6.164
 4049POPC   C1A52311  15.223  24.487   6.464
 4049POPC   D2A52312  15.134  24.479   6.764
 4049POPC   C3A52313  15.198  24.444   7.064
 4049POPC   C4A52314  15.140  24.493   7.364
 4049POPC   C1B52315  14.981  24.457   6.464
 4049POPC   C2B52316  14.972  24.477   6.764
 4049POPC   C3B52317  14.958  24.443   7.064
 4049POPC   C4B52318  14.952  24.420   7.364
 4050POPC   NC352319  25.993  32.997   5.564
 4050POPC   PO452320  25.996  33.022   5.864
 4050POPC   GL152321  26.035  33.044   6.164
 4050POPC   GL252322  25.933  32.942   6.164
 4050POPC   C1A52323  26.022  33.003   6.464
 4050POPC   D2A52324  26.030  33.015   6.764
 4050POPC   C3A52325  26.070  33.018   7.064
 4050POPC   C4A52326  26.056  32.976   7.364
 4050POPC   C1B52327  25.870  32.885   6.464
 4050POPC   C2B52328  25.827  32.879   6.764
 4050POPC   C3B52329  25.819  32.849   7.064
 4050POPC   C4B52330  25.832  32.828   7.364
 4051POPC   NC352331  35.360  38.434   5.564
 4051POPC   PO452332  35.351  38.501   5.864
 4051POPC   GL152333  35.387  38.449   6.164
 4051POPC   GL252334  35.452  38.359   6.164
 4051POPC   C1A52335  35.333  38.471   6.464
 4051POPC   D2A52336  35.378  38.428   6.764
 4051POPC   C3A52337  35.380  38.407   7.064
 4051POPC   C4A52338  35.345  38.495   7.364
 4051POPC   C1B52339  35.548  38.293   6.464
 4051POPC   C2B52340  35.531  38.290   6.764
 4051POPC   C3B52341  35.482  38.256   7.064
 4051POPC   C4B52342  35.499  38.264   7.364
 4052POPC   NC352343  15.958  12.885   5.564
 4052POPC   PO452344  15.912  12.859   5.864
 4052POPC   GL152345  15.959  12.872   6.164
 4052POPC   GL252346  15.899  12.714   6.164
 4052POPC   C1A52347  15.917  12.872   6.464
 4052POPC   D2A52348  15.932  12.823   6.764
 4052POPC   C3A52349  15.937  12.864   7.064
 4052POPC   C4A52350  15.955  12.857   7.364
 4052POPC   C1B52351  15.789  12.675   6.464
 4052POPC   C2B52352  15.844  12.644   6.764
 4052POPC   C3B52353  15.776  12.673   7.064
 4052POPC   C4B52354  15.844  12.599   7.364
 4053POPC   NC352355   5.091  23.707   5.564
 4053POPC   PO452356   5.093  23.670   5.864
 4053POPC   GL152357   5.086  23.724   6.164
 4053POPC   GL252358   5.085  23.806   6.164
 4053POPC   C1A52359   5.084  23.709   6.464
 4053POPC   D2A52360   5.128  23.670   6.764
 4053POPC   C3A52361   5.132  23.743   7.064
 4053POPC   C4A52362   5.076  23.695   7.364
 4053POPC   C1B52363   5.048  23.939   6.464
 4053POPC   C2B52364   5.043  23.985   6.764
 4053POPC   C3B52365   5.100  24.006   7.064
 4053POPC   C4B52366   5.123  23.941   7.364
 4054POPC   NC352367  15.178  21.346   5.564
 4054POPC   PO452368  15.180  21.379   5.864
 4054POPC   GL152369  15.205  21.351   6.164
 4054POPC   GL252370  15.176  21.300   6.164
 4054POPC   C1A52371  15.226  21.398   6.464
 4054POPC   D2A52372  15.215  21.427   6.764
 4054POPC   C3A52373  15.160  21.416   7.064
 4054POPC   C4A52374  15.198  21.351   7.364
 4054POPC   C1B52375  15.213  21.141   6.464
 4054POPC   C2B52376  15.213  21.102   6.764
 4054POPC   C3B52377  15.163  21.146   7.064
 4054POPC   C4B52378  15.162  21.089   7.364
 4055POPC   NC352379  16.698  14.446   5.564
 4055POPC   PO452380  16.732  14.415   5.864
 4055POPC   GL152381  16.716  14.354   6.164
 4055POPC   GL252382  16.875  14.378   6.164
 4055POPC   C1A52383  16.716  14.362   6.464
 4055POPC   D2A52384  16.690  14.424   6.764
 4055POPC   C3A52385  16.724  14.394   7.064
 4055POPC   C4A52386  16.717  14.401   7.364
 4055POPC   C1B52387  16.934  14.324   6.464
 4055POPC   C2B52388  16.974  14.270   6.764
 4055POPC   C3B52389  16.998  14.327   7.064
 4055POPC   C4B52390  16.960  14.249   7.364
 4056POPC   NC352391  13.656   7.397   5.564
 4056POPC   PO452392  13.631   7.382   5.864
 4056POPC   GL152393  13.636   7.426   6.164
 4056POPC   GL252394  13.535   7.304   6.164
 4056POPC   C1A52395  13.595   7.381   6.464
 4056POPC   D2A52396  13.588   7.417   6.764
 4056POPC   C3A52397  13.642   7.380   7.064
 4056POPC   C4A52398  13.675   7.412   7.364
 4056POPC   C1B52399  13.459   7.211   6.464
 4056POPC   C2B52400  13.447   7.175   6.764
 4056POPC   C3B52401  13.501   7.228   7.064
 4056POPC   C4B52402  13.457   7.183   7.364
 4057POPC   NC352403   5.914  37.674   5.564
 4057POPC   PO452404   5.915  37.675   5.864
 4057POPC   GL152405   5.863  37.713   6.164
 4057POPC   GL252406   5.779  37.666   6.164
 4057POPC   C1A52407   5.916  37.675   6.464
 4057POPC   D2A52408   5.880  37.711   6.764
 4057POPC   C3A52409   5.860  37.643   7.064
 4057POPC   C4A52410   5.831  37.630   7.364
 4057POPC   C1B52411   5.591  37.734   6.464
 4057POPC   C2B52412   5.628  37.685   6.764
 4057POPC   C3B52413   5.611  37.692   7.064
 4057POPC   C4B52414   5.611  37.733   7.364
 4058POPC   NC352415  37.647  40.739   5.564
 4058POPC   PO452416  37.666  40.812   5.864
 4058POPC   GL152417  37.638  40.832   6.164
 4058POPC   GL252418  37.648  40.664   6.164
 4058POPC   C1A52419  37.692  40.809   6.464
 4058POPC   D2A52420  37.653  40.735   6.764
 4058POPC   C3A52421  37.722  40.793   7.064
 4058POPC   C4A52422  37.724  40.784   7.364
 4058POPC   C1B52423  37.669  40.557   6.464
 4058POPC   C2B52424  37.663  40.554   6.764
 4058POPC   C3B52425  37.640  40.526   7.064
 4058POPC   C4B52426  37.628  40.575   7.364
 4059POPC   NC352427   4.323   1.164   5.564
 4059POPC   PO452428   4.322   1.252   5.864
 4059POPC   GL152429   4.328   1.224   6.164
 4059POPC   GL252430   4.330   1.044   6.164
 4059POPC   C1A52431   4.297   1.219   6.464
 4059POPC   D2A52432   4.272   1.188   6.764
 4059POPC   C3A52433   4.284   1.218   7.064
 4059POPC   C4A52434   4.348   1.178   7.364
 4059POPC   C1B52435   4.355   0.953   6.464
 4059POPC   C2B52436   4.303   0.992   6.764
 4059POPC   C3B52437   4.340   0.958   7.064
 4059POPC   C4B52438   4.344   0.994   7.364
 4060POPC   NC352439   9.704   9.782   5.564
 4060POPC   PO452440   9.743   9.702   5.864
 4060POPC   GL152441   9.780   9.798   6.164
 4060POPC   GL252442   9.686   9.850   6.164
 4060POPC   C1A52443   9.708   9.724   6.464
 4060POPC   D2A52444   9.787   9.736   6.764
 4060POPC   C3A52445   9.749   9.779   7.064
 4060POPC   C4A52446   9.783   9.782   7.364
 4060POPC   C1B52447   9.537   9.894   6.464
 4060POPC   C2B52448   9.590   9.949   6.764
 4060POPC   C3B52449   9.543   9.889   7.064
 4060POPC   C4B52450   9.538   9.966   7.364
 4061POPC   NC352451  12.091  31.467   5.564
 4061POPC   PO452452  12.084  31.471   5.864
 4061POPC   GL152453  12.122  31.466   6.164
 4061POPC   GL252454  12.154  31.478   6.164
 4061POPC   C1A52455  12.076  31.500   6.464
 4061POPC   D2A52456  12.086  31.495   6.764
 4061POPC   C3A52457  12.066  31.499   7.064
 4061POPC   C4A52458  12.066  31.441   7.364
 4061POPC   C1B52459  12.286  31.593   6.464
 4061POPC   C2B52460  12.276  31.537   6.764
 4061POPC   C3B52461  12.262  31.615   7.064
 4061POPC   C4B52462  12.324  31.527   7.364
 4062POPC   NC352463  40.005  24.531   5.564
 4062POPC   PO452464  40.012  24.484   5.864
 4062POPC   GL152465  40.033  24.516   6.164
 4062POPC   GL252466  40.056  24.428   6.164
 4062POPC   C1A52467  39.973  24.512   6.464
 4062POPC   D2A52468  39.986  24.484   6.764
 4062POPC   C3A52469  40.036  24.481   7.064
 4062POPC   C4A52470  40.022  24.538   7.364
 4062POPC   C1B52471  40.133  24.351   6.464
 4062POPC   C2B52472  40.228  24.277   6.764
 4062POPC   C3B52473  40.201  24.301   7.064
 4062POPC   C4B52474  40.138  24.351   7.364
 4063POPC   NC352475  12.811  33.849   5.564
 4063POPC   PO452476  12.852  33.773   5.864
 4063POPC   GL152477  12.851  33.804   6.164
 4063POPC   GL252478  12.731  33.841   6.164
 4063POPC   C1A52479  12.898  33.782   6.464
 4063POPC   D2A52480  12.861  33.848   6.764
 4063POPC   C3A52481  12.901  33.780   7.064
 4063POPC   C4A52482  12.845  33.806   7.364
 4063POPC   C1B52483  12.676  33.968   6.464
 4063POPC   C2B52484  12.666  33.982   6.764
 4063POPC   C3B52485  12.603  33.916   7.064
 4063POPC   C4B52486  12.635  33.936   7.364
 4064POPC   NC352487  40.789   6.611   5.564
 4064POPC   PO452488  40.735   6.683   5.864
 4064POPC   GL152489  40.774   6.634   6.164
 4064POPC   GL252490  40.819   6.751   6.164
 4064POPC   C1A52491  40.816   6.622   6.464
 4064POPC   D2A52492  40.766   6.652   6.764
 4064POPC   C3A52493  40.766   6.617   7.064
 4064POPC   C4A52494  40.791   6.636   7.364
 4064POPC   C1B52495  40.918   6.824   6.464
 4064POPC   C2B52496  40.905   6.864   6.764
 4064POPC   C3B52497  40.915   6.846   7.064
 4064POPC   C4B52498  40.947   6.798   7.364
 4065POPC   NC352499   0.478  44.680   5.564
 4065POPC   PO452500   0.472  44.637   5.864
 4065POPC   GL152501   0.470  44.631   6.164
 4065POPC   GL252502   0.483  44.523   6.164
 4065POPC   C1A52503   0.450  44.701   6.464
 4065POPC   D2A52504   0.391  44.642   6.764
 4065POPC   C3A52505   0.390  44.638   7.064
 4065POPC   C4A52506   0.457  44.620   7.364
 4065POPC   C1B52507   0.593  44.479   6.464
 4065POPC   C2B52508   0.578  44.497   6.764
 4065POPC   C3B52509   0.549  44.416   7.064
 4065POPC   C4B52510   0.583  44.485   7.364
 4066POPC   NC352511  19.105   4.281   5.564
 4066POPC   PO452512  19.038   4.270   5.864
 4066POPC   GL152513  19.075   4.285   6.164
 4066POPC   GL252514  19.183   4.306   6.164
 4066POPC   C1A52515  19.048   4.274   6.464
 4066POPC   D2A52516  19.061   4.278   6.764
 4066POPC   C3A52517  19.092   4.310   7.064
 4066POPC   C4A52518  19.056   4.357   7.364
 4066POPC   C1B52519  19.264   4.337   6.464
 4066POPC   C2B52520  19.337   4.284   6.764
 4066POPC   C3B52521  19.308   4.329   7.064
 4066POPC   C4B52522  19.326   4.352   7.364
 4067POPC   NC352523  24.523  29.124   5.564
 4067POPC   PO452524  24.538  29.103   5.864
 4067POPC   GL152525  24.506  29.129   6.164
 4067POPC   GL252526  24.541  29.065   6.164
 4067POPC   C1A52527  24.480  29.133   6.464
 4067POPC   D2A52528  24.472  29.167   6.764
 4067POPC   C3A52529  24.507  29.129   7.064
 4067POPC   C4A52530  24.450  29.175   7.364
 4067POPC   C1B52531  24.514  28.937   6.464
 4067POPC   C2B52532  24.534  28.878   6.764
 4067POPC   C3B52533  24.570  28.931   7.064
 4067POPC   C4B52534  24.536  28.871   7.364
 4068POPC   NC352535  43.068  37.705   5.564
 4068POPC   PO452536  43.070  37.654   5.864
 4068POPC   GL152537  43.112  37.630   6.164
 4068POPC   GL252538  42.966  37.595   6.164
 4068POPC   C1A52539  43.085  37.680   6.464
 4068POPC   D2A52540  43.088  37.685   6.764
 4068POPC   C3A52541  43.093  37.695   7.064
 4068POPC   C4A52542  43.110  37.647   7.364
 4068POPC   C1B52543  42.848  37.638   6.464
 4068POPC   C2B52544  42.826  37.647   6.764
 4068POPC   C3B52545  42.840  37.613   7.064
 4068POPC   C4B52546  42.904  37.587   7.364
 4069POPC   NC352547  28.405  29.138   5.564
 4069POPC   PO452548  28.380  29.153   5.864
 4069POPC   GL152549  28.343  29.181   6.164
 4069POPC   GL252550  28.286  29.048   6.164
 4069POPC   C1A52551  28.412  29.097   6.464
 4069POPC   D2A52552  28.355  29.117   6.764
 4069POPC   C3A52553  28.330  29.158   7.064
 4069POPC   C4A52554  28.385  29.121   7.364
 4069POPC   C1B52555  28.107  29.083   6.464
 4069POPC   C2B52556  28.186  29.057   6.764
 4069POPC   C3B52557  28.168  29.081   7.064
 4069POPC   C4B52558  28.136  29.001   7.364
 4070POPC   NC352559  24.470   5.117   5.564
 4070POPC   PO452560  24.522   5.076   5.864
 4070POPC   GL152561  24.485   5.118   6.164
 4070POPC   GL252562  24.503   4.989   6.164
 4070POPC   C1A52563  24.531   5.059   6.464
 4070POPC   D2A52564  24.472   5.130   6.764
 4070POPC   C3A52565  24.526   5.084   7.064
 4070POPC   C4A52566  24.493   5.046   7.364
 4070POPC   C1B52567  24.485   4.826   6.464
 4070POPC   C2B52568  24.484   4.873   6.764
 4070POPC   C3B52569  24.540   4.852   7.064
 4070POPC   C4B52570  24.498   4.844   7.364
 4071POPC   NC352571  11.261  24.440   5.564
 4071POPC   PO452572  11.322  24.516   5.864
 4071POPC   GL152573  11.258  24.472   6.164
 4071POPC   GL252574  11.404  24.381   6.164
 4071POPC   C1A52575  11.259  24.523   6.464
 4071POPC   D2A52576  11.278  24.533   6.764
 4071POPC   C3A52577  11.297  24.477   7.064
 4071POPC   C4A52578  11.303  24.506   7.364
 4071POPC   C1B52579  11.372  24.299   6.464
 4071POPC   C2B52580  11.414  24.261   6.764
 4071POPC   C3B52581  11.466  24.237   7.064
 4071POPC   C4B52582  11.374  24.293   7.364
 4072POPC   NC352583  19.098  35.327   5.564
 4072POPC   PO452584  19.031  35.381   5.864
 4072POPC   GL152585  19.089  35.389   6.164
 4072POPC   GL252586  18.909  35.464   6.164
 4072POPC   C1A52587  19.022  35.353   6.464
 4072POPC   D2A52588  19.027  35.318   6.764
 4072POPC   C3A52589  19.031  35.309   7.064
 4072POPC   C4A52590  19.046  35.364   7.364
 4072POPC   C1B52591  18.860  35.534   6.464
 4072POPC   C2B52592  18.867  35.436   6.764
 4072POPC   C3B52593  18.841  35.495   7.064
 4072POPC   C4B52594  18.831  35.492   7.364
 4073POPC   NC352595  30.698   5.837   5.564
 4073POPC   PO452596  30.662   5.843   5.864
 4073POPC   GL152597  30.682   5.839   6.164
 4073POPC   GL252598  30.540   5.852   6.164
 4073POPC   C1A52599  30.659   5.863   6.464
 4073POPC   D2A52600  30.651   5.835   6.764
 4073POPC   C3A52601  30.648   5.908   7.064
 4073POPC   C4A52602  30.703   5.887   7.364
 4073POPC   C1B52603  30.489   5.928   6.464
 4073POPC   C2B52604  30.454   5.888   6.764
 4073POPC   C3B52605  30.426   5.943   7.064
 4073POPC   C4B52606  30.413   5.896   7.364
 4074POPC   NC352607  14.383  34.600   5.564
 4074POPC   PO452608  14.390  34.586   5.864
 4074POPC   GL152609  14.383  34.544   6.164
 4074POPC   GL252610  14.468  34.665   6.164
 4074POPC   C1A52611  14.409  34.594   6.464
 4074POPC   D2A52612  14.394  34.616   6.764
 4074POPC   C3A52613  14.437  34.607   7.064
 4074POPC   C4A52614  14.417  34.618   7.364
 4074POPC   C1B52615  14.507  34.787   6.464
 4074POPC   C2B52616  14.565  34.809   6.764
 4074POPC   C3B52617  14.497  34.779   7.064
 4074POPC   C4B52618  14.583  34.745   7.364
 4075POPC   NC352619  39.972   4.355   5.564
 4075POPC   PO452620  40.024   4.275   5.864
 4075POPC   GL152621  40.043   4.349   6.164
 4075POPC   GL252622  40.145   4.312   6.164
 4075POPC   C1A52623  39.983   4.285   6.464
 4075POPC   D2A52624  39.985   4.271   6.764
 4075POPC   C3A52625  40.053   4.366   7.064
 4075POPC   C4A52626  40.031   4.350   7.364
 4075POPC   C1B52627  40.199   4.203   6.464
 4075POPC   C2B52628  40.243   4.272   6.764
 4075POPC   C3B52629  40.291   4.193   7.064
 4075POPC   C4B52630  40.267   4.268   7.364
 4076POPC   NC352631  21.352  12.055   5.564
 4076POPC   PO452632  21.388  12.029   5.864
 4076POPC   GL152633  21.374  12.031   6.164
 4076POPC   GL252634  21.273  12.116   6.164
 4076POPC   C1A52635  21.389  12.101   6.464
 4076POPC   D2A52636  21.405  12.124   6.764
 4076POPC   C3A52637  21.345  12.088   7.064
 4076POPC   C4A52638  21.392  12.091   7.364
 4076POPC   C1B52639  21.116  12.140   6.464
 4076POPC   C2B52640  21.113  12.195   6.764
 4076POPC   C3B52641  21.120  12.160   7.064
 4076POPC   C4B52642  21.147  12.187   7.364
 4077POPC   NC352643  18.240  27.574   5.564
 4077POPC   PO452644  18.247  27.552   5.864
 4077POPC   GL152645  18.330  27.547   6.164
 4077POPC   GL252646  18.351  27.667   6.164
 4077POPC   C1A52647  18.295  27.606   6.464
 4077POPC   D2A52648  18.319  27.627   6.764
 4077POPC   C3A52649  18.239  27.559   7.064
 4077POPC   C4A52650  18.249  27.635   7.364
 4077POPC   C1B52651  18.354  27.822   6.464
 4077POPC   C2B52652  18.381  27.869   6.764
 4077POPC   C3B52653  18.351  27.798   7.064
 4077POPC   C4B52654  18.372  27.808   7.364
 4078POPC   NC352655  39.231   1.244   5.564
 4078POPC   PO452656  39.193   1.218   5.864
 4078POPC   GL152657  39.230   1.192   6.164
 4078POPC   GL252658  39.103   1.170   6.164
 4078POPC   C1A52659  39.250   1.223   6.464
 4078POPC   D2A52660  39.256   1.212   6.764
 4078POPC   C3A52661  39.225   1.253   7.064
 4078POPC   C4A52662  39.228   1.203   7.364
 4078POPC   C1B52663  39.018   1.045   6.464
 4078POPC   C2B52664  39.004   1.033   6.764
 4078POPC   C3B52665  39.001   1.019   7.064
 4078POPC   C4B52666  39.040   1.078   7.364
 4079POPC   NC352667  19.010   5.830   5.564
 4079POPC   PO452668  19.011   5.914   5.864
 4079POPC   GL152669  19.080   5.897   6.164
 4079POPC   GL252670  19.012   5.773   6.164
 4079POPC   C1A52671  19.096   5.837   6.464
 4079POPC   D2A52672  19.071   5.908   6.764
 4079POPC   C3A52673  19.074   5.831   7.064
 4079POPC   C4A52674  19.042   5.835   7.364
 4079POPC   C1B52675  18.900   5.708   6.464
 4079POPC   C2B52676  18.894   5.747   6.764
 4079POPC   C3B52677  18.824   5.692   7.064
 4079POPC   C4B52678  18.820   5.722   7.364
 4080POPC   NC352679  29.966  42.289   5.564
 4080POPC   PO452680  29.885  42.341   5.864
 4080POPC   GL152681  29.960  42.359   6.164
 4080POPC   GL252682  29.938  42.170   6.164
 4080POPC   C1A52683  29.930  42.302   6.464
 4080POPC   D2A52684  29.887  42.381   6.764
 4080POPC   C3A52685  29.884  42.302   7.064
 4080POPC   C4A52686  29.911  42.291   7.364
 4080POPC   C1B52687  29.817  42.100   6.464
 4080POPC   C2B52688  29.824  42.131   6.764
 4080POPC   C3B52689  29.865  42.070   7.064
 4080POPC   C4B52690  29.910  42.119   7.364
 4081POPC   NC352691  36.939  23.731   5.564
 4081POPC   PO452692  36.890  23.744   5.864
 4081POPC   GL152693  36.877  23.739   6.164
 4081POPC   GL252694  36.793  23.813   6.164
 4081POPC   C1A52695  36.881  23.672   6.464
 4081POPC   D2A52696  36.951  23.692   6.764
 4081POPC   C3A52697  36.915  23.764   7.064
 4081POPC   C4A52698  36.927  23.741   7.364
 4081POPC   C1B52699  36.815  23.953   6.464
 4081POPC   C2B52700  36.779  23.969   6.764
 4081POPC   C3B52701  36.786  23.879   7.064
 4081POPC   C4B52702  36.805  23.885   7.364
 4082POPC   NC352703  32.267  13.654   5.564
 4082POPC   PO452704  32.200  13.612   5.864
 4082POPC   GL152705  32.272  13.601   6.164
 4082POPC   GL252706  32.154  13.678   6.164
 4082POPC   C1A52707  32.209  13.665   6.464
 4082POPC   D2A52708  32.288  13.618   6.764
 4082POPC   C3A52709  32.214  13.671   7.064
 4082POPC   C4A52710  32.229  13.650   7.364
 4082POPC   C1B52711  32.060  13.747   6.464
 4082POPC   C2B52712  32.037  13.747   6.764
 4082POPC   C3B52713  32.062  13.798   7.064
 4082POPC   C4B52714  32.055  13.765   7.364
 4083POPC   NC352715  17.511  42.291   5.564
 4083POPC   PO452716  17.461  42.325   5.864
 4083POPC   GL152717  17.529  42.292   6.164
 4083POPC   GL252718  17.598  42.420   6.164
 4083POPC   C1A52719  17.467  42.289   6.464
 4083POPC   D2A52720  17.485  42.294   6.764
 4083POPC   C3A52721  17.508  42.318   7.064
 4083POPC   C4A52722  17.485  42.318   7.364
 4083POPC   C1B52723  17.622  42.574   6.464
 4083POPC   C2B52724  17.677  42.594   6.764
 4083POPC   C3B52725  17.619  42.569   7.064
 4083POPC   C4B52726  17.594  42.532   7.364
 4084POPC   NC352727  10.558   5.828   5.564
 4084POPC   PO452728  10.551   5.883   5.864
 4084POPC   GL152729  10.558   5.885   6.164
 4084POPC   GL252730  10.609   5.918   6.164
 4084POPC   C1A52731  10.485   5.855   6.464
 4084POPC   D2A52732  10.492   5.836   6.764
 4084POPC   C3A52733  10.548   5.847   7.064
 4084POPC   C4A52734  10.542   5.821   7.364
 4084POPC   C1B52735  10.666   6.004   6.464
 4084POPC   C2B52736  10.672   6.050   6.764
 4084POPC   C3B52737  10.710   6.017   7.064
 4084POPC   C4B52738  10.724   6.029   7.364
 4085POPC   NC352739   8.233  26.055   5.564
 4085POPC   PO452740   8.229  26.008   5.864
 4085POPC   GL152741   8.245  26.088   6.164
 4085POPC   GL252742   8.312  26.085   6.164
 4085POPC   C1A52743   8.167  26.046   6.464
 4085POPC   D2A52744   8.192  26.055   6.764
 4085POPC   C3A52745   8.159  26.046   7.064
 4085POPC   C4A52746   8.197  26.073   7.364
 4085POPC   C1B52747   8.426  26.195   6.464
 4085POPC   C2B52748   8.450  26.165   6.764
 4085POPC   C3B52749   8.439  26.181   7.064
 4085POPC   C4B52750   8.457  26.207   7.364
 4086POPC   NC352751  31.435   6.601   5.564
 4086POPC   PO452752  31.491   6.672   5.864
 4086POPC   GL152753  31.441   6.599   6.164
 4086POPC   GL252754  31.459   6.513   6.164
 4086POPC   C1A52755  31.447   6.680   6.464
 4086POPC   D2A52756  31.464   6.597   6.764
 4086POPC   C3A52757  31.515   6.693   7.064
 4086POPC   C4A52758  31.441   6.617   7.364
 4086POPC   C1B52759  31.416   6.361   6.464
 4086POPC   C2B52760  31.463   6.354   6.764
 4086POPC   C3B52761  31.424   6.403   7.064
 4086POPC   C4B52762  31.468   6.444   7.364
 4087POPC   NC352763  37.677  27.602   5.564
 4087POPC   PO452764  37.645  27.544   5.864
 4087POPC   GL152765  37.723  27.636   6.164
 4087POPC   GL252766  37.802  27.609   6.164
 4087POPC   C1A52767  37.654  27.602   6.464
 4087POPC   D2A52768  37.682  27.569   6.764
 4087POPC   C3A52769  37.675  27.632   7.064
 4087POPC   C4A52770  37.701  27.582   7.364
 4087POPC   C1B52771  37.931  27.714   6.464
 4087POPC   C2B52772  37.931  27.673   6.764
 4087POPC   C3B52773  37.931  27.691   7.064
 4087POPC   C4B52774  37.906  27.766   7.364
 4088POPC   NC352775  38.412  36.167   5.564
 4088POPC   PO452776  38.474  36.093   5.864
 4088POPC   GL152777  38.498  36.108   6.164
 4088POPC   GL252778  38.567  36.216   6.164
 4088POPC   C1A52779  38.438  36.167   6.464
 4088POPC   D2A52780  38.454  36.138   6.764
 4088POPC   C3A52781  38.450  36.123   7.064
 4088POPC   C4A52782  38.450  36.126   7.364
 4088POPC   C1B52783  38.564  36.312   6.464
 4088POPC   C2B52784  38.556  36.377   6.764
 4088POPC   C3B52785  38.602  36.287   7.064
 4088POPC   C4B52786  38.549  36.365   7.364
 4089POPC   NC352787  33.839  36.874   5.564
 4089POPC   PO452788  33.787  36.868   5.864
 4089POPC   GL152789  33.781  36.871   6.164
 4089POPC   GL252790  33.896  36.812   6.164
 4089POPC   C1A52791  33.754  36.947   6.464
 4089POPC   D2A52792  33.773  36.910   6.764
 4089POPC   C3A52793  33.830  36.872   7.064
 4089POPC   C4A52794  33.788  36.891   7.364
 4089POPC   C1B52795  33.959  36.674   6.464
 4089POPC   C2B52796  33.990  36.655   6.764
 4089POPC   C3B52797  33.928  36.685   7.064
 4089POPC   C4B52798  33.946  36.706   7.364
 4090POPC   NC352799   8.183  18.327   5.564
 4090POPC   PO452800   8.216  18.235   5.864
 4090POPC   GL152801   8.169  18.255   6.164
 4090POPC   GL252802   8.070  18.376   6.164
 4090POPC   C1A52803   8.156  18.256   6.464
 4090POPC   D2A52804   8.207  18.262   6.764
 4090POPC   C3A52805   8.158  18.263   7.064
 4090POPC   C4A52806   8.235  18.322   7.364
 4090POPC   C1B52807   8.023  18.441   6.464
 4090POPC   C2B52808   8.013  18.425   6.764
 4090POPC   C3B52809   7.961  18.437   7.064
 4090POPC   C4B52810   7.951  18.459   7.364
 4091POPC   NC352811  15.950  32.202   5.564
 4091POPC   PO452812  15.991  32.211   5.864
 4091POPC   GL152813  15.989  32.271   6.164
 4091POPC   GL252814  15.904  32.347   6.164
 4091POPC   C1A52815  15.965  32.249   6.464
 4091POPC   D2A52816  15.996  32.223   6.764
 4091POPC   C3A52817  15.986  32.233   7.064
 4091POPC   C4A52818  15.932  32.201   7.364
 4091POPC   C1B52819  15.894  32.463   6.464
 4091POPC   C2B52820  15.834  32.483   6.764
 4091POPC   C3B52821  15.821  32.492   7.064
 4091POPC   C4B52822  15.804  32.513   7.364
 4092POPC   NC352823  15.195  36.158   5.564
 4092POPC   PO452824  15.158  36.115   5.864
 4092POPC   GL152825  15.196  36.148   6.164
 4092POPC   GL252826  15.272  36.243   6.164
 4092POPC   C1A52827  15.226  36.084   6.464
 4092POPC   D2A52828  15.137  36.079   6.764
 4092POPC   C3A52829  15.135  36.126   7.064
 4092POPC   C4A52830  15.211  36.136   7.364
 4092POPC   C1B52831  15.314  36.267   6.464
 4092POPC   C2B52832  15.361  36.298   6.764
 4092POPC   C3B52833  15.351  36.303   7.064
 4092POPC   C4B52834  15.353  36.276   7.364
 4093POPC   NC352835   5.841  43.120   5.564
 4093POPC   PO452836   5.894  43.082   5.864
 4093POPC   GL152837   5.844  43.154   6.164
 4093POPC   GL252838   5.973  43.154   6.164
 4093POPC   C1A52839   5.897  43.069   6.464
 4093POPC   D2A52840   5.918  43.153   6.764
 4093POPC   C3A52841   5.885  43.155   7.064
 4093POPC   C4A52842   5.896  43.081   7.364
 4093POPC   C1B52843   6.040  43.276   6.464
 4093POPC   C2B52844   6.119  43.205   6.764
 4093POPC   C3B52845   6.126  43.200   7.064
 4093POPC   C4B52846   6.071  43.223   7.364
 4094POPC   NC352847  29.151  19.852   5.564
 4094POPC   PO452848  29.182  19.858   5.864
 4094POPC   GL152849  29.165  19.838   6.164
 4094POPC   GL252850  29.166  19.957   6.164
 4094POPC   C1A52851  29.148  19.857   6.464
 4094POPC   D2A52852  29.187  19.793   6.764
 4094POPC   C3A52853  29.178  19.824   7.064
 4094POPC   C4A52854  29.176  19.850   7.364
 4094POPC   C1B52855  29.127  20.052   6.464
 4094POPC   C2B52856  29.148  20.067   6.764
 4094POPC   C3B52857  29.150  20.066   7.064
 4094POPC   C4B52858  29.183  20.044   7.364
 4095POPC   NC352859  10.518  10.564   5.564
 4095POPC   PO452860  10.530  10.567   5.864
 4095POPC   GL152861  10.475  10.537   6.164
 4095POPC   GL252862  10.637  10.622   6.164
 4095POPC   C1A52863  10.510  10.502   6.464
 4095POPC   D2A52864  10.521  10.476   6.764
 4095POPC   C3A52865  10.546  10.490   7.064
 4095POPC   C4A52866  10.491  10.569   7.364
 4095POPC   C1B52867  10.675  10.708   6.464
 4095POPC   C2B52868  10.698  10.685   6.764
 4095POPC   C3B52869  10.716  10.676   7.064
 4095POPC   C4B52870  10.723  10.737   7.364
 4096POPC   NC352871  26.016  44.640   5.564
 4096POPC   PO452872  26.047  44.638   5.864
 4096POPC   GL152873  26.025  44.657   6.164
 4096POPC   GL252874  26.077  44.738   6.164
 4096POPC   C1A52875  26.004  44.652   6.464
 4096POPC   D2A52876  26.084  44.640   6.764
 4096POPC   C3A52877  26.087  44.690   7.064
 4096POPC   C4A52878  26.045  44.680   7.364
 4096POPC   C1B52879  26.106  44.949   6.464
 4096POPC   C2B52880  26.080  44.871   6.764
 4096POPC   C3B52881  26.062  44.916   7.064
 4096POPC   C4B52882  26.141  44.888   7.364
 4097POPC   NC352883  38.420  19.097   5.564
 4097POPC   PO452884  38.421  19.089   5.864
 4097POPC   GL152885  38.417  19.096   6.164
 4097POPC   GL252886  38.353  19.078   6.164
 4097POPC   C1A52887  38.449  19.049   6.464
 4097POPC   D2A52888  38.436  19.060   6.764
 4097POPC   C3A52889  38.451  19.018   7.064
 4097POPC   C4A52890  38.467  19.092   7.364
 4097POPC   C1B52891  38.253  19.024   6.464
 4097POPC   C2B52892  38.248  19.070   6.764
 4097POPC   C3B52893  38.255  19.026   7.064
 4097POPC   C4B52894  38.198  19.050   7.364
 4098POPC   NC352895  23.678  22.904   5.564
 4098POPC   PO452896  23.706  22.962   5.864
 4098POPC   GL152897  23.744  22.917   6.164
 4098POPC   GL252898  23.732  22.869   6.164
 4098POPC   C1A52899  23.708  22.987   6.464
 4098POPC   D2A52900  23.704  22.960   6.764
 4098POPC   C3A52901  23.722  22.906   7.064
 4098POPC   C4A52902  23.735  22.903   7.364
 4098POPC   C1B52903  23.810  22.739   6.464
 4098POPC   C2B52904  23.764  22.723   6.764
 4098POPC   C3B52905  23.820  22.750   7.064
 4098POPC   C4B52906  23.813  22.752   7.364
 4099POPC   NC352907   9.777  24.515   5.564
 4099POPC   PO452908   9.730  24.514   5.864
 4099POPC   GL152909   9.742  24.538   6.164
 4099POPC   GL252910   9.674  24.585   6.164
 4099POPC   C1A52911   9.743  24.508   6.464
 4099POPC   D2A52912   9.705  24.496   6.764
 4099POPC   C3A52913   9.708  24.492   7.064
 4099POPC   C4A52914   9.744  24.509   7.364
 4099POPC   C1B52915   9.567  24.639   6.464
 4099POPC   C2B52916   9.602  24.719   6.764
 4099POPC   C3B52917   9.541  24.640   7.064
 4099POPC   C4B52918   9.616  24.687   7.364
 4100POPC   NC352919  35.385   2.773   5.564
 4100POPC   PO452920  35.378   2.765   5.864
 4100POPC   GL152921  35.305   2.784   6.164
 4100POPC   GL252922  35.219   2.696   6.164
 4100POPC   C1A52923  35.351   2.740   6.464
 4100POPC   D2A52924  35.376   2.775   6.764
 4100POPC   C3A52925  35.375   2.738   7.064
 4100POPC   C4A52926  35.331   2.762   7.364
 4100POPC   C1B52927  35.066   2.685   6.464
 4100POPC   C2B52928  35.137   2.672   6.764
 4100POPC   C3B52929  35.128   2.684   7.064
 4100POPC   C4B52930  35.105   2.720   7.364
 4101POPC   NC352931  30.659   0.432   5.564
 4101POPC   PO452932  30.744   0.478   5.864
 4101POPC   GL152933  30.724   0.431   6.164
 4101POPC   GL252934  30.793   0.347   6.164
 4101POPC   C1A52935  30.736   0.404   6.464
 4101POPC   D2A52936  30.701   0.404   6.764
 4101POPC   C3A52937  30.698   0.396   7.064
 4101POPC   C4A52938  30.671   0.451   7.364
 4101POPC   C1B52939  30.888   0.271   6.464
 4101POPC   C2B52940  30.859   0.315   6.764
 4101POPC   C3B52941  30.875   0.302   7.064
 4101POPC   C4B52942  30.905   0.326   7.364
 4102POPC   NC352943  36.097  22.170   5.564
 4102POPC   PO452944  36.111  22.118   5.864
 4102POPC   GL152945  36.131  22.202   6.164
 4102POPC   GL252946  36.036  22.114   6.164
 4102POPC   C1A52947  36.156  22.125   6.464
 4102POPC   D2A52948  36.145  22.122   6.764
 4102POPC   C3A52949  36.131  22.211   7.064
 4102POPC   C4A52950  36.089  22.181   7.364
 4102POPC   C1B52951  35.937  22.039   6.464
 4102POPC   C2B52952  35.880  22.028   6.764
 4102POPC   C3B52953  35.894  22.043   7.064
 4102POPC   C4B52954  35.900  22.066   7.364
 4103POPC   NC352955  27.590  38.430   5.564
 4103POPC   PO452956  27.580  38.497   5.864
 4103POPC   GL152957  27.595  38.459   6.164
 4103POPC   GL252958  27.466  38.522   6.164
 4103POPC   C1A52959  27.583  38.416   6.464
 4103POPC   D2A52960  27.571  38.488   6.764
 4103POPC   C3A52961  27.610  38.425   7.064
 4103POPC   C4A52962  27.548  38.503   7.364
 4103POPC   C1B52963  27.404  38.610   6.464
 4103POPC   C2B52964  27.407  38.556   6.764
 4103POPC   C3B52965  27.422  38.616   7.064
 4103POPC   C4B52966  27.366  38.606   7.364
 4104POPC   NC352967  35.366   3.553   5.564
 4104POPC   PO452968  35.379   3.590   5.864
 4104POPC   GL152969  35.391   3.499   6.164
 4104POPC   GL252970  35.428   3.391   6.164
 4104POPC   C1A52971  35.374   3.513   6.464
 4104POPC   D2A52972  35.401   3.511   6.764
 4104POPC   C3A52973  35.339   3.546   7.064
 4104POPC   C4A52974  35.336   3.508   7.364
 4104POPC   C1B52975  35.406   3.282   6.464
 4104POPC   C2B52976  35.424   3.279   6.764
 4104POPC   C3B52977  35.488   3.327   7.064
 4104POPC   C4B52978  35.481   3.349   7.364
 4105POPC   NC352979  13.618  16.004   5.564
 4105POPC   PO452980  13.651  15.930   5.864
 4105POPC   GL152981  13.646  15.914   6.164
 4105POPC   GL252982  13.638  16.077   6.164
 4105POPC   C1A52983  13.619  15.962   6.464
 4105POPC   D2A52984  13.580  15.917   6.764
 4105POPC   C3A52985  13.677  15.936   7.064
 4105POPC   C4A52986  13.578  15.908   7.364
 4105POPC   C1B52987  13.553  16.226   6.464
 4105POPC   C2B52988  13.564  16.196   6.764
 4105POPC   C3B52989  13.587  16.170   7.064
 4105POPC   C4B52990  13.567  16.231   7.364
 4106POPC   NC352991  28.389  42.342   5.564
 4106POPC   PO452992  28.338  42.334   5.864
 4106POPC   GL152993  28.344  42.287   6.164
 4106POPC   GL252994  28.288  42.293   6.164
 4106POPC   C1A52995  28.341  42.341   6.464
 4106POPC   D2A52996  28.340  42.296   6.764
 4106POPC   C3A52997  28.362  42.348   7.064
 4106POPC   C4A52998  28.360  42.318   7.364
 4106POPC   C1B52999  28.183  42.198   6.464
 4106POPC   C2B53000  28.143  42.170   6.764
 4106POPC   C3B53001  28.153  42.185   7.064
 4106POPC   C4B53002  28.208  42.125   7.364
 4107POPC   NC353003  29.944  11.307   5.564
 4107POPC   PO453004  29.879  11.329   5.864
 4107POPC   GL153005  29.901  11.332   6.164
 4107POPC   GL253006  29.875  11.223   6.164
 4107POPC   C1A53007  29.895  11.251   6.464
 4107POPC   D2A53008  29.953  11.286   6.764
 4107POPC   C3A53009  29.924  11.340   7.064
 4107POPC   C4A53010  29.889  11.315   7.364
 4107POPC   C1B53011  29.904  11.067   6.464
 4107POPC   C2B53012  29.844  11.101   6.764
 4107POPC   C3B53013  29.836  11.020   7.064
 4107POPC   C4B53014  29.892  11.048   7.364
 4108POPC   NC353015  12.861  36.093   5.564
 4108POPC   PO453016  12.842  36.142   5.864
 4108POPC   GL153017  12.871  36.089   6.164
 4108POPC   GL253018  12.819  36.200   6.164
 4108POPC   C1A53019  12.873  36.136   6.464
 4108POPC   D2A53020  12.808  36.160   6.764
 4108POPC   C3A53021  12.853  36.125   7.064
 4108POPC   C4A53022  12.832  36.083   7.364
 4108POPC   C1B53023  12.730  36.320   6.464
 4108POPC   C2B53024  12.664  36.369   6.764
 4108POPC   C3B53025  12.756  36.310   7.064
 4108POPC   C4B53026  12.717  36.326   7.364
 4109POPC   NC353027  39.231  26.780   5.564
 4109POPC   PO453028  39.191  26.830   5.864
 4109POPC   GL153029  39.245  26.853   6.164
 4109POPC   GL253030  39.329  26.777   6.164
 4109POPC   C1A53031  39.204  26.857   6.464
 4109POPC   D2A53032  39.275  26.835   6.764
 4109POPC   C3A53033  39.245  26.790   7.064
 4109POPC   C4A53034  39.225  26.822   7.364
 4109POPC   C1B53035  39.476  26.828   6.464
 4109POPC   C2B53036  39.487  26.856   6.764
 4109POPC   C3B53037  39.522  26.825   7.064
 4109POPC   C4B53038  39.450  26.859   7.364
 4110POPC   NC353039  12.052  42.330   5.564
 4110POPC   PO453040  12.110  42.304   5.864
 4110POPC   GL153041  12.031  42.361   6.164
 4110POPC   GL253042  12.158  42.439   6.164
 4110POPC   C1A53043  12.040  42.345   6.464
 4110POPC   D2A53044  12.103  42.318   6.764
 4110POPC   C3A53045  12.054  42.294   7.064
 4110POPC   C4A53046  12.087  42.310   7.364
 4110POPC   C1B53047  12.231  42.515   6.464
 4110POPC   C2B53048  12.295  42.490   6.764
 4110POPC   C3B53049  12.211  42.460   7.064
 4110POPC   C4B53050  12.298  42.533   7.364
 4111POPC   NC353051   2.011  36.149   5.564
 4111POPC   PO453052   2.033  36.083   5.864
 4111POPC   GL153053   2.016  36.092   6.164
 4111POPC   GL253054   2.023  36.209   6.164
 4111POPC   C1A53055   2.037  36.100   6.464
 4111POPC   D2A53056   1.981  36.087   6.764
 4111POPC   C3A53057   1.953  36.111   7.064
 4111POPC   C4A53058   2.010  36.119   7.364
 4111POPC   C1B53059   2.007  36.360   6.464
 4111POPC   C2B53060   2.013  36.352   6.764
 4111POPC   C3B53061   2.015  36.333   7.064
 4111POPC   C4B53062   2.041  36.396   7.364
 4112POPC   NC353063   2.030  16.740   5.564
 4112POPC   PO453064   1.976  16.755   5.864
 4112POPC   GL153065   1.980  16.718   6.164
 4112POPC   GL253066   1.896  16.592   6.164
 4112POPC   C1A53067   1.978  16.743   6.464
 4112POPC   D2A53068   1.990  16.752   6.764
 4112POPC   C3A53069   1.944  16.754   7.064
 4112POPC   C4A53070   1.974  16.683   7.364
 4112POPC   C1B53071   1.890  16.493   6.464
 4112POPC   C2B53072   1.914  16.483   6.764
 4112POPC   C3B53073   1.867  16.463   7.064
 4112POPC   C4B53074   1.852  16.485   7.364
 4113POPC   NC353075  31.474  15.176   5.564
 4113POPC   PO453076  31.455  15.216   5.864
 4113POPC   GL153077  31.501  15.162   6.164
 4113POPC   GL253078  31.606  15.161   6.164
 4113POPC   C1A53079  31.486  15.131   6.464
 4113POPC   D2A53080  31.515  15.185   6.764
 4113POPC   C3A53081  31.521  15.133   7.064
 4113POPC   C4A53082  31.495  15.147   7.364
 4113POPC   C1B53083  31.708  15.068   6.464
 4113POPC   C2B53084  31.713  15.085   6.764
 4113POPC   C3B53085  31.742  15.085   7.064
 4113POPC   C4B53086  31.748  15.062   7.364
 4114POPC   NC353087   7.447  42.338   5.564
 4114POPC   PO453088   7.396  42.372   5.864
 4114POPC   GL153089   7.437  42.301   6.164
 4114POPC   GL253090   7.450  42.166   6.164
 4114POPC   C1A53091   7.419  42.336   6.464
 4114POPC   D2A53092   7.392  42.363   6.764
 4114POPC   C3A53093   7.449  42.291   7.064
 4114POPC   C4A53094   7.393  42.364   7.364
 4114POPC   C1B53095   7.517  42.115   6.464
 4114POPC   C2B53096   7.459  42.053   6.764
 4114POPC   C3B53097   7.523  42.122   7.064
 4114POPC   C4B53098   7.473  42.046   7.364
 4115POPC   NC353099  26.066  36.083   5.564
 4115POPC   PO453100  26.037  36.092   5.864
 4115POPC   GL153101  26.080  36.153   6.164
 4115POPC   GL253102  26.029  36.228   6.164
 4115POPC   C1A53103  26.031  36.168   6.464
 4115POPC   D2A53104  26.016  36.140   6.764
 4115POPC   C3A53105  26.064  36.165   7.064
 4115POPC   C4A53106  26.047  36.113   7.364
 4115POPC   C1B53107  26.055  36.377   6.464
 4115POPC   C2B53108  26.008  36.372   6.764
 4115POPC   C3B53109  26.031  36.398   7.064
 4115POPC   C4B53110  25.996  36.391   7.364
 4116POPC   NC353111  43.152  42.288   5.564
 4116POPC   PO453112  43.114  42.346   5.864
 4116POPC   GL153113  43.067  42.346   6.164
 4116POPC   GL253114  42.941  42.307   6.164
 4116POPC   C1A53115  43.070  42.383   6.464
 4116POPC   D2A53116  43.126  42.351   6.764
 4116POPC   C3A53117  43.147  42.375   7.064
 4116POPC   C4A53118  43.122  42.379   7.364
 4116POPC   C1B53119  42.841  42.358   6.464
 4116POPC   C2B53120  42.834  42.295   6.764
 4116POPC   C3B53121  42.877  42.357   7.064
 4116POPC   C4B53122  42.873  42.391   7.364
 4117POPC   NC353123  38.423  17.473   5.564
 4117POPC   PO453124  38.476  17.461   5.864
 4117POPC   GL153125  38.453  17.461   6.164
 4117POPC   GL253126  38.392  17.594   6.164
 4117POPC   C1A53127  38.428  17.512   6.464
 4117POPC   D2A53128  38.480  17.469   6.764
 4117POPC   C3A53129  38.502  17.531   7.064
 4117POPC   C4A53130  38.432  17.487   7.364
 4117POPC   C1B53131  38.415  17.745   6.464
 4117POPC   C2B53132  38.384  17.772   6.764
 4117POPC   C3B53133  38.395  17.711   7.064
 4117POPC   C4B53134  38.366  17.714   7.364
 4118POPC   NC353135  42.359  22.916   5.564
 4118POPC   PO453136  42.365  22.954   5.864
 4118POPC   GL153137  42.342  22.894   6.164
 4118POPC   GL253138  42.445  23.073   6.164
 4118POPC   C1A53139  42.336  22.933   6.464
 4118POPC   D2A53140  42.331  22.964   6.764
 4118POPC   C3A53141  42.308  22.961   7.064
 4118POPC   C4A53142  42.318  22.982   7.364
 4118POPC   C1B53143  42.427  23.126   6.464
 4118POPC   C2B53144  42.494  23.176   6.764
 4118POPC   C3B53145  42.433  23.185   7.064
 4118POPC   C4B53146  42.433  23.112   7.364
 4119POPC   NC353147   8.213  25.237   5.564
 4119POPC   PO453148   8.153  25.290   5.864
 4119POPC   GL153149   8.245  25.289   6.164
 4119POPC   GL253150   8.048  25.230   6.164
 4119POPC   C1A53151   8.224  25.269   6.464
 4119POPC   D2A53152   8.236  25.217   6.764
 4119POPC   C3A53153   8.231  25.229   7.064
 4119POPC   C4A53154   8.244  25.234   7.364
 4119POPC   C1B53155   7.907  25.312   6.464
 4119POPC   C2B53156   7.904  25.334   6.764
 4119POPC   C3B53157   7.923  25.261   7.064
 4119POPC   C4B53158   7.946  25.275   7.364
 4120POPC   NC353159   5.859  15.927   5.564
 4120POPC   PO453160   5.889  15.938   5.864
 4120POPC   GL153161   5.887  15.940   6.164
 4120POPC   GL253162   5.911  16.052   6.164
 4120POPC   C1A53163   5.860  16.000   6.464
 4120POPC   D2A53164   5.874  15.940   6.764
 4120POPC   C3A53165   5.828  15.981   7.064
 4120POPC   C4A53166   5.902  15.908   7.364
 4120POPC   C1B53167   6.017  16.233   6.464
 4120POPC   C2B53168   5.976  16.222   6.764
 4120POPC   C3B53169   6.002  16.176   7.064
 4120POPC   C4B53170   5.971  16.183   7.364
 4121POPC   NC353171  39.201  39.186   5.564
 4121POPC   PO453172  39.255  39.205   5.864
 4121POPC   GL153173  39.181  39.181   6.164
 4121POPC   GL253174  39.294  39.089   6.164
 4121POPC   C1A53175  39.183  39.212   6.464
 4121POPC   D2A53176  39.268  39.215   6.764
 4121POPC   C3A53177  39.225  39.217   7.064
 4121POPC   C4A53178  39.187  39.262   7.364
 4121POPC   C1B53179  39.354  39.032   6.464
 4121POPC   C2B53180  39.301  39.037   6.764
 4121POPC   C3B53181  39.316  39.008   7.064
 4121POPC   C4B53182  39.354  39.014   7.364
 4122POPC   NC353183  38.464   0.397   5.564
 4122POPC   PO453184  38.425   0.425   5.864
 4122POPC   GL153185  38.456   0.419   6.164
 4122POPC   GL253186  38.584   0.394   6.164
 4122POPC   C1A53187  38.505   0.394   6.464
 4122POPC   D2A53188  38.405   0.444   6.764
 4122POPC   C3A53189  38.477   0.437   7.064
 4122POPC   C4A53190  38.482   0.390   7.364
 4122POPC   C1B53191  38.688   0.377   6.464
 4122POPC   C2B53192  38.673   0.351   6.764
 4122POPC   C3B53193  38.652   0.367   7.064
 4122POPC   C4B53194  38.700   0.333   7.364
 4123POPC   NC353195  13.632  30.709   5.564
 4123POPC   PO453196  13.607  30.665   5.864
 4123POPC   GL153197  13.599  30.721   6.164
 4123POPC   GL253198  13.584  30.548   6.164
 4123POPC   C1A53199  13.632  30.698   6.464
 4123POPC   D2A53200  13.631  30.725   6.764
 4123POPC   C3A53201  13.624  30.720   7.064
 4123POPC   C4A53202  13.591  30.736   7.364
 4123POPC   C1B53203  13.574  30.512   6.464
 4123POPC   C2B53204  13.500  30.421   6.764
 4123POPC   C3B53205  13.562  30.454   7.064
 4123POPC   C4B53206  13.540  30.447   7.364
 4124POPC   NC353207  39.240  42.354   5.564
 4124POPC   PO453208  39.185  42.329   5.864
 4124POPC   GL153209  39.206  42.333   6.164
 4124POPC   GL253210  39.298  42.243   6.164
 4124POPC   C1A53211  39.254  42.317   6.464
 4124POPC   D2A53212  39.270  42.307   6.764
 4124POPC   C3A53213  39.276  42.344   7.064
 4124POPC   C4A53214  39.277  42.300   7.364
 4124POPC   C1B53215  39.322  42.115   6.464
 4124POPC   C2B53216  39.406  42.142   6.764
 4124POPC   C3B53217  39.373  42.131   7.064
 4124POPC   C4B53218  39.385  42.128   7.364
 4125POPC   NC353219  26.848   8.236   5.564
 4125POPC   PO453220  26.852   8.172   5.864
 4125POPC   GL153221  26.824   8.238   6.164
 4125POPC   GL253222  26.752   8.135   6.164
 4125POPC   C1A53223  26.824   8.216   6.464
 4125POPC   D2A53224  26.791   8.229   6.764
 4125POPC   C3A53225  26.845   8.161   7.064
 4125POPC   C4A53226  26.785   8.154   7.364
 4125POPC   C1B53227  26.625   8.029   6.464
 4125POPC   C2B53228  26.623   8.062   6.764
 4125POPC   C3B53229  26.579   8.076   7.064
 4125POPC   C4B53230  26.620   8.008   7.364
 4126POPC   NC353231  18.297  24.482   5.564
 4126POPC   PO453232  18.234  24.526   5.864
 4126POPC   GL153233  18.330  24.456   6.164
 4126POPC   GL253234  18.190  24.575   6.164
 4126POPC   C1A53235  18.295  24.458   6.464
 4126POPC   D2A53236  18.261  24.495   6.764
 4126POPC   C3A53237  18.271  24.512   7.064
 4126POPC   C4A53238  18.308  24.511   7.364
 4126POPC   C1B53239  18.137  24.683   6.464
 4126POPC   C2B53240  18.093  24.687   6.764
 4126POPC   C3B53241  18.114  24.654   7.064
 4126POPC   C4B53242  18.169  24.696   7.364
 4127POPC   NC353243  32.204  36.891   5.564
 4127POPC   PO453244  32.230  36.855   5.864
 4127POPC   GL153245  32.278  36.952   6.164
 4127POPC   GL253246  32.226  36.996   6.164
 4127POPC   C1A53247  32.261  36.863   6.464
 4127POPC   D2A53248  32.228  36.856   6.764
 4127POPC   C3A53249  32.212  36.908   7.064
 4127POPC   C4A53250  32.257  36.864   7.364
 4127POPC   C1B53251  32.298  37.191   6.464
 4127POPC   C2B53252  32.302  37.169   6.764
 4127POPC   C3B53253  32.236  37.163   7.064
 4127POPC   C4B53254  32.290  37.171   7.364
 4128POPC   NC353255  40.799  14.435   5.564
 4128POPC   PO453256  40.790  14.397   5.864
 4128POPC   GL153257  40.770  14.385   6.164
 4128POPC   GL253258  40.832  14.291   6.164
 4128POPC   C1A53259  40.781  14.403   6.464
 4128POPC   D2A53260  40.786  14.374   6.764
 4128POPC   C3A53261  40.770  14.453   7.064
 4128POPC   C4A53262  40.734  14.359   7.364
 4128POPC   C1B53263  40.809  14.206   6.464
 4128POPC   C2B53264  40.887  14.117   6.764
 4128POPC   C3B53265  40.883  14.145   7.064
 4128POPC   C4B53266  40.816  14.122   7.364
 4129POPC   NC353267  23.671  22.134   5.564
 4129POPC   PO453268  23.737  22.138   5.864
 4129POPC   GL153269  23.679  22.195   6.164
 4129POPC   GL253270  23.857  22.061   6.164
 4129POPC   C1A53271  23.672  22.205   6.464
 4129POPC   D2A53272  23.733  22.167   6.764
 4129POPC   C3A53273  23.680  22.119   7.064
 4129POPC   C4A53274  23.676  22.167   7.364
 4129POPC   C1B53275  23.935  22.024   6.464
 4129POPC   C2B53276  23.905  21.984   6.764
 4129POPC   C3B53277  23.955  22.054   7.064
 4129POPC   C4B53278  23.929  22.057   7.364
 4130POPC   NC353279  35.385  37.721   5.564
 4130POPC   PO453280  35.361  37.688   5.864
 4130POPC   GL153281  35.384  37.670   6.164
 4130POPC   GL253282  35.275  37.837   6.164
 4130POPC   C1A53283  35.330  37.709   6.464
 4130POPC   D2A53284  35.385  37.712   6.764
 4130POPC   C3A53285  35.343  37.669   7.064
 4130POPC   C4A53286  35.327  37.715   7.364
 4130POPC   C1B53287  35.317  37.871   6.464
 4130POPC   C2B53288  35.255  37.869   6.764
 4130POPC   C3B53289  35.317  37.907   7.064
 4130POPC   C4B53290  35.300  37.921   7.364
 4131POPC   NC353291  25.309  40.811   5.564
 4131POPC   PO453292  25.255  40.826   5.864
 4131POPC   GL153293  25.307  40.825   6.164
 4131POPC   GL253294  25.168  40.853   6.164
 4131POPC   C1A53295  25.300  40.733   6.464
 4131POPC   D2A53296  25.306  40.781   6.764
 4131POPC   C3A53297  25.298  40.738   7.064
 4131POPC   C4A53298  25.314  40.776   7.364
 4131POPC   C1B53299  25.008  40.814   6.464
 4131POPC   C2B53300  25.029  40.781   6.764
 4131POPC   C3B53301  25.056  40.808   7.064
 4131POPC   C4B53302  24.975  40.862   7.364
 4132POPC   NC353303   2.804   3.582   5.564
 4132POPC   PO453304   2.771   3.500   5.864
 4132POPC   GL153305   2.813   3.494   6.164
 4132POPC   GL253306   2.626   3.606   6.164
 4132POPC   C1A53307   2.752   3.563   6.464
 4132POPC   D2A53308   2.799   3.587   6.764
 4132POPC   C3A53309   2.808   3.534   7.064
 4132POPC   C4A53310   2.771   3.578   7.364
 4132POPC   C1B53311   2.568   3.577   6.464
 4132POPC   C2B53312   2.542   3.646   6.764
 4132POPC   C3B53313   2.552   3.635   7.064
 4132POPC   C4B53314   2.543   3.582   7.364
 4133POPC   NC353315  19.839  15.145   5.564
 4133POPC   PO453316  19.835  15.164   5.864
 4133POPC   GL153317  19.828  15.145   6.164
 4133POPC   GL253318  19.708  15.162   6.164
 4133POPC   C1A53319  19.856  15.175   6.464
 4133POPC   D2A53320  19.859  15.140   6.764
 4133POPC   C3A53321  19.801  15.191   7.064
 4133POPC   C4A53322  19.830  15.201   7.364
 4133POPC   C1B53323  19.583  15.285   6.464
 4133POPC   C2B53324  19.622  15.267   6.764
 4133POPC   C3B53325  19.576  15.212   7.064
 4133POPC   C4B53326  19.633  15.274   7.364
 4134POPC   NC353327   9.723  21.349   5.564
 4134POPC   PO453328   9.715  21.364   5.864
 4134POPC   GL153329   9.723  21.381   6.164
 4134POPC   GL253330   9.694  21.504   6.164
 4134POPC   C1A53331   9.767  21.420   6.464
 4134POPC   D2A53332   9.703  21.434   6.764
 4134POPC   C3A53333   9.753  21.382   7.064
 4134POPC   C4A53334   9.704  21.364   7.364
 4134POPC   C1B53335   9.602  21.606   6.464
 4134POPC   C2B53336   9.608  21.597   6.764
 4134POPC   C3B53337   9.642  21.628   7.064
 4134POPC   C4B53338   9.597  21.584   7.364
 4135POPC   NC353339  20.654  38.453   5.564
 4135POPC   PO453340  20.651  38.414   5.864
 4135POPC   GL153341  20.591  38.430   6.164
 4135POPC   GL253342  20.605  38.286   6.164
 4135POPC   C1A53343  20.565  38.503   6.464
 4135POPC   D2A53344  20.600  38.488   6.764
 4135POPC   C3A53345  20.565  38.456   7.064
 4135POPC   C4A53346  20.612  38.406   7.364
 4135POPC   C1B53347  20.650  38.179   6.464
 4135POPC   C2B53348  20.721  38.164   6.764
 4135POPC   C3B53349  20.637  38.202   7.064
 4135POPC   C4B53350  20.657  38.181   7.364
 4136POPC   NC353351  25.216   1.959   5.564
 4136POPC   PO453352  25.251   1.953   5.864
 4136POPC   GL153353  25.306   2.032   6.164
 4136POPC   GL253354  25.323   2.086   6.164
 4136POPC   C1A53355  25.256   2.015   6.464
 4136POPC   D2A53356  25.285   1.993   6.764
 4136POPC   C3A53357  25.280   1.968   7.064
 4136POPC   C4A53358  25.254   1.946   7.364
 4136POPC   C1B53359  25.453   2.159   6.464
 4136POPC   C2B53360  25.440   2.199   6.764
 4136POPC   C3B53361  25.464   2.212   7.064
 4136POPC   C4B53362  25.457   2.182   7.364
 4137POPC   NC353363  30.690  34.537   5.564
 4137POPC   PO453364  30.740  34.581   5.864
 4137POPC   GL153365  30.744  34.620   6.164
 4137POPC   GL253366  30.664  34.477   6.164
 4137POPC   C1A53367  30.652  34.547   6.464
 4137POPC   D2A53368  30.744  34.541   6.764
 4137POPC   C3A53369  30.691  34.578   7.064
 4137POPC   C4A53370  30.743  34.532   7.364
 4137POPC   C1B53371  30.674  34.344   6.464
 4137POPC   C2B53372  30.676  34.332   6.764
 4137POPC   C3B53373  30.704  34.373   7.064
 4137POPC   C4B53374  30.669  34.306   7.364
 4138POPC   NC353375   1.166  42.325   5.564
 4138POPC   PO453376   1.249  42.287   5.864
 4138POPC   GL153377   1.190  42.333   6.164
 4138POPC   GL253378   1.364  42.369   6.164
 4138POPC   C1A53379   1.167  42.324   6.464
 4138POPC   D2A53380   1.228  42.325   6.764
 4138POPC   C3A53381   1.249  42.313   7.064
 4138POPC   C4A53382   1.180  42.290   7.364
 4138POPC   C1B53383   1.424  42.466   6.464
 4138POPC   C2B53384   1.463  42.424   6.764
 4138POPC   C3B53385   1.485  42.459   7.064
 4138POPC   C4B53386   1.439  42.472   7.364
 4139POPC   NC353387   9.772  36.909   5.564
 4139POPC   PO453388   9.780  36.869   5.864
 4139POPC   GL153389   9.734  36.859   6.164
 4139POPC   GL253390   9.740  36.753   6.164
 4139POPC   C1A53391   9.793  36.881   6.464
 4139POPC   D2A53392   9.769  36.871   6.764
 4139POPC   C3A53393   9.794  36.888   7.064
 4139POPC   C4A53394   9.719  36.906   7.364
 4139POPC   C1B53395   9.773  36.691   6.464
 4139POPC   C2B53396   9.791  36.685   6.764
 4139POPC   C3B53397   9.840  36.692   7.064
 4139POPC   C4B53398   9.798  36.657   7.364
 4140POPC   NC353399  29.938  43.877   5.564
 4140POPC   PO453400  29.906  43.901   5.864
 4140POPC   GL153401  29.895  43.839   6.164
 4140POPC   GL253402  29.807  43.947   6.164
 4140POPC   C1A53403  29.883  43.840   6.464
 4140POPC   D2A53404  29.897  43.923   6.764
 4140POPC   C3A53405  29.944  43.920   7.064
 4140POPC   C4A53406  29.922  43.862   7.364
 4140POPC   C1B53407  29.733  44.005   6.464
 4140POPC   C2B53408  29.782  44.049   6.764
 4140POPC   C3B53409  29.720  44.089   7.064
 4140POPC   C4B53410  29.741  44.018   7.364
 4141POPC   NC353411   8.193   8.196   5.564
 4141POPC   PO453412   8.168   8.150   5.864
 4141POPC   GL153413   8.201   8.232   6.164
 4141POPC   GL253414   8.237   8.123   6.164
 4141POPC   C1A53415   8.180   8.234   6.464
 4141POPC   D2A53416   8.210   8.236   6.764
 4141POPC   C3A53417   8.212   8.229   7.064
 4141POPC   C4A53418   8.218   8.201   7.364
 4141POPC   C1B53419   8.256   7.990   6.464
 4141POPC   C2B53420   8.278   8.003   6.764
 4141POPC   C3B53421   8.283   8.013   7.064
 4141POPC   C4B53422   8.283   7.961   7.364
 4142POPC   NC353423  10.501  40.763   5.564
 4142POPC   PO453424  10.552  40.763   5.864
 4142POPC   GL153425  10.488  40.807   6.164
 4142POPC   GL253426  10.404  40.825   6.164
 4142POPC   C1A53427  10.513  40.792   6.464
 4142POPC   D2A53428  10.475  40.798   6.764
 4142POPC   C3A53429  10.532  40.823   7.064
 4142POPC   C4A53430  10.499  40.807   7.364
 4142POPC   C1B53431  10.293  40.868   6.464
 4142POPC   C2B53432  10.293  40.841   6.764
 4142POPC   C3B53433  10.272  40.835   7.064
 4142POPC   C4B53434  10.269  40.857   7.364
 4143POPC   NC353435  43.889  19.835   5.564
 4143POPC   PO453436  43.900  19.808   5.864
 4143POPC   GL153437  43.893  19.876   6.164
 4143POPC   GL253438  43.791  19.949   6.164
 4143POPC   C1A53439  43.894  19.883   6.464
 4143POPC   D2A53440  43.885  19.801   6.764
 4143POPC   C3A53441  43.869  19.881   7.064
 4143POPC   C4A53442  43.901  19.879   7.364
 4143POPC   C1B53443  43.705  20.004   6.464
 4143POPC   C2B53444  43.748  20.014   6.764
 4143POPC   C3B53445  43.676  20.022   7.064
 4143POPC   C4B53446  43.668  19.983   7.364
 4144POPC   NC353447  18.316  37.727   5.564
 4144POPC   PO453448  18.297  37.660   5.864
 4144POPC   GL153449  18.324  37.670   6.164
 4144POPC   GL253450  18.352  37.570   6.164
 4144POPC   C1A53451  18.320  37.680   6.464
 4144POPC   D2A53452  18.323  37.713   6.764
 4144POPC   C3A53453  18.305  37.676   7.064
 4144POPC   C4A53454  18.318  37.715   7.364
 4144POPC   C1B53455  18.448  37.529   6.464
 4144POPC   C2B53456  18.443  37.550   6.764
 4144POPC   C3B53457  18.496  37.522   7.064
 4144POPC   C4B53458  18.531  37.542   7.364
 4145POPC   NC353459  15.987  31.493   5.564
 4145POPC   PO453460  16.004  31.480   5.864
 4145POPC   GL153461  15.981  31.493   6.164
 4145POPC   GL253462  15.836  31.468   6.164
 4145POPC   C1A53463  15.978  31.445   6.464
 4145POPC   D2A53464  15.978  31.519   6.764
 4145POPC   C3A53465  15.930  31.465   7.064
 4145POPC   C4A53466  15.911  31.438   7.364
 4145POPC   C1B53467  15.688  31.580   6.464
 4145POPC   C2B53468  15.721  31.605   6.764
 4145POPC   C3B53469  15.709  31.508   7.064
 4145POPC   C4B53470  15.701  31.524   7.364
 4146POPC   NC353471  30.705   6.597   5.564
 4146POPC   PO453472  30.701   6.693   5.864
 4146POPC   GL153473  30.747   6.670   6.164
 4146POPC   GL253474  30.777   6.700   6.164
 4146POPC   C1A53475  30.709   6.619   6.464
 4146POPC   D2A53476  30.738   6.654   6.764
 4146POPC   C3A53477  30.703   6.668   7.064
 4146POPC   C4A53478  30.700   6.667   7.364
 4146POPC   C1B53479  30.978   6.755   6.464
 4146POPC   C2B53480  30.964   6.747   6.764
 4146POPC   C3B53481  30.917   6.712   7.064
 4146POPC   C4B53482  30.915   6.696   7.364
 4147POPC   NC353483  22.172  32.991   5.564
 4147POPC   PO453484  22.194  32.987   5.864
 4147POPC   GL153485  22.197  32.988   6.164
 4147POPC   GL253486  22.286  32.950   6.164
 4147POPC   C1A53487  22.144  33.029   6.464
 4147POPC   D2A53488  22.153  33.040   6.764
 4147POPC   C3A53489  22.165  33.031   7.064
 4147POPC   C4A53490  22.180  32.976   7.364
 4147POPC   C1B53491  22.420  32.880   6.464
 4147POPC   C2B53492  22.411  32.914   6.764
 4147POPC   C3B53493  22.392  32.872   7.064
 4147POPC   C4B53494  22.391  32.871   7.364
 4148POPC   NC353495  43.922  10.542   5.564
 4148POPC   PO453496  43.857  10.502   5.864
 4148POPC   GL153497  43.920  10.496   6.164
 4148POPC   GL253498  43.726  10.571   6.164
 4148POPC   C1A53499  43.900  10.478   6.464
 4148POPC   D2A53500  43.879  10.561   6.764
 4148POPC   C3A53501  43.923  10.500   7.064
 4148POPC   C4A53502  43.861  10.542   7.364
 4148POPC   C1B53503  43.627  10.587   6.464
 4148POPC   C2B53504  43.695  10.634   6.764
 4148POPC   C3B53505  43.634  10.565   7.064
 4148POPC   C4B53506  43.623  10.559   7.364
 4149POPC   NC353507  15.996  24.510   5.564
 4149POPC   PO453508  15.929  24.513   5.864
 4149POPC   GL153509  15.967  24.487   6.164
 4149POPC   GL253510  15.796  24.476   6.164
 4149POPC   C1A53511  15.968  24.470   6.464
 4149POPC   D2A53512  15.955  24.475   6.764
 4149POPC   C3A53513  15.981  24.509   7.064
 4149POPC   C4A53514  15.987  24.505   7.364
 4149POPC   C1B53515  15.720  24.402   6.464
 4149POPC   C2B53516  15.756  24.359   6.764
 4149POPC   C3B53517  15.759  24.382   7.064
 4149POPC   C4B53518  15.688  24.368   7.364
 4150POPC   NC353519  13.588  32.292   5.564
 4150POPC   PO453520  13.662  32.247   5.864
 4150POPC   GL153521  13.616  32.214   6.164
 4150POPC   GL253522  13.665  32.121   6.164
 4150POPC   C1A53523  13.584  32.226   6.464
 4150POPC   D2A53524  13.675  32.233   6.764
 4150POPC   C3A53525  13.652  32.244   7.064
 4150POPC   C4A53526  13.642  32.231   7.364
 4150POPC   C1B53527  13.658  32.006   6.464
 4150POPC   C2B53528  13.643  31.988   6.764
 4150POPC   C3B53529  13.684  32.012   7.064
 4150POPC   C4B53530  13.660  31.976   7.364
 4151POPC   NC353531  26.845  26.090   5.564
 4151POPC   PO453532  26.783  26.070   5.864
 4151POPC   GL153533  26.801  26.008   6.164
 4151POPC   GL253534  26.914  26.144   6.164
 4151POPC   C1A53535  26.840  26.006   6.464
 4151POPC   D2A53536  26.851  26.010   6.764
 4151POPC   C3A53537  26.770  26.068   7.064
 4151POPC   C4A53538  26.827  26.085   7.364
 4151POPC   C1B53539  26.996  26.212   6.464
 4151POPC   C2B53540  27.057  26.187   6.764
 4151POPC   C3B53541  27.015  26.165   7.064
 4151POPC   C4B53542  27.029  26.244   7.364
 4152POPC   NC353543   4.283   1.980   5.564
 4152POPC   PO453544   4.339   2.028   5.864
 4152POPC   GL153545   4.348   2.021   6.164
 4152POPC   GL253546   4.391   1.932   6.164
 4152POPC   C1A53547   4.353   2.027   6.464
 4152POPC   D2A53548   4.314   1.980   6.764
 4152POPC   C3A53549   4.361   1.952   7.064
 4152POPC   C4A53550   4.275   1.943   7.364
 4152POPC   C1B53551   4.530   1.896   6.464
 4152POPC   C2B53552   4.555   1.915   6.764
 4152POPC   C3B53553   4.552   1.947   7.064
 4152POPC   C4B53554   4.599   1.979   7.364
 4153POPC   NC353555  12.116  44.694   5.564
 4153POPC   PO453556  12.118  44.691   5.864
 4153POPC   GL153557  12.040  44.655   6.164
 4153POPC   GL253558  12.178  44.552   6.164
 4153POPC   C1A53559  12.124  44.690   6.464
 4153POPC   D2A53560  12.123  44.620   6.764
 4153POPC   C3A53561  12.059  44.671   7.064
 4153POPC   C4A53562  12.044  44.613   7.364
 4153POPC   C1B53563  12.320  44.545   6.464
 4153POPC   C2B53564  12.272  44.522   6.764
 4153POPC   C3B53565  12.249  44.550   7.064
 4153POPC   C4B53566  12.269  44.494   7.364
 4154POPC   NC353567  18.264  11.256   5.564
 4154POPC   PO453568  18.274  11.346   5.864
 4154POPC   GL153569  18.256  11.288   6.164
 4154POPC   GL253570  18.347  11.178   6.164
 4154POPC   C1A53571  18.253  11.277   6.464
 4154POPC   D2A53572  18.262  11.323   6.764
 4154POPC   C3A53573  18.305  11.311   7.064
 4154POPC   C4A53574  18.288  11.277   7.364
 4154POPC   C1B53575  18.389  11.049   6.464
 4154POPC   C2B53576  18.365  11.023   6.764
 4154POPC   C3B53577  18.365  11.058   7.064
 4154POPC   C4B53578  18.301  11.072   7.364
 4155POPC   NC353579  34.623   5.125   5.564
 4155POPC   PO453580  34.560   5.065   5.864
 4155POPC   GL153581  34.581   5.076   6.164
 4155POPC   GL253582  34.625   5.030   6.164
 4155POPC   C1A53583  34.546   5.106   6.464
 4155POPC   D2A53584  34.600   5.058   6.764
 4155POPC   C3A53585  34.552   5.083   7.064
 4155POPC   C4A53586  34.556   5.075   7.364
 4155POPC   C1B53587  34.680   4.849   6.464
 4155POPC   C2B53588  34.679   4.875   6.764
 4155POPC   C3B53589  34.768   4.853   7.064
 4155POPC   C4B53590  34.777   4.902   7.364
 4156POPC   NC353591  25.293  21.346   5.564
 4156POPC   PO453592  25.309  21.371   5.864
 4156POPC   GL153593  25.294  21.426   6.164
 4156POPC   GL253594  25.145  21.378   6.164
 4156POPC   C1A53595  25.248  21.346   6.464
 4156POPC   D2A53596  25.248  21.378   6.764
 4156POPC   C3A53597  25.223  21.356   7.064
 4156POPC   C4A53598  25.242  21.432   7.364
 4156POPC   C1B53599  25.035  21.331   6.464
 4156POPC   C2B53600  25.053  21.308   6.764
 4156POPC   C3B53601  25.053  21.245   7.064
 4156POPC   C4B53602  25.024  21.283   7.364
 4157POPC   NC353603  12.884  26.770   5.564
 4157POPC   PO453604  12.828  26.789   5.864
 4157POPC   GL153605  12.821  26.859   6.164
 4157POPC   GL253606  12.951  26.883   6.164
 4157POPC   C1A53607  12.819  26.793   6.464
 4157POPC   D2A53608  12.821  26.773   6.764
 4157POPC   C3A53609  12.828  26.797   7.064
 4157POPC   C4A53610  12.900  26.852   7.364
 4157POPC   C1B53611  13.078  26.928   6.464
 4157POPC   C2B53612  13.055  27.007   6.764
 4157POPC   C3B53613  13.014  26.985   7.064
 4157POPC   C4B53614  13.038  26.991   7.364
 4158POPC   NC353615   7.431  24.511   5.564
 4158POPC   PO453616   7.391  24.511   5.864
 4158POPC   GL153617   7.422  24.507   6.164
 4158POPC   GL253618   7.566  24.492   6.164
 4158POPC   C1A53619   7.411  24.536   6.464
 4158POPC   D2A53620   7.469  24.457   6.764
 4158POPC   C3A53621   7.458  24.503   7.064
 4158POPC   C4A53622   7.451  24.485   7.364
 4158POPC   C1B53623   7.649  24.467   6.464
 4158POPC   C2B53624   7.659  24.457   6.764
 4158POPC   C3B53625   7.675  24.478   7.064
 4158POPC   C4B53626   7.677  24.459   7.364
 4159POPC   NC353627   4.298   6.668   5.564
 4159POPC   PO453628   4.279   6.624   5.864
 4159POPC   GL153629   4.341   6.597   6.164
 4159POPC   GL253630   4.239   6.557   6.164
 4159POPC   C1A53631   4.345   6.689   6.464
 4159POPC   D2A53632   4.286   6.656   6.764
 4159POPC   C3A53633   4.364   6.671   7.064
 4159POPC   C4A53634   4.301   6.667   7.364
 4159POPC   C1B53635   4.217   6.426   6.464
 4159POPC   C2B53636   4.195   6.405   6.764
 4159POPC   C3B53637   4.132   6.486   7.064
 4159POPC   C4B53638   4.210   6.426   7.364
 4160POPC   NC353639  39.269  43.849   5.564
 4160POPC   PO453640  39.277  43.875   5.864
 4160POPC   GL153641  39.186  43.847   6.164
 4160POPC   GL253642  39.262  43.938   6.164
 4160POPC   C1A53643  39.255  43.891   6.464
 4160POPC   D2A53644  39.243  43.851   6.764
 4160POPC   C3A53645  39.259  43.845   7.064
 4160POPC   C4A53646  39.205  43.837   7.364
 4160POPC   C1B53647  39.412  44.091   6.464
 4160POPC   C2B53648  39.426  44.087   6.764
 4160POPC   C3B53649  39.394  44.087   7.064
 4160POPC   C4B53650  39.395  44.060   7.364
 4161POPC   NC353651  10.476  24.487   5.564
 4161POPC   PO453652  10.566  24.460   5.864
 4161POPC   GL153653  10.561  24.494   6.164
 4161POPC   GL253654  10.365  24.481   6.164
 4161POPC   C1A53655  10.532  24.519   6.464
 4161POPC   D2A53656  10.553  24.488   6.764
 4161POPC   C3A53657  10.566  24.465   7.064
 4161POPC   C4A53658  10.501  24.494   7.364
 4161POPC   C1B53659  10.316  24.425   6.464
 4161POPC   C2B53660  10.294  24.418   6.764
 4161POPC   C3B53661  10.262  24.381   7.064
 4161POPC   C4B53662  10.318  24.434   7.364
 4162POPC   NC353663  22.937  40.777   5.564
 4162POPC   PO453664  22.983  40.797   5.864
 4162POPC   GL153665  22.903  40.815   6.164
 4162POPC   GL253666  23.034  40.733   6.164
 4162POPC   C1A53667  22.935  40.792   6.464
 4162POPC   D2A53668  22.982  40.734   6.764
 4162POPC   C3A53669  22.914  40.767   7.064
 4162POPC   C4A53670  22.980  40.760   7.364
 4162POPC   C1B53671  23.217  40.675   6.464
 4162POPC   C2B53672  23.148  40.723   6.764
 4162POPC   C3B53673  23.156  40.686   7.064
 4162POPC   C4B53674  23.171  40.719   7.364
 4163POPC   NC353675  20.572   3.522   5.564
 4163POPC   PO453676  20.625   3.492   5.864
 4163POPC   GL153677  20.588   3.579   6.164
 4163POPC   GL253678  20.547   3.430   6.164
 4163POPC   C1A53679  20.623   3.582   6.464
 4163POPC   D2A53680  20.622   3.506   6.764
 4163POPC   C3A53681  20.624   3.535   7.064
 4163POPC   C4A53682  20.637   3.587   7.364
 4163POPC   C1B53683  20.365   3.371   6.464
 4163POPC   C2B53684  20.376   3.394   6.764
 4163POPC   C3B53685  20.425   3.450   7.064
 4163POPC   C4B53686  20.411   3.376   7.364
 4164POPC   NC353687   5.128  12.047   5.564
 4164POPC   PO453688   5.141  12.029   5.864
 4164POPC   GL153689   5.054  12.031   6.164
 4164POPC   GL253690   5.244  12.140   6.164
 4164POPC   C1A53691   5.082  12.092   6.464
 4164POPC   D2A53692   5.045  12.108   6.764
 4164POPC   C3A53693   5.080  12.074   7.064
 4164POPC   C4A53694   5.101  12.086   7.364
 4164POPC   C1B53695   5.340  12.134   6.464
 4164POPC   C2B53696   5.315  12.151   6.764
 4164POPC   C3B53697   5.376  12.103   7.064
 4164POPC   C4B53698   5.335  12.151   7.364
 4165POPC   NC353699   8.998  15.921   5.564
 4165POPC   PO453700   8.932  15.921   5.864
 4165POPC   GL153701   8.937  15.962   6.164
 4165POPC   GL253702   8.862  15.951   6.164
 4165POPC   C1A53703   8.961  15.996   6.464
 4165POPC   D2A53704   8.999  15.933   6.764
 4165POPC   C3A53705   8.999  15.928   7.064
 4165POPC   C4A53706   8.965  15.956   7.364
 4165POPC   C1B53707   8.736  15.938   6.464
 4165POPC   C2B53708   8.752  15.965   6.764
 4165POPC   C3B53709   8.730  15.982   7.064
 4165POPC   C4B53710   8.703  16.006   7.364
 4166POPC   NC353711  16.682   5.820   5.564
 4166POPC   PO453712  16.711   5.827   5.864
 4166POPC   GL153713  16.759   5.915   6.164
 4166POPC   GL253714  16.592   5.929   6.164
 4166POPC   C1A53715  16.749   5.907   6.464
 4166POPC   D2A53716  16.768   5.846   6.764
 4166POPC   C3A53717  16.701   5.871   7.064
 4166POPC   C4A53718  16.722   5.900   7.364
 4166POPC   C1B53719  16.524   5.950   6.464
 4166POPC   C2B53720  16.478   5.945   6.764
 4166POPC   C3B53721  16.521   5.992   7.064
 4166POPC   C4B53722  16.480   5.966   7.364
 4167POPC   NC353723  43.121  26.841   5.564
 4167POPC   PO453724  43.150  26.814   5.864
 4167POPC   GL153725  43.085  26.864   6.164
 4167POPC   GL253726  43.194  26.883   6.164
 4167POPC   C1A53727  43.156  26.808   6.464
 4167POPC   D2A53728  43.082  26.825   6.764
 4167POPC   C3A53729  43.122  26.801   7.064
 4167POPC   C4A53730  43.155  26.845   7.364
 4167POPC   C1B53731  43.300  26.946   6.464
 4167POPC   C2B53732  43.328  26.941   6.764
 4167POPC   C3B53733  43.302  26.965   7.064
 4167POPC   C4B53734  43.290  26.972   7.364
 4168POPC   NC353735  26.858  28.359   5.564
 4168POPC   PO453736  26.784  28.360   5.864
 4168POPC   GL153737  26.850  28.404   6.164
 4168POPC   GL253738  26.716  28.422   6.164
 4168POPC   C1A53739  26.785  28.364   6.464
 4168POPC   D2A53740  26.774  28.320   6.764
 4168POPC   C3A53741  26.848  28.325   7.064
 4168POPC   C4A53742  26.835  28.342   7.364
 4168POPC   C1B53743  26.660  28.601   6.464
 4168POPC   C2B53744  26.660  28.512   6.764
 4168POPC   C3B53745  26.627  28.545   7.064
 4168POPC   C4B53746  26.598  28.572   7.364
 4169POPC   NC353747  44.703   1.198   5.564
 4169POPC   PO453748  44.665   1.252   5.864
 4169POPC   GL153749  44.638   1.186   6.164
 4169POPC   GL253750  44.669   1.049   6.164
 4169POPC   C1A53751  44.693   1.256   6.464
 4169POPC   D2A53752  44.676   1.196   6.764
 4169POPC   C3A53753  44.654   1.226   7.064
 4169POPC   C4A53754  44.620   1.227   7.364
 4169POPC   C1B53755  44.617   1.002   6.464
 4169POPC   C2B53756  44.663   1.006   6.764
 4169POPC   C3B53757  44.673   1.004   7.064
 4169POPC   C4B53758  44.694   1.006   7.364
 4170POPC   NC353759  24.536   7.391   5.564
 4170POPC   PO453760  24.464   7.432   5.864
 4170POPC   GL153761  24.535   7.448   6.164
 4170POPC   GL253762  24.421   7.380   6.164
 4170POPC   C1A53763  24.483   7.431   6.464
 4170POPC   D2A53764  24.514   7.380   6.764
 4170POPC   C3A53765  24.539   7.428   7.064
 4170POPC   C4A53766  24.519   7.428   7.364
 4170POPC   C1B53767  24.264   7.365   6.464
 4170POPC   C2B53768  24.282   7.349   6.764
 4170POPC   C3B53769  24.204   7.302   7.064
 4170POPC   C4B53770  24.283   7.374   7.364
 4171POPC   NC353771   2.750  28.368   5.564
 4171POPC   PO453772   2.786  28.332   5.864
 4171POPC   GL153773   2.720  28.401   6.164
 4171POPC   GL253774   2.676  28.228   6.164
 4171POPC   C1A53775   2.802  28.345   6.464
 4171POPC   D2A53776   2.753  28.391   6.764
 4171POPC   C3A53777   2.752  28.405   7.064
 4171POPC   C4A53778   2.733  28.419   7.364
 4171POPC   C1B53779   2.642  28.159   6.464
 4171POPC   C2B53780   2.579  28.129   6.764
 4171POPC   C3B53781   2.601  28.117   7.064
 4171POPC   C4B53782   2.663  28.168   7.364
 4172POPC   NC353783  40.764  40.771   5.564
 4172POPC   PO453784  40.787  40.754   5.864
 4172POPC   GL153785  40.762  40.733   6.164
 4172POPC   GL253786  40.809  40.860   6.164
 4172POPC   C1A53787  40.829  40.798   6.464
 4172POPC   D2A53788  40.823  40.821   6.764
 4172POPC   C3A53789  40.830  40.814   7.064
 4172POPC   C4A53790  40.811  40.779   7.364
 4172POPC   C1B53791  40.793  41.027   6.464
 4172POPC   C2B53792  40.875  41.026   6.764
 4172POPC   C3B53793  40.802  41.063   7.064
 4172POPC   C4B53794  40.795  41.033   7.364
 4173POPC   NC353795  23.743  35.342   5.564
 4173POPC   PO453796  23.715  35.304   5.864
 4173POPC   GL153797  23.678  35.311   6.164
 4173POPC   GL253798  23.791  35.398   6.164
 4173POPC   C1A53799  23.750  35.359   6.464
 4173POPC   D2A53800  23.734  35.339   6.764
 4173POPC   C3A53801  23.666  35.374   7.064
 4173POPC   C4A53802  23.742  35.365   7.364
 4173POPC   C1B53803  23.899  35.564   6.464
 4173POPC   C2B53804  23.862  35.509   6.764
 4173POPC   C3B53805  23.869  35.566   7.064
 4173POPC   C4B53806  23.928  35.546   7.364
 4174POPC   NC353807  19.097   0.460   5.564
 4174POPC   PO453808  19.045   0.396   5.864
 4174POPC   GL153809  19.058   0.400   6.164
 4174POPC   GL253810  18.951   0.407   6.164
 4174POPC   C1A53811  19.104   0.470   6.464
 4174POPC   D2A53812  19.062   0.407   6.764
 4174POPC   C3A53813  19.025   0.432   7.064
 4174POPC   C4A53814  19.015   0.454   7.364
 4174POPC   C1B53815  18.831   0.333   6.464
 4174POPC   C2B53816  18.823   0.373   6.764
 4174POPC   C3B53817  18.805   0.335   7.064
 4174POPC   C4B53818  18.841   0.354   7.364
 4175POPC   NC353819   4.351  23.762   5.564
 4175POPC   PO453820   4.343  23.707   5.864
 4175POPC   GL153821   4.332  23.692   6.164
 4175POPC   GL253822   4.363  23.849   6.164
 4175POPC   C1A53823   4.279  23.726   6.464
 4175POPC   D2A53824   4.325  23.737   6.764
 4175POPC   C3A53825   4.323  23.744   7.064
 4175POPC   C4A53826   4.360  23.710   7.364
 4175POPC   C1B53827   4.302  23.972   6.464
 4175POPC   C2B53828   4.353  23.926   6.764
 4175POPC   C3B53829   4.375  23.918   7.064
 4175POPC   C4B53830   4.322  23.959   7.364
 4176POPC   NC353831  43.859  41.578   5.564
 4176POPC   PO453832  43.927  41.546   5.864
 4176POPC   GL153833  43.850  41.569   6.164
 4176POPC   GL253834  43.827  41.616   6.164
 4176POPC   C1A53835  43.854  41.559   6.464
 4176POPC   D2A53836  43.868  41.532   6.764
 4176POPC   C3A53837  43.905  41.593   7.064
 4176POPC   C4A53838  43.915  41.579   7.364
 4176POPC   C1B53839  43.718  41.785   6.464
 4176POPC   C2B53840  43.761  41.758   6.764
 4176POPC   C3B53841  43.680  41.732   7.064
 4176POPC   C4B53842  43.695  41.747   7.364
 4177POPC   NC353843   1.224  10.532   5.564
 4177POPC   PO453844   1.177  10.524   5.864
 4177POPC   GL153845   1.207  10.520   6.164
 4177POPC   GL253846   1.287  10.604   6.164
 4177POPC   C1A53847   1.185  10.482   6.464
 4177POPC   D2A53848   1.188  10.566   6.764
 4177POPC   C3A53849   1.207  10.562   7.064
 4177POPC   C4A53850   1.241  10.508   7.364
 4177POPC   C1B53851   1.314  10.736   6.464
 4177POPC   C2B53852   1.308  10.787   6.764
 4177POPC   C3B53853   1.361  10.692   7.064
 4177POPC   C4B53854   1.290  10.721   7.364
 4178POPC   NC353855  13.661  11.284   5.564
 4178POPC   PO453856  13.642  11.301   5.864
 4178POPC   GL153857  13.634  11.318   6.164
 4178POPC   GL253858  13.523  11.185   6.164
 4178POPC   C1A53859  13.653  11.308   6.464
 4178POPC   D2A53860  13.605  11.258   6.764
 4178POPC   C3A53861  13.593  11.281   7.064
 4178POPC   C4A53862  13.615  11.295   7.364
 4178POPC   C1B53863  13.470  11.189   6.464
 4178POPC   C2B53864  13.453  11.167   6.764
 4178POPC   C3B53865  13.474  11.155   7.064
 4178POPC   C4B53866  13.446  11.127   7.364
 4179POPC   NC353867  42.338  25.249   5.564
 4179POPC   PO453868  42.291  25.264   5.864
 4179POPC   GL153869  42.346  25.288   6.164
 4179POPC   GL253870  42.480  25.248   6.164
 4179POPC   C1A53871  42.375  25.305   6.464
 4179POPC   D2A53872  42.296  25.232   6.764
 4179POPC   C3A53873  42.293  25.307   7.064
 4179POPC   C4A53874  42.357  25.281   7.364
 4179POPC   C1B53875  42.564  25.250   6.464
 4179POPC   C2B53876  42.551  25.248   6.764
 4179POPC   C3B53877  42.567  25.215   7.064
 4179POPC   C4B53878  42.602  25.165   7.364
 4180POPC   NC353879   3.555   5.130   5.564
 4180POPC   PO453880   3.532   5.112   5.864
 4180POPC   GL153881   3.558   5.079   6.164
 4180POPC   GL253882   3.618   4.994   6.164
 4180POPC   C1A53883   3.536   5.110   6.464
 4180POPC   D2A53884   3.585   5.083   6.764
 4180POPC   C3A53885   3.496   5.134   7.064
 4180POPC   C4A53886   3.529   5.133   7.364
 4180POPC   C1B53887   3.725   4.962   6.464
 4180POPC   C2B53888   3.772   4.950   6.764
 4180POPC   C3B53889   3.695   4.911   7.064
 4180POPC   C4B53890   3.789   4.914   7.364
 4181POPC   NC353891  30.679  27.553   5.564
 4181POPC   PO453892  30.681  27.627   5.864
 4181POPC   GL153893  30.730  27.593   6.164
 4181POPC   GL253894  30.830  27.536   6.164
 4181POPC   C1A53895  30.737  27.570   6.464
 4181POPC   D2A53896  30.660  27.598   6.764
 4181POPC   C3A53897  30.669  27.622   7.064
 4181POPC   C4A53898  30.648  27.630   7.364
 4181POPC   C1B53899  30.921  27.514   6.464
 4181POPC   C2B53900  30.899  27.542   6.764
 4181POPC   C3B53901  30.892  27.578   7.064
 4181POPC   C4B53902  30.964  27.560   7.364
 4182POPC   NC353903  12.065  16.775   5.564
 4182POPC   PO453904  12.117  16.767   5.864
 4182POPC   GL153905  12.067  16.694   6.164
 4182POPC   GL253906  12.024  16.565   6.164
 4182POPC   C1A53907  12.091  16.731   6.464
 4182POPC   D2A53908  12.028  16.692   6.764
 4182POPC   C3A53909  12.116  16.717   7.064
 4182POPC   C4A53910  12.033  16.772   7.364
 4182POPC   C1B53911  11.989  16.506   6.464
 4182POPC   C2B53912  12.043  16.459   6.764
 4182POPC   C3B53913  12.005  16.467   7.064
 4182POPC   C4B53914  12.076  16.498   7.364
 4183POPC   NC353915  30.667   4.339   5.564
 4183POPC   PO453916  30.689   4.306   5.864
 4183POPC   GL153917  30.663   4.269   6.164
 4183POPC   GL253918  30.806   4.274   6.164
 4183POPC   C1A53919  30.709   4.350   6.464
 4183POPC   D2A53920  30.727   4.274   6.764
 4183POPC   C3A53921  30.704   4.353   7.064
 4183POPC   C4A53922  30.735   4.357   7.364
 4183POPC   C1B53923  30.928   4.147   6.464
 4183POPC   C2B53924  30.925   4.224   6.764
 4183POPC   C3B53925  30.932   4.204   7.064
 4183POPC   C4B53926  30.955   4.240   7.364
 4184POPC   NC353927  12.099  29.156   5.564
 4184POPC   PO453928  12.107  29.132   5.864
 4184POPC   GL153929  12.043  29.193   6.164
 4184POPC   GL253930  12.053  29.276   6.164
 4184POPC   C1A53931  12.124  29.117   6.464
 4184POPC   D2A53932  12.053  29.125   6.764
 4184POPC   C3A53933  12.110  29.183   7.064
 4184POPC   C4A53934  12.077  29.192   7.364
 4184POPC   C1B53935  11.968  29.410   6.464
 4184POPC   C2B53936  11.982  29.397   6.764
 4184POPC   C3B53937  11.929  29.411   7.064
 4184POPC   C4B53938  11.971  29.402   7.364
 4185POPC   NC353939   3.497  20.608   5.564
 4185POPC   PO453940   3.542  20.584   5.864
 4185POPC   GL153941   3.510  20.611   6.164
 4185POPC   GL253942   3.532  20.511   6.164
 4185POPC   C1A53943   3.556  20.598   6.464
 4185POPC   D2A53944   3.548  20.578   6.764
 4185POPC   C3A53945   3.572  20.630   7.064
 4185POPC   C4A53946   3.540  20.626   7.364
 4185POPC   C1B53947   3.455  20.344   6.464
 4185POPC   C2B53948   3.507  20.379   6.764
 4185POPC   C3B53949   3.507  20.325   7.064
 4185POPC   C4B53950   3.454  20.371   7.364
 4186POPC   NC353951  16.690  23.725   5.564
 4186POPC   PO453952  16.716  23.696   5.864
 4186POPC   GL153953  16.741  23.760   6.164
 4186POPC   GL253954  16.642  23.626   6.164
 4186POPC   C1A53955  16.684  23.672   6.464
 4186POPC   D2A53956  16.705  23.724   6.764
 4186POPC   C3A53957  16.756  23.677   7.064
 4186POPC   C4A53958  16.708  23.674   7.364
 4186POPC   C1B53959  16.487  23.622   6.464
 4186POPC   C2B53960  16.509  23.542   6.764
 4186POPC   C3B53961  16.540  23.557   7.064
 4186POPC   C4B53962  16.548  23.576   7.364
 4187POPC   NC353963  39.978  29.177   5.564
 4187POPC   PO453964  40.009  29.185   5.864
 4187POPC   GL153965  40.043  29.179   6.164
 4187POPC   GL253966  39.902  29.050   6.164
 4187POPC   C1A53967  39.966  29.115   6.464
 4187POPC   D2A53968  40.039  29.113   6.764
 4187POPC   C3A53969  40.035  29.183   7.064
 4187POPC   C4A53970  39.970  29.127   7.364
 4187POPC   C1B53971  39.879  28.972   6.464
 4187POPC   C2B53972  39.910  28.985   6.764
 4187POPC   C3B53973  39.916  28.909   7.064
 4187POPC   C4B53974  39.823  28.901   7.364
 4188POPC   NC353975  35.367   9.020   5.564
 4188POPC   PO453976  35.338   8.950   5.864
 4188POPC   GL153977  35.391   8.969   6.164
 4188POPC   GL253978  35.274   8.965   6.164
 4188POPC   C1A53979  35.312   9.022   6.464
 4188POPC   D2A53980  35.341   8.950   6.764
 4188POPC   C3A53981  35.321   8.979   7.064
 4188POPC   C4A53982  35.395   8.967   7.364
 4188POPC   C1B53983  35.117   8.844   6.464
 4188POPC   C2B53984  35.108   8.914   6.764
 4188POPC   C3B53985  35.158   8.851   7.064
 4188POPC   C4B53986  35.087   8.876   7.364
 4189POPC   NC353987   5.843  29.871   5.564
 4189POPC   PO453988   5.847  29.900   5.864
 4189POPC   GL153989   5.843  29.910   6.164
 4189POPC   GL253990   5.745  29.828   6.164
 4189POPC   C1A53991   5.830  29.915   6.464
 4189POPC   D2A53992   5.886  29.935   6.764
 4189POPC   C3A53993   5.835  29.880   7.064
 4189POPC   C4A53994   5.889  29.963   7.364
 4189POPC   C1B53995   5.729  29.730   6.464
 4189POPC   C2B53996   5.704  29.735   6.764
 4189POPC   C3B53997   5.640  29.773   7.064
 4189POPC   C4B53998   5.718  29.755   7.364
 4190POPC   NC353999  40.808  12.854   5.564
 4190POPC   PO454000  40.771  12.892   5.864
 4190POPC   GL154001  40.779  12.815   6.164
 4190POPC   GL254002  40.862  12.789   6.164
 4190POPC   C1A54003  40.740  12.845   6.464
 4190POPC   D2A54004  40.788  12.875   6.764
 4190POPC   C3A54005  40.778  12.814   7.064
 4190POPC   C4A54006  40.760  12.868   7.364
 4190POPC   C1B54007  40.916  12.673   6.464
 4190POPC   C2B54008  40.937  12.634   6.764
 4190POPC   C3B54009  40.879  12.684   7.064
 4190POPC   C4B54010  40.892  12.639   7.364
 4191POPC   NC354011  44.619  40.791   5.564
 4191POPC   PO454012  44.670  40.763   5.864
 4191POPC   GL154013  44.613  40.761   6.164
 4191POPC   GL254014  44.607  40.739   6.164
 4191POPC   C1A54015  44.636  40.748   6.464
 4191POPC   D2A54016  44.689  40.753   6.764
 4191POPC   C3A54017  44.673  40.800   7.064
 4191POPC   C4A54018  44.648  40.745   7.364
 4191POPC   C1B54019  44.488  40.576   6.464
 4191POPC   C2B54020  44.457  40.559   6.764
 4191POPC   C3B54021  44.473  40.586   7.064
 4191POPC   C4B54022  44.479  40.619   7.364
 4192POPC   NC354023   1.181  18.331   5.564
 4192POPC   PO454024   1.242  18.313   5.864
 4192POPC   GL154025   1.220  18.277   6.164
 4192POPC   GL254026   1.217  18.214   6.164
 4192POPC   C1A54027   1.193  18.265   6.464
 4192POPC   D2A54028   1.253  18.273   6.764
 4192POPC   C3A54029   1.225  18.291   7.064
 4192POPC   C4A54030   1.219  18.260   7.364
 4192POPC   C1B54031   1.350  18.014   6.464
 4192POPC   C2B54032   1.308  18.030   6.764
 4192POPC   C3B54033   1.316  18.018   7.064
 4192POPC   C4B54034   1.336  18.089   7.364
 4193POPC   NC354035  29.175  18.263   5.564
 4193POPC   PO454036  29.132  18.236   5.864
 4193POPC   GL154037  29.149  18.266   6.164
 4193POPC   GL254038  29.012  18.212   6.164
 4193POPC   C1A54039  29.141  18.286   6.464
 4193POPC   D2A54040  29.112  18.271   6.764
 4193POPC   C3A54041  29.160  18.264   7.064
 4193POPC   C4A54042  29.098  18.293   7.364
 4193POPC   C1B54043  28.926  18.142   6.464
 4193POPC   C2B54044  28.982  18.076   6.764
 4193POPC   C3B54045  29.023  18.111   7.064
 4193POPC   C4B54046  28.966  18.128   7.364
 4194POPC   NC354047  28.414   3.522   5.564
 4194POPC   PO454048  28.410   3.532   5.864
 4194POPC   GL154049  28.346   3.577   6.164
 4194POPC   GL254050  28.490   3.598   6.164
 4194POPC   C1A54051  28.386   3.564   6.464
 4194POPC   D2A54052  28.405   3.512   6.764
 4194POPC   C3A54053  28.323   3.531   7.064
 4194POPC   C4A54054  28.412   3.530   7.364
 4194POPC   C1B54055  28.643   3.609   6.464
 4194POPC   C2B54056  28.648   3.580   6.764
 4194POPC   C3B54057  28.567   3.618   7.064
 4194POPC   C4B54058  28.602   3.607   7.364
 4195POPC   NC354059   7.375   9.780   5.564
 4195POPC   PO454060   7.379   9.787   5.864
 4195POPC   GL154061   7.421   9.745   6.164
 4195POPC   GL254062   7.523   9.754   6.164
 4195POPC   C1A54063   7.384   9.793   6.464
 4195POPC   D2A54064   7.412   9.715   6.764
 4195POPC   C3A54065   7.407   9.748   7.064
 4195POPC   C4A54066   7.397   9.749   7.364
 4195POPC   C1B54067   7.616   9.665   6.464
 4195POPC   C2B54068   7.699   9.675   6.764
 4195POPC   C3B54069   7.684   9.705   7.064
 4195POPC   C4B54070   7.684   9.695   7.364
 4196POPC   NC354071  26.043  20.642   5.564
 4196POPC   PO454072  26.089  20.629   5.864
 4196POPC   GL154073  26.056  20.644   6.164
 4196POPC   GL254074  25.919  20.676   6.164
 4196POPC   C1A54075  26.090  20.656   6.464
 4196POPC   D2A54076  26.079  20.617   6.764
 4196POPC   C3A54077  26.039  20.619   7.064
 4196POPC   C4A54078  26.004  20.602   7.364
 4196POPC   C1B54079  25.894  20.776   6.464
 4196POPC   C2B54080  25.897  20.843   6.764
 4196POPC   C3B54081  25.847  20.774   7.064
 4196POPC   C4B54082  25.855  20.795   7.364
 4197POPC   NC354083  10.527  23.739   5.564
 4197POPC   PO454084  10.489  23.708   5.864
 4197POPC   GL154085  10.543  23.715   6.164
 4197POPC   GL254086  10.458  23.586   6.164
 4197POPC   C1A54087  10.526  23.731   6.464
 4197POPC   D2A54088  10.562  23.716   6.764
 4197POPC   C3A54089  10.563  23.701   7.064
 4197POPC   C4A54090  10.506  23.726   7.364
 4197POPC   C1B54091  10.459  23.477   6.464
 4197POPC   C2B54092  10.473  23.523   6.764
 4197POPC   C3B54093  10.445  23.489   7.064
 4197POPC   C4B54094  10.444  23.446   7.364
 4198POPC   NC354095   1.262  33.787   5.564
 4198POPC   PO454096   1.179  33.751   5.864
 4198POPC   GL154097   1.251  33.778   6.164
 4198POPC   GL254098   1.281  33.923   6.164
 4198POPC   C1A54099   1.219  33.824   6.464
 4198POPC   D2A54100   1.169  33.788   6.764
 4198POPC   C3A54101   1.200  33.843   7.064
 4198POPC   C4A54102   1.189  33.801   7.364
 4198POPC   C1B54103   1.329  34.026   6.464
 4198POPC   C2B54104   1.385  34.005   6.764
 4198POPC   C3B54105   1.372  33.953   7.064
 4198POPC   C4B54106   1.409  33.965   7.364
 4199POPC   NC354107  14.435   8.954   5.564
 4199POPC   PO454108  14.418   8.945   5.864
 4199POPC   GL154109  14.385   9.021   6.164
 4199POPC   GL254110  14.445   9.061   6.164
 4199POPC   C1A54111  14.411   8.991   6.464
 4199POPC   D2A54112  14.378   8.944   6.764
 4199POPC   C3A54113  14.399   8.993   7.064
 4199POPC   C4A54114  14.404   8.977   7.364
 4199POPC   C1B54115  14.547   9.139   6.464
 4199POPC   C2B54116  14.510   9.129   6.764
 4199POPC   C3B54117  14.496   9.225   7.064
 4199POPC   C4B54118  14.575   9.162   7.364
 4200POPC   NC354119  26.772  14.433   5.564
 4200POPC   PO454120  26.803  14.401   5.864
 4200POPC   GL154121  26.810  14.374   6.164
 4200POPC   GL254122  26.751  14.301   6.164
 4200POPC   C1A54123  26.865  14.451   6.464
 4200POPC   D2A54124  26.813  14.388   6.764
 4200POPC   C3A54125  26.854  14.371   7.064
 4200POPC   C4A54126  26.798  14.435   7.364
 4200POPC   C1B54127  26.567  14.311   6.464
 4200POPC   C2B54128  26.590  14.218   6.764
 4200POPC   C3B54129  26.624  14.303   7.064
 4200POPC   C4B54130  26.617  14.252   7.364
 4201POPC   NC354131   8.964  25.304   5.564
 4201POPC   PO454132   9.020  25.256   5.864
 4201POPC   GL154133   8.974  25.264   6.164
 4201POPC   GL254134   9.053  25.209   6.164
 4201POPC   C1A54135   8.941  25.296   6.464
 4201POPC   D2A54136   8.992  25.314   6.764
 4201POPC   C3A54137   9.020  25.277   7.064
 4201POPC   C4A54138   8.967  25.245   7.364
 4201POPC   C1B54139   9.179  25.107   6.464
 4201POPC   C2B54140   9.241  25.109   6.764
 4201POPC   C3B54141   9.164  25.154   7.064
 4201POPC   C4B54142   9.202  25.123   7.364
 4202POPC   NC354143  11.319   2.038   5.564
 4202POPC   PO454144  11.290   1.943   5.864
 4202POPC   GL154145  11.268   1.984   6.164
 4202POPC   GL254146  11.380   1.919   6.164
 4202POPC   C1A54147  11.286   1.999   6.464
 4202POPC   D2A54148  11.285   1.964   6.764
 4202POPC   C3A54149  11.304   1.986   7.064
 4202POPC   C4A54150  11.323   1.974   7.364
 4202POPC   C1B54151  11.540   1.816   6.464
 4202POPC   C2B54152  11.494   1.836   6.764
 4202POPC   C3B54153  11.504   1.850   7.064
 4202POPC   C4B54154  11.485   1.844   7.364
 4203POPC   NC354155  30.735  32.279   5.564
 4203POPC   PO454156  30.717  32.257   5.864
 4203POPC   GL154157  30.715  32.229   6.164
 4203POPC   GL254158  30.728  32.372   6.164
 4203POPC   C1A54159  30.650  32.242   6.464
 4203POPC   D2A54160  30.721  32.216   6.764
 4203POPC   C3A54161  30.711  32.213   7.064
 4203POPC   C4A54162  30.728  32.279   7.364
 4203POPC   C1B54163  30.793  32.452   6.464
 4203POPC   C2B54164  30.740  32.462   6.764
 4203POPC   C3B54165  30.759  32.518   7.064
 4203POPC   C4B54166  30.781  32.518   7.364
 4204POPC   NC354167  14.395  19.851   5.564
 4204POPC   PO454168  14.382  19.859   5.864
 4204POPC   GL154169  14.395  19.842   6.164
 4204POPC   GL254170  14.255  19.858   6.164
 4204POPC   C1A54171  14.423  19.842   6.464
 4204POPC   D2A54172  14.431  19.839   6.764
 4204POPC   C3A54173  14.388  19.843   7.064
 4204POPC   C4A54174  14.449  19.831   7.364
 4204POPC   C1B54175  14.155  19.866   6.464
 4204POPC   C2B54176  14.181  19.881   6.764
 4204POPC   C3B54177  14.166  19.863   7.064
 4204POPC   C4B54178  14.120  19.868   7.364
 4205POPC   NC354179  19.108  19.847   5.564
 4205POPC   PO454180  19.105  19.818   5.864
 4205POPC   GL154181  19.066  19.787   6.164
 4205POPC   GL254182  19.198  19.793   6.164
 4205POPC   C1A54183  19.014  19.873   6.464
 4205POPC   D2A54184  19.029  19.884   6.764
 4205POPC   C3A54185  19.084  19.795   7.064
 4205POPC   C4A54186  19.031  19.839   7.364
 4205POPC   C1B54187  19.263  19.806   6.464
 4205POPC   C2B54188  19.331  19.791   6.764
 4205POPC   C3B54189  19.315  19.842   7.064
 4205POPC   C4B54190  19.278  19.822   7.364
 4206POPC   NC354191  19.077  43.127   5.564
 4206POPC   PO454192  19.045  43.080   5.864
 4206POPC   GL154193  19.037  43.091   6.164
 4206POPC   GL254194  19.069  43.032   6.164
 4206POPC   C1A54195  19.029  43.079   6.464
 4206POPC   D2A54196  19.034  43.079   6.764
 4206POPC   C3A54197  19.062  43.114   7.064
 4206POPC   C4A54198  19.030  43.087   7.364
 4206POPC   C1B54199  19.113  42.838   6.464
 4206POPC   C2B54200  19.169  42.854   6.764
 4206POPC   C3B54201  19.164  42.854   7.064
 4206POPC   C4B54202  19.182  42.887   7.364
 4207POPC   NC354203  15.145  22.135   5.564
 4207POPC   PO454204  15.150  22.169   5.864
 4207POPC   GL154205  15.178  22.206   6.164
 4207POPC   GL254206  15.044  22.118   6.164
 4207POPC   C1A54207  15.201  22.158   6.464
 4207POPC   D2A54208  15.151  22.174   6.764
 4207POPC   C3A54209  15.160  22.186   7.064
 4207POPC   C4A54210  15.200  22.177   7.364
 4207POPC   C1B54211  14.941  22.139   6.464
 4207POPC   C2B54212  14.949  22.167   6.764
 4207POPC   C3B54213  14.890  22.153   7.064
 4207POPC   C4B54214  14.922  22.173   7.364
 4208POPC   NC354215  40.810  11.317   5.564
 4208POPC   PO454216  40.781  11.297   5.864
 4208POPC   GL154217  40.743  11.259   6.164
 4208POPC   GL254218  40.671  11.372   6.164
 4208POPC   C1A54219  40.774  11.350   6.464
 4208POPC   D2A54220  40.801  11.336   6.764
 4208POPC   C3A54221  40.795  11.276   7.064
 4208POPC   C4A54222  40.746  11.257   7.364
 4208POPC   C1B54223  40.534  11.425   6.464
 4208POPC   C2B54224  40.586  11.447   6.764
 4208POPC   C3B54225  40.598  11.476   7.064
 4208POPC   C4B54226  40.563  11.402   7.364
 4209POPC   NC354227  12.110   5.893   5.564
 4209POPC   PO454228  12.099   5.888   5.864
 4209POPC   GL154229  12.042   5.864   6.164
 4209POPC   GL254230  12.047   5.727   6.164
 4209POPC   C1A54231  12.047   5.878   6.464
 4209POPC   D2A54232  12.119   5.827   6.764
 4209POPC   C3A54233  12.112   5.898   7.064
 4209POPC   C4A54234  12.102   5.887   7.364
 4209POPC   C1B54235  11.944   5.715   6.464
 4209POPC   C2B54236  11.926   5.631   6.764
 4209POPC   C3B54237  11.915   5.661   7.064
 4209POPC   C4B54238  11.873   5.644   7.364
 4210POPC   NC354239  37.728   8.178   5.564
 4210POPC   PO454240  37.655   8.194   5.864
 4210POPC   GL154241  37.635   8.217   6.164
 4210POPC   GL254242  37.566   8.276   6.164
 4210POPC   C1A54243  37.659   8.165   6.464
 4210POPC   D2A54244  37.687   8.224   6.764
 4210POPC   C3A54245  37.669   8.194   7.064
 4210POPC   C4A54246  37.681   8.194   7.364
 4210POPC   C1B54247  37.400   8.295   6.464
 4210POPC   C2B54248  37.476   8.272   6.764
 4210POPC   C3B54249  37.492   8.270   7.064
 4210POPC   C4B54250  37.474   8.290   7.364
 4211POPC   NC354251   5.853  17.553   5.564
 4211POPC   PO454252   5.892  17.509   5.864
 4211POPC   GL154253   5.896  17.547   6.164
 4211POPC   GL254254   5.831  17.435   6.164
 4211POPC   C1A54255   5.843  17.531   6.464
 4211POPC   D2A54256   5.870  17.541   6.764
 4211POPC   C3A54257   5.855  17.497   7.064
 4211POPC   C4A54258   5.904  17.505   7.364
 4211POPC   C1B54259   5.858  17.254   6.464
 4211POPC   C2B54260   5.781  17.251   6.764
 4211POPC   C3B54261   5.831  17.289   7.064
 4211POPC   C4B54262   5.795  17.239   7.364
 4212POPC   NC354263  11.328  27.583   5.564
 4212POPC   PO454264  11.344  27.556   5.864
 4212POPC   GL154265  11.262  27.625   6.164
 4212POPC   GL254266  11.359  27.695   6.164
 4212POPC   C1A54267  11.334  27.629   6.464
 4212POPC   D2A54268  11.264  27.627   6.764
 4212POPC   C3A54269  11.344  27.552   7.064
 4212POPC   C4A54270  11.299  27.568   7.364
 4212POPC   C1B54271  11.448  27.783   6.464
 4212POPC   C2B54272  11.485  27.738   6.764
 4212POPC   C3B54273  11.508  27.775   7.064
 4212POPC   C4B54274  11.514  27.776   7.364
 4213POPC   NC354275  29.121  39.259   5.564
 4213POPC   PO454276  29.156  39.272   5.864
 4213POPC   GL154277  29.121  39.217   6.164
 4213POPC   GL254278  29.011  39.144   6.164
 4213POPC   C1A54279  29.183  39.190   6.464
 4213POPC   D2A54280  29.161  39.254   6.764
 4213POPC   C3A54281  29.152  39.267   7.064
 4213POPC   C4A54282  29.116  39.239   7.364
 4213POPC   C1B54283  28.961  39.133   6.464
 4213POPC   C2B54284  28.886  39.133   6.764
 4213POPC   C3B54285  28.956  39.053   7.064
 4213POPC   C4B54286  28.908  39.138   7.364
 4214POPC   NC354287  41.604   4.366   5.564
 4214POPC   PO454288  41.584   4.289   5.864
 4214POPC   GL154289  41.533   4.360   6.164
 4214POPC   GL254290  41.673   4.256   6.164
 4214POPC   C1A54291  41.539   4.351   6.464
 4214POPC   D2A54292  41.510   4.275   6.764
 4214POPC   C3A54293  41.581   4.286   7.064
 4214POPC   C4A54294  41.518   4.338   7.364
 4214POPC   C1B54295  41.799   4.147   6.464
 4214POPC   C2B54296  41.803   4.150   6.764
 4214POPC   C3B54297  41.788   4.198   7.064
 4214POPC   C4B54298  41.779   4.148   7.364
 4215POPC   NC354299  29.894  19.862   5.564
 4215POPC   PO454300  29.895  19.805   5.864
 4215POPC   GL154301  29.904  19.865   6.164
 4215POPC   GL254302  29.758  19.748   6.164
 4215POPC   C1A54303  29.886  19.860   6.464
 4215POPC   D2A54304  29.912  19.815   6.764
 4215POPC   C3A54305  29.945  19.845   7.064
 4215POPC   C4A54306  29.885  19.791   7.364
 4215POPC   C1B54307  29.713  19.716   6.464
 4215POPC   C2B54308  29.667  19.731   6.764
 4215POPC   C3B54309  29.684  19.758   7.064
 4215POPC   C4B54310  29.701  19.756   7.364
 4216POPC   NC354311  37.707  15.971   5.564
 4216POPC   PO454312  37.704  15.911   5.864
 4216POPC   GL154313  37.689  15.966   6.164
 4216POPC   GL254314  37.559  15.947   6.164
 4216POPC   C1A54315  37.651  15.991   6.464
 4216POPC   D2A54316  37.674  15.920   6.764
 4216POPC   C3A54317  37.659  15.918   7.064
 4216POPC   C4A54318  37.645  15.967   7.364
 4216POPC   C1B54319  37.434  15.887   6.464
 4216POPC   C2B54320  37.440  15.890   6.764
 4216POPC   C3B54321  37.498  15.803   7.064
 4216POPC   C4B54322  37.448  15.837   7.364
 4217POPC   NC354323   1.970   7.400   5.564
 4217POPC   PO454324   2.017   7.375   5.864
 4217POPC   GL154325   1.986   7.466   6.164
 4217POPC   GL254326   2.005   7.580   6.164
 4217POPC   C1A54327   2.028   7.400   6.464
 4217POPC   D2A54328   2.033   7.411   6.764
 4217POPC   C3A54329   1.983   7.391   7.064
 4217POPC   C4A54330   1.975   7.387   7.364
 4217POPC   C1B54331   2.011   7.691   6.464
 4217POPC   C2B54332   1.933   7.705   6.764
 4217POPC   C3B54333   1.984   7.687   7.064
 4217POPC   C4B54334   1.985   7.705   7.364
 4218POPC   NC354335  34.543  17.465   5.564
 4218POPC   PO454336  34.551  17.549   5.864
 4218POPC   GL154337  34.597  17.464   6.164
 4218POPC   GL254338  34.579  17.418   6.164
 4218POPC   C1A54339  34.546  17.549   6.464
 4218POPC   D2A54340  34.570  17.499   6.764
 4218POPC   C3A54341  34.532  17.463   7.064
 4218POPC   C4A54342  34.590  17.458   7.364
 4218POPC   C1B54343  34.490  17.260   6.464
 4218POPC   C2B54344  34.532  17.310   6.764
 4218POPC   C3B54345  34.503  17.224   7.064
 4218POPC   C4B54346  34.575  17.263   7.364
 4219POPC   NC354347  19.026  26.849   5.564
 4219POPC   PO454348  19.020  26.842   5.864
 4219POPC   GL154349  19.035  26.820   6.164
 4219POPC   GL254350  19.158  26.766   6.164
 4219POPC   C1A54351  19.041  26.787   6.464
 4219POPC   D2A54352  19.063  26.779   6.764
 4219POPC   C3A54353  19.064  26.847   7.064
 4219POPC   C4A54354  19.087  26.857   7.364
 4219POPC   C1B54355  19.215  26.706   6.464
 4219POPC   C2B54356  19.246  26.664   6.764
 4219POPC   C3B54357  19.275  26.713   7.064
 4219POPC   C4B54358  19.287  26.677   7.364
 4220POPC   NC354359   0.474  25.308   5.564
 4220POPC   PO454360   0.484  25.272   5.864
 4220POPC   GL154361   0.392  25.314   6.164
 4220POPC   GL254362   0.524  25.268   6.164
 4220POPC   C1A54363   0.409  25.265   6.464
 4220POPC   D2A54364   0.485  25.276   6.764
 4220POPC   C3A54365   0.416  25.228   7.064
 4220POPC   C4A54366   0.461  25.242   7.364
 4220POPC   C1B54367   0.686  25.222   6.464
 4220POPC   C2B54368   0.661  25.215   6.764
 4220POPC   C3B54369   0.659  25.222   7.064
 4220POPC   C4B54370   0.709  25.184   7.364
 4221POPC   NC354371   1.208   1.187   5.564
 4221POPC   PO454372   1.233   1.250   5.864
 4221POPC   GL154373   1.233   1.180   6.164
 4221POPC   GL254374   1.326   1.142   6.164
 4221POPC   C1A54375   1.245   1.245   6.464
 4221POPC   D2A54376   1.218   1.169   6.764
 4221POPC   C3A54377   1.203   1.235   7.064
 4221POPC   C4A54378   1.248   1.238   7.364
 4221POPC   C1B54379   1.357   0.978   6.464
 4221POPC   C2B54380   1.384   1.048   6.764
 4221POPC   C3B54381   1.315   0.966   7.064
 4221POPC   C4B54382   1.369   0.991   7.364
 4222POPC   NC354383  15.221  19.855   5.564
 4222POPC   PO454384  15.140  19.823   5.864
 4222POPC   GL154385  15.155  19.787   6.164
 4222POPC   GL254386  15.166  19.976   6.164
 4222POPC   C1A54387  15.196  19.857   6.464
 4222POPC   D2A54388  15.172  19.882   6.764
 4222POPC   C3A54389  15.150  19.818   7.064
 4222POPC   C4A54390  15.195  19.857   7.364
 4222POPC   C1B54391  15.087  20.091   6.464
 4222POPC   C2B54392  15.166  20.041   6.764
 4222POPC   C3B54393  15.136  20.048   7.064
 4222POPC   C4B54394  15.138  20.116   7.364
 4223POPC   NC354395   8.150  44.636   5.564
 4223POPC   PO454396   8.225  44.628   5.864
 4223POPC   GL154397   8.184  44.684   6.164
 4223POPC   GL254398   8.100  44.607   6.164
 4223POPC   C1A54399   8.235  44.683   6.464
 4223POPC   D2A54400   8.180  44.676   6.764
 4223POPC   C3A54401   8.229  44.630   7.064
 4223POPC   C4A54402   8.218  44.659   7.364
 4223POPC   C1B54403   8.084  44.506   6.464
 4223POPC   C2B54404   8.026  44.458   6.764
 4223POPC   C3B54405   8.037  44.420   7.064
 4223POPC   C4B54406   8.014  44.414   7.364
 4224POPC   NC354407  33.794  35.324   5.564
 4224POPC   PO454408  33.814  35.345   5.864
 4224POPC   GL154409  33.787  35.305   6.164
 4224POPC   GL254410  33.969  35.310   6.164
 4224POPC   C1A54411  33.824  35.398   6.464
 4224POPC   D2A54412  33.806  35.302   6.764
 4224POPC   C3A54413  33.816  35.330   7.064
 4224POPC   C4A54414  33.757  35.376   7.364
 4224POPC   C1B54415  34.073  35.312   6.464
 4224POPC   C2B54416  34.045  35.316   6.764
 4224POPC   C3B54417  34.079  35.362   7.064
 4224POPC   C4B54418  34.027  35.369   7.364
 4225POPC   NC354419   5.110  14.363   5.564
 4225POPC   PO454420   5.074  14.364   5.864
 4225POPC   GL154421   5.081  14.376   6.164
 4225POPC   GL254422   4.961  14.467   6.164
 4225POPC   C1A54423   5.070  14.403   6.464
 4225POPC   D2A54424   5.138  14.400   6.764
 4225POPC   C3A54425   5.094  14.368   7.064
 4225POPC   C4A54426   5.077  14.432   7.364
 4225POPC   C1B54427   4.832  14.464   6.464
 4225POPC   C2B54428   4.878  14.449   6.764
 4225POPC   C3B54429   4.907  14.472   7.064
 4225POPC   C4B54430   4.821  14.455   7.364
 4226POPC   NC354431  39.189  21.358   5.564
 4226POPC   PO454432  39.245  21.377   5.864
 4226POPC   GL154433  39.230  21.422   6.164
 4226POPC   GL254434  39.322  21.378   6.164
 4226POPC   C1A54435  39.230  21.381   6.464
 4226POPC   D2A54436  39.227  21.404   6.764
 4226POPC   C3A54437  39.200  21.362   7.064
 4226POPC   C4A54438  39.208  21.368   7.364
 4226POPC   C1B54439  39.420  21.267   6.464
 4226POPC   C2B54440  39.483  21.313   6.764
 4226POPC   C3B54441  39.433  21.337   7.064
 4226POPC   C4B54442  39.509  21.259   7.364
 4227POPC   NC354443  37.663  33.014   5.564
 4227POPC   PO454444  37.699  33.052   5.864
 4227POPC   GL154445  37.706  33.026   6.164
 4227POPC   GL254446  37.765  33.025   6.164
 4227POPC   C1A54447  37.717  33.021   6.464
 4227POPC   D2A54448  37.718  33.035   6.764
 4227POPC   C3A54449  37.717  33.006   7.064
 4227POPC   C4A54450  37.714  33.013   7.364
 4227POPC   C1B54451  37.944  33.019   6.464
 4227POPC   C2B54452  37.920  33.022   6.764
 4227POPC   C3B54453  37.964  33.096   7.064
 4227POPC   C4B54454  37.923  33.061   7.364
 4228POPC   NC354455  16.747  31.463   5.564
 4228POPC   PO454456  16.710  31.439   5.864
 4228POPC   GL154457  16.712  31.446   6.164
 4228POPC   GL254458  16.608  31.527   6.164
 4228POPC   C1A54459  16.717  31.467   6.464
 4228POPC   D2A54460  16.707  31.450   6.764
 4228POPC   C3A54461  16.708  31.517   7.064
 4228POPC   C4A54462  16.712  31.514   7.364
 4228POPC   C1B54463  16.524  31.466   6.464
 4228POPC   C2B54464  16.505  31.467   6.764
 4228POPC   C3B54465  16.502  31.475   7.064
 4228POPC   C4B54466  16.463  31.468   7.364
 4229POPC   NC354467  21.422   2.007   5.564
 4229POPC   PO454468  21.422   1.980   5.864
 4229POPC   GL154469  21.344   2.039   6.164
 4229POPC   GL254470  21.440   1.927   6.164
 4229POPC   C1A54471  21.435   2.020   6.464
 4229POPC   D2A54472  21.385   1.984   6.764
 4229POPC   C3A54473  21.414   1.946   7.064
 4229POPC   C4A54474  21.398   1.959   7.364
 4229POPC   C1B54475  21.551   1.755   6.464
 4229POPC   C2B54476  21.529   1.820   6.764
 4229POPC   C3B54477  21.578   1.789   7.064
 4229POPC   C4B54478  21.582   1.760   7.364
 4230POPC   NC354479  17.499  29.885   5.564
 4230POPC   PO454480  17.512  29.873   5.864
 4230POPC   GL154481  17.459  29.970   6.164
 4230POPC   GL254482  17.354  29.854   6.164
 4230POPC   C1A54483  17.503  29.944   6.464
 4230POPC   D2A54484  17.553  29.935   6.764
 4230POPC   C3A54485  17.483  29.888   7.064
 4230POPC   C4A54486  17.548  29.922   7.364
 4230POPC   C1B54487  17.300  29.841   6.464
 4230POPC   C2B54488  17.214  29.818   6.764
 4230POPC   C3B54489  17.293  29.833   7.064
 4230POPC   C4B54490  17.282  29.831   7.364
 4231POPC   NC354491  26.809  33.001   5.564
 4231POPC   PO454492  26.853  33.066   5.864
 4231POPC   GL154493  26.804  32.988   6.164
 4231POPC   GL254494  26.745  32.981   6.164
 4231POPC   C1A54495  26.795  32.998   6.464
 4231POPC   D2A54496  26.798  33.026   6.764
 4231POPC   C3A54497  26.774  33.029   7.064
 4231POPC   C4A54498  26.785  32.998   7.364
 4231POPC   C1B54499  26.644  32.817   6.464
 4231POPC   C2B54500  26.595  32.907   6.764
 4231POPC   C3B54501  26.596  32.908   7.064
 4231POPC   C4B54502  26.636  32.861   7.364
 4232POPC   NC354503   4.327   9.005   5.564
 4232POPC   PO454504   4.324   9.007   5.864
 4232POPC   GL154505   4.311   8.995   6.164
 4232POPC   GL254506   4.192   8.941   6.164
 4232POPC   C1A54507   4.284   8.966   6.464
 4232POPC   D2A54508   4.321   8.981   6.764
 4232POPC   C3A54509   4.362   8.999   7.064
 4232POPC   C4A54510   4.300   8.947   7.364
 4232POPC   C1B54511   4.124   8.834   6.464
 4232POPC   C2B54512   4.079   8.872   6.764
 4232POPC   C3B54513   4.056   8.856   7.064
 4232POPC   C4B54514   4.145   8.876   7.364
 4233POPC   NC354515  36.132  41.586   5.564
 4233POPC   PO454516  36.117  41.510   5.864
 4233POPC   GL154517  36.131  41.533   6.164
 4233POPC   GL254518  36.071  41.605   6.164
 4233POPC   C1A54519  36.122  41.604   6.464
 4233POPC   D2A54520  36.160  41.597   6.764
 4233POPC   C3A54521  36.164  41.526   7.064
 4233POPC   C4A54522  36.125  41.605   7.364
 4233POPC   C1B54523  35.949  41.764   6.464
 4233POPC   C2B54524  35.986  41.766   6.764
 4233POPC   C3B54525  35.909  41.699   7.064
 4233POPC   C4B54526  35.937  41.698   7.364
 4234POPC   NC354527  44.700  44.658   5.564
 4234POPC   PO454528  44.680  44.633   5.864
 4234POPC   GL154529  44.708  44.698   6.164
 4234POPC   GL254530  44.540  44.708   6.164
 4234POPC   C1A54531  44.637  44.693   6.464
 4234POPC   D2A54532  44.694  44.687   6.764
 4234POPC   C3A54533  44.696  44.678   7.064
 4234POPC   C4A54534  44.648  44.626   7.364
 4234POPC   C1B54535  44.516  44.796   6.464
 4234POPC   C2B54536  44.500  44.843   6.764
 4234POPC   C3B54537  44.475  44.829   7.064
 4234POPC   C4B54538  44.471  44.798   7.364
 4235POPC   NC354539   3.567  12.810   5.564
 4235POPC   PO454540   3.535  12.879   5.864
 4235POPC   GL154541   3.539  12.893   6.164
 4235POPC   GL254542   3.460  12.874   6.164
 4235POPC   C1A54543   3.512  12.890   6.464
 4235POPC   D2A54544   3.511  12.876   6.764
 4235POPC   C3A54545   3.532  12.818   7.064
 4235POPC   C4A54546   3.505  12.895   7.364
 4235POPC   C1B54547   3.315  12.886   6.464
 4235POPC   C2B54548   3.324  12.909   6.764
 4235POPC   C3B54549   3.261  12.860   7.064
 4235POPC   C4B54550   3.328  12.853   7.364
 4236POPC   NC354551  29.159  35.330   5.564
 4236POPC   PO454552  29.127  35.375   5.864
 4236POPC   GL154553  29.134  35.355   6.164
 4236POPC   GL254554  29.255  35.287   6.164
 4236POPC   C1A54555  29.112  35.384   6.464
 4236POPC   D2A54556  29.120  35.312   6.764
 4236POPC   C3A54557  29.163  35.352   7.064
 4236POPC   C4A54558  29.123  35.366   7.364
 4236POPC   C1B54559  29.286  35.198   6.464
 4236POPC   C2B54560  29.352  35.222   6.764
 4236POPC   C3B54561  29.360  35.175   7.064
 4236POPC   C4B54562  29.283  35.142   7.364
 4237POPC   NC354563  30.692  40.812   5.564
 4237POPC   PO454564  30.743  40.813   5.864
 4237POPC   GL154565  30.687  40.779   6.164
 4237POPC   GL254566  30.750  40.927   6.164
 4237POPC   C1A54567  30.673  40.750   6.464
 4237POPC   D2A54568  30.655  40.819   6.764
 4237POPC   C3A54569  30.739  40.817   7.064
 4237POPC   C4A54570  30.690  40.734   7.364
 4237POPC   C1B54571  30.766  41.007   6.464
 4237POPC   C2B54572  30.809  41.008   6.764
 4237POPC   C3B54573  30.787  41.073   7.064
 4237POPC   C4B54574  30.811  41.039   7.364
 4238POPC   NC354575  18.332   8.190   5.564
 4238POPC   PO454576  18.320   8.168   5.864
 4238POPC   GL154577  18.310   8.175   6.164
 4238POPC   GL254578  18.376   8.194   6.164
 4238POPC   C1A54579  18.294   8.232   6.464
 4238POPC   D2A54580  18.303   8.186   6.764
 4238POPC   C3A54581  18.296   8.231   7.064
 4238POPC   C4A54582  18.246   8.179   7.364
 4238POPC   C1B54583  18.563   8.122   6.464
 4238POPC   C2B54584  18.492   8.183   6.764
 4238POPC   C3B54585  18.538   8.144   7.064
 4238POPC   C4B54586  18.487   8.131   7.364
 4239POPC   NC354587  36.104  19.104   5.564
 4239POPC   PO454588  36.164  19.043   5.864
 4239POPC   GL154589  36.092  19.076   6.164
 4239POPC   GL254590  36.026  19.103   6.164
 4239POPC   C1A54591  36.148  19.028   6.464
 4239POPC   D2A54592  36.107  19.013   6.764
 4239POPC   C3A54593  36.130  19.028   7.064
 4239POPC   C4A54594  36.086  19.025   7.364
 4239POPC   C1B54595  35.864  19.069   6.464
 4239POPC   C2B54596  35.839  19.103   6.764
 4239POPC   C3B54597  35.867  19.131   7.064
 4239POPC   C4B54598  35.853  19.081   7.364
 4240POPC   NC354599  21.420   5.820   5.564
 4240POPC   PO454600  21.420   5.834   5.864
 4240POPC   GL154601  21.372   5.861   6.164
 4240POPC   GL254602  21.292   5.846   6.164
 4240POPC   C1A54603  21.409   5.878   6.464
 4240POPC   D2A54604  21.357   5.822   6.764
 4240POPC   C3A54605  21.428   5.908   7.064
 4240POPC   C4A54606  21.401   5.851   7.364
 4240POPC   C1B54607  21.136   5.804   6.464
 4240POPC   C2B54608  21.135   5.733   6.764
 4240POPC   C3B54609  21.185   5.740   7.064
 4240POPC   C4B54610  21.155   5.787   7.364
 4241POPC   NC354611   6.693  10.530   5.564
 4241POPC   PO454612   6.598  10.507   5.864
 4241POPC   GL154613   6.623  10.475   6.164
 4241POPC   GL254614   6.803  10.472   6.164
 4241POPC   C1A54615   6.635  10.529   6.464
 4241POPC   D2A54616   6.647  10.484   6.764
 4241POPC   C3A54617   6.673  10.533   7.064
 4241POPC   C4A54618   6.687  10.493   7.364
 4241POPC   C1B54619   6.842  10.464   6.464
 4241POPC   C2B54620   6.870  10.466   6.764
 4241POPC   C3B54621   6.921  10.481   7.064
 4241POPC   C4B54622   6.864  10.415   7.364
 4242POPC   NC354623  15.909   6.610   5.564
 4242POPC   PO454624  15.924   6.621   5.864
 4242POPC   GL154625  15.953   6.649   6.164
 4242POPC   GL254626  15.794   6.579   6.164
 4242POPC   C1A54627  15.965   6.642   6.464
 4242POPC   D2A54628  15.914   6.616   6.764
 4242POPC   C3A54629  15.981   6.627   7.064
 4242POPC   C4A54630  15.955   6.648   7.364
 4242POPC   C1B54631  15.749   6.602   6.464
 4242POPC   C2B54632  15.745   6.564   6.764
 4242POPC   C3B54633  15.682   6.543   7.064
 4242POPC   C4B54634  15.738   6.593   7.364
 4243POPC   NC354635  39.985  36.115   5.564
 4243POPC   PO454636  40.021  36.160   5.864
 4243POPC   GL154637  40.008  36.144   6.164
 4243POPC   GL254638  40.081  36.213   6.164
 4243POPC   C1A54639  40.022  36.174   6.464
 4243POPC   D2A54640  40.016  36.148   6.764
 4243POPC   C3A54641  40.009  36.078   7.064
 4243POPC   C4A54642  40.002  36.127   7.364
 4243POPC   C1B54643  40.127  36.302   6.464
 4243POPC   C2B54644  40.131  36.366   6.764
 4243POPC   C3B54645  40.169  36.365   7.064
 4243POPC   C4B54646  40.174  36.379   7.364
 4244POPC   NC354647  43.881  12.095   5.564
 4244POPC   PO454648  43.923  12.088   5.864
 4244POPC   GL154649  43.891  12.031   6.164
 4244POPC   GL254650  43.794  12.121   6.164
 4244POPC   C1A54651  43.882  12.071   6.464
 4244POPC   D2A54652  43.887  12.123   6.764
 4244POPC   C3A54653  43.881  12.122   7.064
 4244POPC   C4A54654  43.845  12.052   7.364
 4244POPC   C1B54655  43.714  12.233   6.464
 4244POPC   C2B54656  43.706  12.222   6.764
 4244POPC   C3B54657  43.668  12.251   7.064
 4244POPC   C4B54658  43.733  12.251   7.364
 4245POPC   NC354659   6.681   0.451   5.564
 4245POPC   PO454660   6.659   0.488   5.864
 4245POPC   GL154661   6.635   0.480   6.164
 4245POPC   GL254662   6.656   0.324   6.164
 4245POPC   C1A54663   6.640   0.473   6.464
 4245POPC   D2A54664   6.691   0.402   6.764
 4245POPC   C3A54665   6.674   0.468   7.064
 4245POPC   C4A54666   6.631   0.418   7.364
 4245POPC   C1B54667   6.749   0.188   6.464
 4245POPC   C2B54668   6.777   0.208   6.764
 4245POPC   C3B54669   6.761   0.227   7.064
 4245POPC   C4B54670   6.718   0.261   7.364
 4246POPC   NC354671  22.134   5.893   5.564
 4246POPC   PO454672  22.209   5.901   5.864
 4246POPC   GL154673  22.181   5.871   6.164
 4246POPC   GL254674  22.093   6.000   6.164
 4246POPC   C1A54675  22.152   5.833   6.464
 4246POPC   D2A54676  22.199   5.883   6.764
 4246POPC   C3A54677  22.178   5.911   7.064
 4246POPC   C4A54678  22.168   5.873   7.364
 4246POPC   C1B54679  22.109   6.115   6.464
 4246POPC   C2B54680  22.059   6.079   6.764
 4246POPC   C3B54681  22.082   6.120   7.064
 4246POPC   C4B54682  22.125   6.142   7.364
 4247POPC   NC354683   9.022  29.877   5.564
 4247POPC   PO454684   8.957  29.898   5.864
 4247POPC   GL154685   8.931  29.874   6.164
 4247POPC   GL254686   8.895  29.905   6.164
 4247POPC   C1A54687   8.943  29.899   6.464
 4247POPC   D2A54688   8.944  29.924   6.764
 4247POPC   C3A54689   8.926  29.895   7.064
 4247POPC   C4A54690   8.939  29.928   7.364
 4247POPC   C1B54691   8.687  29.816   6.464
 4247POPC   C2B54692   8.704  29.863   6.764
 4247POPC   C3B54693   8.718  29.874   7.064
 4247POPC   C4B54694   8.777  29.839   7.364
 4248POPC   NC354695  13.632  27.556   5.564
 4248POPC   PO454696  13.659  27.571   5.864
 4248POPC   GL154697  13.639  27.609   6.164
 4248POPC   GL254698  13.696  27.689   6.164
 4248POPC   C1A54699  13.616  27.551   6.464
 4248POPC   D2A54700  13.587  27.561   6.764
 4248POPC   C3A54701  13.638  27.581   7.064
 4248POPC   C4A54702  13.612  27.606   7.364
 4248POPC   C1B54703  13.707  27.764   6.464
 4248POPC   C2B54704  13.748  27.833   6.764
 4248POPC   C3B54705  13.736  27.798   7.064
 4248POPC   C4B54706  13.779  27.767   7.364
 4249POPC   NC354707  10.518   3.501   5.564
 4249POPC   PO454708  10.557   3.499   5.864
 4249POPC   GL154709  10.564   3.565   6.164
 4249POPC   GL254710  10.521   3.650   6.164
 4249POPC   C1A54711  10.497   3.537   6.464
 4249POPC   D2A54712  10.563   3.539   6.764
 4249POPC   C3A54713  10.506   3.537   7.064
 4249POPC   C4A54714  10.573   3.500   7.364
 4249POPC   C1B54715  10.371   3.748   6.464
 4249POPC   C2B54716  10.411   3.802   6.764
 4249POPC   C3B54717  10.401   3.790   7.064
 4249POPC   C4B54718  10.383   3.801   7.364
 4250POPC   NC354719  33.046  42.344   5.564
 4250POPC   PO454720  33.002  42.322   5.864
 4250POPC   GL154721  33.000  42.313   6.164
 4250POPC   GL254722  33.064  42.481   6.164
 4250POPC   C1A54723  33.014  42.306   6.464
 4250POPC   D2A54724  33.005  42.335   6.764
 4250POPC   C3A54725  33.074  42.304   7.064
 4250POPC   C4A54726  32.986  42.317   7.364
 4250POPC   C1B54727  32.972  42.592   6.464
 4250POPC   C2B54728  33.014  42.546   6.764
 4250POPC   C3B54729  33.041  42.627   7.064
 4250POPC   C4B54730  33.035  42.624   7.364
 4251POPC   NC354731  32.293  16.748   5.564
 4251POPC   PO454732  32.199  16.760   5.864
 4251POPC   GL154733  32.206  16.737   6.164
 4251POPC   GL254734  32.118  16.670   6.164
 4251POPC   C1A54735  32.242  16.689   6.464
 4251POPC   D2A54736  32.267  16.711   6.764
 4251POPC   C3A54737  32.241  16.712   7.064
 4251POPC   C4A54738  32.279  16.744   7.364
 4251POPC   C1B54739  32.032  16.536   6.464
 4251POPC   C2B54740  32.064  16.539   6.764
 4251POPC   C3B54741  32.094  16.543   7.064
 4251POPC   C4B54742  32.104  16.532   7.364
 4252POPC   NC354743  12.841  14.405   5.564
 4252POPC   PO454744  12.809  14.400   5.864
 4252POPC   GL154745  12.847  14.374   6.164
 4252POPC   GL254746  12.690  14.328   6.164
 4252POPC   C1A54747  12.846  14.453   6.464
 4252POPC   D2A54748  12.862  14.383   6.764
 4252POPC   C3A54749  12.884  14.428   7.064
 4252POPC   C4A54750  12.870  14.403   7.364
 4252POPC   C1B54751  12.591  14.354   6.464
 4252POPC   C2B54752  12.613  14.312   6.764
 4252POPC   C3B54753  12.625  14.345   7.064
 4252POPC   C4B54754  12.601  14.381   7.364
 4253POPC   NC354755   0.454   4.327   5.564
 4253POPC   PO454756   0.463   4.283   5.864
 4253POPC   GL154757   0.453   4.318   6.164
 4253POPC   GL254758   0.343   4.223   6.164
 4253POPC   C1A54759   0.470   4.327   6.464
 4253POPC   D2A54760   0.442   4.291   6.764
 4253POPC   C3A54761   0.419   4.319   7.064
 4253POPC   C4A54762   0.445   4.284   7.364
 4253POPC   C1B54763   0.192   4.231   6.464
 4253POPC   C2B54764   0.203   4.140   6.764
 4253POPC   C3B54765   0.178   4.178   7.064
 4253POPC   C4B54766   0.228   4.197   7.364
 4254POPC   NC354767  33.001   0.407   5.564
 4254POPC   PO454768  32.990   0.450   5.864
 4254POPC   GL154769  33.051   0.472   6.164
 4254POPC   GL254770  33.001   0.517   6.164
 4254POPC   C1A54771  33.052   0.409   6.464
 4254POPC   D2A54772  33.050   0.395   6.764
 4254POPC   C3A54773  33.051   0.389   7.064
 4254POPC   C4A54774  32.995   0.411   7.364
 4254POPC   C1B54775  32.945   0.676   6.464
 4254POPC   C2B54776  32.900   0.634   6.764
 4254POPC   C3B54777  32.911   0.688   7.064
 4254POPC   C4B54778  32.998   0.693   7.364
 4255POPC   NC354779  36.860  19.019   5.564
 4255POPC   PO454780  36.949  19.099   5.864
 4255POPC   GL154781  36.903  19.066   6.164
 4255POPC   GL254782  36.762  18.951   6.164
 4255POPC   C1A54783  36.915  19.075   6.464
 4255POPC   D2A54784  36.880  19.087   6.764
 4255POPC   C3A54785  36.882  19.075   7.064
 4255POPC   C4A54786  36.921  19.086   7.364
 4255POPC   C1B54787  36.661  18.869   6.464
 4255POPC   C2B54788  36.744  18.941   6.764
 4255POPC   C3B54789  36.667  18.906   7.064
 4255POPC   C4B54790  36.701  18.897   7.364
 4256POPC   NC354791   8.243   1.188   5.564
 4256POPC   PO454792   8.181   1.173   5.864
 4256POPC   GL154793   8.237   1.190   6.164
 4256POPC   GL254794   8.209   1.314   6.164
 4256POPC   C1A54795   8.173   1.198   6.464
 4256POPC   D2A54796   8.240   1.237   6.764
 4256POPC   C3A54797   8.224   1.198   7.064
 4256POPC   C4A54798   8.176   1.234   7.364
 4256POPC   C1B54799   8.166   1.468   6.464
 4256POPC   C2B54800   8.152   1.508   6.764
 4256POPC   C3B54801   8.128   1.447   7.064
 4256POPC   C4B54802   8.184   1.497   7.364
 4257POPC   NC354803  44.677  43.134   5.564
 4257POPC   PO454804  44.705  43.062   5.864
 4257POPC   GL154805  44.704  43.119   6.164
 4257POPC   GL254806  44.562  42.976   6.164
 4257POPC   C1A54807  44.686  43.091   6.464
 4257POPC   D2A54808  44.635  43.126   6.764
 4257POPC   C3A54809  44.707  43.120   7.064
 4257POPC   C4A54810  44.634  43.124   7.364
 4257POPC   C1B54811  44.482  42.887   6.464
 4257POPC   C2B54812  44.538  42.953   6.764
 4257POPC   C3B54813  44.527  42.944   7.064
 4257POPC   C4B54814  44.465  42.925   7.364
 4258POPC   NC354815   7.469  40.786   5.564
 4258POPC   PO454816   7.433  40.815   5.864
 4258POPC   GL154817   7.403  40.781   6.164
 4258POPC   GL254818   7.359  40.913   6.164
 4258POPC   C1A54819   7.415  40.762   6.464
 4258POPC   D2A54820   7.454  40.800   6.764
 4258POPC   C3A54821   7.392  40.767   7.064
 4258POPC   C4A54822   7.410  40.789   7.364
 4258POPC   C1B54823   7.355  41.032   6.464
 4258POPC   C2B54824   7.323  41.074   6.764
 4258POPC   C3B54825   7.361  41.069   7.064
 4258POPC   C4B54826   7.338  41.067   7.364
 4259POPC   NC354827   5.102  12.816   5.564
 4259POPC   PO454828   5.128  12.838   5.864
 4259POPC   GL154829   5.049  12.826   6.164
 4259POPC   GL254830   5.160  12.934   6.164
 4259POPC   C1A54831   5.103  12.862   6.464
 4259POPC   D2A54832   5.070  12.874   6.764
 4259POPC   C3A54833   5.118  12.802   7.064
 4259POPC   C4A54834   5.089  12.811   7.364
 4259POPC   C1B54835   5.264  13.016   6.464
 4259POPC   C2B54836   5.295  12.952   6.764
 4259POPC   C3B54837   5.291  12.988   7.064
 4259POPC   C4B54838   5.276  13.024   7.364
 4260POPC   NC354839  29.970  25.309   5.564
 4260POPC   PO454840  29.945  25.278   5.864
 4260POPC   GL154841  29.917  25.267   6.164
 4260POPC   GL254842  29.982  25.347   6.164
 4260POPC   C1A54843  29.964  25.216   6.464
 4260POPC   D2A54844  29.965  25.292   6.764
 4260POPC   C3A54845  29.920  25.257   7.064
 4260POPC   C4A54846  29.952  25.258   7.364
 4260POPC   C1B54847  30.077  25.446   6.464
 4260POPC   C2B54848  30.113  25.390   6.764
 4260POPC   C3B54849  30.127  25.443   7.064
 4260POPC   C4B54850  30.153  25.475   7.364
 4261POPC   NC354851  22.897  24.515   5.564
 4261POPC   PO454852  22.912  24.480   5.864
 4261POPC   GL154853  22.954  24.510   6.164
 4261POPC   GL254854  22.806  24.445   6.164
 4261POPC   C1A54855  22.926  24.522   6.464
 4261POPC   D2A54856  22.966  24.491   6.764
 4261POPC   C3A54857  22.923  24.463   7.064
 4261POPC   C4A54858  22.961  24.506   7.364
 4261POPC   C1B54859  22.745  24.454   6.464
 4261POPC   C2B54860  22.700  24.443   6.764
 4261POPC   C3B54861  22.716  24.443   7.064
 4261POPC   C4B54862  22.660  24.405   7.364
 4262POPC   NC354863  24.533   8.951   5.564
 4262POPC   PO454864  24.526   9.007   5.864
 4262POPC   GL154865  24.476   8.926   6.164
 4262POPC   GL254866  24.435   8.821   6.164
 4262POPC   C1A54867  24.522   8.971   6.464
 4262POPC   D2A54868  24.515   8.946   6.764
 4262POPC   C3A54869  24.476   8.988   7.064
 4262POPC   C4A54870  24.467   8.924   7.364
 4262POPC   C1B54871  24.378   8.758   6.464
 4262POPC   C2B54872  24.320   8.751   6.764
 4262POPC   C3B54873  24.344   8.786   7.064
 4262POPC   C4B54874  24.331   8.706   7.364
 4263POPC   NC354875  29.186   3.495   5.564
 4263POPC   PO454876  29.194   3.503   5.864
 4263POPC   GL154877  29.155   3.541   6.164
 4263POPC   GL254878  29.067   3.537   6.164
 4263POPC   C1A54879  29.153   3.523   6.464
 4263POPC   D2A54880  29.190   3.589   6.764
 4263POPC   C3A54881  29.166   3.541   7.064
 4263POPC   C4A54882  29.149   3.559   7.364
 4263POPC   C1B54883  28.849   3.534   6.464
 4263POPC   C2B54884  28.868   3.528   6.764
 4263POPC   C3B54885  28.852   3.564   7.064
 4263POPC   C4B54886  28.893   3.519   7.364
 4264POPC   NC354887  37.690  29.098   5.564
 4264POPC   PO454888  37.674  29.123   5.864
 4264POPC   GL154889  37.683  29.130   6.164
 4264POPC   GL254890  37.781  29.122   6.164
 4264POPC   C1A54891  37.657  29.159   6.464
 4264POPC   D2A54892  37.661  29.122   6.764
 4264POPC   C3A54893  37.635  29.181   7.064
 4264POPC   C4A54894  37.674  29.143   7.364
 4264POPC   C1B54895  37.870  29.026   6.464
 4264POPC   C2B54896  37.889  29.108   6.764
 4264POPC   C3B54897  37.880  29.036   7.064
 4264POPC   C4B54898  37.882  29.083   7.364
 4265POPC   NC354899   4.333  12.880   5.564
 4265POPC   PO454900   4.340  12.850   5.864
 4265POPC   GL154901   4.336  12.816   6.164
 4265POPC   GL254902   4.265  12.926   6.164
 4265POPC   C1A54903   4.310  12.813   6.464
 4265POPC   D2A54904   4.343  12.871   6.764
 4265POPC   C3A54905   4.297  12.822   7.064
 4265POPC   C4A54906   4.324  12.894   7.364
 4265POPC   C1B54907   4.265  13.055   6.464
 4265POPC   C2B54908   4.296  13.127   6.764
 4265POPC   C3B54909   4.273  13.128   7.064
 4265POPC   C4B54910   4.272  13.105   7.364
 4266POPC   NC354911   5.868  21.394   5.564
 4266POPC   PO454912   5.880  21.351   5.864
 4266POPC   GL154913   5.855  21.425   6.164
 4266POPC   GL254914   5.797  21.446   6.164
 4266POPC   C1A54915   5.824  21.363   6.464
 4266POPC   D2A54916   5.850  21.402   6.764
 4266POPC   C3A54917   5.831  21.343   7.064
 4266POPC   C4A54918   5.839  21.423   7.364
 4266POPC   C1B54919   5.671  21.547   6.464
 4266POPC   C2B54920   5.700  21.516   6.764
 4266POPC   C3B54921   5.648  21.512   7.064
 4266POPC   C4B54922   5.645  21.477   7.364
 4267POPC   NC354923  14.451  15.923   5.564
 4267POPC   PO454924  14.392  15.981   5.864
 4267POPC   GL154925  14.426  15.952   6.164
 4267POPC   GL254926  14.324  16.034   6.164
 4267POPC   C1A54927  14.366  15.944   6.464
 4267POPC   D2A54928  14.412  15.979   6.764
 4267POPC   C3A54929  14.355  15.916   7.064
 4267POPC   C4A54930  14.436  15.930   7.364
 4267POPC   C1B54931  14.234  16.203   6.464
 4267POPC   C2B54932  14.319  16.191   6.764
 4267POPC   C3B54933  14.230  16.152   7.064
 4267POPC   C4B54934  14.243  16.141   7.364
 4268POPC   NC354935  27.584  28.399   5.564
 4268POPC   PO454936  27.547  28.387   5.864
 4268POPC   GL154937  27.552  28.407   6.164
 4268POPC   GL254938  27.620  28.249   6.164
 4268POPC   C1A54939  27.609  28.352   6.464
 4268POPC   D2A54940  27.553  28.405   6.764
 4268POPC   C3A54941  27.601  28.377   7.064
 4268POPC   C4A54942  27.599  28.349   7.364
 4268POPC   C1B54943  27.714  28.138   6.464
 4268POPC   C2B54944  27.745  28.206   6.764
 4268POPC   C3B54945  27.737  28.144   7.064
 4268POPC   C4B54946  27.690  28.138   7.364
 4269POPC   NC354947  36.894  16.698   5.564
 4269POPC   PO454948  36.869  16.774   5.864
 4269POPC   GL154949  36.930  16.702   6.164
 4269POPC   GL254950  36.743  16.752   6.164
 4269POPC   C1A54951  36.921  16.688   6.464
 4269POPC   D2A54952  36.913  16.736   6.764
 4269POPC   C3A54953  36.855  16.709   7.064
 4269POPC   C4A54954  36.908  16.707   7.364
 4269POPC   C1B54955  36.671  16.732   6.464
 4269POPC   C2B54956  36.652  16.706   6.764
 4269POPC   C3B54957  36.625  16.707   7.064
 4269POPC   C4B54958  36.662  16.784   7.364
 4270POPC   NC354959  36.104  33.046   5.564
 4270POPC   PO454960  36.161  33.011   5.864
 4270POPC   GL154961  36.116  32.980   6.164
 4270POPC   GL254962  36.009  32.926   6.164
 4270POPC   C1A54963  36.137  32.979   6.464
 4270POPC   D2A54964  36.135  33.021   6.764
 4270POPC   C3A54965  36.095  32.976   7.064
 4270POPC   C4A54966  36.139  32.996   7.364
 4270POPC   C1B54967  35.896  32.899   6.464
 4270POPC   C2B54968  35.950  32.894   6.764
 4270POPC   C3B54969  35.904  32.889   7.064
 4270POPC   C4B54970  35.879  32.908   7.364
 4271POPC   NC354971   7.400  19.010   5.564
 4271POPC   PO454972   7.434  19.089   5.864
 4271POPC   GL154973   7.386  19.096   6.164
 4271POPC   GL254974   7.381  19.191   6.164
 4271POPC   C1A54975   7.451  19.092   6.464
 4271POPC   D2A54976   7.391  19.087   6.764
 4271POPC   C3A54977   7.426  19.071   7.064
 4271POPC   C4A54978   7.380  19.063   7.364
 4271POPC   C1B54979   7.411  19.292   6.464
 4271POPC   C2B54980   7.449  19.317   6.764
 4271POPC   C3B54981   7.444  19.333   7.064
 4271POPC   C4B54982   7.381  19.315   7.364
 4272POPC   NC354983  41.529  40.748   5.564
 4272POPC   PO454984  41.596  40.811   5.864
 4272POPC   GL154985  41.607  40.737   6.164
 4272POPC   GL254986  41.549  40.682   6.164
 4272POPC   C1A54987  41.596  40.809   6.464
 4272POPC   D2A54988  41.516  40.819   6.764
 4272POPC   C3A54989  41.566  40.768   7.064
 4272POPC   C4A54990  41.509  40.767   7.364
 4272POPC   C1B54991  41.517  40.569   6.464
 4272POPC   C2B54992  41.552  40.506   6.764
 4272POPC   C3B54993  41.519  40.550   7.064
 4272POPC   C4B54994  41.570  40.545   7.364
 4273POPC   NC354995  22.914  37.656   5.564
 4273POPC   PO454996  22.935  37.653   5.864
 4273POPC   GL154997  22.955  37.670   6.164
 4273POPC   GL254998  23.004  37.837   6.164
 4273POPC   C1A54999  22.974  37.690   6.464
 4273POPC   D2A55000  22.941  37.646   6.764
 4273POPC   C3A55001  22.972  37.672   7.064
 4273POPC   C4A55002  22.987  37.645   7.364
 4273POPC   C1B55003  23.037  37.859   6.464
 4273POPC   C2B55004  23.021  37.946   6.764
 4273POPC   C3B55005  23.072  37.872   7.064
 4273POPC   C4B55006  23.068  37.921   7.364
 4274POPC   NC355007  22.897   6.622   5.564
 4274POPC   PO455008  22.917   6.629   5.864
 4274POPC   GL155009  22.905   6.609   6.164
 4274POPC   GL255010  22.778   6.618   6.164
 4274POPC   C1A55011  22.940   6.641   6.464
 4274POPC   D2A55012  22.899   6.689   6.764
 4274POPC   C3A55013  22.914   6.649   7.064
 4274POPC   C4A55014  22.947   6.648   7.364
 4274POPC   C1B55015  22.682   6.544   6.464
 4274POPC   C2B55016  22.701   6.611   6.764
 4274POPC   C3B55017  22.712   6.575   7.064
 4274POPC   C4B55018  22.681   6.597   7.364
 4275POPC   NC355019  28.362  15.156   5.564
 4275POPC   PO455020  28.369  15.191   5.864
 4275POPC   GL155021  28.332  15.160   6.164
 4275POPC   GL255022  28.364  15.050   6.164
 4275POPC   C1A55023  28.340  15.171   6.464
 4275POPC   D2A55024  28.333  15.149   6.764
 4275POPC   C3A55025  28.375  15.192   7.064
 4275POPC   C4A55026  28.330  15.146   7.364
 4275POPC   C1B55027  28.425  14.958   6.464
 4275POPC   C2B55028  28.448  14.928   6.764
 4275POPC   C3B55029  28.433  14.927   7.064
 4275POPC   C4B55030  28.420  14.945   7.364
 4276POPC   NC355031  33.052   5.918   5.564
 4276POPC   PO455032  33.058   5.914   5.864
 4276POPC   GL155033  33.046   5.897   6.164
 4276POPC   GL255034  33.121   5.901   6.164
 4276POPC   C1A55035  33.011   5.820   6.464
 4276POPC   D2A55036  33.056   5.862   6.764
 4276POPC   C3A55037  33.052   5.878   7.064
 4276POPC   C4A55038  32.982   5.867   7.364
 4276POPC   C1B55039  33.290   5.901   6.464
 4276POPC   C2B55040  33.272   5.887   6.764
 4276POPC   C3B55041  33.235   5.964   7.064
 4276POPC   C4B55042  33.235   5.879   7.364
 4277POPC   NC355043   5.115  19.058   5.564
 4277POPC   PO455044   5.108  19.057   5.864
 4277POPC   GL155045   5.060  19.010   6.164
 4277POPC   GL255046   5.184  18.927   6.164
 4277POPC   C1A55047   5.085  19.104   6.464
 4277POPC   D2A55048   5.135  19.048   6.764
 4277POPC   C3A55049   5.134  19.064   7.064
 4277POPC   C4A55050   5.046  19.012   7.364
 4277POPC   C1B55051   5.248  18.882   6.464
 4277POPC   C2B55052   5.222  18.829   6.764
 4277POPC   C3B55053   5.298  18.891   7.064
 4277POPC   C4B55054   5.289  18.833   7.364
 4278POPC   NC355055  26.073  31.491   5.564
 4278POPC   PO455056  26.049  31.504   5.864
 4278POPC   GL155057  26.005  31.457   6.164
 4278POPC   GL255058  25.936  31.630   6.164
 4278POPC   C1A55059  26.042  31.498   6.464
 4278POPC   D2A55060  26.052  31.459   6.764
 4278POPC   C3A55061  26.047  31.507   7.064
 4278POPC   C4A55062  26.068  31.461   7.364
 4278POPC   C1B55063  25.900  31.734   6.464
 4278POPC   C2B55064  25.964  31.721   6.764
 4278POPC   C3B55065  25.921  31.653   7.064
 4278POPC   C4B55066  25.963  31.695   7.364
 4279POPC   NC355067  26.043  19.063   5.564
 4279POPC   PO455068  26.071  19.080   5.864
 4279POPC   GL155069  26.054  19.062   6.164
 4279POPC   GL255070  25.961  19.184   6.164
 4279POPC   C1A55071  26.018  19.108   6.464
 4279POPC   D2A55072  26.065  19.044   6.764
 4279POPC   C3A55073  26.015  19.067   7.064
 4279POPC   C4A55074  26.076  19.045   7.364
 4279POPC   C1B55075  25.874  19.237   6.464
 4279POPC   C2B55076  25.905  19.250   6.764
 4279POPC   C3B55077  25.923  19.258   7.064
 4279POPC   C4B55078  25.831  19.295   7.364
 4280POPC   NC355079  38.478  31.441   5.564
 4280POPC   PO455080  38.477  31.446   5.864
 4280POPC   GL155081  38.497  31.515   6.164
 4280POPC   GL255082  38.344  31.456   6.164
 4280POPC   C1A55083  38.456  31.520   6.464
 4280POPC   D2A55084  38.489  31.496   6.764
 4280POPC   C3A55085  38.406  31.444   7.064
 4280POPC   C4A55086  38.448  31.471   7.364
 4280POPC   C1B55087  38.162  31.534   6.464
 4280POPC   C2B55088  38.238  31.472   6.764
 4280POPC   C3B55089  38.199  31.505   7.064
 4280POPC   C4B55090  38.205  31.496   7.364
 4281POPC   NC355091  19.857  40.754   5.564
 4281POPC   PO455092  19.820  40.767   5.864
 4281POPC   GL155093  19.881  40.778   6.164
 4281POPC   GL255094  19.941  40.781   6.164
 4281POPC   C1A55095  19.868  40.739   6.464
 4281POPC   D2A55096  19.832  40.771   6.764
 4281POPC   C3A55097  19.884  40.749   7.064
 4281POPC   C4A55098  19.840  40.788   7.364
 4281POPC   C1B55099  20.099  40.734   6.464
 4281POPC   C2B55100  20.044  40.761   6.764
 4281POPC   C3B55101  20.057  40.784   7.064
 4281POPC   C4B55102  20.090  40.694   7.364
 4282POPC   NC355103  18.332   8.954   5.564
 4282POPC   PO455104  18.281   8.990   5.864
 4282POPC   GL155105  18.284   8.936   6.164
 4282POPC   GL255106  18.307   8.843   6.164
 4282POPC   C1A55107  18.317   8.997   6.464
 4282POPC   D2A55108  18.307   8.972   6.764
 4282POPC   C3A55109  18.294   8.989   7.064
 4282POPC   C4A55110  18.265   8.959   7.364
 4282POPC   C1B55111  18.379   8.719   6.464
 4282POPC   C2B55112  18.350   8.720   6.764
 4282POPC   C3B55113  18.429   8.764   7.064
 4282POPC   C4B55114  18.412   8.747   7.364
 4283POPC   NC355115  38.407  40.742   5.564
 4283POPC   PO455116  38.448  40.801   5.864
 4283POPC   GL155117  38.472  40.810   6.164
 4283POPC   GL255118  38.313  40.772   6.164
 4283POPC   C1A55119  38.470  40.800   6.464
 4283POPC   D2A55120  38.461  40.814   6.764
 4283POPC   C3A55121  38.421  40.814   7.064
 4283POPC   C4A55122  38.428  40.764   7.364
 4283POPC   C1B55123  38.250  40.756   6.464
 4283POPC   C2B55124  38.204  40.837   6.764
 4283POPC   C3B55125  38.178  40.776   7.064
 4283POPC   C4B55126  38.250  40.788   7.364
 4284POPC   NC355127  25.262  39.226   5.564
 4284POPC   PO455128  25.269  39.207   5.864
 4284POPC   GL155129  25.303  39.245   6.164
 4284POPC   GL255130  25.163  39.292   6.164
 4284POPC   C1A55131  25.229  39.277   6.464
 4284POPC   D2A55132  25.239  39.221   6.764
 4284POPC   C3A55133  25.229  39.185   7.064
 4284POPC   C4A55134  25.253  39.186   7.364
 4284POPC   C1B55135  25.064  39.320   6.464
 4284POPC   C2B55136  25.062  39.374   6.764
 4284POPC   C3B55137  25.010  39.362   7.064
 4284POPC   C4B55138  25.016  39.357   7.364
 4285POPC   NC355139   2.763  37.639   5.564
 4285POPC   PO455140   2.726  37.661   5.864
 4285POPC   GL155141   2.717  37.640   6.164
 4285POPC   GL255142   2.663  37.709   6.164
 4285POPC   C1A55143   2.811  37.718   6.464
 4285POPC   D2A55144   2.780  37.652   6.764
 4285POPC   C3A55145   2.803  37.643   7.064
 4285POPC   C4A55146   2.765  37.723   7.364
 4285POPC   C1B55147   2.572  37.755   6.464
 4285POPC   C2B55148   2.543  37.777   6.764
 4285POPC   C3B55149   2.583  37.813   7.064
 4285POPC   C4B55150   2.554  37.808   7.364
 4286POPC   NC355151  33.823  14.380   5.564
 4286POPC   PO455152  33.759  14.390   5.864
 4286POPC   GL155153  33.842  14.386   6.164
 4286POPC   GL255154  33.895  14.313   6.164
 4286POPC   C1A55155  33.839  14.439   6.464
 4286POPC   D2A55156  33.751  14.364   6.764
 4286POPC   C3A55157  33.820  14.356   7.064
 4286POPC   C4A55158  33.830  14.419   7.364
 4286POPC   C1B55159  34.010  14.249   6.464
 4286POPC   C2B55160  33.989  14.240   6.764
 4286POPC   C3B55161  33.994  14.207   7.064
 4286POPC   C4B55162  33.956  14.219   7.364
 4287POPC   NC355163  21.390   4.274   5.564
 4287POPC   PO455164  21.430   4.361   5.864
 4287POPC   GL155165  21.424   4.345   6.164
 4287POPC   GL255166  21.411   4.213   6.164
 4287POPC   C1A55167  21.392   4.288   6.464
 4287POPC   D2A55168  21.421   4.358   6.764
 4287POPC   C3A55169  21.385   4.298   7.064
 4287POPC   C4A55170  21.403   4.279   7.364
 4287POPC   C1B55171  21.496   4.124   6.464
 4287POPC   C2B55172  21.455   4.053   6.764
 4287POPC   C3B55173  21.489   4.104   7.064
 4287POPC   C4B55174  21.437   4.118   7.364
 4288POPC   NC355175  38.436  36.897   5.564
 4288POPC   PO455176  38.492  36.890   5.864
 4288POPC   GL155177  38.454  36.856   6.164
 4288POPC   GL255178  38.368  37.066   6.164
 4288POPC   C1A55179  38.410  36.940   6.464
 4288POPC   D2A55180  38.496  36.945   6.764
 4288POPC   C3A55181  38.488  36.935   7.064
 4288POPC   C4A55182  38.477  36.892   7.364
 4288POPC   C1B55183  38.418  37.104   6.464
 4288POPC   C2B55184  38.404  37.111   6.764
 4288POPC   C3B55185  38.331  37.180   7.064
 4288POPC   C4B55186  38.331  37.185   7.364
 4289POPC   NC355187   1.973  17.468   5.564
 4289POPC   PO455188   1.958  17.506   5.864
 4289POPC   GL155189   1.974  17.488   6.164
 4289POPC   GL255190   1.906  17.619   6.164
 4289POPC   C1A55191   1.987  17.532   6.464
 4289POPC   D2A55192   2.027  17.546   6.764
 4289POPC   C3A55193   1.991  17.508   7.064
 4289POPC   C4A55194   1.965  17.493   7.364
 4289POPC   C1B55195   1.815  17.611   6.464
 4289POPC   C2B55196   1.787  17.588   6.764
 4289POPC   C3B55197   1.798  17.682   7.064
 4289POPC   C4B55198   1.750  17.678   7.364
 4290POPC   NC355199  21.385  39.202   5.564
 4290POPC   PO455200  21.353  39.271   5.864
 4290POPC   GL155201  21.428  39.217   6.164
 4290POPC   GL255202  21.496  39.292   6.164
 4290POPC   C1A55203  21.407  39.263   6.464
 4290POPC   D2A55204  21.397  39.272   6.764
 4290POPC   C3A55205  21.432  39.270   7.064
 4290POPC   C4A55206  21.416  39.210   7.364
 4290POPC   C1B55207  21.631  39.370   6.464
 4290POPC   C2B55208  21.628  39.319   6.764
 4290POPC   C3B55209  21.617  39.307   7.064
 4290POPC   C4B55210  21.593  39.306   7.364
 4291POPC   NC355211  35.314  41.599   5.564
 4291POPC   PO455212  35.339  41.522   5.864
 4291POPC   GL155213  35.390  41.607   6.164
 4291POPC   GL255214  35.511  41.578   6.164
 4291POPC   C1A55215  35.353  41.532   6.464
 4291POPC   D2A55216  35.332  41.598   6.764
 4291POPC   C3A55217  35.365  41.566   7.064
 4291POPC   C4A55218  35.357  41.512   7.364
 4291POPC   C1B55219  35.590  41.605   6.464
 4291POPC   C2B55220  35.579  41.645   6.764
 4291POPC   C3B55221  35.641  41.587   7.064
 4291POPC   C4B55222  35.638  41.565   7.364
 4292POPC   NC355223  40.805   5.885   5.564
 4292POPC   PO455224  40.799   5.901   5.864
 4292POPC   GL155225  40.822   5.858   6.164
 4292POPC   GL255226  40.678   6.013   6.164
 4292POPC   C1A55227  40.813   5.822   6.464
 4292POPC   D2A55228  40.742   5.826   6.764
 4292POPC   C3A55229  40.800   5.883   7.064
 4292POPC   C4A55230  40.831   5.823   7.364
 4292POPC   C1B55231  40.623   6.039   6.464
 4292POPC   C2B55232  40.652   6.105   6.764
 4292POPC   C3B55233  40.650   6.032   7.064
 4292POPC   C4B55234  40.662   6.057   7.364
 4293POPC   NC355235  15.149  17.474   5.564
 4293POPC   PO455236  15.200  17.527   5.864
 4293POPC   GL155237  15.151  17.503   6.164
 4293POPC   GL255238  15.214  17.593   6.164
 4293POPC   C1A55239  15.131  17.513   6.464
 4293POPC   D2A55240  15.199  17.550   6.764
 4293POPC   C3A55241  15.196  17.496   7.064
 4293POPC   C4A55242  15.147  17.460   7.364
 4293POPC   C1B55243  15.243  17.733   6.464
 4293POPC   C2B55244  15.170  17.791   6.764
 4293POPC   C3B55245  15.235  17.782   7.064
 4293POPC   C4B55246  15.251  17.715   7.364
 4294POPC   NC355247   4.333  35.391   5.564
 4294POPC   PO455248   4.296  35.378   5.864
 4294POPC   GL155249   4.276  35.317   6.164
 4294POPC   GL255250   4.362  35.457   6.164
 4294POPC   C1A55251   4.332  35.390   6.464
 4294POPC   D2A55252   4.332  35.391   6.764
 4294POPC   C3A55253   4.358  35.321   7.064
 4294POPC   C4A55254   4.333  35.307   7.364
 4294POPC   C1B55255   4.528  35.532   6.464
 4294POPC   C2B55256   4.494  35.562   6.764
 4294POPC   C3B55257   4.480  35.531   7.064
 4294POPC   C4B55258   4.522  35.548   7.364
 4295POPC   NC355259  14.412  11.251   5.564
 4295POPC   PO455260  14.451  11.305   5.864
 4295POPC   GL155261  14.359  11.336   6.164
 4295POPC   GL255262  14.501  11.218   6.164
 4295POPC   C1A55263  14.368  11.328   6.464
 4295POPC   D2A55264  14.398  11.335   6.764
 4295POPC   C3A55265  14.433  11.265   7.064
 4295POPC   C4A55266  14.370  11.286   7.364
 4295POPC   C1B55267  14.634  11.133   6.464
 4295POPC   C2B55268  14.622  11.114   6.764
 4295POPC   C3B55269  14.599  11.145   7.064
 4295POPC   C4B55270  14.632  11.178   7.364
 4296POPC   NC355271  22.938  22.161   5.564
 4296POPC   PO455272  22.943  22.121   5.864
 4296POPC   GL155273  22.963  22.114   6.164
 4296POPC   GL255274  22.842  22.054   6.164
 4296POPC   C1A55275  22.978  22.162   6.464
 4296POPC   D2A55276  22.934  22.127   6.764
 4296POPC   C3A55277  22.890  22.196   7.064
 4296POPC   C4A55278  22.889  22.165   7.364
 4296POPC   C1B55279  22.788  21.921   6.464
 4296POPC   C2B55280  22.765  22.007   6.764
 4296POPC   C3B55281  22.770  21.934   7.064
 4296POPC   C4B55282  22.824  21.939   7.364
 4297POPC   NC355283  37.673  31.484   5.564
 4297POPC   PO455284  37.711  31.500   5.864
 4297POPC   GL155285  37.711  31.467   6.164
 4297POPC   GL255286  37.637  31.331   6.164
 4297POPC   C1A55287  37.675  31.497   6.464
 4297POPC   D2A55288  37.723  31.487   6.764
 4297POPC   C3A55289  37.666  31.513   7.064
 4297POPC   C4A55290  37.651  31.510   7.364
 4297POPC   C1B55291  37.731  31.249   6.464
 4297POPC   C2B55292  37.687  31.189   6.764
 4297POPC   C3B55293  37.645  31.199   7.064
 4297POPC   C4B55294  37.650  31.265   7.364
 4298POPC   NC355295  27.631   5.859   5.564
 4298POPC   PO455296  27.592   5.914   5.864
 4298POPC   GL155297  27.557   5.867   6.164
 4298POPC   GL255298  27.517   5.903   6.164
 4298POPC   C1A55299  27.610   5.848   6.464
 4298POPC   D2A55300  27.629   5.857   6.764
 4298POPC   C3A55301  27.561   5.887   7.064
 4298POPC   C4A55302  27.621   5.891   7.364
 4298POPC   C1B55303  27.367   6.028   6.464
 4298POPC   C2B55304  27.399   6.004   6.764
 4298POPC   C3B55305  27.378   5.953   7.064
 4298POPC   C4B55306  27.372   5.977   7.364
 4299POPC   NC355307  11.282  42.330   5.564
 4299POPC   PO455308  11.321  42.326   5.864
 4299POPC   GL155309  11.326  42.377   6.164
 4299POPC   GL255310  11.219  42.332   6.164
 4299POPC   C1A55311  11.281  42.285   6.464
 4299POPC   D2A55312  11.266  42.323   6.764
 4299POPC   C3A55313  11.336  42.365   7.064
 4299POPC   C4A55314  11.271  42.370   7.364
 4299POPC   C1B55315  11.078  42.307   6.464
 4299POPC   C2B55316  11.037  42.342   6.764
 4299POPC   C3B55317  11.043  42.339   7.064
 4299POPC   C4B55318  11.062  42.280   7.364
 4300POPC   NC355319  40.005  12.893   5.564
 4300POPC   PO455320  40.034  12.834   5.864
 4300POPC   GL155321  40.049  12.896   6.164
 4300POPC   GL255322  40.141  12.915   6.164
 4300POPC   C1A55323  39.984  12.812   6.464
 4300POPC   D2A55324  39.979  12.842   6.764
 4300POPC   C3A55325  39.969  12.802   7.064
 4300POPC   C4A55326  39.967  12.839   7.364
 4300POPC   C1B55327  40.268  12.960   6.464
 4300POPC   C2B55328  40.271  12.983   6.764
 4300POPC   C3B55329  40.222  13.021   7.064
 4300POPC   C4B55330  40.228  12.950   7.364
 4301POPC   NC355331   3.495   2.740   5.564
 4301POPC   PO455332   3.562   2.737   5.864
 4301POPC   GL155333   3.572   2.730   6.164
 4301POPC   GL255334   3.479   2.872   6.164
 4301POPC   C1A55335   3.591   2.770   6.464
 4301POPC   D2A55336   3.547   2.718   6.764
 4301POPC   C3A55337   3.528   2.774   7.064
 4301POPC   C4A55338   3.515   2.740   7.364
 4301POPC   C1B55339   3.395   2.927   6.464
 4301POPC   C2B55340   3.422   2.978   6.764
 4301POPC   C3B55341   3.434   2.963   7.064
 4301POPC   C4B55342   3.431   2.972   7.364
 4302POPC   NC355343   6.670   9.709   5.564
 4302POPC   PO455344   6.610   9.705   5.864
 4302POPC   GL155345   6.672   9.775   6.164
 4302POPC   GL255346   6.607   9.705   6.164
 4302POPC   C1A55347   6.638   9.781   6.464
 4302POPC   D2A55348   6.656   9.712   6.764
 4302POPC   C3A55349   6.650   9.751   7.064
 4302POPC   C4A55350   6.634   9.778   7.364
 4302POPC   C1B55351   6.476   9.520   6.464
 4302POPC   C2B55352   6.508   9.604   6.764
 4302POPC   C3B55353   6.451   9.562   7.064
 4302POPC   C4B55354   6.444   9.605   7.364
 4303POPC   NC355355  12.060  41.590   5.564
 4303POPC   PO455356  12.102  41.526   5.864
 4303POPC   GL155357  12.056  41.554   6.164
 4303POPC   GL255358  12.017  41.460   6.164
 4303POPC   C1A55359  12.098  41.581   6.464
 4303POPC   D2A55360  12.096  41.563   6.764
 4303POPC   C3A55361  12.079  41.515   7.064
 4303POPC   C4A55362  12.091  41.551   7.364
 4303POPC   C1B55363  12.027  41.295   6.464
 4303POPC   C2B55364  12.000  41.344   6.764
 4303POPC   C3B55365  12.052  41.325   7.064
 4303POPC   C4B55366  12.022  41.357   7.364
 4304POPC   NC355367  22.144   6.648   5.564
 4304POPC   PO455368  22.160   6.605   5.864
 4304POPC   GL155369  22.114   6.601   6.164
 4304POPC   GL255370  22.252   6.656   6.164
 4304POPC   C1A55371  22.160   6.611   6.464
 4304POPC   D2A55372  22.187   6.670   6.764
 4304POPC   C3A55373  22.151   6.610   7.064
 4304POPC   C4A55374  22.167   6.647   7.364
 4304POPC   C1B55375  22.366   6.628   6.464
 4304POPC   C2B55376  22.397   6.628   6.764
 4304POPC   C3B55377  22.386   6.589   7.064
 4304POPC   C4B55378  22.400   6.576   7.364
 4305POPC   NC355379  18.258  38.439   5.564
 4305POPC   PO455380  18.313  38.460   5.864
 4305POPC   GL155381  18.330  38.432   6.164
 4305POPC   GL255382  18.297  38.611   6.164
 4305POPC   C1A55383  18.323  38.467   6.464
 4305POPC   D2A55384  18.297  38.462   6.764
 4305POPC   C3A55385  18.286  38.437   7.064
 4305POPC   C4A55386  18.324  38.412   7.364
 4305POPC   C1B55387  18.298  38.661   6.464
 4305POPC   C2B55388  18.306  38.677   6.764
 4305POPC   C3B55389  18.304  38.736   7.064
 4305POPC   C4B55390  18.353  38.674   7.364
 4306POPC   NC355391   4.293  42.292   5.564
 4306POPC   PO455392   4.365  42.314   5.864
 4306POPC   GL155393   4.329  42.330   6.164
 4306POPC   GL255394   4.331  42.422   6.164
 4306POPC   C1A55395   4.326  42.321   6.464
 4306POPC   D2A55396   4.320  42.344   6.764
 4306POPC   C3A55397   4.292  42.365   7.064
 4306POPC   C4A55398   4.341  42.316   7.364
 4306POPC   C1B55399   4.338  42.539   6.464
 4306POPC   C2B55400   4.374  42.604   6.764
 4306POPC   C3B55401   4.412  42.596   7.064
 4306POPC   C4B55402   4.415  42.563   7.364
 4307POPC   NC355403  33.033  33.846   5.564
 4307POPC   PO455404  32.982  33.839   5.864
 4307POPC   GL155405  33.002  33.815   6.164
 4307POPC   GL255406  32.947  33.747   6.164
 4307POPC   C1A55407  33.054  33.810   6.464
 4307POPC   D2A55408  33.070  33.755   6.764
 4307POPC   C3A55409  33.007  33.787   7.064
 4307POPC   C4A55410  33.058  33.775   7.364
 4307POPC   C1B55411  32.803  33.782   6.464
 4307POPC   C2B55412  32.744  33.770   6.764
 4307POPC   C3B55413  32.725  33.811   7.064
 4307POPC   C4B55414  32.762  33.792   7.364
 4308POPC   NC355415   3.574   1.185   5.564
 4308POPC   PO455416   3.555   1.173   5.864
 4308POPC   GL155417   3.573   1.233   6.164
 4308POPC   GL255418   3.669   1.309   6.164
 4308POPC   C1A55419   3.534   1.177   6.464
 4308POPC   D2A55420   3.496   1.255   6.764
 4308POPC   C3A55421   3.515   1.261   7.064
 4308POPC   C4A55422   3.535   1.191   7.364
 4308POPC   C1B55423   3.748   1.314   6.464
 4308POPC   C2B55424   3.722   1.379   6.764
 4308POPC   C3B55425   3.773   1.294   7.064
 4308POPC   C4B55426   3.799   1.343   7.364
 4309POPC   NC355427  29.129  24.478   5.564
 4309POPC   PO455428  29.131  24.449   5.864
 4309POPC   GL155429  29.143  24.486   6.164
 4309POPC   GL255430  29.215  24.561   6.164
 4309POPC   C1A55431  29.110  24.445   6.464
 4309POPC   D2A55432  29.128  24.537   6.764
 4309POPC   C3A55433  29.124  24.535   7.064
 4309POPC   C4A55434  29.178  24.475   7.364
 4309POPC   C1B55435  29.396  24.531   6.464
 4309POPC   C2B55436  29.417  24.573   6.764
 4309POPC   C3B55437  29.377  24.552   7.064
 4309POPC   C4B55438  29.419  24.541   7.364
 4310POPC   NC355439  32.264  40.765   5.564
 4310POPC   PO455440  32.245  40.741   5.864
 4310POPC   GL155441  32.223  40.793   6.164
 4310POPC   GL255442  32.146  40.891   6.164
 4310POPC   C1A55443  32.256  40.752   6.464
 4310POPC   D2A55444  32.229  40.746   6.764
 4310POPC   C3A55445  32.200  40.777   7.064
 4310POPC   C4A55446  32.209  40.734   7.364
 4310POPC   C1B55447  32.023  40.929   6.464
 4310POPC   C2B55448  32.078  40.867   6.764
 4310POPC   C3B55449  32.063  40.913   7.064
 4310POPC   C4B55450  32.038  40.945   7.364
 4311POPC   NC355451  21.340  34.609   5.564
 4311POPC   PO455452  21.436  34.539   5.864
 4311POPC   GL155453  21.435  34.580   6.164
 4311POPC   GL255454  21.530  34.601   6.164
 4311POPC   C1A55455  21.414  34.602   6.464
 4311POPC   D2A55456  21.345  34.590   6.764
 4311POPC   C3A55457  21.379  34.609   7.064
 4311POPC   C4A55458  21.401  34.585   7.364
 4311POPC   C1B55459  21.590  34.627   6.464
 4311POPC   C2B55460  21.589  34.612   6.764
 4311POPC   C3B55461  21.619  34.620   7.064
 4311POPC   C4B55462  21.587  34.591   7.364
 4312POPC   NC355463  30.650  30.713   5.564
 4312POPC   PO455464  30.736  30.702   5.864
 4312POPC   GL155465  30.676  30.695   6.164
 4312POPC   GL255466  30.553  30.699   6.164
 4312POPC   C1A55467  30.702  30.728   6.464
 4312POPC   D2A55468  30.683  30.685   6.764
 4312POPC   C3A55469  30.720  30.663   7.064
 4312POPC   C4A55470  30.732  30.731   7.364
 4312POPC   C1B55471  30.400  30.683   6.464
 4312POPC   C2B55472  30.402  30.640   6.764
 4312POPC   C3B55473  30.411  30.622   7.064
 4312POPC   C4B55474  30.404  30.649   7.364
 4313POPC   NC355475   6.620   2.739   5.564
 4313POPC   PO455476   6.648   2.790   5.864
 4313POPC   GL155477   6.618   2.731   6.164
 4313POPC   GL255478   6.573   2.844   6.164
 4313POPC   C1A55479   6.634   2.733   6.464
 4313POPC   D2A55480   6.608   2.807   6.764
 4313POPC   C3A55481   6.654   2.780   7.064
 4313POPC   C4A55482   6.602   2.718   7.364
 4313POPC   C1B55483   6.522   3.002   6.464
 4313POPC   C2B55484   6.485   2.953   6.764
 4313POPC   C3B55485   6.534   2.940   7.064
 4313POPC   C4B55486   6.522   2.964   7.364
 4314POPC   NC355487  41.599  34.619   5.564
 4314POPC   PO455488  41.578  34.601   5.864
 4314POPC   GL155489  41.590  34.619   6.164
 4314POPC   GL255490  41.484  34.663   6.164
 4314POPC   C1A55491  41.534  34.558   6.464
 4314POPC   D2A55492  41.546  34.601   6.764
 4314POPC   C3A55493  41.582  34.558   7.064
 4314POPC   C4A55494  41.548  34.562   7.364
 4314POPC   C1B55495  41.369  34.803   6.464
 4314POPC   C2B55496  41.388  34.750   6.764
 4314POPC   C3B55497  41.415  34.764   7.064
 4314POPC   C4B55498  41.407  34.781   7.364
 4315POPC   NC355499   5.086   5.871   5.564
 4315POPC   PO455500   5.076   5.889   5.864
 4315POPC   GL155501   5.114   5.877   6.164
 4315POPC   GL255502   5.006   6.018   6.164
 4315POPC   C1A55503   5.108   5.911   6.464
 4315POPC   D2A55504   5.142   5.870   6.764
 4315POPC   C3A55505   5.055   5.900   7.064
 4315POPC   C4A55506   5.088   5.917   7.364
 4315POPC   C1B55507   4.955   6.083   6.464
 4315POPC   C2B55508   5.006   6.057   6.764
 4315POPC   C3B55509   4.977   6.032   7.064
 4315POPC   C4B55510   4.991   6.120   7.364
 4316POPC   NC355511  36.086  25.998   5.564
 4316POPC   PO455512  36.174  26.059   5.864
 4316POPC   GL155513  36.094  26.004   6.164
 4316POPC   GL255514  36.049  26.032   6.164
 4316POPC   C1A55515  36.084  26.014   6.464
 4316POPC   D2A55516  36.094  26.037   6.764
 4316POPC   C3A55517  36.107  26.084   7.064
 4316POPC   C4A55518  36.174  26.022   7.364
 4316POPC   C1B55519  35.942  25.949   6.464
 4316POPC   C2B55520  35.858  25.958   6.764
 4316POPC   C3B55521  35.870  25.924   7.064
 4316POPC   C4B55522  35.853  25.944   7.364
 4317POPC   NC355523  33.061   4.299   5.564
 4317POPC   PO455524  33.008   4.290   5.864
 4317POPC   GL155525  33.073   4.350   6.164
 4317POPC   GL255526  33.175   4.393   6.164
 4317POPC   C1A55527  33.038   4.360   6.464
 4317POPC   D2A55528  33.038   4.349   6.764
 4317POPC   C3A55529  33.030   4.332   7.064
 4317POPC   C4A55530  32.988   4.317   7.364
 4317POPC   C1B55531  33.260   4.370   6.464
 4317POPC   C2B55532  33.299   4.358   6.764
 4317POPC   C3B55533  33.303   4.357   7.064
 4317POPC   C4B55534  33.296   4.445   7.364
 4318POPC   NC355535  36.908  11.293   5.564
 4318POPC   PO455536  36.951  11.252   5.864
 4318POPC   GL155537  36.944  11.292   6.164
 4318POPC   GL255538  36.959  11.400   6.164
 4318POPC   C1A55539  36.875  11.290   6.464
 4318POPC   D2A55540  36.878  11.299   6.764
 4318POPC   C3A55541  36.952  11.319   7.064
 4318POPC   C4A55542  36.952  11.254   7.364
 4318POPC   C1B55543  36.972  11.548   6.464
 4318POPC   C2B55544  36.951  11.570   6.764
 4318POPC   C3B55545  36.983  11.529   7.064
 4318POPC   C4B55546  36.997  11.549   7.364
 4319POPC   NC355547  40.733  19.012   5.564
 4319POPC   PO455548  40.771  19.103   5.864
 4319POPC   GL155549  40.757  19.036   6.164
 4319POPC   GL255550  40.889  19.185   6.164
 4319POPC   C1A55551  40.763  19.062   6.464
 4319POPC   D2A55552  40.757  19.035   6.764
 4319POPC   C3A55553  40.760  19.035   7.064
 4319POPC   C4A55554  40.792  19.086   7.364
 4319POPC   C1B55555  40.994  19.225   6.464
 4319POPC   C2B55556  40.989  19.247   6.764
 4319POPC   C3B55557  40.934  19.252   7.064
 4319POPC   C4B55558  40.955  19.211   7.364
 4320POPC   NC355559  37.641   8.977   5.564
 4320POPC   PO455560  37.658   8.956   5.864
 4320POPC   GL155561  37.660   9.022   6.164
 4320POPC   GL255562  37.684   9.054   6.164
 4320POPC   C1A55563  37.717   8.979   6.464
 4320POPC   D2A55564  37.680   9.016   6.764
 4320POPC   C3A55565  37.728   8.987   7.064
 4320POPC   C4A55566  37.720   9.020   7.364
 4320POPC   C1B55567  37.788   9.206   6.464
 4320POPC   C2B55568  37.794   9.213   6.764
 4320POPC   C3B55569  37.723   9.193   7.064
 4320POPC   C4B55570  37.732   9.175   7.364
 4321POPC   NC355571  36.162  40.802   5.564
 4321POPC   PO455572  36.124  40.780   5.864
 4321POPC   GL155573  36.132  40.783   6.164
 4321POPC   GL255574  36.056  40.868   6.164
 4321POPC   C1A55575  36.093  40.735   6.464
 4321POPC   D2A55576  36.128  40.811   6.764
 4321POPC   C3A55577  36.119  40.774   7.064
 4321POPC   C4A55578  36.151  40.797   7.364
 4321POPC   C1B55579  35.936  41.008   6.464
 4321POPC   C2B55580  35.952  41.025   6.764
 4321POPC   C3B55581  35.931  40.940   7.064
 4321POPC   C4B55582  36.013  40.988   7.364
 4322POPC   NC355583   6.676   5.887   5.564
 4322POPC   PO455584   6.647   5.910   5.864
 4322POPC   GL155585   6.656   5.899   6.164
 4322POPC   GL255586   6.628   5.754   6.164
 4322POPC   C1A55587   6.634   5.849   6.464
 4322POPC   D2A55588   6.632   5.870   6.764
 4322POPC   C3A55589   6.602   5.918   7.064
 4322POPC   C4A55590   6.654   5.879   7.364
 4322POPC   C1B55591   6.493   5.642   6.464
 4322POPC   C2B55592   6.495   5.670   6.764
 4322POPC   C3B55593   6.555   5.699   7.064
 4322POPC   C4B55594   6.559   5.625   7.364
 4323POPC   NC355595  43.904   9.785   5.564
 4323POPC   PO455596  43.931   9.702   5.864
 4323POPC   GL155597  43.851   9.749   6.164
 4323POPC   GL255598  43.911   9.833   6.164
 4323POPC   C1A55599  43.906   9.772   6.464
 4323POPC   D2A55600  43.866   9.711   6.764
 4323POPC   C3A55601  43.890   9.733   7.064
 4323POPC   C4A55602  43.844   9.734   7.364
 4323POPC   C1B55603  44.006   9.954   6.464
 4323POPC   C2B55604  43.995   9.981   6.764
 4323POPC   C3B55605  44.042   9.999   7.064
 4323POPC   C4B55606  44.034   9.939   7.364
 4324POPC   NC355607  22.897  31.482   5.564
 4324POPC   PO455608  22.928  31.496   5.864
 4324POPC   GL155609  22.906  31.514   6.164
 4324POPC   GL255610  22.785  31.390   6.164
 4324POPC   C1A55611  22.910  31.438   6.464
 4324POPC   D2A55612  22.925  31.434   6.764
 4324POPC   C3A55613  22.956  31.470   7.064
 4324POPC   C4A55614  22.904  31.434   7.364
 4324POPC   C1B55615  22.742  31.347   6.464
 4324POPC   C2B55616  22.687  31.406   6.764
 4324POPC   C3B55617  22.718  31.399   7.064
 4324POPC   C4B55618  22.706  31.403   7.364
 4325POPC   NC355619  39.979  15.203   5.564
 4325POPC   PO455620  40.033  15.189   5.864
 4325POPC   GL155621  40.005  15.215   6.164
 4325POPC   GL255622  40.097  15.257   6.164
 4325POPC   C1A55623  39.977  15.151   6.464
 4325POPC   D2A55624  39.971  15.158   6.764
 4325POPC   C3A55625  39.960  15.146   7.064
 4325POPC   C4A55626  40.043  15.195   7.364
 4325POPC   C1B55627  40.097  15.407   6.464
 4325POPC   C2B55628  40.122  15.363   6.764
 4325POPC   C3B55629  40.118  15.361   7.064
 4325POPC   C4B55630  40.160  15.410   7.364
 4326POPC   NC355631  25.248  42.310   5.564
 4326POPC   PO455632  25.275  42.349   5.864
 4326POPC   GL155633  25.278  42.358   6.164
 4326POPC   GL255634  25.300  42.452   6.164
 4326POPC   C1A55635  25.300  42.299   6.464
 4326POPC   D2A55636  25.301  42.375   6.764
 4326POPC   C3A55637  25.289  42.350   7.064
 4326POPC   C4A55638  25.232  42.354   7.364
 4326POPC   C1B55639  25.322  42.609   6.464
 4326POPC   C2B55640  25.278  42.562   6.764
 4326POPC   C3B55641  25.344  42.574   7.064
 4326POPC   C4B55642  25.264  42.584   7.364
 4327POPC   NC355643  10.504  28.362   5.564
 4327POPC   PO455644  10.553  28.390   5.864
 4327POPC   GL155645  10.568  28.366   6.164
 4327POPC   GL255646  10.631  28.315   6.164
 4327POPC   C1A55647  10.517  28.404   6.464
 4327POPC   D2A55648  10.485  28.411   6.764
 4327POPC   C3A55649  10.536  28.388   7.064
 4327POPC   C4A55650  10.530  28.346   7.364
 4327POPC   C1B55651  10.783  28.240   6.464
 4327POPC   C2B55652  10.785  28.260   6.764
 4327POPC   C3B55653  10.772  28.257   7.064
 4327POPC   C4B55654  10.761  28.303   7.364
 4328POPC   NC355655  14.384  21.426   5.564
 4328POPC   PO455656  14.364  21.349   5.864
 4328POPC   GL155657  14.449  21.415   6.164
 4328POPC   GL255658  14.451  21.561   6.164
 4328POPC   C1A55659  14.377  21.357   6.464
 4328POPC   D2A55660  14.358  21.366   6.764
 4328POPC   C3A55661  14.377  21.380   7.064
 4328POPC   C4A55662  14.392  21.404   7.364
 4328POPC   C1B55663  14.433  21.631   6.464
 4328POPC   C2B55664  14.441  21.681   6.764
 4328POPC   C3B55665  14.444  21.673   7.064
 4328POPC   C4B55666  14.358  21.632   7.364
 4329POPC   NC355667  23.737  33.843   5.564
 4329POPC   PO455668  23.682  33.784   5.864
 4329POPC   GL155669  23.671  33.783   6.164
 4329POPC   GL255670  23.857  33.826   6.164
 4329POPC   C1A55671  23.693  33.845   6.464
 4329POPC   D2A55672  23.759  33.808   6.764
 4329POPC   C3A55673  23.731  33.832   7.064
 4329POPC   C4A55674  23.728  33.763   7.364
 4329POPC   C1B55675  23.904  33.841   6.464
 4329POPC   C2B55676  23.973  33.846   6.764
 4329POPC   C3B55677  23.931  33.878   7.064
 4329POPC   C4B55678  23.916  33.895   7.364
 4330POPC   NC355679  16.735   5.112   5.564
 4330POPC   PO455680  16.770   5.046   5.864
 4330POPC   GL155681  16.723   5.138   6.164
 4330POPC   GL255682  16.662   5.214   6.164
 4330POPC   C1A55683  16.744   5.110   6.464
 4330POPC   D2A55684  16.770   5.128   6.764
 4330POPC   C3A55685  16.742   5.043   7.064
 4330POPC   C4A55686  16.698   5.070   7.364
 4330POPC   C1B55687  16.617   5.296   6.464
 4330POPC   C2B55688  16.697   5.306   6.764
 4330POPC   C3B55689  16.626   5.347   7.064
 4330POPC   C4B55690  16.690   5.310   7.364
 4331POPC   NC355691  25.267  37.652   5.564
 4331POPC   PO455692  25.315  37.658   5.864
 4331POPC   GL155693  25.307  37.709   6.164
 4331POPC   GL255694  25.145  37.651   6.164
 4331POPC   C1A55695  25.242  37.639   6.464
 4331POPC   D2A55696  25.301  37.660   6.764
 4331POPC   C3A55697  25.296  37.711   7.064
 4331POPC   C4A55698  25.247  37.704   7.364
 4331POPC   C1B55699  24.977  37.663   6.464
 4331POPC   C2B55700  25.057  37.706   6.764
 4331POPC   C3B55701  25.046  37.719   7.064
 4331POPC   C4B55702  24.987  37.633   7.364
 4332POPC   NC355703  12.843  40.749   5.564
 4332POPC   PO455704  12.822  40.751   5.864
 4332POPC   GL155705  12.899  40.774   6.164
 4332POPC   GL255706  12.823  40.875   6.164
 4332POPC   C1A55707  12.809  40.741   6.464
 4332POPC   D2A55708  12.854  40.778   6.764
 4332POPC   C3A55709  12.861  40.748   7.064
 4332POPC   C4A55710  12.829  40.753   7.364
 4332POPC   C1B55711  12.821  41.010   6.464
 4332POPC   C2B55712  12.849  41.042   6.764
 4332POPC   C3B55713  12.845  40.992   7.064
 4332POPC   C4B55714  12.817  41.027   7.364
 4333POPC   NC355715   7.371  26.812   5.564
 4333POPC   PO455716   7.402  26.864   5.864
 4333POPC   GL155717   7.416  26.790   6.164
 4333POPC   GL255718   7.415  26.942   6.164
 4333POPC   C1A55719   7.416  26.852   6.464
 4333POPC   D2A55720   7.381  26.793   6.764
 4333POPC   C3A55721   7.402  26.821   7.064
 4333POPC   C4A55722   7.440  26.850   7.364
 4333POPC   C1B55723   7.334  27.073   6.464
 4333POPC   C2B55724   7.365  27.017   6.764
 4333POPC   C3B55725   7.310  27.079   7.064
 4333POPC   C4B55726   7.385  27.095   7.364
 4334POPC   NC355727  16.753  11.287   5.564
 4334POPC   PO455728  16.752  11.324   5.864
 4334POPC   GL155729  16.748  11.318   6.164
 4334POPC   GL255730  16.826  11.417   6.164
 4334POPC   C1A55731  16.737  11.330   6.464
 4334POPC   D2A55732  16.776  11.295   6.764
 4334POPC   C3A55733  16.774  11.311   7.064
 4334POPC   C4A55734  16.721  11.350   7.364
 4334POPC   C1B55735  16.873  11.509   6.464
 4334POPC   C2B55736  16.851  11.532   6.764
 4334POPC   C3B55737  16.878  11.541   7.064
 4334POPC   C4B55738  16.839  11.521   7.364
 4335POPC   NC355739  23.727  43.860   5.564
 4335POPC   PO455740  23.675  43.922   5.864
 4335POPC   GL155741  23.748  43.850   6.164
 4335POPC   GL255742  23.694  44.030   6.164
 4335POPC   C1A55743  23.667  43.888   6.464
 4335POPC   D2A55744  23.688  43.846   6.764
 4335POPC   C3A55745  23.686  43.847   7.064
 4335POPC   C4A55746  23.749  43.874   7.364
 4335POPC   C1B55747  23.679  44.175   6.464
 4335POPC   C2B55748  23.743  44.140   6.764
 4335POPC   C3B55749  23.737  44.109   7.064
 4335POPC   C4B55750  23.683  44.151   7.364
 4336POPC   NC355751  36.917  32.982   5.564
 4336POPC   PO455752  36.905  33.059   5.864
 4336POPC   GL155753  36.922  33.048   6.164
 4336POPC   GL255754  36.803  32.989   6.164
 4336POPC   C1A55755  36.877  33.040   6.464
 4336POPC   D2A55756  36.952  33.017   6.764
 4336POPC   C3A55757  36.930  33.016   7.064
 4336POPC   C4A55758  36.894  33.071   7.364
 4336POPC   C1B55759  36.643  32.997   6.464
 4336POPC   C2B55760  36.618  33.010   6.764
 4336POPC   C3B55761  36.681  32.996   7.064
 4336POPC   C4B55762  36.609  33.014   7.364
 4337POPC   NC355763   9.706  19.107   5.564
 4337POPC   PO455764   9.739  19.016   5.864
 4337POPC   GL155765   9.733  19.029   6.164
 4337POPC   GL255766   9.771  19.169   6.164
 4337POPC   C1A55767   9.715  19.095   6.464
 4337POPC   D2A55768   9.760  19.087   6.764
 4337POPC   C3A55769   9.789  19.062   7.064
 4337POPC   C4A55770   9.786  19.028   7.364
 4337POPC   C1B55771   9.733  19.279   6.464
 4337POPC   C2B55772   9.730  19.327   6.764
 4337POPC   C3B55773   9.756  19.265   7.064
 4337POPC   C4B55774   9.769  19.260   7.364
 4338POPC   NC355775  16.711  36.087   5.564
 4338POPC   PO455776  16.732  36.106   5.864
 4338POPC   GL155777  16.715  36.113   6.164
 4338POPC   GL255778  16.788  36.010   6.164
 4338POPC   C1A55779  16.722  36.105   6.464
 4338POPC   D2A55780  16.765  36.082   6.764
 4338POPC   C3A55781  16.686  36.109   7.064
 4338POPC   C4A55782  16.776  36.166   7.364
 4338POPC   C1B55783  16.777  35.880   6.464
 4338POPC   C2B55784  16.736  35.855   6.764
 4338POPC   C3B55785  16.832  35.869   7.064
 4338POPC   C4B55786  16.797  35.888   7.364
 4339POPC   NC355787   5.835  23.716   5.564
 4339POPC   PO455788   5.857  23.678   5.864
 4339POPC   GL155789   5.897  23.685   6.164
 4339POPC   GL255790   5.937  23.571   6.164
 4339POPC   C1A55791   5.874  23.724   6.464
 4339POPC   D2A55792   5.886  23.738   6.764
 4339POPC   C3A55793   5.882  23.672   7.064
 4339POPC   C4A55794   5.884  23.665   7.364
 4339POPC   C1B55795   6.057  23.507   6.464
 4339POPC   C2B55796   6.025  23.516   6.764
 4339POPC   C3B55797   6.054  23.559   7.064
 4339POPC   C4B55798   6.079  23.561   7.364
 4340POPC   NC355799   6.600  40.765   5.564
 4340POPC   PO455800   6.647  40.812   5.864
 4340POPC   GL155801   6.663  40.777   6.164
 4340POPC   GL255802   6.689  40.904   6.164
 4340POPC   C1A55803   6.695  40.736   6.464
 4340POPC   D2A55804   6.643  40.787   6.764
 4340POPC   C3A55805   6.682  40.747   7.064
 4340POPC   C4A55806   6.665  40.781   7.364
 4340POPC   C1B55807   6.783  40.920   6.464
 4340POPC   C2B55808   6.849  40.986   6.764
 4340POPC   C3B55809   6.811  40.909   7.064
 4340POPC   C4B55810   6.863  41.001   7.364
 4341POPC   NC355811   8.242  40.775   5.564
 4341POPC   PO455812   8.224  40.773   5.864
 4341POPC   GL155813   8.198  40.815   6.164
 4341POPC   GL255814   8.215  40.673   6.164
 4341POPC   C1A55815   8.173  40.771   6.464
 4341POPC   D2A55816   8.214  40.784   6.764
 4341POPC   C3A55817   8.230  40.806   7.064
 4341POPC   C4A55818   8.219  40.819   7.364
 4341POPC   C1B55819   8.124  40.583   6.464
 4341POPC   C2B55820   8.193  40.574   6.764
 4341POPC   C3B55821   8.154  40.583   7.064
 4341POPC   C4B55822   8.125  40.534   7.364
 4342POPC   NC355823  33.022  26.819   5.564
 4342POPC   PO455824  32.980  26.793   5.864
 4342POPC   GL155825  33.048  26.857   6.164
 4342POPC   GL255826  32.956  26.902   6.164
 4342POPC   C1A55827  33.046  26.771   6.464
 4342POPC   D2A55828  33.064  26.790   6.764
 4342POPC   C3A55829  33.021  26.843   7.064
 4342POPC   C4A55830  33.068  26.769   7.364
 4342POPC   C1B55831  32.861  26.971   6.464
 4342POPC   C2B55832  32.884  26.971   6.764
 4342POPC   C3B55833  32.897  26.990   7.064
 4342POPC   C4B55834  32.833  27.012   7.364
 4343POPC   NC355835  22.154   5.131   5.564
 4343POPC   PO455836  22.199   5.090   5.864
 4343POPC   GL155837  22.196   5.096   6.164
 4343POPC   GL255838  22.185   4.925   6.164
 4343POPC   C1A55839  22.115   5.084   6.464
 4343POPC   D2A55840  22.115   5.058   6.764
 4343POPC   C3A55841  22.195   5.099   7.064
 4343POPC   C4A55842  22.202   5.055   7.364
 4343POPC   C1B55843  22.153   4.822   6.464
 4343POPC   C2B55844  22.202   4.850   6.764
 4343POPC   C3B55845  22.127   4.875   7.064
 4343POPC   C4B55846  22.179   4.888   7.364
 4344POPC   NC355847   9.018   3.497   5.564
 4344POPC   PO455848   8.953   3.576   5.864
 4344POPC   GL155849   8.942   3.523   6.164
 4344POPC   GL255850   9.075   3.546   6.164
 4344POPC   C1A55851   8.992   3.505   6.464
 4344POPC   D2A55852   9.011   3.515   6.764
 4344POPC   C3A55853   8.976   3.579   7.064
 4344POPC   C4A55854   8.927   3.539   7.364
 4344POPC   C1B55855   9.229   3.561   6.464
 4344POPC   C2B55856   9.204   3.594   6.764
 4344POPC   C3B55857   9.224   3.604   7.064
 4344POPC   C4B55858   9.207   3.594   7.364
 4345POPC   NC355859  27.571  33.052   5.564
 4345POPC   PO455860  27.617  32.999   5.864
 4345POPC   GL155861  27.572  32.990   6.164
 4345POPC   GL255862  27.466  33.086   6.164
 4345POPC   C1A55863  27.551  33.026   6.464
 4345POPC   D2A55864  27.568  32.980   6.764
 4345POPC   C3A55865  27.580  33.060   7.064
 4345POPC   C4A55866  27.574  32.991   7.364
 4345POPC   C1B55867  27.371  33.217   6.464
 4345POPC   C2B55868  27.404  33.141   6.764
 4345POPC   C3B55869  27.428  33.145   7.064
 4345POPC   C4B55870  27.398  33.178   7.364
 4346POPC   NC355871   8.950   0.456   5.564
 4346POPC   PO455872   9.010   0.455   5.864
 4346POPC   GL155873   9.001   0.415   6.164
 4346POPC   GL255874   9.091   0.492   6.164
 4346POPC   C1A55875   8.976   0.460   6.464
 4346POPC   D2A55876   8.946   0.396   6.764
 4346POPC   C3A55877   8.962   0.398   7.064
 4346POPC   C4A55878   8.959   0.449   7.364
 4346POPC   C1B55879   9.248   0.463   6.464
 4346POPC   C2B55880   9.202   0.547   6.764
 4346POPC   C3B55881   9.247   0.530   7.064
 4346POPC   C4B55882   9.250   0.485   7.364
 4347POPC   NC355883  27.581  41.517   5.564
 4347POPC   PO455884  27.635  41.574   5.864
 4347POPC   GL155885  27.546  41.596   6.164
 4347POPC   GL255886  27.591  41.673   6.164
 4347POPC   C1A55887  27.607  41.575   6.464
 4347POPC   D2A55888  27.642  41.600   6.764
 4347POPC   C3A55889  27.604  41.537   7.064
 4347POPC   C4A55890  27.604  41.597   7.364
 4347POPC   C1B55891  27.696  41.797   6.464
 4347POPC   C2B55892  27.687  41.805   6.764
 4347POPC   C3B55893  27.616  41.793   7.064
 4347POPC   C4B55894  27.635  41.792   7.364
 4348POPC   NC355895  43.903   2.796   5.564
 4348POPC   PO455896  43.882   2.784   5.864
 4348POPC   GL155897  43.848   2.756   6.164
 4348POPC   GL255898  43.967   2.796   6.164
 4348POPC   C1A55899  43.874   2.723   6.464
 4348POPC   D2A55900  43.920   2.813   6.764
 4348POPC   C3A55901  43.881   2.810   7.064
 4348POPC   C4A55902  43.880   2.810   7.364
 4348POPC   C1B55903  44.053   2.923   6.464
 4348POPC   C2B55904  44.123   2.890   6.764
 4348POPC   C3B55905  44.055   2.936   7.064
 4348POPC   C4B55906  44.118   2.945   7.364
 4349POPC   NC355907  43.086   5.890   5.564
 4349POPC   PO455908  43.088   5.855   5.864
 4349POPC   GL155909  43.144   5.873   6.164
 4349POPC   GL255910  43.045   5.974   6.164
 4349POPC   C1A55911  43.097   5.872   6.464
 4349POPC   D2A55912  43.150   5.902   6.764
 4349POPC   C3A55913  43.142   5.891   7.064
 4349POPC   C4A55914  43.125   5.908   7.364
 4349POPC   C1B55915  43.021   6.039   6.464
 4349POPC   C2B55916  42.926   6.101   6.764
 4349POPC   C3B55917  42.924   6.035   7.064
 4349POPC   C4B55918  42.950   6.072   7.364
 4350POPC   NC355919  44.644  37.677   5.564
 4350POPC   PO455920  44.626  37.724   5.864
 4350POPC   GL155921  44.706  37.726   6.164
 4350POPC   GL255922  44.627  37.796   6.164
 4350POPC   C1A55923  44.694  37.717   6.464
 4350POPC   D2A55924  44.687  37.704   6.764
 4350POPC   C3A55925  44.641  37.642   7.064
 4350POPC   C4A55926  44.676  37.720   7.364
 4350POPC   C1B55927  44.591  37.873   6.464
 4350POPC   C2B55928  44.531  37.880   6.764
 4350POPC   C3B55929  44.610  37.928   7.064
 4350POPC   C4B55930  44.569  37.872   7.364
 4351POPC   NC355931  40.806  22.924   5.564
 4351POPC   PO455932  40.734  22.899   5.864
 4351POPC   GL155933  40.832  22.932   6.164
 4351POPC   GL255934  40.928  22.989   6.164
 4351POPC   C1A55935  40.819  22.962   6.464
 4351POPC   D2A55936  40.816  22.962   6.764
 4351POPC   C3A55937  40.776  22.973   7.064
 4351POPC   C4A55938  40.820  22.961   7.364
 4351POPC   C1B55939  41.052  23.032   6.464
 4351POPC   C2B55940  41.045  22.986   6.764
 4351POPC   C3B55941  41.071  22.969   7.064
 4351POPC   C4B55942  41.056  22.975   7.364
 4352POPC   NC355943  19.041  23.716   5.564
 4352POPC   PO455944  19.103  23.694   5.864
 4352POPC   GL155945  19.058  23.738   6.164
 4352POPC   GL255946  19.109  23.801   6.164
 4352POPC   C1A55947  19.009  23.724   6.464
 4352POPC   D2A55948  19.014  23.737   6.764
 4352POPC   C3A55949  19.030  23.710   7.064
 4352POPC   C4A55950  19.009  23.733   7.364
 4352POPC   C1B55951  19.056  24.000   6.464
 4352POPC   C2B55952  19.073  24.013   6.764
 4352POPC   C3B55953  19.084  23.965   7.064
 4352POPC   C4B55954  19.077  23.935   7.364
 4353POPC   NC355955  33.841  33.790   5.564
 4353POPC   PO455956  33.775  33.824   5.864
 4353POPC   GL155957  33.814  33.820   6.164
 4353POPC   GL255958  33.700  33.746   6.164
 4353POPC   C1A55959  33.753  33.810   6.464
 4353POPC   D2A55960  33.839  33.761   6.764
 4353POPC   C3A55961  33.770  33.772   7.064
 4353POPC   C4A55962  33.807  33.772   7.364
 4353POPC   C1B55963  33.555  33.753   6.464
 4353POPC   C2B55964  33.524  33.783   6.764
 4353POPC   C3B55965  33.572  33.726   7.064
 4353POPC   C4B55966  33.560  33.772   7.364
 4354POPC   NC355967  36.132  10.481   5.564
 4354POPC   PO455968  36.102  10.485   5.864
 4354POPC   GL155969  36.172  10.499   6.164
 4354POPC   GL255970  35.991  10.504   6.164
 4354POPC   C1A55971  36.117  10.508   6.464
 4354POPC   D2A55972  36.081  10.477   6.764
 4354POPC   C3A55973  36.133  10.480   7.064
 4354POPC   C4A55974  36.107  10.478   7.364
 4354POPC   C1B55975  35.915  10.564   6.464
 4354POPC   C2B55976  35.885  10.571   6.764
 4354POPC   C3B55977  35.839  10.536   7.064
 4354POPC   C4B55978  35.886  10.546   7.364
 4355POPC   NC355979  21.419   8.167   5.564
 4355POPC   PO455980  21.371   8.192   5.864
 4355POPC   GL155981  21.372   8.171   6.164
 4355POPC   GL255982  21.296   8.129   6.164
 4355POPC   C1A55983  21.364   8.176   6.464
 4355POPC   D2A55984  21.379   8.147   6.764
 4355POPC   C3A55985  21.428   8.214   7.064
 4355POPC   C4A55986  21.380   8.179   7.364
 4355POPC   C1B55987  21.178   8.165   6.464
 4355POPC   C2B55988  21.163   8.158   6.764
 4355POPC   C3B55989  21.161   8.175   7.064
 4355POPC   C4B55990  21.188   8.115   7.364
 4356POPC   NC355991  42.347   7.401   5.564
 4356POPC   PO455992  42.368   7.404   5.864
 4356POPC   GL155993  42.376   7.397   6.164
 4356POPC   GL255994  42.242   7.447   6.164
 4356POPC   C1A55995  42.344   7.372   6.464
 4356POPC   D2A55996  42.352   7.470   6.764
 4356POPC   C3A55997  42.312   7.376   7.064
 4356POPC   C4A55998  42.366   7.450   7.364
 4356POPC   C1B55999  42.102   7.447   6.464
 4356POPC   C2B56000  42.068   7.455   6.764
 4356POPC   C3B56001  42.139   7.437   7.064
 4356POPC   C4B56002  42.048   7.465   7.364
 4357POPC   NC356003   5.879   8.160   5.564
 4357POPC   PO456004   5.825   8.149   5.864
 4357POPC   GL156005   5.870   8.199   6.164
 4357POPC   GL256006   5.778   8.055   6.164
 4357POPC   C1A56007   5.878   8.147   6.464
 4357POPC   D2A56008   5.823   8.189   6.764
 4357POPC   C3A56009   5.857   8.203   7.064
 4357POPC   C4A56010   5.822   8.220   7.364
 4357POPC   C1B56011   5.759   7.963   6.464
 4357POPC   C2B56012   5.723   8.025   6.764
 4357POPC   C3B56013   5.755   7.960   7.064
 4357POPC   C4B56014   5.698   8.026   7.364
 4358POPC   NC356015   5.060  43.097   5.564
 4358POPC   PO456016   5.097  43.121   5.864
 4358POPC   GL156017   5.094  43.081   6.164
 4358POPC   GL256018   4.935  43.040   6.164
 4358POPC   C1A56019   5.052  43.115   6.464
 4358POPC   D2A56020   5.048  43.158   6.764
 4358POPC   C3A56021   5.108  43.092   7.064
 4358POPC   C4A56022   5.057  43.118   7.364
 4358POPC   C1B56023   4.895  43.067   6.464
 4358POPC   C2B56024   4.899  43.011   6.764
 4358POPC   C3B56025   4.853  43.061   7.064
 4358POPC   C4B56026   4.819  43.005   7.364
 4359POPC   NC356027   3.496  18.286   5.564
 4359POPC   PO456028   3.591  18.293   5.864
 4359POPC   GL156029   3.561  18.328   6.164
 4359POPC   GL256030   3.546  18.357   6.164
 4359POPC   C1A56031   3.533  18.267   6.464
 4359POPC   D2A56032   3.515  18.306   6.764
 4359POPC   C3A56033   3.569  18.329   7.064
 4359POPC   C4A56034   3.545  18.266   7.364
 4359POPC   C1B56035   3.592  18.563   6.464
 4359POPC   C2B56036   3.530  18.512   6.764
 4359POPC   C3B56037   3.607  18.545   7.064
 4359POPC   C4B56038   3.578  18.557   7.364
 4360POPC   NC356039  41.568  13.594   5.564
 4360POPC   PO456040  41.524  13.596   5.864
 4360POPC   GL156041  41.546  13.674   6.164
 4360POPC   GL256042  41.417  13.573   6.164
 4360POPC   C1A56043  41.566  13.638   6.464
 4360POPC   D2A56044  41.515  13.638   6.764
 4360POPC   C3A56045  41.531  13.601   7.064
 4360POPC   C4A56046  41.509  13.668   7.364
 4360POPC   C1B56047  41.279  13.588   6.464
 4360POPC   C2B56048  41.365  13.533   6.764
 4360POPC   C3B56049  41.291  13.598   7.064
 4360POPC   C4B56050  41.364  13.531   7.364
 4361POPC   NC356051  39.240  41.560   5.564
 4361POPC   PO456052  39.181  41.521   5.864
 4361POPC   GL156053  39.215  41.606   6.164
 4361POPC   GL256054  39.201  41.504   6.164
 4361POPC   C1A56055  39.261  41.592   6.464
 4361POPC   D2A56056  39.257  41.540   6.764
 4361POPC   C3A56057  39.257  41.569   7.064
 4361POPC   C4A56058  39.225  41.568   7.364
 4361POPC   C1B56059  39.085  41.400   6.464
 4361POPC   C2B56060  39.072  41.373   6.764
 4361POPC   C3B56061  39.088  41.387   7.064
 4361POPC   C4B56062  39.129  41.352   7.364
 4362POPC   NC356063  24.498  35.338   5.564
 4362POPC   PO456064  24.444  35.329   5.864
 4362POPC   GL156065  24.499  35.385   6.164
 4362POPC   GL256066  24.558  35.285   6.164
 4362POPC   C1A56067  24.501  35.401   6.464
 4362POPC   D2A56068  24.503  35.303   6.764
 4362POPC   C3A56069  24.505  35.340   7.064
 4362POPC   C4A56070  24.498  35.375   7.364
 4362POPC   C1B56071  24.629  35.096   6.464
 4362POPC   C2B56072  24.563  35.089   6.764
 4362POPC   C3B56073  24.630  35.075   7.064
 4362POPC   C4B56074  24.619  35.087   7.364
 4363POPC   NC356075  43.859  24.464   5.564
 4363POPC   PO456076  43.910  24.471   5.864
 4363POPC   GL156077  43.855  24.491   6.164
 4363POPC   GL256078  43.771  24.473   6.164
 4363POPC   C1A56079  43.910  24.530   6.464
 4363POPC   D2A56080  43.870  24.524   6.764
 4363POPC   C3A56081  43.861  24.500   7.064
 4363POPC   C4A56082  43.839  24.451   7.364
 4363POPC   C1B56083  43.685  24.459   6.464
 4363POPC   C2B56084  43.653  24.431   6.764
 4363POPC   C3B56085  43.602  24.430   7.064
 4363POPC   C4B56086  43.662  24.470   7.364
 4364POPC   NC356087  26.085   8.185   5.564
 4364POPC   PO456088  26.043   8.228   5.864
 4364POPC   GL156089  26.070   8.186   6.164
 4364POPC   GL256090  25.931   8.081   6.164
 4364POPC   C1A56091  26.055   8.222   6.464
 4364POPC   D2A56092  25.995   8.155   6.764
 4364POPC   C3A56093  26.033   8.224   7.064
 4364POPC   C4A56094  26.082   8.213   7.364
 4364POPC   C1B56095  25.945   7.945   6.464
 4364POPC   C2B56096  25.946   7.974   6.764
 4364POPC   C3B56097  25.882   8.016   7.064
 4364POPC   C4B56098  25.905   8.041   7.364
 4365POPC   NC356099  15.920   2.750   5.564
 4365POPC   PO456100  15.997   2.775   5.864
 4365POPC   GL156101  15.942   2.801   6.164
 4365POPC   GL256102  16.041   2.706   6.164
 4365POPC   C1A56103  15.906   2.749   6.464
 4365POPC   D2A56104  15.934   2.721   6.764
 4365POPC   C3A56105  15.927   2.740   7.064
 4365POPC   C4A56106  15.913   2.759   7.364
 4365POPC   C1B56107  16.191   2.705   6.464
 4365POPC   C2B56108  16.207   2.631   6.764
 4365POPC   C3B56109  16.172   2.672   7.064
 4365POPC   C4B56110  16.165   2.674   7.364
 4366POPC   NC356111  19.840  14.376   5.564
 4366POPC   PO456112  19.831  14.367   5.864
 4366POPC   GL156113  19.858  14.424   6.164
 4366POPC   GL256114  19.864  14.234   6.164
 4366POPC   C1A56115  19.788  14.378   6.464
 4366POPC   D2A56116  19.819  14.434   6.764
 4366POPC   C3A56117  19.861  14.400   7.064
 4366POPC   C4A56118  19.792  14.437   7.364
 4366POPC   C1B56119  19.804  14.146   6.464
 4366POPC   C2B56120  19.819  14.105   6.764
 4366POPC   C3B56121  19.811  14.181   7.064
 4366POPC   C4B56122  19.878  14.188   7.364
 4367POPC   NC356123  22.908  20.585   5.564
 4367POPC   PO456124  22.911  20.576   5.864
 4367POPC   GL156125  22.902  20.578   6.164
 4367POPC   GL256126  23.064  20.634   6.164
 4367POPC   C1A56127  22.958  20.638   6.464
 4367POPC   D2A56128  22.967  20.645   6.764
 4367POPC   C3A56129  22.966  20.562   7.064
 4367POPC   C4A56130  22.922  20.589   7.364
 4367POPC   C1B56131  23.196  20.717   6.464
 4367POPC   C2B56132  23.173  20.721   6.764
 4367POPC   C3B56133  23.200  20.720   7.064
 4367POPC   C4B56134  23.192  20.711   7.364
 4368POPC   NC356135  20.585  37.669   5.564
 4368POPC   PO456136  20.637  37.689   5.864
 4368POPC   GL156137  20.572  37.727   6.164
 4368POPC   GL256138  20.739  37.637   6.164
 4368POPC   C1A56139  20.642  37.714   6.464
 4368POPC   D2A56140  20.658  37.728   6.764
 4368POPC   C3A56141  20.650  37.685   7.064
 4368POPC   C4A56142  20.637  37.710   7.364
 4368POPC   C1B56143  20.849  37.605   6.464
 4368POPC   C2B56144  20.876  37.662   6.764
 4368POPC   C3B56145  20.832  37.633   7.064
 4368POPC   C4B56146  20.845  37.662   7.364
 4369POPC   NC356147  34.546  15.150   5.564
 4369POPC   PO456148  34.601  15.169   5.864
 4369POPC   GL156149  34.571  15.212   6.164
 4369POPC   GL256150  34.556  15.305   6.164
 4369POPC   C1A56151  34.611  15.164   6.464
 4369POPC   D2A56152  34.539  15.218   6.764
 4369POPC   C3A56153  34.550  15.136   7.064
 4369POPC   C4A56154  34.530  15.209   7.364
 4369POPC   C1B56155  34.453  15.386   6.464
 4369POPC   C2B56156  34.426  15.408   6.764
 4369POPC   C3B56157  34.461  15.342   7.064
 4369POPC   C4B56158  34.432  15.409   7.364
 4370POPC   NC356159   7.383  16.686   5.564
 4370POPC   PO456160   7.451  16.771   5.864
 4370POPC   GL156161   7.413  16.769   6.164
 4370POPC   GL256162   7.497  16.621   6.164
 4370POPC   C1A56163   7.419  16.760   6.464
 4370POPC   D2A56164   7.375  16.767   6.764
 4370POPC   C3A56165   7.436  16.710   7.064
 4370POPC   C4A56166   7.381  16.713   7.364
 4370POPC   C1B56167   7.627  16.579   6.464
 4370POPC   C2B56168   7.659  16.636   6.764
 4370POPC   C3B56169   7.660  16.634   7.064
 4370POPC   C4B56170   7.601  16.607   7.364
 4371POPC   NC356171  22.130  25.238   5.564
 4371POPC   PO456172  22.174  25.258   5.864
 4371POPC   GL156173  22.117  25.239   6.164
 4371POPC   GL256174  22.061  25.389   6.164
 4371POPC   C1A56175  22.210  25.233   6.464
 4371POPC   D2A56176  22.176  25.287   6.764
 4371POPC   C3A56177  22.197  25.233   7.064
 4371POPC   C4A56178  22.194  25.313   7.364
 4371POPC   C1B56179  22.009  25.429   6.464
 4371POPC   C2B56180  22.062  25.480   6.764
 4371POPC   C3B56181  21.984  25.447   7.064
 4371POPC   C4B56182  21.983  25.502   7.364
 4372POPC   NC356183   4.359   5.911   5.564
 4372POPC   PO456184   4.352   5.856   5.864
 4372POPC   GL156185   4.363   5.883   6.164
 4372POPC   GL256186   4.331   5.731   6.164
 4372POPC   C1A56187   4.287   5.871   6.464
 4372POPC   D2A56188   4.300   5.880   6.764
 4372POPC   C3A56189   4.274   5.900   7.064
 4372POPC   C4A56190   4.329   5.822   7.364
 4372POPC   C1B56191   4.381   5.595   6.464
 4372POPC   C2B56192   4.361   5.600   6.764
 4372POPC   C3B56193   4.370   5.589   7.064
 4372POPC   C4B56194   4.384   5.641   7.364
 4373POPC   NC356195  34.604  29.936   5.564
 4373POPC   PO456196  34.621  29.931   5.864
 4373POPC   GL156197  34.598  29.921   6.164
 4373POPC   GL256198  34.721  29.965   6.164
 4373POPC   C1A56199  34.602  29.883   6.464
 4373POPC   D2A56200  34.590  29.884   6.764
 4373POPC   C3A56201  34.555  29.959   7.064
 4373POPC   C4A56202  34.530  29.936   7.364
 4373POPC   C1B56203  34.831  29.911   6.464
 4373POPC   C2B56204  34.801  30.004   6.764
 4373POPC   C3B56205  34.850  29.957   7.064
 4373POPC   C4B56206  34.789  29.917   7.364
 4374POPC   NC356207   7.428   5.073   5.564
 4374POPC   PO456208   7.403   5.071   5.864
 4374POPC   GL156209   7.435   5.091   6.164
 4374POPC   GL256210   7.552   5.179   6.164
 4374POPC   C1A56211   7.371   5.073   6.464
 4374POPC   D2A56212   7.445   5.115   6.764
 4374POPC   C3A56213   7.446   5.064   7.064
 4374POPC   C4A56214   7.443   5.083   7.364
 4374POPC   C1B56215   7.630   5.208   6.464
 4374POPC   C2B56216   7.665   5.234   6.764
 4374POPC   C3B56217   7.661   5.253   7.064
 4374POPC   C4B56218   7.626   5.204   7.364
 4375POPC   NC356219  17.531   7.402   5.564
 4375POPC   PO456220  17.511   7.469   5.864
 4375POPC   GL156221  17.528   7.376   6.164
 4375POPC   GL256222  17.500   7.311   6.164
 4375POPC   C1A56223  17.526   7.410   6.464
 4375POPC   D2A56224  17.555   7.428   6.764
 4375POPC   C3A56225  17.491   7.409   7.064
 4375POPC   C4A56226  17.531   7.388   7.364
 4375POPC   C1B56227  17.512   7.192   6.464
 4375POPC   C2B56228  17.593   7.174   6.764
 4375POPC   C3B56229  17.589   7.201   7.064
 4375POPC   C4B56230  17.571   7.162   7.364
 4376POPC   NC356231  14.425  31.423   5.564
 4376POPC   PO456232  14.398  31.437   5.864
 4376POPC   GL156233  14.451  31.442   6.164
 4376POPC   GL256234  14.331  31.336   6.164
 4376POPC   C1A56235  14.439  31.500   6.464
 4376POPC   D2A56236  14.362  31.448   6.764
 4376POPC   C3A56237  14.416  31.491   7.064
 4376POPC   C4A56238  14.441  31.519   7.364
 4376POPC   C1B56239  14.224  31.289   6.464
 4376POPC   C2B56240  14.260  31.253   6.764
 4376POPC   C3B56241  14.225  31.277   7.064
 4376POPC   C4B56242  14.258  31.241   7.364
 4377POPC   NC356243  29.915  16.751   5.564
 4377POPC   PO456244  29.941  16.767   5.864
 4377POPC   GL156245  29.909  16.720   6.164
 4377POPC   GL256246  29.952  16.792   6.164
 4377POPC   C1A56247  29.962  16.702   6.464
 4377POPC   D2A56248  29.899  16.694   6.764
 4377POPC   C3A56249  29.908  16.737   7.064
 4377POPC   C4A56250  29.927  16.699   7.364
 4377POPC   C1B56251  30.073  16.937   6.464
 4377POPC   C2B56252  30.111  16.969   6.764
 4377POPC   C3B56253  30.082  16.961   7.064
 4377POPC   C4B56254  30.077  16.968   7.364
 4378POPC   NC356255   2.028  12.110   5.564
 4378POPC   PO456256   1.978  12.101   5.864
 4378POPC   GL156257   1.998  12.101   6.164
 4378POPC   GL256258   2.049  11.935   6.164
 4378POPC   C1A56259   2.034  12.093   6.464
 4378POPC   D2A56260   2.039  12.029   6.764
 4378POPC   C3A56261   2.038  12.064   7.064
 4378POPC   C4A56262   1.985  12.122   7.364
 4378POPC   C1B56263   2.060  11.810   6.464
 4378POPC   C2B56264   2.067  11.885   6.764
 4378POPC   C3B56265   2.040  11.811   7.064
 4378POPC   C4B56266   2.050  11.801   7.364
 4379POPC   NC356267   5.863   5.891   5.564
 4379POPC   PO456268   5.913   5.903   5.864
 4379POPC   GL156269   5.828   5.832   6.164
 4379POPC   GL256270   5.877   5.784   6.164
 4379POPC   C1A56271   5.904   5.891   6.464
 4379POPC   D2A56272   5.822   5.910   6.764
 4379POPC   C3A56273   5.907   5.866   7.064
 4379POPC   C4A56274   5.860   5.844   7.364
 4379POPC   C1B56275   5.922   5.640   6.464
 4379POPC   C2B56276   5.891   5.600   6.764
 4379POPC   C3B56277   5.860   5.583   7.064
 4379POPC   C4B56278   5.912   5.654   7.364
 4380POPC   NC356279  15.210  29.195   5.564
 4380POPC   PO456280  15.201  29.137   5.864
 4380POPC   GL156281  15.229  29.165   6.164
 4380POPC   GL256282  15.196  29.039   6.164
 4380POPC   C1A56283  15.218  29.110   6.464
 4380POPC   D2A56284  15.130  29.180   6.764
 4380POPC   C3A56285  15.133  29.184   7.064
 4380POPC   C4A56286  15.130  29.129   7.364
 4380POPC   C1B56287  15.202  28.854   6.464
 4380POPC   C2B56288  15.212  28.877   6.764
 4380POPC   C3B56289  15.187  28.891   7.064
 4380POPC   C4B56290  15.244  28.905   7.364
 4381POPC   NC356291  30.652  33.049   5.564
 4381POPC   PO456292  30.733  33.001   5.864
 4381POPC   GL156293  30.703  33.063   6.164
 4381POPC   GL256294  30.850  33.093   6.164
 4381POPC   C1A56295  30.737  33.070   6.464
 4381POPC   D2A56296  30.680  33.031   6.764
 4381POPC   C3A56297  30.659  33.066   7.064
 4381POPC   C4A56298  30.662  32.979   7.364
 4381POPC   C1B56299  30.910  33.049   6.464
 4381POPC   C2B56300  30.958  33.070   6.764
 4381POPC   C3B56301  30.917  33.116   7.064
 4381POPC   C4B56302  30.922  33.053   7.364
 4382POPC   NC356303   1.981  27.579   5.564
 4382POPC   PO456304   1.972  27.614   5.864
 4382POPC   GL156305   2.039  27.586   6.164
 4382POPC   GL256306   1.829  27.613   6.164
 4382POPC   C1A56307   1.948  27.611   6.464
 4382POPC   D2A56308   2.023  27.619   6.764
 4382POPC   C3A56309   1.987  27.626   7.064
 4382POPC   C4A56310   1.995  27.631   7.364
 4382POPC   C1B56311   1.735  27.504   6.464
 4382POPC   C2B56312   1.763  27.526   6.764
 4382POPC   C3B56313   1.764  27.523   7.064
 4382POPC   C4B56314   1.722  27.576   7.364
 4383POPC   NC356315  10.543  32.200   5.564
 4383POPC   PO456316  10.502  32.203   5.864
 4383POPC   GL156317  10.509  32.282   6.164
 4383POPC   GL256318  10.560  32.164   6.164
 4383POPC   C1A56319  10.517  32.247   6.464
 4383POPC   D2A56320  10.500  32.200   6.764
 4383POPC   C3A56321  10.514  32.261   7.064
 4383POPC   C4A56322  10.572  32.237   7.364
 4383POPC   C1B56323  10.659  32.080   6.464
 4383POPC   C2B56324  10.709  32.099   6.764
 4383POPC   C3B56325  10.641  32.074   7.064
 4383POPC   C4B56326  10.698  32.013   7.364
 4384POPC   NC356327  15.951  40.742   5.564
 4384POPC   PO456328  15.949  40.774   5.864
 4384POPC   GL156329  15.997  40.777   6.164
 4384POPC   GL256330  15.842  40.643   6.164
 4384POPC   C1A56331  15.909  40.784   6.464
 4384POPC   D2A56332  15.983  40.782   6.764
 4384POPC   C3A56333  15.951  40.776   7.064
 4384POPC   C4A56334  15.956  40.825   7.364
 4384POPC   C1B56335  15.838  40.577   6.464
 4384POPC   C2B56336  15.863  40.534   6.764
 4384POPC   C3B56337  15.816  40.541   7.064
 4384POPC   C4B56338  15.865  40.558   7.364
 4385POPC   NC356339  19.806  12.814   5.564
 4385POPC   PO456340  19.811  12.898   5.864
 4385POPC   GL156341  19.787  12.894   6.164
 4385POPC   GL256342  19.790  12.740   6.164
 4385POPC   C1A56343  19.844  12.816   6.464
 4385POPC   D2A56344  19.869  12.872   6.764
 4385POPC   C3A56345  19.789  12.839   7.064
 4385POPC   C4A56346  19.839  12.821   7.364
 4385POPC   C1B56347  19.839  12.568   6.464
 4385POPC   C2B56348  19.790  12.614   6.764
 4385POPC   C3B56349  19.791  12.553   7.064
 4385POPC   C4B56350  19.809  12.635   7.364
 4386POPC   NC356351  21.419  20.629   5.564
 4386POPC   PO456352  21.379  20.651   5.864
 4386POPC   GL156353  21.372  20.644   6.164
 4386POPC   GL256354  21.256  20.682   6.164
 4386POPC   C1A56355  21.401  20.616   6.464
 4386POPC   D2A56356  21.391  20.611   6.764
 4386POPC   C3A56357  21.436  20.599   7.064
 4386POPC   C4A56358  21.404  20.617   7.364
 4386POPC   C1B56359  21.142  20.716   6.464
 4386POPC   C2B56360  21.159  20.649   6.764
 4386POPC   C3B56361  21.142  20.671   7.064
 4386POPC   C4B56362  21.163  20.701   7.364
 4387POPC   NC356363  27.593  31.517   5.564
 4387POPC   PO456364  27.554  31.432   5.864
 4387POPC   GL156365  27.623  31.504   6.164
 4387POPC   GL256366  27.479  31.564   6.164
 4387POPC   C1A56367  27.603  31.424   6.464
 4387POPC   D2A56368  27.639  31.486   6.764
 4387POPC   C3A56369  27.560  31.440   7.064
 4387POPC   C4A56370  27.639  31.480   7.364
 4387POPC   C1B56371  27.409  31.603   6.464
 4387POPC   C2B56372  27.359  31.617   6.764
 4387POPC   C3B56373  27.355  31.599   7.064
 4387POPC   C4B56374  27.351  31.583   7.364
 4388POPC   NC356375  27.561   8.967   5.564
 4388POPC   PO456376  27.630   9.017   5.864
 4388POPC   GL156377  27.586   8.952   6.164
 4388POPC   GL256378  27.502   8.883   6.164
 4388POPC   C1A56379  27.578   8.947   6.464
 4388POPC   D2A56380  27.606   8.931   6.764
 4388POPC   C3A56381  27.547   8.962   7.064
 4388POPC   C4A56382  27.549   8.984   7.364
 4388POPC   C1B56383  27.349   8.801   6.464
 4388POPC   C2B56384  27.355   8.871   6.764
 4388POPC   C3B56385  27.400   8.820   7.064
 4388POPC   C4B56386  27.418   8.869   7.364
 4389POPC   NC356387  11.279  17.524   5.564
 4389POPC   PO456388  11.307  17.476   5.864
 4389POPC   GL156389  11.278  17.504   6.164
 4389POPC   GL256390  11.320  17.344   6.164
 4389POPC   C1A56391  11.272  17.517   6.464
 4389POPC   D2A56392  11.271  17.530   6.764
 4389POPC   C3A56393  11.289  17.489   7.064
 4389POPC   C4A56394  11.317  17.501   7.364
 4389POPC   C1B56395  11.326  17.227   6.464
 4389POPC   C2B56396  11.312  17.226   6.764
 4389POPC   C3B56397  11.322  17.301   7.064
 4389POPC   C4B56398  11.376  17.252   7.364
 4390POPC   NC356399  22.892  18.303   5.564
 4390POPC   PO456400  22.977  18.290   5.864
 4390POPC   GL156401  22.944  18.305   6.164
 4390POPC   GL256402  22.995  18.425   6.164
 4390POPC   C1A56403  22.912  18.310   6.464
 4390POPC   D2A56404  22.916  18.285   6.764
 4390POPC   C3A56405  22.927  18.313   7.064
 4390POPC   C4A56406  22.911  18.239   7.364
 4390POPC   C1B56407  23.051  18.477   6.464
 4390POPC   C2B56408  23.118  18.541   6.764
 4390POPC   C3B56409  23.064  18.449   7.064
 4390POPC   C4B56410  23.035  18.465   7.364
 4391POPC   NC356411  15.228  14.376   5.564
 4391POPC   PO456412  15.178  14.385   5.864
 4391POPC   GL156413  15.207  14.371   6.164
 4391POPC   GL256414  15.026  14.329   6.164
 4391POPC   C1A56415  15.196  14.407   6.464
 4391POPC   D2A56416  15.157  14.357   6.764
 4391POPC   C3A56417  15.175  14.422   7.064
 4391POPC   C4A56418  15.143  14.386   7.364
 4391POPC   C1B56419  14.903  14.291   6.464
 4391POPC   C2B56420  14.936  14.313   6.764
 4391POPC   C3B56421  14.932  14.307   7.064
 4391POPC   C4B56422  14.938  14.341   7.364
 4392POPC   NC356423   8.208  23.742   5.564
 4392POPC   PO456424   8.181  23.749   5.864
 4392POPC   GL156425   8.213  23.705   6.164
 4392POPC   GL256426   8.355  23.725   6.164
 4392POPC   C1A56427   8.234  23.688   6.464
 4392POPC   D2A56428   8.190  23.731   6.764
 4392POPC   C3A56429   8.216  23.672   7.064
 4392POPC   C4A56430   8.176  23.695   7.364
 4392POPC   C1B56431   8.453  23.647   6.464
 4392POPC   C2B56432   8.478  23.646   6.764
 4392POPC   C3B56433   8.427  23.646   7.064
 4392POPC   C4B56434   8.435  23.706   7.364
 4393POPC   NC356435  15.207  41.559   5.564
 4393POPC   PO456436  15.227  41.603   5.864
 4393POPC   GL156437  15.190  41.522   6.164
 4393POPC   GL256438  15.103  41.590   6.164
 4393POPC   C1A56439  15.227  41.512   6.464
 4393POPC   D2A56440  15.149  41.529   6.764
 4393POPC   C3A56441  15.154  41.597   7.064
 4393POPC   C4A56442  15.208  41.587   7.364
 4393POPC   C1B56443  14.943  41.644   6.464
 4393POPC   C2B56444  14.950  41.627   6.764
 4393POPC   C3B56445  14.997  41.621   7.064
 4393POPC   C4B56446  15.002  41.624   7.364
 4394POPC   NC356447   4.289  14.420   5.564
 4394POPC   PO456448   4.337  14.407   5.864
 4394POPC   GL156449   4.293  14.422   6.164
 4394POPC   GL256450   4.195  14.438   6.164
 4394POPC   C1A56451   4.356  14.414   6.464
 4394POPC   D2A56452   4.283  14.402   6.764
 4394POPC   C3A56453   4.309  14.400   7.064
 4394POPC   C4A56454   4.288  14.435   7.364
 4394POPC   C1B56455   4.098  14.537   6.464
 4394POPC   C2B56456   4.176  14.525   6.764
 4394POPC   C3B56457   4.130  14.522   7.064
 4394POPC   C4B56458   4.169  14.521   7.364
 4395POPC   NC356459  15.936  13.666   5.564
 4395POPC   PO456460  15.999  13.590   5.864
 4395POPC   GL156461  15.975  13.643   6.164
 4395POPC   GL256462  16.053  13.567   6.164
 4395POPC   C1A56463  16.000  13.612   6.464
 4395POPC   D2A56464  15.958  13.606   6.764
 4395POPC   C3A56465  15.949  13.652   7.064
 4395POPC   C4A56466  15.915  13.583   7.364
 4395POPC   C1B56467  16.158  13.577   6.464
 4395POPC   C2B56468  16.177  13.546   6.764
 4395POPC   C3B56469  16.186  13.577   7.064
 4395POPC   C4B56470  16.173  13.554   7.364
 4396POPC   NC356471  15.135  28.341   5.564
 4396POPC   PO456472  15.221  28.356   5.864
 4396POPC   GL156473  15.219  28.375   6.164
 4396POPC   GL256474  15.213  28.440   6.164
 4396POPC   C1A56475  15.176  28.332   6.464
 4396POPC   D2A56476  15.152  28.342   6.764
 4396POPC   C3A56477  15.208  28.400   7.064
 4396POPC   C4A56478  15.167  28.325   7.364
 4396POPC   C1B56479  15.339  28.596   6.464
 4396POPC   C2B56480  15.313  28.548   6.764
 4396POPC   C3B56481  15.366  28.544   7.064
 4396POPC   C4B56482  15.354  28.609   7.364
 4397POPC   NC356483   2.004  15.962   5.564
 4397POPC   PO456484   1.965  15.950   5.864
 4397POPC   GL156485   1.973  16.003   6.164
 4397POPC   GL256486   1.895  16.015   6.164
 4397POPC   C1A56487   1.958  15.988   6.464
 4397POPC   D2A56488   2.008  15.952   6.764
 4397POPC   C3A56489   2.030  15.937   7.064
 4397POPC   C4A56490   1.951  15.950   7.364
 4397POPC   C1B56491   1.764  16.099   6.464
 4397POPC   C2B56492   1.832  16.092   6.764
 4397POPC   C3B56493   1.813  16.117   7.064
 4397POPC   C4B56494   1.764  16.112   7.364
 4398POPC   NC356495   3.545  39.210   5.564
 4398POPC   PO456496   3.491  39.225   5.864
 4398POPC   GL156497   3.515  39.265   6.164
 4398POPC   GL256498   3.526  39.300   6.164
 4398POPC   C1A56499   3.589  39.189   6.464
 4398POPC   D2A56500   3.587  39.230   6.764
 4398POPC   C3A56501   3.564  39.259   7.064
 4398POPC   C4A56502   3.585  39.216   7.364
 4398POPC   C1B56503   3.455  39.493   6.464
 4398POPC   C2B56504   3.467  39.418   6.764
 4398POPC   C3B56505   3.471  39.476   7.064
 4398POPC   C4B56506   3.453  39.444   7.364
 4399POPC   NC356507  31.460   3.499   5.564
 4399POPC   PO456508  31.510   3.583   5.864
 4399POPC   GL156509  31.458   3.552   6.164
 4399POPC   GL256510  31.520   3.634   6.164
 4399POPC   C1A56511  31.442   3.524   6.464
 4399POPC   D2A56512  31.456   3.508   6.764
 4399POPC   C3A56513  31.429   3.513   7.064
 4399POPC   C4A56514  31.441   3.554   7.364
 4399POPC   C1B56515  31.596   3.776   6.464
 4399POPC   C2B56516  31.544   3.820   6.764
 4399POPC   C3B56517  31.575   3.777   7.064
 4399POPC   C4B56518  31.533   3.770   7.364
 4400POPC   NC356519  17.471  11.317   5.564
 4400POPC   PO456520  17.546  11.300   5.864
 4400POPC   GL156521  17.548  11.252   6.164
 4400POPC   GL256522  17.475  11.190   6.164
 4400POPC   C1A56523  17.543  11.261   6.464
 4400POPC   D2A56524  17.547  11.274   6.764
 4400POPC   C3A56525  17.520  11.331   7.064
 4400POPC   C4A56526  17.516  11.332   7.364
 4400POPC   C1B56527  17.485  11.096   6.464
 4400POPC   C2B56528  17.480  11.009   6.764
 4400POPC   C3B56529  17.514  11.049   7.064
 4400POPC   C4B56530  17.534  11.005   7.364
 4401POPC   NC356531  16.741  13.594   5.564
 4401POPC   PO456532  16.728  13.608   5.864
 4401POPC   GL156533  16.683  13.628   6.164
 4401POPC   GL256534  16.650  13.682   6.164
 4401POPC   C1A56535  16.692  13.593   6.464
 4401POPC   D2A56536  16.705  13.594   6.764
 4401POPC   C3A56537  16.743  13.673   7.064
 4401POPC   C4A56538  16.684  13.675   7.364
 4401POPC   C1B56539  16.504  13.682   6.464
 4401POPC   C2B56540  16.486  13.703   6.764
 4401POPC   C3B56541  16.510  13.763   7.064
 4401POPC   C4B56542  16.480  13.722   7.364
 4402POPC   NC356543  43.884  29.950   5.564
 4402POPC   PO456544  43.891  29.926   5.864
 4402POPC   GL156545  43.886  29.886   6.164
 4402POPC   GL256546  43.973  30.072   6.164
 4402POPC   C1A56547  43.894  29.964   6.464
 4402POPC   D2A56548  43.873  29.919   6.764
 4402POPC   C3A56549  43.923  29.880   7.064
 4402POPC   C4A56550  43.847  29.908   7.364
 4402POPC   C1B56551  43.991  30.162   6.464
 4402POPC   C2B56552  43.972  30.131   6.764
 4402POPC   C3B56553  43.965  30.197   7.064
 4402POPC   C4B56554  44.008  30.169   7.364
 4403POPC   NC356555  44.635   2.800   5.564
 4403POPC   PO456556  44.674   2.796   5.864
 4403POPC   GL156557  44.638   2.767   6.164
 4403POPC   GL256558  44.717   2.626   6.164
 4403POPC   C1A56559  44.699   2.799   6.464
 4403POPC   D2A56560  44.664   2.754   6.764
 4403POPC   C3A56561  44.697   2.751   7.064
 4403POPC   C4A56562  44.644   2.723   7.364
 4403POPC   C1B56563  44.741   2.534   6.464
 4403POPC   C2B56564  44.772   2.550   6.764
 4403POPC   C3B56565  44.785   2.502   7.064
 4403POPC   C4B56566  44.814   2.530   7.364
 4404POPC   NC356567  36.858   7.449   5.564
 4404POPC   PO456568  36.950   7.388   5.864
 4404POPC   GL156569  36.893   7.386   6.164
 4404POPC   GL256570  36.996   7.482   6.164
 4404POPC   C1A56571  36.928   7.467   6.464
 4404POPC   D2A56572  36.941   7.455   6.764
 4404POPC   C3A56573  36.885   7.389   7.064
 4404POPC   C4A56574  36.899   7.467   7.364
 4404POPC   C1B56575  37.151   7.552   6.464
 4404POPC   C2B56576  37.089   7.585   6.764
 4404POPC   C3B56577  37.129   7.610   7.064
 4404POPC   C4B56578  37.094   7.610   7.364
 4405POPC   NC356579  22.155  42.314   5.564
 4405POPC   PO456580  22.177  42.363   5.864
 4405POPC   GL156581  22.186  42.311   6.164
 4405POPC   GL256582  22.177  42.409   6.164
 4405POPC   C1A56583  22.208  42.366   6.464
 4405POPC   D2A56584  22.122  42.312   6.764
 4405POPC   C3A56585  22.131  42.291   7.064
 4405POPC   C4A56586  22.142  42.377   7.364
 4405POPC   C1B56587  22.304  42.581   6.464
 4405POPC   C2B56588  22.305  42.580   6.764
 4405POPC   C3B56589  22.311  42.526   7.064
 4405POPC   C4B56590  22.312  42.502   7.364
 4406POPC   NC356591  29.177   2.734   5.564
 4406POPC   PO456592  29.152   2.745   5.864
 4406POPC   GL156593  29.142   2.789   6.164
 4406POPC   GL256594  29.001   2.768   6.164
 4406POPC   C1A56595  29.124   2.803   6.464
 4406POPC   D2A56596  29.161   2.799   6.764
 4406POPC   C3A56597  29.114   2.764   7.064
 4406POPC   C4A56598  29.127   2.790   7.364
 4406POPC   C1B56599  28.890   2.747   6.464
 4406POPC   C2B56600  28.882   2.728   6.764
 4406POPC   C3B56601  28.892   2.708   7.064
 4406POPC   C4B56602  28.881   2.687   7.364
 4407POPC   NC356603  28.415  41.566   5.564
 4407POPC   PO456604  28.332  41.562   5.864
 4407POPC   GL156605  28.321  41.531   6.164
 4407POPC   GL256606  28.535  41.499   6.164
 4407POPC   C1A56607  28.331  41.542   6.464
 4407POPC   D2A56608  28.345  41.590   6.764
 4407POPC   C3A56609  28.398  41.546   7.064
 4407POPC   C4A56610  28.370  41.602   7.364
 4407POPC   C1B56611  28.595  41.541   6.464
 4407POPC   C2B56612  28.639  41.559   6.764
 4407POPC   C3B56613  28.619  41.551   7.064
 4407POPC   C4B56614  28.647  41.474   7.364
 4408POPC   NC356615  13.625  12.055   5.564
 4408POPC   PO456616  13.635  12.099   5.864
 4408POPC   GL156617  13.662  12.108   6.164
 4408POPC   GL256618  13.769  11.995   6.164
 4408POPC   C1A56619  13.650  12.112   6.464
 4408POPC   D2A56620  13.633  12.074   6.764
 4408POPC   C3A56621  13.674  12.116   7.064
 4408POPC   C4A56622  13.658  12.088   7.364
 4408POPC   C1B56623  13.869  11.990   6.464
 4408POPC   C2B56624  13.815  11.977   6.764
 4408POPC   C3B56625  13.814  11.950   7.064
 4408POPC   C4B56626  13.874  11.981   7.364
 4409POPC   NC356627  33.070  29.878   5.564
 4409POPC   PO456628  33.038  29.874   5.864
 4409POPC   GL156629  33.070  29.904   6.164
 4409POPC   GL256630  33.023  30.045   6.164
 4409POPC   C1A56631  33.042  29.950   6.464
 4409POPC   D2A56632  33.034  29.890   6.764
 4409POPC   C3A56633  33.026  29.958   7.064
 4409POPC   C4A56634  33.056  29.945   7.364
 4409POPC   C1B56635  33.029  30.149   6.464
 4409POPC   C2B56636  33.082  30.192   6.764
 4409POPC   C3B56637  33.082  30.148   7.064
 4409POPC   C4B56638  33.043  30.197   7.364
 4410POPC   NC356639   6.666   6.668   5.564
 4410POPC   PO456640   6.675   6.607   5.864
 4410POPC   GL156641   6.627   6.651   6.164
 4410POPC   GL256642   6.507   6.559   6.164
 4410POPC   C1A56643   6.634   6.680   6.464
 4410POPC   D2A56644   6.605   6.669   6.764
 4410POPC   C3A56645   6.649   6.606   7.064
 4410POPC   C4A56646   6.687   6.647   7.364
 4410POPC   C1B56647   6.440   6.509   6.464
 4410POPC   C2B56648   6.428   6.526   6.764
 4410POPC   C3B56649   6.394   6.523   7.064
 4410POPC   C4B56650   6.483   6.479   7.364
 4411POPC   NC356651  26.859  37.660   5.564
 4411POPC   PO456652  26.791  37.635   5.864
 4411POPC   GL156653  26.851  37.694   6.164
 4411POPC   GL256654  26.735  37.759   6.164
 4411POPC   C1A56655  26.779  37.701   6.464
 4411POPC   D2A56656  26.859  37.645   6.764
 4411POPC   C3A56657  26.777  37.681   7.064
 4411POPC   C4A56658  26.806  37.724   7.364
 4411POPC   C1B56659  26.716  37.937   6.464
 4411POPC   C2B56660  26.740  37.962   6.764
 4411POPC   C3B56661  26.769  37.904   7.064
 4411POPC   C4B56662  26.770  37.958   7.364
 4412POPC   NC356663  40.027  22.924   5.564
 4412POPC   PO456664  40.000  22.908   5.864
 4412POPC   GL156665  40.017  22.975   6.164
 4412POPC   GL256666  39.980  22.776   6.164
 4412POPC   C1A56667  39.982  22.923   6.464
 4412POPC   D2A56668  39.997  22.902   6.764
 4412POPC   C3A56669  39.997  22.985   7.064
 4412POPC   C4A56670  40.017  22.970   7.364
 4412POPC   C1B56671  40.031  22.692   6.464
 4412POPC   C2B56672  40.059  22.685   6.764
 4412POPC   C3B56673  40.040  22.719   7.064
 4412POPC   C4B56674  40.066  22.649   7.364
 4413POPC   NC356675  13.623  44.701   5.564
 4413POPC   PO456676  13.665  44.699   5.864
 4413POPC   GL156677  13.600  44.698   6.164
 4413POPC   GL256678  13.571  44.777   6.164
 4413POPC   C1A56679  13.644  44.646   6.464
 4413POPC   D2A56680  13.639  44.683   6.764
 4413POPC   C3A56681  13.614  44.667   7.064
 4413POPC   C4A56682  13.632  44.668   7.364
 4413POPC   C1B56683  13.567  44.940   6.464
 4413POPC   C2B56684  13.533  44.894   6.764
 4413POPC   C3B56685  13.629  44.931   7.064
 4413POPC   C4B56686  13.554  44.871   7.364
 4414POPC   NC356687  21.382  19.855   5.564
 4414POPC   PO456688  21.397  19.828   5.864
 4414POPC   GL156689  21.348  19.835   6.164
 4414POPC   GL256690  21.414  19.934   6.164
 4414POPC   C1A56691  21.391  19.796   6.464
 4414POPC   D2A56692  21.415  19.820   6.764
 4414POPC   C3A56693  21.395  19.871   7.064
 4414POPC   C4A56694  21.413  19.792   7.364
 4414POPC   C1B56695  21.363  20.069   6.464
 4414POPC   C2B56696  21.345  20.102   6.764
 4414POPC   C3B56697  21.395  20.054   7.064
 4414POPC   C4B56698  21.419  20.070   7.364
 4415POPC   NC356699  25.263   9.734   5.564
 4415POPC   PO456700  25.300   9.704   5.864
 4415POPC   GL156701  25.290   9.774   6.164
 4415POPC   GL256702  25.278   9.637   6.164
 4415POPC   C1A56703  25.244   9.738   6.464
 4415POPC   D2A56704  25.257   9.733   6.764
 4415POPC   C3A56705  25.286   9.765   7.064
 4415POPC   C4A56706  25.252   9.715   7.364
 4415POPC   C1B56707  25.335   9.559   6.464
 4415POPC   C2B56708  25.399   9.466   6.764
 4415POPC   C3B56709  25.330   9.509   7.064
 4415POPC   C4B56710  25.335   9.530   7.364
 4416POPC   NC356711   2.776  10.567   5.564
 4416POPC   PO456712   2.766  10.495   5.864
 4416POPC   GL156713   2.789  10.528   6.164
 4416POPC   GL256714   2.697  10.355   6.164
 4416POPC   C1A56715   2.794  10.565   6.464
 4416POPC   D2A56716   2.744  10.553   6.764
 4416POPC   C3A56717   2.785  10.566   7.064
 4416POPC   C4A56718   2.811  10.542   7.364
 4416POPC   C1B56719   2.751  10.230   6.464
 4416POPC   C2B56720   2.678  10.284   6.764
 4416POPC   C3B56721   2.743  10.263   7.064
 4416POPC   C4B56722   2.725  10.326   7.364
 4417POPC   NC356723  40.016  17.478   5.564
 4417POPC   PO456724  40.037  17.530   5.864
 4417POPC   GL156725  40.039  17.493   6.164
 4417POPC   GL256726  40.110  17.537   6.164
 4417POPC   C1A56727  39.973  17.486   6.464
 4417POPC   D2A56728  40.055  17.528   6.764
 4417POPC   C3A56729  39.978  17.534   7.064
 4417POPC   C4A56730  40.046  17.503   7.364
 4417POPC   C1B56731  40.230  17.631   6.464
 4417POPC   C2B56732  40.244  17.630   6.764
 4417POPC   C3B56733  40.282  17.569   7.064
 4417POPC   C4B56734  40.254  17.559   7.364
 4418POPC   NC356735   8.938  36.928   5.564
 4418POPC   PO456736   9.012  36.860   5.864
 4418POPC   GL156737   8.927  36.943   6.164
 4418POPC   GL256738   8.973  36.811   6.164
 4418POPC   C1A56739   8.989  36.856   6.464
 4418POPC   D2A56740   8.929  36.859   6.764
 4418POPC   C3A56741   8.992  36.904   7.064
 4418POPC   C4A56742   8.977  36.880   7.364
 4418POPC   C1B56743   9.090  36.654   6.464
 4418POPC   C2B56744   9.052  36.649   6.764
 4418POPC   C3B56745   9.057  36.667   7.064
 4418POPC   C4B56746   9.109  36.691   7.364
 4419POPC   NC356747   8.167  29.901   5.564
 4419POPC   PO456748   8.223  29.947   5.864
 4419POPC   GL156749   8.237  29.964   6.164
 4419POPC   GL256750   8.244  29.836   6.164
 4419POPC   C1A56751   8.176  29.942   6.464
 4419POPC   D2A56752   8.231  29.960   6.764
 4419POPC   C3A56753   8.168  29.886   7.064
 4419POPC   C4A56754   8.244  29.894   7.364
 4419POPC   C1B56755   8.401  29.781   6.464
 4419POPC   C2B56756   8.353  29.783   6.764
 4419POPC   C3B56757   8.323  29.749   7.064
 4419POPC   C4B56758   8.333  29.721   7.364
 4420POPC   NC356759  32.239  28.358   5.564
 4420POPC   PO456760  32.210  28.333   5.864
 4420POPC   GL156761  32.216  28.411   6.164
 4420POPC   GL256762  32.313  28.478   6.164
 4420POPC   C1A56763  32.219  28.373   6.464
 4420POPC   D2A56764  32.245  28.339   6.764
 4420POPC   C3A56765  32.263  28.403   7.064
 4420POPC   C4A56766  32.245  28.345   7.364
 4420POPC   C1B56767  32.312  28.577   6.464
 4420POPC   C2B56768  32.273  28.624   6.764
 4420POPC   C3B56769  32.313  28.598   7.064
 4420POPC   C4B56770  32.258  28.640   7.364
 4421POPC   NC356771  43.889  25.295   5.564
 4421POPC   PO456772  43.846  25.246   5.864
 4421POPC   GL156773  43.906  25.245   6.164
 4421POPC   GL256774  43.984  25.380   6.164
 4421POPC   C1A56775  43.837  25.222   6.464
 4421POPC   D2A56776  43.851  25.299   6.764
 4421POPC   C3A56777  43.875  25.292   7.064
 4421POPC   C4A56778  43.895  25.245   7.364
 4421POPC   C1B56779  44.098  25.455   6.464
 4421POPC   C2B56780  44.120  25.451   6.764
 4421POPC   C3B56781  44.135  25.416   7.064
 4421POPC   C4B56782  44.132  25.365   7.364
 4422POPC   NC356783   9.771  22.117   5.564
 4422POPC   PO456784   9.757  22.167   5.864
 4422POPC   GL156785   9.706  22.147   6.164
 4422POPC   GL256786   9.721  22.011   6.164
 4422POPC   C1A56787   9.755  22.139   6.464
 4422POPC   D2A56788   9.725  22.134   6.764
 4422POPC   C3A56789   9.727  22.122   7.064
 4422POPC   C4A56790   9.782  22.122   7.364
 4422POPC   C1B56791   9.647  21.924   6.464
 4422POPC   C2B56792   9.570  22.001   6.764
 4422POPC   C3B56793   9.639  21.958   7.064
 4422POPC   C4B56794   9.605  21.927   7.364
 4423POPC   NC356795   6.668  23.668   5.564
 4423POPC   PO456796   6.678  23.677   5.864
 4423POPC   GL156797   6.617  23.741   6.164
 4423POPC   GL256798   6.565  23.589   6.164
 4423POPC   C1A56799   6.661  23.677   6.464
 4423POPC   D2A56800   6.616  23.731   6.764
 4423POPC   C3A56801   6.610  23.763   7.064
 4423POPC   C4A56802   6.597  23.750   7.364
 4423POPC   C1B56803   6.481  23.579   6.464
 4423POPC   C2B56804   6.489  23.511   6.764
 4423POPC   C3B56805   6.436  23.536   7.064
 4423POPC   C4B56806   6.435  23.532   7.364
 4424POPC   NC356807  26.781  15.187   5.564
 4424POPC   PO456808  26.809  15.199   5.864
 4424POPC   GL156809  26.769  15.201   6.164
 4424POPC   GL256810  26.853  15.259   6.164
 4424POPC   C1A56811  26.799  15.212   6.464
 4424POPC   D2A56812  26.782  15.162   6.764
 4424POPC   C3A56813  26.792  15.169   7.064
 4424POPC   C4A56814  26.826  15.170   7.364
 4424POPC   C1B56815  27.016  15.335   6.464
 4424POPC   C2B56816  27.020  15.407   6.764
 4424POPC   C3B56817  26.998  15.364   7.064
 4424POPC   C4B56818  27.004  15.404   7.364
 4425POPC   NC356819  28.352   5.905   5.564
 4425POPC   PO456820  28.417   5.885   5.864
 4425POPC   GL156821  28.334   5.907   6.164
 4425POPC   GL256822  28.510   5.774   6.164
 4425POPC   C1A56823  28.386   5.861   6.464
 4425POPC   D2A56824  28.388   5.846   6.764
 4425POPC   C3A56825  28.394   5.878   7.064
 4425POPC   C4A56826  28.377   5.879   7.364
 4425POPC   C1B56827  28.611   5.700   6.464
 4425POPC   C2B56828  28.547   5.712   6.764
 4425POPC   C3B56829  28.596   5.753   7.064
 4425POPC   C4B56830  28.519   5.711   7.364
 4426POPC   NC356831  28.349  16.005   5.564
 4426POPC   PO456832  28.400  16.003   5.864
 4426POPC   GL156833  28.414  15.984   6.164
 4426POPC   GL256834  28.380  16.045   6.164
 4426POPC   C1A56835  28.406  15.929   6.464
 4426POPC   D2A56836  28.371  15.918   6.764
 4426POPC   C3A56837  28.333  15.913   7.064
 4426POPC   C4A56838  28.323  15.921   7.364
 4426POPC   C1B56839  28.434  16.158   6.464
 4426POPC   C2B56840  28.395  16.214   6.764
 4426POPC   C3B56841  28.431  16.220   7.064
 4426POPC   C4B56842  28.351  16.246   7.364
 4427POPC   NC356843  43.864   5.915   5.564
 4427POPC   PO456844  43.872   5.855   5.864
 4427POPC   GL156845  43.930   5.910   6.164
 4427POPC   GL256846  44.021   5.940   6.164
 4427POPC   C1A56847  43.923   5.857   6.464
 4427POPC   D2A56848  43.876   5.901   6.764
 4427POPC   C3A56849  43.869   5.905   7.064
 4427POPC   C4A56850  43.843   5.870   7.364
 4427POPC   C1B56851  44.106   5.963   6.464
 4427POPC   C2B56852  44.079   5.944   6.764
 4427POPC   C3B56853  44.097   5.935   7.064
 4427POPC   C4B56854  44.061   6.013   7.364
 4428POPC   NC356855  42.300  38.481   5.564
 4428POPC   PO456856  42.298  38.436   5.864
 4428POPC   GL156857  42.309  38.467   6.164
 4428POPC   GL256858  42.458  38.516   6.164
 4428POPC   C1A56859  42.383  38.416   6.464
 4428POPC   D2A56860  42.313  38.477   6.764
 4428POPC   C3A56861  42.341  38.478   7.064
 4428POPC   C4A56862  42.322  38.456   7.364
 4428POPC   C1B56863  42.538  38.651   6.464
 4428POPC   C2B56864  42.504  38.668   6.764
 4428POPC   C3B56865  42.462  38.651   7.064
 4428POPC   C4B56866  42.538  38.617   7.364
 4429POPC   NC356867  43.071   9.782   5.564
 4429POPC   PO456868  43.093   9.768   5.864
 4429POPC   GL156869  43.106   9.706   6.164
 4429POPC   GL256870  43.265   9.820   6.164
 4429POPC   C1A56871  43.068   9.749   6.464
 4429POPC   D2A56872  43.120   9.757   6.764
 4429POPC   C3A56873  43.103   9.738   7.064
 4429POPC   C4A56874  43.150   9.726   7.364
 4429POPC   C1B56875  43.343   9.820   6.464
 4429POPC   C2B56876  43.352   9.853   6.764
 4429POPC   C3B56877  43.382   9.883   7.064
 4429POPC   C4B56878  43.385   9.859   7.364
 4430POPC   NC356879   2.767  16.711   5.564
 4430POPC   PO456880   2.775  16.775   5.864
 4430POPC   GL156881   2.771  16.692   6.164
 4430POPC   GL256882   2.823  16.857   6.164
 4430POPC   C1A56883   2.780  16.682   6.464
 4430POPC   D2A56884   2.758  16.729   6.764
 4430POPC   C3A56885   2.734  16.771   7.064
 4430POPC   C4A56886   2.742  16.745   7.364
 4430POPC   C1B56887   2.916  16.919   6.464
 4430POPC   C2B56888   2.914  16.949   6.764
 4430POPC   C3B56889   2.896  16.947   7.064
 4430POPC   C4B56890   2.923  16.941   7.364
 4431POPC   NC356891  16.778   2.815   5.564
 4431POPC   PO456892  16.740   2.801   5.864
 4431POPC   GL156893  16.742   2.770   6.164
 4431POPC   GL256894  16.593   2.718   6.164
 4431POPC   C1A56895  16.694   2.762   6.464
 4431POPC   D2A56896  16.723   2.812   6.764
 4431POPC   C3A56897  16.689   2.757   7.064
 4431POPC   C4A56898  16.716   2.717   7.364
 4431POPC   C1B56899  16.570   2.569   6.464
 4431POPC   C2B56900  16.505   2.604   6.764
 4431POPC   C3B56901  16.590   2.642   7.064
 4431POPC   C4B56902  16.515   2.609   7.364
 4432POPC   NC356903  31.442  13.590   5.564
 4432POPC   PO456904  31.471  13.590   5.864
 4432POPC   GL156905  31.431  13.598   6.164
 4432POPC   GL256906  31.391  13.796   6.164
 4432POPC   C1A56907  31.453  13.608   6.464
 4432POPC   D2A56908  31.521  13.607   6.764
 4432POPC   C3A56909  31.522  13.636   7.064
 4432POPC   C4A56910  31.515  13.639   7.364
 4432POPC   C1B56911  31.365  13.889   6.464
 4432POPC   C2B56912  31.400  13.857   6.764
 4432POPC   C3B56913  31.363  13.845   7.064
 4432POPC   C4B56914  31.358  13.862   7.364
 4433POPC   NC356915  20.563  40.800   5.564
 4433POPC   PO456916  20.619  40.754   5.864
 4433POPC   GL156917  20.579  40.742   6.164
 4433POPC   GL256918  20.733  40.819   6.164
 4433POPC   C1A56919  20.616  40.741   6.464
 4433POPC   D2A56920  20.581  40.756   6.764
 4433POPC   C3A56921  20.623  40.777   7.064
 4433POPC   C4A56922  20.584  40.739   7.364
 4433POPC   C1B56923  20.826  40.887   6.464
 4433POPC   C2B56924  20.850  40.832   6.764
 4433POPC   C3B56925  20.886  40.876   7.064
 4433POPC   C4B56926  20.868  40.918   7.364
 4434POPC   NC356927   6.651  44.674   5.564
 4434POPC   PO456928   6.604  44.654   5.864
 4434POPC   GL156929   6.597  44.636   6.164
 4434POPC   GL256930   6.790  44.576   6.164
 4434POPC   C1A56931   6.629  44.680   6.464
 4434POPC   D2A56932   6.662  44.704   6.764
 4434POPC   C3A56933   6.643  44.664   7.064
 4434POPC   C4A56934   6.656  44.681   7.364
 4434POPC   C1B56935   6.887  44.590   6.464
 4434POPC   C2B56936   6.841  44.509   6.764
 4434POPC   C3B56937   6.860  44.522   7.064
 4434POPC   C4B56938   6.861  44.509   7.364
 4435POPC   NC356939  11.320  41.604   5.564
 4435POPC   PO456940  11.264  41.587   5.864
 4435POPC   GL156941  11.262  41.539   6.164
 4435POPC   GL256942  11.302  41.459   6.164
 4435POPC   C1A56943  11.298  41.596   6.464
 4435POPC   D2A56944  11.310  41.534   6.764
 4435POPC   C3A56945  11.344  41.512   7.064
 4435POPC   C4A56946  11.315  41.576   7.364
 4435POPC   C1B56947  11.335  41.288   6.464
 4435POPC   C2B56948  11.312  41.305   6.764
 4435POPC   C3B56949  11.285  41.335   7.064
 4435POPC   C4B56950  11.299  41.310   7.364
 4436POPC   NC356951  28.326  26.083   5.564
 4436POPC   PO456952  28.381  26.074   5.864
 4436POPC   GL156953  28.342  26.031   6.164
 4436POPC   GL256954  28.349  26.199   6.164
 4436POPC   C1A56955  28.321  26.035   6.464
 4436POPC   D2A56956  28.328  26.002   6.764
 4436POPC   C3A56957  28.356  26.087   7.064
 4436POPC   C4A56958  28.342  26.062   7.364
 4436POPC   C1B56959  28.357  26.261   6.464
 4436POPC   C2B56960  28.377  26.265   6.764
 4436POPC   C3B56961  28.333  26.315   7.064
 4436POPC   C4B56962  28.376  26.321   7.364
 4437POPC   NC356963  12.802  10.482   5.564
 4437POPC   PO456964  12.864  10.524   5.864
 4437POPC   GL156965  12.892  10.564   6.164
 4437POPC   GL256966  12.984  10.554   6.164
 4437POPC   C1A56967  12.806  10.570   6.464
 4437POPC   D2A56968  12.819  10.541   6.764
 4437POPC   C3A56969  12.892  10.486   7.064
 4437POPC   C4A56970  12.874  10.567   7.364
 4437POPC   C1B56971  13.079  10.677   6.464
 4437POPC   C2B56972  13.053  10.643   6.764
 4437POPC   C3B56973  13.050  10.728   7.064
 4437POPC   C4B56974  13.018  10.708   7.364
 4438POPC   NC356975   5.871  40.787   5.564
 4438POPC   PO456976   5.844  40.737   5.864
 4438POPC   GL156977   5.822  40.782   6.164
 4438POPC   GL256978   6.034  40.817   6.164
 4438POPC   C1A56979   5.830  40.738   6.464
 4438POPC   D2A56980   5.895  40.819   6.764
 4438POPC   C3A56981   5.824  40.815   7.064
 4438POPC   C4A56982   5.849  40.827   7.364
 4438POPC   C1B56983   6.077  40.900   6.464
 4438POPC   C2B56984   6.089  40.904   6.764
 4438POPC   C3B56985   6.099  40.926   7.064
 4438POPC   C4B56986   6.070  40.886   7.364
 4439POPC   NC356987  27.629   3.587   5.564
 4439POPC   PO456988  27.615   3.533   5.864
 4439POPC   GL156989  27.554   3.556   6.164
 4439POPC   GL256990  27.759   3.543   6.164
 4439POPC   C1A56991  27.614   3.550   6.464
 4439POPC   D2A56992  27.593   3.538   6.764
 4439POPC   C3A56993  27.584   3.542   7.064
 4439POPC   C4A56994  27.544   3.517   7.364
 4439POPC   C1B56995  27.853   3.629   6.464
 4439POPC   C2B56996  27.838   3.591   6.764
 4439POPC   C3B56997  27.863   3.609   7.064
 4439POPC   C4B56998  27.809   3.617   7.364
 4440POPC   NC356999  43.863   6.639   5.564
 4440POPC   PO457000  43.840   6.641   5.864
 4440POPC   GL157001  43.908   6.661   6.164
 4440POPC   GL257002  44.029   6.581   6.164
 4440POPC   C1A57003  43.912   6.677   6.464
 4440POPC   D2A57004  43.875   6.653   6.764
 4440POPC   C3A57005  43.933   6.654   7.064
 4440POPC   C4A57006  43.934   6.614   7.364
 4440POPC   C1B57007  44.120   6.462   6.464
 4440POPC   C2B57008  44.027   6.491   6.764
 4440POPC   C3B57009  44.112   6.521   7.064
 4440POPC   C4B57010  44.049   6.458   7.364
 4441POPC   NC357011  40.800  25.279   5.564
 4441POPC   PO457012  40.766  25.256   5.864
 4441POPC   GL157013  40.763  25.235   6.164
 4441POPC   GL257014  40.869  25.145   6.164
 4441POPC   C1A57015  40.763  25.273   6.464
 4441POPC   D2A57016  40.738  25.270   6.764
 4441POPC   C3A57017  40.764  25.246   7.064
 4441POPC   C4A57018  40.773  25.294   7.364
 4441POPC   C1B57019  40.891  24.989   6.464
 4441POPC   C2B57020  40.900  25.035   6.764
 4441POPC   C3B57021  40.926  24.998   7.064
 4441POPC   C4B57022  40.844  25.009   7.364
 4442POPC   NC357023  22.163   0.466   5.564
 4442POPC   PO457024  22.125   0.393   5.864
 4442POPC   GL157025  22.202   0.430   6.164
 4442POPC   GL257026  22.255   0.491   6.164
 4442POPC   C1A57027  22.143   0.457   6.464
 4442POPC   D2A57028  22.115   0.418   6.764
 4442POPC   C3A57029  22.195   0.445   7.064
 4442POPC   C4A57030  22.202   0.477   7.364
 4442POPC   C1B57031  22.451   0.459   6.464
 4442POPC   C2B57032  22.428   0.430   6.764
 4442POPC   C3B57033  22.441   0.454   7.064
 4442POPC   C4B57034  22.456   0.519   7.364
 4443POPC   NC357035   4.273  27.619   5.564
 4443POPC   PO457036   4.334  27.604   5.864
 4443POPC   GL157037   4.356  27.555   6.164
 4443POPC   GL257038   4.451  27.614   6.164
 4443POPC   C1A57039   4.310  27.546   6.464
 4443POPC   D2A57040   4.285  27.554   6.764
 4443POPC   C3A57041   4.284  27.555   7.064
 4443POPC   C4A57042   4.274  27.555   7.364
 4443POPC   C1B57043   4.540  27.708   6.464
 4443POPC   C2B57044   4.528  27.677   6.764
 4443POPC   C3B57045   4.554  27.698   7.064
 4443POPC   C4B57046   4.544  27.666   7.364
 4444POPC   NC357047  26.788  44.695   5.564
 4444POPC   PO457048  26.767  44.628   5.864
 4444POPC   GL157049  26.778  44.627   6.164
 4444POPC   GL257050  26.778  44.805   6.164
 4444POPC   C1A57051  26.841  44.635   6.464
 4444POPC   D2A57052  26.848  44.632   6.764
 4444POPC   C3A57053  26.844  44.694   7.064
 4444POPC   C4A57054  26.770  44.625   7.364
 4444POPC   C1B57055  26.724  44.910   6.464
 4444POPC   C2B57056  26.666  44.862   6.764
 4444POPC   C3B57057  26.647  44.857   7.064
 4444POPC   C4B57058  26.698  44.844   7.364
 4445POPC   NC357059  21.378  11.298   5.564
 4445POPC   PO457060  21.419  11.286   5.864
 4445POPC   GL157061  21.393  11.315   6.164
 4445POPC   GL257062  21.414  11.211   6.164
 4445POPC   C1A57063  21.407  11.306   6.464
 4445POPC   D2A57064  21.385  11.328   6.764
 4445POPC   C3A57065  21.343  11.299   7.064
 4445POPC   C4A57066  21.382  11.298   7.364
 4445POPC   C1B57067  21.512  11.041   6.464
 4445POPC   C2B57068  21.433  11.025   6.764
 4445POPC   C3B57069  21.525  11.050   7.064
 4445POPC   C4B57070  21.432  11.089   7.364
 4446POPC   NC357071  10.562   0.455   5.564
 4446POPC   PO457072  10.514   0.485   5.864
 4446POPC   GL157073  10.549   0.400   6.164
 4446POPC   GL257074  10.517   0.592   6.164
 4446POPC   C1A57075  10.537   0.441   6.464
 4446POPC   D2A57076  10.510   0.458   6.764
 4446POPC   C3A57077  10.517   0.396   7.064
 4446POPC   C4A57078  10.554   0.418   7.364
 4446POPC   C1B57079  10.558   0.652   6.464
 4446POPC   C2B57080  10.604   0.706   6.764
 4446POPC   C3B57081  10.550   0.722   7.064
 4446POPC   C4B57082  10.607   0.632   7.364
 4447POPC   NC357083  43.064  31.476   5.564
 4447POPC   PO457084  43.081  31.511   5.864
 4447POPC   GL157085  43.143  31.510   6.164
 4447POPC   GL257086  42.976  31.430   6.164
 4447POPC   C1A57087  43.105  31.516   6.464
 4447POPC   D2A57088  43.064  31.510   6.764
 4447POPC   C3A57089  43.088  31.432   7.064
 4447POPC   C4A57090  43.101  31.423   7.364
 4447POPC   C1B57091  42.848  31.410   6.464
 4447POPC   C2B57092  42.908  31.408   6.764
 4447POPC   C3B57093  42.868  31.390   7.064
 4447POPC   C4B57094  42.882  31.350   7.364
 4448POPC   NC357095  37.705  39.987   5.564
 4448POPC   PO457096  37.711  40.027   5.864
 4448POPC   GL157097  37.720  40.017   6.164
 4448POPC   GL257098  37.600  39.957   6.164
 4448POPC   C1A57099  37.706  40.049   6.464
 4448POPC   D2A57100  37.679  40.038   6.764
 4448POPC   C3A57101  37.687  40.042   7.064
 4448POPC   C4A57102  37.695  40.048   7.364
 4448POPC   C1B57103  37.442  40.024   6.464
 4448POPC   C2B57104  37.406  39.972   6.764
 4448POPC   C3B57105  37.401  40.027   7.064
 4448POPC   C4B57106  37.446  40.003   7.364
 4449POPC   NC357107  24.470  24.479   5.564
 4449POPC   PO457108  24.446  24.479   5.864
 4449POPC   GL157109  24.487  24.467   6.164
 4449POPC   GL257110  24.395  24.417   6.164
 4449POPC   C1A57111  24.539  24.447   6.464
 4449POPC   D2A57112  24.477  24.475   6.764
 4449POPC   C3A57113  24.489  24.445   7.064
 4449POPC   C4A57114  24.453  24.486   7.364
 4449POPC   C1B57115  24.221  24.382   6.464
 4449POPC   C2B57116  24.244  24.376   6.764
 4449POPC   C3B57117  24.234  24.382   7.064
 4449POPC   C4B57118  24.267  24.345   7.364
 4450POPC   NC357119  24.507  36.908   5.564
 4450POPC   PO457120  24.502  36.868   5.864
 4450POPC   GL157121  24.464  36.882   6.164
 4450POPC   GL257122  24.557  37.057   6.164
 4450POPC   C1A57123  24.495  36.861   6.464
 4450POPC   D2A57124  24.507  36.895   6.764
 4450POPC   C3A57125  24.445  36.913   7.064
 4450POPC   C4A57126  24.498  36.918   7.364
 4450POPC   C1B57127  24.613  37.168   6.464
 4450POPC   C2B57128  24.570  37.169   6.764
 4450POPC   C3B57129  24.594  37.108   7.064
 4450POPC   C4B57130  24.574  37.116   7.364
 4451POPC   NC357131  36.875   8.938   5.564
 4451POPC   PO457132  36.886   8.977   5.864
 4451POPC   GL157133  36.924   8.982   6.164
 4451POPC   GL257134  36.824   8.945   6.164
 4451POPC   C1A57135  36.919   8.938   6.464
 4451POPC   D2A57136  36.934   8.975   6.764
 4451POPC   C3A57137  36.953   8.934   7.064
 4451POPC   C4A57138  36.940   8.928   7.364
 4451POPC   C1B57139  36.719   8.864   6.464
 4451POPC   C2B57140  36.689   8.820   6.764
 4451POPC   C3B57141  36.686   8.794   7.064
 4451POPC   C4B57142  36.664   8.835   7.364
 4452POPC   NC357143  11.267   8.211   5.564
 4452POPC   PO457144  11.306   8.195   5.864
 4452POPC   GL157145  11.285   8.213   6.164
 4452POPC   GL257146  11.415   8.133   6.164
 4452POPC   C1A57147  11.269   8.151   6.464
 4452POPC   D2A57148  11.339   8.206   6.764
 4452POPC   C3A57149  11.326   8.223   7.064
 4452POPC   C4A57150  11.278   8.225   7.364
 4452POPC   C1B57151  11.492   8.157   6.464
 4452POPC   C2B57152  11.544   8.089   6.764
 4452POPC   C3B57153  11.589   8.153   7.064
 4452POPC   C4B57154  11.567   8.116   7.364
 4453POPC   NC357155  22.163  21.434   5.564
 4453POPC   PO457156  22.171  21.422   5.864
 4453POPC   GL157157  22.148  21.372   6.164
 4453POPC   GL257158  22.079  21.460   6.164
 4453POPC   C1A57159  22.121  21.367   6.464
 4453POPC   D2A57160  22.169  21.354   6.764
 4453POPC   C3A57161  22.131  21.423   7.064
 4453POPC   C4A57162  22.161  21.368   7.364
 4453POPC   C1B57163  22.049  21.594   6.464
 4453POPC   C2B57164  21.992  21.637   6.764
 4453POPC   C3B57165  22.067  21.641   7.064
 4453POPC   C4B57166  22.041  21.586   7.364
 4454POPC   NC357167  22.208   8.203   5.564
 4454POPC   PO457168  22.181   8.171   5.864
 4454POPC   GL157169  22.123   8.215   6.164
 4454POPC   GL257170  22.044   8.116   6.164
 4454POPC   C1A57171  22.144   8.161   6.464
 4454POPC   D2A57172  22.168   8.179   6.764
 4454POPC   C3A57173  22.193   8.158   7.064
 4454POPC   C4A57174  22.208   8.204   7.364
 4454POPC   C1B57175  21.987   8.028   6.464
 4454POPC   C2B57176  21.928   8.021   6.764
 4454POPC   C3B57177  21.931   7.997   7.064
 4454POPC   C4B57178  21.935   8.052   7.364
 4455POPC   NC357179  20.586  15.166   5.564
 4455POPC   PO457180  20.579  15.217   5.864
 4455POPC   GL157181  20.591  15.181   6.164
 4455POPC   GL257182  20.753  15.237   6.164
 4455POPC   C1A57183  20.633  15.150   6.464
 4455POPC   D2A57184  20.625  15.161   6.764
 4455POPC   C3A57185  20.581  15.197   7.064
 4455POPC   C4A57186  20.654  15.225   7.364
 4455POPC   C1B57187  20.800  15.285   6.464
 4455POPC   C2B57188  20.823  15.298   6.764
 4455POPC   C3B57189  20.861  15.287   7.064
 4455POPC   C4B57190  20.778  15.263   7.364
 4456POPC   NC357191  36.914   6.612   5.564
 4456POPC   PO457192  36.945   6.634   5.864
 4456POPC   GL157193  36.932   6.621   6.164
 4456POPC   GL257194  36.949   6.699   6.164
 4456POPC   C1A57195  36.869   6.692   6.464
 4456POPC   D2A57196  36.862   6.694   6.764
 4456POPC   C3A57197  36.862   6.671   7.064
 4456POPC   C4A57198  36.952   6.611   7.364
 4456POPC   C1B57199  37.083   6.859   6.464
 4456POPC   C2B57200  37.068   6.835   6.764
 4456POPC   C3B57201  37.068   6.829   7.064
 4456POPC   C4B57202  37.128   6.811   7.364
 4457POPC   NC357203  44.642  32.204   5.564
 4457POPC   PO457204  44.669  32.287   5.864
 4457POPC   GL157205  44.647  32.296   6.164
 4457POPC   GL257206  44.748  32.327   6.164
 4457POPC   C1A57207  44.657  32.267   6.464
 4457POPC   D2A57208  44.612  32.266   6.764
 4457POPC   C3A57209  44.620  32.224   7.064
 4457POPC   C4A57210  44.641  32.250   7.364
 4457POPC   C1B57211  44.871  32.398   6.464
 4457POPC   C2B57212  44.838  32.328   6.764
 4457POPC   C3B57213  44.931  32.378   7.064
 4457POPC   C4B57214  44.857  32.402   7.364
 4458POPC   NC357215  32.995  36.156   5.564
 4458POPC   PO457216  33.049  36.078   5.864
 4458POPC   GL157217  33.002  36.141   6.164
 4458POPC   GL257218  33.158  36.175   6.164
 4458POPC   C1A57219  33.045  36.138   6.464
 4458POPC   D2A57220  33.017  36.155   6.764
 4458POPC   C3A57221  32.978  36.152   7.064
 4458POPC   C4A57222  33.042  36.157   7.364
 4458POPC   C1B57223  33.203  36.293   6.464
 4458POPC   C2B57224  33.244  36.292   6.764
 4458POPC   C3B57225  33.184  36.330   7.064
 4458POPC   C4B57226  33.223  36.238   7.364
 4459POPC   NC357227  39.190  11.328   5.564
 4459POPC   PO457228  39.228  11.257   5.864
 4459POPC   GL157229  39.249  11.253   6.164
 4459POPC   GL257230  39.292  11.413   6.164
 4459POPC   C1A57231  39.256  11.306   6.464
 4459POPC   D2A57232  39.213  11.305   6.764
 4459POPC   C3A57233  39.181  11.285   7.064
 4459POPC   C4A57234  39.201  11.304   7.364
 4459POPC   C1B57235  39.407  11.432   6.464
 4459POPC   C2B57236  39.365  11.445   6.764
 4459POPC   C3B57237  39.420  11.434   7.064
 4459POPC   C4B57238  39.371  11.434   7.364
 4460POPC   NC357239  10.536  33.828   5.564
 4460POPC   PO457240  10.554  33.831   5.864
 4460POPC   GL157241  10.508  33.843   6.164
 4460POPC   GL257242  10.425  33.768   6.164
 4460POPC   C1A57243  10.558  33.832   6.464
 4460POPC   D2A57244  10.500  33.804   6.764
 4460POPC   C3A57245  10.547  33.829   7.064
 4460POPC   C4A57246  10.566  33.797   7.364
 4460POPC   C1B57247  10.274  33.708   6.464
 4460POPC   C2B57248  10.315  33.646   6.764
 4460POPC   C3B57249  10.308  33.663   7.064
 4460POPC   C4B57250  10.277  33.684   7.364
 4461POPC   NC357251  13.594  22.116   5.564
 4461POPC   PO457252  13.598  22.122   5.864
 4461POPC   GL157253  13.668  22.148   6.164
 4461POPC   GL257254  13.775  22.141   6.164
 4461POPC   C1A57255  13.675  22.184   6.464
 4461POPC   D2A57256  13.591  22.209   6.764
 4461POPC   C3A57257  13.579  22.185   7.064
 4461POPC   C4A57258  13.636  22.113   7.364
 4461POPC   C1B57259  13.904  22.102   6.464
 4461POPC   C2B57260  13.848  22.066   6.764
 4461POPC   C3B57261  13.889  22.096   7.064
 4461POPC   C4B57262  13.838  22.147   7.364
 4462POPC   NC357263  17.509   9.708   5.564
 4462POPC   PO457264  17.546   9.786   5.864
 4462POPC   GL157265  17.479   9.786   6.164
 4462POPC   GL257266  17.611   9.623   6.164
 4462POPC   C1A57267  17.465   9.737   6.464
 4462POPC   D2A57268  17.522   9.784   6.764
 4462POPC   C3A57269  17.474   9.754   7.064
 4462POPC   C4A57270  17.464   9.767   7.364
 4462POPC   C1B57271  17.677   9.515   6.464
 4462POPC   C2B57272  17.662   9.539   6.764
 4462POPC   C3B57273  17.621   9.519   7.064
 4462POPC   C4B57274  17.637   9.580   7.364
 4463POPC   NC357275  18.241   9.721   5.564
 4463POPC   PO457276  18.235   9.708   5.864
 4463POPC   GL157277  18.270   9.786   6.164
 4463POPC   GL257278  18.402   9.686   6.164
 4463POPC   C1A57279  18.278   9.755   6.464
 4463POPC   D2A57280  18.307   9.707   6.764
 4463POPC   C3A57281  18.269   9.780   7.064
 4463POPC   C4A57282  18.235   9.784   7.364
 4463POPC   C1B57283  18.472   9.609   6.464
 4463POPC   C2B57284  18.490   9.567   6.764
 4463POPC   C3B57285  18.529   9.574   7.064
 4463POPC   C4B57286  18.493   9.604   7.364
 4464POPC   NC357287  36.911  22.151   5.564
 4464POPC   PO457288  36.909  22.154   5.864
 4464POPC   GL157289  36.937  22.143   6.164
 4464POPC   GL257290  36.958  22.239   6.164
 4464POPC   C1A57291  36.934  22.131   6.464
 4464POPC   D2A57292  36.910  22.202   6.764
 4464POPC   C3A57293  36.894  22.159   7.064
 4464POPC   C4A57294  36.943  22.190   7.364
 4464POPC   C1B57295  36.937  22.378   6.464
 4464POPC   C2B57296  36.930  22.387   6.764
 4464POPC   C3B57297  36.985  22.385   7.064
 4464POPC   C4B57298  36.951  22.374   7.364
 4465POPC   NC357299  28.377   8.932   5.564
 4465POPC   PO457300  28.373   8.994   5.864
 4465POPC   GL157301  28.364   8.942   6.164
 4465POPC   GL257302  28.260   9.031   6.164
 4465POPC   C1A57303  28.346   8.964   6.464
 4465POPC   D2A57304  28.324   8.930   6.764
 4465POPC   C3A57305  28.319   8.971   7.064
 4465POPC   C4A57306  28.349   9.003   7.364
 4465POPC   C1B57307  28.099   9.082   6.464
 4465POPC   C2B57308  28.133   9.023   6.764
 4465POPC   C3B57309  28.173   9.030   7.064
 4465POPC   C4B57310  28.132   9.073   7.364
 4466POPC   NC357311  44.701   7.403   5.564
 4466POPC   PO457312  44.678   7.427   5.864
 4466POPC   GL157313  44.635   7.424   6.164
 4466POPC   GL257314  44.617   7.264   6.164
 4466POPC   C1A57315  44.675   7.402   6.464
 4466POPC   D2A57316  44.692   7.384   6.764
 4466POPC   C3A57317  44.650   7.406   7.064
 4466POPC   C4A57318  44.662   7.398   7.364
 4466POPC   C1B57319  44.677   7.198   6.464
 4466POPC   C2B57320  44.659   7.191   6.764
 4466POPC   C3B57321  44.594   7.127   7.064
 4466POPC   C4B57322  44.676   7.136   7.364
 4467POPC   NC357323  43.079  29.939   5.564
 4467POPC   PO457324  43.116  29.918   5.864
 4467POPC   GL157325  43.159  29.964   6.164
 4467POPC   GL257326  43.224  29.842   6.164
 4467POPC   C1A57327  43.145  29.918   6.464
 4467POPC   D2A57328  43.080  29.969   6.764
 4467POPC   C3A57329  43.099  29.949   7.064
 4467POPC   C4A57330  43.126  29.910   7.364
 4467POPC   C1B57331  43.262  29.730   6.464
 4467POPC   C2B57332  43.287  29.807   6.764
 4467POPC   C3B57333  43.336  29.733   7.064
 4467POPC   C4B57334  43.289  29.737   7.364
 4468POPC   NC357335  35.370  20.637   5.564
 4468POPC   PO457336  35.389  20.571   5.864
 4468POPC   GL157337  35.312  20.627   6.164
 4468POPC   GL257338  35.216  20.726   6.164
 4468POPC   C1A57339  35.312  20.606   6.464
 4468POPC   D2A57340  35.308  20.562   6.764
 4468POPC   C3A57341  35.346  20.589   7.064
 4468POPC   C4A57342  35.331  20.650   7.364
 4468POPC   C1B57343  35.183  20.797   6.464
 4468POPC   C2B57344  35.209  20.754   6.764
 4468POPC   C3B57345  35.201  20.811   7.064
 4468POPC   C4B57346  35.191  20.808   7.364
 4469POPC   NC357347  44.669  42.309   5.564
 4469POPC   PO457348  44.708  42.338   5.864
 4469POPC   GL157349  44.686  42.380   6.164
 4469POPC   GL257350  44.656  42.185   6.164
 4469POPC   C1A57351  44.656  42.295   6.464
 4469POPC   D2A57352  44.636  42.307   6.764
 4469POPC   C3A57353  44.692  42.380   7.064
 4469POPC   C4A57354  44.646  42.306   7.364
 4469POPC   C1B57355  44.622  42.082   6.464
 4469POPC   C2B57356  44.543  42.058   6.764
 4469POPC   C3B57357  44.583  42.138   7.064
 4469POPC   C4B57358  44.580  42.110   7.364
 4470POPC   NC357359  41.608  22.189   5.564
 4470POPC   PO457360  41.550  22.172   5.864
 4470POPC   GL157361  41.564  22.153   6.164
 4470POPC   GL257362  41.506  22.282   6.164
 4470POPC   C1A57363  41.528  22.123   6.464
 4470POPC   D2A57364  41.562  22.122   6.764
 4470POPC   C3A57365  41.578  22.177   7.064
 4470POPC   C4A57366  41.564  22.118   7.364
 4470POPC   C1B57367  41.408  22.348   6.464
 4470POPC   C2B57368  41.389  22.335   6.764
 4470POPC   C3B57369  41.363  22.371   7.064
 4470POPC   C4B57370  41.354  22.312   7.364
 4471POPC   NC357371  36.910  10.513   5.564
 4471POPC   PO457372  36.866  10.530   5.864
 4471POPC   GL157373  36.933  10.531   6.164
 4471POPC   GL257374  36.858  10.442   6.164
 4471POPC   C1A57375  36.911  10.530   6.464
 4471POPC   D2A57376  36.888  10.522   6.764
 4471POPC   C3A57377  36.904  10.561   7.064
 4471POPC   C4A57378  36.885  10.525   7.364
 4471POPC   C1B57379  36.777  10.301   6.464
 4471POPC   C2B57380  36.849  10.306   6.764
 4471POPC   C3B57381  36.823  10.298   7.064
 4471POPC   C4B57382  36.795  10.321   7.364
 4472POPC   NC357383  11.320  20.572   5.564
 4472POPC   PO457384  11.323  20.578   5.864
 4472POPC   GL157385  11.333  20.561   6.164
 4472POPC   GL257386  11.399  20.566   6.164
 4472POPC   C1A57387  11.267  20.650   6.464
 4472POPC   D2A57388  11.318  20.635   6.764
 4472POPC   C3A57389  11.280  20.596   7.064
 4472POPC   C4A57390  11.279  20.611   7.364
 4472POPC   C1B57391  11.543  20.481   6.464
 4472POPC   C2B57392  11.510  20.464   6.764
 4472POPC   C3B57393  11.547  20.496   7.064
 4472POPC   C4B57394  11.555  20.507   7.364
 4473POPC   NC357395  38.456  23.755   5.564
 4473POPC   PO457396  38.424  23.748   5.864
 4473POPC   GL157397  38.456  23.752   6.164
 4473POPC   GL257398  38.378  23.771   6.164
 4473POPC   C1A57399  38.487  23.668   6.464
 4473POPC   D2A57400  38.431  23.735   6.764
 4473POPC   C3A57401  38.406  23.671   7.064
 4473POPC   C4A57402  38.478  23.703   7.364
 4473POPC   C1B57403  38.163  23.706   6.464
 4473POPC   C2B57404  38.190  23.708   6.764
 4473POPC   C3B57405  38.176  23.763   7.064
 4473POPC   C4B57406  38.234  23.705   7.364
 4474POPC   NC357407   5.898  29.136   5.564
 4474POPC   PO457408   5.873  29.123   5.864
 4474POPC   GL157409   5.843  29.192   6.164
 4474POPC   GL257410   5.967  29.145   6.164
 4474POPC   C1A57411   5.842  29.139   6.464
 4474POPC   D2A57412   5.904  29.116   6.764
 4474POPC   C3A57413   5.887  29.186   7.064
 4474POPC   C4A57414   5.837  29.176   7.364
 4474POPC   C1B57415   6.081  29.145   6.464
 4474POPC   C2B57416   6.125  29.133   6.764
 4474POPC   C3B57417   6.161  29.131   7.064
 4474POPC   C4B57418   6.087  29.131   7.364
 4475POPC   NC357419  31.458  34.593   5.564
 4475POPC   PO457420  31.432  34.591   5.864
 4475POPC   GL157421  31.501  34.570   6.164
 4475POPC   GL257422  31.457  34.737   6.164
 4475POPC   C1A57423  31.481  34.527   6.464
 4475POPC   D2A57424  31.466  34.570   6.764
 4475POPC   C3A57425  31.517  34.618   7.064
 4475POPC   C4A57426  31.499  34.534   7.364
 4475POPC   C1B57427  31.496  34.815   6.464
 4475POPC   C2B57428  31.490  34.804   6.764
 4475POPC   C3B57429  31.518  34.849   7.064
 4475POPC   C4B57430  31.551  34.853   7.364
 4476POPC   NC357431   5.118  15.158   5.564
 4476POPC   PO457432   5.084  15.144   5.864
 4476POPC   GL157433   5.098  15.209   6.164
 4476POPC   GL257434   5.231  15.213   6.164
 4476POPC   C1A57435   5.076  15.136   6.464
 4476POPC   D2A57436   5.065  15.219   6.764
 4476POPC   C3A57437   5.106  15.173   7.064
 4476POPC   C4A57438   5.127  15.156   7.364
 4476POPC   C1B57439   5.350  15.268   6.464
 4476POPC   C2B57440   5.303  15.263   6.764
 4476POPC   C3B57441   5.365  15.326   7.064
 4476POPC   C4B57442   5.304  15.286   7.364
 4477POPC   NC357443  33.823  27.641   5.564
 4477POPC   PO457444  33.752  27.582   5.864
 4477POPC   GL157445  33.839  27.600   6.164
 4477POPC   GL257446  33.704  27.734   6.164
 4477POPC   C1A57447  33.788  27.604   6.464
 4477POPC   D2A57448  33.789  27.617   6.764
 4477POPC   C3A57449  33.789  27.550   7.064
 4477POPC   C4A57450  33.771  27.602   7.364
 4477POPC   C1B57451  33.628  27.801   6.464
 4477POPC   C2B57452  33.638  27.839   6.764
 4477POPC   C3B57453  33.685  27.773   7.064
 4477POPC   C4B57454  33.654  27.829   7.364
 4478POPC   NC357455  11.278   4.355   5.564
 4478POPC   PO457456  11.319   4.323   5.864
 4478POPC   GL157457  11.338   4.362   6.164
 4478POPC   GL257458  11.408   4.234   6.164
 4478POPC   C1A57459  11.300   4.299   6.464
 4478POPC   D2A57460  11.292   4.296   6.764
 4478POPC   C3A57461  11.340   4.299   7.064
 4478POPC   C4A57462  11.347   4.271   7.364
 4478POPC   C1B57463  11.479   4.124   6.464
 4478POPC   C2B57464  11.458   4.173   6.764
 4478POPC   C3B57465  11.452   4.126   7.064
 4478POPC   C4B57466  11.529   4.163   7.364
 4479POPC   NC357467  19.834  24.498   5.564
 4479POPC   PO457468  19.875  24.498   5.864
 4479POPC   GL157469  19.800  24.451   6.164
 4479POPC   GL257470  19.781  24.382   6.164
 4479POPC   C1A57471  19.796  24.479   6.464
 4479POPC   D2A57472  19.820  24.486   6.764
 4479POPC   C3A57473  19.827  24.448   7.064
 4479POPC   C4A57474  19.872  24.449   7.364
 4479POPC   C1B57475  19.757  24.203   6.464
 4479POPC   C2B57476  19.804  24.268   6.764
 4479POPC   C3B57477  19.759  24.289   7.064
 4479POPC   C4B57478  19.759  24.217   7.364
 4480POPC   NC357479  26.767   5.139   5.564
 4480POPC   PO457480  26.797   5.133   5.864
 4480POPC   GL157481  26.773   5.086   6.164
 4480POPC   GL257482  26.904   5.108   6.164
 4480POPC   C1A57483  26.840   5.115   6.464
 4480POPC   D2A57484  26.799   5.111   6.764
 4480POPC   C3A57485  26.835   5.128   7.064
 4480POPC   C4A57486  26.774   5.130   7.364
 4480POPC   C1B57487  27.056   5.198   6.464
 4480POPC   C2B57488  27.099   5.160   6.764
 4480POPC   C3B57489  27.087   5.130   7.064
 4480POPC   C4B57490  27.063   5.190   7.364
 4481POPC   NC357491  26.080  41.585   5.564
 4481POPC   PO457492  26.080  41.587   5.864
 4481POPC   GL157493  26.023  41.564   6.164
 4481POPC   GL257494  26.120  41.559   6.164
 4481POPC   C1A57495  26.031  41.545   6.464
 4481POPC   D2A57496  26.042  41.556   6.764
 4481POPC   C3A57497  26.056  41.510   7.064
 4481POPC   C4A57498  26.016  41.585   7.364
 4481POPC   C1B57499  26.261  41.462   6.464
 4481POPC   C2B57500  26.312  41.504   6.764
 4481POPC   C3B57501  26.242  41.491   7.064
 4481POPC   C4B57502  26.295  41.463   7.364
 4482POPC   NC357503  19.102  43.842   5.564
 4482POPC   PO457504  19.020  43.898   5.864
 4482POPC   GL157505  19.073  43.890   6.164
 4482POPC   GL257506  18.947  43.938   6.164
 4482POPC   C1A57507  19.034  43.927   6.464
 4482POPC   D2A57508  19.075  43.903   6.764
 4482POPC   C3A57509  19.082  43.892   7.064
 4482POPC   C4A57510  19.014  43.849   7.364
 4482POPC   C1B57511  18.887  44.134   6.464
 4482POPC   C2B57512  18.864  44.111   6.764
 4482POPC   C3B57513  18.892  44.117   7.064
 4482POPC   C4B57514  18.901  44.068   7.364
 4483POPC   NC357515  35.363  29.169   5.564
 4483POPC   PO457516  35.391  29.161   5.864
 4483POPC   GL157517  35.355  29.126   6.164
 4483POPC   GL257518  35.419  29.268   6.164
 4483POPC   C1A57519  35.386  29.154   6.464
 4483POPC   D2A57520  35.306  29.100   6.764
 4483POPC   C3A57521  35.360  29.165   7.064
 4483POPC   C4A57522  35.401  29.183   7.364
 4483POPC   C1B57523  35.477  29.370   6.464
 4483POPC   C2B57524  35.435  29.325   6.764
 4483POPC   C3B57525  35.471  29.404   7.064
 4483POPC   C4B57526  35.502  29.354   7.364
 4484POPC   NC357527   5.113  43.928   5.564
 4484POPC   PO457528   5.093  43.916   5.864
 4484POPC   GL157529   5.046  43.879   6.164
 4484POPC   GL257530   5.255  43.857   6.164
 4484POPC   C1A57531   5.047  43.883   6.464
 4484POPC   D2A57532   5.102  43.929   6.764
 4484POPC   C3A57533   5.079  43.843   7.064
 4484POPC   C4A57534   5.106  43.865   7.364
 4484POPC   C1B57535   5.321  43.783   6.464
 4484POPC   C2B57536   5.347  43.822   6.764
 4484POPC   C3B57537   5.324  43.843   7.064
 4484POPC   C4B57538   5.312  43.836   7.364
 4485POPC   NC357539  39.255  38.437   5.564
 4485POPC   PO457540  39.276  38.407   5.864
 4485POPC   GL157541  39.234  38.420   6.164
 4485POPC   GL257542  39.396  38.472   6.164
 4485POPC   C1A57543  39.224  38.444   6.464
 4485POPC   D2A57544  39.221  38.479   6.764
 4485POPC   C3A57545  39.278  38.439   7.064
 4485POPC   C4A57546  39.250  38.477   7.364
 4485POPC   C1B57547  39.493  38.347   6.464
 4485POPC   C2B57548  39.453  38.346   6.764
 4485POPC   C3B57549  39.514  38.437   7.064
 4485POPC   C4B57550  39.485  38.401   7.364
 4486POPC   NC357551  22.956  41.605   5.564
 4486POPC   PO457552  22.948  41.553   5.864
 4486POPC   GL157553  22.963  41.595   6.164
 4486POPC   GL257554  22.834  41.457   6.164
 4486POPC   C1A57555  22.982  41.597   6.464
 4486POPC   D2A57556  22.901  41.522   6.764
 4486POPC   C3A57557  22.934  41.599   7.064
 4486POPC   C4A57558  22.977  41.517   7.364
 4486POPC   C1B57559  22.757  41.442   6.464
 4486POPC   C2B57560  22.738  41.430   6.764
 4486POPC   C3B57561  22.729  41.489   7.064
 4486POPC   C4B57562  22.738  41.447   7.364
 4487POPC   NC357563  38.490  43.896   5.564
 4487POPC   PO457564  38.457  43.908   5.864
 4487POPC   GL157565  38.439  43.892   6.164
 4487POPC   GL257566  38.349  43.905   6.164
 4487POPC   C1A57567  38.462  43.856   6.464
 4487POPC   D2A57568  38.446  43.925   6.764
 4487POPC   C3A57569  38.488  43.904   7.064
 4487POPC   C4A57570  38.449  43.910   7.364
 4487POPC   C1B57571  38.211  43.998   6.464
 4487POPC   C2B57572  38.195  43.974   6.764
 4487POPC   C3B57573  38.166  43.972   7.064
 4487POPC   C4B57574  38.212  43.984   7.364
 4488POPC   NC357575  35.320  36.873   5.564
 4488POPC   PO457576  35.313  36.947   5.864
 4488POPC   GL157577  35.331  36.864   6.164
 4488POPC   GL257578  35.408  36.974   6.164
 4488POPC   C1A57579  35.361  36.894   6.464
 4488POPC   D2A57580  35.346  36.879   6.764
 4488POPC   C3A57581  35.384  36.907   7.064
 4488POPC   C4A57582  35.310  36.866   7.364
 4488POPC   C1B57583  35.458  37.057   6.464
 4488POPC   C2B57584  35.488  37.099   6.764
 4488POPC   C3B57585  35.506  37.148   7.064
 4488POPC   C4B57586  35.471  37.131   7.364
 4489POPC   NC357587  40.001  21.417   5.564
 4489POPC   PO457588  40.022  21.404   5.864
 4489POPC   GL157589  40.037  21.419   6.164
 4489POPC   GL257590  40.140  21.310   6.164
 4489POPC   C1A57591  40.006  21.413   6.464
 4489POPC   D2A57592  39.996  21.350   6.764
 4489POPC   C3A57593  40.039  21.392   7.064
 4489POPC   C4A57594  39.989  21.359   7.364
 4489POPC   C1B57595  40.229  21.312   6.464
 4489POPC   C2B57596  40.177  21.243   6.764
 4489POPC   C3B57597  40.257  21.281   7.064
 4489POPC   C4B57598  40.261  21.245   7.364
 4490POPC   NC357599  36.908  39.258   5.564
 4490POPC   PO457600  36.854  39.210   5.864
 4490POPC   GL157601  36.925  39.216   6.164
 4490POPC   GL257602  36.857  39.137   6.164
 4490POPC   C1A57603  36.909  39.256   6.464
 4490POPC   D2A57604  36.937  39.222   6.764
 4490POPC   C3A57605  36.881  39.221   7.064
 4490POPC   C4A57606  36.944  39.183   7.364
 4490POPC   C1B57607  36.854  38.946   6.464
 4490POPC   C2B57608  36.816  38.989   6.764
 4490POPC   C3B57609  36.845  38.978   7.064
 4490POPC   C4B57610  36.805  39.018   7.364
 4491POPC   NC357611  39.277  16.760   5.564
 4491POPC   PO457612  39.224  16.745   5.864
 4491POPC   GL157613  39.189  16.764   6.164
 4491POPC   GL257614  39.206  16.830   6.164
 4491POPC   C1A57615  39.251  16.709   6.464
 4491POPC   D2A57616  39.245  16.739   6.764
 4491POPC   C3A57617  39.188  16.685   7.064
 4491POPC   C4A57618  39.216  16.773   7.364
 4491POPC   C1B57619  39.228  16.938   6.464
 4491POPC   C2B57620  39.239  17.013   6.764
 4491POPC   C3B57621  39.277  16.935   7.064
 4491POPC   C4B57622  39.270  16.976   7.364
 4492POPC   NC357623  35.302  27.639   5.564
 4492POPC   PO457624  35.390  27.638   5.864
 4492POPC   GL157625  35.398  27.629   6.164
 4492POPC   GL257626  35.463  27.489   6.164
 4492POPC   C1A57627  35.401  27.564   6.464
 4492POPC   D2A57628  35.393  27.611   6.764
 4492POPC   C3A57629  35.331  27.602   7.064
 4492POPC   C4A57630  35.393  27.615   7.364
 4492POPC   C1B57631  35.586  27.462   6.464
 4492POPC   C2B57632  35.597  27.469   6.764
 4492POPC   C3B57633  35.623  27.471   7.064
 4492POPC   C4B57634  35.559  27.456   7.364
 4493POPC   NC357635  16.742   7.380   5.564
 4493POPC   PO457636  16.773   7.462   5.864
 4493POPC   GL157637  16.764   7.418   6.164
 4493POPC   GL257638  16.854   7.566   6.164
 4493POPC   C1A57639  16.713   7.454   6.464
 4493POPC   D2A57640  16.748   7.425   6.764
 4493POPC   C3A57641  16.778   7.428   7.064
 4493POPC   C4A57642  16.741   7.448   7.364
 4493POPC   C1B57643  16.885   7.615   6.464
 4493POPC   C2B57644  16.836   7.615   6.764
 4493POPC   C3B57645  16.899   7.612   7.064
 4493POPC   C4B57646  16.916   7.610   7.364
 4494POPC   NC357647  16.760   4.335   5.564
 4494POPC   PO457648  16.761   4.353   5.864
 4494POPC   GL157649  16.693   4.326   6.164
 4494POPC   GL257650  16.682   4.450   6.164
 4494POPC   C1A57651  16.685   4.342   6.464
 4494POPC   D2A57652  16.733   4.334   6.764
 4494POPC   C3A57653  16.687   4.311   7.064
 4494POPC   C4A57654  16.741   4.290   7.364
 4494POPC   C1B57655  16.694   4.533   6.464
 4494POPC   C2B57656  16.677   4.524   6.764
 4494POPC   C3B57657  16.599   4.541   7.064
 4494POPC   C4B57658  16.684   4.596   7.364
 4495POPC   NC357659  18.304  15.924   5.564
 4495POPC   PO457660  18.299  15.998   5.864
 4495POPC   GL157661  18.277  15.914   6.164
 4495POPC   GL257662  18.367  16.074   6.164
 4495POPC   C1A57663  18.331  15.977   6.464
 4495POPC   D2A57664  18.292  15.992   6.764
 4495POPC   C3A57665  18.271  15.937   7.064
 4495POPC   C4A57666  18.323  16.004   7.364
 4495POPC   C1B57667  18.418  16.150   6.464
 4495POPC   C2B57668  18.463  16.104   6.764
 4495POPC   C3B57669  18.409  16.171   7.064
 4495POPC   C4B57670  18.450  16.182   7.364
 4496POPC   NC357671  37.720  11.331   5.564
 4496POPC   PO457672  37.630  11.291   5.864
 4496POPC   GL157673  37.652  11.309   6.164
 4496POPC   GL257674  37.560  11.381   6.164
 4496POPC   C1A57675  37.668  11.267   6.464
 4496POPC   D2A57676  37.709  11.301   6.764
 4496POPC   C3A57677  37.714  11.310   7.064
 4496POPC   C4A57678  37.722  11.288   7.364
 4496POPC   C1B57679  37.518  11.464   6.464
 4496POPC   C2B57680  37.537  11.514   6.764
 4496POPC   C3B57681  37.521  11.473   7.064
 4496POPC   C4B57682  37.567  11.518   7.364
 4497POPC   NC357683  39.980  38.417   5.564
 4497POPC   PO457684  40.052  38.503   5.864
 4497POPC   GL157685  39.996  38.430   6.164
 4497POPC   GL257686  39.981  38.304   6.164
 4497POPC   C1A57687  40.015  38.476   6.464
 4497POPC   D2A57688  39.976  38.418   6.764
 4497POPC   C3A57689  40.033  38.413   7.064
 4497POPC   C4A57690  39.983  38.450   7.364
 4497POPC   C1B57691  40.021  38.242   6.464
 4497POPC   C2B57692  40.066  38.250   6.764
 4497POPC   C3B57693  40.053  38.169   7.064
 4497POPC   C4B57694  40.000  38.159   7.364
 4498POPC   NC357695  15.209  10.479   5.564
 4498POPC   PO457696  15.178  10.515   5.864
 4498POPC   GL157697  15.173  10.487   6.164
 4498POPC   GL257698  15.279  10.523   6.164
 4498POPC   C1A57699  15.223  10.538   6.464
 4498POPC   D2A57700  15.188  10.485   6.764
 4498POPC   C3A57701  15.207  10.570   7.064
 4498POPC   C4A57702  15.158  10.500   7.364
 4498POPC   C1B57703  15.418  10.644   6.464
 4498POPC   C2B57704  15.454  10.601   6.764
 4498POPC   C3B57705  15.458  10.637   7.064
 4498POPC   C4B57706  15.463  10.571   7.364
 4499POPC   NC357707  22.128  44.680   5.564
 4499POPC   PO457708  22.169  44.702   5.864
 4499POPC   GL157709  22.150  44.616   6.164
 4499POPC   GL257710  22.061  44.682   6.164
 4499POPC   C1A57711  22.168  44.656   6.464
 4499POPC   D2A57712  22.157  44.617   6.764
 4499POPC   C3A57713  22.158  44.681   7.064
 4499POPC   C4A57714  22.197  44.666   7.364
 4499POPC   C1B57715  21.893  44.781   6.464
 4499POPC   C2B57716  21.943  44.715   6.764
 4499POPC   C3B57717  21.916  44.713   7.064
 4499POPC   C4B57718  21.932  44.710   7.364
 4500POPC   NC357719  43.107   2.781   5.564
 4500POPC   PO457720  43.075   2.743   5.864
 4500POPC   GL157721  43.133   2.724   6.164
 4500POPC   GL257722  43.007   2.879   6.164
 4500POPC   C1A57723  43.158   2.722   6.464
 4500POPC   D2A57724  43.155   2.779   6.764
 4500POPC   C3A57725  43.093   2.749   7.064
 4500POPC   C4A57726  43.123   2.771   7.364
 4500POPC   C1B57727  42.980   2.987   6.464
 4500POPC   C2B57728  42.932   2.987   6.764
 4500POPC   C3B57729  42.986   2.944   7.064
 4500POPC   C4B57730  42.927   3.008   7.364
 4501POPC   NC357731  23.682  38.423   5.564
 4501POPC   PO457732  23.698  38.447   5.864
 4501POPC   GL157733  23.668  38.500   6.164
 4501POPC   GL257734  23.606  38.454   6.164
 4501POPC   C1A57735  23.747  38.495   6.464
 4501POPC   D2A57736  23.710  38.405   6.764
 4501POPC   C3A57737  23.720  38.417   7.064
 4501POPC   C4A57738  23.721  38.426   7.364
 4501POPC   C1B57739  23.528  38.356   6.464
 4501POPC   C2B57740  23.466  38.346   6.764
 4501POPC   C3B57741  23.472  38.380   7.064
 4501POPC   C4B57742  23.493  38.317   7.364
 4502POPC   NC357743  13.625  10.558   5.564
 4502POPC   PO457744  13.640  10.568   5.864
 4502POPC   GL157745  13.630  10.491   6.164
 4502POPC   GL257746  13.745  10.496   6.164
 4502POPC   C1A57747  13.595  10.565   6.464
 4502POPC   D2A57748  13.675  10.558   6.764
 4502POPC   C3A57749  13.606  10.484   7.064
 4502POPC   C4A57750  13.613  10.514   7.364
 4502POPC   C1B57751  13.897  10.439   6.464
 4502POPC   C2B57752  13.895  10.503   6.764
 4502POPC   C3B57753  13.860  10.478   7.064
 4502POPC   C4B57754  13.844  10.495   7.364
 4503POPC   NC357755   8.227  21.422   5.564
 4503POPC   PO457756   8.198  21.341   5.864
 4503POPC   GL157757   8.189  21.386   6.164
 4503POPC   GL257758   8.124  21.291   6.164
 4503POPC   C1A57759   8.186  21.360   6.464
 4503POPC   D2A57760   8.193  21.420   6.764
 4503POPC   C3A57761   8.149  21.409   7.064
 4503POPC   C4A57762   8.212  21.365   7.364
 4503POPC   C1B57763   8.100  21.112   6.464
 4503POPC   C2B57764   8.107  21.147   6.764
 4503POPC   C3B57765   8.072  21.152   7.064
 4503POPC   C4B57766   8.073  21.161   7.364
 4504POPC   NC357767  12.064  36.117   5.564
 4504POPC   PO457768  12.093  36.110   5.864
 4504POPC   GL157769  12.037  36.144   6.164
 4504POPC   GL257770  12.135  36.237   6.164
 4504POPC   C1A57771  12.071  36.093   6.464
 4504POPC   D2A57772  12.027  36.094   6.764
 4504POPC   C3A57773  12.126  36.097   7.064
 4504POPC   C4A57774  12.047  36.090   7.364
 4504POPC   C1B57775  12.302  36.249   6.464
 4504POPC   C2B57776  12.254  36.280   6.764
 4504POPC   C3B57777  12.294  36.254   7.064
 4504POPC   C4B57778  12.329  36.281   7.364
 4505POPC   NC357779  17.530   5.855   5.564
 4505POPC   PO457780  17.518   5.822   5.864
 4505POPC   GL157781  17.476   5.824   6.164
 4505POPC   GL257782  17.476   5.793   6.164
 4505POPC   C1A57783  17.484   5.855   6.464
 4505POPC   D2A57784  17.542   5.881   6.764
 4505POPC   C3A57785  17.490   5.903   7.064
 4505POPC   C4A57786  17.483   5.913   7.364
 4505POPC   C1B57787  17.464   5.571   6.464
 4505POPC   C2B57788  17.517   5.663   6.764
 4505POPC   C3B57789  17.479   5.655   7.064
 4505POPC   C4B57790  17.520   5.651   7.364
 4506POPC   NC357791  19.814   2.777   5.564
 4506POPC   PO457792  19.813   2.793   5.864
 4506POPC   GL157793  19.830   2.809   6.164
 4506POPC   GL257794  19.884   2.654   6.164
 4506POPC   C1A57795  19.860   2.800   6.464
 4506POPC   D2A57796  19.818   2.813   6.764
 4506POPC   C3A57797  19.831   2.786   7.064
 4506POPC   C4A57798  19.809   2.783   7.364
 4506POPC   C1B57799  19.984   2.572   6.464
 4506POPC   C2B57800  19.975   2.574   6.764
 4506POPC   C3B57801  19.987   2.513   7.064
 4506POPC   C4B57802  20.016   2.542   7.364
 4507POPC   NC357803  19.092  42.331   5.564
 4507POPC   PO457804  19.010  42.333   5.864
 4507POPC   GL157805  19.056  42.373   6.164
 4507POPC   GL257806  19.056  42.423   6.164
 4507POPC   C1A57807  19.066  42.286   6.464
 4507POPC   D2A57808  19.065  42.349   6.764
 4507POPC   C3A57809  19.070  42.347   7.064
 4507POPC   C4A57810  19.072  42.345   7.364
 4507POPC   C1B57811  19.105  42.560   6.464
 4507POPC   C2B57812  19.079  42.547   6.764
 4507POPC   C3B57813  19.104  42.625   7.064
 4507POPC   C4B57814  19.057  42.603   7.364
 4508POPC   NC357815  19.076  26.040   5.564
 4508POPC   PO457816  19.055  26.047   5.864
 4508POPC   GL157817  19.059  26.006   6.164
 4508POPC   GL257818  19.091  25.956   6.164
 4508POPC   C1A57819  19.096  26.011   6.464
 4508POPC   D2A57820  19.104  25.992   6.764
 4508POPC   C3A57821  19.090  26.004   7.064
 4508POPC   C4A57822  19.042  26.015   7.364
 4508POPC   C1B57823  19.097  25.804   6.464
 4508POPC   C2B57824  19.139  25.754   6.764
 4508POPC   C3B57825  19.068  25.814   7.064
 4508POPC   C4B57826  19.121  25.783   7.364
 4509POPC   NC357827  39.960  41.526   5.564
 4509POPC   PO457828  40.011  41.606   5.864
 4509POPC   GL157829  39.974  41.583   6.164
 4509POPC   GL257830  40.073  41.481   6.164
 4509POPC   C1A57831  40.038  41.583   6.464
 4509POPC   D2A57832  40.039  41.509   6.764
 4509POPC   C3A57833  40.021  41.588   7.064
 4509POPC   C4A57834  39.969  41.599   7.364
 4509POPC   C1B57835  40.073  41.296   6.464
 4509POPC   C2B57836  40.093  41.267   6.764
 4509POPC   C3B57837  40.023  41.277   7.064
 4509POPC   C4B57838  40.099  41.295   7.364
 4510POPC   NC357839  12.121  43.061   5.564
 4510POPC   PO457840  12.043  43.158   5.864
 4510POPC   GL157841  12.107  43.139   6.164
 4510POPC   GL257842  12.099  43.190   6.164
 4510POPC   C1A57843  12.070  43.117   6.464
 4510POPC   D2A57844  12.064  43.094   6.764
 4510POPC   C3A57845  12.124  43.140   7.064
 4510POPC   C4A57846  12.124  43.089   7.364
 4510POPC   C1B57847  12.143  43.337   6.464
 4510POPC   C2B57848  12.176  43.297   6.764
 4510POPC   C3B57849  12.197  43.321   7.064
 4510POPC   C4B57850  12.173  43.374   7.364
 4511POPC   NC357851   2.795  19.867   5.564
 4511POPC   PO457852   2.810  19.791   5.864
 4511POPC   GL157853   2.790  19.825   6.164
 4511POPC   GL257854   2.761  19.674   6.164
 4511POPC   C1A57855   2.772  19.797   6.464
 4511POPC   D2A57856   2.746  19.879   6.764
 4511POPC   C3A57857   2.784  19.793   7.064
 4511POPC   C4A57858   2.740  19.843   7.364
 4511POPC   C1B57859   2.673  19.607   6.464
 4511POPC   C2B57860   2.715  19.621   6.764
 4511POPC   C3B57861   2.698  19.595   7.064
 4511POPC   C4B57862   2.624  19.594   7.364
 4512POPC   NC357863  26.090  17.510   5.564
 4512POPC   PO457864  26.086  17.524   5.864
 4512POPC   GL157865  26.075  17.514   6.164
 4512POPC   GL257866  26.129  17.434   6.164
 4512POPC   C1A57867  26.005  17.467   6.464
 4512POPC   D2A57868  26.071  17.530   6.764
 4512POPC   C3A57869  26.091  17.552   7.064
 4512POPC   C4A57870  26.013  17.498   7.364
 4512POPC   C1B57871  26.239  17.337   6.464
 4512POPC   C2B57872  26.258  17.360   6.764
 4512POPC   C3B57873  26.234  17.382   7.064
 4512POPC   C4B57874  26.230  17.345   7.364
 4513POPC   NC357875   9.019   2.755   5.564
 4513POPC   PO457876   9.015   2.717   5.864
 4513POPC   GL157877   8.989   2.810   6.164
 4513POPC   GL257878   8.949   2.853   6.164
 4513POPC   C1A57879   8.973   2.722   6.464
 4513POPC   D2A57880   8.987   2.810   6.764
 4513POPC   C3A57881   8.995   2.766   7.064
 4513POPC   C4A57882   8.925   2.814   7.364
 4513POPC   C1B57883   8.865   2.999   6.464
 4513POPC   C2B57884   8.857   2.984   6.764
 4513POPC   C3B57885   8.868   3.002   7.064
 4513POPC   C4B57886   8.879   2.959   7.364
 4514POPC   NC357887  16.700  15.930   5.564
 4514POPC   PO457888  16.756  15.955   5.864
 4514POPC   GL157889  16.692  15.966   6.164
 4514POPC   GL257890  16.779  16.052   6.164
 4514POPC   C1A57891  16.685  16.003   6.464
 4514POPC   D2A57892  16.770  15.980   6.764
 4514POPC   C3A57893  16.738  15.998   7.064
 4514POPC   C4A57894  16.732  15.907   7.364
 4514POPC   C1B57895  16.848  16.123   6.464
 4514POPC   C2B57896  16.914  16.202   6.764
 4514POPC   C3B57897  16.822  16.211   7.064
 4514POPC   C4B57898  16.865  16.167   7.364
 4515POPC   NC357899  15.928  11.327   5.564
 4515POPC   PO457900  15.955  11.304   5.864
 4515POPC   GL157901  15.922  11.290   6.164
 4515POPC   GL257902  15.870  11.438   6.164
 4515POPC   C1A57903  15.912  11.285   6.464
 4515POPC   D2A57904  15.911  11.283   6.764
 4515POPC   C3A57905  15.926  11.315   7.064
 4515POPC   C4A57906  16.002  11.311   7.364
 4515POPC   C1B57907  15.813  11.463   6.464
 4515POPC   C2B57908  15.781  11.443   6.764
 4515POPC   C3B57909  15.810  11.491   7.064
 4515POPC   C4B57910  15.762  11.443   7.364
 4516POPC   NC357911   2.787   7.460   5.564
 4516POPC   PO457912   2.789   7.390   5.864
 4516POPC   GL157913   2.761   7.459   6.164
 4516POPC   GL257914   2.656   7.517   6.164
 4516POPC   C1A57915   2.766   7.420   6.464
 4516POPC   D2A57916   2.767   7.428   6.764
 4516POPC   C3A57917   2.716   7.456   7.064
 4516POPC   C4A57918   2.717   7.457   7.364
 4516POPC   C1B57919   2.500   7.507   6.464
 4516POPC   C2B57920   2.541   7.575   6.764
 4516POPC   C3B57921   2.519   7.574   7.064
 4516POPC   C4B57922   2.494   7.546   7.364
 4517POPC   NC357923  23.734  28.322   5.564
 4517POPC   PO457924  23.738  28.334   5.864
 4517POPC   GL157925  23.684  28.324   6.164
 4517POPC   GL257926  23.797  28.304   6.164
 4517POPC   C1A57927  23.698  28.412   6.464
 4517POPC   D2A57928  23.707  28.381   6.764
 4517POPC   C3A57929  23.742  28.387   7.064
 4517POPC   C4A57930  23.755  28.366   7.364
 4517POPC   C1B57931  23.917  28.242   6.464
 4517POPC   C2B57932  23.931  28.228   6.764
 4517POPC   C3B57933  23.938  28.299   7.064
 4517POPC   C4B57934  23.966  28.216   7.364
 4518POPC   NC357935  12.051   4.318   5.564
 4518POPC   PO457936  12.082   4.300   5.864
 4518POPC   GL157937  12.085   4.298   6.164
 4518POPC   GL257938  12.170   4.291   6.164
 4518POPC   C1A57939  12.087   4.274   6.464
 4518POPC   D2A57940  12.094   4.361   6.764
 4518POPC   C3A57941  12.047   4.274   7.064
 4518POPC   C4A57942  12.087   4.282   7.364
 4518POPC   C1B57943  12.265   4.152   6.464
 4518POPC   C2B57944  12.315   4.146   6.764
 4518POPC   C3B57945  12.306   4.183   7.064
 4518POPC   C4B57946  12.284   4.236   7.364
 4519POPC   NC357947  11.298  18.304   5.564
 4519POPC   PO457948  11.303  18.281   5.864
 4519POPC   GL157949  11.314  18.240   6.164
 4519POPC   GL257950  11.298  18.448   6.164
 4519POPC   C1A57951  11.284  18.298   6.464
 4519POPC   D2A57952  11.278  18.260   6.764
 4519POPC   C3A57953  11.302  18.296   7.064
 4519POPC   C4A57954  11.296  18.292   7.364
 4519POPC   C1B57955  11.327  18.524   6.464
 4519POPC   C2B57956  11.328  18.522   6.764
 4519POPC   C3B57957  11.296  18.489   7.064
 4519POPC   C4B57958  11.347  18.570   7.364
 4520POPC   NC357959  40.048  40.758   5.564
 4520POPC   PO457960  40.026  40.767   5.864
 4520POPC   GL157961  39.986  40.740   6.164
 4520POPC   GL257962  39.974  40.932   6.164
 4520POPC   C1A57963  40.039  40.823   6.464
 4520POPC   D2A57964  40.026  40.821   6.764
 4520POPC   C3A57965  39.973  40.821   7.064
 4520POPC   C4A57966  39.985  40.754   7.364
 4520POPC   C1B57967  40.032  41.080   6.464
 4520POPC   C2B57968  39.968  41.056   6.764
 4520POPC   C3B57969  39.954  41.074   7.064
 4520POPC   C4B57970  39.981  41.026   7.364
 4521POPC   NC357971  13.606  33.031   5.564
 4521POPC   PO457972  13.610  33.061   5.864
 4521POPC   GL157973  13.645  33.003   6.164
 4521POPC   GL257974  13.493  32.901   6.164
 4521POPC   C1A57975  13.613  33.044   6.464
 4521POPC   D2A57976  13.614  33.026   6.764
 4521POPC   C3A57977  13.581  33.069   7.064
 4521POPC   C4A57978  13.633  33.058   7.364
 4521POPC   C1B57979  13.479  32.900   6.464
 4521POPC   C2B57980  13.411  32.864   6.764
 4521POPC   C3B57981  13.463  32.915   7.064
 4521POPC   C4B57982  13.449  32.906   7.364
 4522POPC   NC357983  23.715   0.483   5.564
 4522POPC   PO457984  23.712   0.436   5.864
 4522POPC   GL157985  23.706   0.429   6.164
 4522POPC   GL257986  23.769   0.338   6.164
 4522POPC   C1A57987  23.684   0.442   6.464
 4522POPC   D2A57988  23.668   0.473   6.764
 4522POPC   C3A57989  23.695   0.454   7.064
 4522POPC   C4A57990  23.697   0.468   7.364
 4522POPC   C1B57991  23.814   0.201   6.464
 4522POPC   C2B57992  23.808   0.214   6.764
 4522POPC   C3B57993  23.811   0.204   7.064
 4522POPC   C4B57994  23.863   0.230   7.364
 4523POPC   NC357995  43.113   8.245   5.564
 4523POPC   PO457996  43.078   8.223   5.864
 4523POPC   GL157997  43.116   8.195   6.164
 4523POPC   GL257998  43.269   8.256   6.164
 4523POPC   C1A57999  43.100   8.161   6.464
 4523POPC   D2A58000  43.139   8.177   6.764
 4523POPC   C3A58001  43.067   8.189   7.064
 4523POPC   C4A58002  43.072   8.161   7.364
 4523POPC   C1B58003  43.385   8.233   6.464
 4523POPC   C2B58004  43.366   8.234   6.764
 4523POPC   C3B58005  43.318   8.233   7.064
 4523POPC   C4B58006  43.325   8.217   7.364
 4524POPC   NC358007   6.630  41.519   5.564
 4524POPC   PO458008   6.667  41.536   5.864
 4524POPC   GL158009   6.678  41.559   6.164
 4524POPC   GL258010   6.732  41.664   6.164
 4524POPC   C1A58011   6.693  41.521   6.464
 4524POPC   D2A58012   6.631  41.546   6.764
 4524POPC   C3A58013   6.614  41.602   7.064
 4524POPC   C4A58014   6.684  41.543   7.364
 4524POPC   C1B58015   6.758  41.788   6.464
 4524POPC   C2B58016   6.743  41.782   6.764
 4524POPC   C3B58017   6.686  41.821   7.064
 4524POPC   C4B58018   6.740  41.836   7.364
 4525POPC   NC358019  38.457  24.518   5.564
 4525POPC   PO458020  38.501  24.460   5.864
 4525POPC   GL158021  38.414  24.504   6.164
 4525POPC   GL258022  38.429  24.347   6.164
 4525POPC   C1A58023  38.439  24.525   6.464
 4525POPC   D2A58024  38.482  24.471   6.764
 4525POPC   C3A58025  38.453  24.500   7.064
 4525POPC   C4A58026  38.457  24.481   7.364
 4525POPC   C1B58027  38.278  24.326   6.464
 4525POPC   C2B58028  38.364  24.294   6.764
 4525POPC   C3B58029  38.349  24.280   7.064
 4525POPC   C4B58030  38.285  24.297   7.364
 4526POPC   NC358031  15.183  27.610   5.564
 4526POPC   PO458032  15.229  27.617   5.864
 4526POPC   GL158033  15.131  27.550   6.164
 4526POPC   GL258034  15.124  27.708   6.164
 4526POPC   C1A58035  15.177  27.552   6.464
 4526POPC   D2A58036  15.166  27.574   6.764
 4526POPC   C3A58037  15.154  27.617   7.064
 4526POPC   C4A58038  15.133  27.545   7.364
 4526POPC   C1B58039  15.203  27.810   6.464
 4526POPC   C2B58040  15.155  27.841   6.764
 4526POPC   C3B58041  15.150  27.813   7.064
 4526POPC   C4B58042  15.193  27.793   7.364
 4527POPC   NC358043  32.216  44.684   5.564
 4527POPC   PO458044  32.273  44.667   5.864
 4527POPC   GL158045  32.210  44.670   6.164
 4527POPC   GL258046  32.252  44.563   6.164
 4527POPC   C1A58047  32.287  44.665   6.464
 4527POPC   D2A58048  32.289  44.631   6.764
 4527POPC   C3A58049  32.263  44.700   7.064
 4527POPC   C4A58050  32.294  44.613   7.364
 4527POPC   C1B58051  32.180  44.395   6.464
 4527POPC   C2B58052  32.176  44.460   6.764
 4527POPC   C3B58053  32.181  44.394   7.064
 4527POPC   C4B58054  32.182  44.432   7.364
 4528POPC   NC358055  20.581  17.464   5.564
 4528POPC   PO458056  20.634  17.515   5.864
 4528POPC   GL158057  20.621  17.537   6.164
 4528POPC   GL258058  20.737  17.406   6.164
 4528POPC   C1A58059  20.654  17.507   6.464
 4528POPC   D2A58060  20.622  17.538   6.764
 4528POPC   C3A58061  20.640  17.458   7.064
 4528POPC   C4A58062  20.595  17.474   7.364
 4528POPC   C1B58063  20.765  17.347   6.464
 4528POPC   C2B58064  20.823  17.311   6.764
 4528POPC   C3B58065  20.817  17.385   7.064
 4528POPC   C4B58066  20.841  17.314   7.364
 4529POPC   NC358067  36.949  32.225   5.564
 4529POPC   PO458068  36.862  32.264   5.864
 4529POPC   GL158069  36.953  32.271   6.164
 4529POPC   GL258070  37.005  32.288   6.164
 4529POPC   C1A58071  36.875  32.220   6.464
 4529POPC   D2A58072  36.881  32.241   6.764
 4529POPC   C3A58073  36.935  32.236   7.064
 4529POPC   C4A58074  36.927  32.293   7.364
 4529POPC   C1B58075  37.132  32.280   6.464
 4529POPC   C2B58076  37.158  32.313   6.764
 4529POPC   C3B58077  37.102  32.279   7.064
 4529POPC   C4B58078  37.102  32.249   7.364
 4530POPC   NC358079  12.876  28.358   5.564
 4530POPC   PO458080  12.890  28.397   5.864
 4530POPC   GL158081  12.899  28.340   6.164
 4530POPC   GL258082  12.824  28.238   6.164
 4530POPC   C1A58083  12.838  28.389   6.464
 4530POPC   D2A58084  12.891  28.395   6.764
 4530POPC   C3A58085  12.831  28.416   7.064
 4530POPC   C4A58086  12.817  28.325   7.364
 4530POPC   C1B58087  12.779  28.076   6.464
 4530POPC   C2B58088  12.820  28.119   6.764
 4530POPC   C3B58089  12.832  28.172   7.064
 4530POPC   C4B58090  12.813  28.162   7.364
 4531POPC   NC358091  35.375  39.962   5.564
 4531POPC   PO458092  35.385  40.025   5.864
 4531POPC   GL158093  35.314  39.964   6.164
 4531POPC   GL258094  35.324  40.133   6.164
 4531POPC   C1A58095  35.312  39.964   6.464
 4531POPC   D2A58096  35.372  40.046   6.764
 4531POPC   C3A58097  35.369  39.959   7.064
 4531POPC   C4A58098  35.342  39.958   7.364
 4531POPC   C1B58099  35.304  40.279   6.464
 4531POPC   C2B58100  35.370  40.301   6.764
 4531POPC   C3B58101  35.379  40.234   7.064
 4531POPC   C4B58102  35.320  40.241   7.364
 4532POPC   NC358103  18.285  16.737   5.564
 4532POPC   PO458104  18.319  16.729   5.864
 4532POPC   GL158105  18.297  16.751   6.164
 4532POPC   GL258106  18.173  16.644   6.164
 4532POPC   C1A58107  18.247  16.697   6.464
 4532POPC   D2A58108  18.302  16.750   6.764
 4532POPC   C3A58109  18.318  16.780   7.064
 4532POPC   C4A58110  18.305  16.773   7.364
 4532POPC   C1B58111  18.077  16.649   6.464
 4532POPC   C2B58112  18.050  16.616   6.764
 4532POPC   C3B58113  18.104  16.627   7.064
 4532POPC   C4B58114  18.032  16.593   7.364
 4533POPC   NC358115  14.374  25.292   5.564
 4533POPC   PO458116  14.358  25.235   5.864
 4533POPC   GL158117  14.405  25.252   6.164
 4533POPC   GL258118  14.489  25.179   6.164
 4533POPC   C1A58119  14.419  25.238   6.464
 4533POPC   D2A58120  14.423  25.293   6.764
 4533POPC   C3A58121  14.413  25.311   7.064
 4533POPC   C4A58122  14.372  25.236   7.364
 4533POPC   C1B58123  14.622  25.036   6.464
 4533POPC   C2B58124  14.610  25.125   6.764
 4533POPC   C3B58125  14.573  25.122   7.064
 4533POPC   C4B58126  14.592  25.115   7.364
 4534POPC   NC358127  40.787  42.298   5.564
 4534POPC   PO458128  40.734  42.348   5.864
 4534POPC   GL158129  40.746  42.368   6.164
 4534POPC   GL258130  40.665  42.417   6.164
 4534POPC   C1A58131  40.797  42.376   6.464
 4534POPC   D2A58132  40.803  42.340   6.764
 4534POPC   C3A58133  40.827  42.288   7.064
 4534POPC   C4A58134  40.741  42.319   7.364
 4534POPC   C1B58135  40.567  42.549   6.464
 4534POPC   C2B58136  40.590  42.506   6.764
 4534POPC   C3B58137  40.561  42.464   7.064
 4534POPC   C4B58138  40.619  42.510   7.364
 4535POPC   NC358139  26.089   6.655   5.564
 4535POPC   PO458140  26.040   6.675   5.864
 4535POPC   GL158141  26.066   6.627   6.164
 4535POPC   GL258142  26.127   6.622   6.164
 4535POPC   C1A58143  26.020   6.628   6.464
 4535POPC   D2A58144  26.072   6.639   6.764
 4535POPC   C3A58145  26.075   6.645   7.064
 4535POPC   C4A58146  26.028   6.642   7.364
 4535POPC   C1B58147  26.256   6.529   6.464
 4535POPC   C2B58148  26.297   6.482   6.764
 4535POPC   C3B58149  26.254   6.501   7.064
 4535POPC   C4B58150  26.232   6.501   7.364
 4536POPC   NC358151  33.841   8.968   5.564
 4536POPC   PO458152  33.819   8.944   5.864
 4536POPC   GL158153  33.812   8.955   6.164
 4536POPC   GL258154  33.651   8.979   6.164
 4536POPC   C1A58155  33.768   8.979   6.464
 4536POPC   D2A58156  33.756   8.947   6.764
 4536POPC   C3A58157  33.812   9.017   7.064
 4536POPC   C4A58158  33.774   8.951   7.364
 4536POPC   C1B58159  33.507   8.929   6.464
 4536POPC   C2B58160  33.547   8.935   6.764
 4536POPC   C3B58161  33.537   8.988   7.064
 4536POPC   C4B58162  33.575   8.957   7.364
 4537POPC   NC358163  33.038  10.540   5.564
 4537POPC   PO458164  33.021  10.552   5.864
 4537POPC   GL158165  33.068  10.519   6.164
 4537POPC   GL258166  33.164  10.615   6.164
 4537POPC   C1A58167  32.975  10.493   6.464
 4537POPC   D2A58168  32.996  10.551   6.764
 4537POPC   C3A58169  32.988  10.526   7.064
 4537POPC   C4A58170  33.071  10.491   7.364
 4537POPC   C1B58171  33.245  10.731   6.464
 4537POPC   C2B58172  33.167  10.699   6.764
 4537POPC   C3B58173  33.258  10.711   7.064
 4537POPC   C4B58174  33.224  10.640   7.364
 4538POPC   NC358175  17.465  15.187   5.564
 4538POPC   PO458176  17.555  15.222   5.864
 4538POPC   GL158177  17.495  15.223   6.164
 4538POPC   GL258178  17.628  15.221   6.164
 4538POPC   C1A58179  17.543  15.181   6.464
 4538POPC   D2A58180  17.551  15.215   6.764
 4538POPC   C3A58181  17.551  15.130   7.064
 4538POPC   C4A58182  17.522  15.174   7.364
 4538POPC   C1B58183  17.700  15.253   6.464
 4538POPC   C2B58184  17.696  15.310   6.764
 4538POPC   C3B58185  17.779  15.325   7.064
 4538POPC   C4B58186  17.702  15.258   7.364
 4539POPC   NC358187   9.798  37.723   5.564
 4539POPC   PO458188   9.771  37.681   5.864
 4539POPC   GL158189   9.770  37.646   6.164
 4539POPC   GL258190   9.718  37.819   6.164
 4539POPC   C1A58191   9.788  37.717   6.464
 4539POPC   D2A58192   9.755  37.673   6.764
 4539POPC   C3A58193   9.745  37.728   7.064
 4539POPC   C4A58194   9.761  37.707   7.364
 4539POPC   C1B58195   9.634  37.869   6.464
 4539POPC   C2B58196   9.679  37.886   6.764
 4539POPC   C3B58197   9.704  37.910   7.064
 4539POPC   C4B58198   9.654  37.893   7.364
 4540POPC   NC358199  29.947  44.673   5.564
 4540POPC   PO458200  29.964  44.632   5.864
 4540POPC   GL158201  29.896  44.671   6.164
 4540POPC   GL258202  29.808  44.706   6.164
 4540POPC   C1A58203  29.885  44.651   6.464
 4540POPC   D2A58204  29.900  44.643   6.764
 4540POPC   C3A58205  29.896  44.621   7.064
 4540POPC   C4A58206  29.941  44.683   7.364
 4540POPC   C1B58207  29.625  44.674   6.464
 4540POPC   C2B58208  29.717  44.714   6.764
 4540POPC   C3B58209  29.626  44.728   7.064
 4540POPC   C4B58210  29.653  44.699   7.364
 4541POPC   NC358211  42.295  27.623   5.564
 4541POPC   PO458212  42.372  27.638   5.864
 4541POPC   GL158213  42.353  27.559   6.164
 4541POPC   GL258214  42.319  27.449   6.164
 4541POPC   C1A58215  42.326  27.620   6.464
 4541POPC   D2A58216  42.307  27.609   6.764
 4541POPC   C3A58217  42.321  27.571   7.064
 4541POPC   C4A58218  42.317  27.591   7.364
 4541POPC   C1B58219  42.184  27.418   6.464
 4541POPC   C2B58220  42.184  27.420   6.764
 4541POPC   C3B58221  42.203  27.368   7.064
 4541POPC   C4B58222  42.209  27.383   7.364
 4542POPC   NC358223  23.701  33.044   5.564
 4542POPC   PO458224  23.738  33.047   5.864
 4542POPC   GL158225  23.742  33.026   6.164
 4542POPC   GL258226  23.590  33.034   6.164
 4542POPC   C1A58227  23.692  32.995   6.464
 4542POPC   D2A58228  23.669  33.016   6.764
 4542POPC   C3A58229  23.720  32.997   7.064
 4542POPC   C4A58230  23.681  33.016   7.364
 4542POPC   C1B58231  23.505  32.951   6.464
 4542POPC   C2B58232  23.489  32.973   6.764
 4542POPC   C3B58233  23.487  33.015   7.064
 4542POPC   C4B58234  23.505  33.004   7.364
 4543POPC   NC358235  16.704  40.043   5.564
 4543POPC   PO458236  16.730  40.035   5.864
 4543POPC   GL158237  16.711  40.009   6.164
 4543POPC   GL258238  16.822  40.161   6.164
 4543POPC   C1A58239  16.779  40.045   6.464
 4543POPC   D2A58240  16.752  39.993   6.764
 4543POPC   C3A58241  16.682  39.996   7.064
 4543POPC   C4A58242  16.762  39.997   7.364
 4543POPC   C1B58243  16.858  40.218   6.464
 4543POPC   C2B58244  16.768  40.267   6.764
 4543POPC   C3B58245  16.803  40.223   7.064
 4543POPC   C4B58246  16.849  40.205   7.364
 4544POPC   NC358247  21.400  33.835   5.564
 4544POPC   PO458248  21.409  33.827   5.864
 4544POPC   GL158249  21.348  33.779   6.164
 4544POPC   GL258250  21.251  33.768   6.164
 4544POPC   C1A58251  21.425  33.821   6.464
 4544POPC   D2A58252  21.395  33.842   6.764
 4544POPC   C3A58253  21.362  33.841   7.064
 4544POPC   C4A58254  21.414  33.769   7.364
 4544POPC   C1B58255  21.174  33.665   6.464
 4544POPC   C2B58256  21.168  33.629   6.764
 4544POPC   C3B58257  21.179  33.672   7.064
 4544POPC   C4B58258  21.159  33.627   7.364
 4545POPC   NC358259  19.881   3.554   5.564
 4545POPC   PO458260  19.844   3.521   5.864
 4545POPC   GL158261  19.838   3.514   6.164
 4545POPC   GL258262  19.918   3.440   6.164
 4545POPC   C1A58263  19.852   3.492   6.464
 4545POPC   D2A58264  19.818   3.510   6.764
 4545POPC   C3A58265  19.882   3.535   7.064
 4545POPC   C4A58266  19.805   3.590   7.364
 4545POPC   C1B58267  19.994   3.319   6.464
 4545POPC   C2B58268  20.004   3.342   6.764
 4545POPC   C3B58269  19.990   3.287   7.064
 4545POPC   C4B58270  19.936   3.284   7.364
 4546POPC   NC358271  12.072  37.641   5.564
 4546POPC   PO458272  12.091  37.728   5.864
 4546POPC   GL158273  12.054  37.632   6.164
 4546POPC   GL258274  11.902  37.689   6.164
 4546POPC   C1A58275  12.081  37.696   6.464
 4546POPC   D2A58276  12.115  37.706   6.764
 4546POPC   C3A58277  12.111  37.688   7.064
 4546POPC   C4A58278  12.082  37.709   7.364
 4546POPC   C1B58279  11.843  37.654   6.464
 4546POPC   C2B58280  11.804  37.637   6.764
 4546POPC   C3B58281  11.794  37.719   7.064
 4546POPC   C4B58282  11.864  37.680   7.364
 4547POPC   NC358283  35.336  31.503   5.564
 4547POPC   PO458284  35.391  31.446   5.864
 4547POPC   GL158285  35.324  31.466   6.164
 4547POPC   GL258286  35.316  31.420   6.164
 4547POPC   C1A58287  35.351  31.483   6.464
 4547POPC   D2A58288  35.320  31.498   6.764
 4547POPC   C3A58289  35.351  31.510   7.064
 4547POPC   C4A58290  35.367  31.468   7.364
 4547POPC   C1B58291  35.158  31.258   6.464
 4547POPC   C2B58292  35.161  31.260   6.764
 4547POPC   C3B58293  35.207  31.286   7.064
 4547POPC   C4B58294  35.154  31.253   7.364
 4548POPC   NC358295   5.876   5.135   5.564
 4548POPC   PO458296   5.865   5.105   5.864
 4548POPC   GL158297   5.847   5.057   6.164
 4548POPC   GL258298   5.820   5.152   6.164
 4548POPC   C1A58299   5.897   5.077   6.464
 4548POPC   D2A58300   5.847   5.079   6.764
 4548POPC   C3A58301   5.901   5.054   7.064
 4548POPC   C4A58302   5.918   5.093   7.364
 4548POPC   C1B58303   5.758   5.317   6.464
 4548POPC   C2B58304   5.764   5.319   6.764
 4548POPC   C3B58305   5.711   5.290   7.064
 4548POPC   C4B58306   5.765   5.304   7.364
 4549POPC   NC358307  23.670  36.162   5.564
 4549POPC   PO458308  23.731  36.159   5.864
 4549POPC   GL158309  23.727  36.114   6.164
 4549POPC   GL258310  23.776  36.029   6.164
 4549POPC   C1A58311  23.731  36.100   6.464
 4549POPC   D2A58312  23.755  36.170   6.764
 4549POPC   C3A58313  23.758  36.086   7.064
 4549POPC   C4A58314  23.739  36.103   7.364
 4549POPC   C1B58315  23.804  35.906   6.464
 4549POPC   C2B58316  23.817  35.907   6.764
 4549POPC   C3B58317  23.857  35.878   7.064
 4549POPC   C4B58318  23.823  35.920   7.364
 4550POPC   NC358319  39.186   3.508   5.564
 4550POPC   PO458320  39.199   3.552   5.864
 4550POPC   GL158321  39.184   3.577   6.164
 4550POPC   GL258322  39.346   3.635   6.164
 4550POPC   C1A58323  39.245   3.526   6.464
 4550POPC   D2A58324  39.181   3.528   6.764
 4550POPC   C3A58325  39.201   3.529   7.064
 4550POPC   C4A58326  39.256   3.516   7.364
 4550POPC   C1B58327  39.405   3.668   6.464
 4550POPC   C2B58328  39.437   3.644   6.764
 4550POPC   C3B58329  39.459   3.678   7.064
 4550POPC   C4B58330  39.427   3.688   7.364
 4551POPC   NC358331  21.431  36.121   5.564
 4551POPC   PO458332  21.353  36.084   5.864
 4551POPC   GL158333  21.362  36.161   6.164
 4551POPC   GL258334  21.273  36.195   6.164
 4551POPC   C1A58335  21.408  36.157   6.464
 4551POPC   D2A58336  21.349  36.140   6.764
 4551POPC   C3A58337  21.394  36.139   7.064
 4551POPC   C4A58338  21.424  36.140   7.364
 4551POPC   C1B58339  21.150  36.155   6.464
 4551POPC   C2B58340  21.134  36.235   6.764
 4551POPC   C3B58341  21.175  36.236   7.064
 4551POPC   C4B58342  21.161  36.183   7.364
 4552POPC   NC358343  38.429  38.435   5.564
 4552POPC   PO458344  38.420  38.456   5.864
 4552POPC   GL158345  38.467  38.425   6.164
 4552POPC   GL258346  38.318  38.431   6.164
 4552POPC   C1A58347  38.495  38.428   6.464
 4552POPC   D2A58348  38.474  38.415   6.764
 4552POPC   C3A58349  38.444  38.422   7.064
 4552POPC   C4A58350  38.441  38.471   7.364
 4552POPC   C1B58351  38.238  38.432   6.464
 4552POPC   C2B58352  38.179  38.444   6.764
 4552POPC   C3B58353  38.178  38.440   7.064
 4552POPC   C4B58354  38.212  38.458   7.364
 4553POPC   NC358355   0.474  17.498   5.564
 4553POPC   PO458356   0.454  17.532   5.864
 4553POPC   GL158357   0.456  17.473   6.164
 4553POPC   GL258358   0.471  17.376   6.164
 4553POPC   C1A58359   0.445  17.525   6.464
 4553POPC   D2A58360   0.443  17.457   6.764
 4553POPC   C3A58361   0.405  17.508   7.064
 4553POPC   C4A58362   0.480  17.550   7.364
 4553POPC   C1B58363   0.522  17.256   6.464
 4553POPC   C2B58364   0.509  17.280   6.764
 4553POPC   C3B58365   0.483  17.267   7.064
 4553POPC   C4B58366   0.447  17.261   7.364
 4554POPC   NC358367  16.773  26.048   5.564
 4554POPC   PO458368  16.750  26.025   5.864
 4554POPC   GL158369  16.769  26.009   6.164
 4554POPC   GL258370  16.771  25.968   6.164
 4554POPC   C1A58371  16.693  26.060   6.464
 4554POPC   D2A58372  16.697  26.041   6.764
 4554POPC   C3A58373  16.744  25.998   7.064
 4554POPC   C4A58374  16.755  26.022   7.364
 4554POPC   C1B58375  16.790  25.817   6.464
 4554POPC   C2B58376  16.810  25.777   6.764
 4554POPC   C3B58377  16.852  25.798   7.064
 4554POPC   C4B58378  16.780  25.851   7.364
 4555POPC   NC358379   9.753  18.248   5.564
 4555POPC   PO458380   9.742  18.285   5.864
 4555POPC   GL158381   9.762  18.235   6.164
 4555POPC   GL258382   9.819  18.359   6.164
 4555POPC   C1A58383   9.777  18.250   6.464
 4555POPC   D2A58384   9.749  18.275   6.764
 4555POPC   C3A58385   9.737  18.249   7.064
 4555POPC   C4A58386   9.739  18.292   7.364
 4555POPC   C1B58387   9.876  18.524   6.464
 4555POPC   C2B58388   9.928  18.491   6.764
 4555POPC   C3B58389   9.895  18.522   7.064
 4555POPC   C4B58390   9.942  18.481   7.364
 4556POPC   NC358391  21.409   0.407   5.564
 4556POPC   PO458392  21.398   0.445   5.864
 4556POPC   GL158393  21.426   0.479   6.164
 4556POPC   GL258394  21.348   0.271   6.164
 4556POPC   C1A58395  21.342   0.468   6.464
 4556POPC   D2A58396  21.385   0.450   6.764
 4556POPC   C3A58397  21.392   0.391   7.064
 4556POPC   C4A58398  21.375   0.404   7.364
 4556POPC   C1B58399  21.269   0.208   6.464
 4556POPC   C2B58400  21.338   0.247   6.764
 4556POPC   C3B58401  21.290   0.247   7.064
 4556POPC   C4B58402  21.334   0.185   7.364
 4557POPC   NC358403  44.613  12.814   5.564
 4557POPC   PO458404  44.617  12.812   5.864
 4557POPC   GL158405  44.613  12.820   6.164
 4557POPC   GL258406  44.511  12.793   6.164
 4557POPC   C1A58407  44.689  12.858   6.464
 4557POPC   D2A58408  44.698  12.863   6.764
 4557POPC   C3A58409  44.698  12.897   7.064
 4557POPC   C4A58410  44.680  12.849   7.364
 4557POPC   C1B58411  44.455  12.746   6.464
 4557POPC   C2B58412  44.393  12.801   6.764
 4557POPC   C3B58413  44.448  12.802   7.064
 4557POPC   C4B58414  44.453  12.763   7.364
 4558POPC   NC358415  22.983  43.898   5.564
 4558POPC   PO458416  22.948  43.845   5.864
 4558POPC   GL158417  22.906  43.864   6.164
 4558POPC   GL258418  22.807  43.871   6.164
 4558POPC   C1A58419  22.937  43.914   6.464
 4558POPC   D2A58420  22.955  43.841   6.764
 4558POPC   C3A58421  22.889  43.893   7.064
 4558POPC   C4A58422  22.940  43.929   7.364
 4558POPC   C1B58423  22.697  43.805   6.464
 4558POPC   C2B58424  22.772  43.792   6.764
 4558POPC   C3B58425  22.730  43.741   7.064
 4558POPC   C4B58426  22.712  43.729   7.364
 4559POPC   NC358427   0.443  42.377   5.564
 4559POPC   PO458428   0.422  42.311   5.864
 4559POPC   GL158429   0.482  42.354   6.164
 4559POPC   GL258430   0.585  42.322   6.164
 4559POPC   C1A58431   0.394  42.318   6.464
 4559POPC   D2A58432   0.414  42.366   6.764
 4559POPC   C3A58433   0.411  42.318   7.064
 4559POPC   C4A58434   0.451  42.383   7.364
 4559POPC   C1B58435   0.729  42.275   6.464
 4559POPC   C2B58436   0.699  42.349   6.764
 4559POPC   C3B58437   0.701  42.323   7.064
 4559POPC   C4B58438   0.693  42.352   7.364
 4560POPC   NC358439  22.177  39.211   5.564
 4560POPC   PO458440  22.128  39.241   5.864
 4560POPC   GL158441  22.123  39.181   6.164
 4560POPC   GL258442  22.201  39.321   6.164
 4560POPC   C1A58443  22.132  39.219   6.464
 4560POPC   D2A58444  22.131  39.245   6.764
 4560POPC   C3A58445  22.197  39.217   7.064
 4560POPC   C4A58446  22.193  39.246   7.364
 4560POPC   C1B58447  22.349  39.434   6.464
 4560POPC   C2B58448  22.295  39.479   6.764
 4560POPC   C3B58449  22.339  39.392   7.064
 4560POPC   C4B58450  22.273  39.391   7.364
 4561POPC   NC358451   1.255   6.610   5.564
 4561POPC   PO458452   1.168   6.694   5.864
 4561POPC   GL158453   1.219   6.627   6.164
 4561POPC   GL258454   1.236   6.761   6.164
 4561POPC   C1A58455   1.219   6.688   6.464
 4561POPC   D2A58456   1.194   6.644   6.764
 4561POPC   C3A58457   1.205   6.596   7.064
 4561POPC   C4A58458   1.208   6.618   7.364
 4561POPC   C1B58459   1.372   6.843   6.464
 4561POPC   C2B58460   1.305   6.854   6.764
 4561POPC   C3B58461   1.312   6.888   7.064
 4561POPC   C4B58462   1.348   6.829   7.364
 4562POPC   NC358463   5.826  36.911   5.564
 4562POPC   PO458464   5.831  36.873   5.864
 4562POPC   GL158465   5.830  36.922   6.164
 4562POPC   GL258466   5.942  37.039   6.164
 4562POPC   C1A58467   5.878  36.857   6.464
 4562POPC   D2A58468   5.820  36.872   6.764
 4562POPC   C3A58469   5.843  36.901   7.064
 4562POPC   C4A58470   5.886  36.884   7.364
 4562POPC   C1B58471   5.933  37.132   6.464
 4562POPC   C2B58472   5.972  37.171   6.764
 4562POPC   C3B58473   5.932  37.117   7.064
 4562POPC   C4B58474   5.969  37.117   7.364
 4563POPC   NC358475  34.569  36.128   5.564
 4563POPC   PO458476  34.621  36.112   5.864
 4563POPC   GL158477  34.579  36.126   6.164
 4563POPC   GL258478  34.444  36.149   6.164
 4563POPC   C1A58479  34.550  36.116   6.464
 4563POPC   D2A58480  34.585  36.100   6.764
 4563POPC   C3A58481  34.603  36.101   7.064
 4563POPC   C4A58482  34.604  36.095   7.364
 4563POPC   C1B58483  34.314  36.152   6.464
 4563POPC   C2B58484  34.314  36.131   6.764
 4563POPC   C3B58485  34.334  36.084   7.064
 4563POPC   C4B58486  34.279  36.181   7.364
 4564POPC   NC358487  29.099  42.322   5.564
 4564POPC   PO458488  29.119  42.356   5.864
 4564POPC   GL158489  29.185  42.293   6.164
 4564POPC   GL258490  29.198  42.216   6.164
 4564POPC   C1A58491  29.098  42.380   6.464
 4564POPC   D2A58492  29.162  42.309   6.764
 4564POPC   C3A58493  29.131  42.309   7.064
 4564POPC   C4A58494  29.195  42.329   7.364
 4564POPC   C1B58495  29.287  42.111   6.464
 4564POPC   C2B58496  29.261  42.168   6.764
 4564POPC   C3B58497  29.280  42.093   7.064
 4564POPC   C4B58498  29.280  42.123   7.364
 4565POPC   NC358499  23.753  10.490   5.564
 4565POPC   PO458500  23.684  10.510   5.864
 4565POPC   GL158501  23.735  10.524   6.164
 4565POPC   GL258502  23.560  10.437   6.164
 4565POPC   C1A58503  23.692  10.531   6.464
 4565POPC   D2A58504  23.684  10.507   6.764
 4565POPC   C3A58505  23.693  10.561   7.064
 4565POPC   C4A58506  23.722  10.572   7.364
 4565POPC   C1B58507  23.453  10.401   6.464
 4565POPC   C2B58508  23.446  10.404   6.764
 4565POPC   C3B58509  23.513  10.468   7.064
 4565POPC   C4B58510  23.526  10.415   7.364
 4566POPC   NC358511  35.350  24.459   5.564
 4566POPC   PO458512  35.310  24.482   5.864
 4566POPC   GL158513  35.311  24.452   6.164
 4566POPC   GL258514  35.247  24.552   6.164
 4566POPC   C1A58515  35.336  24.526   6.464
 4566POPC   D2A58516  35.351  24.440   6.764
 4566POPC   C3A58517  35.307  24.468   7.064
 4566POPC   C4A58518  35.380  24.518   7.364
 4566POPC   C1B58519  35.152  24.529   6.464
 4566POPC   C2B58520  35.107  24.535   6.764
 4566POPC   C3B58521  35.116  24.546   7.064
 4566POPC   C4B58522  35.078  24.610   7.364
 4567POPC   NC358523  44.623   8.924   5.564
 4567POPC   PO458524  44.620   9.018   5.864
 4567POPC   GL158525  44.698   8.953   6.164
 4567POPC   GL258526  44.577   8.984   6.164
 4567POPC   C1A58527  44.620   8.960   6.464
 4567POPC   D2A58528  44.682   8.975   6.764
 4567POPC   C3A58529  44.633   8.954   7.064
 4567POPC   C4A58530  44.699   9.014   7.364
 4567POPC   C1B58531  44.375   8.982   6.464
 4567POPC   C2B58532  44.421   8.965   6.764
 4567POPC   C3B58533  44.394   8.969   7.064
 4567POPC   C4B58534  44.373   8.968   7.364
 4568POPC   NC358535  15.136   5.904   5.564
 4568POPC   PO458536  15.198   5.870   5.864
 4568POPC   GL158537  15.227   5.902   6.164
 4568POPC   GL258538  15.082   5.803   6.164
 4568POPC   C1A58539  15.214   5.875   6.464
 4568POPC   D2A58540  15.184   5.869   6.764
 4568POPC   C3A58541  15.180   5.882   7.064
 4568POPC   C4A58542  15.225   5.902   7.364
 4568POPC   C1B58543  14.914   5.768   6.464
 4568POPC   C2B58544  14.952   5.767   6.764
 4568POPC   C3B58545  14.965   5.764   7.064
 4568POPC   C4B58546  14.949   5.815   7.364
 4569POPC   NC358547  35.391   9.784   5.564
 4569POPC   PO458548  35.383   9.749   5.864
 4569POPC   GL158549  35.304   9.794   6.164
 4569POPC   GL258550  35.516   9.732   6.164
 4569POPC   C1A58551  35.337   9.705   6.464
 4569POPC   D2A58552  35.358   9.750   6.764
 4569POPC   C3A58553  35.342   9.744   7.064
 4569POPC   C4A58554  35.359   9.771   7.364
 4569POPC   C1B58555  35.561   9.728   6.464
 4569POPC   C2B58556  35.595   9.762   6.764
 4569POPC   C3B58557  35.645   9.697   7.064
 4569POPC   C4B58558  35.601   9.735   7.364
 4570POPC   NC358559   8.962  42.291   5.564
 4570POPC   PO458560   8.944  42.380   5.864
 4570POPC   GL158561   8.933  42.360   6.164
 4570POPC   GL258562   8.858  42.442   6.164
 4570POPC   C1A58563   9.000  42.323   6.464
 4570POPC   D2A58564   8.961  42.290   6.764
 4570POPC   C3A58565   8.987  42.356   7.064
 4570POPC   C4A58566   8.997  42.331   7.364
 4570POPC   C1B58567   8.838  42.483   6.464
 4570POPC   C2B58568   8.846  42.490   6.764
 4570POPC   C3B58569   8.779  42.490   7.064
 4570POPC   C4B58570   8.850  42.532   7.364
 4571POPC   NC358571  22.132  43.139   5.564
 4571POPC   PO458572  22.185  43.160   5.864
 4571POPC   GL158573  22.195  43.085   6.164
 4571POPC   GL258574  22.152  43.197   6.164
 4571POPC   C1A58575  22.117  43.096   6.464
 4571POPC   D2A58576  22.140  43.113   6.764
 4571POPC   C3A58577  22.125  43.102   7.064
 4571POPC   C4A58578  22.164  43.086   7.364
 4571POPC   C1B58579  22.063  43.372   6.464
 4571POPC   C2B58580  22.120  43.326   6.764
 4571POPC   C3B58581  22.072  43.339   7.064
 4571POPC   C4B58582  22.096  43.381   7.364
 4572POPC   NC358583  19.014  12.817   5.564
 4572POPC   PO458584  19.071  12.901   5.864
 4572POPC   GL158585  19.074  12.837   6.164
 4572POPC   GL258586  18.953  12.797   6.164
 4572POPC   C1A58587  19.099  12.900   6.464
 4572POPC   D2A58588  19.072  12.827   6.764
 4572POPC   C3A58589  19.022  12.847   7.064
 4572POPC   C4A58590  19.026  12.821   7.364
 4572POPC   C1B58591  18.818  12.769   6.464
 4572POPC   C2B58592  18.872  12.740   6.764
 4572POPC   C3B58593  18.825  12.730   7.064
 4572POPC   C4B58594  18.863  12.684   7.364
 4573POPC   NC358595  43.842  26.814   5.564
 4573POPC   PO458596  43.915  26.786   5.864
 4573POPC   GL158597  43.898  26.767   6.164
 4573POPC   GL258598  44.011  26.798   6.164
 4573POPC   C1A58599  43.851  26.807   6.464
 4573POPC   D2A58600  43.842  26.790   6.764
 4573POPC   C3A58601  43.905  26.816   7.064
 4573POPC   C4A58602  43.847  26.780   7.364
 4573POPC   C1B58603  44.140  26.659   6.464
 4573POPC   C2B58604  44.082  26.688   6.764
 4573POPC   C3B58605  44.069  26.648   7.064
 4573POPC   C4B58606  44.106  26.743   7.364
 4574POPC   NC358607  11.285  14.391   5.564
 4574POPC   PO458608  11.272  14.382   5.864
 4574POPC   GL158609  11.284  14.414   6.164
 4574POPC   GL258610  11.240  14.313   6.164
 4574POPC   C1A58611  11.260  14.438   6.464
 4574POPC   D2A58612  11.321  14.410   6.764
 4574POPC   C3A58613  11.285  14.373   7.064
 4574POPC   C4A58614  11.318  14.443   7.364
 4574POPC   C1B58615  11.122  14.291   6.464
 4574POPC   C2B58616  11.045  14.308   6.764
 4574POPC   C3B58617  11.090  14.310   7.064
 4574POPC   C4B58618  11.041  14.298   7.364
 4575POPC   NC358619  20.576   6.637   5.564
 4575POPC   PO458620  20.573   6.656   5.864
 4575POPC   GL158621  20.641   6.664   6.164
 4575POPC   GL258622  20.657   6.794   6.164
 4575POPC   C1A58623  20.607   6.608   6.464
 4575POPC   D2A58624  20.630   6.673   6.764
 4575POPC   C3A58625  20.646   6.609   7.064
 4575POPC   C4A58626  20.620   6.616   7.364
 4575POPC   C1B58627  20.691   6.916   6.464
 4575POPC   C2B58628  20.718   6.849   6.764
 4575POPC   C3B58629  20.713   6.922   7.064
 4575POPC   C4B58630  20.718   6.907   7.364
 4576POPC   NC358631  13.662  38.406   5.564
 4576POPC   PO458632  13.652  38.490   5.864
 4576POPC   GL158633  13.661  38.479   6.164
 4576POPC   GL258634  13.578  38.580   6.164
 4576POPC   C1A58635  13.598  38.466   6.464
 4576POPC   D2A58636  13.585  38.502   6.764
 4576POPC   C3A58637  13.659  38.477   7.064
 4576POPC   C4A58638  13.587  38.405   7.364
 4576POPC   C1B58639  13.649  38.729   6.464
 4576POPC   C2B58640  13.651  38.663   6.764
 4576POPC   C3B58641  13.594  38.682   7.064
 4576POPC   C4B58642  13.578  38.724   7.364
 4577POPC   NC358643  19.051  19.054   5.564
 4577POPC   PO458644  19.053  19.102   5.864
 4577POPC   GL158645  19.070  19.101   6.164
 4577POPC   GL258646  19.184  19.031   6.164
 4577POPC   C1A58647  19.074  19.063   6.464
 4577POPC   D2A58648  19.066  19.028   6.764
 4577POPC   C3A58649  19.043  19.069   7.064
 4577POPC   C4A58650  19.026  19.043   7.364
 4577POPC   C1B58651  19.329  19.028   6.464
 4577POPC   C2B58652  19.279  19.067   6.764
 4577POPC   C3B58653  19.306  19.067   7.064
 4577POPC   C4B58654  19.334  19.058   7.364
 4578POPC   NC358655   9.736  39.987   5.564
 4578POPC   PO458656   9.770  40.013   5.864
 4578POPC   GL158657   9.715  39.964   6.164
 4578POPC   GL258658   9.667  40.085   6.164
 4578POPC   C1A58659   9.719  39.983   6.464
 4578POPC   D2A58660   9.743  40.004   6.764
 4578POPC   C3A58661   9.768  40.026   7.064
 4578POPC   C4A58662   9.782  40.049   7.364
 4578POPC   C1B58663   9.490  40.135   6.464
 4578POPC   C2B58664   9.505  40.128   6.764
 4578POPC   C3B58665   9.560  40.136   7.064
 4578POPC   C4B58666   9.562  40.137   7.364
 4579POPC   NC358667   3.492  41.602   5.564
 4579POPC   PO458668   3.584  41.606   5.864
 4579POPC   GL158669   3.503  41.603   6.164
 4579POPC   GL258670   3.430  41.641   6.164
 4579POPC   C1A58671   3.519  41.558   6.464
 4579POPC   D2A58672   3.518  41.596   6.764
 4579POPC   C3A58673   3.557  41.557   7.064
 4579POPC   C4A58674   3.552  41.576   7.364
 4579POPC   C1B58675   3.350  41.672   6.464
 4579POPC   C2B58676   3.280  41.639   6.764
 4579POPC   C3B58677   3.298  41.643   7.064
 4579POPC   C4B58678   3.288  41.697   7.364
 4580POPC   NC358679  12.864  43.065   5.564
 4580POPC   PO458680  12.885  43.089   5.864
 4580POPC   GL158681  12.831  43.071   6.164
 4580POPC   GL258682  12.768  43.126   6.164
 4580POPC   C1A58683  12.811  43.074   6.464
 4580POPC   D2A58684  12.844  43.082   6.764
 4580POPC   C3A58685  12.885  43.157   7.064
 4580POPC   C4A58686  12.868  43.089   7.364
 4580POPC   C1B58687  12.583  43.202   6.464
 4580POPC   C2B58688  12.603  43.181   6.764
 4580POPC   C3B58689  12.616  43.191   7.064
 4580POPC   C4B58690  12.557  43.181   7.364
 4581POPC   NC358691  26.087   5.907   5.564
 4581POPC   PO458692  26.049   5.878   5.864
 4581POPC   GL158693  26.060   5.823   6.164
 4581POPC   GL258694  25.899   5.983   6.164
 4581POPC   C1A58695  26.002   5.840   6.464
 4581POPC   D2A58696  26.032   5.889   6.764
 4581POPC   C3A58697  26.004   5.840   7.064
 4581POPC   C4A58698  26.061   5.882   7.364
 4581POPC   C1B58699  25.863   6.002   6.464
 4581POPC   C2B58700  25.866   6.069   6.764
 4581POPC   C3B58701  25.841   6.052   7.064
 4581POPC   C4B58702  25.810   6.060   7.364
 4582POPC   NC358703  35.366  21.380   5.564
 4582POPC   PO458704  35.356  21.381   5.864
 4582POPC   GL158705  35.369  21.374   6.164
 4582POPC   GL258706  35.206  21.330   6.164
 4582POPC   C1A58707  35.334  21.389   6.464
 4582POPC   D2A58708  35.343  21.425   6.764
 4582POPC   C3A58709  35.322  21.392   7.064
 4582POPC   C4A58710  35.352  21.420   7.364
 4582POPC   C1B58711  35.129  21.334   6.464
 4582POPC   C2B58712  35.146  21.274   6.764
 4582POPC   C3B58713  35.136  21.300   7.064
 4582POPC   C4B58714  35.137  21.331   7.364
 4583POPC   NC358715  11.304  38.499   5.564
 4583POPC   PO458716  11.306  38.461   5.864
 4583POPC   GL158717  11.306  38.480   6.164
 4583POPC   GL258718  11.295  38.326   6.164
 4583POPC   C1A58719  11.310  38.408   6.464
 4583POPC   D2A58720  11.252  38.429   6.764
 4583POPC   C3A58721  11.295  38.406   7.064
 4583POPC   C4A58722  11.344  38.420   7.364
 4583POPC   C1B58723  11.395  38.251   6.464
 4583POPC   C2B58724  11.410  38.184   6.764
 4583POPC   C3B58725  11.371  38.266   7.064
 4583POPC   C4B58726  11.391  38.221   7.364
 4584POPC   NC358727  23.672  13.657   5.564
 4584POPC   PO458728  23.688  13.661   5.864
 4584POPC   GL158729  23.755  13.628   6.164
 4584POPC   GL258730  23.870  13.632   6.164
 4584POPC   C1A58731  23.683  13.635   6.464
 4584POPC   D2A58732  23.674  13.639   6.764
 4584POPC   C3A58733  23.757  13.655   7.064
 4584POPC   C4A58734  23.730  13.586   7.364
 4584POPC   C1B58735  23.929  13.543   6.464
 4584POPC   C2B58736  23.999  13.530   6.764
 4584POPC   C3B58737  23.954  13.574   7.064
 4584POPC   C4B58738  23.921  13.581   7.364
 4585POPC   NC358739  19.090  39.197   5.564
 4585POPC   PO458740  19.025  39.269   5.864
 4585POPC   GL158741  19.025  39.260   6.164
 4585POPC   GL258742  18.943  39.188   6.164
 4585POPC   C1A58743  19.090  39.280   6.464
 4585POPC   D2A58744  19.018  39.258   6.764
 4585POPC   C3A58745  19.026  39.226   7.064
 4585POPC   C4A58746  19.085  39.187   7.364
 4585POPC   C1B58747  18.792  39.133   6.464
 4585POPC   C2B58748  18.798  39.124   6.764
 4585POPC   C3B58749  18.771  39.140   7.064
 4585POPC   C4B58750  18.789  39.134   7.364
 4586POPC   NC358751  36.916  44.637   5.564
 4586POPC   PO458752  36.953  44.637   5.864
 4586POPC   GL158753  36.894  44.643   6.164
 4586POPC   GL258754  36.811  44.720   6.164
 4586POPC   C1A58755  36.925  44.672   6.464
 4586POPC   D2A58756  36.878  44.706   6.764
 4586POPC   C3A58757  36.889  44.624   7.064
 4586POPC   C4A58758  36.905  44.629   7.364
 4586POPC   C1B58759  36.689  44.753   6.464
 4586POPC   C2B58760  36.719  44.717   6.764
 4586POPC   C3B58761  36.646  44.777   7.064
 4586POPC   C4B58762  36.671  44.720   7.364
 4587POPC   NC358763  38.428  22.902   5.564
 4587POPC   PO458764  38.428  22.968   5.864
 4587POPC   GL158765  38.496  22.982   6.164
 4587POPC   GL258766  38.585  22.986   6.164
 4587POPC   C1A58767  38.485  22.982   6.464
 4587POPC   D2A58768  38.470  22.942   6.764
 4587POPC   C3A58769  38.406  22.949   7.064
 4587POPC   C4A58770  38.435  22.918   7.364
 4587POPC   C1B58771  38.703  23.078   6.464
 4587POPC   C2B58772  38.678  23.084   6.764
 4587POPC   C3B58773  38.667  23.115   7.064
 4587POPC   C4B58774  38.649  23.059   7.364
 4588POPC   NC358775  17.482   8.243   5.564
 4588POPC   PO458776  17.520   8.178   5.864
 4588POPC   GL158777  17.461   8.204   6.164
 4588POPC   GL258778  17.347   8.186   6.164
 4588POPC   C1A58779  17.517   8.162   6.464
 4588POPC   D2A58780  17.457   8.177   6.764
 4588POPC   C3A58781  17.487   8.226   7.064
 4588POPC   C4A58782  17.461   8.192   7.364
 4588POPC   C1B58783  17.264   8.183   6.464
 4588POPC   C2B58784  17.233   8.195   6.764
 4588POPC   C3B58785  17.282   8.257   7.064
 4588POPC   C4B58786  17.221   8.211   7.364
 4589POPC   NC358787  40.813   7.387   5.564
 4589POPC   PO458788  40.798   7.441   5.864
 4589POPC   GL158789  40.760   7.372   6.164
 4589POPC   GL258790  40.715   7.507   6.164
 4589POPC   C1A58791  40.777   7.371   6.464
 4589POPC   D2A58792  40.828   7.432   6.764
 4589POPC   C3A58793  40.801   7.400   7.064
 4589POPC   C4A58794  40.814   7.418   7.364
 4589POPC   C1B58795  40.704   7.679   6.464
 4589POPC   C2B58796  40.702   7.655   6.764
 4589POPC   C3B58797  40.701   7.704   7.064
 4589POPC   C4B58798  40.767   7.634   7.364
 4590POPC   NC358799   1.966   2.018   5.564
 4590POPC   PO458800   2.029   1.949   5.864
 4590POPC   GL158801   1.987   2.007   6.164
 4590POPC   GL258802   2.049   1.899   6.164
 4590POPC   C1A58803   2.017   2.015   6.464
 4590POPC   D2A58804   1.992   2.007   6.764
 4590POPC   C3A58805   1.969   1.948   7.064
 4590POPC   C4A58806   2.020   2.032   7.364
 4590POPC   C1B58807   2.117   1.804   6.464
 4590POPC   C2B58808   2.129   1.843   6.764
 4590POPC   C3B58809   2.174   1.813   7.064
 4590POPC   C4B58810   2.182   1.852   7.364
 4591POPC   NC358811   8.997  12.897   5.564
 4591POPC   PO458812   8.981  12.852   5.864
 4591POPC   GL158813   8.987  12.853   6.164
 4591POPC   GL258814   8.861  12.931   6.164
 4591POPC   C1A58815   8.936  12.817   6.464
 4591POPC   D2A58816   8.927  12.839   6.764
 4591POPC   C3A58817   8.996  12.875   7.064
 4591POPC   C4A58818   8.956  12.854   7.364
 4591POPC   C1B58819   8.840  13.014   6.464
 4591POPC   C2B58820   8.778  13.027   6.764
 4591POPC   C3B58821   8.774  13.009   7.064
 4591POPC   C4B58822   8.804  13.005   7.364
 4592POPC   NC358823  16.683   9.773   5.564
 4592POPC   PO458824  16.780   9.716   5.864
 4592POPC   GL158825  16.748   9.756   6.164
 4592POPC   GL258826  16.719   9.876   6.164
 4592POPC   C1A58827  16.697   9.754   6.464
 4592POPC   D2A58828  16.722   9.788   6.764
 4592POPC   C3A58829  16.703   9.745   7.064
 4592POPC   C4A58830  16.744   9.784   7.364
 4592POPC   C1B58831  16.789   9.981   6.464
 4592POPC   C2B58832  16.813   9.989   6.764
 4592POPC   C3B58833  16.827  10.033   7.064
 4592POPC   C4B58834  16.760   9.957   7.364
 4593POPC   NC358835  37.685  29.949   5.564
 4593POPC   PO458836  37.678  29.871   5.864
 4593POPC   GL158837  37.698  29.931   6.164
 4593POPC   GL258838  37.815  29.976   6.164
 4593POPC   C1A58839  37.653  29.943   6.464
 4593POPC   D2A58840  37.689  29.908   6.764
 4593POPC   C3A58841  37.664  29.951   7.064
 4593POPC   C4A58842  37.644  29.937   7.364
 4593POPC   C1B58843  37.945  30.016   6.464
 4593POPC   C2B58844  37.890  30.035   6.764
 4593POPC   C3B58845  37.897  30.051   7.064
 4593POPC   C4B58846  37.892  30.056   7.364
 4594POPC   NC358847  23.707   5.869   5.564
 4594POPC   PO458848  23.693   5.858   5.864
 4594POPC   GL158849  23.698   5.839   6.164
 4594POPC   GL258850  23.885   5.851   6.164
 4594POPC   C1A58851  23.703   5.873   6.464
 4594POPC   D2A58852  23.753   5.837   6.764
 4594POPC   C3A58853  23.683   5.842   7.064
 4594POPC   C4A58854  23.669   5.912   7.364
 4594POPC   C1B58855  23.980   5.820   6.464
 4594POPC   C2B58856  23.939   5.889   6.764
 4594POPC   C3B58857  24.008   5.865   7.064
 4594POPC   C4B58858  23.974   5.863   7.364
 4595POPC   NC358859   4.322  22.949   5.564
 4595POPC   PO458860   4.285  22.902   5.864
 4595POPC   GL158861   4.313  22.912   6.164
 4595POPC   GL258862   4.476  22.894   6.164
 4595POPC   C1A58863   4.348  22.981   6.464
 4595POPC   D2A58864   4.301  22.971   6.764
 4595POPC   C3A58865   4.364  22.973   7.064
 4595POPC   C4A58866   4.336  22.933   7.364
 4595POPC   C1B58867   4.591  22.802   6.464
 4595POPC   C2B58868   4.523  22.873   6.764
 4595POPC   C3B58869   4.598  22.810   7.064
 4595POPC   C4B58870   4.577  22.809   7.364
 4596POPC   NC358871  19.791  25.299   5.564
 4596POPC   PO458872  19.827  25.309   5.864
 4596POPC   GL158873  19.839  25.233   6.164
 4596POPC   GL258874  19.966  25.310   6.164
 4596POPC   C1A58875  19.876  25.225   6.464
 4596POPC   D2A58876  19.795  25.292   6.764
 4596POPC   C3A58877  19.825  25.244   7.064
 4596POPC   C4A58878  19.859  25.227   7.364
 4596POPC   C1B58879  20.048  25.346   6.464
 4596POPC   C2B58880  20.079  25.376   6.764
 4596POPC   C3B58881  20.033  25.331   7.064
 4596POPC   C4B58882  20.108  25.344   7.364
 4597POPC   NC358883  15.149  34.607   5.564
 4597POPC   PO458884  15.172  34.579   5.864
 4597POPC   GL158885  15.131  34.559   6.164
 4597POPC   GL258886  15.047  34.495   6.164
 4597POPC   C1A58887  15.222  34.582   6.464
 4597POPC   D2A58888  15.229  34.600   6.764
 4597POPC   C3A58889  15.180  34.547   7.064
 4597POPC   C4A58890  15.134  34.553   7.364
 4597POPC   C1B58891  14.919  34.428   6.464
 4597POPC   C2B58892  14.981  34.444   6.764
 4597POPC   C3B58893  14.956  34.429   7.064
 4597POPC   C4B58894  14.916  34.438   7.364
 4598POPC   NC358895  10.502  36.944   5.564
 4598POPC   PO458896  10.560  36.902   5.864
 4598POPC   GL158897  10.513  36.854   6.164
 4598POPC   GL258898  10.499  36.734   6.164
 4598POPC   C1A58899  10.527  36.924   6.464
 4598POPC   D2A58900  10.542  36.952   6.764
 4598POPC   C3A58901  10.505  36.864   7.064
 4598POPC   C4A58902  10.571  36.904   7.364
 4598POPC   C1B58903  10.510  36.650   6.464
 4598POPC   C2B58904  10.547  36.681   6.764
 4598POPC   C3B58905  10.522  36.669   7.064
 4598POPC   C4B58906  10.482  36.646   7.364
 4599POPC   NC358907  19.871  36.151   5.564
 4599POPC   PO458908  19.832  36.171   5.864
 4599POPC   GL158909  19.877  36.140   6.164
 4599POPC   GL258910  19.885  35.986   6.164
 4599POPC   C1A58911  19.861  36.114   6.464
 4599POPC   D2A58912  19.881  36.155   6.764
 4599POPC   C3A58913  19.882  36.093   7.064
 4599POPC   C4A58914  19.799  36.084   7.364
 4599POPC   C1B58915  19.997  35.895   6.464
 4599POPC   C2B58916  19.982  35.880   6.764
 4599POPC   C3B58917  19.934  35.887   7.064
 4599POPC   C4B58918  19.984  35.959   7.364
 4600POPC   NC358919  40.755  20.581   5.564
 4600POPC   PO458920  40.756  20.578   5.864
 4600POPC   GL158921  40.749  20.581   6.164
 4600POPC   GL258922  40.678  20.572   6.164
 4600POPC   C1A58923  40.781  20.637   6.464
 4600POPC   D2A58924  40.789  20.597   6.764
 4600POPC   C3A58925  40.818  20.642   7.064
 4600POPC   C4A58926  40.790  20.600   7.364
 4600POPC   C1B58927  40.578  20.423   6.464
 4600POPC   C2B58928  40.553  20.440   6.764
 4600POPC   C3B58929  40.637  20.400   7.064
 4600POPC   C4B58930  40.556  20.488   7.364
 4601POPC   NC358931   5.098   7.371   5.564
 4601POPC   PO458932   5.046   7.468   5.864
 4601POPC   GL158933   5.105   7.389   6.164
 4601POPC   GL258934   5.014   7.345   6.164
 4601POPC   C1A58935   5.113   7.411   6.464
 4601POPC   D2A58936   5.046   7.419   6.764
 4601POPC   C3A58937   5.093   7.434   7.064
 4601POPC   C4A58938   5.122   7.458   7.364
 4601POPC   C1B58939   4.876   7.338   6.464
 4601POPC   C2B58940   4.855   7.343   6.764
 4601POPC   C3B58941   4.906   7.280   7.064
 4601POPC   C4B58942   4.884   7.260   7.364
 4602POPC   NC358943  36.157  42.351   5.564
 4602POPC   PO458944  36.095  42.379   5.864
 4602POPC   GL158945  36.100  42.360   6.164
 4602POPC   GL258946  36.283  42.416   6.164
 4602POPC   C1A58947  36.168  42.339   6.464
 4602POPC   D2A58948  36.162  42.291   6.764
 4602POPC   C3A58949  36.086  42.382   7.064
 4602POPC   C4A58950  36.080  42.293   7.364
 4602POPC   C1B58951  36.326  42.391   6.464
 4602POPC   C2B58952  36.406  42.433   6.764
 4602POPC   C3B58953  36.334  42.411   7.064
 4602POPC   C4B58954  36.317  42.441   7.364
 4603POPC   NC358955  28.343  32.994   5.564
 4603POPC   PO458956  28.390  33.043   5.864
 4603POPC   GL158957  28.328  33.002   6.164
 4603POPC   GL258958  28.291  32.936   6.164
 4603POPC   C1A58959  28.407  33.024   6.464
 4603POPC   D2A58960  28.369  32.979   6.764
 4603POPC   C3A58961  28.351  32.984   7.064
 4603POPC   C4A58962  28.333  33.057   7.364
 4603POPC   C1B58963  28.174  32.851   6.464
 4603POPC   C2B58964  28.207  32.824   6.764
 4603POPC   C3B58965  28.163  32.884   7.064
 4603POPC   C4B58966  28.203  32.792   7.364
 4604POPC   NC358967  36.885  30.698   5.564
 4604POPC   PO458968  36.906  30.733   5.864
 4604POPC   GL158969  36.879  30.698   6.164
 4604POPC   GL258970  36.880  30.549   6.164
 4604POPC   C1A58971  36.945  30.681   6.464
 4604POPC   D2A58972  36.876  30.670   6.764
 4604POPC   C3A58973  36.872  30.721   7.064
 4604POPC   C4A58974  36.938  30.746   7.364
 4604POPC   C1B58975  36.946  30.431   6.464
 4604POPC   C2B58976  36.868  30.429   6.764
 4604POPC   C3B58977  36.895  30.474   7.064
 4604POPC   C4B58978  36.857  30.491   7.364
 4605POPC   NC358979  32.222   7.394   5.564
 4605POPC   PO458980  32.256   7.424   5.864
 4605POPC   GL158981  32.273   7.435   6.164
 4605POPC   GL258982  32.255   7.318   6.164
 4605POPC   C1A58983  32.220   7.408   6.464
 4605POPC   D2A58984  32.272   7.438   6.764
 4605POPC   C3A58985  32.252   7.393   7.064
 4605POPC   C4A58986  32.235   7.394   7.364
 4605POPC   C1B58987  32.328   7.197   6.464
 4605POPC   C2B58988  32.294   7.199   6.764
 4605POPC   C3B58989  32.287   7.155   7.064
 4605POPC   C4B58990  32.318   7.198   7.364
 4606POPC   NC358991  33.835  32.267   5.564
 4606POPC   PO458992  33.826  32.278   5.864
 4606POPC   GL158993  33.765  32.267   6.164
 4606POPC   GL258994  33.755  32.139   6.164
 4606POPC   C1A58995  33.822  32.297   6.464
 4606POPC   D2A58996  33.765  32.237   6.764
 4606POPC   C3A58997  33.770  32.220   7.064
 4606POPC   C4A58998  33.832  32.227   7.364
 4606POPC   C1B58999  33.789  31.959   6.464
 4606POPC   C2B59000  33.790  31.997   6.764
 4606POPC   C3B59001  33.773  31.964   7.064
 4606POPC   C4B59002  33.827  32.011   7.364
 4607POPC   NC359003  28.334  43.891   5.564
 4607POPC   PO459004  28.379  43.836   5.864
 4607POPC   GL159005  28.343  43.858   6.164
 4607POPC   GL259006  28.384  43.974   6.164
 4607POPC   C1A59007  28.348  43.858   6.464
 4607POPC   D2A59008  28.326  43.886   6.764
 4607POPC   C3A59009  28.372  43.860   7.064
 4607POPC   C4A59010  28.378  43.907   7.364
 4607POPC   C1B59011  28.389  44.092   6.464
 4607POPC   C2B59012  28.343  44.185   6.764
 4607POPC   C3B59013  28.347  44.166   7.064
 4607POPC   C4B59014  28.382  44.135   7.364
 4608POPC   NC359015   5.895  26.780   5.564
 4608POPC   PO459016   5.907  26.813   5.864
 4608POPC   GL159017   5.834  26.862   6.164
 4608POPC   GL259018   6.011  26.754   6.164
 4608POPC   C1A59019   5.917  26.831   6.464
 4608POPC   D2A59020   5.828  26.797   6.764
 4608POPC   C3A59021   5.845  26.855   7.064
 4608POPC   C4A59022   5.864  26.838   7.364
 4608POPC   C1B59023   6.053  26.719   6.464
 4608POPC   C2B59024   6.121  26.728   6.764
 4608POPC   C3B59025   6.072  26.710   7.064
 4608POPC   C4B59026   6.137  26.729   7.364
 4609POPC   NC359027  13.636  19.819   5.564
 4609POPC   PO459028  13.585  19.785   5.864
 4609POPC   GL159029  13.671  19.791   6.164
 4609POPC   GL259030  13.471  19.838   6.164
 4609POPC   C1A59031  13.644  19.820   6.464
 4609POPC   D2A59032  13.667  19.828   6.764
 4609POPC   C3A59033  13.645  19.808   7.064
 4609POPC   C4A59034  13.584  19.863   7.364
 4609POPC   C1B59035  13.374  19.874   6.464
 4609POPC   C2B59036  13.371  19.848   6.764
 4609POPC   C3B59037  13.367  19.879   7.064
 4609POPC   C4B59038  13.423  19.893   7.364
 4610POPC   NC359039   3.585  25.231   5.564
 4610POPC   PO459040   3.541  25.267   5.864
 4610POPC   GL159041   3.571  25.235   6.164
 4610POPC   GL259042   3.609  25.172   6.164
 4610POPC   C1A59043   3.509  25.306   6.464
 4610POPC   D2A59044   3.541  25.289   6.764
 4610POPC   C3A59045   3.498  25.241   7.064
 4610POPC   C4A59046   3.497  25.225   7.364
 4610POPC   C1B59047   3.720  25.010   6.464
 4610POPC   C2B59048   3.717  25.052   6.764
 4610POPC   C3B59049   3.721  25.090   7.064
 4610POPC   C4B59050   3.666  25.096   7.364
 4611POPC   NC359051  19.018   1.214   5.564
 4611POPC   PO459052  19.025   1.243   5.864
 4611POPC   GL159053  19.010   1.251   6.164
 4611POPC   GL259054  19.080   1.303   6.164
 4611POPC   C1A59055  19.051   1.215   6.464
 4611POPC   D2A59056  19.072   1.201   6.764
 4611POPC   C3A59057  19.034   1.205   7.064
 4611POPC   C4A59058  19.082   1.199   7.364
 4611POPC   C1B59059  19.107   1.432   6.464
 4611POPC   C2B59060  19.159   1.455   6.764
 4611POPC   C3B59061  19.100   1.487   7.064
 4611POPC   C4B59062  19.153   1.499   7.364
 4612POPC   NC359063  40.776   2.799   5.564
 4612POPC   PO459064  40.792   2.729   5.864
 4612POPC   GL159065  40.786   2.773   6.164
 4612POPC   GL259066  40.914   2.696   6.164
 4612POPC   C1A59067  40.790   2.765   6.464
 4612POPC   D2A59068  40.802   2.743   6.764
 4612POPC   C3A59069  40.809   2.807   7.064
 4612POPC   C4A59070  40.817   2.789   7.364
 4612POPC   C1B59071  41.000   2.601   6.464
 4612POPC   C2B59072  41.033   2.616   6.764
 4612POPC   C3B59073  41.011   2.588   7.064
 4612POPC   C4B59074  41.041   2.583   7.364
 4613POPC   NC359075  10.495   1.244   5.564
 4613POPC   PO459076  10.569   1.241   5.864
 4613POPC   GL159077  10.497   1.248   6.164
 4613POPC   GL259078  10.406   1.198   6.164
 4613POPC   C1A59079  10.562   1.195   6.464
 4613POPC   D2A59080  10.547   1.194   6.764
 4613POPC   C3A59081  10.570   1.166   7.064
 4613POPC   C4A59082  10.504   1.232   7.364
 4613POPC   C1B59083  10.314   1.165   6.464
 4613POPC   C2B59084  10.281   1.091   6.764
 4613POPC   C3B59085  10.306   1.129   7.064
 4613POPC   C4B59086  10.276   1.124   7.364
 4614POPC   NC359087  39.995  36.932   5.564
 4614POPC   PO459088  40.018  36.903   5.864
 4614POPC   GL159089  40.015  36.926   6.164
 4614POPC   GL259090  39.924  36.980   6.164
 4614POPC   C1A59091  40.003  36.867   6.464
 4614POPC   D2A59092  40.023  36.864   6.764
 4614POPC   C3A59093  40.045  36.884   7.064
 4614POPC   C4A59094  40.031  36.924   7.364
 4614POPC   C1B59095  39.834  37.058   6.464
 4614POPC   C2B59096  39.808  37.059   6.764
 4614POPC   C3B59097  39.837  37.110   7.064
 4614POPC   C4B59098  39.802  37.061   7.364
 4615POPC   NC359099   8.984  26.772   5.564
 4615POPC   PO459100   8.945  26.788   5.864
 4615POPC   GL159101   8.993  26.839   6.164
 4615POPC   GL259102   8.907  26.699   6.164
 4615POPC   C1A59103   9.010  26.850   6.464
 4615POPC   D2A59104   9.019  26.826   6.764
 4615POPC   C3A59105   8.970  26.830   7.064
 4615POPC   C4A59106   9.000  26.794   7.364
 4615POPC   C1B59107   8.851  26.614   6.464
 4615POPC   C2B59108   8.852  26.682   6.764
 4615POPC   C3B59109   8.773  26.604   7.064
 4615POPC   C4B59110   8.836  26.666   7.364
 4616POPC   NC359111  42.289  29.176   5.564
 4616POPC   PO459112  42.292  29.105   5.864
 4616POPC   GL159113  42.318  29.118   6.164
 4616POPC   GL259114  42.313  29.059   6.164
 4616POPC   C1A59115  42.350  29.135   6.464
 4616POPC   D2A59116  42.307  29.167   6.764
 4616POPC   C3A59117  42.290  29.130   7.064
 4616POPC   C4A59118  42.382  29.190   7.364
 4616POPC   C1B59119  42.433  28.948   6.464
 4616POPC   C2B59120  42.421  28.932   6.764
 4616POPC   C3B59121  42.376  28.946   7.064
 4616POPC   C4B59122  42.406  28.856   7.364
 4617POPC   NC359123  12.878  30.733   5.564
 4617POPC   PO459124  12.803  30.708   5.864
 4617POPC   GL159125  12.828  30.738   6.164
 4617POPC   GL259126  12.948  30.809   6.164
 4617POPC   C1A59127  12.888  30.746   6.464
 4617POPC   D2A59128  12.805  30.726   6.764
 4617POPC   C3A59129  12.852  30.655   7.064
 4617POPC   C4A59130  12.842  30.649   7.364
 4617POPC   C1B59131  12.986  30.896   6.464
 4617POPC   C2B59132  12.940  30.963   6.764
 4617POPC   C3B59133  12.980  30.952   7.064
 4617POPC   C4B59134  12.960  30.973   7.364
 4618POPC   NC359135  42.317   8.203   5.564
 4618POPC   PO459136  42.335   8.175   5.864
 4618POPC   GL159137  42.357   8.168   6.164
 4618POPC   GL259138  42.275   8.084   6.164
 4618POPC   C1A59139  42.313   8.200   6.464
 4618POPC   D2A59140  42.363   8.206   6.764
 4618POPC   C3A59141  42.287   8.154   7.064
 4618POPC   C4A59142  42.321   8.203   7.364
 4618POPC   C1B59143  42.150   8.052   6.464
 4618POPC   C2B59144  42.141   8.062   6.764
 4618POPC   C3B59145  42.161   8.068   7.064
 4618POPC   C4B59146  42.165   8.031   7.364
 4619POPC   NC359147   3.515  17.523   5.564
 4619POPC   PO459148   3.569  17.553   5.864
 4619POPC   GL159149   3.523  17.476   6.164
 4619POPC   GL259150   3.663  17.508   6.164
 4619POPC   C1A59151   3.544  17.494   6.464
 4619POPC   D2A59152   3.523  17.496   6.764
 4619POPC   C3A59153   3.542  17.514   7.064
 4619POPC   C4A59154   3.568  17.471   7.364
 4619POPC   C1B59155   3.760  17.410   6.464
 4619POPC   C2B59156   3.756  17.454   6.764
 4619POPC   C3B59157   3.743  17.409   7.064
 4619POPC   C4B59158   3.743  17.430   7.364
 4620POPC   NC359159   5.848   9.790   5.564
 4620POPC   PO459160   5.894   9.728   5.864
 4620POPC   GL159161   5.881   9.724   6.164
 4620POPC   GL259162   5.806   9.626   6.164
 4620POPC   C1A59163   5.849   9.736   6.464
 4620POPC   D2A59164   5.822   9.702   6.764
 4620POPC   C3A59165   5.901   9.721   7.064
 4620POPC   C4A59166   5.918   9.721   7.364
 4620POPC   C1B59167   5.790   9.550   6.464
 4620POPC   C2B59168   5.867   9.522   6.764
 4620POPC   C3B59169   5.835   9.519   7.064
 4620POPC   C4B59170   5.837   9.490   7.364
 4621POPC   NC359171  28.368  28.414   5.564
 4621POPC   PO459172  28.410  28.415   5.864
 4621POPC   GL159173  28.388  28.383   6.164
 4621POPC   GL259174  28.200  28.358   6.164
 4621POPC   C1A59175  28.404  28.380   6.464
 4621POPC   D2A59176  28.407  28.359   6.764
 4621POPC   C3A59177  28.375  28.366   7.064
 4621POPC   C4A59178  28.411  28.413   7.364
 4621POPC   C1B59179  28.132  28.307   6.464
 4621POPC   C2B59180  28.093  28.313   6.764
 4621POPC   C3B59181  28.130  28.375   7.064
 4621POPC   C4B59182  28.152  28.295   7.364
 4622POPC   NC359183  36.134  15.185   5.564
 4622POPC   PO459184  36.147  15.221   5.864
 4622POPC   GL159185  36.176  15.155   6.164
 4622POPC   GL259186  36.052  15.218   6.164
 4622POPC   C1A59187  36.154  15.211   6.464
 4622POPC   D2A59188  36.149  15.204   6.764
 4622POPC   C3A59189  36.101  15.200   7.064
 4622POPC   C4A59190  36.137  15.175   7.364
 4622POPC   C1B59191  35.877  15.252   6.464
 4622POPC   C2B59192  35.889  15.286   6.764
 4622POPC   C3B59193  35.916  15.308   7.064
 4622POPC   C4B59194  35.865  15.318   7.364
 4623POPC   NC359195   1.950  44.652   5.564
 4623POPC   PO459196   2.035  44.641   5.864
 4623POPC   GL159197   1.988  44.687   6.164
 4623POPC   GL259198   1.846  44.625   6.164
 4623POPC   C1A59199   1.979  44.639   6.464
 4623POPC   D2A59200   1.952  44.627   6.764
 4623POPC   C3A59201   2.022  44.711   7.064
 4623POPC   C4A59202   1.946  44.709   7.364
 4623POPC   C1B59203   1.783  44.625   6.464
 4623POPC   C2B59204   1.726  44.605   6.764
 4623POPC   C3B59205   1.733  44.650   7.064
 4623POPC   C4B59206   1.698  44.641   7.364
 4624POPC   NC359207   4.288  16.749   5.564
 4624POPC   PO459208   4.303  16.736   5.864
 4624POPC   GL159209   4.281  16.706   6.164
 4624POPC   GL259210   4.235  16.833   6.164
 4624POPC   C1A59211   4.302  16.696   6.464
 4624POPC   D2A59212   4.289  16.775   6.764
 4624POPC   C3A59213   4.290  16.713   7.064
 4624POPC   C4A59214   4.348  16.721   7.364
 4624POPC   C1B59215   4.056  16.815   6.464
 4624POPC   C2B59216   4.086  16.858   6.764
 4624POPC   C3B59217   4.068  16.876   7.064
 4624POPC   C4B59218   4.068  16.828   7.364
 4625POPC   NC359219  36.899  38.431   5.564
 4625POPC   PO459220  36.949  38.478   5.864
 4625POPC   GL159221  36.911  38.488   6.164
 4625POPC   GL259222  36.794  38.437   6.164
 4625POPC   C1A59223  36.925  38.469   6.464
 4625POPC   D2A59224  36.910  38.468   6.764
 4625POPC   C3A59225  36.884  38.467   7.064
 4625POPC   C4A59226  36.944  38.431   7.364
 4625POPC   C1B59227  36.684  38.434   6.464
 4625POPC   C2B59228  36.630  38.436   6.764
 4625POPC   C3B59229  36.680  38.438   7.064
 4625POPC   C4B59230  36.669  38.475   7.364
 4626POPC   NC359231  11.332  34.537   5.564
 4626POPC   PO459232  11.341  34.605   5.864
 4626POPC   GL159233  11.336  34.593   6.164
 4626POPC   GL259234  11.386  34.564   6.164
 4626POPC   C1A59235  11.276  34.546   6.464
 4626POPC   D2A59236  11.335  34.532   6.764
 4626POPC   C3A59237  11.338  34.535   7.064
 4626POPC   C4A59238  11.299  34.577   7.364
 4626POPC   C1B59239  11.575  34.490   6.464
 4626POPC   C2B59240  11.502  34.507   6.764
 4626POPC   C3B59241  11.528  34.435   7.064
 4626POPC   C4B59242  11.567  34.507   7.364
 4627POPC   NC359243  14.382  18.271   5.564
 4627POPC   PO459244  14.407  18.245   5.864
 4627POPC   GL159245  14.405  18.242   6.164
 4627POPC   GL259246  14.357  18.176   6.164
 4627POPC   C1A59247  14.369  18.244   6.464
 4627POPC   D2A59248  14.386  18.241   6.764
 4627POPC   C3A59249  14.420  18.315   7.064
 4627POPC   C4A59250  14.395  18.284   7.364
 4627POPC   C1B59251  14.308  18.024   6.464
 4627POPC   C2B59252  14.364  18.022   6.764
 4627POPC   C3B59253  14.296  18.072   7.064
 4627POPC   C4B59254  14.314  18.047   7.364
 4628POPC   NC359255  33.822  12.125   5.564
 4628POPC   PO459256  33.839  12.088   5.864
 4628POPC   GL159257  33.822  12.115   6.164
 4628POPC   GL259258  33.694  11.952   6.164
 4628POPC   C1A59259  33.827  12.036   6.464
 4628POPC   D2A59260  33.829  12.059   6.764
 4628POPC   C3A59261  33.835  12.042   7.064
 4628POPC   C4A59262  33.760  12.066   7.364
 4628POPC   C1B59263  33.652  11.893   6.464
 4628POPC   C2B59264  33.675  11.859   6.764
 4628POPC   C3B59265  33.692  11.841   7.064
 4628POPC   C4B59266  33.714  11.826   7.364
 4629POPC   NC359267   8.973  17.553   5.564
 4629POPC   PO459268   8.971  17.473   5.864
 4629POPC   GL159269   9.016  17.538   6.164
 4629POPC   GL259270   8.833  17.401   6.164
 4629POPC   C1A59271   9.019  17.514   6.464
 4629POPC   D2A59272   8.969  17.508   6.764
 4629POPC   C3A59273   9.007  17.487   7.064
 4629POPC   C4A59274   8.954  17.519   7.364
 4629POPC   C1B59275   8.803  17.382   6.464
 4629POPC   C2B59276   8.720  17.359   6.764
 4629POPC   C3B59277   8.733  17.409   7.064
 4629POPC   C4B59278   8.739  17.363   7.364
 4630POPC   NC359279  13.581   8.186   5.564
 4630POPC   PO459280  13.648   8.233   5.864
 4630POPC   GL159281  13.623   8.184   6.164
 4630POPC   GL259282  13.557   8.111   6.164
 4630POPC   C1A59283  13.636   8.170   6.464
 4630POPC   D2A59284  13.625   8.179   6.764
 4630POPC   C3A59285  13.636   8.179   7.064
 4630POPC   C4A59286  13.620   8.205   7.364
 4630POPC   C1B59287  13.529   7.907   6.464
 4630POPC   C2B59288  13.512   7.973   6.764
 4630POPC   C3B59289  13.556   7.909   7.064
 4630POPC   C4B59290  13.606   7.909   7.364
 4631POPC   NC359291  27.634  35.314   5.564
 4631POPC   PO459292  27.578  35.336   5.864
 4631POPC   GL159293  27.595  35.374   6.164
 4631POPC   GL259294  27.648  35.249   6.164
 4631POPC   C1A59295  27.561  35.340   6.464
 4631POPC   D2A59296  27.555  35.378   6.764
 4631POPC   C3A59297  27.592  35.365   7.064
 4631POPC   C4A59298  27.600  35.311   7.364
 4631POPC   C1B59299  27.564  35.125   6.464
 4631POPC   C2B59300  27.658  35.104   6.764
 4631POPC   C3B59301  27.584  35.143   7.064
 4631POPC   C4B59302  27.602  35.111   7.364
 4632POPC   NC359303  36.894  31.429   5.564
 4632POPC   PO459304  36.931  31.454   5.864
 4632POPC   GL159305  36.933  31.483   6.164
 4632POPC   GL259306  36.806  31.574   6.164
 4632POPC   C1A59307  36.917  31.500   6.464
 4632POPC   D2A59308  36.947  31.455   6.764
 4632POPC   C3A59309  36.918  31.449   7.064
 4632POPC   C4A59310  36.911  31.495   7.364
 4632POPC   C1B59311  36.799  31.658   6.464
 4632POPC   C2B59312  36.787  31.652   6.764
 4632POPC   C3B59313  36.782  31.681   7.064
 4632POPC   C4B59314  36.798  31.670   7.364
 4633POPC   NC359315  24.468  39.220   5.564
 4633POPC   PO459316  24.441  39.232   5.864
 4633POPC   GL159317  24.526  39.250   6.164
 4633POPC   GL259318  24.389  39.201   6.164
 4633POPC   C1A59319  24.521  39.243   6.464
 4633POPC   D2A59320  24.509  39.267   6.764
 4633POPC   C3A59321  24.450  39.218   7.064
 4633POPC   C4A59322  24.493  39.226   7.364
 4633POPC   C1B59323  24.240  39.196   6.464
 4633POPC   C2B59324  24.256  39.243   6.764
 4633POPC   C3B59325  24.217  39.232   7.064
 4633POPC   C4B59326  24.222  39.273   7.364
 4634POPC   NC359327  40.775  29.144   5.564
 4634POPC   PO459328  40.748  29.146   5.864
 4634POPC   GL159329  40.795  29.192   6.164
 4634POPC   GL259330  40.672  29.040   6.164
 4634POPC   C1A59331  40.759  29.189   6.464
 4634POPC   D2A59332  40.764  29.188   6.764
 4634POPC   C3A59333  40.816  29.134   7.064
 4634POPC   C4A59334  40.749  29.121   7.364
 4634POPC   C1B59335  40.601  28.981   6.464
 4634POPC   C2B59336  40.559  28.987   6.764
 4634POPC   C3B59337  40.604  28.966   7.064
 4634POPC   C4B59338  40.522  29.009   7.364
 4635POPC   NC359339  18.331  17.513   5.564
 4635POPC   PO459340  18.298  17.534   5.864
 4635POPC   GL159341  18.333  17.554   6.164
 4635POPC   GL259342  18.277  17.346   6.164
 4635POPC   C1A59343  18.299  17.482   6.464
 4635POPC   D2A59344  18.307  17.457   6.764
 4635POPC   C3A59345  18.286  17.547   7.064
 4635POPC   C4A59346  18.268  17.530   7.364
 4635POPC   C1B59347  18.320  17.213   6.464
 4635POPC   C2B59348  18.334  17.246   6.764
 4635POPC   C3B59349  18.277  17.260   7.064
 4635POPC   C4B59350  18.273  17.273   7.364
 4636POPC   NC359351   3.586  12.096   5.564
 4636POPC   PO459352   3.578  12.103   5.864
 4636POPC   GL159353   3.531  12.082   6.164
 4636POPC   GL259354   3.532  12.191   6.164
 4636POPC   C1A59355   3.497  12.071   6.464
 4636POPC   D2A59356   3.518  12.069   6.764
 4636POPC   C3A59357   3.545  12.065   7.064
 4636POPC   C4A59358   3.578  12.080   7.364
 4636POPC   C1B59359   3.473  12.348   6.464
 4636POPC   C2B59360   3.486  12.311   6.764
 4636POPC   C3B59361   3.460  12.318   7.064
 4636POPC   C4B59362   3.427  12.346   7.364
 4637POPC   NC359363   4.309  12.090   5.564
 4637POPC   PO459364   4.301  12.035   5.864
 4637POPC   GL159365   4.345  12.090   6.164
 4637POPC   GL259366   4.397  12.174   6.164
 4637POPC   C1A59367   4.269  12.046   6.464
 4637POPC   D2A59368   4.342  12.041   6.764
 4637POPC   C3A59369   4.278  12.033   7.064
 4637POPC   C4A59370   4.284  12.098   7.364
 4637POPC   C1B59371   4.525  12.280   6.464
 4637POPC   C2B59372   4.496  12.201   6.764
 4637POPC   C3B59373   4.514  12.233   7.064
 4637POPC   C4B59374   4.518  12.198   7.364
 4638POPC   NC359375   4.309   0.401   5.564
 4638POPC   PO459376   4.305   0.428   5.864
 4638POPC   GL159377   4.274   0.398   6.164
 4638POPC   GL259378   4.369   0.480   6.164
 4638POPC   C1A59379   4.314   0.450   6.464
 4638POPC   D2A59380   4.338   0.430   6.764
 4638POPC   C3A59381   4.269   0.479   7.064
 4638POPC   C4A59382   4.301   0.408   7.364
 4638POPC   C1B59383   4.496   0.662   6.464
 4638POPC   C2B59384   4.464   0.623   6.764
 4638POPC   C3B59385   4.481   0.572   7.064
 4638POPC   C4B59386   4.490   0.659   7.364
 4639POPC   NC359387  24.510  21.360   5.564
 4639POPC   PO459388  24.515  21.397   5.864
 4639POPC   GL159389  24.464  21.398   6.164
 4639POPC   GL259390  24.340  21.346   6.164
 4639POPC   C1A59391  24.479  21.371   6.464
 4639POPC   D2A59392  24.497  21.424   6.764
 4639POPC   C3A59393  24.459  21.350   7.064
 4639POPC   C4A59394  24.525  21.410   7.364
 4639POPC   C1B59395  24.273  21.365   6.464
 4639POPC   C2B59396  24.276  21.385   6.764
 4639POPC   C3B59397  24.234  21.360   7.064
 4639POPC   C4B59398  24.264  21.436   7.364
 4640POPC   NC359399   1.962   2.753   5.564
 4640POPC   PO459400   1.945   2.743   5.864
 4640POPC   GL159401   2.016   2.730   6.164
 4640POPC   GL259402   2.121   2.796   6.164
 4640POPC   C1A59403   1.952   2.754   6.464
 4640POPC   D2A59404   1.951   2.775   6.764
 4640POPC   C3A59405   1.984   2.771   7.064
 4640POPC   C4A59406   1.970   2.729   7.364
 4640POPC   C1B59407   2.179   2.877   6.464
 4640POPC   C2B59408   2.231   2.875   6.764
 4640POPC   C3B59409   2.249   2.877   7.064
 4640POPC   C4B59410   2.218   2.835   7.364
 4641POPC   NC359411  26.774  36.861   5.564
 4641POPC   PO459412  26.828  36.889   5.864
 4641POPC   GL159413  26.846  36.904   6.164
 4641POPC   GL259414  26.865  36.999   6.164
 4641POPC   C1A59415  26.787  36.942   6.464
 4641POPC   D2A59416  26.770  36.920   6.764
 4641POPC   C3A59417  26.796  36.926   7.064
 4641POPC   C4A59418  26.794  36.864   7.364
 4641POPC   C1B59419  26.961  37.100   6.464
 4641POPC   C2B59420  27.047  37.040   6.764
 4641POPC   C3B59421  26.987  37.052   7.064
 4641POPC   C4B59422  26.959  37.059   7.364
 4642POPC   NC359423  11.269  39.962   5.564
 4642POPC   PO459424  11.295  40.002   5.864
 4642POPC   GL159425  11.334  40.032   6.164
 4642POPC   GL259426  11.450  40.062   6.164
 4642POPC   C1A59427  11.303  39.996   6.464
 4642POPC   D2A59428  11.273  40.045   6.764
 4642POPC   C3A59429  11.344  40.013   7.064
 4642POPC   C4A59430  11.321  40.034   7.364
 4642POPC   C1B59431  11.585  40.100   6.464
 4642POPC   C2B59432  11.563  40.051   6.764
 4642POPC   C3B59433  11.590  40.053   7.064
 4642POPC   C4B59434  11.506  40.043   7.364
 4643POPC   NC359435  11.289  15.170   5.564
 4643POPC   PO459436  11.330  15.173   5.864
 4643POPC   GL159437  11.317  15.162   6.164
 4643POPC   GL259438  11.301  15.054   6.164
 4643POPC   C1A59439  11.310  15.193   6.464
 4643POPC   D2A59440  11.278  15.202   6.764
 4643POPC   C3A59441  11.262  15.130   7.064
 4643POPC   C4A59442  11.295  15.221   7.364
 4643POPC   C1B59443  11.334  14.979   6.464
 4643POPC   C2B59444  11.336  14.895   6.764
 4643POPC   C3B59445  11.269  14.898   7.064
 4643POPC   C4B59446  11.254  14.954   7.364
 4644POPC   NC359447  14.366  39.278   5.564
 4644POPC   PO459448  14.450  39.236   5.864
 4644POPC   GL159449  14.395  39.209   6.164
 4644POPC   GL259450  14.381  39.070   6.164
 4644POPC   C1A59451  14.367  39.191   6.464
 4644POPC   D2A59452  14.363  39.268   6.764
 4644POPC   C3A59453  14.416  39.187   7.064
 4644POPC   C4A59454  14.356  39.225   7.364
 4644POPC   C1B59455  14.319  39.021   6.464
 4644POPC   C2B59456  14.385  38.945   6.764
 4644POPC   C3B59457  14.379  39.029   7.064
 4644POPC   C4B59458  14.347  39.016   7.364
 4645POPC   NC359459  37.695  38.464   5.564
 4645POPC   PO459460  37.709  38.474   5.864
 4645POPC   GL159461  37.657  38.491   6.164
 4645POPC   GL259462  37.618  38.597   6.164
 4645POPC   C1A59463  37.673  38.467   6.464
 4645POPC   D2A59464  37.690  38.465   6.764
 4645POPC   C3A59465  37.694  38.424   7.064
 4645POPC   C4A59466  37.681  38.495   7.364
 4645POPC   C1B59467  37.587  38.723   6.464
 4645POPC   C2B59468  37.593  38.729   6.764
 4645POPC   C3B59469  37.603  38.671   7.064
 4645POPC   C4B59470  37.533  38.658   7.364
 4646POPC   NC359471  25.244  43.064   5.564
 4646POPC   PO459472  25.293  43.074   5.864
 4646POPC   GL159473  25.271  43.151   6.164
 4646POPC   GL259474  25.366  43.069   6.164
 4646POPC   C1A59475  25.221  43.083   6.464
 4646POPC   D2A59476  25.243  43.074   6.764
 4646POPC   C3A59477  25.220  43.138   7.064
 4646POPC   C4A59478  25.300  43.097   7.364
 4646POPC   C1B59479  25.473  42.982   6.464
 4646POPC   C2B59480  25.431  42.985   6.764
 4646POPC   C3B59481  25.471  42.952   7.064
 4646POPC   C4B59482  25.456  42.981   7.364
 4647POPC   NC359483  24.479   1.257   5.564
 4647POPC   PO459484  24.497   1.188   5.864
 4647POPC   GL159485  24.441   1.236   6.164
 4647POPC   GL259486  24.659   1.204   6.164
 4647POPC   C1A59487  24.525   1.249   6.464
 4647POPC   D2A59488  24.487   1.175   6.764
 4647POPC   C3A59489  24.487   1.199   7.064
 4647POPC   C4A59490  24.490   1.252   7.364
 4647POPC   C1B59491  24.717   1.177   6.464
 4647POPC   C2B59492  24.759   1.140   6.764
 4647POPC   C3B59493  24.774   1.190   7.064
 4647POPC   C4B59494  24.695   1.171   7.364
 4648POPC   NC359495  19.867  35.392   5.564
 4648POPC   PO459496  19.849  35.369   5.864
 4648POPC   GL159497  19.787  35.320   6.164
 4648POPC   GL259498  19.748  35.368   6.164
 4648POPC   C1A59499  19.875  35.340   6.464
 4648POPC   D2A59500  19.848  35.332   6.764
 4648POPC   C3A59501  19.882  35.361   7.064
 4648POPC   C4A59502  19.881  35.318   7.364
 4648POPC   C1B59503  19.599  35.356   6.464
 4648POPC   C2B59504  19.630  35.308   6.764
 4648POPC   C3B59505  19.608  35.335   7.064
 4648POPC   C4B59506  19.608  35.333   7.364
 4649POPC   NC359507   5.902  36.086   5.564
 4649POPC   PO459508   5.889  36.174   5.864
 4649POPC   GL159509   5.865  36.138   6.164
 4649POPC   GL259510   5.989  36.182   6.164
 4649POPC   C1A59511   5.821  36.094   6.464
 4649POPC   D2A59512   5.911  36.097   6.764
 4649POPC   C3A59513   5.880  36.132   7.064
 4649POPC   C4A59514   5.847  36.123   7.364
 4649POPC   C1B59515   6.142  36.210   6.464
 4649POPC   C2B59516   6.134  36.167   6.764
 4649POPC   C3B59517   6.094  36.170   7.064
 4649POPC   C4B59518   6.117  36.221   7.364
 4650POPC   NC359519  11.340  32.263   5.564
 4650POPC   PO459520  11.304  32.252   5.864
 4650POPC   GL159521  11.273  32.215   6.164
 4650POPC   GL259522  11.225  32.111   6.164
 4650POPC   C1A59523  11.318  32.266   6.464
 4650POPC   D2A59524  11.314  32.261   6.764
 4650POPC   C3A59525  11.310  32.278   7.064
 4650POPC   C4A59526  11.263  32.246   7.364
 4650POPC   C1B59527  11.099  32.015   6.464
 4650POPC   C2B59528  11.171  32.049   6.764
 4650POPC   C3B59529  11.107  32.040   7.064
 4650POPC   C4B59530  11.106  32.045   7.364
 4651POPC   NC359531  30.730   5.051   5.564
 4651POPC   PO459532  30.682   5.134   5.864
 4651POPC   GL159533  30.689   5.067   6.164
 4651POPC   GL259534  30.733   5.163   6.164
 4651POPC   C1A59535  30.731   5.044   6.464
 4651POPC   D2A59536  30.722   5.072   6.764
 4651POPC   C3A59537  30.679   5.125   7.064
 4651POPC   C4A59538  30.731   5.090   7.364
 4651POPC   C1B59539  30.802   5.274   6.464
 4651POPC   C2B59540  30.825   5.288   6.764
 4651POPC   C3B59541  30.831   5.247   7.064
 4651POPC   C4B59542  30.850   5.243   7.364
 4652POPC   NC359543  18.258  39.992   5.564
 4652POPC   PO459544  18.284  39.982   5.864
 4652POPC   GL159545  18.235  40.003   6.164
 4652POPC   GL259546  18.274  39.847   6.164
 4652POPC   C1A59547  18.268  40.038   6.464
 4652POPC   D2A59548  18.324  39.978   6.764
 4652POPC   C3A59549  18.306  39.987   7.064
 4652POPC   C4A59550  18.291  40.033   7.364
 4652POPC   C1B59551  18.221  39.740   6.464
 4652POPC   C2B59552  18.217  39.764   6.764
 4652POPC   C3B59553  18.225  39.799   7.064
 4652POPC   C4B59554  18.274  39.745   7.364
 4653POPC   NC359555  19.035  28.398   5.564
 4653POPC   PO459556  19.057  28.353   5.864
 4653POPC   GL159557  19.036  28.375   6.164
 4653POPC   GL259558  18.927  28.388   6.164
 4653POPC   C1A59559  19.065  28.331   6.464
 4653POPC   D2A59560  19.054  28.323   6.764
 4653POPC   C3A59561  19.034  28.371   7.064
 4653POPC   C4A59562  19.089  28.384   7.364
 4653POPC   C1B59563  18.797  28.406   6.464
 4653POPC   C2B59564  18.846  28.414   6.764
 4653POPC   C3B59565  18.806  28.413   7.064
 4653POPC   C4B59566  18.836  28.387   7.364
 4654POPC   NC359567  30.654  25.992   5.564
 4654POPC   PO459568  30.688  26.045   5.864
 4654POPC   GL159569  30.652  26.068   6.164
 4654POPC   GL259570  30.677  25.960   6.164
 4654POPC   C1A59571  30.680  26.061   6.464
 4654POPC   D2A59572  30.745  26.026   6.764
 4654POPC   C3A59573  30.697  26.063   7.064
 4654POPC   C4A59574  30.720  26.031   7.364
 4654POPC   C1B59575  30.713  25.753   6.464
 4654POPC   C2B59576  30.727  25.812   6.764
 4654POPC   C3B59577  30.749  25.772   7.064
 4654POPC   C4B59578  30.732  25.794   7.364
 4655POPC   NC359579  36.106  39.233   5.564
 4655POPC   PO459580  36.083  39.223   5.864
 4655POPC   GL159581  36.091  39.250   6.164
 4655POPC   GL259582  36.062  39.332   6.164
 4655POPC   C1A59583  36.151  39.183   6.464
 4655POPC   D2A59584  36.091  39.263   6.764
 4655POPC   C3A59585  36.140  39.269   7.064
 4655POPC   C4A59586  36.163  39.217   7.364
 4655POPC   C1B59587  35.902  39.359   6.464
 4655POPC   C2B59588  35.958  39.345   6.764
 4655POPC   C3B59589  35.964  39.396   7.064
 4655POPC   C4B59590  35.962  39.334   7.364
 4656POPC   NC359591  28.364  27.615   5.564
 4656POPC   PO459592  28.405  27.593   5.864
 4656POPC   GL159593  28.379  27.618   6.164
 4656POPC   GL259594  28.424  27.706   6.164
 4656POPC   C1A59595  28.372  27.622   6.464
 4656POPC   D2A59596  28.380  27.600   6.764
 4656POPC   C3A59597  28.370  27.587   7.064
 4656POPC   C4A59598  28.326  27.585   7.364
 4656POPC   C1B59599  28.457  27.840   6.464
 4656POPC   C2B59600  28.427  27.785   6.764
 4656POPC   C3B59601  28.475  27.839   7.064
 4656POPC   C4B59602  28.453  27.868   7.364
 4657POPC   NC359603  21.337  26.796   5.564
 4657POPC   PO459604  21.368  26.829   5.864
 4657POPC   GL159605  21.364  26.800   6.164
 4657POPC   GL259606  21.260  26.756   6.164
 4657POPC   C1A59607  21.428  26.797   6.464
 4657POPC   D2A59608  21.351  26.779   6.764
 4657POPC   C3A59609  21.400  26.769   7.064
 4657POPC   C4A59610  21.351  26.801   7.364
 4657POPC   C1B59611  21.114  26.742   6.464
 4657POPC   C2B59612  21.110  26.689   6.764
 4657POPC   C3B59613  21.170  26.687   7.064
 4657POPC   C4B59614  21.139  26.718   7.364
 4658POPC   NC359615   3.571  44.709   5.564
 4658POPC   PO459616   3.532  44.614   5.864
 4658POPC   GL159617   3.504  44.692   6.164
 4658POPC   GL259618   3.472  44.704   6.164
 4658POPC   C1A59619   3.538  44.688   6.464
 4658POPC   D2A59620   3.519  44.688   6.764
 4658POPC   C3A59621   3.496  44.671   7.064
 4658POPC   C4A59622   3.523  44.637   7.364
 4658POPC   C1B59623   3.370  44.819   6.464
 4658POPC   C2B59624   3.328  44.782   6.764
 4658POPC   C3B59625   3.362  44.760   7.064
 4658POPC   C4B59626   3.343  44.782   7.364
 4659POPC   NC359627   5.078  37.642   5.564
 4659POPC   PO459628   5.103  37.682   5.864
 4659POPC   GL159629   5.082  37.634   6.164
 4659POPC   GL259630   5.254  37.640   6.164
 4659POPC   C1A59631   5.079  37.663   6.464
 4659POPC   D2A59632   5.117  37.716   6.764
 4659POPC   C3A59633   5.136  37.720   7.064
 4659POPC   C4A59634   5.094  37.727   7.364
 4659POPC   C1B59635   5.381  37.608   6.464
 4659POPC   C2B59636   5.348  37.592   6.764
 4659POPC   C3B59637   5.341  37.600   7.064
 4659POPC   C4B59638   5.291  37.626   7.364
 4660POPC   NC359639  42.362  29.898   5.564
 4660POPC   PO459640  42.358  29.963   5.864
 4660POPC   GL159641  42.320  29.928   6.164
 4660POPC   GL259642  42.334  30.047   6.164
 4660POPC   C1A59643  42.340  29.875   6.464
 4660POPC   D2A59644  42.312  29.946   6.764
 4660POPC   C3A59645  42.331  29.935   7.064
 4660POPC   C4A59646  42.343  29.947   7.364
 4660POPC   C1B59647  42.277  30.136   6.464
 4660POPC   C2B59648  42.325  30.139   6.764
 4660POPC   C3B59649  42.312  30.207   7.064
 4660POPC   C4B59650  42.239  30.189   7.364
 4661POPC   NC359651   5.095  40.788   5.564
 4661POPC   PO459652   5.134  40.787   5.864
 4661POPC   GL159653   5.069  40.829   6.164
 4661POPC   GL259654   4.987  40.830   6.164
 4661POPC   C1A59655   5.091  40.765   6.464
 4661POPC   D2A59656   5.138  40.769   6.764
 4661POPC   C3A59657   5.139  40.741   7.064
 4661POPC   C4A59658   5.066  40.794   7.364
 4661POPC   C1B59659   4.848  40.828   6.464
 4661POPC   C2B59660   4.851  40.863   6.764
 4661POPC   C3B59661   4.847  40.844   7.064
 4661POPC   C4B59662   4.838  40.856   7.364
 4662POPC   NC359663  22.176  28.332   5.564
 4662POPC   PO459664  22.195  28.397   5.864
 4662POPC   GL159665  22.141  28.335   6.164
 4662POPC   GL259666  22.305  28.374   6.164
 4662POPC   C1A59667  22.199  28.354   6.464
 4662POPC   D2A59668  22.162  28.400   6.764
 4662POPC   C3A59669  22.208  28.403   7.064
 4662POPC   C4A59670  22.177  28.325   7.364
 4662POPC   C1B59671  22.420  28.452   6.464
 4662POPC   C2B59672  22.369  28.373   6.764
 4662POPC   C3B59673  22.410  28.447   7.064
 4662POPC   C4B59674  22.448  28.452   7.364
 4663POPC   NC359675  22.902  21.378   5.564
 4663POPC   PO459676  22.960  21.358   5.864
 4663POPC   GL159677  22.897  21.404   6.164
 4663POPC   GL259678  22.853  21.432   6.164
 4663POPC   C1A59679  22.962  21.372   6.464
 4663POPC   D2A59680  22.985  21.430   6.764
 4663POPC   C3A59681  22.917  21.405   7.064
 4663POPC   C4A59682  22.914  21.339   7.364
 4663POPC   C1B59683  22.720  21.372   6.464
 4663POPC   C2B59684  22.738  21.343   6.764
 4663POPC   C3B59685  22.661  21.403   7.064
 4663POPC   C4B59686  22.692  21.362   7.364
 4664POPC   NC359687  41.597  36.098   5.564
 4664POPC   PO459688  41.560  36.083   5.864
 4664POPC   GL159689  41.596  36.162   6.164
 4664POPC   GL259690  41.599  36.020   6.164
 4664POPC   C1A59691  41.606  36.136   6.464
 4664POPC   D2A59692  41.552  36.097   6.764
 4664POPC   C3A59693  41.605  36.176   7.064
 4664POPC   C4A59694  41.573  36.100   7.364
 4664POPC   C1B59695  41.639  35.923   6.464
 4664POPC   C2B59696  41.620  35.857   6.764
 4664POPC   C3B59697  41.644  35.882   7.064
 4664POPC   C4B59698  41.660  35.924   7.364
 4665POPC   NC359699  25.249  26.768   5.564
 4665POPC   PO459700  25.270  26.841   5.864
 4665POPC   GL159701  25.236  26.769   6.164
 4665POPC   GL259702  25.341  26.739   6.164
 4665POPC   C1A59703  25.290  26.857   6.464
 4665POPC   D2A59704  25.247  26.817   6.764
 4665POPC   C3A59705  25.282  26.774   7.064
 4665POPC   C4A59706  25.228  26.805   7.364
 4665POPC   C1B59707  25.516  26.759   6.464
 4665POPC   C2B59708  25.463  26.757   6.764
 4665POPC   C3B59709  25.507  26.756   7.064
 4665POPC   C4B59710  25.517  26.724   7.364
 4666POPC   NC359711  39.218  12.827   5.564
 4666POPC   PO459712  39.268  12.873   5.864
 4666POPC   GL159713  39.189  12.877   6.164
 4666POPC   GL259714  39.203  12.974   6.164
 4666POPC   C1A59715  39.240  12.852   6.464
 4666POPC   D2A59716  39.259  12.815   6.764
 4666POPC   C3A59717  39.204  12.883   7.064
 4666POPC   C4A59718  39.207  12.819   7.364
 4666POPC   C1B59719  39.171  13.075   6.464
 4666POPC   C2B59720  39.142  13.098   6.764
 4666POPC   C3B59721  39.177  13.045   7.064
 4666POPC   C4B59722  39.180  13.074   7.364
 4667POPC   NC359723  29.110   1.251   5.564
 4667POPC   PO459724  29.136   1.171   5.864
 4667POPC   GL159725  29.099   1.181   6.164
 4667POPC   GL259726  29.135   1.084   6.164
 4667POPC   C1A59727  29.129   1.251   6.464
 4667POPC   D2A59728  29.110   1.178   6.764
 4667POPC   C3A59729  29.122   1.169   7.064
 4667POPC   C4A59730  29.141   1.184   7.364
 4667POPC   C1B59731  29.107   0.998   6.464
 4667POPC   C2B59732  29.092   1.001   6.764
 4667POPC   C3B59733  29.133   0.944   7.064
 4667POPC   C4B59734  29.121   0.971   7.364
 4668POPC   NC359735   3.508  36.124   5.564
 4668POPC   PO459736   3.526  36.090   5.864
 4668POPC   GL159737   3.526  36.083   6.164
 4668POPC   GL259738   3.463  36.228   6.164
 4668POPC   C1A59739   3.539  36.132   6.464
 4668POPC   D2A59740   3.586  36.095   6.764
 4668POPC   C3A59741   3.513  36.094   7.064
 4668POPC   C4A59742   3.590  36.091   7.364
 4668POPC   C1B59743   3.453  36.379   6.464
 4668POPC   C2B59744   3.438  36.342   6.764
 4668POPC   C3B59745   3.441  36.365   7.064
 4668POPC   C4B59746   3.430  36.369   7.364
 4669POPC   NC359747  39.202  29.887   5.564
 4669POPC   PO459748  39.202  29.964   5.864
 4669POPC   GL159749  39.271  29.963   6.164
 4669POPC   GL259750  39.335  29.918   6.164
 4669POPC   C1A59751  39.205  29.925   6.464
 4669POPC   D2A59752  39.269  29.967   6.764
 4669POPC   C3A59753  39.246  29.879   7.064
 4669POPC   C4A59754  39.263  29.894   7.364
 4669POPC   C1B59755  39.440  29.891   6.464
 4669POPC   C2B59756  39.507  29.950   6.764
 4669POPC   C3B59757  39.460  29.887   7.064
 4669POPC   C4B59758  39.464  29.954   7.364
 4670POPC   NC359759   4.283  34.599   5.564
 4670POPC   PO459760   4.337  34.578   5.864
 4670POPC   GL159761   4.340  34.543   6.164
 4670POPC   GL259762   4.179  34.615   6.164
 4670POPC   C1A59763   4.362  34.537   6.464
 4670POPC   D2A59764   4.344  34.577   6.764
 4670POPC   C3A59765   4.347  34.619   7.064
 4670POPC   C4A59766   4.311  34.571   7.364
 4670POPC   C1B59767   4.092  34.641   6.464
 4670POPC   C2B59768   4.094  34.624   6.764
 4670POPC   C3B59769   4.078  34.620   7.064
 4670POPC   C4B59770   4.118  34.663   7.364
 4671POPC   NC359771  40.761  24.519   5.564
 4671POPC   PO459772  40.776  24.484   5.864
 4671POPC   GL159773  40.760  24.445   6.164
 4671POPC   GL259774  40.884  24.514   6.164
 4671POPC   C1A59775  40.754  24.481   6.464
 4671POPC   D2A59776  40.768  24.467   6.764
 4671POPC   C3A59777  40.738  24.494   7.064
 4671POPC   C4A59778  40.761  24.465   7.364
 4671POPC   C1B59779  41.002  24.658   6.464
 4671POPC   C2B59780  40.977  24.664   6.764
 4671POPC   C3B59781  41.019  24.626   7.064
 4671POPC   C4B59782  41.026  24.623   7.364
 4672POPC   NC359783   0.484   2.756   5.564
 4672POPC   PO459784   0.432   2.802   5.864
 4672POPC   GL159785   0.472   2.784   6.164
 4672POPC   GL259786   0.408   2.654   6.164
 4672POPC   C1A59787   0.391   2.760   6.464
 4672POPC   D2A59788   0.469   2.782   6.764
 4672POPC   C3A59789   0.432   2.807   7.064
 4672POPC   C4A59790   0.455   2.753   7.364
 4672POPC   C1B59791   0.276   2.518   6.464
 4672POPC   C2B59792   0.274   2.513   6.764
 4672POPC   C3B59793   0.268   2.521   7.064
 4672POPC   C4B59794   0.302   2.530   7.364
 4673POPC   NC359795   2.011  34.590   5.564
 4673POPC   PO459796   2.003  34.600   5.864
 4673POPC   GL159797   1.986  34.604   6.164
 4673POPC   GL259798   1.974  34.486   6.164
 4673POPC   C1A59799   2.002  34.611   6.464
 4673POPC   D2A59800   1.977  34.583   6.764
 4673POPC   C3A59801   2.014  34.552   7.064
 4673POPC   C4A59802   1.949  34.546   7.364
 4673POPC   C1B59803   1.861  34.336   6.464
 4673POPC   C2B59804   1.929  34.293   6.764
 4673POPC   C3B59805   1.895  34.344   7.064
 4673POPC   C4B59806   1.907  34.355   7.364
 4674POPC   NC359807   6.652  19.795   5.564
 4674POPC   PO459808   6.606  19.837   5.864
 4674POPC   GL159809   6.628  19.847   6.164
 4674POPC   GL259810   6.651  19.733   6.164
 4674POPC   C1A59811   6.632  19.833   6.464
 4674POPC   D2A59812   6.648  19.805   6.764
 4674POPC   C3A59813   6.656  19.854   7.064
 4674POPC   C4A59814   6.644  19.816   7.364
 4674POPC   C1B59815   6.521  19.558   6.464
 4674POPC   C2B59816   6.531  19.589   6.764
 4674POPC   C3B59817   6.575  19.641   7.064
 4674POPC   C4B59818   6.536  19.552   7.364
 4675POPC   NC359819  29.136  34.533   5.564
 4675POPC   PO459820  29.097  34.537   5.864
 4675POPC   GL159821  29.126  34.527   6.164
 4675POPC   GL259822  28.995  34.548   6.164
 4675POPC   C1A59823  29.127  34.542   6.464
 4675POPC   D2A59824  29.112  34.565   6.764
 4675POPC   C3A59825  29.107  34.572   7.064
 4675POPC   C4A59826  29.171  34.618   7.364
 4675POPC   C1B59827  28.919  34.525   6.464
 4675POPC   C2B59828  28.871  34.470   6.764
 4675POPC   C3B59829  28.903  34.529   7.064
 4675POPC   C4B59830  28.912  34.561   7.364
 4676POPC   NC359831   2.790   0.407   5.564
 4676POPC   PO459832   2.764   0.403   5.864
 4676POPC   GL159833   2.804   0.408   6.164
 4676POPC   GL259834   2.840   0.314   6.164
 4676POPC   C1A59835   2.778   0.446   6.464
 4676POPC   D2A59836   2.725   0.441   6.764
 4676POPC   C3A59837   2.779   0.431   7.064
 4676POPC   C4A59838   2.811   0.482   7.364
 4676POPC   C1B59839   2.914   0.253   6.464
 4676POPC   C2B59840   2.995   0.320   6.764
 4676POPC   C3B59841   2.949   0.245   7.064
 4676POPC   C4B59842   2.981   0.309   7.364
 4677POPC   NC359843  24.539  12.052   5.564
 4677POPC   PO459844  24.479  12.042   5.864
 4677POPC   GL159845  24.449  12.063   6.164
 4677POPC   GL259846  24.497  12.003   6.164
 4677POPC   C1A59847  24.461  12.038   6.464
 4677POPC   D2A59848  24.443  12.079   6.764
 4677POPC   C3A59849  24.457  12.051   7.064
 4677POPC   C4A59850  24.495  12.065   7.364
 4677POPC   C1B59851  24.530  11.876   6.464
 4677POPC   C2B59852  24.585  11.800   6.764
 4677POPC   C3B59853  24.510  11.783   7.064
 4677POPC   C4B59854  24.497  11.837   7.364
 4678POPC   NC359855  10.506  31.460   5.564
 4678POPC   PO459856  10.561  31.502   5.864
 4678POPC   GL159857  10.492  31.507   6.164
 4678POPC   GL259858  10.526  31.555   6.164
 4678POPC   C1A59859  10.504  31.427   6.464
 4678POPC   D2A59860  10.560  31.517   6.764
 4678POPC   C3A59861  10.544  31.463   7.064
 4678POPC   C4A59862  10.499  31.428   7.364
 4678POPC   C1B59863  10.560  31.694   6.464
 4678POPC   C2B59864  10.489  31.756   6.764
 4678POPC   C3B59865  10.484  31.688   7.064
 4678POPC   C4B59866  10.495  31.723   7.364
 4679POPC   NC359867  38.424   2.005   5.564
 4679POPC   PO459868  38.422   1.956   5.864
 4679POPC   GL159869  38.461   1.997   6.164
 4679POPC   GL259870  38.422   1.830   6.164
 4679POPC   C1A59871  38.437   1.978   6.464
 4679POPC   D2A59872  38.446   2.021   6.764
 4679POPC   C3A59873  38.427   1.964   7.064
 4679POPC   C4A59874  38.472   2.014   7.364
 4679POPC   C1B59875  38.353   1.798   6.464
 4679POPC   C2B59876  38.368   1.760   6.764
 4679POPC   C3B59877  38.366   1.725   7.064
 4679POPC   C4B59878  38.323   1.774   7.364
 4680POPC   NC359879  38.446  21.341   5.564
 4680POPC   PO459880  38.483  21.371   5.864
 4680POPC   GL159881  38.444  21.350   6.164
 4680POPC   GL259882  38.614  21.433   6.164
 4680POPC   C1A59883  38.477  21.406   6.464
 4680POPC   D2A59884  38.466  21.353   6.764
 4680POPC   C3A59885  38.452  21.380   7.064
 4680POPC   C4A59886  38.500  21.434   7.364
 4680POPC   C1B59887  38.668  21.456   6.464
 4680POPC   C2B59888  38.676  21.380   6.764
 4680POPC   C3B59889  38.677  21.372   7.064
 4680POPC   C4B59890  38.718  21.419   7.364
 4681POPC   NC359891  39.187   6.674   5.564
 4681POPC   PO459892  39.269   6.681   5.864
 4681POPC   GL159893  39.227   6.639   6.164
 4681POPC   GL259894  39.168   6.719   6.164
 4681POPC   C1A59895  39.222   6.635   6.464
 4681POPC   D2A59896  39.270   6.632   6.764
 4681POPC   C3A59897  39.207   6.636   7.064
 4681POPC   C4A59898  39.192   6.651   7.364
 4681POPC   C1B59899  39.055   6.850   6.464
 4681POPC   C2B59900  39.046   6.898   6.764
 4681POPC   C3B59901  39.057   6.833   7.064
 4681POPC   C4B59902  39.051   6.896   7.364
 4682POPC   NC359903  28.334  12.060   5.564
 4682POPC   PO459904  28.400  12.046   5.864
 4682POPC   GL159905  28.402  12.086   6.164
 4682POPC   GL259906  28.456  12.089   6.164
 4682POPC   C1A59907  28.332  12.111   6.464
 4682POPC   D2A59908  28.407  12.118   6.764
 4682POPC   C3A59909  28.370  12.123   7.064
 4682POPC   C4A59910  28.409  12.121   7.364
 4682POPC   C1B59911  28.631  12.046   6.464
 4682POPC   C2B59912  28.652  11.992   6.764
 4682POPC   C3B59913  28.593  11.978   7.064
 4682POPC   C4B59914  28.589  11.966   7.364
 4683POPC   NC359915  33.000   3.523   5.564
 4683POPC   PO459916  33.042   3.541   5.864
 4683POPC   GL159917  33.034   3.586   6.164
 4683POPC   GL259918  32.899   3.456   6.164
 4683POPC   C1A59919  33.074   3.538   6.464
 4683POPC   D2A59920  33.025   3.569   6.764
 4683POPC   C3A59921  33.002   3.543   7.064
 4683POPC   C4A59922  32.976   3.583   7.364
 4683POPC   C1B59923  32.813   3.357   6.464
 4683POPC   C2B59924  32.791   3.361   6.764
 4683POPC   C3B59925  32.805   3.349   7.064
 4683POPC   C4B59926  32.831   3.416   7.364
 4684POPC   NC359927  43.936  29.131   5.564
 4684POPC   PO459928  43.893  29.143   5.864
 4684POPC   GL159929  43.864  29.157   6.164
 4684POPC   GL259930  43.840  29.029   6.164
 4684POPC   C1A59931  43.898  29.117   6.464
 4684POPC   D2A59932  43.923  29.191   6.764
 4684POPC   C3A59933  43.926  29.170   7.064
 4684POPC   C4A59934  43.919  29.175   7.364
 4684POPC   C1B59935  43.702  28.996   6.464
 4684POPC   C2B59936  43.685  28.947   6.764
 4684POPC   C3B59937  43.704  28.995   7.064
 4684POPC   C4B59938  43.708  29.013   7.364
 4685POPC   NC359939  29.948  30.647   5.564
 4685POPC   PO459940  29.957  30.657   5.864
 4685POPC   GL159941  29.912  30.671   6.164
 4685POPC   GL259942  29.852  30.579   6.164
 4685POPC   C1A59943  29.931  30.649   6.464
 4685POPC   D2A59944  29.890  30.702   6.764
 4685POPC   C3A59945  29.922  30.674   7.064
 4685POPC   C4A59946  29.968  30.739   7.364
 4685POPC   C1B59947  29.726  30.571   6.464
 4685POPC   C2B59948  29.735  30.560   6.764
 4685POPC   C3B59949  29.686  30.594   7.064
 4685POPC   C4B59950  29.722  30.568   7.364
 4686POPC   NC359951  34.613  43.930   5.564
 4686POPC   PO459952  34.583  43.856   5.864
 4686POPC   GL159953  34.616  43.845   6.164
 4686POPC   GL259954  34.574  43.995   6.164
 4686POPC   C1A59955  34.538  43.842   6.464
 4686POPC   D2A59956  34.548  43.863   6.764
 4686POPC   C3A59957  34.581  43.874   7.064
 4686POPC   C4A59958  34.576  43.837   7.364
 4686POPC   C1B59959  34.594  44.114   6.464
 4686POPC   C2B59960  34.646  44.114   6.764
 4686POPC   C3B59961  34.604  44.086   7.064
 4686POPC   C4B59962  34.647  44.119   7.364
 4687POPC   NC359963  39.271  15.200   5.564
 4687POPC   PO459964  39.227  15.191   5.864
 4687POPC   GL159965  39.218  15.193   6.164
 4687POPC   GL259966  39.068  15.232   6.164
 4687POPC   C1A59967  39.252  15.191   6.464
 4687POPC   D2A59968  39.194  15.162   6.764
 4687POPC   C3A59969  39.262  15.218   7.064
 4687POPC   C4A59970  39.276  15.134   7.364
 4687POPC   C1B59971  38.975  15.206   6.464
 4687POPC   C2B59972  39.017  15.219   6.764
 4687POPC   C3B59973  39.000  15.219   7.064
 4687POPC   C4B59974  39.020  15.140   7.364
 4688POPC   NC359975  34.573  44.639   5.564
 4688POPC   PO459976  34.606  44.643   5.864
 4688POPC   GL159977  34.540  44.637   6.164
 4688POPC   GL259978  34.654  44.703   6.164
 4688POPC   C1A59979  34.594  44.654   6.464
 4688POPC   D2A59980  34.570  44.660   6.764
 4688POPC   C3A59981  34.576  44.616   7.064
 4688POPC   C4A59982  34.561  44.625   7.364
 4688POPC   C1B59983  34.864  44.711   6.464
 4688POPC   C2B59984  34.826  44.628   6.764
 4688POPC   C3B59985  34.870  44.627   7.064
 4688POPC   C4B59986  34.850  44.699   7.364
 4689POPC   NC359987   9.797  30.700   5.564
 4689POPC   PO459988   9.749  30.672   5.864
 4689POPC   GL159989   9.720  30.709   6.164
 4689POPC   GL259990   9.739  30.823   6.164
 4689POPC   C1A59991   9.731  30.678   6.464
 4689POPC   D2A59992   9.774  30.679   6.764
 4689POPC   C3A59993   9.718  30.695   7.064
 4689POPC   C4A59994   9.765  30.687   7.364
 4689POPC   C1B59995   9.648  30.933   6.464
 4689POPC   C2B59996   9.718  30.892   6.764
 4689POPC   C3B59997   9.710  30.953   7.064
 4689POPC   C4B59998   9.632  30.987   7.364
 4690POPC   NC359999   7.421  39.259   5.564
 4690POPC   PO460000   7.445  39.236   5.864
 4690POPC   GL160001   7.394  39.240   6.164
 4690POPC   GL260002   7.452  39.103   6.164
 4690POPC   C1A60003   7.416  39.279   6.464
 4690POPC   D2A60004   7.423  39.189   6.764
 4690POPC   C3A60005   7.395  39.265   7.064
 4690POPC   C4A60006   7.394  39.246   7.364
 4690POPC   C1B60007   7.578  38.994   6.464
 4690POPC   C2B60008   7.611  38.983   6.764
 4690POPC   C3B60009   7.613  39.021   7.064
 4690POPC   C4B60010   7.528  38.989   7.364
 4691POPC   NC360011  44.679  38.423   5.564
 4691POPC   PO460012  44.711  38.496   5.864
 4691POPC   GL160013  44.711  38.425   6.164
 4691POPC   GL260014  44.828  38.502   6.164
 4691POPC   C1A60015  44.670  38.466   6.464
 4691POPC   D2A60016  44.684  38.488   6.764
 4691POPC   C3A60017  44.637  38.494   7.064
 4691POPC   C4A60018  44.699  38.412   7.364
 4691POPC   C1B60019  44.950  38.530   6.464
 4691POPC   C2B60020  44.904  38.541   6.764
 4691POPC   C3B60021  44.903  38.465   7.064
 4691POPC   C4B60022  44.945  38.463   7.364
 4692POPC   NC360023  17.545   2.790   5.564
 4692POPC   PO460024  17.482   2.716   5.864
 4692POPC   GL160025  17.550   2.782   6.164
 4692POPC   GL260026  17.632   2.854   6.164
 4692POPC   C1A60027  17.496   2.746   6.464
 4692POPC   D2A60028  17.459   2.804   6.764
 4692POPC   C3A60029  17.524   2.793   7.064
 4692POPC   C4A60030  17.476   2.754   7.364
 4692POPC   C1B60031  17.692   2.918   6.464
 4692POPC   C2B60032  17.741   2.826   6.764
 4692POPC   C3B60033  17.720   2.880   7.064
 4692POPC   C4B60034  17.747   2.905   7.364
 4693POPC   NC360035  11.341  12.089   5.564
 4693POPC   PO460036  11.317  12.097   5.864
 4693POPC   GL160037  11.290  12.067   6.164
 4693POPC   GL260038  11.377  12.023   6.164
 4693POPC   C1A60039  11.329  12.033   6.464
 4693POPC   D2A60040  11.329  12.068   6.764
 4693POPC   C3A60041  11.337  12.114   7.064
 4693POPC   C4A60042  11.258  12.086   7.364
 4693POPC   C1B60043  11.465  11.954   6.464
 4693POPC   C2B60044  11.470  11.937   6.764
 4693POPC   C3B60045  11.519  11.986   7.064
 4693POPC   C4B60046  11.523  11.897   7.364
 4694POPC   NC360047  41.531   2.815   5.564
 4694POPC   PO460048  41.523   2.716   5.864
 4694POPC   GL160049  41.517   2.781   6.164
 4694POPC   GL260050  41.706   2.689   6.164
 4694POPC   C1A60051  41.550   2.777   6.464
 4694POPC   D2A60052  41.547   2.804   6.764
 4694POPC   C3A60053  41.543   2.808   7.064
 4694POPC   C4A60054  41.580   2.765   7.364
 4694POPC   C1B60055  41.800   2.680   6.464
 4694POPC   C2B60056  41.758   2.683   6.764
 4694POPC   C3B60057  41.827   2.665   7.064
 4694POPC   C4B60058  41.799   2.669   7.364
 4695POPC   NC360059  32.236  31.465   5.564
 4695POPC   PO460060  32.234  31.491   5.864
 4695POPC   GL160061  32.227  31.432   6.164
 4695POPC   GL260062  32.140  31.501   6.164
 4695POPC   C1A60063  32.259  31.423   6.464
 4695POPC   D2A60064  32.269  31.458   6.764
 4695POPC   C3A60065  32.212  31.453   7.064
 4695POPC   C4A60066  32.234  31.426   7.364
 4695POPC   C1B60067  31.954  31.445   6.464
 4695POPC   C2B60068  32.047  31.443   6.764
 4695POPC   C3B60069  31.987  31.525   7.064
 4695POPC   C4B60070  32.018  31.500   7.364
 4696POPC   NC360071  36.941  20.585   5.564
 4696POPC   PO460072  36.854  20.609   5.864
 4696POPC   GL160073  36.880  20.654   6.164
 4696POPC   GL260074  37.036  20.636   6.164
 4696POPC   C1A60075  36.908  20.576   6.464
 4696POPC   D2A60076  36.856  20.640   6.764
 4696POPC   C3A60077  36.887  20.599   7.064
 4696POPC   C4A60078  36.860  20.609   7.364
 4696POPC   C1B60079  37.199  20.571   6.464
 4696POPC   C2B60080  37.186  20.596   6.764
 4696POPC   C3B60081  37.172  20.540   7.064
 4696POPC   C4B60082  37.134  20.554   7.364
 4697POPC   NC360083  11.311  19.048   5.564
 4697POPC   PO460084  11.345  19.012   5.864
 4697POPC   GL160085  11.315  19.031   6.164
 4697POPC   GL260086  11.260  19.176   6.164
 4697POPC   C1A60087  11.332  19.106   6.464
 4697POPC   D2A60088  11.325  19.026   6.764
 4697POPC   C3A60089  11.283  19.047   7.064
 4697POPC   C4A60090  11.308  19.071   7.364
 4697POPC   C1B60091  11.154  19.239   6.464
 4697POPC   C2B60092  11.176  19.282   6.764
 4697POPC   C3B60093  11.147  19.271   7.064
 4697POPC   C4B60094  11.159  19.219   7.364
 4698POPC   NC360095  15.946  38.463   5.564
 4698POPC   PO460096  15.933  38.488   5.864
 4698POPC   GL160097  15.968  38.457   6.164
 4698POPC   GL260098  15.961  38.623   6.164
 4698POPC   C1A60099  15.966  38.437   6.464
 4698POPC   D2A60100  16.002  38.457   6.764
 4698POPC   C3A60101  15.971  38.417   7.064
 4698POPC   C4A60102  15.975  38.481   7.364
 4698POPC   C1B60103  15.928  38.739   6.464
 4698POPC   C2B60104  15.944  38.722   6.764
 4698POPC   C3B60105  15.938  38.718   7.064
 4698POPC   C4B60106  15.914  38.729   7.364
 4699POPC   NC360107  15.963  15.983   5.564
 4699POPC   PO460108  15.979  15.928   5.864
 4699POPC   GL160109  16.002  15.942   6.164
 4699POPC   GL260110  15.899  15.881   6.164
 4699POPC   C1A60111  15.905  15.926   6.464
 4699POPC   D2A60112  15.927  15.926   6.764
 4699POPC   C3A60113  15.948  15.991   7.064
 4699POPC   C4A60114  15.952  15.996   7.364
 4699POPC   C1B60115  15.862  15.686   6.464
 4699POPC   C2B60116  15.877  15.773   6.764
 4699POPC   C3B60117  15.899  15.716   7.064
 4699POPC   C4B60118  15.871  15.698   7.364
 4700POPC   NC360119  38.439  43.107   5.564
 4700POPC   PO460120  38.454  43.061   5.864
 4700POPC   GL160121  38.500  43.128   6.164
 4700POPC   GL260122  38.443  43.251   6.164
 4700POPC   C1A60123  38.458  43.151   6.464
 4700POPC   D2A60124  38.465  43.088   6.764
 4700POPC   C3A60125  38.453  43.071   7.064
 4700POPC   C4A60126  38.473  43.096   7.364
 4700POPC   C1B60127  38.446  43.319   6.464
 4700POPC   C2B60128  38.424  43.329   6.764
 4700POPC   C3B60129  38.508  43.397   7.064
 4700POPC   C4B60130  38.485  43.396   7.364
 4701POPC   NC360131   2.720  18.308   5.564
 4701POPC   PO460132   2.744  18.292   5.864
 4701POPC   GL160133   2.765  18.292   6.164
 4701POPC   GL260134   2.676  18.320   6.164
 4701POPC   C1A60135   2.799  18.311   6.464
 4701POPC   D2A60136   2.750  18.315   6.764
 4701POPC   C3A60137   2.786  18.263   7.064
 4701POPC   C4A60138   2.801  18.277   7.364
 4701POPC   C1B60139   2.488  18.326   6.464
 4701POPC   C2B60140   2.499  18.404   6.764
 4701POPC   C3B60141   2.520  18.416   7.064
 4701POPC   C4B60142   2.543  18.345   7.364
 4702POPC   NC360143   6.676  29.873   5.564
 4702POPC   PO460144   6.630  29.960   5.864
 4702POPC   GL160145   6.635  29.963   6.164
 4702POPC   GL260146   6.703  30.061   6.164
 4702POPC   C1A60147   6.670  29.872   6.464
 4702POPC   D2A60148   6.635  29.918   6.764
 4702POPC   C3A60149   6.647  29.942   7.064
 4702POPC   C4A60150   6.689  29.927   7.364
 4702POPC   C1B60151   6.627  30.193   6.464
 4702POPC   C2B60152   6.668  30.183   6.764
 4702POPC   C3B60153   6.667  30.202   7.064
 4702POPC   C4B60154   6.672  30.196   7.364
 4703POPC   NC360155  16.717  28.406   5.564
 4703POPC   PO460156  16.700  28.396   5.864
 4703POPC   GL160157  16.771  28.392   6.164
 4703POPC   GL260158  16.846  28.264   6.164
 4703POPC   C1A60159  16.756  28.407   6.464
 4703POPC   D2A60160  16.694  28.400   6.764
 4703POPC   C3A60161  16.751  28.326   7.064
 4703POPC   C4A60162  16.762  28.353   7.364
 4703POPC   C1B60163  16.930  28.186   6.464
 4703POPC   C2B60164  16.856  28.192   6.764
 4703POPC   C3B60165  16.880  28.149   7.064
 4703POPC   C4B60166  16.929  28.149   7.364
 4704POPC   NC360167  15.986   9.701   5.564
 4704POPC   PO460168  15.989   9.753   5.864
 4704POPC   GL160169  15.982   9.706   6.164
 4704POPC   GL260170  15.924   9.832   6.164
 4704POPC   C1A60171  15.924   9.774   6.464
 4704POPC   D2A60172  16.001   9.710   6.764
 4704POPC   C3A60173  15.910   9.742   7.064
 4704POPC   C4A60174  15.997   9.722   7.364
 4704POPC   C1B60175  15.797  10.011   6.464
 4704POPC   C2B60176  15.835   9.951   6.764
 4704POPC   C3B60177  15.791   9.983   7.064
 4704POPC   C4B60178  15.829   9.924   7.364
 4705POPC   NC360179   5.891   0.424   5.564
 4705POPC   PO460180   5.894   0.423   5.864
 4705POPC   GL160181   5.864   0.423   6.164
 4705POPC   GL260182   5.818   0.499   6.164
 4705POPC   C1A60183   5.901   0.442   6.464
 4705POPC   D2A60184   5.914   0.442   6.764
 4705POPC   C3A60185   5.902   0.404   7.064
 4705POPC   C4A60186   5.910   0.401   7.364
 4705POPC   C1B60187   5.659   0.606   6.464
 4705POPC   C2B60188   5.714   0.615   6.764
 4705POPC   C3B60189   5.705   0.616   7.064
 4705POPC   C4B60190   5.658   0.644   7.364
 4706POPC   NC360191  25.255  13.666   5.564
 4706POPC   PO460192  25.262  13.670   5.864
 4706POPC   GL160193  25.294  13.608   6.164
 4706POPC   GL260194  25.397  13.588   6.164
 4706POPC   C1A60195  25.282  13.649   6.464
 4706POPC   D2A60196  25.267  13.664   6.764
 4706POPC   C3A60197  25.305  13.602   7.064
 4706POPC   C4A60198  25.290  13.631   7.364
 4706POPC   C1B60199  25.459  13.464   6.464
 4706POPC   C2B60200  25.470  13.469   6.764
 4706POPC   C3B60201  25.514  13.433   7.064
 4706POPC   C4B60202  25.488  13.448   7.364
 4707POPC   NC360203  20.644  28.381   5.564
 4707POPC   PO460204  20.607  28.330   5.864
 4707POPC   GL160205  20.604  28.396   6.164
 4707POPC   GL260206  20.734  28.433   6.164
 4707POPC   C1A60207  20.610  28.362   6.464
 4707POPC   D2A60208  20.617  28.349   6.764
 4707POPC   C3A60209  20.612  28.382   7.064
 4707POPC   C4A60210  20.643  28.321   7.364
 4707POPC   C1B60211  20.835  28.484   6.464
 4707POPC   C2B60212  20.787  28.525   6.764
 4707POPC   C3B60213  20.840  28.520   7.064
 4707POPC   C4B60214  20.833  28.559   7.364
 4708POPC   NC360215  11.279   7.413   5.564
 4708POPC   PO460216  11.263   7.439   5.864
 4708POPC   GL160217  11.267   7.448   6.164
 4708POPC   GL260218  11.210   7.400   6.164
 4708POPC   C1A60219  11.275   7.451   6.464
 4708POPC   D2A60220  11.311   7.411   6.764
 4708POPC   C3A60221  11.260   7.389   7.064
 4708POPC   C4A60222  11.276   7.392   7.364
 4708POPC   C1B60223  11.034   7.284   6.464
 4708POPC   C2B60224  11.060   7.294   6.764
 4708POPC   C3B60225  11.110   7.357   7.064
 4708POPC   C4B60226  11.060   7.357   7.364
 4709POPC   NC360227  19.085   2.770   5.564
 4709POPC   PO460228  19.020   2.777   5.864
 4709POPC   GL160229  19.082   2.747   6.164
 4709POPC   GL260230  19.041   2.901   6.164
 4709POPC   C1A60231  19.097   2.758   6.464
 4709POPC   D2A60232  19.050   2.775   6.764
 4709POPC   C3A60233  19.070   2.739   7.064
 4709POPC   C4A60234  19.091   2.716   7.364
 4709POPC   C1B60235  19.123   3.043   6.464
 4709POPC   C2B60236  19.027   3.054   6.764
 4709POPC   C3B60237  19.074   2.996   7.064
 4709POPC   C4B60238  19.025   2.986   7.364
 4710POPC   NC360239  39.251  22.119   5.564
 4710POPC   PO460240  39.256  22.202   5.864
 4710POPC   GL160241  39.266  22.182   6.164
 4710POPC   GL260242  39.255  22.037   6.164
 4710POPC   C1A60243  39.209  22.158   6.464
 4710POPC   D2A60244  39.268  22.115   6.764
 4710POPC   C3A60245  39.250  22.199   7.064
 4710POPC   C4A60246  39.263  22.212   7.364
 4710POPC   C1B60247  39.343  21.911   6.464
 4710POPC   C2B60248  39.327  21.955   6.764
 4710POPC   C3B60249  39.280  21.890   7.064
 4710POPC   C4B60250  39.273  21.956   7.364
 4711POPC   NC360251   8.175  37.696   5.564
 4711POPC   PO460252   8.177  37.678   5.864
 4711POPC   GL160253   8.210  37.664   6.164
 4711POPC   GL260254   8.314  37.694   6.164
 4711POPC   C1A60255   8.213  37.649   6.464
 4711POPC   D2A60256   8.209  37.708   6.764
 4711POPC   C3A60257   8.166  37.674   7.064
 4711POPC   C4A60258   8.207  37.697   7.364
 4711POPC   C1B60259   8.456  37.656   6.464
 4711POPC   C2B60260   8.434  37.670   6.764
 4711POPC   C3B60261   8.438  37.621   7.064
 4711POPC   C4B60262   8.464  37.707   7.364
 4712POPC   NC360263  39.984  26.867   5.564
 4712POPC   PO460264  40.057  26.784   5.864
 4712POPC   GL160265  39.977  26.848   6.164
 4712POPC   GL260266  39.919  26.906   6.164
 4712POPC   C1A60267  40.000  26.862   6.464
 4712POPC   D2A60268  40.032  26.837   6.764
 4712POPC   C3A60269  39.998  26.832   7.064
 4712POPC   C4A60270  40.010  26.834   7.364
 4712POPC   C1B60271  39.836  27.002   6.464
 4712POPC   C2B60272  39.768  26.930   6.764
 4712POPC   C3B60273  39.795  27.011   7.064
 4712POPC   C4B60274  39.790  26.937   7.364
 4713POPC   NC360275   5.130  31.487   5.564
 4713POPC   PO460276   5.110  31.475   5.864
 4713POPC   GL160277   5.064  31.470   6.164
 4713POPC   GL260278   5.177  31.327   6.164
 4713POPC   C1A60279   5.121  31.444   6.464
 4713POPC   D2A60280   5.108  31.505   6.764
 4713POPC   C3A60281   5.117  31.456   7.064
 4713POPC   C4A60282   5.082  31.430   7.364
 4713POPC   C1B60283   5.199  31.239   6.464
 4713POPC   C2B60284   5.195  31.244   6.764
 4713POPC   C3B60285   5.244  31.235   7.064
 4713POPC   C4B60286   5.257  31.232   7.364
 4714POPC   NC360287  14.400  22.890   5.564
 4714POPC   PO460288  14.378  22.971   5.864
 4714POPC   GL160289  14.404  22.972   6.164
 4714POPC   GL260290  14.424  23.103   6.164
 4714POPC   C1A60291  14.384  22.940   6.464
 4714POPC   D2A60292  14.423  22.965   6.764
 4714POPC   C3A60293  14.382  22.940   7.064
 4714POPC   C4A60294  14.358  22.903   7.364
 4714POPC   C1B60295  14.388  23.173   6.464
 4714POPC   C2B60296  14.374  23.192   6.764
 4714POPC   C3B60297  14.328  23.229   7.064
 4714POPC   C4B60298  14.305  23.232   7.364
 4715POPC   NC360299   3.534  15.226   5.564
 4715POPC   PO460300   3.553  15.194   5.864
 4715POPC   GL160301   3.499  15.179   6.164
 4715POPC   GL260302   3.681  15.165   6.164
 4715POPC   C1A60303   3.586  15.132   6.464
 4715POPC   D2A60304   3.573  15.133   6.764
 4715POPC   C3A60305   3.557  15.194   7.064
 4715POPC   C4A60306   3.536  15.130   7.364
 4715POPC   C1B60307   3.750  15.058   6.464
 4715POPC   C2B60308   3.821  15.093   6.764
 4715POPC   C3B60309   3.792  15.066   7.064
 4715POPC   C4B60310   3.731  15.106   7.364
 4716POPC   NC360311  29.105  11.263   5.564
 4716POPC   PO460312  29.166  11.343   5.864
 4716POPC   GL160313  29.119  11.336   6.164
 4716POPC   GL260314  29.193  11.165   6.164
 4716POPC   C1A60315  29.101  11.340   6.464
 4716POPC   D2A60316  29.188  11.280   6.764
 4716POPC   C3A60317  29.099  11.270   7.064
 4716POPC   C4A60318  29.108  11.284   7.364
 4716POPC   C1B60319  29.218  11.092   6.464
 4716POPC   C2B60320  29.241  11.022   6.764
 4716POPC   C3B60321  29.146  11.084   7.064
 4716POPC   C4B60322  29.223  11.037   7.364
 4717POPC   NC360323  25.312  15.948   5.564
 4717POPC   PO460324  25.248  15.980   5.864
 4717POPC   GL160325  25.292  15.923   6.164
 4717POPC   GL260326  25.118  15.884   6.164
 4717POPC   C1A60327  25.313  15.919   6.464
 4717POPC   D2A60328  25.267  15.945   6.764
 4717POPC   C3A60329  25.303  15.982   7.064
 4717POPC   C4A60330  25.223  16.005   7.364
 4717POPC   C1B60331  25.013  15.905   6.464
 4717POPC   C2B60332  25.006  15.948   6.764
 4717POPC   C3B60333  25.046  15.872   7.064
 4717POPC   C4B60334  25.014  15.908   7.364
 4718POPC   NC360335  27.575   5.073   5.564
 4718POPC   PO460336  27.563   5.108   5.864
 4718POPC   GL160337  27.551   5.059   6.164
 4718POPC   GL260338  27.673   5.058   6.164
 4718POPC   C1A60339  27.632   5.111   6.464
 4718POPC   D2A60340  27.585   5.053   6.764
 4718POPC   C3A60341  27.618   5.062   7.064
 4718POPC   C4A60342  27.574   5.113   7.364
 4718POPC   C1B60343  27.773   4.990   6.464
 4718POPC   C2B60344  27.850   4.933   6.764
 4718POPC   C3B60345  27.773   4.970   7.064
 4718POPC   C4B60346  27.791   4.982   7.364
 4719POPC   NC360347   9.717  33.031   5.564
 4719POPC   PO460348   9.750  33.061   5.864
 4719POPC   GL160349   9.783  32.988   6.164
 4719POPC   GL260350   9.675  32.970   6.164
 4719POPC   C1A60351   9.781  33.021   6.464
 4719POPC   D2A60352   9.723  33.058   6.764
 4719POPC   C3A60353   9.729  33.027   7.064
 4719POPC   C4A60354   9.774  32.989   7.364
 4719POPC   C1B60355   9.541  32.944   6.464
 4719POPC   C2B60356   9.518  32.915   6.764
 4719POPC   C3B60357   9.550  32.876   7.064
 4719POPC   C4B60358   9.569  32.929   7.364
 4720POPC   NC360359  36.098  27.565   5.564
 4720POPC   PO460360  36.146  27.591   5.864
 4720POPC   GL160361  36.167  27.552   6.164
 4720POPC   GL260362  36.242  27.576   6.164
 4720POPC   C1A60363  36.160  27.554   6.464
 4720POPC   D2A60364  36.083  27.608   6.764
 4720POPC   C3A60365  36.134  27.622   7.064
 4720POPC   C4A60366  36.080  27.546   7.364
 4720POPC   C1B60367  36.333  27.494   6.464
 4720POPC   C2B60368  36.341  27.494   6.764
 4720POPC   C3B60369  36.355  27.443   7.064
 4720POPC   C4B60370  36.387  27.495   7.364
 4721POPC   NC360371  24.498  41.527   5.564
 4721POPC   PO460372  24.477  41.594   5.864
 4721POPC   GL160373  24.534  41.521   6.164
 4721POPC   GL260374  24.414  41.568   6.164
 4721POPC   C1A60375  24.494  41.531   6.464
 4721POPC   D2A60376  24.467  41.542   6.764
 4721POPC   C3A60377  24.455  41.561   7.064
 4721POPC   C4A60378  24.467  41.542   7.364
 4721POPC   C1B60379  24.260  41.539   6.464
 4721POPC   C2B60380  24.217  41.562   6.764
 4721POPC   C3B60381  24.227  41.477   7.064
 4721POPC   C4B60382  24.278  41.497   7.364
 4722POPC   NC360383  24.509  17.478   5.564
 4722POPC   PO460384  24.516  17.511   5.864
 4722POPC   GL160385  24.512  17.482   6.164
 4722POPC   GL260386  24.337  17.428   6.164
 4722POPC   C1A60387  24.523  17.532   6.464
 4722POPC   D2A60388  24.493  17.502   6.764
 4722POPC   C3A60389  24.465  17.479   7.064
 4722POPC   C4A60390  24.464  17.552   7.364
 4722POPC   C1B60391  24.277  17.437   6.464
 4722POPC   C2B60392  24.301  17.428   6.764
 4722POPC   C3B60393  24.222  17.454   7.064
 4722POPC   C4B60394  24.259  17.421   7.364
 4723POPC   NC360395  33.042  18.282   5.564
 4723POPC   PO460396  33.031  18.267   5.864
 4723POPC   GL160397  33.071  18.324   6.164
 4723POPC   GL260398  33.030  18.383   6.164
 4723POPC   C1A60399  33.059  18.285   6.464
 4723POPC   D2A60400  33.037  18.297   6.764
 4723POPC   C3A60401  33.010  18.325   7.064
 4723POPC   C4A60402  33.014  18.239   7.364
 4723POPC   C1B60403  33.020  18.524   6.464
 4723POPC   C2B60404  32.979  18.518   6.764
 4723POPC   C3B60405  32.995  18.548   7.064
 4723POPC   C4B60406  32.971  18.573   7.364
 4724POPC   NC360407   4.299  22.177   5.564
 4724POPC   PO460408   4.343  22.156   5.864
 4724POPC   GL160409   4.329  22.169   6.164
 4724POPC   GL260410   4.320  22.003   6.164
 4724POPC   C1A60411   4.322  22.200   6.464
 4724POPC   D2A60412   4.347  22.182   6.764
 4724POPC   C3A60413   4.275  22.189   7.064
 4724POPC   C4A60414   4.302  22.131   7.364
 4724POPC   C1B60415   4.373  21.957   6.464
 4724POPC   C2B60416   4.446  21.962   6.764
 4724POPC   C3B60417   4.439  21.937   7.064
 4724POPC   C4B60418   4.462  21.963   7.364
 4725POPC   NC360419  20.595  24.447   5.564
 4725POPC   PO460420  20.574  24.496   5.864
 4725POPC   GL160421  20.624  24.508   6.164
 4725POPC   GL260422  20.576  24.348   6.164
 4725POPC   C1A60423  20.567  24.445   6.464
 4725POPC   D2A60424  20.595  24.470   6.764
 4725POPC   C3A60425  20.612  24.480   7.064
 4725POPC   C4A60426  20.577  24.495   7.364
 4725POPC   C1B60427  20.608  24.252   6.464
 4725POPC   C2B60428  20.610  24.272   6.764
 4725POPC   C3B60429  20.609  24.203   7.064
 4725POPC   C4B60430  20.665  24.261   7.364
 4726POPC   NC360431  13.666  39.272   5.564
 4726POPC   PO460432  13.587  39.264   5.864
 4726POPC   GL160433  13.678  39.203   6.164
 4726POPC   GL260434  13.728  39.245   6.164
 4726POPC   C1A60435  13.650  39.182   6.464
 4726POPC   D2A60436  13.629  39.245   6.764
 4726POPC   C3A60437  13.634  39.270   7.064
 4726POPC   C4A60438  13.623  39.260   7.364
 4726POPC   C1B60439  13.896  39.328   6.464
 4726POPC   C2B60440  13.819  39.387   6.764
 4726POPC   C3B60441  13.870  39.386   7.064
 4726POPC   C4B60442  13.814  39.296   7.364
 4727POPC   NC360443   9.751  13.675   5.564
 4727POPC   PO460444   9.702  13.634   5.864
 4727POPC   GL160445   9.706  13.620   6.164
 4727POPC   GL260446   9.869  13.747   6.164
 4727POPC   C1A60447   9.706  13.658   6.464
 4727POPC   D2A60448   9.750  13.630   6.764
 4727POPC   C3A60449   9.776  13.669   7.064
 4727POPC   C4A60450   9.719  13.590   7.364
 4727POPC   C1B60451   9.936  13.775   6.464
 4727POPC   C2B60452   9.946  13.759   6.764
 4727POPC   C3B60453   9.981  13.808   7.064
 4727POPC   C4B60454   9.942  13.773   7.364
 4728POPC   NC360455   5.092  22.165   5.564
 4728POPC   PO460456   5.129  22.175   5.864
 4728POPC   GL160457   5.062  22.154   6.164
 4728POPC   GL260458   5.205  22.266   6.164
 4728POPC   C1A60459   5.128  22.206   6.464
 4728POPC   D2A60460   5.044  22.129   6.764
 4728POPC   C3A60461   5.132  22.189   7.064
 4728POPC   C4A60462   5.113  22.157   7.364
 4728POPC   C1B60463   5.255  22.262   6.464
 4728POPC   C2B60464   5.289  22.274   6.764
 4728POPC   C3B60465   5.319  22.248   7.064
 4728POPC   C4B60466   5.336  22.320   7.364
 4729POPC   NC360467  43.145  41.602   5.564
 4729POPC   PO460468  43.118  41.587   5.864
 4729POPC   GL160469  43.146  41.604   6.164
 4729POPC   GL260470  43.065  41.650   6.164
 4729POPC   C1A60471  43.128  41.604   6.464
 4729POPC   D2A60472  43.140  41.534   6.764
 4729POPC   C3A60473  43.143  41.549   7.064
 4729POPC   C4A60474  43.158  41.591   7.364
 4729POPC   C1B60475  43.060  41.743   6.464
 4729POPC   C2B60476  43.049  41.818   6.764
 4729POPC   C3B60477  42.981  41.836   7.064
 4729POPC   C4B60478  43.037  41.778   7.364
 4730POPC   NC360479   2.722   8.221   5.564
 4730POPC   PO460480   2.749   8.245   5.864
 4730POPC   GL160481   2.747   8.206   6.164
 4730POPC   GL260482   2.836   8.142   6.164
 4730POPC   C1A60483   2.783   8.201   6.464
 4730POPC   D2A60484   2.787   8.175   6.764
 4730POPC   C3A60485   2.772   8.241   7.064
 4730POPC   C4A60486   2.736   8.190   7.364
 4730POPC   C1B60487   2.944   8.078   6.464
 4730POPC   C2B60488   2.999   8.037   6.764
 4730POPC   C3B60489   2.972   8.047   7.064
 4730POPC   C4B60490   2.991   8.076   7.364
 4731POPC   NC360491  28.380   7.465   5.564
 4731POPC   PO460492  28.418   7.429   5.864
 4731POPC   GL160493  28.379   7.395   6.164
 4731POPC   GL260494  28.465   7.337   6.164
 4731POPC   C1A60495  28.385   7.435   6.464
 4731POPC   D2A60496  28.344   7.435   6.764
 4731POPC   C3A60497  28.384   7.413   7.064
 4731POPC   C4A60498  28.322   7.445   7.364
 4731POPC   C1B60499  28.594   7.255   6.464
 4731POPC   C2B60500  28.607   7.271   6.764
 4731POPC   C3B60501  28.547   7.275   7.064
 4731POPC   C4B60502  28.542   7.258   7.364
 4732POPC   NC360503   7.377  38.483   5.564
 4732POPC   PO460504   7.469  38.492   5.864
 4732POPC   GL160505   7.433  38.406   6.164
 4732POPC   GL260506   7.284  38.495   6.164
 4732POPC   C1A60507   7.375  38.412   6.464
 4732POPC   D2A60508   7.466  38.417   6.764
 4732POPC   C3A60509   7.460  38.473   7.064
 4732POPC   C4A60510   7.455  38.439   7.364
 4732POPC   C1B60511   7.132  38.504   6.464
 4732POPC   C2B60512   7.131  38.501   6.764
 4732POPC   C3B60513   7.131  38.449   7.064
 4732POPC   C4B60514   7.208  38.476   7.364
 4733POPC   NC360515  12.033  15.966   5.564
 4733POPC   PO460516  12.086  15.910   5.864
 4733POPC   GL160517  12.062  15.936   6.164
 4733POPC   GL260518  12.121  15.834   6.164
 4733POPC   C1A60519  12.110  15.958   6.464
 4733POPC   D2A60520  12.034  15.939   6.764
 4733POPC   C3A60521  12.077  15.971   7.064
 4733POPC   C4A60522  12.115  15.995   7.364
 4733POPC   C1B60523  12.268  15.704   6.464
 4733POPC   C2B60524  12.235  15.801   6.764
 4733POPC   C3B60525  12.211  15.719   7.064
 4733POPC   C4B60526  12.200  15.787   7.364
 4734POPC   NC360527   3.499  26.052   5.564
 4734POPC   PO460528   3.558  26.061   5.864
 4734POPC   GL160529   3.506  26.088   6.164
 4734POPC   GL260530   3.533  25.956   6.164
 4734POPC   C1A60531   3.564  26.025   6.464
 4734POPC   D2A60532   3.516  26.084   6.764
 4734POPC   C3A60533   3.575  26.086   7.064
 4734POPC   C4A60534   3.584  26.079   7.364
 4734POPC   C1B60535   3.414  25.789   6.464
 4734POPC   C2B60536   3.400  25.785   6.764
 4734POPC   C3B60537   3.478  25.851   7.064
 4734POPC   C4B60538   3.464  25.847   7.364
 4735POPC   NC360539  43.125  10.560   5.564
 4735POPC   PO460540  43.119  10.564   5.864
 4735POPC   GL160541  43.136  10.508   6.164
 4735POPC   GL260542  43.277  10.486   6.164
 4735POPC   C1A60543  43.061  10.487   6.464
 4735POPC   D2A60544  43.064  10.526   6.764
 4735POPC   C3A60545  43.137  10.502   7.064
 4735POPC   C4A60546  43.108  10.483   7.364
 4735POPC   C1B60547  43.361  10.536   6.464
 4735POPC   C2B60548  43.400  10.580   6.764
 4735POPC   C3B60549  43.401  10.577   7.064
 4735POPC   C4B60550  43.339  10.596   7.364
 4736POPC   NC360551  14.443  19.038   5.564
 4736POPC   PO460552  14.439  19.076   5.864
 4736POPC   GL160553  14.397  19.010   6.164
 4736POPC   GL260554  14.545  19.065   6.164
 4736POPC   C1A60555  14.384  19.063   6.464
 4736POPC   D2A60556  14.387  19.071   6.764
 4736POPC   C3A60557  14.380  19.034   7.064
 4736POPC   C4A60558  14.443  19.060   7.364
 4736POPC   C1B60559  14.599  18.994   6.464
 4736POPC   C2B60560  14.613  19.025   6.764
 4736POPC   C3B60561  14.652  19.002   7.064
 4736POPC   C4B60562  14.659  18.975   7.364
 4737POPC   NC360563   4.316  32.232   5.564
 4737POPC   PO460564   4.360  32.264   5.864
 4737POPC   GL160565   4.271  32.277   6.164
 4737POPC   GL260566   4.366  32.103   6.164
 4737POPC   C1A60567   4.334  32.200   6.464
 4737POPC   D2A60568   4.357  32.241   6.764
 4737POPC   C3A60569   4.292  32.246   7.064
 4737POPC   C4A60570   4.283  32.214   7.364
 4737POPC   C1B60571   4.417  32.028   6.464
 4737POPC   C2B60572   4.408  31.991   6.764
 4737POPC   C3B60573   4.434  31.975   7.064
 4737POPC   C4B60574   4.376  31.995   7.364
 4738POPC   NC360575  29.925   2.753   5.564
 4738POPC   PO460576  29.967   2.747   5.864
 4738POPC   GL160577  29.928   2.761   6.164
 4738POPC   GL260578  29.970   2.657   6.164
 4738POPC   C1A60579  29.921   2.765   6.464
 4738POPC   D2A60580  29.959   2.727   6.764
 4738POPC   C3A60581  29.960   2.722   7.064
 4738POPC   C4A60582  29.933   2.751   7.364
 4738POPC   C1B60583  30.157   2.616   6.464
 4738POPC   C2B60584  30.072   2.593   6.764
 4738POPC   C3B60585  30.069   2.598   7.064
 4738POPC   C4B60586  30.087   2.660   7.364
 4739POPC   NC360587  19.048  25.272   5.564
 4739POPC   PO460588  19.055  25.236   5.864
 4739POPC   GL160589  19.034  25.270   6.164
 4739POPC   GL260590  19.132  25.253   6.164
 4739POPC   C1A60591  19.062  25.272   6.464
 4739POPC   D2A60592  19.062  25.278   6.764
 4739POPC   C3A60593  19.086  25.234   7.064
 4739POPC   C4A60594  19.100  25.246   7.364
 4739POPC   C1B60595  19.272  25.257   6.464
 4739POPC   C2B60596  19.314  25.330   6.764
 4739POPC   C3B60597  19.316  25.278   7.064
 4739POPC   C4B60598  19.314  25.312   7.364
 4740POPC   NC360599  39.212  40.791   5.564
 4740POPC   PO460600  39.244  40.764   5.864
 4740POPC   GL160601  39.230  40.779   6.164
 4740POPC   GL260602  39.145  40.764   6.164
 4740POPC   C1A60603  39.225  40.738   6.464
 4740POPC   D2A60604  39.240  40.761   6.764
 4740POPC   C3A60605  39.240  40.817   7.064
 4740POPC   C4A60606  39.209  40.748   7.364
 4740POPC   C1B60607  39.058  40.634   6.464
 4740POPC   C2B60608  39.007  40.650   6.764
 4740POPC   C3B60609  39.053  40.682   7.064
 4740POPC   C4B60610  39.054  40.675   7.364
 4741POPC   NC360611  28.416   4.317   5.564
 4741POPC   PO460612  28.368   4.301   5.864
 4741POPC   GL160613  28.385   4.356   6.164
 4741POPC   GL260614  28.481   4.402   6.164
 4741POPC   C1A60615  28.373   4.313   6.464
 4741POPC   D2A60616  28.407   4.312   6.764
 4741POPC   C3A60617  28.400   4.319   7.064
 4741POPC   C4A60618  28.339   4.283   7.364
 4741POPC   C1B60619  28.529   4.479   6.464
 4741POPC   C2B60620  28.473   4.506   6.764
 4741POPC   C3B60621  28.563   4.562   7.064
 4741POPC   C4B60622  28.513   4.551   7.364
 4742POPC   NC360623  17.502  44.670   5.564
 4742POPC   PO460624  17.485  44.657   5.864
 4742POPC   GL160625  17.457  44.710   6.164
 4742POPC   GL260626  17.458  44.496   6.164
 4742POPC   C1A60627  17.517  44.616   6.464
 4742POPC   D2A60628  17.471  44.651   6.764
 4742POPC   C3A60629  17.478  44.697   7.064
 4742POPC   C4A60630  17.515  44.613   7.364
 4742POPC   C1B60631  17.468  44.434   6.464
 4742POPC   C2B60632  17.406  44.413   6.764
 4742POPC   C3B60633  17.397  44.417   7.064
 4742POPC   C4B60634  17.416  44.464   7.364
 4743POPC   NC360635  24.516  43.936   5.564
 4743POPC   PO460636  24.515  43.842   5.864
 4743POPC   GL160637  24.490  43.924   6.164
 4743POPC   GL260638  24.373  43.909   6.164
 4743POPC   C1A60639  24.536  43.896   6.464
 4743POPC   D2A60640  24.471  43.879   6.764
 4743POPC   C3A60641  24.500  43.917   7.064
 4743POPC   C4A60642  24.485  43.868   7.364
 4743POPC   C1B60643  24.237  43.900   6.464
 4743POPC   C2B60644  24.231  43.912   6.764
 4743POPC   C3B60645  24.203  43.924   7.064
 4743POPC   C4B60646  24.257  43.899   7.364
 4744POPC   NC360647  29.149  32.267   5.564
 4744POPC   PO460648  29.168  32.278   5.864
 4744POPC   GL160649  29.162  32.202   6.164
 4744POPC   GL260650  29.274  32.193   6.164
 4744POPC   C1A60651  29.125  32.246   6.464
 4744POPC   D2A60652  29.101  32.274   6.764
 4744POPC   C3A60653  29.155  32.205   7.064
 4744POPC   C4A60654  29.162  32.270   7.364
 4744POPC   C1B60655  29.347  32.215   6.464
 4744POPC   C2B60656  29.422  32.205   6.764
 4744POPC   C3B60657  29.392  32.252   7.064
 4744POPC   C4B60658  29.387  32.225   7.364
 4745POPC   NC360659  35.360  36.089   5.564
 4745POPC   PO460660  35.363  36.109   5.864
 4745POPC   GL160661  35.340  36.106   6.164
 4745POPC   GL260662  35.358  35.973   6.164
 4745POPC   C1A60663  35.312  36.168   6.464
 4745POPC   D2A60664  35.325  36.174   6.764
 4745POPC   C3A60665  35.359  36.153   7.064
 4745POPC   C4A60666  35.387  36.096   7.364
 4745POPC   C1B60667  35.369  35.832   6.464
 4745POPC   C2B60668  35.371  35.840   6.764
 4745POPC   C3B60669  35.378  35.894   7.064
 4745POPC   C4B60670  35.378  35.895   7.364
 4746POPC   NC360671  44.619  39.243   5.564
 4746POPC   PO460672  44.679  39.266   5.864
 4746POPC   GL160673  44.623  39.263   6.164
 4746POPC   GL260674  44.528  39.272   6.164
 4746POPC   C1A60675  44.647  39.237   6.464
 4746POPC   D2A60676  44.680  39.272   6.764
 4746POPC   C3A60677  44.671  39.195   7.064
 4746POPC   C4A60678  44.626  39.224   7.364
 4746POPC   C1B60679  44.490  39.383   6.464
 4746POPC   C2B60680  44.493  39.426   6.764
 4746POPC   C3B60681  44.441  39.413   7.064
 4746POPC   C4B60682  44.441  39.385   7.364
 4747POPC   NC360683  21.381  30.647   5.564
 4747POPC   PO460684  21.383  30.740   5.864
 4747POPC   GL160685  21.386  30.662   6.164
 4747POPC   GL260686  21.300  30.578   6.164
 4747POPC   C1A60687  21.363  30.705   6.464
 4747POPC   D2A60688  21.387  30.712   6.764
 4747POPC   C3A60689  21.394  30.667   7.064
 4747POPC   C4A60690  21.422  30.676   7.364
 4747POPC   C1B60691  21.175  30.553   6.464
 4747POPC   C2B60692  21.235  30.579   6.764
 4747POPC   C3B60693  21.138  30.512   7.064
 4747POPC   C4B60694  21.215  30.573   7.364
 4748POPC   NC360695  17.472  39.193   5.564
 4748POPC   PO460696  17.468  39.181   5.864
 4748POPC   GL160697  17.540  39.202   6.164
 4748POPC   GL260698  17.504  39.133   6.164
 4748POPC   C1A60699  17.492  39.202   6.464
 4748POPC   D2A60700  17.539  39.280   6.764
 4748POPC   C3A60701  17.493  39.251   7.064
 4748POPC   C4A60702  17.519  39.238   7.364
 4748POPC   C1B60703  17.448  38.937   6.464
 4748POPC   C2B60704  17.483  39.026   6.764
 4748POPC   C3B60705  17.431  38.967   7.064
 4748POPC   C4B60706  17.431  38.958   7.364
 4749POPC   NC360707  35.371  42.349   5.564
 4749POPC   PO460708  35.371  42.332   5.864
 4749POPC   GL160709  35.376  42.346   6.164
 4749POPC   GL260710  35.193  42.383   6.164
 4749POPC   C1A60711  35.379  42.354   6.464
 4749POPC   D2A60712  35.308  42.302   6.764
 4749POPC   C3A60713  35.393  42.378   7.064
 4749POPC   C4A60714  35.379  42.378   7.364
 4749POPC   C1B60715  35.114  42.442   6.464
 4749POPC   C2B60716  35.126  42.418   6.764
 4749POPC   C3B60717  35.081  42.421   7.064
 4749POPC   C4B60718  35.165  42.403   7.364
 4750POPC   NC360719  40.808  19.882   5.564
 4750POPC   PO460720  40.804  19.842   5.864
 4750POPC   GL160721  40.742  19.830   6.164
 4750POPC   GL260722  40.900  19.820   6.164
 4750POPC   C1A60723  40.827  19.841   6.464
 4750POPC   D2A60724  40.773  19.873   6.764
 4750POPC   C3A60725  40.757  19.868   7.064
 4750POPC   C4A60726  40.763  19.823   7.364
 4750POPC   C1B60727  40.983  19.715   6.464
 4750POPC   C2B60728  41.024  19.687   6.764
 4750POPC   C3B60729  41.017  19.721   7.064
 4750POPC   C4B60730  40.997  19.686   7.364
 4751POPC   NC360731   3.582   4.307   5.564
 4751POPC   PO460732   3.527   4.291   5.864
 4751POPC   GL160733   3.515   4.270   6.164
 4751POPC   GL260734   3.535   4.463   6.164
 4751POPC   C1A60735   3.525   4.363   6.464
 4751POPC   D2A60736   3.577   4.339   6.764
 4751POPC   C3A60737   3.494   4.349   7.064
 4751POPC   C4A60738   3.521   4.358   7.364
 4751POPC   C1B60739   3.626   4.546   6.464
 4751POPC   C2B60740   3.586   4.548   6.764
 4751POPC   C3B60741   3.599   4.531   7.064
 4751POPC   C4B60742   3.583   4.610   7.364
 4752POPC   NC360743  33.791   7.405   5.564
 4752POPC   PO460744  33.845   7.466   5.864
 4752POPC   GL160745  33.783   7.378   6.164
 4752POPC   GL260746  33.737   7.348   6.164
 4752POPC   C1A60747  33.763   7.468   6.464
 4752POPC   D2A60748  33.825   7.451   6.764
 4752POPC   C3A60749  33.804   7.412   7.064
 4752POPC   C4A60750  33.824   7.406   7.364
 4752POPC   C1B60751  33.695   7.164   6.464
 4752POPC   C2B60752  33.710   7.167   6.764
 4752POPC   C3B60753  33.705   7.205   7.064
 4752POPC   C4B60754  33.686   7.178   7.364
 4753POPC   NC360755  20.583  27.590   5.564
 4753POPC   PO460756  20.658  27.562   5.864
 4753POPC   GL160757  20.648  27.622   6.164
 4753POPC   GL260758  20.548  27.661   6.164
 4753POPC   C1A60759  20.581  27.603   6.464
 4753POPC   D2A60760  20.566  27.550   6.764
 4753POPC   C3A60761  20.574  27.545   7.064
 4753POPC   C4A60762  20.615  27.569   7.364
 4753POPC   C1B60763  20.476  27.826   6.464
 4753POPC   C2B60764  20.542  27.830   6.764
 4753POPC   C3B60765  20.484  27.784   7.064
 4753POPC   C4B60766  20.520  27.807   7.364
 4754POPC   NC360767  14.365  10.515   5.564
 4754POPC   PO460768  14.434  10.542   5.864
 4754POPC   GL160769  14.373  10.520   6.164
 4754POPC   GL260770  14.531  10.521   6.164
 4754POPC   C1A60771  14.394  10.560   6.464
 4754POPC   D2A60772  14.365  10.516   6.764
 4754POPC   C3A60773  14.434  10.534   7.064
 4754POPC   C4A60774  14.427  10.500   7.364
 4754POPC   C1B60775  14.626  10.487   6.464
 4754POPC   C2B60776  14.651  10.538   6.764
 4754POPC   C3B60777  14.646  10.501   7.064
 4754POPC   C4B60778  14.638  10.489   7.364
 4755POPC   NC360779  20.654   4.272   5.564
 4755POPC   PO460780  20.572   4.352   5.864
 4755POPC   GL160781  20.603   4.335   6.164
 4755POPC   GL260782  20.705   4.449   6.164
 4755POPC   C1A60783  20.651   4.351   6.464
 4755POPC   D2A60784  20.602   4.337   6.764
 4755POPC   C3A60785  20.564   4.332   7.064
 4755POPC   C4A60786  20.567   4.322   7.364
 4755POPC   C1B60787  20.745   4.579   6.464
 4755POPC   C2B60788  20.720   4.534   6.764
 4755POPC   C3B60789  20.755   4.554   7.064
 4755POPC   C4B60790  20.746   4.504   7.364
 4756POPC   NC360791  33.785  16.701   5.564
 4756POPC   PO460792  33.828  16.681   5.864
 4756POPC   GL160793  33.794  16.703   6.164
 4756POPC   GL260794  33.927  16.771   6.164
 4756POPC   C1A60795  33.803  16.738   6.464
 4756POPC   D2A60796  33.839  16.737   6.764
 4756POPC   C3A60797  33.767  16.722   7.064
 4756POPC   C4A60798  33.787  16.713   7.364
 4756POPC   C1B60799  33.982  16.883   6.464
 4756POPC   C2B60800  34.000  16.880   6.764
 4756POPC   C3B60801  33.973  16.894   7.064
 4756POPC   C4B60802  33.980  16.887   7.364
 4757POPC   NC360803   1.995  22.201   5.564
 4757POPC   PO460804   1.992  22.168   5.864
 4757POPC   GL160805   2.018  22.113   6.164
 4757POPC   GL260806   1.964  22.011   6.164
 4757POPC   C1A60807   2.019  22.134   6.464
 4757POPC   D2A60808   2.038  22.192   6.764
 4757POPC   C3A60809   1.962  22.123   7.064
 4757POPC   C4A60810   1.956  22.142   7.364
 4757POPC   C1B60811   2.010  21.905   6.464
 4757POPC   C2B60812   2.045  21.913   6.764
 4757POPC   C3B60813   1.990  21.920   7.064
 4757POPC   C4B60814   1.997  21.954   7.364
 4758POPC   NC360815  20.633  23.741   5.564
 4758POPC   PO460816  20.652  23.687   5.864
 4758POPC   GL160817  20.585  23.703   6.164
 4758POPC   GL260818  20.769  23.727   6.164
 4758POPC   C1A60819  20.652  23.713   6.464
 4758POPC   D2A60820  20.586  23.733   6.764
 4758POPC   C3A60821  20.580  23.736   7.064
 4758POPC   C4A60822  20.656  23.763   7.364
 4758POPC   C1B60823  20.828  23.662   6.464
 4758POPC   C2B60824  20.878  23.682   6.764
 4758POPC   C3B60825  20.896  23.676   7.064
 4758POPC   C4B60826  20.830  23.746   7.364
 4759POPC   NC360827  33.006   5.075   5.564
 4759POPC   PO460828  33.038   5.128   5.864
 4759POPC   GL160829  33.000   5.142   6.164
 4759POPC   GL260830  33.086   5.025   6.164
 4759POPC   C1A60831  33.013   5.066   6.464
 4759POPC   D2A60832  33.060   5.047   6.764
 4759POPC   C3A60833  33.028   5.138   7.064
 4759POPC   C4A60834  33.017   5.130   7.364
 4759POPC   C1B60835  33.183   4.907   6.464
 4759POPC   C2B60836  33.236   4.931   6.764
 4759POPC   C3B60837  33.258   4.917   7.064
 4759POPC   C4B60838  33.226   4.936   7.364
 4760POPC   NC360839  10.479  22.155   5.564
 4760POPC   PO460840  10.526  22.142   5.864
 4760POPC   GL160841  10.509  22.162   6.164
 4760POPC   GL260842  10.444  22.242   6.164
 4760POPC   C1A60843  10.553  22.207   6.464
 4760POPC   D2A60844  10.513  22.156   6.764
 4760POPC   C3A60845  10.528  22.206   7.064
 4760POPC   C4A60846  10.485  22.177   7.364
 4760POPC   C1B60847  10.293  22.338   6.464
 4760POPC   C2B60848  10.293  22.335   6.764
 4760POPC   C3B60849  10.322  22.318   7.064
 4760POPC   C4B60850  10.388  22.365   7.364
 4761POPC   NC360851  44.648  15.203   5.564
 4761POPC   PO460852  44.679  15.201   5.864
 4761POPC   GL160853  44.633  15.200   6.164
 4761POPC   GL260854  44.713  15.335   6.164
 4761POPC   C1A60855  44.685  15.174   6.464
 4761POPC   D2A60856  44.650  15.132   6.764
 4761POPC   C3A60857  44.651  15.179   7.064
 4761POPC   C4A60858  44.660  15.187   7.364
 4761POPC   C1B60859  44.707  15.456   6.464
 4761POPC   C2B60860  44.669  15.419   6.764
 4761POPC   C3B60861  44.708  15.389   7.064
 4761POPC   C4B60862  44.699  15.387   7.364
 4762POPC   NC360863  43.891   7.429   5.564
 4762POPC   PO460864  43.906   7.380   5.864
 4762POPC   GL160865  43.853   7.458   6.164
 4762POPC   GL260866  43.810   7.404   6.164
 4762POPC   C1A60867  43.885   7.379   6.464
 4762POPC   D2A60868  43.867   7.395   6.764
 4762POPC   C3A60869  43.862   7.384   7.064
 4762POPC   C4A60870  43.928   7.443   7.364
 4762POPC   C1B60871  43.643   7.306   6.464
 4762POPC   C2B60872  43.674   7.362   6.764
 4762POPC   C3B60873  43.647   7.345   7.064
 4762POPC   C4B60874  43.640   7.387   7.364
 4763POPC   NC360875  34.566  37.710   5.564
 4763POPC   PO460876  34.596  37.631   5.864
 4763POPC   GL160877  34.598  37.678   6.164
 4763POPC   GL260878  34.457  37.605   6.164
 4763POPC   C1A60879  34.579  37.652   6.464
 4763POPC   D2A60880  34.564  37.708   6.764
 4763POPC   C3A60881  34.562  37.660   7.064
 4763POPC   C4A60882  34.584  37.718   7.364
 4763POPC   C1B60883  34.393  37.469   6.464
 4763POPC   C2B60884  34.436  37.456   6.764
 4763POPC   C3B60885  34.449  37.478   7.064
 4763POPC   C4B60886  34.396  37.453   7.364
 4764POPC   NC360887  36.938   1.193   5.564
 4764POPC   PO460888  36.930   1.263   5.864
 4764POPC   GL160889  36.950   1.260   6.164
 4764POPC   GL260890  36.937   1.118   6.164
 4764POPC   C1A60891  36.929   1.194   6.464
 4764POPC   D2A60892  36.896   1.191   6.764
 4764POPC   C3A60893  36.862   1.201   7.064
 4764POPC   C4A60894  36.926   1.234   7.364
 4764POPC   C1B60895  37.035   0.975   6.464
 4764POPC   C2B60896  37.035   1.005   6.764
 4764POPC   C3B60897  37.014   0.981   7.064
 4764POPC   C4B60898  37.098   1.016   7.364
 4765POPC   NC360899  42.325  33.024   5.564
 4765POPC   PO460900  42.379  33.071   5.864
 4765POPC   GL160901  42.384  33.047   6.164
 4765POPC   GL260902  42.398  32.920   6.164
 4765POPC   C1A60903  42.324  32.999   6.464
 4765POPC   D2A60904  42.325  33.071   6.764
 4765POPC   C3A60905  42.369  33.023   7.064
 4765POPC   C4A60906  42.358  32.985   7.364
 4765POPC   C1B60907  42.428  32.753   6.464
 4765POPC   C2B60908  42.411  32.821   6.764
 4765POPC   C3B60909  42.409  32.803   7.064
 4765POPC   C4B60910  42.347  32.799   7.364
 4766POPC   NC360911  30.706  37.635   5.564
 4766POPC   PO460912  30.680  37.697   5.864
 4766POPC   GL160913  30.726  37.674   6.164
 4766POPC   GL260914  30.707  37.818   6.164
 4766POPC   C1A60915  30.697  37.716   6.464
 4766POPC   D2A60916  30.674  37.647   6.764
 4766POPC   C3A60917  30.732  37.663   7.064
 4766POPC   C4A60918  30.679  37.691   7.364
 4766POPC   C1B60919  30.763  37.958   6.464
 4766POPC   C2B60920  30.758  37.925   6.764
 4766POPC   C3B60921  30.694  37.957   7.064
 4766POPC   C4B60922  30.772  37.976   7.364
 4767POPC   NC360923  39.997   5.065   5.564
 4767POPC   PO460924  39.965   5.121   5.864
 4767POPC   GL160925  39.983   5.112   6.164
 4767POPC   GL260926  40.078   5.046   6.164
 4767POPC   C1A60927  40.036   5.137   6.464
 4767POPC   D2A60928  39.962   5.064   6.764
 4767POPC   C3A60929  40.009   5.128   7.064
 4767POPC   C4A60930  40.017   5.055   7.364
 4767POPC   C1B60931  40.212   4.978   6.464
 4767POPC   C2B60932  40.172   4.992   6.764
 4767POPC   C3B60933  40.253   4.922   7.064
 4767POPC   C4B60934  40.206   4.999   7.364
 4768POPC   NC360935  44.685  29.934   5.564
 4768POPC   PO460936  44.626  29.887   5.864
 4768POPC   GL160937  44.676  29.957   6.164
 4768POPC   GL260938  44.755  30.029   6.164
 4768POPC   C1A60939  44.654  29.927   6.464
 4768POPC   D2A60940  44.616  29.903   6.764
 4768POPC   C3A60941  44.633  29.953   7.064
 4768POPC   C4A60942  44.672  29.964   7.364
 4768POPC   C1B60943  44.838  30.147   6.464
 4768POPC   C2B60944  44.832  30.097   6.764
 4768POPC   C3B60945  44.810  30.093   7.064
 4768POPC   C4B60946  44.830  30.159   7.364
 4769POPC   NC360947  19.854   5.874   5.564
 4769POPC   PO460948  19.801   5.903   5.864
 4769POPC   GL160949  19.812   5.895   6.164
 4769POPC   GL260950  19.772   6.010   6.164
 4769POPC   C1A60951  19.832   5.894   6.464
 4769POPC   D2A60952  19.785   5.833   6.764
 4769POPC   C3A60953  19.883   5.904   7.064
 4769POPC   C4A60954  19.857   5.891   7.364
 4769POPC   C1B60955  19.761   6.086   6.464
 4769POPC   C2B60956  19.731   6.074   6.764
 4769POPC   C3B60957  19.731   6.116   7.064
 4769POPC   C4B60958  19.763   6.122   7.364
 4770POPC   NC360959  24.450  20.653   5.564
 4770POPC   PO460960  24.482  20.603   5.864
 4770POPC   GL160961  24.507  20.562   6.164
 4770POPC   GL260962  24.577  20.514   6.164
 4770POPC   C1A60963  24.447  20.582   6.464
 4770POPC   D2A60964  24.484  20.659   6.764
 4770POPC   C3A60965  24.527  20.609   7.064
 4770POPC   C4A60966  24.528  20.591   7.364
 4770POPC   C1B60967  24.709  20.503   6.464
 4770POPC   C2B60968  24.726  20.433   6.764
 4770POPC   C3B60969  24.647  20.449   7.064
 4770POPC   C4B60970  24.686  20.463   7.364
 4771POPC   NC360971  18.239  39.243   5.564
 4771POPC   PO460972  18.270  39.185   5.864
 4771POPC   GL160973  18.329  39.260   6.164
 4771POPC   GL260974  18.407  39.137   6.164
 4771POPC   C1A60975  18.303  39.215   6.464
 4771POPC   D2A60976  18.307  39.185   6.764
 4771POPC   C3A60977  18.312  39.226   7.064
 4771POPC   C4A60978  18.246  39.256   7.364
 4771POPC   C1B60979  18.459  39.096   6.464
 4771POPC   C2B60980  18.513  39.043   6.764
 4771POPC   C3B60981  18.512  39.094   7.064
 4771POPC   C4B60982  18.516  39.091   7.364
 4772POPC   NC360983  36.128  21.344   5.564
 4772POPC   PO460984  36.146  21.417   5.864
 4772POPC   GL160985  36.087  21.427   6.164
 4772POPC   GL260986  36.282  21.341   6.164
 4772POPC   C1A60987  36.140  21.391   6.464
 4772POPC   D2A60988  36.141  21.338   6.764
 4772POPC   C3A60989  36.134  21.414   7.064
 4772POPC   C4A60990  36.167  21.416   7.364
 4772POPC   C1B60991  36.414  21.362   6.464
 4772POPC   C2B60992  36.403  21.444   6.764
 4772POPC   C3B60993  36.332  21.412   7.064
 4772POPC   C4B60994  36.399  21.359   7.364
 4773POPC   NC360995   4.302  26.035   5.564
 4773POPC   PO460996   4.334  26.065   5.864
 4773POPC   GL160997   4.292  26.016   6.164
 4773POPC   GL260998   4.405  25.914   6.164
 4773POPC   C1A60999   4.300  26.061   6.464
 4773POPC   D2A61000   4.296  26.075   6.764
 4773POPC   C3A61001   4.315  26.080   7.064
 4773POPC   C4A61002   4.290  26.029   7.364
 4773POPC   C1B61003   4.397  25.769   6.464
 4773POPC   C2B61004   4.415  25.775   6.764
 4773POPC   C3B61005   4.423  25.761   7.064
 4773POPC   C4B61006   4.455  25.856   7.364
 4774POPC   NC361007  23.712  19.029   5.564
 4774POPC   PO461008  23.745  19.075   5.864
 4774POPC   GL161009  23.701  19.021   6.164
 4774POPC   GL261010  23.796  18.951   6.164
 4774POPC   C1A61011  23.749  19.028   6.464
 4774POPC   D2A61012  23.699  19.019   6.764
 4774POPC   C3A61013  23.736  19.009   7.064
 4774POPC   C4A61014  23.667  19.043   7.364
 4774POPC   C1B61015  23.908  18.929   6.464
 4774POPC   C2B61016  23.889  18.852   6.764
 4774POPC   C3B61017  23.852  18.915   7.064
 4774POPC   C4B61018  23.902  18.857   7.364
 4775POPC   NC361019   2.721   2.811   5.564
 4775POPC   PO461020   2.768   2.788   5.864
 4775POPC   GL161021   2.774   2.744   6.164
 4775POPC   GL261022   2.680   2.763   6.164
 4775POPC   C1A61023   2.795   2.788   6.464
 4775POPC   D2A61024   2.775   2.815   6.764
 4775POPC   C3A61025   2.757   2.760   7.064
 4775POPC   C4A61026   2.807   2.759   7.364
 4775POPC   C1B61027   2.478   2.696   6.464
 4775POPC   C2B61028   2.470   2.772   6.764
 4775POPC   C3B61029   2.521   2.690   7.064
 4775POPC   C4B61030   2.475   2.708   7.364
 4776POPC   NC361031  12.805  23.762   5.564
 4776POPC   PO461032  12.825  23.684   5.864
 4776POPC   GL161033  12.829  23.668   6.164
 4776POPC   GL261034  12.692  23.651   6.164
 4776POPC   C1A61035  12.846  23.709   6.464
 4776POPC   D2A61036  12.884  23.678   6.764
 4776POPC   C3A61037  12.878  23.677   7.064
 4776POPC   C4A61038  12.809  23.723   7.364
 4776POPC   C1B61039  12.628  23.590   6.464
 4776POPC   C2B61040  12.603  23.597   6.764
 4776POPC   C3B61041  12.643  23.681   7.064
 4776POPC   C4B61042  12.639  23.606   7.364
 4777POPC   NC361043   9.700  41.532   5.564
 4777POPC   PO461044   9.793  41.578   5.864
 4777POPC   GL161045   9.791  41.570   6.164
 4777POPC   GL261046   9.724  41.664   6.164
 4777POPC   C1A61047   9.733  41.544   6.464
 4777POPC   D2A61048   9.751  41.574   6.764
 4777POPC   C3A61049   9.739  41.545   7.064
 4777POPC   C4A61050   9.745  41.574   7.364
 4777POPC   C1B61051   9.561  41.764   6.464
 4777POPC   C2B61052   9.644  41.763   6.764
 4777POPC   C3B61053   9.573  41.740   7.064
 4777POPC   C4B61054   9.646  41.777   7.364
 4778POPC   NC361055   1.941  35.333   5.564
 4778POPC   PO461056   1.977  35.322   5.864
 4778POPC   GL161057   2.030  35.312   6.164
 4778POPC   GL261058   2.113  35.336   6.164
 4778POPC   C1A61059   1.944  35.305   6.464
 4778POPC   D2A61060   1.987  35.389   6.764
 4778POPC   C3A61061   1.973  35.316   7.064
 4778POPC   C4A61062   2.038  35.384   7.364
 4778POPC   C1B61063   2.203  35.238   6.464
 4778POPC   C2B61064   2.197  35.257   6.764
 4778POPC   C3B61065   2.230  35.223   7.064
 4778POPC   C4B61066   2.245  35.252   7.364
 4779POPC   NC361067  39.984  29.878   5.564
 4779POPC   PO461068  39.961  29.891   5.864
 4779POPC   GL161069  39.962  29.964   6.164
 4779POPC   GL261070  39.942  29.800   6.164
 4779POPC   C1A61071  40.042  29.959   6.464
 4779POPC   D2A61072  39.985  29.923   6.764
 4779POPC   C3A61073  40.004  29.891   7.064
 4779POPC   C4A61074  40.039  29.953   7.364
 4779POPC   C1B61075  39.865  29.716   6.464
 4779POPC   C2B61076  39.891  29.682   6.764
 4779POPC   C3B61077  39.869  29.748   7.064
 4779POPC   C4B61078  39.856  29.740   7.364
 4780POPC   NC361079  31.476  26.082   5.564
 4780POPC   PO461080  31.482  26.026   5.864
 4780POPC   GL161081  31.461  26.005   6.164
 4780POPC   GL261082  31.396  26.024   6.164
 4780POPC   C1A61083  31.496  26.040   6.464
 4780POPC   D2A61084  31.506  26.052   6.764
 4780POPC   C3A61085  31.497  26.062   7.064
 4780POPC   C4A61086  31.504  26.031   7.364
 4780POPC   C1B61087  31.261  25.883   6.464
 4780POPC   C2B61088  31.277  25.953   6.764
 4780POPC   C3B61089  31.283  25.890   7.064
 4780POPC   C4B61090  31.231  25.914   7.364
 4781POPC   NC361091  20.623  12.046   5.564
 4781POPC   PO461092  20.590  12.097   5.864
 4781POPC   GL161093  20.578  12.065   6.164
 4781POPC   GL261094  20.545  11.954   6.164
 4781POPC   C1A61095  20.573  12.033   6.464
 4781POPC   D2A61096  20.614  12.077   6.764
 4781POPC   C3A61097  20.655  12.044   7.064
 4781POPC   C4A61098  20.635  12.088   7.364
 4781POPC   C1B61099  20.447  11.894   6.464
 4781POPC   C2B61100  20.444  11.939   6.764
 4781POPC   C3B61101  20.490  11.891   7.064
 4781POPC   C4B61102  20.469  11.929   7.364
 4782POPC   NC361103  16.778  30.702   5.564
 4782POPC   PO461104  16.744  30.663   5.864
 4782POPC   GL161105  16.779  30.714   6.164
 4782POPC   GL261106  16.646  30.567   6.164
 4782POPC   C1A61107  16.705  30.698   6.464
 4782POPC   D2A61108  16.715  30.670   6.764
 4782POPC   C3A61109  16.686  30.718   7.064
 4782POPC   C4A61110  16.732  30.717   7.364
 4782POPC   C1B61111  16.626  30.486   6.464
 4782POPC   C2B61112  16.591  30.480   6.764
 4782POPC   C3B61113  16.593  30.496   7.064
 4782POPC   C4B61114  16.656  30.440   7.364
 4783POPC   NC361115   1.196   8.993   5.564
 4783POPC   PO461116   1.212   8.995   5.864
 4783POPC   GL161117   1.218   8.997   6.164
 4783POPC   GL261118   1.297   8.835   6.164
 4783POPC   C1A61119   1.257   8.967   6.464
 4783POPC   D2A61120   1.180   8.972   6.764
 4783POPC   C3A61121   1.165   8.973   7.064
 4783POPC   C4A61122   1.193   9.006   7.364
 4783POPC   C1B61123   1.371   8.739   6.464
 4783POPC   C2B61124   1.390   8.806   6.764
 4783POPC   C3B61125   1.423   8.732   7.064
 4783POPC   C4B61126   1.361   8.793   7.364
 4784POPC   NC361127   0.393   1.241   5.564
 4784POPC   PO461128   0.461   1.206   5.864
 4784POPC   GL161129   0.456   1.197   6.164
 4784POPC   GL261130   0.454   1.368   6.164
 4784POPC   C1A61131   0.471   1.198   6.464
 4784POPC   D2A61132   0.487   1.164   6.764
 4784POPC   C3A61133   0.433   1.170   7.064
 4784POPC   C4A61134   0.457   1.240   7.364
 4784POPC   C1B61135   0.544   1.438   6.464
 4784POPC   C2B61136   0.561   1.443   6.764
 4784POPC   C3B61137   0.541   1.460   7.064
 4784POPC   C4B61138   0.517   1.420   7.364
 4785POPC   NC361139  39.203  33.026   5.564
 4785POPC   PO461140  39.260  33.038   5.864
 4785POPC   GL161141  39.244  33.043   6.164
 4785POPC   GL261142  39.253  32.968   6.164
 4785POPC   C1A61143  39.185  33.026   6.464
 4785POPC   D2A61144  39.279  33.073   6.764
 4785POPC   C3A61145  39.188  32.978   7.064
 4785POPC   C4A61146  39.238  33.029   7.364
 4785POPC   C1B61147  39.388  32.839   6.464
 4785POPC   C2B61148  39.401  32.778   6.764
 4785POPC   C3B61149  39.362  32.837   7.064
 4785POPC   C4B61150  39.363  32.810   7.364
 4786POPC   NC361151  14.382  35.375   5.564
 4786POPC   PO461152  14.399  35.364   5.864
 4786POPC   GL161153  14.407  35.377   6.164
 4786POPC   GL261154  14.438  35.521   6.164
 4786POPC   C1A61155  14.363  35.387   6.464
 4786POPC   D2A61156  14.371  35.329   6.764
 4786POPC   C3A61157  14.362  35.341   7.064
 4786POPC   C4A61158  14.392  35.391   7.364
 4786POPC   C1B61159  14.422  35.571   6.464
 4786POPC   C2B61160  14.436  35.646   6.764
 4786POPC   C3B61161  14.386  35.579   7.064
 4786POPC   C4B61162  14.371  35.602   7.364
 4787POPC   NC361163   3.540  43.927   5.564
 4787POPC   PO461164   3.493  43.922   5.864
 4787POPC   GL161165   3.529  43.869   6.164
 4787POPC   GL261166   3.396  43.889   6.164
 4787POPC   C1A61167   3.547  43.912   6.464
 4787POPC   D2A61168   3.532  43.886   6.764
 4787POPC   C3A61169   3.541  43.918   7.064
 4787POPC   C4A61170   3.511  43.884   7.364
 4787POPC   C1B61171   3.280  43.874   6.464
 4787POPC   C2B61172   3.327  43.858   6.764
 4787POPC   C3B61173   3.290  43.934   7.064
 4787POPC   C4B61174   3.293  43.899   7.364
 4788POPC   NC361175  21.384  43.869   5.564
 4788POPC   PO461176  21.374  43.899   5.864
 4788POPC   GL161177  21.426  43.889   6.164
 4788POPC   GL261178  21.502  43.911   6.164
 4788POPC   C1A61179  21.357  43.926   6.464
 4788POPC   D2A61180  21.357  43.837   6.764
 4788POPC   C3A61181  21.427  43.917   7.064
 4788POPC   C4A61182  21.339  43.897   7.364
 4788POPC   C1B61183  21.612  43.823   6.464
 4788POPC   C2B61184  21.588  43.802   6.764
 4788POPC   C3B61185  21.668  43.855   7.064
 4788POPC   C4B61186  21.627  43.815   7.364
 4789POPC   NC361187  40.826  12.067   5.564
 4789POPC   PO461188  40.829  12.124   5.864
 4789POPC   GL161189  40.768  12.092   6.164
 4789POPC   GL261190  40.731  12.155   6.164
 4789POPC   C1A61191  40.808  12.102   6.464
 4789POPC   D2A61192  40.741  12.088   6.764
 4789POPC   C3A61193  40.751  12.033   7.064
 4789POPC   C4A61194  40.803  12.074   7.364
 4789POPC   C1B61195  40.610  12.261   6.464
 4789POPC   C2B61196  40.608  12.268   6.764
 4789POPC   C3B61197  40.645  12.215   7.064
 4789POPC   C4B61198  40.599  12.241   7.364
 4790POPC   NC361199  29.135  27.641   5.564
 4790POPC   PO461200  29.176  27.580   5.864
 4790POPC   GL161201  29.108  27.600   6.164
 4790POPC   GL261202  29.076  27.718   6.164
 4790POPC   C1A61203  29.119  27.612   6.464
 4790POPC   D2A61204  29.102  27.556   6.764
 4790POPC   C3A61205  29.128  27.613   7.064
 4790POPC   C4A61206  29.149  27.610   7.364
 4790POPC   C1B61207  29.042  27.853   6.464
 4790POPC   C2B61208  29.072  27.865   6.764
 4790POPC   C3B61209  29.007  27.837   7.064
 4790POPC   C4B61210  28.995  27.772   7.364
 4791POPC   NC361211  17.548  40.779   5.564
 4791POPC   PO461212  17.527  40.778   5.864
 4791POPC   GL161213  17.506  40.748   6.164
 4791POPC   GL261214  17.539  40.725   6.164
 4791POPC   C1A61215  17.501  40.768   6.464
 4791POPC   D2A61216  17.551  40.767   6.764
 4791POPC   C3A61217  17.482  40.812   7.064
 4791POPC   C4A61218  17.461  40.773   7.364
 4791POPC   C1B61219  17.623  40.577   6.464
 4791POPC   C2B61220  17.658  40.615   6.764
 4791POPC   C3B61221  17.629  40.606   7.064
 4791POPC   C4B61222  17.676  40.612   7.364
 4792POPC   NC361223  26.084  27.632   5.564
 4792POPC   PO461224  26.075  27.555   5.864
 4792POPC   GL161225  26.024  27.543   6.164
 4792POPC   GL261226  25.993  27.755   6.164
 4792POPC   C1A61227  26.024  27.604   6.464
 4792POPC   D2A61228  26.069  27.629   6.764
 4792POPC   C3A61229  26.033  27.613   7.064
 4792POPC   C4A61230  26.043  27.575   7.364
 4792POPC   C1B61231  25.942  27.876   6.464
 4792POPC   C2B61232  25.972  27.795   6.764
 4792POPC   C3B61233  25.961  27.838   7.064
 4792POPC   C4B61234  25.921  27.861   7.364
 4793POPC   NC361235  43.857  14.416   5.564
 4793POPC   PO461236  43.892  14.449   5.864
 4793POPC   GL161237  43.931  14.407   6.164
 4793POPC   GL261238  43.759  14.502   6.164
 4793POPC   C1A61239  43.928  14.444   6.464
 4793POPC   D2A61240  43.884  14.436   6.764
 4793POPC   C3A61241  43.898  14.394   7.064
 4793POPC   C4A61242  43.889  14.376   7.364
 4793POPC   C1B61243  43.714  14.555   6.464
 4793POPC   C2B61244  43.651  14.499   6.764
 4793POPC   C3B61245  43.720  14.502   7.064
 4793POPC   C4B61246  43.680  14.571   7.364
 4794POPC   NC361247  25.283  11.310   5.564
 4794POPC   PO461248  25.273  11.270   5.864
 4794POPC   GL161249  25.218  11.255   6.164
 4794POPC   GL261250  25.176  11.397   6.164
 4794POPC   C1A61251  25.282  11.267   6.464
 4794POPC   D2A61252  25.292  11.257   6.764
 4794POPC   C3A61253  25.253  11.340   7.064
 4794POPC   C4A61254  25.244  11.298   7.364
 4794POPC   C1B61255  25.123  11.473   6.464
 4794POPC   C2B61256  25.046  11.432   6.764
 4794POPC   C3B61257  25.109  11.494   7.064
 4794POPC   C4B61258  25.070  11.477   7.364
 4795POPC   NC361259  35.319   1.241   5.564
 4795POPC   PO461260  35.333   1.172   5.864
 4795POPC   GL161261  35.346   1.195   6.164
 4795POPC   GL261262  35.340   1.082   6.164
 4795POPC   C1A61263  35.369   1.251   6.464
 4795POPC   D2A61264  35.350   1.189   6.764
 4795POPC   C3A61265  35.393   1.221   7.064
 4795POPC   C4A61266  35.387   1.214   7.364
 4795POPC   C1B61267  35.295   0.956   6.464
 4795POPC   C2B61268  35.355   0.972   6.764
 4795POPC   C3B61269  35.360   0.989   7.064
 4795POPC   C4B61270  35.321   0.972   7.364
 4796POPC   NC361271   8.242  19.067   5.564
 4796POPC   PO461272   8.152  19.014   5.864
 4796POPC   GL161273   8.152  19.042   6.164
 4796POPC   GL261274   8.231  18.934   6.164
 4796POPC   C1A61275   8.155  19.071   6.464
 4796POPC   D2A61276   8.156  19.083   6.764
 4796POPC   C3A61277   8.182  19.073   7.064
 4796POPC   C4A61278   8.157  19.017   7.364
 4796POPC   C1B61279   8.379  18.863   6.464
 4796POPC   C2B61280   8.309  18.865   6.764
 4796POPC   C3B61281   8.323  18.818   7.064
 4796POPC   C4B61282   8.349  18.902   7.364
 4797POPC   NC361283   1.171  31.440   5.564
 4797POPC   PO461284   1.241  31.509   5.864
 4797POPC   GL161285   1.238  31.440   6.164
 4797POPC   GL261286   1.100  31.503   6.164
 4797POPC   C1A61287   1.199  31.434   6.464
 4797POPC   D2A61288   1.227  31.512   6.764
 4797POPC   C3A61289   1.187  31.439   7.064
 4797POPC   C4A61290   1.260  31.506   7.364
 4797POPC   C1B61291   0.982  31.590   6.464
 4797POPC   C2B61292   1.008  31.537   6.764
 4797POPC   C3B61293   0.998  31.522   7.064
 4797POPC   C4B61294   0.961  31.556   7.364
 4798POPC   NC361295  37.676  28.408   5.564
 4798POPC   PO461296  37.726  28.335   5.864
 4798POPC   GL161297  37.690  28.418   6.164
 4798POPC   GL261298  37.799  28.376   6.164
 4798POPC   C1A61299  37.632  28.353   6.464
 4798POPC   D2A61300  37.641  28.355   6.764
 4798POPC   C3A61301  37.650  28.406   7.064
 4798POPC   C4A61302  37.653  28.369   7.364
 4798POPC   C1B61303  37.896  28.329   6.464
 4798POPC   C2B61304  37.965  28.349   6.764
 4798POPC   C3B61305  37.896  28.278   7.064
 4798POPC   C4B61306  37.968  28.314   7.364
 4799POPC   NC361307   2.018   3.589   5.564
 4799POPC   PO461308   2.009   3.560   5.864
 4799POPC   GL161309   1.951   3.507   6.164
 4799POPC   GL261310   2.139   3.606   6.164
 4799POPC   C1A61311   1.965   3.503   6.464
 4799POPC   D2A61312   1.969   3.505   6.764
 4799POPC   C3A61313   1.946   3.503   7.064
 4799POPC   C4A61314   2.014   3.502   7.364
 4799POPC   C1B61315   2.271   3.668   6.464
 4799POPC   C2B61316   2.256   3.573   6.764
 4799POPC   C3B61317   2.221   3.608   7.064
 4799POPC   C4B61318   2.218   3.637   7.364
 4800POPC   NC361319   7.426  31.452   5.564
 4800POPC   PO461320   7.431  31.427   5.864
 4800POPC   GL161321   7.413  31.432   6.164
 4800POPC   GL261322   7.541  31.371   6.164
 4800POPC   C1A61323   7.407  31.501   6.464
 4800POPC   D2A61324   7.382  31.457   6.764
 4800POPC   C3A61325   7.413  31.475   7.064
 4800POPC   C4A61326   7.382  31.485   7.364
 4800POPC   C1B61327   7.633  31.317   6.464
 4800POPC   C2B61328   7.540  31.330   6.764
 4800POPC   C3B61329   7.614  31.311   7.064
 4800POPC   C4B61330   7.608  31.330   7.364
 4801POPC   NC361331   2.726  12.042   5.564
 4801POPC   PO461332   2.774  12.063   5.864
 4801POPC   GL161333   2.784  12.067   6.164
 4801POPC   GL261334   2.665  12.113   6.164
 4801POPC   C1A61335   2.723  12.121   6.464
 4801POPC   D2A61336   2.793  12.113   6.764
 4801POPC   C3A61337   2.721  12.078   7.064
 4801POPC   C4A61338   2.778  12.106   7.364
 4801POPC   C1B61339   2.515  12.131   6.464
 4801POPC   C2B61340   2.489  12.033   6.764
 4801POPC   C3B61341   2.524  12.035   7.064
 4801POPC   C4B61342   2.466  12.063   7.364
 4802POPC   NC361343  18.307   6.648   5.564
 4802POPC   PO461344  18.263   6.601   5.864
 4802POPC   GL161345  18.296   6.602   6.164
 4802POPC   GL261346  18.243   6.532   6.164
 4802POPC   C1A61347  18.303   6.620   6.464
 4802POPC   D2A61348  18.236   6.616   6.764
 4802POPC   C3A61349  18.278   6.632   7.064
 4802POPC   C4A61350  18.242   6.644   7.364
 4802POPC   C1B61351  18.151   6.442   6.464
 4802POPC   C2B61352  18.099   6.451   6.764
 4802POPC   C3B61353  18.114   6.419   7.064
 4802POPC   C4B61354  18.105   6.487   7.364
 4803POPC   NC361355   2.749  33.012   5.564
 4803POPC   PO461356   2.761  33.038   5.864
 4803POPC   GL161357   2.750  33.029   6.164
 4803POPC   GL261358   2.727  32.899   6.164
 4803POPC   C1A61359   2.729  33.036   6.464
 4803POPC   D2A61360   2.792  32.977   6.764
 4803POPC   C3A61361   2.799  33.035   7.064
 4803POPC   C4A61362   2.752  32.986   7.364
 4803POPC   C1B61363   2.762  32.756   6.464
 4803POPC   C2B61364   2.740  32.779   6.764
 4803POPC   C3B61365   2.787  32.786   7.064
 4803POPC   C4B61366   2.738  32.775   7.364
 4804POPC   NC361367  11.330  31.446   5.564
 4804POPC   PO461368  11.274  31.499   5.864
 4804POPC   GL161369  11.277  31.521   6.164
 4804POPC   GL261370  11.296  31.363   6.164
 4804POPC   C1A61371  11.342  31.446   6.464
 4804POPC   D2A61372  11.300  31.447   6.764
 4804POPC   C3A61373  11.334  31.432   7.064
 4804POPC   C4A61374  11.252  31.512   7.364
 4804POPC   C1B61375  11.320  31.185   6.464
 4804POPC   C2B61376  11.331  31.266   6.764
 4804POPC   C3B61377  11.299  31.255   7.064
 4804POPC   C4B61378  11.263  31.179   7.364
 4805POPC   NC361379  23.749  17.483   5.564
 4805POPC   PO461380  23.668  17.499   5.864
 4805POPC   GL161381  23.764  17.498   6.164
 4805POPC   GL261382  23.836  17.596   6.164
 4805POPC   C1A61383  23.685  17.524   6.464
 4805POPC   D2A61384  23.725  17.512   6.764
 4805POPC   C3A61385  23.758  17.519   7.064
 4805POPC   C4A61386  23.715  17.478   7.364
 4805POPC   C1B61387  23.840  17.690   6.464
 4805POPC   C2B61388  23.846  17.640   6.764
 4805POPC   C3B61389  23.842  17.685   7.064
 4805POPC   C4B61390  23.848  17.638   7.364
 4806POPC   NC361391  25.239  36.873   5.564
 4806POPC   PO461392  25.232  36.857   5.864
 4806POPC   GL161393  25.283  36.917   6.164
 4806POPC   GL261394  25.343  36.883   6.164
 4806POPC   C1A61395  25.300  36.868   6.464
 4806POPC   D2A61396  25.230  36.897   6.764
 4806POPC   C3A61397  25.302  36.862   7.064
 4806POPC   C4A61398  25.253  36.945   7.364
 4806POPC   C1B61399  25.468  36.836   6.464
 4806POPC   C2B61400  25.466  36.790   6.764
 4806POPC   C3B61401  25.477  36.808   7.064
 4806POPC   C4B61402  25.532  36.818   7.364
 4807POPC   NC361403   8.157   6.629   5.564
 4807POPC   PO461404   8.215   6.603   5.864
 4807POPC   GL161405   8.219   6.601   6.164
 4807POPC   GL261406   8.139   6.584   6.164
 4807POPC   C1A61407   8.148   6.669   6.464
 4807POPC   D2A61408   8.186   6.620   6.764
 4807POPC   C3A61409   8.238   6.682   7.064
 4807POPC   C4A61410   8.181   6.642   7.364
 4807POPC   C1B61411   7.945   6.502   6.464
 4807POPC   C2B61412   7.995   6.474   6.764
 4807POPC   C3B61413   8.013   6.540   7.064
 4807POPC   C4B61414   7.939   6.506   7.364
 4808POPC   NC361415  16.723  39.191   5.564
 4808POPC   PO461416  16.757  39.254   5.864
 4808POPC   GL161417  16.743  39.248   6.164
 4808POPC   GL261418  16.595  39.326   6.164
 4808POPC   C1A61419  16.694  39.234   6.464
 4808POPC   D2A61420  16.717  39.268   6.764
 4808POPC   C3A61421  16.770  39.190   7.064
 4808POPC   C4A61422  16.728  39.201   7.364
 4808POPC   C1B61423  16.488  39.373   6.464
 4808POPC   C2B61424  16.553  39.395   6.764
 4808POPC   C3B61425  16.487  39.343   7.064
 4808POPC   C4B61426  16.509  39.373   7.364
 4809POPC   NC361427  29.872  39.224   5.564
 4809POPC   PO461428  29.901  39.241   5.864
 4809POPC   GL161429  29.958  39.236   6.164
 4809POPC   GL261430  30.041  39.197   6.164
 4809POPC   C1A61431  29.969  39.233   6.464
 4809POPC   D2A61432  29.913  39.202   6.764
 4809POPC   C3A61433  29.937  39.255   7.064
 4809POPC   C4A61434  29.919  39.239   7.364
 4809POPC   C1B61435  30.156  39.193   6.464
 4809POPC   C2B61436  30.180  39.131   6.764
 4809POPC   C3B61437  30.158  39.189   7.064
 4809POPC   C4B61438  30.205  39.108   7.364
 4810POPC   NC361439  39.214   5.916   5.564
 4810POPC   PO461440  39.247   5.883   5.864
 4810POPC   GL161441  39.255   5.882   6.164
 4810POPC   GL261442  39.354   6.005   6.164
 4810POPC   C1A61443  39.184   5.832   6.464
 4810POPC   D2A61444  39.196   5.883   6.764
 4810POPC   C3A61445  39.280   5.892   7.064
 4810POPC   C4A61446  39.185   5.915   7.364
 4810POPC   C1B61447  39.369   6.007   6.464
 4810POPC   C2B61448  39.416   6.027   6.764
 4810POPC   C3B61449  39.386   6.023   7.064
 4810POPC   C4B61450  39.378   5.999   7.364
 4811POPC   NC361451  17.481  27.551   5.564
 4811POPC   PO461452  17.506  27.593   5.864
 4811POPC   GL161453  17.463  27.549   6.164
 4811POPC   GL261454  17.555  27.633   6.164
 4811POPC   C1A61455  17.530  27.590   6.464
 4811POPC   D2A61456  17.540  27.616   6.764
 4811POPC   C3A61457  17.541  27.620   7.064
 4811POPC   C4A61458  17.519  27.602   7.364
 4811POPC   C1B61459  17.681  27.726   6.464
 4811POPC   C2B61460  17.715  27.709   6.764
 4811POPC   C3B61461  17.743  27.707   7.064
 4811POPC   C4B61462  17.675  27.749   7.364
 4812POPC   NC361463   2.009   6.678   5.564
 4812POPC   PO461464   2.005   6.691   5.864
 4812POPC   GL161465   1.969   6.629   6.164
 4812POPC   GL261466   2.146   6.678   6.164
 4812POPC   C1A61467   1.948   6.612   6.464
 4812POPC   D2A61468   1.989   6.626   6.764
 4812POPC   C3A61469   1.970   6.653   7.064
 4812POPC   C4A61470   1.967   6.621   7.364
 4812POPC   C1B61471   2.191   6.641   6.464
 4812POPC   C2B61472   2.213   6.595   6.764
 4812POPC   C3B61473   2.279   6.601   7.064
 4812POPC   C4B61474   2.259   6.598   7.364
 4813POPC   NC361475  17.510   5.139   5.564
 4813POPC   PO461476  17.461   5.105   5.864
 4813POPC   GL161477  17.538   5.056   6.164
 4813POPC   GL261478  17.674   5.078   6.164
 4813POPC   C1A61479  17.497   5.093   6.464
 4813POPC   D2A61480  17.548   5.073   6.764
 4813POPC   C3A61481  17.481   5.062   7.064
 4813POPC   C4A61482  17.482   5.104   7.364
 4813POPC   C1B61483  17.708   5.036   6.464
 4813POPC   C2B61484  17.740   5.025   6.764
 4813POPC   C3B61485  17.765   5.066   7.064
 4813POPC   C4B61486  17.762   4.991   7.364
 4814POPC   NC361487  35.302  22.899   5.564
 4814POPC   PO461488  35.390  22.930   5.864
 4814POPC   GL161489  35.362  22.889   6.164
 4814POPC   GL261490  35.297  22.836   6.164
 4814POPC   C1A61491  35.345  22.890   6.464
 4814POPC   D2A61492  35.326  22.937   6.764
 4814POPC   C3A61493  35.382  22.959   7.064
 4814POPC   C4A61494  35.400  22.971   7.364
 4814POPC   C1B61495  35.250  22.679   6.464
 4814POPC   C2B61496  35.211  22.761   6.764
 4814POPC   C3B61497  35.204  22.747   7.064
 4814POPC   C4B61498  35.264  22.731   7.364
 4815POPC   NC361499  33.836  37.630   5.564
 4815POPC   PO461500  33.775  37.716   5.864
 4815POPC   GL161501  33.785  37.709   6.164
 4815POPC   GL261502  33.932  37.677   6.164
 4815POPC   C1A61503  33.825  37.631   6.464
 4815POPC   D2A61504  33.805  37.713   6.764
 4815POPC   C3A61505  33.793  37.691   7.064
 4815POPC   C4A61506  33.820  37.664   7.364
 4815POPC   C1B61507  34.042  37.562   6.464
 4815POPC   C2B61508  34.081  37.648   6.764
 4815POPC   C3B61509  34.012  37.636   7.064
 4815POPC   C4B61510  34.026  37.601   7.364
 4816POPC   NC361511  27.626  12.852   5.564
 4816POPC   PO461512  27.590  12.826   5.864
 4816POPC   GL161513  27.596  12.868   6.164
 4816POPC   GL261514  27.539  12.985   6.164
 4816POPC   C1A61515  27.581  12.896   6.464
 4816POPC   D2A61516  27.611  12.898   6.764
 4816POPC   C3A61517  27.564  12.840   7.064
 4816POPC   C4A61518  27.642  12.858   7.364
 4816POPC   C1B61519  27.477  13.094   6.464
 4816POPC   C2B61520  27.520  13.065   6.764
 4816POPC   C3B61521  27.469  13.077   7.064
 4816POPC   C4B61522  27.431  13.112   7.364
 4817POPC   NC361523  38.435  35.360   5.564
 4817POPC   PO461524  38.500  35.344   5.864
 4817POPC   GL161525  38.474  35.345   6.164
 4817POPC   GL261526  38.371  35.511   6.164
 4817POPC   C1A61527  38.456  35.399   6.464
 4817POPC   D2A61528  38.406  35.305   6.764
 4817POPC   C3A61529  38.448  35.349   7.064
 4817POPC   C4A61530  38.414  35.339   7.364
 4817POPC   C1B61531  38.415  35.614   6.464
 4817POPC   C2B61532  38.355  35.562   6.764
 4817POPC   C3B61533  38.421  35.602   7.064
 4817POPC   C4B61534  38.381  35.568   7.364
 4818POPC   NC361535  32.262  30.683   5.564
 4818POPC   PO461536  32.297  30.675   5.864
 4818POPC   GL161537  32.254  30.708   6.164
 4818POPC   GL261538  32.355  30.609   6.164
 4818POPC   C1A61539  32.269  30.710   6.464
 4818POPC   D2A61540  32.262  30.667   6.764
 4818POPC   C3A61541  32.223  30.739   7.064
 4818POPC   C4A61542  32.293  30.648   7.364
 4818POPC   C1B61543  32.326  30.492   6.464
 4818POPC   C2B61544  32.371  30.464   6.764
 4818POPC   C3B61545  32.327  30.472   7.064
 4818POPC   C4B61546  32.374  30.457   7.364
 4819POPC   NC361547   8.191  28.321   5.564
 4819POPC   PO461548   8.244  28.403   5.864
 4819POPC   GL161549   8.197  28.419   6.164
 4819POPC   GL261550   8.236  28.198   6.164
 4819POPC   C1A61551   8.188  28.398   6.464
 4819POPC   D2A61552   8.204  28.367   6.764
 4819POPC   C3A61553   8.238  28.335   7.064
 4819POPC   C4A61554   8.169  28.353   7.364
 4819POPC   C1B61555   8.245  28.116   6.464
 4819POPC   C2B61556   8.222  28.167   6.764
 4819POPC   C3B61557   8.233  28.074   7.064
 4819POPC   C4B61558   8.202  28.078   7.364
 4820POPC   NC361559  32.990  30.704   5.564
 4820POPC   PO461560  33.004  30.666   5.864
 4820POPC   GL161561  32.997  30.733   6.164
 4820POPC   GL261562  33.054  30.761   6.164
 4820POPC   C1A61563  33.005  30.662   6.464
 4820POPC   D2A61564  33.045  30.721   6.764
 4820POPC   C3A61565  33.031  30.738   7.064
 4820POPC   C4A61566  33.064  30.740   7.364
 4820POPC   C1B61567  33.170  30.896   6.464
 4820POPC   C2B61568  33.179  30.876   6.764
 4820POPC   C3B61569  33.167  30.913   7.064
 4820POPC   C4B61570  33.137  30.887   7.364
 4821POPC   NC361571  25.307  17.512   5.564
 4821POPC   PO461572  25.286  17.499   5.864
 4821POPC   GL161573  25.245  17.461   6.164
 4821POPC   GL261574  25.231  17.342   6.164
 4821POPC   C1A61575  25.279  17.489   6.464
 4821POPC   D2A61576  25.286  17.472   6.764
 4821POPC   C3A61577  25.307  17.530   7.064
 4821POPC   C4A61578  25.221  17.492   7.364
 4821POPC   C1B61579  25.215  17.228   6.464
 4821POPC   C2B61580  25.179  17.211   6.764
 4821POPC   C3B61581  25.191  17.252   7.064
 4821POPC   C4B61582  25.171  17.237   7.364
 4822POPC   NC361583  41.566  25.300   5.564
 4822POPC   PO461584  41.581  25.264   5.864
 4822POPC   GL161585  41.597  25.295   6.164
 4822POPC   GL261586  41.611  25.139   6.164
 4822POPC   C1A61587  41.583  25.295   6.464
 4822POPC   D2A61588  41.606  25.256   6.764
 4822POPC   C3A61589  41.545  25.216   7.064
 4822POPC   C4A61590  41.555  25.303   7.364
 4822POPC   C1B61591  41.765  25.102   6.464
 4822POPC   C2B61592  41.714  25.149   6.764
 4822POPC   C3B61593  41.770  25.093   7.064
 4822POPC   C4B61594  41.748  25.115   7.364
 4823POPC   NC361595  37.667  44.687   5.564
 4823POPC   PO461596  37.723  44.638   5.864
 4823POPC   GL161597  37.661  44.612   6.164
 4823POPC   GL261598  37.664  44.516   6.164
 4823POPC   C1A61599  37.726  44.706   6.464
 4823POPC   D2A61600  37.633  44.629   6.764
 4823POPC   C3A61601  37.640  44.678   7.064
 4823POPC   C4A61602  37.687  44.644   7.364
 4823POPC   C1B61603  37.662  44.454   6.464
 4823POPC   C2B61604  37.631  44.396   6.764
 4823POPC   C3B61605  37.690  44.428   7.064
 4823POPC   C4B61606  37.652  44.401   7.364
 4824POPC   NC361607  36.119  26.865   5.564
 4824POPC   PO461608  36.150  26.837   5.864
 4824POPC   GL161609  36.092  26.822   6.164
 4824POPC   GL261610  35.977  26.722   6.164
 4824POPC   C1A61611  36.169  26.858   6.464
 4824POPC   D2A61612  36.126  26.829   6.764
 4824POPC   C3A61613  36.169  26.856   7.064
 4824POPC   C4A61614  36.167  26.794   7.364
 4824POPC   C1B61615  35.864  26.678   6.464
 4824POPC   C2B61616  35.920  26.756   6.764
 4824POPC   C3B61617  35.941  26.682   7.064
 4824POPC   C4B61618  35.862  26.760   7.364
 4825POPC   NC361619  32.267   0.478   5.564
 4825POPC   PO461620  32.255   0.435   5.864
 4825POPC   GL161621  32.207   0.466   6.164
 4825POPC   GL261622  32.243   0.552   6.164
 4825POPC   C1A61623  32.248   0.470   6.464
 4825POPC   D2A61624  32.206   0.447   6.764
 4825POPC   C3A61625  32.248   0.435   7.064
 4825POPC   C4A61626  32.267   0.448   7.364
 4825POPC   C1B61627  32.166   0.689   6.464
 4825POPC   C2B61628  32.157   0.689   6.764
 4825POPC   C3B61629  32.135   0.630   7.064
 4825POPC   C4B61630  32.098   0.693   7.364
 4826POPC   NC361631   3.519  21.370   5.564
 4826POPC   PO461632   3.576  21.415   5.864
 4826POPC   GL161633   3.547  21.396   6.164
 4826POPC   GL261634   3.459  21.244   6.164
 4826POPC   C1A61635   3.585  21.394   6.464
 4826POPC   D2A61636   3.521  21.365   6.764
 4826POPC   C3A61637   3.584  21.387   7.064
 4826POPC   C4A61638   3.576  21.404   7.364
 4826POPC   C1B61639   3.439  21.192   6.464
 4826POPC   C2B61640   3.420  21.188   6.764
 4826POPC   C3B61641   3.375  21.152   7.064
 4826POPC   C4B61642   3.404  21.226   7.364
 4827POPC   NC361643   4.270   2.751   5.564
 4827POPC   PO461644   4.286   2.754   5.864
 4827POPC   GL161645   4.326   2.738   6.164
 4827POPC   GL261646   4.238   2.849   6.164
 4827POPC   C1A61647   4.356   2.761   6.464
 4827POPC   D2A61648   4.329   2.718   6.764
 4827POPC   C3A61649   4.294   2.782   7.064
 4827POPC   C4A61650   4.299   2.760   7.364
 4827POPC   C1B61651   4.176   2.973   6.464
 4827POPC   C2B61652   4.162   2.969   6.764
 4827POPC   C3B61653   4.232   3.006   7.064
 4827POPC   C4B61654   4.222   2.944   7.364
 4828POPC   NC361655  15.990  40.006   5.564
 4828POPC   PO461656  15.963  39.973   5.864
 4828POPC   GL161657  15.982  40.005   6.164
 4828POPC   GL261658  16.021  40.054   6.164
 4828POPC   C1A61659  15.920  39.970   6.464
 4828POPC   D2A61660  15.921  40.003   6.764
 4828POPC   C3A61661  15.950  40.044   7.064
 4828POPC   C4A61662  15.909  39.985   7.364
 4828POPC   C1B61663  16.156  40.176   6.464
 4828POPC   C2B61664  16.160  40.175   6.764
 4828POPC   C3B61665  16.173  40.164   7.064
 4828POPC   C4B61666  16.114  40.152   7.364
 4829POPC   NC361667  11.319  23.701   5.564
 4829POPC   PO461668  11.326  23.733   5.864
 4829POPC   GL161669  11.329  23.667   6.164
 4829POPC   GL261670  11.172  23.769   6.164
 4829POPC   C1A61671  11.316  23.753   6.464
 4829POPC   D2A61672  11.302  23.726   6.764
 4829POPC   C3A61673  11.304  23.675   7.064
 4829POPC   C4A61674  11.287  23.679   7.364
 4829POPC   C1B61675  11.052  23.847   6.464
 4829POPC   C2B61676  11.069  23.840   6.764
 4829POPC   C3B61677  11.052  23.877   7.064
 4829POPC   C4B61678  11.034  23.788   7.364
 4830POPC   NC361679  30.742  35.376   5.564
 4830POPC   PO461680  30.687  35.304   5.864
 4830POPC   GL161681  30.666  35.370   6.164
 4830POPC   GL261682  30.652  35.448   6.164
 4830POPC   C1A61683  30.700  35.393   6.464
 4830POPC   D2A61684  30.732  35.389   6.764
 4830POPC   C3A61685  30.660  35.360   7.064
 4830POPC   C4A61686  30.657  35.387   7.364
 4830POPC   C1B61687  30.681  35.604   6.464
 4830POPC   C2B61688  30.754  35.635   6.764
 4830POPC   C3B61689  30.670  35.648   7.064
 4830POPC   C4B61690  30.721  35.648   7.364
 4831POPC   NC361691   4.319  28.399   5.564
 4831POPC   PO461692   4.317  28.379   5.864
 4831POPC   GL161693   4.337  28.408   6.164
 4831POPC   GL261694   4.366  28.485   6.164
 4831POPC   C1A61695   4.280  28.374   6.464
 4831POPC   D2A61696   4.329  28.387   6.764
 4831POPC   C3A61697   4.338  28.388   7.064
 4831POPC   C4A61698   4.326  28.344   7.364
 4831POPC   C1B61699   4.483  28.562   6.464
 4831POPC   C2B61700   4.523  28.562   6.764
 4831POPC   C3B61701   4.534  28.551   7.064
 4831POPC   C4B61702   4.520  28.549   7.364
 4832POPC   NC361703  29.951  21.360   5.564
 4832POPC   PO461704  29.922  21.421   5.864
 4832POPC   GL161705  29.885  21.339   6.164
 4832POPC   GL261706  29.827  21.406   6.164
 4832POPC   C1A61707  29.946  21.391   6.464
 4832POPC   D2A61708  29.897  21.362   6.764
 4832POPC   C3A61709  29.912  21.361   7.064
 4832POPC   C4A61710  29.916  21.427   7.364
 4832POPC   C1B61711  29.642  21.348   6.464
 4832POPC   C2B61712  29.676  21.344   6.764
 4832POPC   C3B61713  29.713  21.301   7.064
 4832POPC   C4B61714  29.723  21.355   7.364
 4833POPC   NC361715  10.552  39.208   5.564
 4833POPC   PO461716  10.573  39.226   5.864
 4833POPC   GL161717  10.559  39.218   6.164
 4833POPC   GL261718  10.587  39.278   6.164
 4833POPC   C1A61719  10.553  39.196   6.464
 4833POPC   D2A61720  10.554  39.211   6.764
 4833POPC   C3A61721  10.557  39.199   7.064
 4833POPC   C4A61722  10.477  39.268   7.364
 4833POPC   C1B61723  10.706  39.344   6.464
 4833POPC   C2B61724  10.746  39.343   6.764
 4833POPC   C3B61725  10.777  39.355   7.064
 4833POPC   C4B61726  10.785  39.392   7.364
 4834POPC   NC361727  32.267  26.772   5.564
 4834POPC   PO461728  32.219  26.857   5.864
 4834POPC   GL161729  32.265  26.797   6.164
 4834POPC   GL261730  32.275  26.695   6.164
 4834POPC   C1A61731  32.219  26.847   6.464
 4834POPC   D2A61732  32.206  26.851   6.764
 4834POPC   C3A61733  32.237  26.776   7.064
 4834POPC   C4A61734  32.295  26.775   7.364
 4834POPC   C1B61735  32.378  26.569   6.464
 4834POPC   C2B61736  32.365  26.611   6.764
 4834POPC   C3B61737  32.395  26.605   7.064
 4834POPC   C4B61738  32.338  26.632   7.364
 4835POPC   NC361739  33.774  40.746   5.564
 4835POPC   PO461740  33.774  40.780   5.864
 4835POPC   GL161741  33.807  40.758   6.164
 4835POPC   GL261742  33.701  40.904   6.164
 4835POPC   C1A61743  33.806  40.745   6.464
 4835POPC   D2A61744  33.781  40.759   6.764
 4835POPC   C3A61745  33.829  40.809   7.064
 4835POPC   C4A61746  33.807  40.788   7.364
 4835POPC   C1B61747  33.633  40.923   6.464
 4835POPC   C2B61748  33.565  40.970   6.764
 4835POPC   C3B61749  33.552  40.946   7.064
 4835POPC   C4B61750  33.555  40.920   7.364
 4836POPC   NC361751   1.262  16.684   5.564
 4836POPC   PO461752   1.243  16.774   5.864
 4836POPC   GL161753   1.208  16.750   6.164
 4836POPC   GL261754   1.128  16.676   6.164
 4836POPC   C1A61755   1.205  16.709   6.464
 4836POPC   D2A61756   1.196  16.692   6.764
 4836POPC   C3A61757   1.257  16.747   7.064
 4836POPC   C4A61758   1.262  16.765   7.364
 4836POPC   C1B61759   1.004  16.664   6.464
 4836POPC   C2B61760   0.976  16.626   6.764
 4836POPC   C3B61761   0.968  16.640   7.064
 4836POPC   C4B61762   1.015  16.621   7.364
 4837POPC   NC361763  40.818  10.492   5.564
 4837POPC   PO461764  40.828  10.492   5.864
 4837POPC   GL161765  40.813  10.491   6.164
 4837POPC   GL261766  40.807  10.631   6.164
 4837POPC   C1A61767  40.813  10.536   6.464
 4837POPC   D2A61768  40.800  10.487   6.764
 4837POPC   C3A61769  40.740  10.553   7.064
 4837POPC   C4A61770  40.795  10.549   7.364
 4837POPC   C1B61771  40.808  10.753   6.464
 4837POPC   C2B61772  40.790  10.817   6.764
 4837POPC   C3B61773  40.794  10.725   7.064
 4837POPC   C4B61774  40.737  10.802   7.364
 4838POPC   NC361775   3.581  33.831   5.564
 4838POPC   PO461776   3.529  33.769   5.864
 4838POPC   GL161777   3.576  33.850   6.164
 4838POPC   GL261778   3.565  33.951   6.164
 4838POPC   C1A61779   3.587  33.772   6.464
 4838POPC   D2A61780   3.510  33.845   6.764
 4838POPC   C3A61781   3.539  33.753   7.064
 4838POPC   C4A61782   3.561  33.819   7.364
 4838POPC   C1B61783   3.629  34.042   6.464
 4838POPC   C2B61784   3.712  34.004   6.764
 4838POPC   C3B61785   3.652  34.050   7.064
 4838POPC   C4B61786   3.665  34.002   7.364
 4839POPC   NC361787   1.224  13.594   5.564
 4839POPC   PO461788   1.215  13.582   5.864
 4839POPC   GL161789   1.253  13.583   6.164
 4839POPC   GL261790   1.138  13.602   6.164
 4839POPC   C1A61791   1.187  13.584   6.464
 4839POPC   D2A61792   1.191  13.672   6.764
 4839POPC   C3A61793   1.220  13.647   7.064
 4839POPC   C4A61794   1.200  13.659   7.364
 4839POPC   C1B61795   0.950  13.535   6.464
 4839POPC   C2B61796   0.992  13.551   6.764
 4839POPC   C3B61797   0.984  13.543   7.064
 4839POPC   C4B61798   1.024  13.557   7.364
 4840POPC   NC361799  12.891  29.101   5.564
 4840POPC   PO461800  12.841  29.128   5.864
 4840POPC   GL161801  12.808  29.125   6.164
 4840POPC   GL261802  12.872  29.272   6.164
 4840POPC   C1A61803  12.838  29.110   6.464
 4840POPC   D2A61804  12.846  29.108   6.764
 4840POPC   C3A61805  12.866  29.123   7.064
 4840POPC   C4A61806  12.881  29.189   7.364
 4840POPC   C1B61807  12.806  29.430   6.464
 4840POPC   C2B61808  12.836  29.423   6.764
 4840POPC   C3B61809  12.801  29.367   7.064
 4840POPC   C4B61810  12.824  29.359   7.364
 4841POPC   NC361811  40.786  27.606   5.564
 4841POPC   PO461812  40.778  27.587   5.864
 4841POPC   GL161813  40.797  27.574   6.164
 4841POPC   GL261814  40.697  27.600   6.164
 4841POPC   C1A61815  40.812  27.638   6.464
 4841POPC   D2A61816  40.759  27.636   6.764
 4841POPC   C3A61817  40.761  27.606   7.064
 4841POPC   C4A61818  40.740  27.580   7.364
 4841POPC   C1B61819  40.491  27.640   6.464
 4841POPC   C2B61820  40.571  27.678   6.764
 4841POPC   C3B61821  40.535  27.689   7.064
 4841POPC   C4B61822  40.505  27.604   7.364
 4842POPC   NC361823  39.276  14.433   5.564
 4842POPC   PO461824  39.215  14.367   5.864
 4842POPC   GL161825  39.274  14.452   6.164
 4842POPC   GL261826  39.207  14.309   6.164
 4842POPC   C1A61827  39.251  14.408   6.464
 4842POPC   D2A61828  39.197  14.422   6.764
 4842POPC   C3A61829  39.190  14.360   7.064
 4842POPC   C4A61830  39.204  14.385   7.364
 4842POPC   C1B61831  39.208  14.173   6.464
 4842POPC   C2B61832  39.196  14.128   6.764
 4842POPC   C3B61833  39.246  14.136   7.064
 4842POPC   C4B61834  39.242  14.156   7.364
 4843POPC   NC361835  10.545  35.371   5.564
 4843POPC   PO461836  10.538  35.370   5.864
 4843POPC   GL161837  10.476  35.397   6.164
 4843POPC   GL261838  10.467  35.215   6.164
 4843POPC   C1A61839  10.516  35.373   6.464
 4843POPC   D2A61840  10.519  35.320   6.764
 4843POPC   C3A61841  10.558  35.319   7.064
 4843POPC   C4A61842  10.520  35.351   7.364
 4843POPC   C1B61843  10.458  35.148   6.464
 4843POPC   C2B61844  10.538  35.110   6.764
 4843POPC   C3B61845  10.471  35.149   7.064
 4843POPC   C4B61846  10.538  35.148   7.364
 4844POPC   NC361847  17.498  34.569   5.564
 4844POPC   PO461848  17.508  34.600   5.864
 4844POPC   GL161849  17.470  34.531   6.164
 4844POPC   GL261850  17.601  34.669   6.164
 4844POPC   C1A61851  17.528  34.563   6.464
 4844POPC   D2A61852  17.535  34.526   6.764
 4844POPC   C3A61853  17.530  34.570   7.064
 4844POPC   C4A61854  17.521  34.595   7.364
 4844POPC   C1B61855  17.713  34.704   6.464
 4844POPC   C2B61856  17.724  34.727   6.764
 4844POPC   C3B61857  17.697  34.678   7.064
 4844POPC   C4B61858  17.766  34.708   7.364
 4845POPC   NC361859  42.287   9.794   5.564
 4845POPC   PO461860  42.308   9.709   5.864
 4845POPC   GL161861  42.361   9.707   6.164
 4845POPC   GL261862  42.273   9.898   6.164
 4845POPC   C1A61863  42.365   9.762   6.464
 4845POPC   D2A61864  42.286   9.740   6.764
 4845POPC   C3A61865  42.318   9.783   7.064
 4845POPC   C4A61866  42.379   9.791   7.364
 4845POPC   C1B61867  42.310   9.967   6.464
 4845POPC   C2B61868  42.242   9.992   6.764
 4845POPC   C3B61869  42.242  10.028   7.064
 4845POPC   C4B61870  42.266  10.030   7.364
 4846POPC   NC361871  41.523  26.822   5.564
 4846POPC   PO461872  41.586  26.793   5.864
 4846POPC   GL161873  41.564  26.866   6.164
 4846POPC   GL261874  41.450  26.959   6.164
 4846POPC   C1A61875  41.608  26.836   6.464
 4846POPC   D2A61876  41.578  26.810   6.764
 4846POPC   C3A61877  41.535  26.846   7.064
 4846POPC   C4A61878  41.551  26.835   7.364
 4846POPC   C1B61879  41.462  27.084   6.464
 4846POPC   C2B61880  41.388  27.038   6.764
 4846POPC   C3B61881  41.396  27.035   7.064
 4846POPC   C4B61882  41.451  27.076   7.364
 4847POPC   NC361883  38.461  14.361   5.564
 4847POPC   PO461884  38.405  14.439   5.864
 4847POPC   GL161885  38.467  14.419   6.164
 4847POPC   GL261886  38.370  14.355   6.164
 4847POPC   C1A61887  38.425  14.393   6.464
 4847POPC   D2A61888  38.482  14.409   6.764
 4847POPC   C3A61889  38.499  14.371   7.064
 4847POPC   C4A61890  38.442  14.381   7.364
 4847POPC   C1B61891  38.235  14.363   6.464
 4847POPC   C2B61892  38.242  14.351   6.764
 4847POPC   C3B61893  38.224  14.376   7.064
 4847POPC   C4B61894  38.189  14.383   7.364
 4848POPC   NC361895  14.434  43.862   5.564
 4848POPC   PO461896  14.370  43.916   5.864
 4848POPC   GL161897  14.395  43.886   6.164
 4848POPC   GL261898  14.426  43.973   6.164
 4848POPC   C1A61899  14.361  43.843   6.464
 4848POPC   D2A61900  14.421  43.857   6.764
 4848POPC   C3A61901  14.375  43.935   7.064
 4848POPC   C4A61902  14.378  43.897   7.364
 4848POPC   C1B61903  14.457  44.140   6.464
 4848POPC   C2B61904  14.420  44.122   6.764
 4848POPC   C3B61905  14.469  44.181   7.064
 4848POPC   C4B61906  14.468  44.087   7.364
 4849POPC   NC361907  33.788  18.274   5.564
 4849POPC   PO461908  33.821  18.290   5.864
 4849POPC   GL161909  33.813  18.240   6.164
 4849POPC   GL261910  33.948  18.321   6.164
 4849POPC   C1A61911  33.811  18.246   6.464
 4849POPC   D2A61912  33.824  18.271   6.764
 4849POPC   C3A61913  33.811  18.296   7.064
 4849POPC   C4A61914  33.795  18.317   7.364
 4849POPC   C1B61915  34.012  18.412   6.464
 4849POPC   C2B61916  33.999  18.436   6.764
 4849POPC   C3B61917  33.981  18.393   7.064
 4849POPC   C4B61918  34.034  18.363   7.364
 4850POPC   NC361919  38.429  10.506   5.564
 4850POPC   PO461920  38.484  10.571   5.864
 4850POPC   GL161921  38.463  10.563   6.164
 4850POPC   GL261922  38.395  10.619   6.164
 4850POPC   C1A61923  38.417  10.553   6.464
 4850POPC   D2A61924  38.469  10.538   6.764
 4850POPC   C3A61925  38.435  10.544   7.064
 4850POPC   C4A61926  38.458  10.542   7.364
 4850POPC   C1B61927  38.428  10.740   6.464
 4850POPC   C2B61928  38.396  10.719   6.764
 4850POPC   C3B61929  38.415  10.740   7.064
 4850POPC   C4B61930  38.400  10.798   7.364
 4851POPC   NC361931  43.153   3.504   5.564
 4851POPC   PO461932  43.122   3.583   5.864
 4851POPC   GL161933  43.141   3.518   6.164
 4851POPC   GL261934  43.018   3.564   6.164
 4851POPC   C1A61935  43.140   3.549   6.464
 4851POPC   D2A61936  43.128   3.516   6.764
 4851POPC   C3A61937  43.152   3.574   7.064
 4851POPC   C4A61938  43.159   3.590   7.364
 4851POPC   C1B61939  42.899   3.465   6.464
 4851POPC   C2B61940  42.880   3.518   6.764
 4851POPC   C3B61941  42.873   3.464   7.064
 4851POPC   C4B61942  42.817   3.461   7.364
 4852POPC   NC361943  24.529  37.701   5.564
 4852POPC   PO461944  24.535  37.681   5.864
 4852POPC   GL161945  24.495  37.704   6.164
 4852POPC   GL261946  24.545  37.815   6.164
 4852POPC   C1A61947  24.471  37.631   6.464
 4852POPC   D2A61948  24.457  37.671   6.764
 4852POPC   C3A61949  24.500  37.690   7.064
 4852POPC   C4A61950  24.478  37.678   7.364
 4852POPC   C1B61951  24.498  37.967   6.464
 4852POPC   C2B61952  24.515  37.931   6.764
 4852POPC   C3B61953  24.483  37.923   7.064
 4852POPC   C4B61954  24.515  37.915   7.364
 4853POPC   NC361955   8.932  19.807   5.564
 4853POPC   PO461956   8.926  19.860   5.864
 4853POPC   GL161957   8.988  19.817   6.164
 4853POPC   GL261958   9.101  19.753   6.164
 4853POPC   C1A61959   9.004  19.818   6.464
 4853POPC   D2A61960   8.953  19.848   6.764
 4853POPC   C3A61961   9.004  19.846   7.064
 4853POPC   C4A61962   9.018  19.849   7.364
 4853POPC   C1B61963   9.208  19.630   6.464
 4853POPC   C2B61964   9.121  19.635   6.764
 4853POPC   C3B61965   9.202  19.657   7.064
 4853POPC   C4B61966   9.130  19.717   7.364
 4854POPC   NC361967  22.899  36.862   5.564
 4854POPC   PO461968  22.964  36.862   5.864
 4854POPC   GL161969  22.898  36.952   6.164
 4854POPC   GL261970  22.909  36.772   6.164
 4854POPC   C1A61971  22.953  36.855   6.464
 4854POPC   D2A61972  22.919  36.869   6.764
 4854POPC   C3A61973  22.898  36.879   7.064
 4854POPC   C4A61974  22.971  36.931   7.364
 4854POPC   C1B61975  22.938  36.663   6.464
 4854POPC   C2B61976  22.898  36.607   6.764
 4854POPC   C3B61977  22.959  36.605   7.064
 4854POPC   C4B61978  22.915  36.684   7.364
 4855POPC   NC361979  26.058   5.125   5.564
 4855POPC   PO461980  26.091   5.131   5.864
 4855POPC   GL161981  26.082   5.079   6.164
 4855POPC   GL261982  25.934   5.135   6.164
 4855POPC   C1A61983  25.999   5.134   6.464
 4855POPC   D2A61984  26.037   5.121   6.764
 4855POPC   C3A61985  26.007   5.121   7.064
 4855POPC   C4A61986  26.059   5.095   7.364
 4855POPC   C1B61987  25.810   5.231   6.464
 4855POPC   C2B61988  25.834   5.300   6.764
 4855POPC   C3B61989  25.834   5.271   7.064
 4855POPC   C4B61990  25.847   5.268   7.364
 4856POPC   NC361991  15.213  20.609   5.564
 4856POPC   PO461992  15.215  20.606   5.864
 4856POPC   GL161993  15.170  20.639   6.164
 4856POPC   GL261994  15.093  20.625   6.164
 4856POPC   C1A61995  15.216  20.608   6.464
 4856POPC   D2A61996  15.165  20.650   6.764
 4856POPC   C3A61997  15.191  20.630   7.064
 4856POPC   C4A61998  15.228  20.656   7.364
 4856POPC   C1B61999  14.976  20.623   6.464
 4856POPC   C2B62000  14.950  20.671   6.764
 4856POPC   C3B62001  14.889  20.705   7.064
 4856POPC   C4B62002  14.964  20.688   7.364
 4857POPC   NC362003  26.831  29.927   5.564
 4857POPC   PO462004  26.854  29.894   5.864
 4857POPC   GL162005  26.785  29.880   6.164
 4857POPC   GL262006  26.706  29.873   6.164
 4857POPC   C1A62007  26.848  29.912   6.464
 4857POPC   D2A62008  26.805  29.887   6.764
 4857POPC   C3A62009  26.855  29.914   7.064
 4857POPC   C4A62010  26.804  29.905   7.364
 4857POPC   C1B62011  26.562  29.808   6.464
 4857POPC   C2B62012  26.542  29.851   6.764
 4857POPC   C3B62013  26.622  29.811   7.064
 4857POPC   C4B62014  26.628  29.825   7.364
 4858POPC   NC362015  11.262  29.129   5.564
 4858POPC   PO462016  11.268  29.131   5.864
 4858POPC   GL162017  11.304  29.127   6.164
 4858POPC   GL262018  11.201  29.124   6.164
 4858POPC   C1A62019  11.305  29.180   6.464
 4858POPC   D2A62020  11.336  29.146   6.764
 4858POPC   C3A62021  11.252  29.191   7.064
 4858POPC   C4A62022  11.348  29.142   7.364
 4858POPC   C1B62023  11.045  29.049   6.464
 4858POPC   C2B62024  11.085  29.026   6.764
 4858POPC   C3B62025  11.083  29.087   7.064
 4858POPC   C4B62026  11.118  29.007   7.364
 4859POPC   NC362027  31.470  12.103   5.564
 4859POPC   PO462028  31.484  12.047   5.864
 4859POPC   GL162029  31.506  12.042   6.164
 4859POPC   GL262030  31.359  11.988   6.164
 4859POPC   C1A62031  31.450  12.115   6.464
 4859POPC   D2A62032  31.458  12.100   6.764
 4859POPC   C3A62033  31.496  12.041   7.064
 4859POPC   C4A62034  31.450  12.097   7.364
 4859POPC   C1B62035  31.260  11.894   6.464
 4859POPC   C2B62036  31.258  11.905   6.764
 4859POPC   C3B62037  31.277  11.862   7.064
 4859POPC   C4B62038  31.341  11.939   7.364
 4860POPC   NC362039  28.382   8.246   5.564
 4860POPC   PO462040  28.364   8.153   5.864
 4860POPC   GL162041  28.327   8.182   6.164
 4860POPC   GL262042  28.391   8.095   6.164
 4860POPC   C1A62043  28.319   8.228   6.464
 4860POPC   D2A62044  28.392   8.193   6.764
 4860POPC   C3A62045  28.356   8.155   7.064
 4860POPC   C4A62046  28.340   8.155   7.364
 4860POPC   C1B62047  28.343   7.928   6.464
 4860POPC   C2B62048  28.354   7.992   6.764
 4860POPC   C3B62049  28.325   7.924   7.064
 4860POPC   C4B62050  28.402   7.991   7.364
 4861POPC   NC362051  22.910  26.017   5.564
 4861POPC   PO462052  22.895  26.015   5.864
 4861POPC   GL162053  22.917  26.087   6.164
 4861POPC   GL262054  22.794  26.051   6.164
 4861POPC   C1A62055  22.910  26.084   6.464
 4861POPC   D2A62056  22.891  25.995   6.764
 4861POPC   C3A62057  22.901  26.046   7.064
 4861POPC   C4A62058  22.950  26.014   7.364
 4861POPC   C1B62059  22.655  25.976   6.464
 4861POPC   C2B62060  22.672  25.974   6.764
 4861POPC   C3B62061  22.719  26.011   7.064
 4861POPC   C4B62062  22.690  25.963   7.364
 4862POPC   NC362063  30.672  43.073   5.564
 4862POPC   PO462064  30.691  43.108   5.864
 4862POPC   GL162065  30.652  43.101   6.164
 4862POPC   GL262066  30.679  43.265   6.164
 4862POPC   C1A62067  30.655  43.079   6.464
 4862POPC   D2A62068  30.745  43.147   6.764
 4862POPC   C3A62069  30.663  43.110   7.064
 4862POPC   C4A62070  30.687  43.075   7.364
 4862POPC   C1B62071  30.676  43.315   6.464
 4862POPC   C2B62072  30.676  43.395   6.764
 4862POPC   C3B62073  30.641  43.357   7.064
 4862POPC   C4B62074  30.712  43.309   7.364
 4863POPC   NC362075  42.374  14.380   5.564
 4863POPC   PO462076  42.330  14.419   5.864
 4863POPC   GL162077  42.361  14.384   6.164
 4863POPC   GL262078  42.317  14.274   6.164
 4863POPC   C1A62079  42.285  14.354   6.464
 4863POPC   D2A62080  42.311  14.424   6.764
 4863POPC   C3A62081  42.374  14.443   7.064
 4863POPC   C4A62082  42.369  14.443   7.364
 4863POPC   C1B62083  42.419  14.170   6.464
 4863POPC   C2B62084  42.427  14.206   6.764
 4863POPC   C3B62085  42.395  14.114   7.064
 4863POPC   C4B62086  42.351  14.139   7.364
 4864POPC   NC362087  40.028   7.463   5.564
 4864POPC   PO462088  39.980   7.404   5.864
 4864POPC   GL162089  40.024   7.382   6.164
 4864POPC   GL262090  40.027   7.302   6.164
 4864POPC   C1A62091  39.975   7.389   6.464
 4864POPC   D2A62092  40.015   7.381   6.764
 4864POPC   C3A62093  40.055   7.450   7.064
 4864POPC   C4A62094  40.040   7.463   7.364
 4864POPC   C1B62095  40.123   7.225   6.464
 4864POPC   C2B62096  40.108   7.170   6.764
 4864POPC   C3B62097  40.096   7.179   7.064
 4864POPC   C4B62098  40.163   7.172   7.364
 4865POPC   NC362099   3.517   5.876   5.564
 4865POPC   PO462100   3.500   5.851   5.864
 4865POPC   GL162101   3.519   5.879   6.164
 4865POPC   GL262102   3.449   5.863   6.164
 4865POPC   C1A62103   3.543   5.861   6.464
 4865POPC   D2A62104   3.575   5.827   6.764
 4865POPC   C3A62105   3.492   5.872   7.064
 4865POPC   C4A62106   3.521   5.871   7.364
 4865POPC   C1B62107   3.271   5.814   6.464
 4865POPC   C2B62108   3.314   5.780   6.764
 4865POPC   C3B62109   3.267   5.768   7.064
 4865POPC   C4B62110   3.265   5.815   7.364
 4866POPC   NC362111  15.985   8.935   5.564
 4866POPC   PO462112  15.991   8.933   5.864
 4866POPC   GL162113  15.990   8.923   6.164
 4866POPC   GL262114  16.083   9.072   6.164
 4866POPC   C1A62115  15.927   8.977   6.464
 4866POPC   D2A62116  15.976   8.966   6.764
 4866POPC   C3A62117  15.930   8.980   7.064
 4866POPC   C4A62118  15.934   8.997   7.364
 4866POPC   C1B62119  16.212   9.085   6.464
 4866POPC   C2B62120  16.226   9.036   6.764
 4866POPC   C3B62121  16.152   9.065   7.064
 4866POPC   C4B62122  16.195   9.054   7.364
 4867POPC   NC362123  15.969  39.227   5.564
 4867POPC   PO462124  15.952  39.277   5.864
 4867POPC   GL162125  16.001  39.192   6.164
 4867POPC   GL262126  16.099  39.204   6.164
 4867POPC   C1A62127  15.949  39.200   6.464
 4867POPC   D2A62128  15.993  39.245   6.764
 4867POPC   C3A62129  15.928  39.193   7.064
 4867POPC   C4A62130  15.947  39.227   7.364
 4867POPC   C1B62131  16.218  39.217   6.464
 4867POPC   C2B62132  16.213  39.228   6.764
 4867POPC   C3B62133  16.165  39.166   7.064
 4867POPC   C4B62134  16.156  39.160   7.364
 4868POPC   NC362135  16.744   6.677   5.564
 4868POPC   PO462136  16.686   6.627   5.864
 4868POPC   GL162137  16.764   6.630   6.164
 4868POPC   GL262138  16.792   6.748   6.164
 4868POPC   C1A62139  16.687   6.617   6.464
 4868POPC   D2A62140  16.767   6.635   6.764
 4868POPC   C3A62141  16.773   6.618   7.064
 4868POPC   C4A62142  16.766   6.596   7.364
 4868POPC   C1B62143  16.949   6.828   6.464
 4868POPC   C2B62144  16.949   6.785   6.764
 4868POPC   C3B62145  16.953   6.759   7.064
 4868POPC   C4B62146  16.943   6.773   7.364
 4869POPC   NC362147  44.622  23.753   5.564
 4869POPC   PO462148  44.627  23.679   5.864
 4869POPC   GL162149  44.649  23.722   6.164
 4869POPC   GL262150  44.775  23.733   6.164
 4869POPC   C1A62151  44.635  23.666   6.464
 4869POPC   D2A62152  44.679  23.747   6.764
 4869POPC   C3A62153  44.617  23.753   7.064
 4869POPC   C4A62154  44.676  23.718   7.364
 4869POPC   C1B62155  44.904  23.717   6.464
 4869POPC   C2B62156  44.915  23.733   6.764
 4869POPC   C3B62157  44.958  23.755   7.064
 4869POPC   C4B62158  44.914  23.713   7.364
 4870POPC   NC362159   5.053  29.968   5.564
 4870POPC   PO462160   5.132  29.940   5.864
 4870POPC   GL162161   5.111  29.962   6.164
 4870POPC   GL262162   5.092  29.793   6.164
 4870POPC   C1A62163   5.105  29.876   6.464
 4870POPC   D2A62164   5.107  29.933   6.764
 4870POPC   C3A62165   5.050  29.899   7.064
 4870POPC   C4A62166   5.109  29.902   7.364
 4870POPC   C1B62167   5.155  29.704   6.464
 4870POPC   C2B62168   5.137  29.696   6.764
 4870POPC   C3B62169   5.173  29.676   7.064
 4870POPC   C4B62170   5.219  29.700   7.364
 4871POPC   NC362171   6.680   8.178   5.564
 4871POPC   PO462172   6.649   8.228   5.864
 4871POPC   GL162173   6.662   8.246   6.164
 4871POPC   GL262174   6.582   8.255   6.164
 4871POPC   C1A62175   6.690   8.231   6.464
 4871POPC   D2A62176   6.659   8.234   6.764
 4871POPC   C3A62177   6.631   8.147   7.064
 4871POPC   C4A62178   6.614   8.230   7.364
 4871POPC   C1B62179   6.455   8.342   6.464
 4871POPC   C2B62180   6.494   8.399   6.764
 4871POPC   C3B62181   6.479   8.345   7.064
 4871POPC   C4B62182   6.480   8.357   7.364
 4872POPC   NC362183  12.054  21.364   5.564
 4872POPC   PO462184  12.043  21.385   5.864
 4872POPC   GL162185  12.027  21.430   6.164
 4872POPC   GL262186  12.062  21.295   6.164
 4872POPC   C1A62187  12.115  21.378   6.464
 4872POPC   D2A62188  12.041  21.359   6.764
 4872POPC   C3A62189  12.083  21.391   7.064
 4872POPC   C4A62190  12.042  21.400   7.364
 4872POPC   C1B62191  12.117  21.093   6.464
 4872POPC   C2B62192  12.152  21.163   6.764
 4872POPC   C3B62193  12.129  21.182   7.064
 4872POPC   C4B62194  12.143  21.143   7.364
 4873POPC   NC362195  17.486   3.551   5.564
 4873POPC   PO462196  17.493   3.492   5.864
 4873POPC   GL162197  17.494   3.569   6.164
 4873POPC   GL262198  17.582   3.446   6.164
 4873POPC   C1A62199  17.468   3.516   6.464
 4873POPC   D2A62200  17.494   3.518   6.764
 4873POPC   C3A62201  17.470   3.495   7.064
 4873POPC   C4A62202  17.552   3.499   7.364
 4873POPC   C1B62203  17.726   3.420   6.464
 4873POPC   C2B62204  17.689   3.469   6.764
 4873POPC   C3B62205  17.751   3.431   7.064
 4873POPC   C4B62206  17.739   3.422   7.364
 4874POPC   NC362207  26.769  30.685   5.564
 4874POPC   PO462208  26.840  30.658   5.864
 4874POPC   GL162209  26.841  30.670   6.164
 4874POPC   GL262210  26.902  30.849   6.164
 4874POPC   C1A62211  26.864  30.699   6.464
 4874POPC   D2A62212  26.774  30.732   6.764
 4874POPC   C3A62213  26.830  30.672   7.064
 4874POPC   C4A62214  26.789  30.698   7.364
 4874POPC   C1B62215  26.937  30.920   6.464
 4874POPC   C2B62216  26.920  30.961   6.764
 4874POPC   C3B62217  26.931  30.967   7.064
 4874POPC   C4B62218  26.885  30.927   7.364
 4875POPC   NC362219  20.656   5.867   5.564
 4875POPC   PO462220  20.624   5.855   5.864
 4875POPC   GL162221  20.650   5.846   6.164
 4875POPC   GL262222  20.567   5.769   6.164
 4875POPC   C1A62223  20.641   5.849   6.464
 4875POPC   D2A62224  20.599   5.857   6.764
 4875POPC   C3A62225  20.653   5.861   7.064
 4875POPC   C4A62226  20.608   5.842   7.364
 4875POPC   C1B62227  20.418   5.657   6.464
 4875POPC   C2B62228  20.463   5.702   6.764
 4875POPC   C3B62229  20.420   5.669   7.064
 4875POPC   C4B62230  20.451   5.661   7.364
 4876POPC   NC362231  29.957  29.920   5.564
 4876POPC   PO462232  29.957  29.956   5.864
 4876POPC   GL162233  29.944  29.894   6.164
 4876POPC   GL262234  29.810  29.849   6.164
 4876POPC   C1A62235  29.905  29.957   6.464
 4876POPC   D2A62236  29.894  29.872   6.764
 4876POPC   C3A62237  29.927  29.938   7.064
 4876POPC   C4A62238  29.953  29.902   7.364
 4876POPC   C1B62239  29.725  29.782   6.464
 4876POPC   C2B62240  29.738  29.814   6.764
 4876POPC   C3B62241  29.733  29.755   7.064
 4876POPC   C4B62242  29.670  29.830   7.364
 4877POPC   NC362243  16.686  20.608   5.564
 4877POPC   PO462244  16.771  20.583   5.864
 4877POPC   GL162245  16.720  20.657   6.164
 4877POPC   GL262246  16.566  20.642   6.164
 4877POPC   C1A62247  16.753  20.642   6.464
 4877POPC   D2A62248  16.737  20.585   6.764
 4877POPC   C3A62249  16.739  20.605   7.064
 4877POPC   C4A62250  16.694  20.599   7.364
 4877POPC   C1B62251  16.519  20.672   6.464
 4877POPC   C2B62252  16.550  20.708   6.764
 4877POPC   C3B62253  16.529  20.676   7.064
 4877POPC   C4B62254  16.534  20.689   7.364
 4878POPC   NC362255  17.528  30.696   5.564
 4878POPC   PO462256  17.507  30.672   5.864
 4878POPC   GL162257  17.546  30.738   6.164
 4878POPC   GL262258  17.380  30.724   6.164
 4878POPC   C1A62259  17.497  30.676   6.464
 4878POPC   D2A62260  17.551  30.695   6.764
 4878POPC   C3A62261  17.494  30.692   7.064
 4878POPC   C4A62262  17.533  30.725   7.364
 4878POPC   C1B62263  17.233  30.801   6.464
 4878POPC   C2B62264  17.322  30.746   6.764
 4878POPC   C3B62265  17.261  30.764   7.064
 4878POPC   C4B62266  17.265  30.760   7.364
 4879POPC   NC362267  36.116  13.656   5.564
 4879POPC   PO462268  36.103  13.657   5.864
 4879POPC   GL162269  36.162  13.613   6.164
 4879POPC   GL262270  36.154  13.517   6.164
 4879POPC   C1A62271  36.118  13.623   6.464
 4879POPC   D2A62272  36.096  13.620   6.764
 4879POPC   C3A62273  36.154  13.616   7.064
 4879POPC   C4A62274  36.141  13.676   7.364
 4879POPC   C1B62275  36.204  13.378   6.464
 4879POPC   C2B62276  36.180  13.336   6.764
 4879POPC   C3B62277  36.206  13.371   7.064
 4879POPC   C4B62278  36.147  13.337   7.364
 4880POPC   NC362279  28.407  19.850   5.564
 4880POPC   PO462280  28.390  19.820   5.864
 4880POPC   GL162281  28.361  19.876   6.164
 4880POPC   GL262282  28.392  19.718   6.164
 4880POPC   C1A62283  28.379  19.857   6.464
 4880POPC   D2A62284  28.400  19.836   6.764
 4880POPC   C3A62285  28.379  19.808   7.064
 4880POPC   C4A62286  28.355  19.837   7.364
 4880POPC   C1B62287  28.454  19.569   6.464
 4880POPC   C2B62288  28.442  19.629   6.764
 4880POPC   C3B62289  28.421  19.623   7.064
 4880POPC   C4B62290  28.444  19.624   7.364
 4881POPC   NC362291  21.395  26.005   5.564
 4881POPC   PO462292  21.410  26.085   5.864
 4881POPC   GL162293  21.370  25.995   6.164
 4881POPC   GL262294  21.301  26.110   6.164
 4881POPC   C1A62295  21.365  26.078   6.464
 4881POPC   D2A62296  21.428  26.037   6.764
 4881POPC   C3A62297  21.395  26.014   7.064
 4881POPC   C4A62298  21.348  26.090   7.364
 4881POPC   C1B62299  21.136  26.123   6.464
 4881POPC   C2B62300  21.195  26.094   6.764
 4881POPC   C3B62301  21.104  26.107   7.064
 4881POPC   C4B62302  21.111  26.067   7.364
 4882POPC   NC362303  29.890   5.094   5.564
 4882POPC   PO462304  29.938   5.058   5.864
 4882POPC   GL162305  29.919   5.107   6.164
 4882POPC   GL262306  29.942   5.216   6.164
 4882POPC   C1A62307  29.935   5.050   6.464
 4882POPC   D2A62308  29.895   5.084   6.764
 4882POPC   C3A62309  29.896   5.140   7.064
 4882POPC   C4A62310  29.953   5.043   7.364
 4882POPC   C1B62311  29.978   5.325   6.464
 4882POPC   C2B62312  29.948   5.372   6.764
 4882POPC   C3B62313  29.966   5.387   7.064
 4882POPC   C4B62314  29.946   5.361   7.364
 4883POPC   NC362315  10.521   7.379   5.564
 4883POPC   PO462316  10.516   7.446   5.864
 4883POPC   GL162317  10.553   7.408   6.164
 4883POPC   GL262318  10.430   7.511   6.164
 4883POPC   C1A62319  10.541   7.374   6.464
 4883POPC   D2A62320  10.519   7.404   6.764
 4883POPC   C3A62321  10.475   7.439   7.064
 4883POPC   C4A62322  10.481   7.468   7.364
 4883POPC   C1B62323  10.391   7.648   6.464
 4883POPC   C2B62324  10.304   7.558   6.764
 4883POPC   C3B62325  10.354   7.629   7.064
 4883POPC   C4B62326  10.350   7.584   7.364
 4884POPC   NC362327  38.409  39.987   5.564
 4884POPC   PO462328  38.407  39.962   5.864
 4884POPC   GL162329  38.407  39.998   6.164
 4884POPC   GL262330  38.400  40.082   6.164
 4884POPC   C1A62331  38.447  40.038   6.464
 4884POPC   D2A62332  38.448  39.958   6.764
 4884POPC   C3A62333  38.409  39.990   7.064
 4884POPC   C4A62334  38.407  39.978   7.364
 4884POPC   C1B62335  38.233  40.213   6.464
 4884POPC   C2B62336  38.314  40.154   6.764
 4884POPC   C3B62337  38.326  40.217   7.064
 4884POPC   C4B62338  38.327  40.159   7.364
 4885POPC   NC362339  39.985  15.985   5.564
 4885POPC   PO462340  40.048  15.990   5.864
 4885POPC   GL162341  39.993  15.965   6.164
 4885POPC   GL262342  40.134  15.899   6.164
 4885POPC   C1A62343  39.983  15.968   6.464
 4885POPC   D2A62344  40.037  15.906   6.764
 4885POPC   C3A62345  40.034  15.946   7.064
 4885POPC   C4A62346  40.037  15.927   7.364
 4885POPC   C1B62347  40.212  15.813   6.464
 4885POPC   C2B62348  40.259  15.834   6.764
 4885POPC   C3B62349  40.212  15.839   7.064
 4885POPC   C4B62350  40.193  15.827   7.364
 4886POPC   NC362351  19.065  40.737   5.564
 4886POPC   PO462352  19.023  40.751   5.864
 4886POPC   GL162353  19.050  40.737   6.164
 4886POPC   GL262354  19.157  40.789   6.164
 4886POPC   C1A62355  19.098  40.814   6.464
 4886POPC   D2A62356  19.090  40.781   6.764
 4886POPC   C3A62357  19.078  40.763   7.064
 4886POPC   C4A62358  19.042  40.765   7.364
 4886POPC   C1B62359  19.254  40.719   6.464
 4886POPC   C2B62360  19.297  40.740   6.764
 4886POPC   C3B62361  19.334  40.662   7.064
 4886POPC   C4B62362  19.249  40.692   7.364
 4887POPC   NC362363  11.346   5.853   5.564
 4887POPC   PO462364  11.296   5.841   5.864
 4887POPC   GL162365  11.282   5.863   6.164
 4887POPC   GL262366  11.205   5.715   6.164
 4887POPC   C1A62367  11.264   5.867   6.464
 4887POPC   D2A62368  11.270   5.884   6.764
 4887POPC   C3A62369  11.340   5.853   7.064
 4887POPC   C4A62370  11.332   5.908   7.364
 4887POPC   C1B62371  11.186   5.606   6.464
 4887POPC   C2B62372  11.193   5.641   6.764
 4887POPC   C3B62373  11.173   5.699   7.064
 4887POPC   C4B62374  11.202   5.699   7.364
 4888POPC   NC362375  41.516  40.013   5.564
 4888POPC   PO462376  41.592  39.976   5.864
 4888POPC   GL162377  41.581  40.017   6.164
 4888POPC   GL262378  41.494  40.084   6.164
 4888POPC   C1A62379  41.584  40.031   6.464
 4888POPC   D2A62380  41.534  40.023   6.764
 4888POPC   C3A62381  41.575  40.020   7.064
 4888POPC   C4A62382  41.591  39.994   7.364
 4888POPC   C1B62383  41.370  40.188   6.464
 4888POPC   C2B62384  41.415  40.214   6.764
 4888POPC   C3B62385  41.396  40.214   7.064
 4888POPC   C4B62386  41.419  40.160   7.364
 4889POPC   NC362387  43.148   6.665   5.564
 4889POPC   PO462388  43.137   6.596   5.864
 4889POPC   GL162389  43.122   6.683   6.164
 4889POPC   GL262390  43.227   6.653   6.164
 4889POPC   C1A62391  43.111   6.622   6.464
 4889POPC   D2A62392  43.156   6.621   6.764
 4889POPC   C3A62393  43.108   6.669   7.064
 4889POPC   C4A62394  43.120   6.673   7.364
 4889POPC   C1B62395  43.401   6.649   6.464
 4889POPC   C2B62396  43.383   6.731   6.764
 4889POPC   C3B62397  43.319   6.697   7.064
 4889POPC   C4B62398  43.331   6.708   7.364
 4890POPC   NC362399   7.399   0.481   5.564
 4890POPC   PO462400   7.401   0.391   5.864
 4890POPC   GL162401   7.397   0.412   6.164
 4890POPC   GL262402   7.576   0.402   6.164
 4890POPC   C1A62403   7.453   0.413   6.464
 4890POPC   D2A62404   7.413   0.408   6.764
 4890POPC   C3A62405   7.441   0.434   7.064
 4890POPC   C4A62406   7.386   0.422   7.364
 4890POPC   C1B62407   7.644   0.378   6.464
 4890POPC   C2B62408   7.692   0.369   6.764
 4890POPC   C3B62409   7.645   0.448   7.064
 4890POPC   C4B62410   7.715   0.380   7.364
 4891POPC   NC362411   8.227  15.917   5.564
 4891POPC   PO462412   8.214  15.979   5.864
 4891POPC   GL162413   8.176  15.943   6.164
 4891POPC   GL262414   8.101  15.893   6.164
 4891POPC   C1A62415   8.189  15.920   6.464
 4891POPC   D2A62416   8.188  15.990   6.764
 4891POPC   C3A62417   8.167  15.951   7.064
 4891POPC   C4A62418   8.157  15.935   7.364
 4891POPC   C1B62419   7.986  15.855   6.464
 4891POPC   C2B62420   7.996  15.908   6.764
 4891POPC   C3B62421   7.973  15.908   7.064
 4891POPC   C4B62422   7.986  15.818   7.364
 4892POPC   NC362423  17.483  36.881   5.564
 4892POPC   PO462424  17.536  36.933   5.864
 4892POPC   GL162425  17.482  36.855   6.164
 4892POPC   GL262426  17.343  36.931   6.164
 4892POPC   C1A62427  17.529  36.922   6.464
 4892POPC   D2A62428  17.471  36.920   6.764
 4892POPC   C3A62429  17.507  36.946   7.064
 4892POPC   C4A62430  17.497  36.896   7.364
 4892POPC   C1B62431  17.285  36.876   6.464
 4892POPC   C2B62432  17.218  36.889   6.764
 4892POPC   C3B62433  17.260  36.919   7.064
 4892POPC   C4B62434  17.236  36.852   7.364
 4893POPC   NC362435   5.846  27.565   5.564
 4893POPC   PO462436   5.857  27.628   5.864
 4893POPC   GL162437   5.875  27.554   6.164
 4893POPC   GL262438   5.846  27.720   6.164
 4893POPC   C1A62439   5.822  27.550   6.464
 4893POPC   D2A62440   5.866  27.549   6.764
 4893POPC   C3A62441   5.910  27.630   7.064
 4893POPC   C4A62442   5.874  27.582   7.364
 4893POPC   C1B62443   5.870  27.807   6.464
 4893POPC   C2B62444   5.860  27.849   6.764
 4893POPC   C3B62445   5.807  27.849   7.064
 4893POPC   C4B62446   5.850  27.885   7.364
 4894POPC   NC362447  29.187  10.536   5.564
 4894POPC   PO462448  29.116  10.490   5.864
 4894POPC   GL162449  29.143  10.500   6.164
 4894POPC   GL262450  29.214  10.456   6.164
 4894POPC   C1A62451  29.121  10.529   6.464
 4894POPC   D2A62452  29.149  10.475   6.764
 4894POPC   C3A62453  29.190  10.566   7.064
 4894POPC   C4A62454  29.118  10.565   7.364
 4894POPC   C1B62455  29.371  10.357   6.464
 4894POPC   C2B62456  29.297  10.374   6.764
 4894POPC   C3B62457  29.350  10.335   7.064
 4894POPC   C4B62458  29.333  10.407   7.364
 4895POPC   NC362459  36.880   4.349   5.564
 4895POPC   PO462460  36.864   4.283   5.864
 4895POPC   GL162461  36.910   4.299   6.164
 4895POPC   GL262462  36.812   4.410   6.164
 4895POPC   C1A62463  36.883   4.335   6.464
 4895POPC   D2A62464  36.860   4.290   6.764
 4895POPC   C3A62465  36.948   4.327   7.064
 4895POPC   C4A62466  36.899   4.273   7.364
 4895POPC   C1B62467  36.771   4.486   6.464
 4895POPC   C2B62468  36.709   4.536   6.764
 4895POPC   C3B62469  36.702   4.521   7.064
 4895POPC   C4B62470  36.757   4.536   7.364
 4896POPC   NC362471  26.801   6.659   5.564
 4896POPC   PO462472  26.780   6.674   5.864
 4896POPC   GL162473  26.768   6.636   6.164
 4896POPC   GL262474  26.731   6.597   6.164
 4896POPC   C1A62475  26.815   6.681   6.464
 4896POPC   D2A62476  26.822   6.651   6.764
 4896POPC   C3A62477  26.817   6.609   7.064
 4896POPC   C4A62478  26.844   6.621   7.364
 4896POPC   C1B62479  26.642   6.432   6.464
 4896POPC   C2B62480  26.609   6.508   6.764
 4896POPC   C3B62481  26.643   6.507   7.064
 4896POPC   C4B62482  26.649   6.441   7.364
 4897POPC   NC362483  20.619   7.397   5.564
 4897POPC   PO462484  20.645   7.453   5.864
 4897POPC   GL162485  20.658   7.440   6.164
 4897POPC   GL262486  20.516   7.574   6.164
 4897POPC   C1A62487  20.619   7.376   6.464
 4897POPC   D2A62488  20.606   7.401   6.764
 4897POPC   C3A62489  20.602   7.455   7.064
 4897POPC   C4A62490  20.616   7.440   7.364
 4897POPC   C1B62491  20.458   7.694   6.464
 4897POPC   C2B62492  20.510   7.627   6.764
 4897POPC   C3B62493  20.524   7.632   7.064
 4897POPC   C4B62494  20.525   7.664   7.364
 4898POPC   NC362495   2.014  37.656   5.564
 4898POPC   PO462496   1.962  37.710   5.864
 4898POPC   GL162497   1.965  37.680   6.164
 4898POPC   GL262498   1.878  37.757   6.164
 4898POPC   C1A62499   1.978  37.714   6.464
 4898POPC   D2A62500   2.023  37.677   6.764
 4898POPC   C3A62501   1.989  37.641   7.064
 4898POPC   C4A62502   2.030  37.681   7.364
 4898POPC   C1B62503   1.761  37.712   6.464
 4898POPC   C2B62504   1.799  37.743   6.764
 4898POPC   C3B62505   1.720  37.728   7.064
 4898POPC   C4B62506   1.741  37.719   7.364
 4899POPC   NC362507   5.875  25.997   5.564
 4899POPC   PO462508   5.838  26.060   5.864
 4899POPC   GL162509   5.902  26.039   6.164
 4899POPC   GL262510   5.808  26.208   6.164
 4899POPC   C1A62511   5.908  26.083   6.464
 4899POPC   D2A62512   5.899  26.067   6.764
 4899POPC   C3A62513   5.824  26.042   7.064
 4899POPC   C4A62514   5.850  26.086   7.364
 4899POPC   C1B62515   5.829  26.325   6.464
 4899POPC   C2B62516   5.872  26.303   6.764
 4899POPC   C3B62517   5.813  26.282   7.064
 4899POPC   C4B62518   5.844  26.287   7.364
 4900POPC   NC362519  21.378  17.521   5.564
 4900POPC   PO462520  21.433  17.541   5.864
 4900POPC   GL162521  21.353  17.536   6.164
 4900POPC   GL262522  21.255  17.378   6.164
 4900POPC   C1A62523  21.401  17.480   6.464
 4900POPC   D2A62524  21.346  17.460   6.764
 4900POPC   C3A62525  21.424  17.460   7.064
 4900POPC   C4A62526  21.341  17.501   7.364
 4900POPC   C1B62527  21.249  17.308   6.464
 4900POPC   C2B62528  21.247  17.305   6.764
 4900POPC   C3B62529  21.211  17.365   7.064
 4900POPC   C4B62530  21.250  17.342   7.364
 4901POPC   NC362531  15.188  38.438   5.564
 4901POPC   PO462532  15.227  38.406   5.864
 4901POPC   GL162533  15.198  38.431   6.164
 4901POPC   GL262534  15.162  38.348   6.164
 4901POPC   C1A62535  15.171  38.505   6.464
 4901POPC   D2A62536  15.163  38.451   6.764
 4901POPC   C3A62537  15.157  38.424   7.064
 4901POPC   C4A62538  15.149  38.412   7.364
 4901POPC   C1B62539  15.243  38.242   6.464
 4901POPC   C2B62540  15.221  38.253   6.764
 4901POPC   C3B62541  15.238  38.247   7.064
 4901POPC   C4B62542  15.227  38.164   7.364
 4902POPC   NC362543  10.520  20.594   5.564
 4902POPC   PO462544  10.506  20.637   5.864
 4902POPC   GL162545  10.537  20.629   6.164
 4902POPC   GL262546  10.416  20.512   6.164
 4902POPC   C1A62547  10.569  20.593   6.464
 4902POPC   D2A62548  10.504  20.566   6.764
 4902POPC   C3A62549  10.480  20.614   7.064
 4902POPC   C4A62550  10.496  20.635   7.364
 4902POPC   C1B62551  10.272  20.524   6.464
 4902POPC   C2B62552  10.288  20.518   6.764
 4902POPC   C3B62553  10.260  20.473   7.064
 4902POPC   C4B62554  10.263  20.482   7.364
 4903POPC   NC362555   5.137  39.224   5.564
 4903POPC   PO462556   5.096  39.195   5.864
 4903POPC   GL162557   5.097  39.260   6.164
 4903POPC   GL262558   5.005  39.346   6.164
 4903POPC   C1A62559   5.046  39.186   6.464
 4903POPC   D2A62560   5.073  39.217   6.764
 4903POPC   C3A62561   5.045  39.200   7.064
 4903POPC   C4A62562   5.044  39.205   7.364
 4903POPC   C1B62563   4.895  39.362   6.464
 4903POPC   C2B62564   4.866  39.392   6.764
 4903POPC   C3B62565   4.860  39.379   7.064
 4903POPC   C4B62566   4.866  39.400   7.364
 4904POPC   NC362567   8.957  21.410   5.564
 4904POPC   PO462568   8.938  21.420   5.864
 4904POPC   GL162569   8.998  21.378   6.164
 4904POPC   GL262570   8.893  21.443   6.164
 4904POPC   C1A62571   8.954  21.415   6.464
 4904POPC   D2A62572   8.994  21.368   6.764
 4904POPC   C3A62573   8.937  21.384   7.064
 4904POPC   C4A62574   9.012  21.405   7.364
 4904POPC   C1B62575   8.755  21.449   6.464
 4904POPC   C2B62576   8.767  21.489   6.764
 4904POPC   C3B62577   8.743  21.471   7.064
 4904POPC   C4B62578   8.785  21.497   7.364
 4905POPC   NC362579  22.165  40.819   5.564
 4905POPC   PO462580  22.182  40.767   5.864
 4905POPC   GL162581  22.168  40.809   6.164
 4905POPC   GL262582  22.052  40.674   6.164
 4905POPC   C1A62583  22.210  40.746   6.464
 4905POPC   D2A62584  22.190  40.768   6.764
 4905POPC   C3A62585  22.147  40.794   7.064
 4905POPC   C4A62586  22.164  40.796   7.364
 4905POPC   C1B62587  22.023  40.555   6.464
 4905POPC   C2B62588  22.011  40.608   6.764
 4905POPC   C3B62589  22.020  40.572   7.064
 4905POPC   C4B62590  22.019  40.649   7.364
 4906POPC   NC362591  35.351  12.076   5.564
 4906POPC   PO462592  35.371  12.098   5.864
 4906POPC   GL162593  35.391  12.124   6.164
 4906POPC   GL262594  35.437  12.224   6.164
 4906POPC   C1A62595  35.320  12.113   6.464
 4906POPC   D2A62596  35.351  12.059   6.764
 4906POPC   C3A62597  35.380  12.082   7.064
 4906POPC   C4A62598  35.356  12.078   7.364
 4906POPC   C1B62599  35.425  12.299   6.464
 4906POPC   C2B62600  35.461  12.361   6.764
 4906POPC   C3B62601  35.430  12.335   7.064
 4906POPC   C4B62602  35.405  12.314   7.364
 4907POPC   NC362603  43.842  37.726   5.564
 4907POPC   PO462604  43.894  37.655   5.864
 4907POPC   GL162605  43.874  37.648   6.164
 4907POPC   GL262606  43.907  37.520   6.164
 4907POPC   C1A62607  43.915  37.705   6.464
 4907POPC   D2A62608  43.852  37.707   6.764
 4907POPC   C3A62609  43.882  37.650   7.064
 4907POPC   C4A62610  43.927  37.681   7.364
 4907POPC   C1B62611  43.951  37.401   6.464
 4907POPC   C2B62612  44.001  37.415   6.764
 4907POPC   C3B62613  43.992  37.491   7.064
 4907POPC   C4B62614  44.005  37.413   7.364
 4908POPC   NC362615  34.568   8.947   5.564
 4908POPC   PO462616  34.536   8.949   5.864
 4908POPC   GL162617  34.535   9.012   6.164
 4908POPC   GL262618  34.628   8.825   6.164
 4908POPC   C1A62619  34.576   9.000   6.464
 4908POPC   D2A62620  34.599   8.934   6.764
 4908POPC   C3A62621  34.571   9.007   7.064
 4908POPC   C4A62622  34.608   8.950   7.364
 4908POPC   C1B62623  34.749   8.732   6.464
 4908POPC   C2B62624  34.711   8.787   6.764
 4908POPC   C3B62625  34.700   8.777   7.064
 4908POPC   C4B62626  34.681   8.735   7.364
 4909POPC   NC362627   8.932  19.041   5.564
 4909POPC   PO462628   8.974  19.070   5.864
 4909POPC   GL162629   8.945  19.074   6.164
 4909POPC   GL262630   9.047  19.086   6.164
 4909POPC   C1A62631   8.939  19.041   6.464
 4909POPC   D2A62632   8.995  19.068   6.764
 4909POPC   C3A62633   9.014  19.098   7.064
 4909POPC   C4A62634   8.967  19.101   7.364
 4909POPC   C1B62635   9.160  19.092   6.464
 4909POPC   C2B62636   9.177  19.100   6.764
 4909POPC   C3B62637   9.236  19.123   7.064
 4909POPC   C4B62638   9.205  19.146   7.364
 4910POPC   NC362639  38.471  29.934   5.564
 4910POPC   PO462640  38.456  29.895   5.864
 4910POPC   GL162641  38.414  29.971   6.164
 4910POPC   GL262642  38.379  29.999   6.164
 4910POPC   C1A62643  38.460  29.925   6.464
 4910POPC   D2A62644  38.448  29.970   6.764
 4910POPC   C3A62645  38.488  29.930   7.064
 4910POPC   C4A62646  38.413  29.926   7.364
 4910POPC   C1B62647  38.428  30.191   6.464
 4910POPC   C2B62648  38.377  30.157   6.764
 4910POPC   C3B62649  38.423  30.143   7.064
 4910POPC   C4B62650  38.442  30.118   7.364
 4911POPC   NC362651  28.355   2.005   5.564
 4911POPC   PO462652  28.334   2.035   5.864
 4911POPC   GL162653  28.411   2.035   6.164
 4911POPC   GL262654  28.400   2.132   6.164
 4911POPC   C1A62655  28.403   1.984   6.464
 4911POPC   D2A62656  28.400   1.974   6.764
 4911POPC   C3A62657  28.392   1.969   7.064
 4911POPC   C4A62658  28.386   1.946   7.364
 4911POPC   C1B62659  28.485   2.200   6.464
 4911POPC   C2B62660  28.408   2.211   6.764
 4911POPC   C3B62661  28.482   2.178   7.064
 4911POPC   C4B62662  28.406   2.252   7.364
 4912POPC   NC362663  23.716  30.702   5.564
 4912POPC   PO462664  23.713  30.709   5.864
 4912POPC   GL162665  23.665  30.741   6.164
 4912POPC   GL262666  23.735  30.799   6.164
 4912POPC   C1A62667  23.751  30.660   6.464
 4912POPC   D2A62668  23.692  30.744   6.764
 4912POPC   C3A62669  23.754  30.688   7.064
 4912POPC   C4A62670  23.740  30.695   7.364
 4912POPC   C1B62671  23.800  30.916   6.464
 4912POPC   C2B62672  23.736  30.932   6.764
 4912POPC   C3B62673  23.739  30.905   7.064
 4912POPC   C4B62674  23.808  30.952   7.364
 4913POPC   NC362675  14.389  36.869   5.564
 4913POPC   PO462676  14.428  36.871   5.864
 4913POPC   GL162677  14.411  36.909   6.164
 4913POPC   GL262678  14.519  36.943   6.164
 4913POPC   C1A62679  14.428  36.941   6.464
 4913POPC   D2A62680  14.354  36.891   6.764
 4913POPC   C3A62681  14.400  36.928   7.064
 4913POPC   C4A62682  14.398  36.918   7.364
 4913POPC   C1B62683  14.560  37.061   6.464
 4913POPC   C2B62684  14.550  37.090   6.764
 4913POPC   C3B62685  14.619  37.058   7.064
 4913POPC   C4B62686  14.567  37.110   7.364
 4914POPC   NC362687  18.235   3.517   5.564
 4914POPC   PO462688  18.299   3.551   5.864
 4914POPC   GL162689  18.304   3.539   6.164
 4914POPC   GL262690  18.145   3.521   6.164
 4914POPC   C1A62691  18.261   3.552   6.464
 4914POPC   D2A62692  18.291   3.584   6.764
 4914POPC   C3A62693  18.298   3.549   7.064
 4914POPC   C4A62694  18.313   3.531   7.364
 4914POPC   C1B62695  18.028   3.533   6.464
 4914POPC   C2B62696  18.019   3.532   6.764
 4914POPC   C3B62697  18.004   3.490   7.064
 4914POPC   C4B62698  17.992   3.489   7.364
 4915POPC   NC362699   5.843  39.250   5.564
 4915POPC   PO462700   5.886  39.238   5.864
 4915POPC   GL162701   5.904  39.229   6.164
 4915POPC   GL262702   5.756  39.125   6.164
 4915POPC   C1A62703   5.834  39.229   6.464
 4915POPC   D2A62704   5.833  39.271   6.764
 4915POPC   C3A62705   5.904  39.225   7.064
 4915POPC   C4A62706   5.858  39.274   7.364
 4915POPC   C1B62707   5.672  39.025   6.464
 4915POPC   C2B62708   5.745  38.995   6.764
 4915POPC   C3B62709   5.704  39.051   7.064
 4915POPC   C4B62710   5.711  39.052   7.364
 4916POPC   NC362711  21.340  44.652   5.564
 4916POPC   PO462712  21.434  44.639   5.864
 4916POPC   GL162713  21.393  44.619   6.164
 4916POPC   GL262714  21.272  44.550   6.164
 4916POPC   C1A62715  21.370  44.648   6.464
 4916POPC   D2A62716  21.357  44.615   6.764
 4916POPC   C3A62717  21.354  44.689   7.064
 4916POPC   C4A62718  21.422  44.685   7.364
 4916POPC   C1B62719  21.140  44.503   6.464
 4916POPC   C2B62720  21.166  44.502   6.764
 4916POPC   C3B62721  21.143  44.538   7.064
 4916POPC   C4B62722  21.145  44.495   7.364
 4917POPC   NC362723  15.980  33.824   5.564
 4917POPC   PO462724  15.998  33.768   5.864
 4917POPC   GL162725  15.987  33.796   6.164
 4917POPC   GL262726  16.020  33.889   6.164
 4917POPC   C1A62727  15.996  33.842   6.464
 4917POPC   D2A62728  15.919  33.753   6.764
 4917POPC   C3A62729  15.967  33.812   7.064
 4917POPC   C4A62730  15.978  33.808   7.364
 4917POPC   C1B62731  16.047  34.065   6.464
 4917POPC   C2B62732  16.043  34.028   6.764
 4917POPC   C3B62733  16.034  34.057   7.064
 4917POPC   C4B62734  15.991  34.049   7.364
 4918POPC   NC362735  39.239  19.791   5.564
 4918POPC   PO462736  39.212  19.845   5.864
 4918POPC   GL162737  39.235  19.852   6.164
 4918POPC   GL262738  39.290  19.717   6.164
 4918POPC   C1A62739  39.203  19.832   6.464
 4918POPC   D2A62740  39.188  19.799   6.764
 4918POPC   C3A62741  39.201  19.873   7.064
 4918POPC   C4A62742  39.202  19.811   7.364
 4918POPC   C1B62743  39.429  19.650   6.464
 4918POPC   C2B62744  39.418  19.645   6.764
 4918POPC   C3B62745  39.367  19.622   7.064
 4918POPC   C4B62746  39.439  19.696   7.364
 4919POPC   NC362747  36.163   5.071   5.564
 4919POPC   PO462748  36.104   5.123   5.864
 4919POPC   GL162749  36.117   5.108   6.164
 4919POPC   GL262750  36.116   5.210   6.164
 4919POPC   C1A62751  36.143   5.111   6.464
 4919POPC   D2A62752  36.099   5.048   6.764
 4919POPC   C3A62753  36.087   5.046   7.064
 4919POPC   C4A62754  36.125   5.074   7.364
 4919POPC   C1B62755  36.143   5.303   6.464
 4919POPC   C2B62756  36.148   5.364   6.764
 4919POPC   C3B62757  36.161   5.354   7.064
 4919POPC   C4B62758  36.207   5.302   7.364
 4920POPC   NC362759  42.348  24.451   5.564
 4920POPC   PO462760  42.371  24.498   5.864
 4920POPC   GL162761  42.309  24.446   6.164
 4920POPC   GL262762  42.177  24.396   6.164
 4920POPC   C1A62763  42.334  24.458   6.464
 4920POPC   D2A62764  42.368  24.535   6.764
 4920POPC   C3A62765  42.301  24.450   7.064
 4920POPC   C4A62766  42.336  24.453   7.364
 4920POPC   C1B62767  42.160  24.388   6.464
 4920POPC   C2B62768  42.095  24.416   6.764
 4920POPC   C3B62769  42.119  24.348   7.064
 4920POPC   C4B62770  42.145  24.323   7.364
 4921POPC   NC362771  19.829  37.645   5.564
 4921POPC   PO462772  19.801  37.680   5.864
 4921POPC   GL162773  19.794  37.682   6.164
 4921POPC   GL262774  19.856  37.545   6.164
 4921POPC   C1A62775  19.838  37.657   6.464
 4921POPC   D2A62776  19.799  37.635   6.764
 4921POPC   C3A62777  19.817  37.631   7.064
 4921POPC   C4A62778  19.881  37.638   7.364
 4921POPC   C1B62779  19.828  37.387   6.464
 4921POPC   C2B62780  19.838  37.478   6.764
 4921POPC   C3B62781  19.861  37.476   7.064
 4921POPC   C4B62782  19.790  37.414   7.364
 4922POPC   NC362783  31.482  42.313   5.564
 4922POPC   PO462784  31.456  42.319   5.864
 4922POPC   GL162785  31.464  42.333   6.164
 4922POPC   GL262786  31.568  42.255   6.164
 4922POPC   C1A62787  31.489  42.360   6.464
 4922POPC   D2A62788  31.423  42.342   6.764
 4922POPC   C3A62789  31.434  42.313   7.064
 4922POPC   C4A62790  31.448  42.305   7.364
 4922POPC   C1B62791  31.721  42.230   6.464
 4922POPC   C2B62792  31.740  42.218   6.764
 4922POPC   C3B62793  31.691  42.212   7.064
 4922POPC   C4B62794  31.681  42.186   7.364
 4923POPC   NC362795  43.065  40.770   5.564
 4923POPC   PO462796  43.076  40.780   5.864
 4923POPC   GL162797  43.069  40.785   6.164
 4923POPC   GL262798  43.026  40.889   6.164
 4923POPC   C1A62799  43.119  40.749   6.464
 4923POPC   D2A62800  43.133  40.764   6.764
 4923POPC   C3A62801  43.135  40.799   7.064
 4923POPC   C4A62802  43.069  40.830   7.364
 4923POPC   C1B62803  42.852  40.914   6.464
 4923POPC   C2B62804  42.874  40.871   6.764
 4923POPC   C3B62805  42.922  40.942   7.064
 4923POPC   C4B62806  42.880  40.945   7.364
 4924POPC   NC362807  21.388  43.104   5.564
 4924POPC   PO462808  21.374  43.125   5.864
 4924POPC   GL162809  21.390  43.136   6.164
 4924POPC   GL262810  21.231  43.156   6.164
 4924POPC   C1A62811  21.431  43.126   6.464
 4924POPC   D2A62812  21.388  43.140   6.764
 4924POPC   C3A62813  21.398  43.144   7.064
 4924POPC   C4A62814  21.365  43.155   7.364
 4924POPC   C1B62815  21.169  43.198   6.464
 4924POPC   C2B62816  21.212  43.224   6.764
 4924POPC   C3B62817  21.222  43.194   7.064
 4924POPC   C4B62818  21.139  43.266   7.364
 4925POPC   NC362819  15.134  12.113   5.564
 4925POPC   PO462820  15.162  12.107   5.864
 4925POPC   GL162821  15.218  12.089   6.164
 4925POPC   GL262822  15.256  12.207   6.164
 4925POPC   C1A62823  15.207  12.122   6.464
 4925POPC   D2A62824  15.140  12.124   6.764
 4925POPC   C3A62825  15.156  12.100   7.064
 4925POPC   C4A62826  15.176  12.029   7.364
 4925POPC   C1B62827  15.289  12.350   6.464
 4925POPC   C2B62828  15.266  12.344   6.764
 4925POPC   C3B62829  15.262  12.313   7.064
 4925POPC   C4B62830  15.257  12.288   7.364
 4926POPC   NC362831  24.518  19.074   5.564
 4926POPC   PO462832  24.509  19.075   5.864
 4926POPC   GL162833  24.536  19.097   6.164
 4926POPC   GL262834  24.439  19.194   6.164
 4926POPC   C1A62835  24.506  19.029   6.464
 4926POPC   D2A62836  24.525  19.104   6.764
 4926POPC   C3A62837  24.470  19.050   7.064
 4926POPC   C4A62838  24.487  19.036   7.364
 4926POPC   C1B62839  24.338  19.202   6.464
 4926POPC   C2B62840  24.298  19.224   6.764
 4926POPC   C3B62841  24.283  19.209   7.064
 4926POPC   C4B62842  24.321  19.269   7.364
 4927POPC   NC362843  43.133  30.704   5.564
 4927POPC   PO462844  43.088  30.723   5.864
 4927POPC   GL162845  43.065  30.701   6.164
 4927POPC   GL262846  43.164  30.785   6.164
 4927POPC   C1A62847  43.121  30.657   6.464
 4927POPC   D2A62848  43.069  30.663   6.764
 4927POPC   C3A62849  43.088  30.654   7.064
 4927POPC   C4A62850  43.064  30.675   7.364
 4927POPC   C1B62851  43.078  30.978   6.464
 4927POPC   C2B62852  43.131  30.904   6.764
 4927POPC   C3B62853  43.165  30.968   7.064
 4927POPC   C4B62854  43.141  30.903   7.364
 4928POPC   NC362855  13.631  43.865   5.564
 4928POPC   PO462856  13.620  43.906   5.864
 4928POPC   GL162857  13.668  43.908   6.164
 4928POPC   GL262858  13.650  43.754   6.164
 4928POPC   C1A62859  13.582  43.926   6.464
 4928POPC   D2A62860  13.652  43.917   6.764
 4928POPC   C3A62861  13.606  43.851   7.064
 4928POPC   C4A62862  13.646  43.887   7.364
 4928POPC   C1B62863  13.752  43.643   6.464
 4928POPC   C2B62864  13.772  43.623   6.764
 4928POPC   C3B62865  13.787  43.623   7.064
 4928POPC   C4B62866  13.757  43.699   7.364
 4929POPC   NC362867   9.716  43.091   5.564
 4929POPC   PO462868   9.716  43.128   5.864
 4929POPC   GL162869   9.796  43.121   6.164
 4929POPC   GL262870   9.673  43.224   6.164
 4929POPC   C1A62871   9.774  43.125   6.464
 4929POPC   D2A62872   9.756  43.094   6.764
 4929POPC   C3A62873   9.750  43.075   7.064
 4929POPC   C4A62874   9.758  43.078   7.364
 4929POPC   C1B62875   9.694  43.402   6.464
 4929POPC   C2B62876   9.715  43.351   6.764
 4929POPC   C3B62877   9.659  43.317   7.064
 4929POPC   C4B62878   9.716  43.345   7.364
 4930POPC   NC362879   8.985   9.712   5.564
 4930POPC   PO462880   8.999   9.747   5.864
 4930POPC   GL162881   9.022   9.715   6.164
 4930POPC   GL262882   8.836   9.764   6.164
 4930POPC   C1A62883   8.972   9.732   6.464
 4930POPC   D2A62884   8.937   9.737   6.764
 4930POPC   C3A62885   9.017   9.713   7.064
 4930POPC   C4A62886   8.939   9.775   7.364
 4930POPC   C1B62887   8.729   9.896   6.464
 4930POPC   C2B62888   8.729   9.850   6.764
 4930POPC   C3B62889   8.728   9.825   7.064
 4930POPC   C4B62890   8.742   9.816   7.364
 4931POPC   NC362891   4.332  26.835   5.564
 4931POPC   PO462892   4.277  26.787   5.864
 4931POPC   GL162893   4.338  26.845   6.164
 4931POPC   GL262894   4.377  26.678   6.164
 4931POPC   C1A62895   4.357  26.835   6.464
 4931POPC   D2A62896   4.311  26.794   6.764
 4931POPC   C3A62897   4.327  26.782   7.064
 4931POPC   C4A62898   4.282  26.865   7.364
 4931POPC   C1B62899   4.353  26.578   6.464
 4931POPC   C2B62900   4.375  26.572   6.764
 4931POPC   C3B62901   4.318  26.602   7.064
 4931POPC   C4B62902   4.311  26.576   7.364
 4932POPC   NC362903  16.701  35.386   5.564
 4932POPC   PO462904  16.713  35.392   5.864
 4932POPC   GL162905  16.729  35.311   6.164
 4932POPC   GL262906  16.887  35.331   6.164
 4932POPC   C1A62907  16.721  35.318   6.464
 4932POPC   D2A62908  16.723  35.376   6.764
 4932POPC   C3A62909  16.721  35.374   7.064
 4932POPC   C4A62910  16.753  35.398   7.364
 4932POPC   C1B62911  16.965  35.363   6.464
 4932POPC   C2B62912  16.977  35.393   6.764
 4932POPC   C3B62913  16.966  35.337   7.064
 4932POPC   C4B62914  17.002  35.336   7.364
 4933POPC   NC362915  13.588  36.911   5.564
 4933POPC   PO462916  13.671  36.931   5.864
 4933POPC   GL162917  13.624  36.923   6.164
 4933POPC   GL262918  13.541  36.953   6.164
 4933POPC   C1A62919  13.589  36.900   6.464
 4933POPC   D2A62920  13.644  36.946   6.764
 4933POPC   C3A62921  13.661  36.871   7.064
 4933POPC   C4A62922  13.663  36.874   7.364
 4933POPC   C1B62923  13.380  36.949   6.464
 4933POPC   C2B62924  13.399  36.903   6.764
 4933POPC   C3B62925  13.395  36.942   7.064
 4933POPC   C4B62926  13.354  36.877   7.364
 4934POPC   NC362927  36.107  25.277   5.564
 4934POPC   PO462928  36.158  25.301   5.864
 4934POPC   GL162929  36.163  25.248   6.164
 4934POPC   GL262930  36.096  25.358   6.164
 4934POPC   C1A62931  36.147  25.315   6.464
 4934POPC   D2A62932  36.103  25.233   6.764
 4934POPC   C3A62933  36.137  25.242   7.064
 4934POPC   C4A62934  36.098  25.238   7.364
 4934POPC   C1B62935  35.990  25.483   6.464
 4934POPC   C2B62936  36.056  25.535   6.764
 4934POPC   C3B62937  36.013  25.472   7.064
 4934POPC   C4B62938  36.005  25.521   7.364
 4935POPC   NC362939  16.686   8.220   5.564
 4935POPC   PO462940  16.739   8.209   5.864
 4935POPC   GL162941  16.689   8.200   6.164
 4935POPC   GL262942  16.664   8.149   6.164
 4935POPC   C1A62943  16.744   8.185   6.464
 4935POPC   D2A62944  16.706   8.202   6.764
 4935POPC   C3A62945  16.762   8.152   7.064
 4935POPC   C4A62946  16.771   8.186   7.364
 4935POPC   C1B62947  16.480   8.088   6.464
 4935POPC   C2B62948  16.543   8.077   6.764
 4935POPC   C3B62949  16.544   8.091   7.064
 4935POPC   C4B62950  16.525   8.027   7.364
 4936POPC   NC362951   8.204  43.086   5.564
 4936POPC   PO462952   8.168  43.084   5.864
 4936POPC   GL162953   8.148  43.130   6.164
 4936POPC   GL262954   8.158  43.017   6.164
 4936POPC   C1A62955   8.238  43.100   6.464
 4936POPC   D2A62956   8.179  43.095   6.764
 4936POPC   C3A62957   8.236  43.136   7.064
 4936POPC   C4A62958   8.160  43.071   7.364
 4936POPC   C1B62959   8.032  42.887   6.464
 4936POPC   C2B62960   8.094  42.859   6.764
 4936POPC   C3B62961   8.072  42.914   7.064
 4936POPC   C4B62962   8.083  42.901   7.364
 4937POPC   NC362963   8.194   0.445   5.564
 4937POPC   PO462964   8.230   0.477   5.864
 4937POPC   GL162965   8.238   0.414   6.164
 4937POPC   GL262966   8.339   0.369   6.164
 4937POPC   C1A62967   8.221   0.431   6.464
 4937POPC   D2A62968   8.235   0.443   6.764
 4937POPC   C3A62969   8.189   0.485   7.064
 4937POPC   C4A62970   8.209   0.444   7.364
 4937POPC   C1B62971   8.454   0.392   6.464
 4937POPC   C2B62972   8.406   0.361   6.764
 4937POPC   C3B62973   8.487   0.435   7.064
 4937POPC   C4B62974   8.425   0.430   7.364
 4938POPC   NC362975  17.547  40.004   5.564
 4938POPC   PO462976  17.507  40.016   5.864
 4938POPC   GL162977  17.522  40.027   6.164
 4938POPC   GL262978  17.499  40.154   6.164
 4938POPC   C1A62979  17.517  40.025   6.464
 4938POPC   D2A62980  17.474  39.958   6.764
 4938POPC   C3A62981  17.551  39.981   7.064
 4938POPC   C4A62982  17.506  40.050   7.364
 4938POPC   C1B62983  17.553  40.217   6.464
 4938POPC   C2B62984  17.570  40.269   6.764
 4938POPC   C3B62985  17.597  40.281   7.064
 4938POPC   C4B62986  17.563  40.290   7.364
 4939POPC   NC362987  35.362  12.840   5.564
 4939POPC   PO462988  35.351  12.823   5.864
 4939POPC   GL162989  35.328  12.893   6.164
 4939POPC   GL262990  35.236  12.887   6.164
 4939POPC   C1A62991  35.400  12.866   6.464
 4939POPC   D2A62992  35.361  12.802   6.764
 4939POPC   C3A62993  35.377  12.803   7.064
 4939POPC   C4A62994  35.361  12.832   7.364
 4939POPC   C1B62995  35.140  13.015   6.464
 4939POPC   C2B62996  35.189  12.961   6.764
 4939POPC   C3B62997  35.092  12.974   7.064
 4939POPC   C4B62998  35.184  13.027   7.364
 4940POPC   NC362999  12.839  17.498   5.564
 4940POPC   PO463000  12.819  17.485   5.864
 4940POPC   GL163001  12.871  17.495   6.164
 4940POPC   GL263002  12.957  17.579   6.164
 4940POPC   C1A63003  12.833  17.457   6.464
 4940POPC   D2A63004  12.859  17.516   6.764
 4940POPC   C3A63005  12.879  17.511   7.064
 4940POPC   C4A63006  12.869  17.505   7.364
 4940POPC   C1B63007  13.075  17.687   6.464
 4940POPC   C2B63008  13.052  17.666   6.764
 4940POPC   C3B63009  13.038  17.657   7.064
 4940POPC   C4B63010  13.059  17.631   7.364
 4941POPC   NC363011   4.332  44.614   5.564
 4941POPC   PO463012   4.289  44.684   5.864
 4941POPC   GL163013   4.282  44.691   6.164
 4941POPC   GL263014   4.477  44.664   6.164
 4941POPC   C1A63015   4.333  44.634   6.464
 4941POPC   D2A63016   4.297  44.650   6.764
 4941POPC   C3A63017   4.341  44.703   7.064
 4941POPC   C4A63018   4.323  44.658   7.364
 4941POPC   C1B63019   4.562  44.651   6.464
 4941POPC   C2B63020   4.576  44.577   6.764
 4941POPC   C3B63021   4.542  44.602   7.064
 4941POPC   C4B63022   4.547  44.587   7.364
 4942POPC   NC363023  37.651   5.823   5.564
 4942POPC   PO463024  37.706   5.898   5.864
 4942POPC   GL163025  37.706   5.819   6.164
 4942POPC   GL263026  37.741   5.988   6.164
 4942POPC   C1A63027  37.725   5.885   6.464
 4942POPC   D2A63028  37.661   5.910   6.764
 4942POPC   C3A63029  37.662   5.903   7.064
 4942POPC   C4A63030  37.644   5.885   7.364
 4942POPC   C1B63031  37.821   6.064   6.464
 4942POPC   C2B63032  37.855   6.087   6.764
 4942POPC   C3B63033  37.857   6.068   7.064
 4942POPC   C4B63034  37.834   6.112   7.364
 4943POPC   NC363035  32.276  21.392   5.564
 4943POPC   PO463036  32.244  21.368   5.864
 4943POPC   GL163037  32.245  21.337   6.164
 4943POPC   GL263038  32.376  21.448   6.164
 4943POPC   C1A63039  32.285  21.380   6.464
 4943POPC   D2A63040  32.274  21.377   6.764
 4943POPC   C3A63041  32.208  21.361   7.064
 4943POPC   C4A63042  32.261  21.387   7.364
 4943POPC   C1B63043  32.470  21.531   6.464
 4943POPC   C2B63044  32.492  21.539   6.764
 4943POPC   C3B63045  32.461  21.526   7.064
 4943POPC   C4B63046  32.441  21.478   7.364
 4944POPC   NC363047   2.775  21.371   5.564
 4944POPC   PO463048   2.804  21.343   5.864
 4944POPC   GL163049   2.720  21.420   6.164
 4944POPC   GL263050   2.852  21.423   6.164
 4944POPC   C1A63051   2.716  21.337   6.464
 4944POPC   D2A63052   2.725  21.365   6.764
 4944POPC   C3A63053   2.753  21.367   7.064
 4944POPC   C4A63054   2.755  21.405   7.364
 4944POPC   C1B63055   2.984  21.456   6.464
 4944POPC   C2B63056   2.973  21.454   6.764
 4944POPC   C3B63057   3.003  21.511   7.064
 4944POPC   C4B63058   2.999  21.535   7.364
 4945POPC   NC363059  22.951   8.158   5.564
 4945POPC   PO463060  22.962   8.173   5.864
 4945POPC   GL163061  22.981   8.221   6.164
 4945POPC   GL263062  23.063   8.129   6.164
 4945POPC   C1A63063  22.910   8.190   6.464
 4945POPC   D2A63064  22.972   8.156   6.764
 4945POPC   C3A63065  22.891   8.158   7.064
 4945POPC   C4A63066  22.916   8.233   7.364
 4945POPC   C1B63067  23.145   8.143   6.464
 4945POPC   C2B63068  23.163   8.065   6.764
 4945POPC   C3B63069  23.205   8.065   7.064
 4945POPC   C4B63070  23.142   8.117   7.364
 4946POPC   NC363071   5.865  43.917   5.564
 4946POPC   PO463072   5.881  43.935   5.864
 4946POPC   GL163073   5.830  43.917   6.164
 4946POPC   GL263074   5.807  43.838   6.164
 4946POPC   C1A63075   5.867  43.885   6.464
 4946POPC   D2A63076   5.871  43.858   6.764
 4946POPC   C3A63077   5.836  43.862   7.064
 4946POPC   C4A63078   5.907  43.927   7.364
 4946POPC   C1B63079   5.676  43.745   6.464
 4946POPC   C2B63080   5.642  43.724   6.764
 4946POPC   C3B63081   5.709  43.702   7.064
 4946POPC   C4B63082   5.676  43.747   7.364
 4947POPC   NC363083  27.608  20.658   5.564
 4947POPC   PO463084  27.639  20.602   5.864
 4947POPC   GL163085  27.621  20.566   6.164
 4947POPC   GL263086  27.534  20.696   6.164
 4947POPC   C1A63087  27.576  20.603   6.464
 4947POPC   D2A63088  27.593  20.657   6.764
 4947POPC   C3A63089  27.560  20.578   7.064
 4947POPC   C4A63090  27.569  20.613   7.364
 4947POPC   C1B63091  27.438  20.752   6.464
 4947POPC   C2B63092  27.442  20.755   6.764
 4947POPC   C3B63093  27.398  20.830   7.064
 4947POPC   C4B63094  27.385  20.808   7.364
 4948POPC   NC363095  21.369  18.267   5.564
 4948POPC   PO463096  21.344  18.250   5.864
 4948POPC   GL163097  21.402  18.270   6.164
 4948POPC   GL263098  21.522  18.374   6.164
 4948POPC   C1A63099  21.377  18.322   6.464
 4948POPC   D2A63100  21.427  18.324   6.764
 4948POPC   C3A63101  21.347  18.270   7.064
 4948POPC   C4A63102  21.422  18.243   7.364
 4948POPC   C1B63103  21.558  18.405   6.464
 4948POPC   C2B63104  21.602  18.399   6.764
 4948POPC   C3B63105  21.618  18.479   7.064
 4948POPC   C4B63106  21.566  18.451   7.364
 4949POPC   NC363107  26.844  25.293   5.564
 4949POPC   PO463108  26.785  25.282   5.864
 4949POPC   GL163109  26.825  25.301   6.164
 4949POPC   GL263110  26.890  25.215   6.164
 4949POPC   C1A63111  26.832  25.241   6.464
 4949POPC   D2A63112  26.796  25.254   6.764
 4949POPC   C3A63113  26.786  25.278   7.064
 4949POPC   C4A63114  26.785  25.276   7.364
 4949POPC   C1B63115  27.031  25.116   6.464
 4949POPC   C2B63116  26.994  25.120   6.764
 4949POPC   C3B63117  27.026  25.185   7.064
 4949POPC   C4B63118  27.000  25.107   7.364
 4950POPC   NC363119  13.652  29.141   5.564
 4950POPC   PO463120  13.656  29.130   5.864
 4950POPC   GL163121  13.644  29.175   6.164
 4950POPC   GL263122  13.576  29.213   6.164
 4950POPC   C1A63123  13.634  29.145   6.464
 4950POPC   D2A63124  13.612  29.170   6.764
 4950POPC   C3A63125  13.635  29.096   7.064
 4950POPC   C4A63126  13.630  29.160   7.364
 4950POPC   C1B63127  13.504  29.422   6.464
 4950POPC   C2B63128  13.493  29.375   6.764
 4950POPC   C3B63129  13.536  29.341   7.064
 4950POPC   C4B63130  13.503  29.416   7.364
 4951POPC   NC363131  29.900   7.448   5.564
 4951POPC   PO463132  29.885   7.412   5.864
 4951POPC   GL163133  29.970   7.436   6.164
 4951POPC   GL263134  30.032   7.531   6.164
 4951POPC   C1A63135  29.964   7.459   6.464
 4951POPC   D2A63136  29.885   7.419   6.764
 4951POPC   C3A63137  29.946   7.391   7.064
 4951POPC   C4A63138  29.961   7.433   7.364
 4951POPC   C1B63139  30.098   7.643   6.464
 4951POPC   C2B63140  30.095   7.601   6.764
 4951POPC   C3B63141  30.023   7.580   7.064
 4951POPC   C4B63142  30.100   7.597   7.364
 4952POPC   NC363143  29.166   0.441   5.564
 4952POPC   PO463144  29.183   0.469   5.864
 4952POPC   GL163145  29.145   0.443   6.164
 4952POPC   GL263146  29.165   0.594   6.164
 4952POPC   C1A63147  29.161   0.402   6.464
 4952POPC   D2A63148  29.178   0.482   6.764
 4952POPC   C3A63149  29.103   0.447   7.064
 4952POPC   C4A63150  29.101   0.405   7.364
 4952POPC   C1B63151  29.121   0.702   6.464
 4952POPC   C2B63152  29.115   0.637   6.764
 4952POPC   C3B63153  29.131   0.663   7.064
 4952POPC   C4B63154  29.078   0.640   7.364
 4953POPC   NC363155   5.052   1.222   5.564
 4953POPC   PO463156   5.050   1.200   5.864
 4953POPC   GL163157   5.105   1.255   6.164
 4953POPC   GL263158   4.995   1.279   6.164
 4953POPC   C1A63159   5.100   1.247   6.464
 4953POPC   D2A63160   5.072   1.232   6.764
 4953POPC   C3A63161   5.060   1.211   7.064
 4953POPC   C4A63162   5.113   1.197   7.364
 4953POPC   C1B63163   4.857   1.288   6.464
 4953POPC   C2B63164   4.891   1.256   6.764
 4953POPC   C3B63165   4.875   1.227   7.064
 4953POPC   C4B63166   4.860   1.268   7.364
 4954POPC   NC363167   4.354  18.235   5.564
 4954POPC   PO463168   4.267  18.286   5.864
 4954POPC   GL163169   4.339  18.257   6.164
 4954POPC   GL263170   4.252  18.192   6.164
 4954POPC   C1A63171   4.295  18.297   6.464
 4954POPC   D2A63172   4.289  18.287   6.764
 4954POPC   C3A63173   4.328  18.253   7.064
 4954POPC   C4A63174   4.288  18.322   7.364
 4954POPC   C1B63175   4.166  18.135   6.464
 4954POPC   C2B63176   4.090  18.090   6.764
 4954POPC   C3B63177   4.147  18.115   7.064
 4954POPC   C4B63178   4.126  18.098   7.364
 4955POPC   NC363179  33.846  30.654   5.564
 4955POPC   PO463180  33.833  30.715   5.864
 4955POPC   GL163181  33.767  30.676   6.164
 4955POPC   GL263182  33.926  30.560   6.164
 4955POPC   C1A63183  33.768  30.649   6.464
 4955POPC   D2A63184  33.832  30.738   6.764
 4955POPC   C3A63185  33.830  30.699   7.064
 4955POPC   C4A63186  33.789  30.686   7.364
 4955POPC   C1B63187  34.004  30.506   6.464
 4955POPC   C2B63188  33.951  30.478   6.764
 4955POPC   C3B63189  33.988  30.480   7.064
 4955POPC   C4B63190  33.966  30.565   7.364
 4956POPC   NC363191  41.581  12.810   5.564
 4956POPC   PO463192  41.537  12.874   5.864
 4956POPC   GL163193  41.513  12.818   6.164
 4956POPC   GL263194  41.457  12.794   6.164
 4956POPC   C1A63195  41.539  12.869   6.464
 4956POPC   D2A63196  41.565  12.875   6.764
 4956POPC   C3A63197  41.527  12.869   7.064
 4956POPC   C4A63198  41.512  12.875   7.364
 4956POPC   C1B63199  41.317  12.789   6.464
 4956POPC   C2B63200  41.327  12.758   6.764
 4956POPC   C3B63201  41.301  12.783   7.064
 4956POPC   C4B63202  41.317  12.713   7.364
 4957POPC   NC363203  12.034   5.045   5.564
 4957POPC   PO463204  12.125   5.065   5.864
 4957POPC   GL163205  12.092   5.131   6.164
 4957POPC   GL263206  12.141   5.038   6.164
 4957POPC   C1A63207  12.086   5.135   6.464
 4957POPC   D2A63208  12.090   5.054   6.764
 4957POPC   C3A63209  12.078   5.086   7.064
 4957POPC   C4A63210  12.057   5.090   7.364
 4957POPC   C1B63211  12.306   4.998   6.464
 4957POPC   C2B63212  12.325   4.946   6.764
 4957POPC   C3B63213  12.254   5.017   7.064
 4957POPC   C4B63214  12.253   4.977   7.364
 4958POPC   NC363215  22.190  36.123   5.564
 4958POPC   PO463216  22.164  36.140   5.864
 4958POPC   GL163217  22.145  36.153   6.164
 4958POPC   GL263218  22.229  35.975   6.164
 4958POPC   C1A63219  22.144  36.079   6.464
 4958POPC   D2A63220  22.125  36.177   6.764
 4958POPC   C3A63221  22.191  36.170   7.064
 4958POPC   C4A63222  22.119  36.145   7.364
 4958POPC   C1B63223  22.201  35.923   6.464
 4958POPC   C2B63224  22.175  35.855   6.764
 4958POPC   C3B63225  22.227  35.909   7.064
 4958POPC   C4B63226  22.187  35.923   7.364
 4959POPC   NC363227  36.144   7.372   5.564
 4959POPC   PO463228  36.104   7.455   5.864
 4959POPC   GL163229  36.149   7.433   6.164
 4959POPC   GL263230  36.165   7.536   6.164
 4959POPC   C1A63231  36.148   7.449   6.464
 4959POPC   D2A63232  36.164   7.376   6.764
 4959POPC   C3A63233  36.169   7.434   7.064
 4959POPC   C4A63234  36.106   7.425   7.364
 4959POPC   C1B63235  36.278   7.585   6.464
 4959POPC   C2B63236  36.242   7.660   6.764
 4959POPC   C3B63237  36.291   7.675   7.064
 4959POPC   C4B63238  36.282   7.606   7.364
 4960POPC   NC363239  39.995  39.186   5.564
 4960POPC   PO463240  40.046  39.194   5.864
 4960POPC   GL163241  40.034  39.254   6.164
 4960POPC   GL263242  40.002  39.078   6.164
 4960POPC   C1A63243  39.971  39.238   6.464
 4960POPC   D2A63244  40.024  39.236   6.764
 4960POPC   C3A63245  39.968  39.181   7.064
 4960POPC   C4A63246  39.969  39.230   7.364
 4960POPC   C1B63247  39.916  38.980   6.464
 4960POPC   C2B63248  39.875  39.025   6.764
 4960POPC   C3B63249  39.953  39.001   7.064
 4960POPC   C4B63250  39.972  39.021   7.364
 4961POPC   NC363251  22.209  23.739   5.564
 4961POPC   PO463252  22.173  23.761   5.864
 4961POPC   GL163253  22.165  23.720   6.164
 4961POPC   GL263254  22.239  23.649   6.164
 4961POPC   C1A63255  22.157  23.728   6.464
 4961POPC   D2A63256  22.190  23.675   6.764
 4961POPC   C3A63257  22.154  23.666   7.064
 4961POPC   C4A63258  22.133  23.711   7.364
 4961POPC   C1B63259  22.441  23.709   6.464
 4961POPC   C2B63260  22.441  23.615   6.764
 4961POPC   C3B63261  22.430  23.620   7.064
 4961POPC   C4B63262  22.388  23.672   7.364
 4962POPC   NC363263  21.433  36.924   5.564
 4962POPC   PO463264  21.412  36.885   5.864
 4962POPC   GL163265  21.373  36.948   6.164
 4962POPC   GL263266  21.468  36.957   6.164
 4962POPC   C1A63267  21.417  36.943   6.464
 4962POPC   D2A63268  21.382  36.899   6.764
 4962POPC   C3A63269  21.367  36.877   7.064
 4962POPC   C4A63270  21.403  36.871   7.364
 4962POPC   C1B63271  21.558  37.140   6.464
 4962POPC   C2B63272  21.579  37.097   6.764
 4962POPC   C3B63273  21.537  37.135   7.064
 4962POPC   C4B63274  21.518  37.144   7.364
 4963POPC   NC363275   5.090  35.332   5.564
 4963POPC   PO463276   5.130  35.366   5.864
 4963POPC   GL163277   5.077  35.322   6.164
 4963POPC   GL263278   5.001  35.422   6.164
 4963POPC   C1A63279   5.090  35.320   6.464
 4963POPC   D2A63280   5.075  35.317   6.764
 4963POPC   C3A63281   5.051  35.372   7.064
 4963POPC   C4A63282   5.051  35.326   7.364
 4963POPC   C1B63283   4.833  35.469   6.464
 4963POPC   C2B63284   4.900  35.502   6.764
 4963POPC   C3B63285   4.879  35.483   7.064
 4963POPC   C4B63286   4.914  35.503   7.364
 4964POPC   NC363287  32.241  12.899   5.564
 4964POPC   PO463288  32.200  12.889   5.864
 4964POPC   GL163289  32.214  12.893   6.164
 4964POPC   GL263290  32.251  12.948   6.164
 4964POPC   C1A63291  32.270  12.818   6.464
 4964POPC   D2A63292  32.266  12.873   6.764
 4964POPC   C3A63293  32.243  12.821   7.064
 4964POPC   C4A63294  32.271  12.885   7.364
 4964POPC   C1B63295  32.194  13.060   6.464
 4964POPC   C2B63296  32.184  13.068   6.764
 4964POPC   C3B63297  32.134  13.060   7.064
 4964POPC   C4B63298  32.155  13.052   7.364
 4965POPC   NC363299  12.093  40.744   5.564
 4965POPC   PO463300  12.059  40.817   5.864
 4965POPC   GL163301  12.110  40.734   6.164
 4965POPC   GL263302  12.136  40.847   6.164
 4965POPC   C1A63303  12.119  40.812   6.464
 4965POPC   D2A63304  12.107  40.743   6.764
 4965POPC   C3A63305  12.035  40.754   7.064
 4965POPC   C4A63306  12.118  40.777   7.364
 4965POPC   C1B63307  12.320  40.913   6.464
 4965POPC   C2B63308  12.273  40.964   6.764
 4965POPC   C3B63309  12.269  40.881   7.064
 4965POPC   C4B63310  12.249  40.891   7.364
 4966POPC   NC363311  42.312  33.774   5.564
 4966POPC   PO463312  42.312  33.819   5.864
 4966POPC   GL163313  42.286  33.794   6.164
 4966POPC   GL263314  42.304  33.911   6.164
 4966POPC   C1A63315  42.304  33.773   6.464
 4966POPC   D2A63316  42.366  33.756   6.764
 4966POPC   C3A63317  42.367  33.789   7.064
 4966POPC   C4A63318  42.347  33.752   7.364
 4966POPC   C1B63319  42.261  34.072   6.464
 4966POPC   C2B63320  42.285  34.038   6.764
 4966POPC   C3B63321  42.283  34.050   7.064
 4966POPC   C4B63322  42.261  34.010   7.364
 4967POPC   NC363323  22.985  22.932   5.564
 4967POPC   PO463324  22.978  22.955   5.864
 4967POPC   GL163325  22.983  22.939   6.164
 4967POPC   GL263326  23.044  22.982   6.164
 4967POPC   C1A63327  22.960  22.889   6.464
 4967POPC   D2A63328  22.950  22.910   6.764
 4967POPC   C3A63329  22.932  22.957   7.064
 4967POPC   C4A63330  22.953  22.955   7.364
 4967POPC   C1B63331  23.168  22.971   6.464
 4967POPC   C2B63332  23.155  23.000   6.764
 4967POPC   C3B63333  23.169  22.950   7.064
 4967POPC   C4B63334  23.209  23.000   7.364
 4968POPC   NC363335  43.123  39.213   5.564
 4968POPC   PO463336  43.147  39.239   5.864
 4968POPC   GL163337  43.146  39.263   6.164
 4968POPC   GL263338  43.012  39.125   6.164
 4968POPC   C1A63339  43.115  39.247   6.464
 4968POPC   D2A63340  43.157  39.190   6.764
 4968POPC   C3A63341  43.143  39.191   7.064
 4968POPC   C4A63342  43.142  39.203   7.364
 4968POPC   C1B63343  42.994  39.007   6.464
 4968POPC   C2B63344  42.991  39.063   6.764
 4968POPC   C3B63345  42.950  38.996   7.064
 4968POPC   C4B63346  42.931  38.990   7.364
 4969POPC   NC363347  38.450   9.791   5.564
 4969POPC   PO463348  38.475   9.706   5.864
 4969POPC   GL163349  38.412   9.784   6.164
 4969POPC   GL263350  38.347   9.680   6.164
 4969POPC   C1A63351  38.477   9.738   6.464
 4969POPC   D2A63352  38.430   9.742   6.764
 4969POPC   C3A63353  38.477   9.736   7.064
 4969POPC   C4A63354  38.468   9.705   7.364
 4969POPC   C1B63355  38.325   9.565   6.464
 4969POPC   C2B63356  38.286   9.577   6.764
 4969POPC   C3B63357  38.370   9.569   7.064
 4969POPC   C4B63358  38.308   9.533   7.364
 4970POPC   NC363359  29.096  15.992   5.564
 4970POPC   PO463360  29.159  15.911   5.864
 4970POPC   GL163361  29.169  15.986   6.164
 4970POPC   GL263362  29.020  15.930   6.164
 4970POPC   C1A63363  29.119  15.969   6.464
 4970POPC   D2A63364  29.144  15.914   6.764
 4970POPC   C3A63365  29.147  15.994   7.064
 4970POPC   C4A63366  29.150  15.987   7.364
 4970POPC   C1B63367  28.939  15.840   6.464
 4970POPC   C2B63368  28.942  15.810   6.764
 4970POPC   C3B63369  28.936  15.850   7.064
 4970POPC   C4B63370  28.959  15.847   7.364
 4971POPC   NC363371  37.682  13.670   5.564
 4971POPC   PO463372  37.702  13.663   5.864
 4971POPC   GL163373  37.650  13.590   6.164
 4971POPC   GL263374  37.790  13.608   6.164
 4971POPC   C1A63375  37.655  13.593   6.464
 4971POPC   D2A63376  37.686  13.618   6.764
 4971POPC   C3A63377  37.651  13.652   7.064
 4971POPC   C4A63378  37.714  13.620   7.364
 4971POPC   C1B63379  37.928  13.689   6.464
 4971POPC   C2B63380  37.970  13.675   6.764
 4971POPC   C3B63381  37.893  13.620   7.064
 4971POPC   C4B63382  37.896  13.648   7.364
 4972POPC   NC363383   5.859  28.348   5.564
 4972POPC   PO463384   5.831  28.419   5.864
 4972POPC   GL163385   5.910  28.376   6.164
 4972POPC   GL263386   5.898  28.316   6.164
 4972POPC   C1A63387   5.877  28.345   6.464
 4972POPC   D2A63388   5.866  28.368   6.764
 4972POPC   C3A63389   5.846  28.370   7.064
 4972POPC   C4A63390   5.826  28.380   7.364
 4972POPC   C1B63391   6.052  28.209   6.464
 4972POPC   C2B63392   5.975  28.199   6.764
 4972POPC   C3B63393   5.973  28.118   7.064
 4972POPC   C4B63394   6.009  28.119   7.364
 4973POPC   NC363395  28.413  30.701   5.564
 4973POPC   PO463396  28.324  30.693   5.864
 4973POPC   GL163397  28.361  30.738   6.164
 4973POPC   GL263398  28.387  30.554   6.164
 4973POPC   C1A63399  28.373  30.718   6.464
 4973POPC   D2A63400  28.400  30.669   6.764
 4973POPC   C3A63401  28.375  30.647   7.064
 4973POPC   C4A63402  28.399  30.703   7.364
 4973POPC   C1B63403  28.302  30.480   6.464
 4973POPC   C2B63404  28.334  30.429   6.764
 4973POPC   C3B63405  28.334  30.478   7.064
 4973POPC   C4B63406  28.319  30.478   7.364
 4974POPC   NC363407  13.633  26.847   5.564
 4974POPC   PO463408  13.617  26.829   5.864
 4974POPC   GL163409  13.673  26.830   6.164
 4974POPC   GL263410  13.581  26.696   6.164
 4974POPC   C1A63411  13.639  26.799   6.464
 4974POPC   D2A63412  13.636  26.823   6.764
 4974POPC   C3A63413  13.585  26.777   7.064
 4974POPC   C4A63414  13.631  26.802   7.364
 4974POPC   C1B63415  13.427  26.650   6.464
 4974POPC   C2B63416  13.417  26.593   6.764
 4974POPC   C3B63417  13.455  26.647   7.064
 4974POPC   C4B63418  13.456  26.664   7.364
 4975POPC   NC363419   7.379  23.677   5.564
 4975POPC   PO463420   7.409  23.665   5.864
 4975POPC   GL163421   7.417  23.754   6.164
 4975POPC   GL263422   7.492  23.795   6.164
 4975POPC   C1A63423   7.430  23.716   6.464
 4975POPC   D2A63424   7.460  23.677   6.764
 4975POPC   C3A63425   7.450  23.748   7.064
 4975POPC   C4A63426   7.391  23.744   7.364
 4975POPC   C1B63427   7.507  23.980   6.464
 4975POPC   C2B63428   7.572  23.971   6.764
 4975POPC   C3B63429   7.518  23.910   7.064
 4975POPC   C4B63430   7.514  23.892   7.364
 4976POPC   NC363431   1.166  11.321   5.564
 4976POPC   PO463432   1.203  11.269   5.864
 4976POPC   GL163433   1.168  11.294   6.164
 4976POPC   GL263434   1.358  11.322   6.164
 4976POPC   C1A63435   1.226  11.305   6.464
 4976POPC   D2A63436   1.264  11.329   6.764
 4976POPC   C3A63437   1.196  11.327   7.064
 4976POPC   C4A63438   1.228  11.318   7.364
 4976POPC   C1B63439   1.428  11.323   6.464
 4976POPC   C2B63440   1.427  11.315   6.764
 4976POPC   C3B63441   1.448  11.230   7.064
 4976POPC   C4B63442   1.468  11.239   7.364
 4977POPC   NC363443   8.212  30.664   5.564
 4977POPC   PO463444   8.190  30.703   5.864
 4977POPC   GL163445   8.227  30.718   6.164
 4977POPC   GL263446   8.322  30.612   6.164
 4977POPC   C1A63447   8.154  30.681   6.464
 4977POPC   D2A63448   8.176  30.746   6.764
 4977POPC   C3A63449   8.197  30.660   7.064
 4977POPC   C4A63450   8.220  30.695   7.364
 4977POPC   C1B63451   8.415  30.651   6.464
 4977POPC   C2B63452   8.386  30.636   6.764
 4977POPC   C3B63453   8.456  30.575   7.064
 4977POPC   C4B63454   8.380  30.594   7.364
 4978POPC   NC363455  36.896  17.479   5.564
 4978POPC   PO463456  36.932  17.510   5.864
 4978POPC   GL163457  36.885  17.513   6.164
 4978POPC   GL263458  36.898  17.386   6.164
 4978POPC   C1A63459  36.884  17.540   6.464
 4978POPC   D2A63460  36.854  17.545   6.764
 4978POPC   C3A63461  36.878  17.484   7.064
 4978POPC   C4A63462  36.913  17.472   7.364
 4978POPC   C1B63463  36.965  17.319   6.464
 4978POPC   C2B63464  36.982  17.231   6.764
 4978POPC   C3B63465  36.942  17.262   7.064
 4978POPC   C4B63466  37.006  17.301   7.364
 4979POPC   NC363467  33.070  12.029   5.564
 4979POPC   PO463468  33.038  12.052   5.864
 4979POPC   GL163469  33.019  12.109   6.164
 4979POPC   GL263470  32.874  12.055   6.164
 4979POPC   C1A63471  33.042  12.072   6.464
 4979POPC   D2A63472  33.059  12.105   6.764
 4979POPC   C3A63473  33.008  12.079   7.064
 4979POPC   C4A63474  33.019  12.073   7.364
 4979POPC   C1B63475  32.762  12.028   6.464
 4979POPC   C2B63476  32.808  12.073   6.764
 4979POPC   C3B63477  32.782  12.021   7.064
 4979POPC   C4B63478  32.803  12.056   7.364
 4980POPC   NC363479  32.287  12.060   5.564
 4980POPC   PO463480  32.198  12.104   5.864
 4980POPC   GL163481  32.261  12.089   6.164
 4980POPC   GL263482  32.265  11.931   6.164
 4980POPC   C1A63483  32.239  12.113   6.464
 4980POPC   D2A63484  32.257  12.030   6.764
 4980POPC   C3A63485  32.234  12.091   7.064
 4980POPC   C4A63486  32.219  12.086   7.364
 4980POPC   C1B63487  32.272  11.867   6.464
 4980POPC   C2B63488  32.305  11.792   6.764
 4980POPC   C3B63489  32.328  11.833   7.064
 4980POPC   C4B63490  32.343  11.865   7.364
 4981POPC   NC363491  15.963  27.564   5.564
 4981POPC   PO463492  15.971  27.578   5.864
 4981POPC   GL163493  15.975  27.633   6.164
 4981POPC   GL263494  15.971  27.699   6.164
 4981POPC   C1A63495  15.979  27.580   6.464
 4981POPC   D2A63496  15.981  27.620   6.764
 4981POPC   C3A63497  15.923  27.606   7.064
 4981POPC   C4A63498  15.958  27.608   7.364
 4981POPC   C1B63499  16.059  27.848   6.464
 4981POPC   C2B63500  16.117  27.837   6.764
 4981POPC   C3B63501  16.020  27.857   7.064
 4981POPC   C4B63502  16.117  27.780   7.364
 4982POPC   NC363503  43.889   3.563   5.564
 4982POPC   PO463504  43.839   3.531   5.864
 4982POPC   GL163505  43.889   3.502   6.164
 4982POPC   GL263506  43.945   3.380   6.164
 4982POPC   C1A63507  43.903   3.517   6.464
 4982POPC   D2A63508  43.910   3.583   6.764
 4982POPC   C3A63509  43.919   3.539   7.064
 4982POPC   C4A63510  43.837   3.591   7.364
 4982POPC   C1B63511  43.957   3.305   6.464
 4982POPC   C2B63512  43.913   3.295   6.764
 4982POPC   C3B63513  43.874   3.259   7.064
 4982POPC   C4B63514  43.938   3.342   7.364
 4983POPC   NC363515  22.982  28.347   5.564
 4983POPC   PO463516  22.916  28.356   5.864
 4983POPC   GL163517  22.937  28.361   6.164
 4983POPC   GL263518  23.062  28.446   6.164
 4983POPC   C1A63519  22.956  28.396   6.464
 4983POPC   D2A63520  22.897  28.392   6.764
 4983POPC   C3A63521  22.892  28.326   7.064
 4983POPC   C4A63522  22.956  28.400   7.364
 4983POPC   C1B63523  23.141  28.532   6.464
 4983POPC   C2B63524  23.107  28.523   6.764
 4983POPC   C3B63525  23.145  28.573   7.064
 4983POPC   C4B63526  23.114  28.506   7.364
 4984POPC   NC363527  29.966  26.794   5.564
 4984POPC   PO463528  29.943  26.793   5.864
 4984POPC   GL163529  29.934  26.790   6.164
 4984POPC   GL263530  29.964  26.698   6.164
 4984POPC   C1A63531  29.968  26.775   6.464
 4984POPC   D2A63532  29.951  26.826   6.764
 4984POPC   C3A63533  29.960  26.778   7.064
 4984POPC   C4A63534  29.884  26.855   7.364
 4984POPC   C1B63535  29.967  26.552   6.464
 4984POPC   C2B63536  29.955  26.609   6.764
 4984POPC   C3B63537  29.923  26.578   7.064
 4984POPC   C4B63538  29.952  26.538   7.364
 4985POPC   NC363539  33.004  40.762   5.564
 4985POPC   PO463540  33.053  40.809   5.864
 4985POPC   GL163541  32.975  40.782   6.164
 4985POPC   GL263542  32.908  40.758   6.164
 4985POPC   C1A63543  33.046  40.815   6.464
 4985POPC   D2A63544  33.012  40.738   6.764
 4985POPC   C3A63545  33.002  40.814   7.064
 4985POPC   C4A63546  33.056  40.755   7.364
 4985POPC   C1B63547  32.754  40.844   6.464
 4985POPC   C2B63548  32.790  40.799   6.764
 4985POPC   C3B63549  32.820  40.877   7.064
 4985POPC   C4B63550  32.769  40.879   7.364
 4986POPC   NC363551  33.042  24.540   5.564
 4986POPC   PO463552  33.061  24.490   5.864
 4986POPC   GL163553  33.002  24.526   6.164
 4986POPC   GL263554  33.155  24.483   6.164
 4986POPC   C1A63555  33.027  24.486   6.464
 4986POPC   D2A63556  33.056  24.505   6.764
 4986POPC   C3A63557  33.006  24.536   7.064
 4986POPC   C4A63558  32.999  24.488   7.364
 4986POPC   C1B63559  33.304  24.521   6.464
 4986POPC   C2B63560  33.243  24.516   6.764
 4986POPC   C3B63561  33.297  24.498   7.064
 4986POPC   C4B63562  33.290  24.519   7.364
 4987POPC   NC363563  26.781  20.610   5.564
 4987POPC   PO463564  26.822  20.585   5.864
 4987POPC   GL163565  26.866  20.642   6.164
 4987POPC   GL263566  26.673  20.717   6.164
 4987POPC   C1A63567  26.797  20.599   6.464
 4987POPC   D2A63568  26.839  20.587   6.764
 4987POPC   C3A63569  26.773  20.580   7.064
 4987POPC   C4A63570  26.779  20.615   7.364
 4987POPC   C1B63571  26.613  20.799   6.464
 4987POPC   C2B63572  26.618  20.793   6.764
 4987POPC   C3B63573  26.671  20.802   7.064
 4987POPC   C4B63574  26.633  20.727   7.364
 4988POPC   NC363575   3.536  15.957   5.564
 4988POPC   PO463576   3.545  15.971   5.864
 4988POPC   GL163577   3.524  15.972   6.164
 4988POPC   GL263578   3.681  15.968   6.164
 4988POPC   C1A63579   3.499  15.914   6.464
 4988POPC   D2A63580   3.497  15.956   6.764
 4988POPC   C3A63581   3.504  15.967   7.064
 4988POPC   C4A63582   3.560  15.968   7.364
 4988POPC   C1B63583   3.795  15.883   6.464
 4988POPC   C2B63584   3.813  15.944   6.764
 4988POPC   C3B63585   3.823  15.933   7.064
 4988POPC   C4B63586   3.814  15.864   7.364
 4989POPC   NC363587  24.533  32.209   5.564
 4989POPC   PO463588  24.532  32.265   5.864
 4989POPC   GL163589  24.516  32.224   6.164
 4989POPC   GL263590  24.413  32.221   6.164
 4989POPC   C1A63591  24.511  32.221   6.464
 4989POPC   D2A63592  24.521  32.243   6.764
 4989POPC   C3A63593  24.521  32.266   7.064
 4989POPC   C4A63594  24.487  32.232   7.364
 4989POPC   C1B63595  24.299  32.142   6.464
 4989POPC   C2B63596  24.305  32.136   6.764
 4989POPC   C3B63597  24.264  32.195   7.064
 4989POPC   C4B63598  24.266  32.188   7.364
 4990POPC   NC363599   1.995  29.107   5.564
 4990POPC   PO463600   1.955  29.112   5.864
 4990POPC   GL163601   2.001  29.135   6.164
 4990POPC   GL263602   1.935  29.078   6.164
 4990POPC   C1A63603   2.036  29.113   6.464
 4990POPC   D2A63604   1.963  29.108   6.764
 4990POPC   C3A63605   2.006  29.152   7.064
 4990POPC   C4A63606   1.987  29.184   7.364
 4990POPC   C1B63607   1.935  28.953   6.464
 4990POPC   C2B63608   1.876  28.943   6.764
 4990POPC   C3B63609   1.860  28.863   7.064
 4990POPC   C4B63610   1.871  28.877   7.364
 4991POPC   NC363611  26.078  19.853   5.564
 4991POPC   PO463612  25.995  19.813   5.864
 4991POPC   GL163613  26.026  19.871   6.164
 4991POPC   GL263614  26.198  19.807   6.164
 4991POPC   C1A63615  26.004  19.817   6.464
 4991POPC   D2A63616  26.049  19.867   6.764
 4991POPC   C3A63617  26.042  19.852   7.064
 4991POPC   C4A63618  25.996  19.878   7.364
 4991POPC   C1B63619  26.248  19.826   6.464
 4991POPC   C2B63620  26.332  19.788   6.764
 4991POPC   C3B63621  26.321  19.825   7.064
 4991POPC   C4B63622  26.322  19.753   7.364
 4992POPC   NC363623   1.996  29.962   5.564
 4992POPC   PO463624   2.018  29.882   5.864
 4992POPC   GL163625   1.992  29.895   6.164
 4992POPC   GL263626   2.093  29.983   6.164
 4992POPC   C1A63627   2.005  29.908   6.464
 4992POPC   D2A63628   2.009  29.948   6.764
 4992POPC   C3A63629   1.948  29.918   7.064
 4992POPC   C4A63630   2.000  29.878   7.364
 4992POPC   C1B63631   2.170  30.098   6.464
 4992POPC   C2B63632   2.220  30.002   6.764
 4992POPC   C3B63633   2.229  30.017   7.064
 4992POPC   C4B63634   2.246  30.048   7.364
 4993POPC   NC363635  32.218  32.256   5.564
 4993POPC   PO463636  32.199  32.223   5.864
 4993POPC   GL163637  32.257  32.209   6.164
 4993POPC   GL263638  32.135  32.139   6.164
 4993POPC   C1A63639  32.243  32.199   6.464
 4993POPC   D2A63640  32.251  32.296   6.764
 4993POPC   C3A63641  32.210  32.241   7.064
 4993POPC   C4A63642  32.280  32.280   7.364
 4993POPC   C1B63643  32.009  32.061   6.464
 4993POPC   C2B63644  32.015  32.098   6.764
 4993POPC   C3B63645  32.067  32.131   7.064
 4993POPC   C4B63646  32.050  32.107   7.364
 4994POPC   NC363647  27.595  17.484   5.564
 4994POPC   PO463648  27.577  17.463   5.864
 4994POPC   GL163649  27.633  17.501   6.164
 4994POPC   GL263650  27.528  17.432   6.164
 4994POPC   C1A63651  27.613  17.483   6.464
 4994POPC   D2A63652  27.622  17.517   6.764
 4994POPC   C3A63653  27.621  17.537   7.064
 4994POPC   C4A63654  27.577  17.476   7.364
 4994POPC   C1B63655  27.420  17.377   6.464
 4994POPC   C2B63656  27.414  17.405   6.764
 4994POPC   C3B63657  27.373  17.349   7.064
 4994POPC   C4B63658  27.420  17.381   7.364
 4995POPC   NC363659  22.959  19.018   5.564
 4995POPC   PO463660  22.923  19.060   5.864
 4995POPC   GL163661  22.971  19.100   6.164
 4995POPC   GL263662  22.933  19.142   6.164
 4995POPC   C1A63663  22.894  19.055   6.464
 4995POPC   D2A63664  22.902  19.096   6.764
 4995POPC   C3A63665  22.986  19.096   7.064
 4995POPC   C4A63666  22.961  19.071   7.364
 4995POPC   C1B63667  22.913  19.271   6.464
 4995POPC   C2B63668  22.982  19.290   6.764
 4995POPC   C3B63669  22.974  19.309   7.064
 4995POPC   C4B63670  22.989  19.319   7.364
 4996POPC   NC363671  43.088  11.268   5.564
 4996POPC   PO463672  43.136  11.260   5.864
 4996POPC   GL163673  43.149  11.338   6.164
 4996POPC   GL263674  43.268  11.321   6.164
 4996POPC   C1A63675  43.068  11.269   6.464
 4996POPC   D2A63676  43.100  11.331   6.764
 4996POPC   C3A63677  43.100  11.282   7.064
 4996POPC   C4A63678  43.092  11.327   7.364
 4996POPC   C1B63679  43.379  11.385   6.464
 4996POPC   C2B63680  43.370  11.333   6.764
 4996POPC   C3B63681  43.396  11.306   7.064
 4996POPC   C4B63682  43.370  11.387   7.364
 4997POPC   NC363683  29.945  37.640   5.564
 4997POPC   PO463684  29.925  37.704   5.864
 4997POPC   GL163685  29.931  37.715   6.164
 4997POPC   GL263686  30.084  37.618   6.164
 4997POPC   C1A63687  29.937  37.694   6.464
 4997POPC   D2A63688  29.923  37.655   6.764
 4997POPC   C3A63689  29.907  37.693   7.064
 4997POPC   C4A63690  29.937  37.694   7.364
 4997POPC   C1B63691  30.127  37.557   6.464
 4997POPC   C2B63692  30.192  37.632   6.764
 4997POPC   C3B63693  30.119  37.585   7.064
 4997POPC   C4B63694  30.178  37.576   7.364
 4998POPC   NC363695  39.214  23.686   5.564
 4998POPC   PO463696  39.226  23.750   5.864
 4998POPC   GL163697  39.248  23.666   6.164
 4998POPC   GL263698  39.264  23.596   6.164
 4998POPC   C1A63699  39.220  23.705   6.464
 4998POPC   D2A63700  39.261  23.667   6.764
 4998POPC   C3A63701  39.260  23.712   7.064
 4998POPC   C4A63702  39.218  23.725   7.364
 4998POPC   C1B63703  39.337  23.471   6.464
 4998POPC   C2B63704  39.284  23.442   6.764
 4998POPC   C3B63705  39.347  23.468   7.064
 4998POPC   C4B63706  39.303  23.468   7.364
 4999POPC   NC363707  34.600  20.633   5.564
 4999POPC   PO463708  34.598  20.577   5.864
 4999POPC   GL163709  34.600  20.597   6.164
 4999POPC   GL263710  34.622  20.707   6.164
 4999POPC   C1A63711  34.588  20.608   6.464
 4999POPC   D2A63712  34.528  20.630   6.764
 4999POPC   C3A63713  34.530  20.584   7.064
 4999POPC   C4A63714  34.605  20.578   7.364
 4999POPC   C1B63715  34.579  20.844   6.464
 4999POPC   C2B63716  34.538  20.827   6.764
 4999POPC   C3B63717  34.610  20.868   7.064
 4999POPC   C4B63718  34.579  20.886   7.364
 5000POPC   NC363719  33.073  19.095   5.564
 5000POPC   PO463720  33.059  19.076   5.864
 5000POPC   GL163721  33.035  19.078   6.164
 5000POPC   GL263722  33.043  18.971   6.164
 5000POPC   C1A63723  33.057  19.014   6.464
 5000POPC   D2A63724  33.072  19.093   6.764
 5000POPC   C3A63725  32.996  19.033   7.064
 5000POPC   C4A63726  33.064  19.103   7.364
 5000POPC   C1B63727  33.092  18.852   6.464
 5000POPC   C2B63728  33.116  18.816   6.764
 5000POPC   C3B63729  33.113  18.826   7.064
 5000POPC   C4B63730  33.063  18.794   7.364
 5001POPC   NC363731  15.168  43.093   5.564
 5001POPC   PO463732  15.183  43.135   5.864
 5001POPC   GL163733  15.202  43.137   6.164
 5001POPC   GL263734  15.181  43.019   6.164
 5001POPC   C1A63735  15.165  43.104   6.464
 5001POPC   D2A63736  15.190  43.112   6.764
 5001POPC   C3A63737  15.208  43.130   7.064
 5001POPC   C4A63738  15.139  43.107   7.364
 5001POPC   C1B63739  15.202  42.907   6.464
 5001POPC   C2B63740  15.178  42.842   6.764
 5001POPC   C3B63741  15.171  42.860   7.064
 5001POPC   C4B63742  15.171  42.909   7.364
 5002POPC   NC363743  42.355  28.396   5.564
 5002POPC   PO463744  42.343  28.348   5.864
 5002POPC   GL163745  42.286  28.411   6.164
 5002POPC   GL263746  42.479  28.372   6.164
 5002POPC   C1A63747  42.288  28.402   6.464
 5002POPC   D2A63748  42.314  28.411   6.764
 5002POPC   C3A63749  42.313  28.376   7.064
 5002POPC   C4A63750  42.336  28.417   7.364
 5002POPC   C1B63751  42.547  28.416   6.464
 5002POPC   C2B63752  42.620  28.444   6.764
 5002POPC   C3B63753  42.554  28.356   7.064
 5002POPC   C4B63754  42.568  28.420   7.364
 5003POPC   NC363755  25.225  33.057   5.564
 5003POPC   PO463756  25.246  33.000   5.864
 5003POPC   GL163757  25.287  33.011   6.164
 5003POPC   GL263758  25.202  32.905   6.164
 5003POPC   C1A63759  25.296  33.052   6.464
 5003POPC   D2A63760  25.289  33.028   6.764
 5003POPC   C3A63761  25.289  33.036   7.064
 5003POPC   C4A63762  25.275  33.070   7.364
 5003POPC   C1B63763  25.198  32.763   6.464
 5003POPC   C2B63764  25.217  32.763   6.764
 5003POPC   C3B63765  25.118  32.786   7.064
 5003POPC   C4B63766  25.148  32.819   7.364
 5004POPC   NC363767  35.316  22.210   5.564
 5004POPC   PO463768  35.323  22.191   5.864
 5004POPC   GL163769  35.342  22.191   6.164
 5004POPC   GL263770  35.274  22.229   6.164
 5004POPC   C1A63771  35.356  22.135   6.464
 5004POPC   D2A63772  35.336  22.134   6.764
 5004POPC   C3A63773  35.305  22.119   7.064
 5004POPC   C4A63774  35.380  22.134   7.364
 5004POPC   C1B63775  35.170  22.398   6.464
 5004POPC   C2B63776  35.193  22.368   6.764
 5004POPC   C3B63777  35.202  22.312   7.064
 5004POPC   C4B63778  35.167  22.370   7.364
 5005POPC   NC363779  39.219   8.191   5.564
 5005POPC   PO463780  39.256   8.171   5.864
 5005POPC   GL163781  39.187   8.182   6.164
 5005POPC   GL263782  39.195   8.049   6.164
 5005POPC   C1A63783  39.242   8.182   6.464
 5005POPC   D2A63784  39.248   8.163   6.764
 5005POPC   C3A63785  39.247   8.167   7.064
 5005POPC   C4A63786  39.193   8.150   7.364
 5005POPC   C1B63787  39.092   8.020   6.464
 5005POPC   C2B63788  39.087   7.967   6.764
 5005POPC   C3B63789  39.127   7.975   7.064
 5005POPC   C4B63790  39.100   7.931   7.364
 5006POPC   NC363791  36.113  34.609   5.564
 5006POPC   PO463792  36.150  34.583   5.864
 5006POPC   GL163793  36.150  34.563   6.164
 5006POPC   GL263794  36.134  34.641   6.164
 5006POPC   C1A63795  36.167  34.536   6.464
 5006POPC   D2A63796  36.079  34.609   6.764
 5006POPC   C3A63797  36.124  34.526   7.064
 5006POPC   C4A63798  36.169  34.625   7.364
 5006POPC   C1B63799  36.242  34.802   6.464
 5006POPC   C2B63800  36.188  34.839   6.764
 5006POPC   C3B63801  36.248  34.855   7.064
 5006POPC   C4B63802  36.249  34.813   7.364
 5007POPC   NC363803  40.001  43.107   5.564
 5007POPC   PO463804  40.025  43.124   5.864
 5007POPC   GL163805  40.004  43.137   6.164
 5007POPC   GL263806  39.948  43.019   6.164
 5007POPC   C1A63807  40.050  43.141   6.464
 5007POPC   D2A63808  39.989  43.141   6.764
 5007POPC   C3A63809  40.041  43.074   7.064
 5007POPC   C4A63810  40.007  43.107   7.364
 5007POPC   C1B63811  39.936  42.853   6.464
 5007POPC   C2B63812  39.932  42.907   6.764
 5007POPC   C3B63813  39.979  42.857   7.064
 5007POPC   C4B63814  39.921  42.904   7.364
 5008POPC   NC363815   2.757   1.957   5.564
 5008POPC   PO463816   2.744   2.025   5.864
 5008POPC   GL163817   2.716   1.966   6.164
 5008POPC   GL263818   2.770   2.102   6.164
 5008POPC   C1A63819   2.792   1.980   6.464
 5008POPC   D2A63820   2.761   1.959   6.764
 5008POPC   C3A63821   2.747   2.006   7.064
 5008POPC   C4A63822   2.729   1.960   7.364
 5008POPC   C1B63823   2.825   2.228   6.464
 5008POPC   C2B63824   2.743   2.222   6.764
 5008POPC   C3B63825   2.798   2.195   7.064
 5008POPC   C4B63826   2.753   2.235   7.364
 5009POPC   NC363827  19.830  10.554   5.564
 5009POPC   PO463828  19.870  10.520   5.864
 5009POPC   GL163829  19.854  10.489   6.164
 5009POPC   GL263830  19.905  10.422   6.164
 5009POPC   C1A63831  19.794  10.496   6.464
 5009POPC   D2A63832  19.804  10.498   6.764
 5009POPC   C3A63833  19.865  10.559   7.064
 5009POPC   C4A63834  19.873  10.510   7.364
 5009POPC   C1B63835  19.977  10.306   6.464
 5009POPC   C2B63836  19.963  10.329   6.764
 5009POPC   C3B63837  20.018  10.350   7.064
 5009POPC   C4B63838  19.996  10.353   7.364
 5010POPC   NC363839  44.689   3.509   5.564
 5010POPC   PO463840  44.635   3.533   5.864
 5010POPC   GL163841  44.638   3.544   6.164
 5010POPC   GL263842  44.500   3.548   6.164
 5010POPC   C1A63843  44.638   3.582   6.464
 5010POPC   D2A63844  44.668   3.590   6.764
 5010POPC   C3A63845  44.626   3.549   7.064
 5010POPC   C4A63846  44.674   3.491   7.364
 5010POPC   C1B63847  44.450   3.654   6.464
 5010POPC   C2B63848  44.449   3.668   6.764
 5010POPC   C3B63849  44.428   3.591   7.064
 5010POPC   C4B63850  44.457   3.616   7.364
 5011POPC   NC363851  40.735  16.735   5.564
 5011POPC   PO463852  40.815  16.690   5.864
 5011POPC   GL163853  40.754  16.684   6.164
 5011POPC   GL263854  40.663  16.650   6.164
 5011POPC   C1A63855  40.745  16.733   6.464
 5011POPC   D2A63856  40.774  16.739   6.764
 5011POPC   C3A63857  40.737  16.693   7.064
 5011POPC   C4A63858  40.769  16.684   7.364
 5011POPC   C1B63859  40.522  16.594   6.464
 5011POPC   C2B63860  40.538  16.638   6.764
 5011POPC   C3B63861  40.506  16.585   7.064
 5011POPC   C4B63862  40.515  16.666   7.364
 5012POPC   NC363863  18.308  18.321   5.564
 5012POPC   PO463864  18.243  18.270   5.864
 5012POPC   GL163865  18.269  18.245   6.164
 5012POPC   GL263866  18.281  18.177   6.164
 5012POPC   C1A63867  18.303  18.246   6.464
 5012POPC   D2A63868  18.310  18.247   6.764
 5012POPC   C3A63869  18.268  18.293   7.064
 5012POPC   C4A63870  18.324  18.311   7.364
 5012POPC   C1B63871  18.362  17.991   6.464
 5012POPC   C2B63872  18.278  18.042   6.764
 5012POPC   C3B63873  18.274  18.033   7.064
 5012POPC   C4B63874  18.275  18.027   7.364
 5013POPC   NC363875  19.054  24.454   5.564
 5013POPC   PO463876  19.023  24.510   5.864
 5013POPC   GL163877  19.010  24.459   6.164
 5013POPC   GL263878  19.006  24.359   6.164
 5013POPC   C1A63879  19.061  24.513   6.464
 5013POPC   D2A63880  19.039  24.443   6.764
 5013POPC   C3A63881  19.022  24.460   7.064
 5013POPC   C4A63882  19.013  24.447   7.364
 5013POPC   C1B63883  19.013  24.213   6.464
 5013POPC   C2B63884  19.068  24.224   6.764
 5013POPC   C3B63885  19.060  24.221   7.064
 5013POPC   C4B63886  19.005  24.242   7.364
 5014POPC   NC363887  36.869  35.378   5.564
 5014POPC   PO463888  36.861  35.321   5.864
 5014POPC   GL163889  36.904  35.318   6.164
 5014POPC   GL263890  37.036  35.337   6.164
 5014POPC   C1A63891  36.879  35.402   6.464
 5014POPC   D2A63892  36.925  35.384   6.764
 5014POPC   C3A63893  36.884  35.368   7.064
 5014POPC   C4A63894  36.933  35.306   7.364
 5014POPC   C1B63895  37.149  35.305   6.464
 5014POPC   C2B63896  37.192  35.351   6.764
 5014POPC   C3B63897  37.147  35.289   7.064
 5014POPC   C4B63898  37.111  35.353   7.364
 5015POPC   NC363899   9.744  27.600   5.564
 5015POPC   PO463900   9.777  27.639   5.864
 5015POPC   GL163901   9.770  27.572   6.164
 5015POPC   GL263902   9.612  27.588   6.164
 5015POPC   C1A63903   9.707  27.601   6.464
 5015POPC   D2A63904   9.761  27.564   6.764
 5015POPC   C3A63905   9.756  27.618   7.064
 5015POPC   C4A63906   9.711  27.556   7.364
 5015POPC   C1B63907   9.480  27.623   6.464
 5015POPC   C2B63908   9.495  27.644   6.764
 5015POPC   C3B63909   9.485  27.681   7.064
 5015POPC   C4B63910   9.484  27.661   7.364
 5016POPC   NC363911   1.261  36.125   5.564
 5016POPC   PO463912   1.187  36.121   5.864
 5016POPC   GL163913   1.175  36.090   6.164
 5016POPC   GL263914   1.057  36.106   6.164
 5016POPC   C1A63915   1.205  36.124   6.464
 5016POPC   D2A63916   1.237  36.134   6.764
 5016POPC   C3A63917   1.245  36.101   7.064
 5016POPC   C4A63918   1.261  36.086   7.364
 5016POPC   C1B63919   0.946  36.147   6.464
 5016POPC   C2B63920   0.940  36.147   6.764
 5016POPC   C3B63921   0.929  36.122   7.064
 5016POPC   C4B63922   0.967  36.134   7.364
 5017POPC   NC363923  32.278  11.313   5.564
 5017POPC   PO463924  32.243  11.286   5.864
 5017POPC   GL163925  32.243  11.274   6.164
 5017POPC   GL263926  32.305  11.168   6.164
 5017POPC   C1A63927  32.282  11.329   6.464
 5017POPC   D2A63928  32.206  11.278   6.764
 5017POPC   C3A63929  32.253  11.253   7.064
 5017POPC   C4A63930  32.212  11.320   7.364
 5017POPC   C1B63931  32.437  11.109   6.464
 5017POPC   C2B63932  32.428  11.108   6.764
 5017POPC   C3B63933  32.417  11.130   7.064
 5017POPC   C4B63934  32.377  11.086   7.364
 5018POPC   NC363935   6.693  32.242   5.564
 5018POPC   PO463936   6.676  32.296   5.864
 5018POPC   GL163937   6.662  32.232   6.164
 5018POPC   GL263938   6.567  32.152   6.164
 5018POPC   C1A63939   6.624  32.250   6.464
 5018POPC   D2A63940   6.662  32.200   6.764
 5018POPC   C3A63941   6.615  32.250   7.064
 5018POPC   C4A63942   6.668  32.221   7.364
 5018POPC   C1B63943   6.545  32.011   6.464
 5018POPC   C2B63944   6.493  32.007   6.764
 5018POPC   C3B63945   6.470  32.052   7.064
 5018POPC   C4B63946   6.480  32.004   7.364
 5019POPC   NC363947  40.809   9.762   5.564
 5019POPC   PO463948  40.812   9.774   5.864
 5019POPC   GL163949  40.754   9.709   6.164
 5019POPC   GL263950  40.719   9.615   6.164
 5019POPC   C1A63951  40.822   9.798   6.464
 5019POPC   D2A63952  40.831   9.785   6.764
 5019POPC   C3A63953  40.826   9.758   7.064
 5019POPC   C4A63954  40.764   9.735   7.364
 5019POPC   C1B63955  40.665   9.568   6.464
 5019POPC   C2B63956  40.687   9.523   6.764
 5019POPC   C3B63957  40.631   9.561   7.064
 5019POPC   C4B63958  40.641   9.495   7.364
 5020POPC   NC363959  15.927  20.584   5.564
 5020POPC   PO463960  15.996  20.606   5.864
 5020POPC   GL163961  15.932  20.626   6.164
 5020POPC   GL263962  16.052  20.628   6.164
 5020POPC   C1A63963  15.951  20.626   6.464
 5020POPC   D2A63964  15.986  20.623   6.764
 5020POPC   C3A63965  15.975  20.647   7.064
 5020POPC   C4A63966  15.919  20.595   7.364
 5020POPC   C1B63967  16.214  20.643   6.464
 5020POPC   C2B63968  16.186  20.717   6.764
 5020POPC   C3B63969  16.177  20.639   7.064
 5020POPC   C4B63970  16.216  20.661   7.364
 5021POPC   NC363971  41.559  31.428   5.564
 5021POPC   PO463972  41.578  31.441   5.864
 5021POPC   GL163973  41.594  31.452   6.164
 5021POPC   GL263974  41.506  31.549   6.164
 5021POPC   C1A63975  41.599  31.427   6.464
 5021POPC   D2A63976  41.579  31.520   6.764
 5021POPC   C3A63977  41.570  31.508   7.064
 5021POPC   C4A63978  41.591  31.483   7.364
 5021POPC   C1B63979  41.500  31.743   6.464
 5021POPC   C2B63980  41.448  31.744   6.764
 5021POPC   C3B63981  41.527  31.744   7.064
 5021POPC   C4B63982  41.529  31.726   7.364
 5022POPC   NC363983  15.130  33.841   5.564
 5022POPC   PO463984  15.162  33.776   5.864
 5022POPC   GL163985  15.196  33.798   6.164
 5022POPC   GL263986  15.100  33.761   6.164
 5022POPC   C1A63987  15.208  33.822   6.464
 5022POPC   D2A63988  15.175  33.790   6.764
 5022POPC   C3A63989  15.143  33.783   7.064
 5022POPC   C4A63990  15.160  33.831   7.364
 5022POPC   C1B63991  14.941  33.699   6.464
 5022POPC   C2B63992  14.938  33.737   6.764
 5022POPC   C3B63993  14.972  33.681   7.064
 5022POPC   C4B63994  14.966  33.679   7.364
 5023POPC   NC363995  29.148  44.706   5.564
 5023POPC   PO463996  29.151  44.660   5.864
 5023POPC   GL163997  29.181  44.645   6.164
 5023POPC   GL263998  29.233  44.761   6.164
 5023POPC   C1A63999  29.155  44.708   6.464
 5023POPC   D2A64000  29.181  44.630   6.764
 5023POPC   C3A64001  29.115  44.685   7.064
 5023POPC   C4A64002  29.117  44.646   7.364
 5023POPC   C1B64003  29.363  44.765   6.464
 5023POPC   C2B64004  29.337  44.778   6.764
 5023POPC   C3B64005  29.369  44.782   7.064
 5023POPC   C4B64006  29.341  44.777   7.364
 5024POPC   NC364007  27.635  43.103   5.564
 5024POPC   PO464008  27.574  43.144   5.864
 5024POPC   GL164009  27.641  43.144   6.164
 5024POPC   GL264010  27.652  43.228   6.164
 5024POPC   C1A64011  27.581  43.084   6.464
 5024POPC   D2A64012  27.551  43.061   6.764
 5024POPC   C3A64013  27.573  43.078   7.064
 5024POPC   C4A64014  27.608  43.087   7.364
 5024POPC   C1B64015  27.762  43.370   6.464
 5024POPC   C2B64016  27.750  43.294   6.764
 5024POPC   C3B64017  27.756  43.308   7.064
 5024POPC   C4B64018  27.735  43.346   7.364
 5025POPC   NC364019  22.969  23.676   5.564
 5025POPC   PO464020  22.910  23.759   5.864
 5025POPC   GL164021  22.889  23.686   6.164
 5025POPC   GL264022  22.839  23.617   6.164
 5025POPC   C1A64023  22.946  23.719   6.464
 5025POPC   D2A64024  22.981  23.690   6.764
 5025POPC   C3A64025  22.923  23.671   7.064
 5025POPC   C4A64026  22.891  23.683   7.364
 5025POPC   C1B64027  22.746  23.538   6.464
 5025POPC   C2B64028  22.790  23.517   6.764
 5025POPC   C3B64029  22.764  23.579   7.064
 5025POPC   C4B64030  22.791  23.503   7.364
 5026POPC   NC364031   9.018  30.695   5.564
 5026POPC   PO464032   8.975  30.705   5.864
 5026POPC   GL164033   8.956  30.722   6.164
 5026POPC   GL264034   8.846  30.753   6.164
 5026POPC   C1A64035   8.984  30.742   6.464
 5026POPC   D2A64036   9.000  30.662   6.764
 5026POPC   C3A64037   9.001  30.688   7.064
 5026POPC   C4A64038   8.979  30.696   7.364
 5026POPC   C1B64039   8.849  30.880   6.464
 5026POPC   C2B64040   8.819  30.923   6.764
 5026POPC   C3B64041   8.850  30.893   7.064
 5026POPC   C4B64042   8.759  30.882   7.364
 5027POPC   NC364043  36.904  36.127   5.564
 5027POPC   PO464044  36.886  36.155   5.864
 5027POPC   GL164045  36.891  36.102   6.164
 5027POPC   GL264046  36.936  36.292   6.164
 5027POPC   C1A64047  36.869  36.109   6.464
 5027POPC   D2A64048  36.859  36.110   6.764
 5027POPC   C3A64049  36.909  36.085   7.064
 5027POPC   C4A64050  36.917  36.118   7.364
 5027POPC   C1B64051  36.883  36.350   6.464
 5027POPC   C2B64052  36.884  36.373   6.764
 5027POPC   C3B64053  36.903  36.411   7.064
 5027POPC   C4B64054  36.950  36.361   7.364
 5028POPC   NC364055  36.177  18.265   5.564
 5028POPC   PO464056  36.144  18.295   5.864
 5028POPC   GL164057  36.133  18.295   6.164
 5028POPC   GL264058  36.116  18.405   6.164
 5028POPC   C1A64059  36.148  18.271   6.464
 5028POPC   D2A64060  36.094  18.235   6.764
 5028POPC   C3A64061  36.129  18.287   7.064
 5028POPC   C4A64062  36.147  18.308   7.364
 5028POPC   C1B64063  36.155  18.552   6.464
 5028POPC   C2B64064  36.198  18.526   6.764
 5028POPC   C3B64065  36.127  18.559   7.064
 5028POPC   C4B64066  36.164  18.558   7.364
 5029POPC   NC364067   0.478  24.525   5.564
 5029POPC   PO464068   0.475  24.538   5.864
 5029POPC   GL164069   0.484  24.461   6.164
 5029POPC   GL264070   0.444  24.404   6.164
 5029POPC   C1A64071   0.485  24.455   6.464
 5029POPC   D2A64072   0.428  24.504   6.764
 5029POPC   C3A64073   0.420  24.494   7.064
 5029POPC   C4A64074   0.450  24.456   7.364
 5029POPC   C1B64075   0.487  24.202   6.464
 5029POPC   C2B64076   0.499  24.293   6.764
 5029POPC   C3B64077   0.448  24.241   7.064
 5029POPC   C4B64078   0.462  24.253   7.364
 5030POPC   NC364079  16.720  12.817   5.564
 5030POPC   PO464080  16.723  12.886   5.864
 5030POPC   GL164081  16.695  12.804   6.164
 5030POPC   GL264082  16.767  12.751   6.164
 5030POPC   C1A64083  16.689  12.843   6.464
 5030POPC   D2A64084  16.719  12.889   6.764
 5030POPC   C3A64085  16.777  12.855   7.064
 5030POPC   C4A64086  16.763  12.872   7.364
 5030POPC   C1B64087  16.791  12.645   6.464
 5030POPC   C2B64088  16.801  12.598   6.764
 5030POPC   C3B64089  16.807  12.610   7.064
 5030POPC   C4B64090  16.785  12.629   7.364
 5031POPC   NC364091  34.565   5.852   5.564
 5031POPC   PO464092  34.600   5.901   5.864
 5031POPC   GL164093  34.569   5.911   6.164
 5031POPC   GL264094  34.505   5.941   6.164
 5031POPC   C1A64095  34.566   5.850   6.464
 5031POPC   D2A64096  34.605   5.911   6.764
 5031POPC   C3A64097  34.542   5.881   7.064
 5031POPC   C4A64098  34.578   5.863   7.364
 5031POPC   C1B64099  34.506   6.107   6.464
 5031POPC   C2B64100  34.519   6.078   6.764
 5031POPC   C3B64101  34.529   6.082   7.064
 5031POPC   C4B64102  34.486   6.084   7.364
 5032POPC   NC364103   9.008  12.120   5.564
 5032POPC   PO464104   8.941  12.031   5.864
 5032POPC   GL164105   8.971  12.073   6.164
 5032POPC   GL264106   8.974  12.191   6.164
 5032POPC   C1A64107   8.991  12.096   6.464
 5032POPC   D2A64108   8.974  12.073   6.764
 5032POPC   C3A64109   8.959  12.095   7.064
 5032POPC   C4A64110   8.972  12.125   7.364
 5032POPC   C1B64111   8.986  12.330   6.464
 5032POPC   C2B64112   9.013  12.305   6.764
 5032POPC   C3B64113   8.996  12.369   7.064
 5032POPC   C4B64114   9.040  12.364   7.364
 5033POPC   NC364115   5.133  30.682   5.564
 5033POPC   PO464116   5.077  30.649   5.864
 5033POPC   GL164117   5.056  30.672   6.164
 5033POPC   GL264118   4.955  30.655   6.164
 5033POPC   C1A64119   5.121  30.701   6.464
 5033POPC   D2A64120   5.066  30.696   6.764
 5033POPC   C3A64121   5.045  30.650   7.064
 5033POPC   C4A64122   5.099  30.665   7.364
 5033POPC   C1B64123   4.906  30.540   6.464
 5033POPC   C2B64124   4.902  30.610   6.764
 5033POPC   C3B64125   4.838  30.597   7.064
 5033POPC   C4B64126   4.895  30.537   7.364
 5034POPC   NC364127  31.480   0.456   5.564
 5034POPC   PO464128  31.517   0.390   5.864
 5034POPC   GL164129  31.518   0.474   6.164
 5034POPC   GL264130  31.461   0.286   6.164
 5034POPC   C1A64131  31.489   0.442   6.464
 5034POPC   D2A64132  31.515   0.483   6.764
 5034POPC   C3A64133  31.441   0.481   7.064
 5034POPC   C4A64134  31.483   0.483   7.364
 5034POPC   C1B64135  31.522   0.170   6.464
 5034POPC   C2B64136  31.528   0.156   6.764
 5034POPC   C3B64137  31.498   0.149   7.064
 5034POPC   C4B64138  31.509   0.205   7.364
 5035POPC   NC364139  14.399   7.465   5.564
 5035POPC   PO464140  14.367   7.434   5.864
 5035POPC   GL164141  14.400   7.453   6.164
 5035POPC   GL264142  14.331   7.398   6.164
 5035POPC   C1A64143  14.377   7.411   6.464
 5035POPC   D2A64144  14.405   7.416   6.764
 5035POPC   C3A64145  14.370   7.435   7.064
 5035POPC   C4A64146  14.388   7.394   7.364
 5035POPC   C1B64147  14.181   7.369   6.464
 5035POPC   C2B64148  14.197   7.376   6.764
 5035POPC   C3B64149  14.186   7.359   7.064
 5035POPC   C4B64150  14.120   7.413   7.364
 5036POPC   NC364151  36.939  36.899   5.564
 5036POPC   PO464152  36.908  36.909   5.864
 5036POPC   GL164153  36.912  36.922   6.164
 5036POPC   GL264154  36.756  36.975   6.164
 5036POPC   C1A64155  36.878  36.930   6.464
 5036POPC   D2A64156  36.951  36.902   6.764
 5036POPC   C3A64157  36.932  36.892   7.064
 5036POPC   C4A64158  36.920  36.903   7.364
 5036POPC   C1B64159  36.728  37.055   6.464
 5036POPC   C2B64160  36.666  37.065   6.764
 5036POPC   C3B64161  36.707  37.025   7.064
 5036POPC   C4B64162  36.665  37.033   7.364
 5037POPC   NC364163   8.949  23.696   5.564
 5037POPC   PO464164   9.016  23.668   5.864
 5037POPC   GL164165   8.932  23.673   6.164
 5037POPC   GL264166   8.804  23.723   6.164
 5037POPC   C1A64167   8.928  23.681   6.464
 5037POPC   D2A64168   8.942  23.717   6.764
 5037POPC   C3A64169   9.015  23.738   7.064
 5037POPC   C4A64170   8.953  23.732   7.364
 5037POPC   C1B64171   8.753  23.615   6.464
 5037POPC   C2B64172   8.774  23.640   6.764
 5037POPC   C3B64173   8.737  23.680   7.064
 5037POPC   C4B64174   8.698  23.647   7.364
 5038POPC   NC364175  25.256   6.662   5.564
 5038POPC   PO464176  25.290   6.647   5.864
 5038POPC   GL164177  25.244   6.677   6.164
 5038POPC   GL264178  25.164   6.723   6.164
 5038POPC   C1A64179  25.228   6.645   6.464
 5038POPC   D2A64180  25.242   6.601   6.764
 5038POPC   C3A64181  25.217   6.637   7.064
 5038POPC   C4A64182  25.313   6.604   7.364
 5038POPC   C1B64183  25.083   6.829   6.464
 5038POPC   C2B64184  25.028   6.813   6.764
 5038POPC   C3B64185  25.082   6.778   7.064
 5038POPC   C4B64186  25.018   6.810   7.364
 5039POPC   NC364187   2.761   9.753   5.564
 5039POPC   PO464188   2.731   9.706   5.864
 5039POPC   GL164189   2.807   9.704   6.164
 5039POPC   GL264190   2.787   9.874   6.164
 5039POPC   C1A64191   2.760   9.779   6.464
 5039POPC   D2A64192   2.737   9.783   6.764
 5039POPC   C3A64193   2.804   9.742   7.064
 5039POPC   C4A64194   2.735   9.797   7.364
 5039POPC   C1B64195   2.764  10.009   6.464
 5039POPC   C2B64196   2.747   9.946   6.764
 5039POPC   C3B64197   2.682   9.996   7.064
 5039POPC   C4B64198   2.728  10.035   7.364
 5040POPC   NC364199  40.739  37.704   5.564
 5040POPC   PO464200  40.827  37.709   5.864
 5040POPC   GL164201  40.739  37.640   6.164
 5040POPC   GL264202  40.714  37.757   6.164
 5040POPC   C1A64203  40.787  37.689   6.464
 5040POPC   D2A64204  40.779  37.693   6.764
 5040POPC   C3A64205  40.779  37.680   7.064
 5040POPC   C4A64206  40.826  37.667   7.364
 5040POPC   C1B64207  40.604  37.868   6.464
 5040POPC   C2B64208  40.595  37.834   6.764
 5040POPC   C3B64209  40.670  37.849   7.064
 5040POPC   C4B64210  40.603  37.924   7.364
 5041POPC   NC364211  34.608  42.317   5.564
 5041POPC   PO464212  34.545  42.383   5.864
 5041POPC   GL164213  34.568  42.287   6.164
 5041POPC   GL264214  34.672  42.319   6.164
 5041POPC   C1A64215  34.599  42.319   6.464
 5041POPC   D2A64216  34.581  42.346   6.764
 5041POPC   C3A64217  34.607  42.377   7.064
 5041POPC   C4A64218  34.563  42.325   7.364
 5041POPC   C1B64219  34.866  42.352   6.464
 5041POPC   C2B64220  34.799  42.390   6.764
 5041POPC   C3B64221  34.845  42.442   7.064
 5041POPC   C4B64222  34.777  42.436   7.364
 5042POPC   NC364223  17.477  29.156   5.564
 5042POPC   PO464224  17.514  29.195   5.864
 5042POPC   GL164225  17.508  29.121   6.164
 5042POPC   GL264226  17.617  29.184   6.164
 5042POPC   C1A64227  17.523  29.144   6.464
 5042POPC   D2A64228  17.540  29.102   6.764
 5042POPC   C3A64229  17.505  29.098   7.064
 5042POPC   C4A64230  17.471  29.188   7.364
 5042POPC   C1B64231  17.781  29.226   6.464
 5042POPC   C2B64232  17.745  29.224   6.764
 5042POPC   C3B64233  17.722  29.231   7.064
 5042POPC   C4B64234  17.745  29.170   7.364
 5043POPC   NC364235  16.760  16.709   5.564
 5043POPC   PO464236  16.712  16.762   5.864
 5043POPC   GL164237  16.775  16.697   6.164
 5043POPC   GL264238  16.597  16.795   6.164
 5043POPC   C1A64239  16.682  16.725   6.464
 5043POPC   D2A64240  16.738  16.757   6.764
 5043POPC   C3A64241  16.757  16.744   7.064
 5043POPC   C4A64242  16.739  16.742   7.364
 5043POPC   C1B64243  16.463  16.786   6.464
 5043POPC   C2B64244  16.529  16.864   6.764
 5043POPC   C3B64245  16.545  16.863   7.064
 5043POPC   C4B64246  16.508  16.826   7.364
 5044POPC   NC364247  40.805  23.697   5.564
 5044POPC   PO464248  40.818  23.747   5.864
 5044POPC   GL164249  40.798  23.707   6.164
 5044POPC   GL264250  40.690  23.626   6.164
 5044POPC   C1A64251  40.812  23.666   6.464
 5044POPC   D2A64252  40.753  23.705   6.764
 5044POPC   C3A64253  40.811  23.746   7.064
 5044POPC   C4A64254  40.741  23.670   7.364
 5044POPC   C1B64255  40.570  23.555   6.464
 5044POPC   C2B64256  40.626  23.532   6.764
 5044POPC   C3B64257  40.583  23.563   7.064
 5044POPC   C4B64258  40.585  23.507   7.364
 5045POPC   NC364259  16.705  40.764   5.564
 5045POPC   PO464260  16.713  40.808   5.864
 5045POPC   GL164261  16.688  40.819   6.164
 5045POPC   GL264262  16.625  40.750   6.164
 5045POPC   C1A64263  16.772  40.826   6.464
 5045POPC   D2A64264  16.714  40.735   6.764
 5045POPC   C3A64265  16.703  40.796   7.064
 5045POPC   C4A64266  16.692  40.750   7.364
 5045POPC   C1B64267  16.543  40.694   6.464
 5045POPC   C2B64268  16.510  40.717   6.764
 5045POPC   C3B64269  16.455  40.652   7.064
 5045POPC   C4B64270  16.537  40.705   7.364
 5046POPC   NC364271  38.437  18.246   5.564
 5046POPC   PO464272  38.504  18.268   5.864
 5046POPC   GL164273  38.493  18.260   6.164
 5046POPC   GL264274  38.523  18.315   6.164
 5046POPC   C1A64275  38.500  18.246   6.464
 5046POPC   D2A64276  38.438  18.328   6.764
 5046POPC   C3A64277  38.460  18.301   7.064
 5046POPC   C4A64278  38.441  18.322   7.364
 5046POPC   C1B64279  38.686  18.414   6.464
 5046POPC   C2B64280  38.621  18.459   6.764
 5046POPC   C3B64281  38.689  18.429   7.064
 5046POPC   C4B64282  38.712  18.405   7.364
 5047POPC   NC364283  36.908  43.935   5.564
 5047POPC   PO464284  36.883  43.850   5.864
 5047POPC   GL164285  36.864  43.882   6.164
 5047POPC   GL264286  36.886  43.963   6.164
 5047POPC   C1A64287  36.936  43.932   6.464
 5047POPC   D2A64288  36.932  43.929   6.764
 5047POPC   C3A64289  36.941  43.871   7.064
 5047POPC   C4A64290  36.925  43.899   7.364
 5047POPC   C1B64291  36.725  44.105   6.464
 5047POPC   C2B64292  36.803  44.124   6.764
 5047POPC   C3B64293  36.781  44.092   7.064
 5047POPC   C4B64294  36.783  44.098   7.364
 5048POPC   NC364295  22.980  25.230   5.564
 5048POPC   PO464296  22.985  25.239   5.864
 5048POPC   GL164297  22.942  25.240   6.164
 5048POPC   GL264298  22.905  25.414   6.164
 5048POPC   C1A64299  22.909  25.248   6.464
 5048POPC   D2A64300  22.950  25.242   6.764
 5048POPC   C3A64301  22.907  25.273   7.064
 5048POPC   C4A64302  22.970  25.311   7.364
 5048POPC   C1B64303  22.840  25.460   6.464
 5048POPC   C2B64304  22.772  25.480   6.764
 5048POPC   C3B64305  22.801  25.523   7.064
 5048POPC   C4B64306  22.808  25.438   7.364
 5049POPC   NC364307  30.722  21.345   5.564
 5049POPC   PO464308  30.671  21.359   5.864
 5049POPC   GL164309  30.716  21.346   6.164
 5049POPC   GL264310  30.545  21.481   6.164
 5049POPC   C1A64311  30.719  21.346   6.464
 5049POPC   D2A64312  30.734  21.370   6.764
 5049POPC   C3A64313  30.696  21.348   7.064
 5049POPC   C4A64314  30.737  21.406   7.364
 5049POPC   C1B64315  30.434  21.524   6.464
 5049POPC   C2B64316  30.469  21.445   6.764
 5049POPC   C3B64317  30.421  21.486   7.064
 5049POPC   C4B64318  30.502  21.444   7.364
 5050POPC   NC364319   8.219   5.110   5.564
 5050POPC   PO464320   8.203   5.084   5.864
 5050POPC   GL164321   8.212   5.072   6.164
 5050POPC   GL264322   8.180   5.002   6.164
 5050POPC   C1A64323   8.219   5.064   6.464
 5050POPC   D2A64324   8.167   5.129   6.764
 5050POPC   C3A64325   8.210   5.046   7.064
 5050POPC   C4A64326   8.243   5.053   7.364
 5050POPC   C1B64327   8.152   4.875   6.464
 5050POPC   C2B64328   8.077   4.853   6.764
 5050POPC   C3B64329   8.137   4.892   7.064
 5050POPC   C4B64330   8.100   4.843   7.364
 5051POPC   NC364331  37.638   6.645   5.564
 5051POPC   PO464332  37.658   6.620   5.864
 5051POPC   GL164333  37.717   6.658   6.164
 5051POPC   GL264334  37.520   6.695   6.164
 5051POPC   C1A64335  37.694   6.633   6.464
 5051POPC   D2A64336  37.633   6.685   6.764
 5051POPC   C3A64337  37.648   6.597   7.064
 5051POPC   C4A64338  37.662   6.666   7.364
 5051POPC   C1B64339  37.415   6.701   6.464
 5051POPC   C2B64340  37.427   6.723   6.764
 5051POPC   C3B64341  37.463   6.685   7.064
 5051POPC   C4B64342  37.434   6.718   7.364
 5052POPC   NC364343  27.572  39.257   5.564
 5052POPC   PO464344  27.614  39.183   5.864
 5052POPC   GL164345  27.637  39.233   6.164
 5052POPC   GL264346  27.660  39.284   6.164
 5052POPC   C1A64347  27.549  39.276   6.464
 5052POPC   D2A64348  27.586  39.255   6.764
 5052POPC   C3A64349  27.609  39.251   7.064
 5052POPC   C4A64350  27.643  39.268   7.364
 5052POPC   C1B64351  27.759  39.445   6.464
 5052POPC   C2B64352  27.762  39.426   6.764
 5052POPC   C3B64353  27.729  39.389   7.064
 5052POPC   C4B64354  27.728  39.430   7.364
 5053POPC   NC364355  42.366  15.994   5.564
 5053POPC   PO464356  42.336  15.950   5.864
 5053POPC   GL164357  42.378  15.957   6.164
 5053POPC   GL264358  42.483  15.891   6.164
 5053POPC   C1A64359  42.375  15.909   6.464
 5053POPC   D2A64360  42.324  15.975   6.764
 5053POPC   C3A64361  42.317  15.988   7.064
 5053POPC   C4A64362  42.301  15.907   7.364
 5053POPC   C1B64363  42.545  15.908   6.464
 5053POPC   C2B64364  42.596  15.965   6.764
 5053POPC   C3B64365  42.571  15.951   7.064
 5053POPC   C4B64366  42.565  15.949   7.364
 5054POPC   NC364367   7.462   8.222   5.564
 5054POPC   PO464368   7.469   8.245   5.864
 5054POPC   GL164369   7.381   8.157   6.164
 5054POPC   GL264370   7.439   8.296   6.164
 5054POPC   C1A64371   7.410   8.223   6.464
 5054POPC   D2A64372   7.458   8.152   6.764
 5054POPC   C3A64373   7.402   8.232   7.064
 5054POPC   C4A64374   7.399   8.232   7.364
 5054POPC   C1B64375   7.523   8.390   6.464
 5054POPC   C2B64376   7.555   8.409   6.764
 5054POPC   C3B64377   7.578   8.440   7.064
 5054POPC   C4B64378   7.517   8.383   7.364
 5055POPC   NC364379  14.367  29.877   5.564
 5055POPC   PO464380  14.388  29.883   5.864
 5055POPC   GL164381  14.381  29.957   6.164
 5055POPC   GL264382  14.261  29.899   6.164
 5055POPC   C1A64383  14.403  29.966   6.464
 5055POPC   D2A64384  14.381  29.890   6.764
 5055POPC   C3A64385  14.367  29.904   7.064
 5055POPC   C4A64386  14.393  29.926   7.364
 5055POPC   C1B64387  14.210  29.790   6.464
 5055POPC   C2B64388  14.178  29.763   6.764
 5055POPC   C3B64389  14.145  29.755   7.064
 5055POPC   C4B64390  14.195  29.788   7.364
 5056POPC   NC364391  13.607  13.612   5.564
 5056POPC   PO464392  13.578  13.670   5.864
 5056POPC   GL164393  13.667  13.632   6.164
 5056POPC   GL264394  13.535  13.758   6.164
 5056POPC   C1A64395  13.637  13.607   6.464
 5056POPC   D2A64396  13.638  13.653   6.764
 5056POPC   C3A64397  13.636  13.602   7.064
 5056POPC   C4A64398  13.606  13.592   7.364
 5056POPC   C1B64399  13.439  13.789   6.464
 5056POPC   C2B64400  13.416  13.746   6.764
 5056POPC   C3B64401  13.397  13.771   7.064
 5056POPC   C4B64402  13.432  13.814   7.364
 5057POPC   NC364403  20.583  18.273   5.564
 5057POPC   PO464404  20.571  18.298   5.864
 5057POPC   GL164405  20.587  18.330   6.164
 5057POPC   GL264406  20.592  18.181   6.164
 5057POPC   C1A64407  20.601  18.235   6.464
 5057POPC   D2A64408  20.611  18.326   6.764
 5057POPC   C3A64409  20.648  18.316   7.064
 5057POPC   C4A64410  20.659  18.305   7.364
 5057POPC   C1B64411  20.594  18.025   6.464
 5057POPC   C2B64412  20.588  18.078   6.764
 5057POPC   C3B64413  20.536  18.038   7.064
 5057POPC   C4B64414  20.508  18.057   7.364
 5058POPC   NC364415  22.201  18.325   5.564
 5058POPC   PO464416  22.193  18.314   5.864
 5058POPC   GL164417  22.182  18.290   6.164
 5058POPC   GL264418  22.079  18.358   6.164
 5058POPC   C1A64419  22.117  18.324   6.464
 5058POPC   D2A64420  22.209  18.316   6.764
 5058POPC   C3A64421  22.148  18.295   7.064
 5058POPC   C4A64422  22.126  18.303   7.364
 5058POPC   C1B64423  21.971  18.401   6.464
 5058POPC   C2B64424  21.948  18.390   6.764
 5058POPC   C3B64425  21.924  18.412   7.064
 5058POPC   C4B64426  21.968  18.445   7.364
 5059POPC   NC364427  39.256  19.010   5.564
 5059POPC   PO464428  39.245  19.040   5.864
 5059POPC   GL164429  39.188  19.058   6.164
 5059POPC   GL264430  39.162  19.004   6.164
 5059POPC   C1A64431  39.186  19.059   6.464
 5059POPC   D2A64432  39.229  19.035   6.764
 5059POPC   C3A64433  39.273  19.066   7.064
 5059POPC   C4A64434  39.215  19.063   7.364
 5059POPC   C1B64435  38.977  18.947   6.464
 5059POPC   C2B64436  39.046  18.873   6.764
 5059POPC   C3B64437  39.024  18.944   7.064
 5059POPC   C4B64438  39.072  18.886   7.364
 5060POPC   NC364439   0.403  39.983   5.564
 5060POPC   PO464440   0.406  39.992   5.864
 5060POPC   GL164441   0.414  39.992   6.164
 5060POPC   GL264442   0.488  40.095   6.164
 5060POPC   C1A64443   0.439  40.049   6.464
 5060POPC   D2A64444   0.430  40.043   6.764
 5060POPC   C3A64445   0.400  40.005   7.064
 5060POPC   C4A64446   0.462  40.015   7.364
 5060POPC   C1B64447   0.623  40.217   6.464
 5060POPC   C2B64448   0.601  40.213   6.764
 5060POPC   C3B64449   0.604  40.185   7.064
 5060POPC   C4B64450   0.541  40.257   7.364
 5061POPC   NC364451  44.656   4.335   5.564
 5061POPC   PO464452  44.711   4.363   5.864
 5061POPC   GL164453  44.695   4.310   6.164
 5061POPC   GL264454  44.760   4.298   6.164
 5061POPC   C1A64455  44.615   4.304   6.464
 5061POPC   D2A64456  44.613   4.273   6.764
 5061POPC   C3A64457  44.642   4.309   7.064
 5061POPC   C4A64458  44.651   4.346   7.364
 5061POPC   C1B64459  44.938   4.246   6.464
 5061POPC   C2B64460  44.865   4.255   6.764
 5061POPC   C3B64461  44.893   4.230   7.064
 5061POPC   C4B64462  44.949   4.256   7.364
 5062POPC   NC364463   3.550   9.748   5.564
 5062POPC   PO464464   3.563   9.774   5.864
 5062POPC   GL164465   3.574   9.735   6.164
 5062POPC   GL264466   3.525   9.589   6.164
 5062POPC   C1A64467   3.502   9.735   6.464
 5062POPC   D2A64468   3.573   9.732   6.764
 5062POPC   C3A64469   3.582   9.790   7.064
 5062POPC   C4A64470   3.578   9.718   7.364
 5062POPC   C1B64471   3.597   9.517   6.464
 5062POPC   C2B64472   3.500   9.449   6.764
 5062POPC   C3B64473   3.500   9.541   7.064
 5062POPC   C4B64474   3.545   9.464   7.364
 5063POPC   NC364475   5.891  32.246   5.564
 5063POPC   PO464476   5.830  32.289   5.864
 5063POPC   GL164477   5.888  32.215   6.164
 5063POPC   GL264478   5.844  32.380   6.164
 5063POPC   C1A64479   5.833  32.268   6.464
 5063POPC   D2A64480   5.878  32.215   6.764
 5063POPC   C3A64481   5.902  32.275   7.064
 5063POPC   C4A64482   5.908  32.257   7.364
 5063POPC   C1B64483   5.709  32.520   6.464
 5063POPC   C2B64484   5.759  32.484   6.764
 5063POPC   C3B64485   5.766  32.505   7.064
 5063POPC   C4B64486   5.727  32.495   7.364
 5064POPC   NC364487  37.636  17.480   5.564
 5064POPC   PO464488  37.724  17.482   5.864
 5064POPC   GL164489  37.674  17.520   6.164
 5064POPC   GL264490  37.587  17.544   6.164
 5064POPC   C1A64491  37.705  17.510   6.464
 5064POPC   D2A64492  37.691  17.542   6.764
 5064POPC   C3A64493  37.680  17.506   7.064
 5064POPC   C4A64494  37.720  17.502   7.364
 5064POPC   C1B64495  37.444  17.647   6.464
 5064POPC   C2B64496  37.460  17.629   6.764
 5064POPC   C3B64497  37.448  17.607   7.064
 5064POPC   C4B64498  37.420  17.596   7.364
 5065POPC   NC364499   5.827   2.020   5.564
 5065POPC   PO464500   5.889   2.000   5.864
 5065POPC   GL164501   5.911   1.999   6.164
 5065POPC   GL264502   5.986   2.079   6.164
 5065POPC   C1A64503   5.837   2.016   6.464
 5065POPC   D2A64504   5.913   1.954   6.764
 5065POPC   C3A64505   5.852   2.000   7.064
 5065POPC   C4A64506   5.836   1.977   7.364
 5065POPC   C1B64507   6.013   2.123   6.464
 5065POPC   C2B64508   6.063   2.190   6.764
 5065POPC   C3B64509   6.033   2.193   7.064
 5065POPC   C4B64510   6.057   2.123   7.364
 5066POPC   NC364511   5.910  30.718   5.564
 5066POPC   PO464512   5.915  30.712   5.864
 5066POPC   GL164513   5.828  30.650   6.164
 5066POPC   GL264514   5.750  30.640   6.164
 5066POPC   C1A64515   5.868  30.669   6.464
 5066POPC   D2A64516   5.881  30.675   6.764
 5066POPC   C3A64517   5.835  30.650   7.064
 5066POPC   C4A64518   5.896  30.740   7.364
 5066POPC   C1B64519   5.625  30.581   6.464
 5066POPC   C2B64520   5.677  30.566   6.764
 5066POPC   C3B64521   5.652  30.602   7.064
 5066POPC   C4B64522   5.647  30.583   7.364
 5067POPC   NC364523  26.864  35.326   5.564
 5067POPC   PO464524  26.823  35.355   5.864
 5067POPC   GL164525  26.857  35.310   6.164
 5067POPC   GL264526  26.929  35.223   6.164
 5067POPC   C1A64527  26.840  35.338   6.464
 5067POPC   D2A64528  26.865  35.328   6.764
 5067POPC   C3A64529  26.856  35.400   7.064
 5067POPC   C4A64530  26.840  35.316   7.364
 5067POPC   C1B64531  27.016  35.132   6.464
 5067POPC   C2B64532  26.978  35.175   6.764
 5067POPC   C3B64533  26.968  35.215   7.064
 5067POPC   C4B64534  26.985  35.133   7.364
 5068POPC   NC364535   9.735  12.872   5.564
 5068POPC   PO464536   9.751  12.822   5.864
 5068POPC   GL164537   9.777  12.895   6.164
 5068POPC   GL264538   9.834  12.808   6.164
 5068POPC   C1A64539   9.774  12.818   6.464
 5068POPC   D2A64540   9.725  12.841   6.764
 5068POPC   C3A64541   9.702  12.830   7.064
 5068POPC   C4A64542   9.725  12.888   7.364
 5068POPC   C1B64543   9.974  12.819   6.464
 5068POPC   C2B64544   9.977  12.853   6.764
 5068POPC   C3B64545   9.974  12.791   7.064
 5068POPC   C4B64546  10.041  12.850   7.364
 5069POPC   NC364547  20.625  35.318   5.564
 5069POPC   PO464548  20.621  35.320   5.864
 5069POPC   GL164549  20.629  35.391   6.164
 5069POPC   GL264550  20.664  35.286   6.164
 5069POPC   C1A64551  20.649  35.337   6.464
 5069POPC   D2A64552  20.614  35.400   6.764
 5069POPC   C3A64553  20.592  35.312   7.064
 5069POPC   C4A64554  20.632  35.319   7.364
 5069POPC   C1B64555  20.703  35.154   6.464
 5069POPC   C2B64556  20.669  35.152   6.764
 5069POPC   C3B64557  20.752  35.130   7.064
 5069POPC   C4B64558  20.718  35.079   7.364
 5070POPC   NC364559  14.367  26.046   5.564
 5070POPC   PO464560  14.414  26.009   5.864
 5070POPC   GL164561  14.358  26.052   6.164
 5070POPC   GL264562  14.250  26.092   6.164
 5070POPC   C1A64563  14.439  26.087   6.464
 5070POPC   D2A64564  14.410  26.005   6.764
 5070POPC   C3A64565  14.413  26.067   7.064
 5070POPC   C4A64566  14.440  26.091   7.364
 5070POPC   C1B64567  14.188  26.118   6.464
 5070POPC   C2B64568  14.162  26.108   6.764
 5070POPC   C3B64569  14.116  26.074   7.064
 5070POPC   C4B64570  14.152  26.085   7.364
 5071POPC   NC364571   8.228  15.217   5.564
 5071POPC   PO464572   8.209  15.198   5.864
 5071POPC   GL164573   8.207  15.162   6.164
 5071POPC   GL264574   8.249  15.058   6.164
 5071POPC   C1A64575   8.169  15.220   6.464
 5071POPC   D2A64576   8.245  15.165   6.764
 5071POPC   C3A64577   8.240  15.140   7.064
 5071POPC   C4A64578   8.202  15.226   7.364
 5071POPC   C1B64579   8.325  14.958   6.464
 5071POPC   C2B64580   8.296  14.930   6.764
 5071POPC   C3B64581   8.378  15.014   7.064
 5071POPC   C4B64582   8.336  15.004   7.364
 5072POPC   NC364583   4.358  20.587   5.564
 5072POPC   PO464584   4.303  20.590   5.864
 5072POPC   GL164585   4.347  20.613   6.164
 5072POPC   GL264586   4.446  20.539   6.164
 5072POPC   C1A64587   4.362  20.621   6.464
 5072POPC   D2A64588   4.355  20.615   6.764
 5072POPC   C3A64589   4.345  20.627   7.064
 5072POPC   C4A64590   4.318  20.625   7.364
 5072POPC   C1B64591   4.579  20.480   6.464
 5072POPC   C2B64592   4.556  20.526   6.764
 5072POPC   C3B64593   4.568  20.498   7.064
 5072POPC   C4B64594   4.528  20.500   7.364
 5073POPC   NC364595   5.069  17.531   5.564
 5073POPC   PO464596   5.091  17.483   5.864
 5073POPC   GL164597   5.140  17.506   6.164
 5073POPC   GL264598   4.932  17.565   6.164
 5073POPC   C1A64599   5.094  17.494   6.464
 5073POPC   D2A64600   5.118  17.518   6.764
 5073POPC   C3A64601   5.082  17.482   7.064
 5073POPC   C4A64602   5.055  17.540   7.364
 5073POPC   C1B64603   4.854  17.589   6.464
 5073POPC   C2B64604   4.841  17.626   6.764
 5073POPC   C3B64605   4.835  17.588   7.064
 5073POPC   C4B64606   4.854  17.598   7.364
 5074POPC   NC364607  15.189  32.255   5.564
 5074POPC   PO464608  15.163  32.279   5.864
 5074POPC   GL164609  15.174  32.231   6.164
 5074POPC   GL264610  15.149  32.308   6.164
 5074POPC   C1A64611  15.130  32.205   6.464
 5074POPC   D2A64612  15.180  32.219   6.764
 5074POPC   C3A64613  15.197  32.213   7.064
 5074POPC   C4A64614  15.154  32.294   7.364
 5074POPC   C1B64615  15.064  32.420   6.464
 5074POPC   C2B64616  14.979  32.435   6.764
 5074POPC   C3B64617  15.028  32.404   7.064
 5074POPC   C4B64618  14.986  32.406   7.364
 5075POPC   NC364619  41.606  29.181   5.564
 5075POPC   PO464620  41.597  29.186   5.864
 5075POPC   GL164621  41.602  29.176   6.164
 5075POPC   GL264622  41.404  29.097   6.164
 5075POPC   C1A64623  41.566  29.182   6.464
 5075POPC   D2A64624  41.514  29.122   6.764
 5075POPC   C3A64625  41.538  29.110   7.064
 5075POPC   C4A64626  41.570  29.112   7.364
 5075POPC   C1B64627  41.284  29.095   6.464
 5075POPC   C2B64628  41.306  29.036   6.764
 5075POPC   C3B64629  41.300  29.064   7.064
 5075POPC   C4B64630  41.287  29.046   7.364
 5076POPC   NC364631  32.976  15.134   5.564
 5076POPC   PO464632  32.996  15.186   5.864
 5076POPC   GL164633  32.984  15.160   6.164
 5076POPC   GL264634  33.179  15.099   6.164
 5076POPC   C1A64635  33.068  15.172   6.464
 5076POPC   D2A64636  33.033  15.163   6.764
 5076POPC   C3A64637  33.064  15.164   7.064
 5076POPC   C4A64638  33.024  15.184   7.364
 5076POPC   C1B64639  33.213  15.097   6.464
 5076POPC   C2B64640  33.256  15.058   6.764
 5076POPC   C3B64641  33.218  15.116   7.064
 5076POPC   C4B64642  33.281  15.095   7.364
 5077POPC   NC364643   1.231  30.684   5.564
 5077POPC   PO464644   1.235  30.700   5.864
 5077POPC   GL164645   1.214  30.746   6.164
 5077POPC   GL264646   1.166  30.610   6.164
 5077POPC   C1A64647   1.182  30.684   6.464
 5077POPC   D2A64648   1.227  30.746   6.764
 5077POPC   C3A64649   1.172  30.665   7.064
 5077POPC   C4A64650   1.188  30.734   7.364
 5077POPC   C1B64651   1.000  30.560   6.464
 5077POPC   C2B64652   1.031  30.480   6.764
 5077POPC   C3B64653   1.013  30.569   7.064
 5077POPC   C4B64654   0.996  30.550   7.364
 5078POPC   NC364655  30.662  43.889   5.564
 5078POPC   PO464656  30.686  43.863   5.864
 5078POPC   GL164657  30.718  43.888   6.164
 5078POPC   GL264658  30.636  43.745   6.164
 5078POPC   C1A64659  30.711  43.862   6.464
 5078POPC   D2A64660  30.687  43.847   6.764
 5078POPC   C3A64661  30.648  43.915   7.064
 5078POPC   C4A64662  30.648  43.879   7.364
 5078POPC   C1B64663  30.546  43.636   6.464
 5078POPC   C2B64664  30.516  43.653   6.764
 5078POPC   C3B64665  30.577  43.733   7.064
 5078POPC   C4B64666  30.594  43.715   7.364
 5079POPC   NC364667   8.943  15.228   5.564
 5079POPC   PO464668   8.970  15.173   5.864
 5079POPC   GL164669   8.942  15.178   6.164
 5079POPC   GL264670   8.968  15.282   6.164
 5079POPC   C1A64671   8.942  15.140   6.464
 5079POPC   D2A64672   8.982  15.211   6.764
 5079POPC   C3A64673   8.980  15.221   7.064
 5079POPC   C4A64674   8.988  15.131   7.364
 5079POPC   C1B64675   8.949  15.411   6.464
 5079POPC   C2B64676   8.963  15.466   6.764
 5079POPC   C3B64677   8.945  15.385   7.064
 5079POPC   C4B64678   8.947  15.436   7.364
 5080POPC   NC364679  35.328  30.656   5.564
 5080POPC   PO464680  35.392  30.696   5.864
 5080POPC   GL164681  35.322  30.677   6.164
 5080POPC   GL264682  35.487  30.755   6.164
 5080POPC   C1A64683  35.344  30.684   6.464
 5080POPC   D2A64684  35.345  30.691   6.764
 5080POPC   C3A64685  35.383  30.669   7.064
 5080POPC   C4A64686  35.383  30.736   7.364
 5080POPC   C1B64687  35.518  30.815   6.464
 5080POPC   C2B64688  35.546  30.831   6.764
 5080POPC   C3B64689  35.596  30.832   7.064
 5080POPC   C4B64690  35.515  30.812   7.364
 5081POPC   NC364691  13.617  34.601   5.564
 5081POPC   PO464692  13.656  34.562   5.864
 5081POPC   GL164693  13.579  34.526   6.164
 5081POPC   GL264694  13.703  34.713   6.164
 5081POPC   C1A64695  13.582  34.574   6.464
 5081POPC   D2A64696  13.600  34.547   6.764
 5081POPC   C3A64697  13.597  34.567   7.064
 5081POPC   C4A64698  13.631  34.552   7.364
 5081POPC   C1B64699  13.733  34.777   6.464
 5081POPC   C2B64700  13.755  34.796   6.764
 5081POPC   C3B64701  13.764  34.828   7.064
 5081POPC   C4B64702  13.706  34.819   7.364
 5082POPC   NC364703  32.988  22.155   5.564
 5082POPC   PO464704  33.021  22.187   5.864
 5082POPC   GL164705  33.050  22.139   6.164
 5082POPC   GL264706  32.939  22.157   6.164
 5082POPC   C1A64707  32.993  22.122   6.464
 5082POPC   D2A64708  33.058  22.143   6.764
 5082POPC   C3A64709  32.979  22.176   7.064
 5082POPC   C4A64710  32.994  22.121   7.364
 5082POPC   C1B64711  32.768  22.155   6.464
 5082POPC   C2B64712  32.796  22.107   6.764
 5082POPC   C3B64713  32.776  22.150   7.064
 5082POPC   C4B64714  32.778  22.069   7.364
 5083POPC   NC364715  23.741  39.198   5.564
 5083POPC   PO464716  23.742  39.192   5.864
 5083POPC   GL164717  23.748  39.243   6.164
 5083POPC   GL264718  23.734  39.318   6.164
 5083POPC   C1A64719  23.699  39.231   6.464
 5083POPC   D2A64720  23.727  39.244   6.764
 5083POPC   C3A64721  23.674  39.267   7.064
 5083POPC   C4A64722  23.760  39.247   7.364
 5083POPC   C1B64723  23.759  39.464   6.464
 5083POPC   C2B64724  23.706  39.483   6.764
 5083POPC   C3B64725  23.765  39.494   7.064
 5083POPC   C4B64726  23.738  39.453   7.364
 5084POPC   NC364727  19.028  13.642   5.564
 5084POPC   PO464728  19.048  13.611   5.864
 5084POPC   GL164729  19.078  13.645   6.164
 5084POPC   GL264730  19.160  13.530   6.164
 5084POPC   C1A64731  19.040  13.631   6.464
 5084POPC   D2A64732  19.104  13.596   6.764
 5084POPC   C3A64733  19.040  13.649   7.064
 5084POPC   C4A64734  19.018  13.599   7.364
 5084POPC   C1B64735  19.194  13.402   6.464
 5084POPC   C2B64736  19.215  13.424   6.764
 5084POPC   C3B64737  19.237  13.420   7.064
 5084POPC   C4B64738  19.240  13.423   7.364
 5085POPC   NC364739  39.273  22.946   5.564
 5085POPC   PO464740  39.248  22.969   5.864
 5085POPC   GL164741  39.264  22.981   6.164
 5085POPC   GL264742  39.318  22.969   6.164
 5085POPC   C1A64743  39.212  22.935   6.464
 5085POPC   D2A64744  39.217  22.928   6.764
 5085POPC   C3A64745  39.234  22.894   7.064
 5085POPC   C4A64746  39.203  22.919   7.364
 5085POPC   C1B64747  39.463  23.012   6.464
 5085POPC   C2B64748  39.514  23.008   6.764
 5085POPC   C3B64749  39.431  22.969   7.064
 5085POPC   C4B64750  39.426  22.972   7.364
 5086POPC   NC364751  13.632  19.081   5.564
 5086POPC   PO464752  13.603  19.069   5.864
 5086POPC   GL164753  13.662  19.079   6.164
 5086POPC   GL264754  13.586  18.971   6.164
 5086POPC   C1A64755  13.590  19.043   6.464
 5086POPC   D2A64756  13.640  19.049   6.764
 5086POPC   C3A64757  13.619  19.042   7.064
 5086POPC   C4A64758  13.660  19.108   7.364
 5086POPC   C1B64759  13.517  18.808   6.464
 5086POPC   C2B64760  13.503  18.869   6.764
 5086POPC   C3B64761  13.544  18.814   7.064
 5086POPC   C4B64762  13.494  18.832   7.364
 5087POPC   NC364763  12.813  11.293   5.564
 5087POPC   PO464764  12.821  11.274   5.864
 5087POPC   GL164765  12.891  11.293   6.164
 5087POPC   GL264766  12.903  11.211   6.164
 5087POPC   C1A64767  12.854  11.285   6.464
 5087POPC   D2A64768  12.852  11.334   6.764
 5087POPC   C3A64769  12.842  11.347   7.064
 5087POPC   C4A64770  12.885  11.307   7.364
 5087POPC   C1B64771  12.837  11.065   6.464
 5087POPC   C2B64772  12.921  11.087   6.764
 5087POPC   C3B64773  12.896  11.047   7.064
 5087POPC   C4B64774  12.859  11.076   7.364
 5088POPC   NC364775  35.387  15.212   5.564
 5088POPC   PO464776  35.323  15.221   5.864
 5088POPC   GL164777  35.366  15.158   6.164
 5088POPC   GL264778  35.441  15.078   6.164
 5088POPC   C1A64779  35.362  15.134   6.464
 5088POPC   D2A64780  35.355  15.171   6.764
 5088POPC   C3A64781  35.376  15.134   7.064
 5088POPC   C4A64782  35.365  15.175   7.364
 5088POPC   C1B64783  35.405  14.979   6.464
 5088POPC   C2B64784  35.437  14.972   6.764
 5088POPC   C3B64785  35.463  14.986   7.064
 5088POPC   C4B64786  35.433  14.950   7.364
 5089POPC   NC364787  25.265  23.721   5.564
 5089POPC   PO464788  25.274  23.707   5.864
 5089POPC   GL164789  25.293  23.695   6.164
 5089POPC   GL264790  25.197  23.787   6.164
 5089POPC   C1A64791  25.245  23.704   6.464
 5089POPC   D2A64792  25.279  23.730   6.764
 5089POPC   C3A64793  25.278  23.667   7.064
 5089POPC   C4A64794  25.278  23.674   7.364
 5089POPC   C1B64795  25.043  23.872   6.464
 5089POPC   C2B64796  25.107  23.898   6.764
 5089POPC   C3B64797  25.051  23.871   7.064
 5089POPC   C4B64798  25.050  23.893   7.364
 5090POPC   NC364799  13.585  17.466   5.564
 5090POPC   PO464800  13.669  17.529   5.864
 5090POPC   GL164801  13.667  17.528   6.164
 5090POPC   GL264802  13.670  17.605   6.164
 5090POPC   C1A64803  13.649  17.491   6.464
 5090POPC   D2A64804  13.656  17.546   6.764
 5090POPC   C3A64805  13.622  17.496   7.064
 5090POPC   C4A64806  13.603  17.530   7.364
 5090POPC   C1B64807  13.579  17.784   6.464
 5090POPC   C2B64808  13.633  17.746   6.764
 5090POPC   C3B64809  13.583  17.791   7.064
 5090POPC   C4B64810  13.606  17.784   7.364
 5091POPC   NC364811   1.942   9.794   5.564
 5091POPC   PO464812   1.991   9.701   5.864
 5091POPC   GL164813   1.942   9.715   6.164
 5091POPC   GL264814   2.078   9.907   6.164
 5091POPC   C1A64815   1.961   9.738   6.464
 5091POPC   D2A64816   2.027   9.783   6.764
 5091POPC   C3A64817   2.022   9.734   7.064
 5091POPC   C4A64818   2.009   9.796   7.364
 5091POPC   C1B64819   2.140   9.963   6.464
 5091POPC   C2B64820   2.050   9.978   6.764
 5091POPC   C3B64821   2.044   9.966   7.064
 5091POPC   C4B64822   2.070   9.969   7.364
 5092POPC   NC364823  36.092  43.872   5.564
 5092POPC   PO464824  36.154  43.872   5.864
 5092POPC   GL164825  36.114  43.873   6.164
 5092POPC   GL264826  36.060  44.008   6.164
 5092POPC   C1A64827  36.139  43.867   6.464
 5092POPC   D2A64828  36.096  43.936   6.764
 5092POPC   C3A64829  36.157  43.879   7.064
 5092POPC   C4A64830  36.125  43.872   7.364
 5092POPC   C1B64831  35.964  44.155   6.464
 5092POPC   C2B64832  36.026  44.061   6.764
 5092POPC   C3B64833  36.014  44.059   7.064
 5092POPC   C4B64834  36.047  44.064   7.364
 5093POPC   NC364835  21.370   7.458   5.564
 5093POPC   PO464836  21.366   7.395   5.864
 5093POPC   GL164837  21.349   7.413   6.164
 5093POPC   GL264838  21.453   7.475   6.164
 5093POPC   C1A64839  21.395   7.435   6.464
 5093POPC   D2A64840  21.399   7.376   6.764
 5093POPC   C3A64841  21.398   7.468   7.064
 5093POPC   C4A64842  21.381   7.421   7.364
 5093POPC   C1B64843  21.606   7.549   6.464
 5093POPC   C2B64844  21.645   7.560   6.764
 5093POPC   C3B64845  21.595   7.572   7.064
 5093POPC   C4B64846  21.621   7.516   7.364
 5094POPC   NC364847  37.666  36.092   5.564
 5094POPC   PO464848  37.698  36.126   5.864
 5094POPC   GL164849  37.670  36.131   6.164
 5094POPC   GL264850  37.707  36.272   6.164
 5094POPC   C1A64851  37.676  36.116   6.464
 5094POPC   D2A64852  37.659  36.174   6.764
 5094POPC   C3A64853  37.695  36.084   7.064
 5094POPC   C4A64854  37.652  36.141   7.364
 5094POPC   C1B64855  37.759  36.360   6.464
 5094POPC   C2B64856  37.847  36.311   6.764
 5094POPC   C3B64857  37.755  36.312   7.064
 5094POPC   C4B64858  37.812  36.327   7.364
 5095POPC   NC364859  15.951  18.309   5.564
 5095POPC   PO464860  15.940  18.248   5.864
 5095POPC   GL164861  15.992  18.239   6.164
 5095POPC   GL264862  16.056  18.269   6.164
 5095POPC   C1A64863  15.955  18.328   6.464
 5095POPC   D2A64864  15.906  18.320   6.764
 5095POPC   C3A64865  15.917  18.261   7.064
 5095POPC   C4A64866  16.002  18.240   7.364
 5095POPC   C1B64867  16.196  18.262   6.464
 5095POPC   C2B64868  16.252  18.308   6.764
 5095POPC   C3B64869  16.224  18.256   7.064
 5095POPC   C4B64870  16.190  18.278   7.364
 5096POPC   NC364871  29.125  29.172   5.564
 5096POPC   PO464872  29.154  29.158   5.864
 5096POPC   GL164873  29.188  29.123   6.164
 5096POPC   GL264874  29.199  29.258   6.164
 5096POPC   C1A64875  29.190  29.191   6.464
 5096POPC   D2A64876  29.139  29.173   6.764
 5096POPC   C3A64877  29.103  29.181   7.064
 5096POPC   C4A64878  29.167  29.194   7.364
 5096POPC   C1B64879  29.317  29.317   6.464
 5096POPC   C2B64880  29.308  29.370   6.764
 5096POPC   C3B64881  29.292  29.368   7.064
 5096POPC   C4B64882  29.317  29.316   7.364
 5097POPC   NC364883   8.974  24.451   5.564
 5097POPC   PO464884   9.013  24.525   5.864
 5097POPC   GL164885   8.933  24.491   6.164
 5097POPC   GL264886   8.917  24.579   6.164
 5097POPC   C1A64887   8.984  24.536   6.464
 5097POPC   D2A64888   8.992  24.532   6.764
 5097POPC   C3A64889   8.951  24.498   7.064
 5097POPC   C4A64890   8.970  24.522   7.364
 5097POPC   C1B64891   9.004  24.708   6.464
 5097POPC   C2B64892   8.949  24.747   6.764
 5097POPC   C3B64893   8.918  24.722   7.064
 5097POPC   C4B64894   8.998  24.703   7.364
 5098POPC   NC364895  43.863   1.179   5.564
 5098POPC   PO464896  43.851   1.261   5.864
 5098POPC   GL164897  43.841   1.240   6.164
 5098POPC   GL264898  43.983   1.190   6.164
 5098POPC   C1A64899  43.910   1.224   6.464
 5098POPC   D2A64900  43.925   1.258   6.764
 5098POPC   C3A64901  43.870   1.255   7.064
 5098POPC   C4A64902  43.871   1.239   7.364
 5098POPC   C1B64903  44.153   1.157   6.464
 5098POPC   C2B64904  44.123   1.227   6.764
 5098POPC   C3B64905  44.138   1.144   7.064
 5098POPC   C4B64906  44.089   1.221   7.364
 5099POPC   NC364907   3.508  36.933   5.564
 5099POPC   PO464908   3.575  36.897   5.864
 5099POPC   GL164909   3.568  36.940   6.164
 5099POPC   GL264910   3.474  36.774   6.164
 5099POPC   C1A64911   3.513  36.897   6.464
 5099POPC   D2A64912   3.554  36.925   6.764
 5099POPC   C3A64913   3.565  36.898   7.064
 5099POPC   C4A64914   3.536  36.914   7.364
 5099POPC   C1B64915   3.382  36.735   6.464
 5099POPC   C2B64916   3.353  36.749   6.764
 5099POPC   C3B64917   3.384  36.676   7.064
 5099POPC   C4B64918   3.343  36.718   7.364
 5100POPC   NC364919  34.605  10.540   5.564
 5100POPC   PO464920  34.536  10.572   5.864
 5100POPC   GL164921  34.568  10.479   6.164
 5100POPC   GL264922  34.485  10.476   6.164
 5100POPC   C1A64923  34.567  10.557   6.464
 5100POPC   D2A64924  34.602  10.504   6.764
 5100POPC   C3A64925  34.625  10.501   7.064
 5100POPC   C4A64926  34.614  10.561   7.364
 5100POPC   C1B64927  34.362  10.350   6.464
 5100POPC   C2B64928  34.382  10.351   6.764
 5100POPC   C3B64929  34.395  10.369   7.064
 5100POPC   C4B64930  34.369  10.440   7.364
 5101POPC   NC364931  22.986   9.718   5.564
 5101POPC   PO464932  22.920   9.760   5.864
 5101POPC   GL164933  22.895   9.798   6.164
 5101POPC   GL264934  22.895   9.605   6.164
 5101POPC   C1A64935  22.980   9.780   6.464
 5101POPC   D2A64936  22.907   9.716   6.764
 5101POPC   C3A64937  22.975   9.723   7.064
 5101POPC   C4A64938  22.982   9.701   7.364
 5101POPC   C1B64939  22.882   9.504   6.464
 5101POPC   C2B64940  22.814   9.555   6.764
 5101POPC   C3B64941  22.828   9.554   7.064
 5101POPC   C4B64942  22.790   9.523   7.364
 5102POPC   NC364943  11.318  25.244   5.564
 5102POPC   PO464944  11.293  25.260   5.864
 5102POPC   GL164945  11.301  25.229   6.164
 5102POPC   GL264946  11.386  25.276   6.164
 5102POPC   C1A64947  11.303  25.256   6.464
 5102POPC   D2A64948  11.286  25.301   6.764
 5102POPC   C3A64949  11.272  25.261   7.064
 5102POPC   C4A64950  11.344  25.256   7.364
 5102POPC   C1B64951  11.559  25.168   6.464
 5102POPC   C2B64952  11.521  25.165   6.764
 5102POPC   C3B64953  11.564  25.239   7.064
 5102POPC   C4B64954  11.555  25.194   7.364
 5103POPC   NC364955  36.943  12.096   5.564
 5103POPC   PO464956  36.898  12.086   5.864
 5103POPC   GL164957  36.936  12.058   6.164
 5103POPC   GL264958  36.899  11.965   6.164
 5103POPC   C1A64959  36.877  12.039   6.464
 5103POPC   D2A64960  36.931  12.107   6.764
 5103POPC   C3A64961  36.901  12.044   7.064
 5103POPC   C4A64962  36.858  12.110   7.364
 5103POPC   C1B64963  36.960  11.876   6.464
 5103POPC   C2B64964  36.957  11.790   6.764
 5103POPC   C3B64965  36.930  11.805   7.064
 5103POPC   C4B64966  36.971  11.844   7.364
 5104POPC   NC364967   1.252  15.220   5.564
 5104POPC   PO464968   1.207  15.185   5.864
 5104POPC   GL164969   1.249  15.137   6.164
 5104POPC   GL264970   1.298  15.125   6.164
 5104POPC   C1A64971   1.254  15.226   6.464
 5104POPC   D2A64972   1.239  15.186   6.764
 5104POPC   C3A64973   1.232  15.199   7.064
 5104POPC   C4A64974   1.224  15.154   7.364
 5104POPC   C1B64975   1.420  15.068   6.464
 5104POPC   C2B64976   1.389  15.089   6.764
 5104POPC   C3B64977   1.397  15.088   7.064
 5104POPC   C4B64978   1.441  15.031   7.364
 5105POPC   NC364979  15.169  35.327   5.564
 5105POPC   PO464980  15.202  35.336   5.864
 5105POPC   GL164981  15.215  35.371   6.164
 5105POPC   GL264982  15.087  35.326   6.164
 5105POPC   C1A64983  15.150  35.325   6.464
 5105POPC   D2A64984  15.208  35.396   6.764
 5105POPC   C3A64985  15.193  35.359   7.064
 5105POPC   C4A64986  15.156  35.354   7.364
 5105POPC   C1B64987  14.945  35.245   6.464
 5105POPC   C2B64988  14.922  35.319   6.764
 5105POPC   C3B64989  14.962  35.315   7.064
 5105POPC   C4B64990  14.941  35.278   7.364
 5106POPC   NC364991  22.162  40.044   5.564
 5106POPC   PO464992  22.172  40.014   5.864
 5106POPC   GL164993  22.191  39.996   6.164
 5106POPC   GL264994  22.313  40.028   6.164
 5106POPC   C1A64995  22.181  40.021   6.464
 5106POPC   D2A64996  22.206  40.029   6.764
 5106POPC   C3A64997  22.125  39.987   7.064
 5106POPC   C4A64998  22.209  40.016   7.364
 5106POPC   C1B64999  22.394  40.133   6.464
 5106POPC   C2B65000  22.346  40.179   6.764
 5106POPC   C3B65001  22.390  40.107   7.064
 5106POPC   C4B65002  22.410  40.112   7.364
 5107POPC   NC365003  26.790   1.226   5.564
 5107POPC   PO465004  26.815   1.260   5.864
 5107POPC   GL165005  26.853   1.180   6.164
 5107POPC   GL265006  26.969   1.209   6.164
 5107POPC   C1A65007  26.789   1.179   6.464
 5107POPC   D2A65008  26.779   1.190   6.764
 5107POPC   C3A65009  26.856   1.176   7.064
 5107POPC   C4A65010  26.792   1.238   7.364
 5107POPC   C1B65011  27.035   1.291   6.464
 5107POPC   C2B65012  27.071   1.218   6.764
 5107POPC   C3B65013  27.023   1.206   7.064
 5107POPC   C4B65014  27.103   1.213   7.364
 5108POPC   NC365015  24.532  15.226   5.564
 5108POPC   PO465016  24.440  15.153   5.864
 5108POPC   GL165017  24.507  15.195   6.164
 5108POPC   GL265018  24.604  15.159   6.164
 5108POPC   C1A65019  24.477  15.131   6.464
 5108POPC   D2A65020  24.538  15.149   6.764
 5108POPC   C3A65021  24.490  15.205   7.064
 5108POPC   C4A65022  24.489  15.196   7.364
 5108POPC   C1B65023  24.765  15.119   6.464
 5108POPC   C2B65024  24.760  15.158   6.764
 5108POPC   C3B65025  24.753  15.165   7.064
 5108POPC   C4B65026  24.758  15.130   7.364
 5109POPC   NC365027   0.461  21.360   5.564
 5109POPC   PO465028   0.463  21.423   5.864
 5109POPC   GL165029   0.402  21.352   6.164
 5109POPC   GL265030   0.536  21.254   6.164
 5109POPC   C1A65031   0.421  21.385   6.464
 5109POPC   D2A65032   0.415  21.373   6.764
 5109POPC   C3A65033   0.462  21.404   7.064
 5109POPC   C4A65034   0.480  21.348   7.364
 5109POPC   C1B65035   0.584  21.162   6.464
 5109POPC   C2B65036   0.567  21.183   6.764
 5109POPC   C3B65037   0.551  21.127   7.064
 5109POPC   C4B65038   0.504  21.154   7.364
 5110POPC   NC365039   1.211  38.438   5.564
 5110POPC   PO465040   1.245  38.439   5.864
 5110POPC   GL165041   1.251  38.494   6.164
 5110POPC   GL265042   1.149  38.594   6.164
 5110POPC   C1A65043   1.257  38.487   6.464
 5110POPC   D2A65044   1.172  38.460   6.764
 5110POPC   C3A65045   1.174  38.452   7.064
 5110POPC   C4A65046   1.252  38.451   7.364
 5110POPC   C1B65047   1.183  38.729   6.464
 5110POPC   C2B65048   1.129  38.656   6.764
 5110POPC   C3B65049   1.148  38.716   7.064
 5110POPC   C4B65050   1.194  38.746   7.364
 5111POPC   NC365051  33.028   7.399   5.564
 5111POPC   PO465052  33.034   7.384   5.864
 5111POPC   GL165053  33.071   7.443   6.164
 5111POPC   GL265054  32.879   7.445   6.164
 5111POPC   C1A65055  33.059   7.373   6.464
 5111POPC   D2A65056  32.997   7.426   6.764
 5111POPC   C3A65057  32.984   7.403   7.064
 5111POPC   C4A65058  33.007   7.449   7.364
 5111POPC   C1B65059  32.814   7.579   6.464
 5111POPC   C2B65060  32.828   7.550   6.764
 5111POPC   C3B65061  32.792   7.547   7.064
 5111POPC   C4B65062  32.799   7.599   7.364
 5112POPC   NC365063   8.195  42.343   5.564
 5112POPC   PO465064   8.237  42.361   5.864
 5112POPC   GL165065   8.202  42.317   6.164
 5112POPC   GL265066   8.228  42.453   6.164
 5112POPC   C1A65067   8.167  42.322   6.464
 5112POPC   D2A65068   8.207  42.342   6.764
 5112POPC   C3A65069   8.173  42.373   7.064
 5112POPC   C4A65070   8.198  42.377   7.364
 5112POPC   C1B65071   8.255  42.576   6.464
 5112POPC   C2B65072   8.277  42.599   6.764
 5112POPC   C3B65073   8.183  42.614   7.064
 5112POPC   C4B65074   8.255  42.580   7.364
 5113POPC   NC365075   6.653   1.970   5.564
 5113POPC   PO465076   6.686   1.944   5.864
 5113POPC   GL165077   6.641   2.033   6.164
 5113POPC   GL265078   6.799   1.997   6.164
 5113POPC   C1A65079   6.668   1.999   6.464
 5113POPC   D2A65080   6.642   1.946   6.764
 5113POPC   C3A65081   6.608   1.987   7.064
 5113POPC   C4A65082   6.665   1.986   7.364
 5113POPC   C1B65083   6.887   2.032   6.464
 5113POPC   C2B65084   6.885   2.076   6.764
 5113POPC   C3B65085   6.861   2.040   7.064
 5113POPC   C4B65086   6.883   2.055   7.364
 5114POPC   NC365087  44.615  39.985   5.564
 5114POPC   PO465088  44.662  40.043   5.864
 5114POPC   GL165089  44.633  40.009   6.164
 5114POPC   GL265090  44.564  39.909   6.164
 5114POPC   C1A65091  44.712  40.033   6.464
 5114POPC   D2A65092  44.658  40.033   6.764
 5114POPC   C3A65093  44.664  40.054   7.064
 5114POPC   C4A65094  44.700  40.014   7.364
 5114POPC   C1B65095  44.510  39.790   6.464
 5114POPC   C2B65096  44.509  39.782   6.764
 5114POPC   C3B65097  44.479  39.846   7.064
 5114POPC   C4B65098  44.560  39.786   7.364
 5115POPC   NC365099  16.776  17.517   5.564
 5115POPC   PO465100  16.772  17.497   5.864
 5115POPC   GL165101  16.728  17.534   6.164
 5115POPC   GL265102  16.627  17.414   6.164
 5115POPC   C1A65103  16.730  17.470   6.464
 5115POPC   D2A65104  16.688  17.460   6.764
 5115POPC   C3A65105  16.773  17.549   7.064
 5115POPC   C4A65106  16.745  17.515   7.364
 5115POPC   C1B65107  16.595  17.305   6.464
 5115POPC   C2B65108  16.589  17.302   6.764
 5115POPC   C3B65109  16.594  17.321   7.064
 5115POPC   C4B65110  16.575  17.329   7.364
 5116POPC   NC365111   7.391  22.200   5.564
 5116POPC   PO465112   7.420  22.152   5.864
 5116POPC   GL165113   7.440  22.186   6.164
 5116POPC   GL265114   7.547  22.157   6.164
 5116POPC   C1A65115   7.436  22.131   6.464
 5116POPC   D2A65116   7.385  22.139   6.764
 5116POPC   C3A65117   7.397  22.126   7.064
 5116POPC   C4A65118   7.380  22.209   7.364
 5116POPC   C1B65119   7.645  22.172   6.464
 5116POPC   C2B65120   7.647  22.203   6.764
 5116POPC   C3B65121   7.701  22.198   7.064
 5116POPC   C4B65122   7.675  22.193   7.364
 5117POPC   NC365123  15.225  37.667   5.564
 5117POPC   PO465124  15.177  37.718   5.864
 5117POPC   GL165125  15.182  37.662   6.164
 5117POPC   GL265126  15.230  37.789   6.164
 5117POPC   C1A65127  15.167  37.645   6.464
 5117POPC   D2A65128  15.215  37.656   6.764
 5117POPC   C3A65129  15.144  37.687   7.064
 5117POPC   C4A65130  15.209  37.695   7.364
 5117POPC   C1B65131  15.278  37.930   6.464
 5117POPC   C2B65132  15.352  37.849   6.764
 5117POPC   C3B65133  15.335  37.871   7.064
 5117POPC   C4B65134  15.368  37.886   7.364
 5118POPC   NC365135   2.759  15.945   5.564
 5118POPC   PO465136   2.750  15.979   5.864
 5118POPC   GL165137   2.745  15.930   6.164
 5118POPC   GL265138   2.799  16.107   6.164
 5118POPC   C1A65139   2.789  15.960   6.464
 5118POPC   D2A65140   2.720  15.955   6.764
 5118POPC   C3A65141   2.813  15.977   7.064
 5118POPC   C4A65142   2.760  15.991   7.364
 5118POPC   C1B65143   2.821  16.206   6.464
 5118POPC   C2B65144   2.755  16.164   6.764
 5118POPC   C3B65145   2.760  16.237   7.064
 5118POPC   C4B65146   2.772  16.220   7.364
 5119POPC   NC365147  37.661  22.149   5.564
 5119POPC   PO465148  37.630  22.197   5.864
 5119POPC   GL165149  37.684  22.125   6.164
 5119POPC   GL265150  37.742  22.206   6.164
 5119POPC   C1A65151  37.638  22.123   6.464
 5119POPC   D2A65152  37.647  22.155   6.764
 5119POPC   C3A65153  37.708  22.191   7.064
 5119POPC   C4A65154  37.667  22.137   7.364
 5119POPC   C1B65155  37.861  22.310   6.464
 5119POPC   C2B65156  37.803  22.355   6.764
 5119POPC   C3B65157  37.845  22.327   7.064
 5119POPC   C4B65158  37.813  22.347   7.364
 5120POPC   NC365159  17.520  38.453   5.564
 5120POPC   PO465160  17.530  38.459   5.864
 5120POPC   GL165161  17.508  38.467   6.164
 5120POPC   GL265162  17.549  38.548   6.164
 5120POPC   C1A65163  17.544  38.483   6.464
 5120POPC   D2A65164  17.464  38.461   6.764
 5120POPC   C3A65165  17.497  38.408   7.064
 5120POPC   C4A65166  17.474  38.425   7.364
 5120POPC   C1B65167  17.579  38.696   6.464
 5120POPC   C2B65168  17.514  38.687   6.764
 5120POPC   C3B65169  17.538  38.721   7.064
 5120POPC   C4B65170  17.579  38.715   7.364
 5121POPC   NC365171  29.959   4.330   5.564
 5121POPC   PO465172  29.959   4.290   5.864
 5121POPC   GL165173  29.896   4.322   6.164
 5121POPC   GL265174  29.812   4.364   6.164
 5121POPC   C1A65175  29.932   4.306   6.464
 5121POPC   D2A65176  29.900   4.287   6.764
 5121POPC   C3A65177  29.929   4.287   7.064
 5121POPC   C4A65178  29.872   4.286   7.364
 5121POPC   C1B65179  29.683   4.377   6.464
 5121POPC   C2B65180  29.709   4.367   6.764
 5121POPC   C3B65181  29.696   4.397   7.064
 5121POPC   C4B65182  29.691   4.421   7.364
 5122POPC   NC365183  10.537  36.141   5.564
 5122POPC   PO465184  10.477  36.120   5.864
 5122POPC   GL165185  10.493  36.156   6.164
 5122POPC   GL265186  10.681  36.156   6.164
 5122POPC   C1A65187  10.547  36.104   6.464
 5122POPC   D2A65188  10.549  36.110   6.764
 5122POPC   C3A65189  10.490  36.090   7.064
 5122POPC   C4A65190  10.560  36.093   7.364
 5122POPC   C1B65191  10.739  36.267   6.464
 5122POPC   C2B65192  10.704  36.261   6.764
 5122POPC   C3B65193  10.793  36.271   7.064
 5122POPC   C4B65194  10.717  36.257   7.364
 5123POPC   NC365195  32.999  13.663   5.564
 5123POPC   PO465196  33.038  13.611   5.864
 5123POPC   GL165197  32.984  13.672   6.164
 5123POPC   GL265198  33.057  13.484   6.164
 5123POPC   C1A65199  32.983  13.659   6.464
 5123POPC   D2A65200  33.068  13.659   6.764
 5123POPC   C3A65201  33.068  13.604   7.064
 5123POPC   C4A65202  32.976  13.581   7.364
 5123POPC   C1B65203  33.115  13.386   6.464
 5123POPC   C2B65204  33.152  13.406   6.764
 5123POPC   C3B65205  33.162  13.358   7.064
 5123POPC   C4B65206  33.085  13.405   7.364
 5124POPC   NC365207  18.275   2.761   5.564
 5124POPC   PO465208  18.327   2.717   5.864
 5124POPC   GL165209  18.239   2.771   6.164
 5124POPC   GL265210  18.376   2.639   6.164
 5124POPC   C1A65211  18.273   2.757   6.464
 5124POPC   D2A65212  18.326   2.737   6.764
 5124POPC   C3A65213  18.291   2.724   7.064
 5124POPC   C4A65214  18.234   2.765   7.364
 5124POPC   C1B65215  18.500   2.573   6.464
 5124POPC   C2B65216  18.458   2.604   6.764
 5124POPC   C3B65217  18.427   2.551   7.064
 5124POPC   C4B65218  18.418   2.586   7.364
 5125POPC   NC365219   1.964   0.401   5.564
 5125POPC   PO465220   1.986   0.449   5.864
 5125POPC   GL165221   2.005   0.438   6.164
 5125POPC   GL265222   1.890   0.391   6.164
 5125POPC   C1A65223   2.014   0.462   6.464
 5125POPC   D2A65224   1.948   0.462   6.764
 5125POPC   C3A65225   2.019   0.391   7.064
 5125POPC   C4A65226   2.015   0.478   7.364
 5125POPC   C1B65227   1.813   0.324   6.464
 5125POPC   C2B65228   1.753   0.345   6.764
 5125POPC   C3B65229   1.823   0.305   7.064
 5125POPC   C4B65230   1.753   0.319   7.364
 5126POPC   NC365231  30.741  23.759   5.564
 5126POPC   PO465232  30.658  23.698   5.864
 5126POPC   GL165233  30.746  23.703   6.164
 5126POPC   GL265234  30.767  23.878   6.164
 5126POPC   C1A65235  30.652  23.725   6.464
 5126POPC   D2A65236  30.745  23.714   6.764
 5126POPC   C3A65237  30.730  23.686   7.064
 5126POPC   C4A65238  30.692  23.760   7.364
 5126POPC   C1B65239  30.803  23.958   6.464
 5126POPC   C2B65240  30.777  23.972   6.764
 5126POPC   C3B65241  30.746  23.934   7.064
 5126POPC   C4B65242  30.756  24.003   7.364
 5127POPC   NC365243  39.964   8.978   5.564
 5127POPC   PO465244  40.015   8.996   5.864
 5127POPC   GL165245  40.020   8.953   6.164
 5127POPC   GL265246  39.909   8.939   6.164
 5127POPC   C1A65247  39.979   8.924   6.464
 5127POPC   D2A65248  40.020   9.014   6.764
 5127POPC   C3A65249  40.014   8.973   7.064
 5127POPC   C4A65250  39.966   8.962   7.364
 5127POPC   C1B65251  39.754   8.940   6.464
 5127POPC   C2B65252  39.764   8.941   6.764
 5127POPC   C3B65253  39.712   8.941   7.064
 5127POPC   C4B65254  39.803   8.919   7.364
 5128POPC   NC365255  36.137  14.379   5.564
 5128POPC   PO465256  36.083  14.421   5.864
 5128POPC   GL165257  36.125  14.444   6.164
 5128POPC   GL265258  36.042  14.447   6.164
 5128POPC   C1A65259  36.124  14.406   6.464
 5128POPC   D2A65260  36.079  14.368   6.764
 5128POPC   C3A65261  36.085  14.407   7.064
 5128POPC   C4A65262  36.090  14.449   7.364
 5128POPC   C1B65263  35.925  14.499   6.464
 5128POPC   C2B65264  35.967  14.528   6.764
 5128POPC   C3B65265  35.902  14.566   7.064
 5128POPC   C4B65266  35.890  14.527   7.364
 5129POPC   NC365267   6.618   3.511   5.564
 5129POPC   PO465268   6.626   3.552   5.864
 5129POPC   GL165269   6.645   3.566   6.164
 5129POPC   GL265270   6.542   3.455   6.164
 5129POPC   C1A65271   6.601   3.507   6.464
 5129POPC   D2A65272   6.642   3.541   6.764
 5129POPC   C3A65273   6.667   3.551   7.064
 5129POPC   C4A65274   6.646   3.551   7.364
 5129POPC   C1B65275   6.424   3.405   6.464
 5129POPC   C2B65276   6.505   3.404   6.764
 5129POPC   C3B65277   6.431   3.379   7.064
 5129POPC   C4B65278   6.511   3.353   7.364
 5130POPC   NC365279  23.744  23.729   5.564
 5130POPC   PO465280  23.713  23.698   5.864
 5130POPC   GL165281  23.692  23.749   6.164
 5130POPC   GL265282  23.550  23.706   6.164
 5130POPC   C1A65283  23.753  23.704   6.464
 5130POPC   D2A65284  23.672  23.666   6.764
 5130POPC   C3A65285  23.707  23.684   7.064
 5130POPC   C4A65286  23.722  23.742   7.364
 5130POPC   C1B65287  23.480  23.734   6.464
 5130POPC   C2B65288  23.467  23.704   6.764
 5130POPC   C3B65289  23.428  23.686   7.064
 5130POPC   C4B65290  23.499  23.659   7.364
 5131POPC   NC365291   8.930   8.219   5.564
 5131POPC   PO465292   9.007   8.225   5.864
 5131POPC   GL165293   8.934   8.212   6.164
 5131POPC   GL265294   9.050   8.252   6.164
 5131POPC   C1A65295   8.977   8.159   6.464
 5131POPC   D2A65296   8.971   8.184   6.764
 5131POPC   C3A65297   8.929   8.162   7.064
 5131POPC   C4A65298   8.930   8.178   7.364
 5131POPC   C1B65299   9.152   8.397   6.464
 5131POPC   C2B65300   9.085   8.414   6.764
 5131POPC   C3B65301   9.157   8.375   7.064
 5131POPC   C4B65302   9.133   8.396   7.364
 5132POPC   NC365303  24.481   9.713   5.564
 5132POPC   PO465304  24.536   9.727   5.864
 5132POPC   GL165305  24.445   9.746   6.164
 5132POPC   GL265306  24.437   9.899   6.164
 5132POPC   C1A65307  24.502   9.775   6.464
 5132POPC   D2A65308  24.454   9.797   6.764
 5132POPC   C3A65309  24.497   9.740   7.064
 5132POPC   C4A65310  24.503   9.790   7.364
 5132POPC   C1B65311  24.363   9.944   6.464
 5132POPC   C2B65312  24.401   9.963   6.764
 5132POPC   C3B65313  24.453  10.027   7.064
 5132POPC   C4B65314  24.448   9.938   7.364
 5133POPC   NC365315  26.067  15.971   5.564
 5133POPC   PO465316  26.089  15.913   5.864
 5133POPC   GL165317  25.998  15.923   6.164
 5133POPC   GL265318  26.174  15.994   6.164
 5133POPC   C1A65319  26.036  15.911   6.464
 5133POPC   D2A65320  26.016  15.955   6.764
 5133POPC   C3A65321  26.052  15.962   7.064
 5133POPC   C4A65322  26.014  15.953   7.364
 5133POPC   C1B65323  26.289  16.065   6.464
 5133POPC   C2B65324  26.217  16.067   6.764
 5133POPC   C3B65325  26.271  16.098   7.064
 5133POPC   C4B65326  26.267  16.145   7.364
 5134POPC   NC365327  41.594  23.745   5.564
 5134POPC   PO465328  41.598  23.696   5.864
 5134POPC   GL165329  41.594  23.756   6.164
 5134POPC   GL265330  41.609  23.783   6.164
 5134POPC   C1A65331  41.599  23.749   6.464
 5134POPC   D2A65332  41.543  23.674   6.764
 5134POPC   C3A65333  41.580  23.729   7.064
 5134POPC   C4A65334  41.510  23.703   7.364
 5134POPC   C1B65335  41.717  23.902   6.464
 5134POPC   C2B65336  41.727  23.955   6.764
 5134POPC   C3B65337  41.696  23.937   7.064
 5134POPC   C4B65338  41.678  23.906   7.364
 5135POPC   NC365339  42.329  26.842   5.564
 5135POPC   PO465340  42.298  26.844   5.864
 5135POPC   GL165341  42.332  26.801   6.164
 5135POPC   GL265342  42.259  26.897   6.164
 5135POPC   C1A65343  42.352  26.831   6.464
 5135POPC   D2A65344  42.358  26.808   6.764
 5135POPC   C3A65345  42.300  26.768   7.064
 5135POPC   C4A65346  42.339  26.815   7.364
 5135POPC   C1B65347  42.221  26.997   6.464
 5135POPC   C2B65348  42.243  27.064   6.764
 5135POPC   C3B65349  42.226  26.983   7.064
 5135POPC   C4B65350  42.234  26.978   7.364
 5136POPC   NC365351   3.538   6.694   5.564
 5136POPC   PO465352   3.501   6.639   5.864
 5136POPC   GL165353   3.547   6.691   6.164
 5136POPC   GL265354   3.513   6.547   6.164
 5136POPC   C1A65355   3.546   6.638   6.464
 5136POPC   D2A65356   3.557   6.653   6.764
 5136POPC   C3A65357   3.575   6.647   7.064
 5136POPC   C4A65358   3.554   6.615   7.364
 5136POPC   C1B65359   3.492   6.356   6.464
 5136POPC   C2B65360   3.522   6.399   6.764
 5136POPC   C3B65361   3.471   6.439   7.064
 5136POPC   C4B65362   3.544   6.381   7.364
 5137POPC   NC365363  25.233   8.212   5.564
 5137POPC   PO465364  25.228   8.171   5.864
 5137POPC   GL165365  25.239   8.158   6.164
 5137POPC   GL265366  25.389   8.076   6.164
 5137POPC   C1A65367  25.227   8.156   6.464
 5137POPC   D2A65368  25.261   8.168   6.764
 5137POPC   C3A65369  25.257   8.152   7.064
 5137POPC   C4A65370  25.218   8.181   7.364
 5137POPC   C1B65371  25.493   8.053   6.464
 5137POPC   C2B65372  25.502   8.070   6.764
 5137POPC   C3B65373  25.505   8.006   7.064
 5137POPC   C4B65374  25.444   8.082   7.364
 5138POPC   NC365375  12.894  29.880   5.564
 5138POPC   PO465376  12.839  29.895   5.864
 5138POPC   GL165377  12.858  29.883   6.164
 5138POPC   GL265378  12.839  29.994   6.164
 5138POPC   C1A65379  12.901  29.941   6.464
 5138POPC   D2A65380  12.828  29.919   6.764
 5138POPC   C3A65381  12.868  29.966   7.064
 5138POPC   C4A65382  12.898  29.957   7.364
 5138POPC   C1B65383  12.772  30.139   6.464
 5138POPC   C2B65384  12.784  30.193   6.764
 5138POPC   C3B65385  12.738  30.112   7.064
 5138POPC   C4B65386  12.768  30.127   7.364
 5139POPC   NC365387  26.038  29.936   5.564
 5139POPC   PO465388  26.031  29.887   5.864
 5139POPC   GL165389  26.078  29.935   6.164
 5139POPC   GL265390  26.125  29.963   6.164
 5139POPC   C1A65391  26.065  29.965   6.464
 5139POPC   D2A65392  26.035  29.935   6.764
 5139POPC   C3A65393  26.039  29.886   7.064
 5139POPC   C4A65394  26.086  29.895   7.364
 5139POPC   C1B65395  26.298  30.029   6.464
 5139POPC   C2B65396  26.292  29.988   6.764
 5139POPC   C3B65397  26.299  29.939   7.064
 5139POPC   C4B65398  26.314  29.939   7.364
 5140POPC   NC365399  16.725  41.511   5.564
 5140POPC   PO465400  16.766  41.529   5.864
 5140POPC   GL165401  16.700  41.539   6.164
 5140POPC   GL265402  16.634  41.635   6.164
 5140POPC   C1A65403  16.695  41.596   6.464
 5140POPC   D2A65404  16.781  41.541   6.764
 5140POPC   C3A65405  16.751  41.598   7.064
 5140POPC   C4A65406  16.719  41.591   7.364
 5140POPC   C1B65407  16.595  41.822   6.464
 5140POPC   C2B65408  16.612  41.807   6.764
 5140POPC   C3B65409  16.588  41.746   7.064
 5140POPC   C4B65410  16.567  41.806   7.364
 5141POPC   NC365411  19.815  17.464   5.564
 5141POPC   PO465412  19.869  17.460   5.864
 5141POPC   GL165413  19.807  17.492   6.164
 5141POPC   GL265414  19.780  17.611   6.164
 5141POPC   C1A65415  19.856  17.532   6.464
 5141POPC   D2A65416  19.882  17.494   6.764
 5141POPC   C3A65417  19.872  17.521   7.064
 5141POPC   C4A65418  19.804  17.486   7.364
 5141POPC   C1B65419  19.591  17.694   6.464
 5141POPC   C2B65420  19.610  17.660   6.764
 5141POPC   C3B65421  19.649  17.625   7.064
 5141POPC   C4B65422  19.642  17.688   7.364
 5142POPC   NC365423  30.706   1.202   5.564
 5142POPC   PO465424  30.677   1.187   5.864
 5142POPC   GL165425  30.647   1.237   6.164
 5142POPC   GL265426  30.656   1.132   6.164
 5142POPC   C1A65427  30.741   1.257   6.464
 5142POPC   D2A65428  30.723   1.242   6.764
 5142POPC   C3A65429  30.733   1.221   7.064
 5142POPC   C4A65430  30.699   1.217   7.364
 5142POPC   C1B65431  30.578   0.956   6.464
 5142POPC   C2B65432  30.538   1.012   6.764
 5142POPC   C3B65433  30.514   0.982   7.064
 5142POPC   C4B65434  30.525   1.041   7.364
 5143POPC   NC365435  15.981   0.412   5.564
 5143POPC   PO465436  15.971   0.437   5.864
 5143POPC   GL165437  15.984   0.438   6.164
 5143POPC   GL265438  15.866   0.569   6.164
 5143POPC   C1A65439  15.920   0.424   6.464
 5143POPC   D2A65440  15.941   0.389   6.764
 5143POPC   C3A65441  16.001   0.455   7.064
 5143POPC   C4A65442  15.959   0.409   7.364
 5143POPC   C1B65443  15.833   0.634   6.464
 5143POPC   C2B65444  15.812   0.677   6.764
 5143POPC   C3B65445  15.894   0.677   7.064
 5143POPC   C4B65446  15.842   0.650   7.364
 5144POPC   NC365447  22.941  30.727   5.564
 5144POPC   PO465448  22.898  30.690   5.864
 5144POPC   GL165449  22.889  30.666   6.164
 5144POPC   GL265450  22.974  30.789   6.164
 5144POPC   C1A65451  22.972  30.735   6.464
 5144POPC   D2A65452  22.909  30.670   6.764
 5144POPC   C3A65453  22.987  30.651   7.064
 5144POPC   C4A65454  22.976  30.690   7.364
 5144POPC   C1B65455  23.081  30.954   6.464
 5144POPC   C2B65456  23.045  30.882   6.764
 5144POPC   C3B65457  23.085  30.891   7.064
 5144POPC   C4B65458  23.007  30.887   7.364
 5145POPC   NC365459  20.585  13.627   5.564
 5145POPC   PO465460  20.578  13.638   5.864
 5145POPC   GL165461  20.623  13.655   6.164
 5145POPC   GL265462  20.604  13.702   6.164
 5145POPC   C1A65463  20.580  13.613   6.464
 5145POPC   D2A65464  20.621  13.610   6.764
 5145POPC   C3A65465  20.603  13.607   7.064
 5145POPC   C4A65466  20.621  13.620   7.364
 5145POPC   C1B65467  20.585  13.833   6.464
 5145POPC   C2B65468  20.588  13.821   6.764
 5145POPC   C3B65469  20.540  13.847   7.064
 5145POPC   C4B65470  20.531  13.863   7.364
 5146POPC   NC365471   8.993   2.037   5.564
 5146POPC   PO465472   9.012   1.992   5.864
 5146POPC   GL165473   8.948   1.944   6.164
 5146POPC   GL265474   8.867   2.074   6.164
 5146POPC   C1A65475   8.995   1.957   6.464
 5146POPC   D2A65476   8.954   1.964   6.764
 5146POPC   C3A65477   9.017   2.004   7.064
 5146POPC   C4A65478   8.946   2.007   7.364
 5146POPC   C1B65479   8.849   2.182   6.464
 5146POPC   C2B65480   8.815   2.217   6.764
 5146POPC   C3B65481   8.836   2.234   7.064
 5146POPC   C4B65482   8.857   2.186   7.364
 5147POPC   NC365483  19.097   5.132   5.564
 5147POPC   PO465484  19.088   5.101   5.864
 5147POPC   GL165485  19.092   5.142   6.164
 5147POPC   GL265486  18.932   5.063   6.164
 5147POPC   C1A65487  19.046   5.067   6.464
 5147POPC   D2A65488  19.061   5.064   6.764
 5147POPC   C3A65489  19.048   5.109   7.064
 5147POPC   C4A65490  19.081   5.125   7.364
 5147POPC   C1B65491  18.861   4.983   6.464
 5147POPC   C2B65492  18.819   4.993   6.764
 5147POPC   C3B65493  18.855   4.967   7.064
 5147POPC   C4B65494  18.836   4.965   7.364
 5148POPC   NC365495  43.092   7.422   5.564
 5148POPC   PO465496  43.086   7.460   5.864
 5148POPC   GL165497  43.079   7.458   6.164
 5148POPC   GL265498  43.153   7.345   6.164
 5148POPC   C1A65499  43.141   7.431   6.464
 5148POPC   D2A65500  43.070   7.388   6.764
 5148POPC   C3A65501  43.157   7.468   7.064
 5148POPC   C4A65502  43.127   7.468   7.364
 5148POPC   C1B65503  43.174   7.189   6.464
 5148POPC   C2B65504  43.167   7.166   6.764
 5148POPC   C3B65505  43.161   7.140   7.064
 5148POPC   C4B65506  43.188   7.134   7.364
 5149POPC   NC365507  20.651  36.082   5.564
 5149POPC   PO465508  20.602  36.151   5.864
 5149POPC   GL165509  20.597  36.102   6.164
 5149POPC   GL265510  20.774  36.109   6.164
 5149POPC   C1A65511  20.655  36.104   6.464
 5149POPC   D2A65512  20.614  36.171   6.764
 5149POPC   C3A65513  20.614  36.140   7.064
 5149POPC   C4A65514  20.566  36.148   7.364
 5149POPC   C1B65515  20.906  36.149   6.464
 5149POPC   C2B65516  20.853  36.067   6.764
 5149POPC   C3B65517  20.868  36.083   7.064
 5149POPC   C4B65518  20.815  36.085   7.364
 5150POPC   NC365519   2.014  14.381   5.564
 5150POPC   PO465520   2.001  14.360   5.864
 5150POPC   GL165521   1.985  14.449   6.164
 5150POPC   GL265522   2.023  14.244   6.164
 5150POPC   C1A65523   2.029  14.450   6.464
 5150POPC   D2A65524   2.017  14.382   6.764
 5150POPC   C3A65525   2.006  14.434   7.064
 5150POPC   C4A65526   2.033  14.447   7.364
 5150POPC   C1B65527   2.006  14.148   6.464
 5150POPC   C2B65528   1.922  14.185   6.764
 5150POPC   C3B65529   1.974  14.133   7.064
 5150POPC   C4B65530   2.011  14.132   7.364
 5151POPC   NC365531  28.340  12.882   5.564
 5151POPC   PO465532  28.380  12.870   5.864
 5151POPC   GL165533  28.379  12.837   6.164
 5151POPC   GL265534  28.431  12.730   6.164
 5151POPC   C1A65535  28.400  12.896   6.464
 5151POPC   D2A65536  28.364  12.808   6.764
 5151POPC   C3A65537  28.415  12.804   7.064
 5151POPC   C4A65538  28.342  12.883   7.364
 5151POPC   C1B65539  28.475  12.608   6.464
 5151POPC   C2B65540  28.479  12.638   6.764
 5151POPC   C3B65541  28.477  12.605   7.064
 5151POPC   C4B65542  28.498  12.638   7.364
 5152POPC   NC365543   2.764   8.962   5.564
 5152POPC   PO465544   2.782   8.976   5.864
 5152POPC   GL165545   2.730   8.972   6.164
 5152POPC   GL265546   2.680   8.997   6.164
 5152POPC   C1A65547   2.719   8.990   6.464
 5152POPC   D2A65548   2.774   9.016   6.764
 5152POPC   C3A65549   2.798   8.940   7.064
 5152POPC   C4A65550   2.808   8.954   7.364
 5152POPC   C1B65551   2.555   9.048   6.464
 5152POPC   C2B65552   2.480   8.982   6.764
 5152POPC   C3B65553   2.524   9.046   7.064
 5152POPC   C4B65554   2.541   9.022   7.364
 5153POPC   NC365555  36.862  28.361   5.564
 5153POPC   PO465556  36.904  28.341   5.864
 5153POPC   GL165557  36.952  28.363   6.164
 5153POPC   GL265558  36.827  28.443   6.164
 5153POPC   C1A65559  36.935  28.412   6.464
 5153POPC   D2A65560  36.925  28.346   6.764
 5153POPC   C3A65561  36.863  28.358   7.064
 5153POPC   C4A65562  36.873  28.408   7.364
 5153POPC   C1B65563  36.685  28.527   6.464
 5153POPC   C2B65564  36.722  28.530   6.764
 5153POPC   C3B65565  36.709  28.563   7.064
 5153POPC   C4B65566  36.739  28.569   7.364
 5154POPC   NC365567  28.403   2.792   5.564
 5154POPC   PO465568  28.353   2.793   5.864
 5154POPC   GL165569  28.320   2.765   6.164
 5154POPC   GL265570  28.250   2.815   6.164
 5154POPC   C1A65571  28.418   2.755   6.464
 5154POPC   D2A65572  28.418   2.716   6.764
 5154POPC   C3A65573  28.396   2.751   7.064
 5154POPC   C4A65574  28.378   2.743   7.364
 5154POPC   C1B65575  28.135   2.839   6.464
 5154POPC   C2B65576  28.145   2.819   6.764
 5154POPC   C3B65577  28.121   2.817   7.064
 5154POPC   C4B65578  28.174   2.802   7.364
 5155POPC   NC365579  15.157  39.973   5.564
 5155POPC   PO465580  15.229  40.004   5.864
 5155POPC   GL165581  15.142  39.997   6.164
 5155POPC   GL265582  15.319  39.970   6.164
 5155POPC   C1A65583  15.210  39.969   6.464
 5155POPC   D2A65584  15.160  40.039   6.764
 5155POPC   C3A65585  15.203  40.034   7.064
 5155POPC   C4A65586  15.222  40.042   7.364
 5155POPC   C1B65587  15.390  39.971   6.464
 5155POPC   C2B65588  15.396  39.957   6.764
 5155POPC   C3B65589  15.437  39.975   7.064
 5155POPC   C4B65590  15.425  39.968   7.364
 5156POPC   NC365591   8.188  10.502   5.564
 5156POPC   PO465592   8.159  10.567   5.864
 5156POPC   GL165593   8.161  10.544   6.164
 5156POPC   GL265594   8.289  10.511   6.164
 5156POPC   C1A65595   8.232  10.525   6.464
 5156POPC   D2A65596   8.169  10.545   6.764
 5156POPC   C3A65597   8.230  10.497   7.064
 5156POPC   C4A65598   8.161  10.519   7.364
 5156POPC   C1B65599   8.475  10.496   6.464
 5156POPC   C2B65600   8.417  10.456   6.764
 5156POPC   C3B65601   8.419  10.469   7.064
 5156POPC   C4B65602   8.489  10.464   7.364
 5157POPC   NC365603  42.287  11.285   5.564
 5157POPC   PO465604  42.301  11.299   5.864
 5157POPC   GL165605  42.312  11.253   6.164
 5157POPC   GL265606  42.484  11.312   6.164
 5157POPC   C1A65607  42.367  11.275   6.464
 5157POPC   D2A65608  42.359  11.320   6.764
 5157POPC   C3A65609  42.295  11.262   7.064
 5157POPC   C4A65610  42.336  11.274   7.364
 5157POPC   C1B65611  42.619  11.220   6.464
 5157POPC   C2B65612  42.625  11.251   6.764
 5157POPC   C3B65613  42.625  11.256   7.064
 5157POPC   C4B65614  42.622  11.252   7.364
 5158POPC   NC365615   1.218  41.599   5.564
 5158POPC   PO465616   1.252  41.527   5.864
 5158POPC   GL165617   1.217  41.542   6.164
 5158POPC   GL265618   1.066  41.574   6.164
 5158POPC   C1A65619   1.167  41.588   6.464
 5158POPC   D2A65620   1.254  41.510   6.764
 5158POPC   C3A65621   1.212  41.524   7.064
 5158POPC   C4A65622   1.198  41.559   7.364
 5158POPC   C1B65623   1.017  41.623   6.464
 5158POPC   C2B65624   1.000  41.645   6.764
 5158POPC   C3B65625   0.937  41.694   7.064
 5158POPC   C4B65626   1.013  41.623   7.364
 5159POPC   NC365627  28.338   6.612   5.564
 5159POPC   PO465628  28.363   6.600   5.864
 5159POPC   GL165629  28.363   6.668   6.164
 5159POPC   GL265630  28.514   6.615   6.164
 5159POPC   C1A65631  28.405   6.660   6.464
 5159POPC   D2A65632  28.374   6.604   6.764
 5159POPC   C3A65633  28.417   6.637   7.064
 5159POPC   C4A65634  28.401   6.638   7.364
 5159POPC   C1B65635  28.571   6.607   6.464
 5159POPC   C2B65636  28.586   6.666   6.764
 5159POPC   C3B65637  28.663   6.648   7.064
 5159POPC   C4B65638  28.638   6.653   7.364
 5160POPC   NC365639  25.304  24.462   5.564
 5160POPC   PO465640  25.258  24.537   5.864
 5160POPC   GL165641  25.290  24.450   6.164
 5160POPC   GL265642  25.370  24.459   6.164
 5160POPC   C1A65643  25.228  24.498   6.464
 5160POPC   D2A65644  25.280  24.497   6.764
 5160POPC   C3A65645  25.233  24.537   7.064
 5160POPC   C4A65646  25.230  24.510   7.364
 5160POPC   C1B65647  25.495  24.562   6.464
 5160POPC   C2B65648  25.489  24.499   6.764
 5160POPC   C3B65649  25.470  24.466   7.064
 5160POPC   C4B65650  25.482  24.483   7.364
 5161POPC   NC365651  21.432  12.884   5.564
 5161POPC   PO465652  21.384  12.838   5.864
 5161POPC   GL165653  21.402  12.898   6.164
 5161POPC   GL265654  21.535  12.881   6.164
 5161POPC   C1A65655  21.435  12.847   6.464
 5161POPC   D2A65656  21.345  12.842   6.764
 5161POPC   C3A65657  21.417  12.861   7.064
 5161POPC   C4A65658  21.404  12.817   7.364
 5161POPC   C1B65659  21.584  13.026   6.464
 5161POPC   C2B65660  21.638  12.935   6.764
 5161POPC   C3B65661  21.554  12.985   7.064
 5161POPC   C4B65662  21.648  12.960   7.364
 5162POPC   NC365663   1.957  24.481   5.564
 5162POPC   PO465664   1.999  24.506   5.864
 5162POPC   GL165665   2.028  24.531   6.164
 5162POPC   GL265666   1.863  24.405   6.164
 5162POPC   C1A65667   2.012  24.495   6.464
 5162POPC   D2A65668   1.954  24.484   6.764
 5162POPC   C3A65669   1.968  24.490   7.064
 5162POPC   C4A65670   1.973  24.480   7.364
 5162POPC   C1B65671   1.734  24.347   6.464
 5162POPC   C2B65672   1.751  24.345   6.764
 5162POPC   C3B65673   1.780  24.415   7.064
 5162POPC   C4B65674   1.757  24.392   7.364
 5163POPC   NC365675   2.718  36.121   5.564
 5163POPC   PO465676   2.738  36.149   5.864
 5163POPC   GL165677   2.760  36.102   6.164
 5163POPC   GL265678   2.682  36.031   6.164
 5163POPC   C1A65679   2.795  36.113   6.464
 5163POPC   D2A65680   2.744  36.169   6.764
 5163POPC   C3A65681   2.746  36.141   7.064
 5163POPC   C4A65682   2.722  36.156   7.364
 5163POPC   C1B65683   2.544  35.949   6.464
 5163POPC   C2B65684   2.596  35.965   6.764
 5163POPC   C3B65685   2.532  35.994   7.064
 5163POPC   C4B65686   2.577  35.942   7.364
 5164POPC   NC365687  36.888   3.514   5.564
 5164POPC   PO465688  36.883   3.511   5.864
 5164POPC   GL165689  36.854   3.531   6.164
 5164POPC   GL265690  36.922   3.458   6.164
 5164POPC   C1A65691  36.923   3.572   6.464
 5164POPC   D2A65692  36.854   3.539   6.764
 5164POPC   C3A65693  36.859   3.553   7.064
 5164POPC   C4A65694  36.891   3.589   7.364
 5164POPC   C1B65695  36.932   3.336   6.464
 5164POPC   C2B65696  36.973   3.298   6.764
 5164POPC   C3B65697  37.000   3.265   7.064
 5164POPC   C4B65698  36.993   3.307   7.364
 5165POPC   NC365699  17.509  43.075   5.564
 5165POPC   PO465700  17.476  43.098   5.864
 5165POPC   GL165701  17.548  43.082   6.164
 5165POPC   GL265702  17.392  42.989   6.164
 5165POPC   C1A65703  17.543  43.090   6.464
 5165POPC   D2A65704  17.500  43.129   6.764
 5165POPC   C3A65705  17.526  43.069   7.064
 5165POPC   C4A65706  17.463  43.140   7.364
 5165POPC   C1B65707  17.333  42.938   6.464
 5165POPC   C2B65708  17.302  42.890   6.764
 5165POPC   C3B65709  17.325  42.890   7.064
 5165POPC   C4B65710  17.315  42.891   7.364
 5166POPC   NC365711  15.952  43.078   5.564
 5166POPC   PO465712  15.906  43.063   5.864
 5166POPC   GL165713  15.992  43.156   6.164
 5166POPC   GL265714  15.978  43.032   6.164
 5166POPC   C1A65715  15.919  43.104   6.464
 5166POPC   D2A65716  15.953  43.126   6.764
 5166POPC   C3A65717  15.999  43.144   7.064
 5166POPC   C4A65718  15.972  43.115   7.364
 5166POPC   C1B65719  16.055  42.841   6.464
 5166POPC   C2B65720  16.088  42.909   6.764
 5166POPC   C3B65721  16.081  42.924   7.064
 5166POPC   C4B65722  16.084  42.877   7.364
 5167POPC   NC365723  11.266  12.836   5.564
 5167POPC   PO465724  11.285  12.841   5.864
 5167POPC   GL165725  11.271  12.833   6.164
 5167POPC   GL265726  11.249  12.935   6.164
 5167POPC   C1A65727  11.288  12.879   6.464
 5167POPC   D2A65728  11.277  12.899   6.764
 5167POPC   C3A65729  11.252  12.813   7.064
 5167POPC   C4A65730  11.340  12.891   7.364
 5167POPC   C1B65731  11.208  13.048   6.464
 5167POPC   C2B65732  11.198  13.040   6.764
 5167POPC   C3B65733  11.202  13.105   7.064
 5167POPC   C4B65734  11.195  13.097   7.364
 5168POPC   NC365735  36.167  30.740   5.564
 5168POPC   PO465736  36.153  30.697   5.864
 5168POPC   GL165737  36.092  30.743   6.164
 5168POPC   GL265738  36.213  30.542   6.164
 5168POPC   C1A65739  36.136  30.687   6.464
 5168POPC   D2A65740  36.108  30.696   6.764
 5168POPC   C3A65741  36.156  30.708   7.064
 5168POPC   C4A65742  36.157  30.687   7.364
 5168POPC   C1B65743  36.292  30.476   6.464
 5168POPC   C2B65744  36.284  30.476   6.764
 5168POPC   C3B65745  36.261  30.439   7.064
 5168POPC   C4B65746  36.218  30.495   7.364
 5169POPC   NC365747  20.616  29.953   5.564
 5169POPC   PO465748  20.642  29.882   5.864
 5169POPC   GL165749  20.650  29.885   6.164
 5169POPC   GL265750  20.695  30.039   6.164
 5169POPC   C1A65751  20.635  29.913   6.464
 5169POPC   D2A65752  20.631  29.931   6.764
 5169POPC   C3A65753  20.591  29.914   7.064
 5169POPC   C4A65754  20.594  29.912   7.364
 5169POPC   C1B65755  20.825  30.051   6.464
 5169POPC   C2B65756  20.762  30.068   6.764
 5169POPC   C3B65757  20.802  30.074   7.064
 5169POPC   C4B65758  20.824  30.086   7.364
 5170POPC   NC365759  34.600  39.245   5.564
 5170POPC   PO465760  34.542  39.202   5.864
 5170POPC   GL165761  34.592  39.206   6.164
 5170POPC   GL265762  34.556  39.087   6.164
 5170POPC   C1A65763  34.567  39.215   6.464
 5170POPC   D2A65764  34.595  39.276   6.764
 5170POPC   C3A65765  34.597  39.183   7.064
 5170POPC   C4A65766  34.568  39.270   7.364
 5170POPC   C1B65767  34.540  39.030   6.464
 5170POPC   C2B65768  34.526  39.027   6.764
 5170POPC   C3B65769  34.490  38.992   7.064
 5170POPC   C4B65770  34.504  39.040   7.364
 5171POPC   NC365771   1.969  18.242   5.564
 5171POPC   PO465772   1.976  18.292   5.864
 5171POPC   GL165773   2.022  18.262   6.164
 5171POPC   GL265774   1.998  18.445   6.164
 5171POPC   C1A65775   2.037  18.310   6.464
 5171POPC   D2A65776   2.003  18.330   6.764
 5171POPC   C3A65777   1.951  18.279   7.064
 5171POPC   C4A65778   1.973  18.307   7.364
 5171POPC   C1B65779   2.124  18.483   6.464
 5171POPC   C2B65780   2.054  18.537   6.764
 5171POPC   C3B65781   2.071  18.480   7.064
 5171POPC   C4B65782   2.052  18.538   7.364
 5172POPC   NC365783   2.790  29.907   5.564
 5172POPC   PO465784   2.790  29.938   5.864
 5172POPC   GL165785   2.728  29.939   6.164
 5172POPC   GL265786   2.820  30.084   6.164
 5172POPC   C1A65787   2.717  29.928   6.464
 5172POPC   D2A65788   2.803  29.902   6.764
 5172POPC   C3A65789   2.777  29.917   7.064
 5172POPC   C4A65790   2.772  29.931   7.364
 5172POPC   C1B65791   2.747  30.173   6.464
 5172POPC   C2B65792   2.759  30.139   6.764
 5172POPC   C3B65793   2.745  30.127   7.064
 5172POPC   C4B65794   2.797  30.165   7.364
 5173POPC   NC365795  39.205  10.567   5.564
 5173POPC   PO465796  39.193  10.564   5.864
 5173POPC   GL165797  39.198  10.538   6.164
 5173POPC   GL265798  39.192  10.442   6.164
 5173POPC   C1A65799  39.190  10.549   6.464
 5173POPC   D2A65800  39.200  10.483   6.764
 5173POPC   C3A65801  39.257  10.503   7.064
 5173POPC   C4A65802  39.189  10.480   7.364
 5173POPC   C1B65803  39.111  10.333   6.464
 5173POPC   C2B65804  39.098  10.297   6.764
 5173POPC   C3B65805  39.124  10.284   7.064
 5173POPC   C4B65806  39.120  10.260   7.364
 5174POPC   NC365807  20.632   1.962   5.564
 5174POPC   PO465808  20.577   2.009   5.864
 5174POPC   GL165809  20.654   2.030   6.164
 5174POPC   GL265810  20.488   2.003   6.164
 5174POPC   C1A65811  20.657   1.946   6.464
 5174POPC   D2A65812  20.619   2.008   6.764
 5174POPC   C3A65813  20.566   2.020   7.064
 5174POPC   C4A65814  20.585   1.997   7.364
 5174POPC   C1B65815  20.417   2.042   6.464
 5174POPC   C2B65816  20.400   2.139   6.764
 5174POPC   C3B65817  20.345   2.060   7.064
 5174POPC   C4B65818  20.413   2.078   7.364
 5175POPC   NC365819  22.902  43.119   5.564
 5175POPC   PO465820  22.954  43.114   5.864
 5175POPC   GL165821  22.962  43.088   6.164
 5175POPC   GL265822  22.863  43.043   6.164
 5175POPC   C1A65823  22.930  43.145   6.464
 5175POPC   D2A65824  22.948  43.103   6.764
 5175POPC   C3A65825  22.925  43.074   7.064
 5175POPC   C4A65826  22.977  43.088   7.364
 5175POPC   C1B65827  22.704  42.947   6.464
 5175POPC   C2B65828  22.695  42.969   6.764
 5175POPC   C3B65829  22.678  42.985   7.064
 5175POPC   C4B65830  22.713  42.998   7.364
 5176POPC   NC365831   5.821   7.469   5.564
 5176POPC   PO465832   5.876   7.415   5.864
 5176POPC   GL165833   5.872   7.384   6.164
 5176POPC   GL265834   5.919   7.513   6.164
 5176POPC   C1A65835   5.912   7.470   6.464
 5176POPC   D2A65836   5.861   7.375   6.764
 5176POPC   C3A65837   5.872   7.425   7.064
 5176POPC   C4A65838   5.821   7.428   7.364
 5176POPC   C1B65839   6.097   7.576   6.464
 5176POPC   C2B65840   6.105   7.624   6.764
 5176POPC   C3B65841   6.013   7.610   7.064
 5176POPC   C4B65842   6.062   7.573   7.364
 5177POPC   NC365843  19.095  37.697   5.564
 5177POPC   PO465844  19.042  37.665   5.864
 5177POPC   GL165845  19.046  37.677   6.164
 5177POPC   GL265846  19.173  37.739   6.164
 5177POPC   C1A65847  19.091  37.688   6.464
 5177POPC   D2A65848  19.086  37.653   6.764
 5177POPC   C3A65849  19.047  37.676   7.064
 5177POPC   C4A65850  19.025  37.669   7.364
 5177POPC   C1B65851  19.243  37.871   6.464
 5177POPC   C2B65852  19.265  37.888   6.764
 5177POPC   C3B65853  19.287  37.845   7.064
 5177POPC   C4B65854  19.215  37.883   7.364
 5178POPC   NC365855  20.621  20.588   5.564
 5178POPC   PO465856  20.592  20.635   5.864
 5178POPC   GL165857  20.582  20.613   6.164
 5178POPC   GL265858  20.537  20.741   6.164
 5178POPC   C1A65859  20.586  20.606   6.464
 5178POPC   D2A65860  20.596  20.575   6.764
 5178POPC   C3A65861  20.608  20.632   7.064
 5178POPC   C4A65862  20.578  20.600   7.364
 5178POPC   C1B65863  20.543  20.881   6.464
 5178POPC   C2B65864  20.477  20.859   6.764
 5178POPC   C3B65865  20.478  20.814   7.064
 5178POPC   C4B65866  20.473  20.856   7.364
 5179POPC   NC365867  22.187  32.213   5.564
 5179POPC   PO465868  22.201  32.283   5.864
 5179POPC   GL165869  22.184  32.215   6.164
 5179POPC   GL265870  22.152  32.359   6.164
 5179POPC   C1A65871  22.138  32.260   6.464
 5179POPC   D2A65872  22.120  32.216   6.764
 5179POPC   C3A65873  22.192  32.276   7.064
 5179POPC   C4A65874  22.167  32.263   7.364
 5179POPC   C1B65875  22.147  32.535   6.464
 5179POPC   C2B65876  22.147  32.503   6.764
 5179POPC   C3B65877  22.085  32.530   7.064
 5179POPC   C4B65878  22.150  32.490   7.364
 5180POPC   NC365879  24.505   6.684   5.564
 5180POPC   PO465880  24.513   6.669   5.864
 5180POPC   GL165881  24.443   6.599   6.164
 5180POPC   GL265882  24.592   6.575   6.164
 5180POPC   C1A65883  24.533   6.671   6.464
 5180POPC   D2A65884  24.515   6.690   6.764
 5180POPC   C3A65885  24.519   6.668   7.064
 5180POPC   C4A65886  24.460   6.673   7.364
 5180POPC   C1B65887  24.646   6.455   6.464
 5180POPC   C2B65888  24.573   6.425   6.764
 5180POPC   C3B65889  24.649   6.395   7.064
 5180POPC   C4B65890  24.633   6.445   7.364
 5181POPC   NC365891   1.240  39.224   5.564
 5181POPC   PO465892   1.253  39.185   5.864
 5181POPC   GL165893   1.233  39.256   6.164
 5181POPC   GL265894   1.085  39.328   6.164
 5181POPC   C1A65895   1.179  39.222   6.464
 5181POPC   D2A65896   1.183  39.266   6.764
 5181POPC   C3A65897   1.262  39.275   7.064
 5181POPC   C4A65898   1.193  39.196   7.364
 5181POPC   C1B65899   0.985  39.399   6.464
 5181POPC   C2B65900   1.039  39.419   6.764
 5181POPC   C3B65901   1.017  39.448   7.064
 5181POPC   C4B65902   1.078  39.411   7.364
 5182POPC   NC365903  10.485  15.140   5.564
 5182POPC   PO465904  10.542  15.201   5.864
 5182POPC   GL165905  10.550  15.181   6.164
 5182POPC   GL265906  10.559  15.336   6.164
 5182POPC   C1A65907  10.568  15.194   6.464
 5182POPC   D2A65908  10.567  15.147   6.764
 5182POPC   C3A65909  10.521  15.207   7.064
 5182POPC   C4A65910  10.487  15.177   7.364
 5182POPC   C1B65911  10.579  15.446   6.464
 5182POPC   C2B65912  10.630  15.430   6.764
 5182POPC   C3B65913  10.556  15.397   7.064
 5182POPC   C4B65914  10.572  15.452   7.364
 5183POPC   NC365915  22.181  26.022   5.564
 5183POPC   PO465916  22.143  26.068   5.864
 5183POPC   GL165917  22.118  26.076   6.164
 5183POPC   GL265918  22.099  26.020   6.164
 5183POPC   C1A65919  22.159  26.050   6.464
 5183POPC   D2A65920  22.156  26.029   6.764
 5183POPC   C3A65921  22.140  26.046   7.064
 5183POPC   C4A65922  22.123  25.998   7.364
 5183POPC   C1B65923  21.982  25.869   6.464
 5183POPC   C2B65924  21.946  25.932   6.764
 5183POPC   C3B65925  21.925  25.878   7.064
 5183POPC   C4B65926  21.941  25.862   7.364
 5184POPC   NC365927  13.654  21.427   5.564
 5184POPC   PO465928  13.637  21.429   5.864
 5184POPC   GL165929  13.596  21.370   6.164
 5184POPC   GL265930  13.566  21.232   6.164
 5184POPC   C1A65931  13.622  21.402   6.464
 5184POPC   D2A65932  13.611  21.419   6.764
 5184POPC   C3A65933  13.588  21.370   7.064
 5184POPC   C4A65934  13.658  21.429   7.364
 5184POPC   C1B65935  13.617  21.190   6.464
 5184POPC   C2B65936  13.592  21.135   6.764
 5184POPC   C3B65937  13.619  21.170   7.064
 5184POPC   C4B65938  13.548  21.148   7.364
 5185POPC   NC365939  33.064  15.952   5.564
 5185POPC   PO465940  33.023  15.950   5.864
 5185POPC   GL165941  33.067  16.005   6.164
 5185POPC   GL265942  33.111  16.020   6.164
 5185POPC   C1A65943  33.037  15.985   6.464
 5185POPC   D2A65944  32.984  15.912   6.764
 5185POPC   C3A65945  33.013  15.976   7.064
 5185POPC   C4A65946  33.059  15.959   7.364
 5185POPC   C1B65947  33.259  16.114   6.464
 5185POPC   C2B65948  33.257  16.106   6.764
 5185POPC   C3B65949  33.199  16.100   7.064
 5185POPC   C4B65950  33.205  16.133   7.364
 5186POPC   NC365951   7.372  43.853   5.564
 5186POPC   PO465952   7.392  43.868   5.864
 5186POPC   GL165953   7.383  43.857   6.164
 5186POPC   GL265954   7.454  44.018   6.164
 5186POPC   C1A65955   7.427  43.934   6.464
 5186POPC   D2A65956   7.414  43.896   6.764
 5186POPC   C3A65957   7.429  43.916   7.064
 5186POPC   C4A65958   7.375  43.920   7.364
 5186POPC   C1B65959   7.557  44.120   6.464
 5186POPC   C2B65960   7.551  44.093   6.764
 5186POPC   C3B65961   7.566  44.129   7.064
 5186POPC   C4B65962   7.505  44.077   7.364
 5187POPC   NC365963  29.133  25.229   5.564
 5187POPC   PO465964  29.114  25.248   5.864
 5187POPC   GL165965  29.167  25.223   6.164
 5187POPC   GL265966  29.028  25.205   6.164
 5187POPC   C1A65967  29.136  25.267   6.464
 5187POPC   D2A65968  29.180  25.246   6.764
 5187POPC   C3A65969  29.102  25.228   7.064
 5187POPC   C4A65970  29.194  25.272   7.364
 5187POPC   C1B65971  28.935  25.198   6.464
 5187POPC   C2B65972  28.925  25.234   6.764
 5187POPC   C3B65973  28.893  25.203   7.064
 5187POPC   C4B65974  28.880  25.216   7.364
 5188POPC   NC365975   6.675  24.469   5.564
 5188POPC   PO465976   6.684  24.450   5.864
 5188POPC   GL165977   6.604  24.458   6.164
 5188POPC   GL265978   6.794  24.527   6.164
 5188POPC   C1A65979   6.596  24.475   6.464
 5188POPC   D2A65980   6.690  24.504   6.764
 5188POPC   C3A65981   6.660  24.486   7.064
 5188POPC   C4A65982   6.612  24.505   7.364
 5188POPC   C1B65983   6.927  24.526   6.464
 5188POPC   C2B65984   6.937  24.541   6.764
 5188POPC   C3B65985   6.855  24.520   7.064
 5188POPC   C4B65986   6.910  24.507   7.364
 5189POPC   NC365987  22.900  26.773   5.564
 5189POPC   PO465988  22.950  26.838   5.864
 5189POPC   GL165989  22.973  26.824   6.164
 5189POPC   GL265990  22.796  26.899   6.164
 5189POPC   C1A65991  22.940  26.818   6.464
 5189POPC   D2A65992  22.910  26.823   6.764
 5189POPC   C3A65993  22.905  26.839   7.064
 5189POPC   C4A65994  22.984  26.852   7.364
 5189POPC   C1B65995  22.741  26.998   6.464
 5189POPC   C2B65996  22.769  26.927   6.764
 5189POPC   C3B65997  22.741  26.936   7.064
 5189POPC   C4B65998  22.741  26.997   7.364
 5190POPC   NC365999  44.691  10.540   5.564
 5190POPC   PO466000  44.680  10.478   5.864
 5190POPC   GL166001  44.635  10.502   6.164
 5190POPC   GL266002  44.701  10.688   6.164
 5190POPC   C1A66003  44.632  10.478   6.464
 5190POPC   D2A66004  44.626  10.529   6.764
 5190POPC   C3A66005  44.696  10.567   7.064
 5190POPC   C4A66006  44.621  10.522   7.364
 5190POPC   C1B66007  44.693  10.756   6.464
 5190POPC   C2B66008  44.625  10.758   6.764
 5190POPC   C3B66009  44.672  10.736   7.064
 5190POPC   C4B66010  44.636  10.806   7.364
 5191POPC   NC366011   1.966  33.839   5.564
 5191POPC   PO466012   1.961  33.781   5.864
 5191POPC   GL166013   1.962  33.822   6.164
 5191POPC   GL266014   1.926  33.903   6.164
 5191POPC   C1A66015   1.963  33.769   6.464
 5191POPC   D2A66016   1.961  33.789   6.764
 5191POPC   C3A66017   2.035  33.822   7.064
 5191POPC   C4A66018   1.970  33.783   7.364
 5191POPC   C1B66019   1.845  34.000   6.464
 5191POPC   C2B66020   1.888  34.039   6.764
 5191POPC   C3B66021   1.851  34.012   7.064
 5191POPC   C4B66022   1.895  34.048   7.364
 5192POPC   NC366023   6.667  43.129   5.564
 5192POPC   PO466024   6.639  43.130   5.864
 5192POPC   GL166025   6.646  43.146   6.164
 5192POPC   GL266026   6.801  43.105   6.164
 5192POPC   C1A66027   6.611  43.153   6.464
 5192POPC   D2A66028   6.649  43.098   6.764
 5192POPC   C3A66029   6.648  43.137   7.064
 5192POPC   C4A66030   6.609  43.134   7.364
 5192POPC   C1B66031   6.861  43.020   6.464
 5192POPC   C2B66032   6.936  43.008   6.764
 5192POPC   C3B66033   6.923  43.040   7.064
 5192POPC   C4B66034   6.874  43.088   7.364
 5193POPC   NC366035  22.905   5.887   5.564
 5193POPC   PO466036  22.939   5.840   5.864
 5193POPC   GL166037  22.936   5.881   6.164
 5193POPC   GL266038  23.059   5.902   6.164
 5193POPC   C1A66039  22.975   5.843   6.464
 5193POPC   D2A66040  22.909   5.890   6.764
 5193POPC   C3A66041  22.958   5.821   7.064
 5193POPC   C4A66042  22.913   5.915   7.364
 5193POPC   C1B66043  23.125   5.994   6.464
 5193POPC   C2B66044  23.181   5.997   6.764
 5193POPC   C3B66045  23.150   5.989   7.064
 5193POPC   C4B66046  23.170   6.025   7.364
 5194POPC   NC366047  34.620  23.677   5.564
 5194POPC   PO466048  34.602  23.726   5.864
 5194POPC   GL166049  34.574  23.730   6.164
 5194POPC   GL266050  34.583  23.580   6.164
 5194POPC   C1A66051  34.591  23.736   6.464
 5194POPC   D2A66052  34.536  23.724   6.764
 5194POPC   C3A66053  34.600  23.728   7.064
 5194POPC   C4A66054  34.568  23.737   7.364
 5194POPC   C1B66055  34.529  23.451   6.464
 5194POPC   C2B66056  34.521  23.496   6.764
 5194POPC   C3B66057  34.511  23.432   7.064
 5194POPC   C4B66058  34.460  23.523   7.364
 5195POPC   NC366059  39.272  17.545   5.564
 5195POPC   PO466060  39.268  17.537   5.864
 5195POPC   GL166061  39.243  17.506   6.164
 5195POPC   GL266062  39.178  17.597   6.164
 5195POPC   C1A66063  39.251  17.544   6.464
 5195POPC   D2A66064  39.213  17.527   6.764
 5195POPC   C3A66065  39.187  17.556   7.064
 5195POPC   C4A66066  39.256  17.525   7.364
 5195POPC   C1B66067  39.178  17.790   6.464
 5195POPC   C2B66068  39.256  17.746   6.764
 5195POPC   C3B66069  39.259  17.790   7.064
 5195POPC   C4B66070  39.238  17.790   7.364
 5196POPC   NC366071   7.423   2.025   5.564
 5196POPC   PO466072   7.373   1.946   5.864
 5196POPC   GL166073   7.425   2.018   6.164
 5196POPC   GL266074   7.335   1.934   6.164
 5196POPC   C1A66075   7.397   2.034   6.464
 5196POPC   D2A66076   7.387   2.002   6.764
 5196POPC   C3A66077   7.388   2.000   7.064
 5196POPC   C4A66078   7.416   1.962   7.364
 5196POPC   C1B66079   7.178   1.861   6.464
 5196POPC   C2B66080   7.230   1.837   6.764
 5196POPC   C3B66081   7.259   1.850   7.064
 5196POPC   C4B66082   7.233   1.854   7.364
 5197POPC   NC366083  24.502  23.720   5.564
 5197POPC   PO466084  24.471  23.745   5.864
 5197POPC   GL166085  24.448  23.681   6.164
 5197POPC   GL266086  24.600  23.669   6.164
 5197POPC   C1A66087  24.462  23.745   6.464
 5197POPC   D2A66088  24.505  23.695   6.764
 5197POPC   C3A66089  24.443  23.709   7.064
 5197POPC   C4A66090  24.488  23.721   7.364
 5197POPC   C1B66091  24.755  23.688   6.464
 5197POPC   C2B66092  24.755  23.613   6.764
 5197POPC   C3B66093  24.764  23.630   7.064
 5197POPC   C4B66094  24.735  23.686   7.364
 5198POPC   NC366095  18.309  40.762   5.564
 5198POPC   PO466096  18.328  40.738   5.864
 5198POPC   GL166097  18.299  40.794   6.164
 5198POPC   GL266098  18.291  40.633   6.164
 5198POPC   C1A66099  18.288  40.795   6.464
 5198POPC   D2A66100  18.268  40.785   6.764
 5198POPC   C3A66101  18.264  40.813   7.064
 5198POPC   C4A66102  18.301  40.795   7.364
 5198POPC   C1B66103  18.227  40.516   6.464
 5198POPC   C2B66104  18.190  40.566   6.764
 5198POPC   C3B66105  18.212  40.597   7.064
 5198POPC   C4B66106  18.231  40.549   7.364
 5199POPC   NC366107  23.683  14.355   5.564
 5199POPC   PO466108  23.726  14.421   5.864
 5199POPC   GL166109  23.725  14.383   6.164
 5199POPC   GL266110  23.856  14.417   6.164
 5199POPC   C1A66111  23.691  14.378   6.464
 5199POPC   D2A66112  23.745  14.355   6.764
 5199POPC   C3A66113  23.665  14.375   7.064
 5199POPC   C4A66114  23.759  14.376   7.364
 5199POPC   C1B66115  23.953  14.375   6.464
 5199POPC   C2B66116  23.971  14.419   6.764
 5199POPC   C3B66117  24.010  14.452   7.064
 5199POPC   C4B66118  23.974  14.448   7.364
 5200POPC   NC366119   0.392  26.796   5.564
 5200POPC   PO466120   0.488  26.768   5.864
 5200POPC   GL166121   0.450  26.775   6.164
 5200POPC   GL266122   0.282  26.877   6.164
 5200POPC   C1A66123   0.402  26.841   6.464
 5200POPC   D2A66124   0.398  26.770   6.764
 5200POPC   C3A66125   0.434  26.810   7.064
 5200POPC   C4A66126   0.441  26.858   7.364
 5200POPC   C1B66127   0.181  26.924   6.464
 5200POPC   C2B66128   0.251  26.922   6.764
 5200POPC   C3B66129   0.244  26.912   7.064
 5200POPC   C4B66130   0.263  26.907   7.364
 5201POPC   NC366131  23.671  26.045   5.564
 5201POPC   PO466132  23.666  26.040   5.864
 5201POPC   GL166133  23.758  26.014   6.164
 5201POPC   GL266134  23.553  26.052   6.164
 5201POPC   C1A66135  23.752  26.035   6.464
 5201POPC   D2A66136  23.664  26.073   6.764
 5201POPC   C3A66137  23.709  26.074   7.064
 5201POPC   C4A66138  23.688  26.041   7.364
 5201POPC   C1B66139  23.505  26.011   6.464
 5201POPC   C2B66140  23.496  26.010   6.764
 5201POPC   C3B66141  23.497  25.981   7.064
 5201POPC   C4B66142  23.461  25.937   7.364
 5202POPC   NC366143  34.605  38.467   5.564
 5202POPC   PO466144  34.623  38.481   5.864
 5202POPC   GL166145  34.581  38.468   6.164
 5202POPC   GL266146  34.500  38.440   6.164
 5202POPC   C1A66147  34.537  38.479   6.464
 5202POPC   D2A66148  34.584  38.413   6.764
 5202POPC   C3A66149  34.550  38.487   7.064
 5202POPC   C4A66150  34.590  38.439   7.364
 5202POPC   C1B66151  34.301  38.313   6.464
 5202POPC   C2B66152  34.347  38.379   6.764
 5202POPC   C3B66153  34.352  38.369   7.064
 5202POPC   C4B66154  34.365  38.327   7.364
 5203POPC   NC366155  15.150  19.102   5.564
 5203POPC   PO466156  15.152  19.064   5.864
 5203POPC   GL166157  15.153  19.056   6.164
 5203POPC   GL266158  15.284  19.056   6.164
 5203POPC   C1A66159  15.219  19.055   6.464
 5203POPC   D2A66160  15.224  19.016   6.764
 5203POPC   C3A66161  15.136  19.088   7.064
 5203POPC   C4A66162  15.167  19.024   7.364
 5203POPC   C1B66163  15.380  19.098   6.464
 5203POPC   C2B66164  15.419  19.156   6.764
 5203POPC   C3B66165  15.391  19.108   7.064
 5203POPC   C4B66166  15.383  19.133   7.364
 5204POPC   NC366167  24.449  18.262   5.564
 5204POPC   PO466168  24.515  18.250   5.864
 5204POPC   GL166169  24.505  18.300   6.164
 5204POPC   GL266170  24.384  18.285   6.164
 5204POPC   C1A66171  24.527  18.310   6.464
 5204POPC   D2A66172  24.447  18.280   6.764
 5204POPC   C3A66173  24.509  18.234   7.064
 5204POPC   C4A66174  24.477  18.304   7.364
 5204POPC   C1B66175  24.290  18.252   6.464
 5204POPC   C2B66176  24.245  18.227   6.764
 5204POPC   C3B66177  24.240  18.278   7.064
 5204POPC   C4B66178  24.235  18.255   7.364
 5205POPC   NC366179  34.539  22.889   5.564
 5205POPC   PO466180  34.589  22.935   5.864
 5205POPC   GL166181  34.596  22.926   6.164
 5205POPC   GL266182  34.462  22.905   6.164
 5205POPC   C1A66183  34.591  22.971   6.464
 5205POPC   D2A66184  34.537  22.928   6.764
 5205POPC   C3A66185  34.565  22.897   7.064
 5205POPC   C4A66186  34.529  22.945   7.364
 5205POPC   C1B66187  34.290  22.919   6.464
 5205POPC   C2B66188  34.331  22.997   6.764
 5205POPC   C3B66189  34.307  23.014   7.064
 5205POPC   C4B66190  34.281  22.932   7.364
 5206POPC   NC366191  43.120  32.230   5.564
 5206POPC   PO466192  43.109  32.206   5.864
 5206POPC   GL166193  43.078  32.247   6.164
 5206POPC   GL266194  43.242  32.274   6.164
 5206POPC   C1A66195  43.080  32.213   6.464
 5206POPC   D2A66196  43.111  32.199   6.764
 5206POPC   C3A66197  43.098  32.212   7.064
 5206POPC   C4A66198  43.119  32.274   7.364
 5206POPC   C1B66199  43.376  32.291   6.464
 5206POPC   C2B66200  43.396  32.342   6.764
 5206POPC   C3B66201  43.305  32.340   7.064
 5206POPC   C4B66202  43.360  32.277   7.364
 5207POPC   NC366203  31.461  25.290   5.564
 5207POPC   PO466204  31.480  25.223   5.864
 5207POPC   GL166205  31.487  25.286   6.164
 5207POPC   GL266206  31.391  25.221   6.164
 5207POPC   C1A66207  31.450  25.294   6.464
 5207POPC   D2A66208  31.512  25.300   6.764
 5207POPC   C3A66209  31.514  25.273   7.064
 5207POPC   C4A66210  31.508  25.228   7.364
 5207POPC   C1B66211  31.231  25.255   6.464
 5207POPC   C2B66212  31.234  25.229   6.764
 5207POPC   C3B66213  31.251  25.249   7.064
 5207POPC   C4B66214  31.226  25.231   7.364
 5208POPC   NC366215  39.241  44.664   5.564
 5208POPC   PO466216  39.218  44.705   5.864
 5208POPC   GL166217  39.225  44.641   6.164
 5208POPC   GL266218  39.346  44.599   6.164
 5208POPC   C1A66219  39.274  44.633   6.464
 5208POPC   D2A66220  39.188  44.614   6.764
 5208POPC   C3A66221  39.203  44.667   7.064
 5208POPC   C4A66222  39.210  44.688   7.364
 5208POPC   C1B66223  39.510  44.637   6.464
 5208POPC   C2B66224  39.496  44.645   6.764
 5208POPC   C3B66225  39.484  44.627   7.064
 5208POPC   C4B66226  39.522  44.572   7.364
 5209POPC   NC366227  18.241  13.671   5.564
 5209POPC   PO466228  18.234  13.603   5.864
 5209POPC   GL166229  18.277  13.660   6.164
 5209POPC   GL266230  18.360  13.489   6.164
 5209POPC   C1A66231  18.269  13.639   6.464
 5209POPC   D2A66232  18.311  13.648   6.764
 5209POPC   C3A66233  18.288  13.661   7.064
 5209POPC   C4A66234  18.234  13.596   7.364
 5209POPC   C1B66235  18.502  13.404   6.464
 5209POPC   C2B66236  18.406  13.450   6.764
 5209POPC   C3B66237  18.413  13.459   7.064
 5209POPC   C4B66238  18.473  13.437   7.364
 5210POPC   NC366239   4.273   9.738   5.564
 5210POPC   PO466240   4.276   9.712   5.864
 5210POPC   GL166241   4.325   9.713   6.164
 5210POPC   GL266242   4.344   9.669   6.164
 5210POPC   C1A66243   4.354   9.768   6.464
 5210POPC   D2A66244   4.338   9.738   6.764
 5210POPC   C3A66245   4.318   9.743   7.064
 5210POPC   C4A66246   4.326   9.768   7.364
 5210POPC   C1B66247   4.496   9.574   6.464
 5210POPC   C2B66248   4.478   9.511   6.764
 5210POPC   C3B66249   4.467   9.488   7.064
 5210POPC   C4B66250   4.409   9.524   7.364
 5211POPC   NC366251  10.478   1.997   5.564
 5211POPC   PO466252  10.525   1.959   5.864
 5211POPC   GL166253  10.504   1.941   6.164
 5211POPC   GL266254  10.628   1.981   6.164
 5211POPC   C1A66255  10.541   2.001   6.464
 5211POPC   D2A66256  10.525   2.039   6.764
 5211POPC   C3A66257  10.531   1.955   7.064
 5211POPC   C4A66258  10.475   1.956   7.364
 5211POPC   C1B66259  10.746   1.935   6.464
 5211POPC   C2B66260  10.795   1.916   6.764
 5211POPC   C3B66261  10.771   1.897   7.064
 5211POPC   C4B66262  10.773   1.949   7.364
 5212POPC   NC366263   5.047   6.613   5.564
 5212POPC   PO466264   5.112   6.597   5.864
 5212POPC   GL166265   5.065   6.641   6.164
 5212POPC   GL266266   5.198   6.711   6.164
 5212POPC   C1A66267   5.097   6.655   6.464
 5212POPC   D2A66268   5.109   6.674   6.764
 5212POPC   C3A66269   5.092   6.605   7.064
 5212POPC   C4A66270   5.129   6.605   7.364
 5212POPC   C1B66271   5.296   6.648   6.464
 5212POPC   C2B66272   5.368   6.700   6.764
 5212POPC   C3B66273   5.340   6.649   7.064
 5212POPC   C4B66274   5.373   6.659   7.364
 5213POPC   NC366275  28.338  37.665   5.564
 5213POPC   PO466276  28.339  37.722   5.864
 5213POPC   GL166277  28.397  37.680   6.164
 5213POPC   GL266278  28.453  37.731   6.164
 5213POPC   C1A66279  28.401  37.692   6.464
 5213POPC   D2A66280  28.320  37.724   6.764
 5213POPC   C3A66281  28.333  37.725   7.064
 5213POPC   C4A66282  28.402  37.697   7.364
 5213POPC   C1B66283  28.639  37.686   6.464
 5213POPC   C2B66284  28.637  37.702   6.764
 5213POPC   C3B66285  28.664  37.658   7.064
 5213POPC   C4B66286  28.638  37.711   7.364
 5214POPC   NC366287   2.717  26.779   5.564
 5214POPC   PO466288   2.768  26.791   5.864
 5214POPC   GL166289   2.747  26.806   6.164
 5214POPC   GL266290   2.788  26.981   6.164
 5214POPC   C1A66291   2.771  26.847   6.464
 5214POPC   D2A66292   2.811  26.773   6.764
 5214POPC   C3A66293   2.787  26.796   7.064
 5214POPC   C4A66294   2.747  26.789   7.364
 5214POPC   C1B66295   2.845  27.081   6.464
 5214POPC   C2B66296   2.808  27.100   6.764
 5214POPC   C3B66297   2.816  27.079   7.064
 5214POPC   C4B66298   2.860  27.101   7.364
 5215POPC   NC366299  24.493  33.843   5.564
 5215POPC   PO466300  24.464  33.799   5.864
 5215POPC   GL166301  24.455  33.786   6.164
 5215POPC   GL266302  24.426  33.669   6.164
 5215POPC   C1A66303  24.516  33.820   6.464
 5215POPC   D2A66304  24.490  33.821   6.764
 5215POPC   C3A66305  24.486  33.787   7.064
 5215POPC   C4A66306  24.486  33.794   7.364
 5215POPC   C1B66307  24.271  33.626   6.464
 5215POPC   C2B66308  24.302  33.637   6.764
 5215POPC   C3B66309  24.277  33.602   7.064
 5215POPC   C4B66310  24.340  33.677   7.364
 5216POPC   NC366311  16.735  24.466   5.564
 5216POPC   PO466312  16.728  24.479   5.864
 5216POPC   GL166313  16.770  24.531   6.164
 5216POPC   GL266314  16.863  24.545   6.164
 5216POPC   C1A66315  16.778  24.440   6.464
 5216POPC   D2A66316  16.770  24.458   6.764
 5216POPC   C3A66317  16.732  24.478   7.064
 5216POPC   C4A66318  16.706  24.482   7.364
 5216POPC   C1B66319  16.934  24.507   6.464
 5216POPC   C2B66320  16.955  24.540   6.764
 5216POPC   C3B66321  17.003  24.533   7.064
 5216POPC   C4B66322  16.998  24.487   7.364
 5217POPC   NC366323  44.642  16.681   5.564
 5217POPC   PO466324  44.647  16.776   5.864
 5217POPC   GL166325  44.659  16.710   6.164
 5217POPC   GL266326  44.580  16.731   6.164
 5217POPC   C1A66327  44.669  16.753   6.464
 5217POPC   D2A66328  44.652  16.746   6.764
 5217POPC   C3A66329  44.635  16.762   7.064
 5217POPC   C4A66330  44.642  16.693   7.364
 5217POPC   C1B66331  44.374  16.759   6.464
 5217POPC   C2B66332  44.424  16.680   6.764
 5217POPC   C3B66333  44.424  16.754   7.064
 5217POPC   C4B66334  44.423  16.730   7.364
 5218POPC   NC366335  12.060  11.283   5.564
 5218POPC   PO466336  12.094  11.297   5.864
 5218POPC   GL166337  12.082  11.287   6.164
 5218POPC   GL266338  11.938  11.346   6.164
 5218POPC   C1A66339  12.050  11.304   6.464
 5218POPC   D2A66340  12.120  11.334   6.764
 5218POPC   C3A66341  12.072  11.253   7.064
 5218POPC   C4A66342  12.083  11.258   7.364
 5218POPC   C1B66343  11.783  11.320   6.464
 5218POPC   C2B66344  11.804  11.332   6.764
 5218POPC   C3B66345  11.825  11.297   7.064
 5218POPC   C4B66346  11.858  11.366   7.364
 5219POPC   NC366347  27.579   2.794   5.564
 5219POPC   PO466348  27.546   2.727   5.864
 5219POPC   GL166349  27.621   2.757   6.164
 5219POPC   GL266350  27.499   2.768   6.164
 5219POPC   C1A66351  27.622   2.806   6.464
 5219POPC   D2A66352  27.622   2.796   6.764
 5219POPC   C3A66353  27.572   2.767   7.064
 5219POPC   C4A66354  27.543   2.815   7.364
 5219POPC   C1B66355  27.323   2.673   6.464
 5219POPC   C2B66356  27.331   2.733   6.764
 5219POPC   C3B66357  27.321   2.678   7.064
 5219POPC   C4B66358  27.350   2.745   7.364
 5220POPC   NC366359  11.262   0.397   5.564
 5220POPC   PO466360  11.301   0.439   5.864
 5220POPC   GL166361  11.288   0.485   6.164
 5220POPC   GL266362  11.449   0.318   6.164
 5220POPC   C1A66363  11.321   0.445   6.464
 5220POPC   D2A66364  11.300   0.467   6.764
 5220POPC   C3A66365  11.349   0.403   7.064
 5220POPC   C4A66366  11.292   0.421   7.364
 5220POPC   C1B66367  11.468   0.299   6.464
 5220POPC   C2B66368  11.488   0.328   6.764
 5220POPC   C3B66369  11.505   0.249   7.064
 5220POPC   C4B66370  11.553   0.315   7.364
 5221POPC   NC366371  20.608  10.504   5.564
 5221POPC   PO466372  20.572  10.541   5.864
 5221POPC   GL166373  20.585  10.501   6.164
 5221POPC   GL266374  20.552  10.418   6.164
 5221POPC   C1A66375  20.566  10.475   6.464
 5221POPC   D2A66376  20.649  10.499   6.764
 5221POPC   C3A66377  20.631  10.510   7.064
 5221POPC   C4A66378  20.628  10.486   7.364
 5221POPC   C1B66379  20.455  10.308   6.464
 5221POPC   C2B66380  20.468  10.290   6.764
 5221POPC   C3B66381  20.446  10.324   7.064
 5221POPC   C4B66382  20.443  10.263   7.364
 5222POPC   NC366383  12.086  18.309   5.564
 5222POPC   PO466384  12.116  18.276   5.864
 5222POPC   GL166385  12.095  18.326   6.164
 5222POPC   GL266386  12.109  18.126   6.164
 5222POPC   C1A66387  12.039  18.298   6.464
 5222POPC   D2A66388  12.035  18.299   6.764
 5222POPC   C3A66389  12.046  18.298   7.064
 5222POPC   C4A66390  12.078  18.308   7.364
 5222POPC   C1B66391  12.096  18.024   6.464
 5222POPC   C2B66392  12.170  18.025   6.764
 5222POPC   C3B66393  12.140  18.087   7.064
 5222POPC   C4B66394  12.145  18.010   7.364
 5223POPC   NC366395   6.617  22.963   5.564
 5223POPC   PO466396   6.652  22.908   5.864
 5223POPC   GL166397   6.654  22.983   6.164
 5223POPC   GL266398   6.654  22.859   6.164
 5223POPC   C1A66399   6.685  22.895   6.464
 5223POPC   D2A66400   6.623  22.952   6.764
 5223POPC   C3A66401   6.601  22.928   7.064
 5223POPC   C4A66402   6.634  22.983   7.364
 5223POPC   C1B66403   6.734  22.672   6.464
 5223POPC   C2B66404   6.770  22.734   6.764
 5223POPC   C3B66405   6.737  22.676   7.064
 5223POPC   C4B66406   6.715  22.756   7.364
 5224POPC   NC366407   9.735   1.176   5.564
 5224POPC   PO466408   9.793   1.222   5.864
 5224POPC   GL166409   9.739   1.172   6.164
 5224POPC   GL266410   9.658   1.152   6.164
 5224POPC   C1A66411   9.714   1.248   6.464
 5224POPC   D2A66412   9.720   1.198   6.764
 5224POPC   C3A66413   9.760   1.263   7.064
 5224POPC   C4A66414   9.714   1.208   7.364
 5224POPC   C1B66415   9.573   1.031   6.464
 5224POPC   C2B66416   9.553   1.080   6.764
 5224POPC   C3B66417   9.555   1.066   7.064
 5224POPC   C4B66418   9.569   1.052   7.364
 5225POPC   NC366419   0.466  29.124   5.564
 5225POPC   PO466420   0.472  29.172   5.864
 5225POPC   GL166421   0.467  29.158   6.164
 5225POPC   GL266422   0.532  29.093   6.164
 5225POPC   C1A66423   0.397  29.191   6.464
 5225POPC   D2A66424   0.393  29.133   6.764
 5225POPC   C3A66425   0.415  29.113   7.064
 5225POPC   C4A66426   0.437  29.150   7.364
 5225POPC   C1B66427   0.678  29.019   6.464
 5225POPC   C2B66428   0.626  29.047   6.764
 5225POPC   C3B66429   0.706  29.058   7.064
 5225POPC   C4B66430   0.697  29.016   7.364
 5226POPC   NC366431   4.313  33.030   5.564
 5226POPC   PO466432   4.303  33.028   5.864
 5226POPC   GL166433   4.307  33.070   6.164
 5226POPC   GL266434   4.281  32.896   6.164
 5226POPC   C1A66435   4.347  33.067   6.464
 5226POPC   D2A66436   4.281  32.989   6.764
 5226POPC   C3A66437   4.325  33.066   7.064
 5226POPC   C4A66438   4.288  32.981   7.364
 5226POPC   C1B66439   4.196  32.858   6.464
 5226POPC   C2B66440   4.144  32.799   6.764
 5226POPC   C3B66441   4.149  32.847   7.064
 5226POPC   C4B66442   4.183  32.813   7.364
 5227POPC   NC366443  37.703  24.511   5.564
 5227POPC   PO466444  37.647  24.504   5.864
 5227POPC   GL166445  37.719  24.453   6.164
 5227POPC   GL266446  37.688  24.328   6.164
 5227POPC   C1A66447  37.684  24.508   6.464
 5227POPC   D2A66448  37.649  24.499   6.764
 5227POPC   C3A66449  37.718  24.454   7.064
 5227POPC   C4A66450  37.705  24.501   7.364
 5227POPC   C1B66451  37.755  24.266   6.464
 5227POPC   C2B66452  37.785  24.290   6.764
 5227POPC   C3B66453  37.800  24.248   7.064
 5227POPC   C4B66454  37.763  24.222   7.364
 5228POPC   NC366455  12.858  32.238   5.564
 5228POPC   PO466456  12.855  32.202   5.864
 5228POPC   GL166457  12.877  32.295   6.164
 5228POPC   GL266458  12.766  32.155   6.164
 5228POPC   C1A66459  12.834  32.208   6.464
 5228POPC   D2A66460  12.899  32.202   6.764
 5228POPC   C3A66461  12.851  32.232   7.064
 5228POPC   C4A66462  12.877  32.263   7.364
 5228POPC   C1B66463  12.594  32.137   6.464
 5228POPC   C2B66464  12.606  32.124   6.764
 5228POPC   C3B66465  12.604  32.082   7.064
 5228POPC   C4B66466  12.605  32.130   7.364
 5229POPC   NC366467  35.336  39.260   5.564
 5229POPC   PO466468  35.358  39.223   5.864
 5229POPC   GL166469  35.333  39.205   6.164
 5229POPC   GL266470  35.241  39.326   6.164
 5229POPC   C1A66471  35.321  39.253   6.464
 5229POPC   D2A66472  35.365  39.276   6.764
 5229POPC   C3A66473  35.398  39.245   7.064
 5229POPC   C4A66474  35.319  39.199   7.364
 5229POPC   C1B66475  35.212  39.407   6.464
 5229POPC   C2B66476  35.132  39.428   6.764
 5229POPC   C3B66477  35.181  39.444   7.064
 5229POPC   C4B66478  35.187  39.396   7.364
 5230POPC   NC366479  20.582   8.930   5.564
 5230POPC   PO466480  20.604   8.930   5.864
 5230POPC   GL166481  20.623   9.005   6.164
 5230POPC   GL266482  20.518   8.989   6.164
 5230POPC   C1A66483  20.601   8.924   6.464
 5230POPC   D2A66484  20.639   8.925   6.764
 5230POPC   C3A66485  20.601   9.016   7.064
 5230POPC   C4A66486  20.655   8.959   7.364
 5230POPC   C1B66487  20.358   9.000   6.464
 5230POPC   C2B66488  20.363   9.081   6.764
 5230POPC   C3B66489  20.397   9.017   7.064
 5230POPC   C4B66490  20.354   9.052   7.364
 5231POPC   NC366491  27.546   7.451   5.564
 5231POPC   PO466492  27.571   7.421   5.864
 5231POPC   GL166493  27.587   7.465   6.164
 5231POPC   GL266494  27.568   7.316   6.164
 5231POPC   C1A66495  27.576   7.458   6.464
 5231POPC   D2A66496  27.594   7.453   6.764
 5231POPC   C3A66497  27.591   7.385   7.064
 5231POPC   C4A66498  27.555   7.469   7.364
 5231POPC   C1B66499  27.606   7.182   6.464
 5231POPC   C2B66500  27.537   7.181   6.764
 5231POPC   C3B66501  27.552   7.126   7.064
 5231POPC   C4B66502  27.604   7.164   7.364
 5232POPC   NC366503  15.218   1.262   5.564
 5232POPC   PO466504  15.135   1.240   5.864
 5232POPC   GL166505  15.143   1.247   6.164
 5232POPC   GL266506  15.164   1.326   6.164
 5232POPC   C1A66507  15.132   1.198   6.464
 5232POPC   D2A66508  15.139   1.178   6.764
 5232POPC   C3A66509  15.189   1.244   7.064
 5232POPC   C4A66510  15.185   1.237   7.364
 5232POPC   C1B66511  15.195   1.449   6.464
 5232POPC   C2B66512  15.115   1.426   6.764
 5232POPC   C3B66513  15.159   1.440   7.064
 5232POPC   C4B66514  15.151   1.484   7.364
 5233POPC   NC366515   3.573  19.040   5.564
 5233POPC   PO466516   3.566  19.105   5.864
 5233POPC   GL166517   3.518  19.066   6.164
 5233POPC   GL266518   3.516  19.131   6.164
 5233POPC   C1A66519   3.508  19.017   6.464
 5233POPC   D2A66520   3.555  19.094   6.764
 5233POPC   C3A66521   3.590  19.077   7.064
 5233POPC   C4A66522   3.552  19.044   7.364
 5233POPC   C1B66523   3.461  19.314   6.464
 5233POPC   C2B66524   3.472  19.351   6.764
 5233POPC   C3B66525   3.435  19.352   7.064
 5233POPC   C4B66526   3.503  19.328   7.364
 5234POPC   NC366527  29.158  36.087   5.564
 5234POPC   PO466528  29.112  36.105   5.864
 5234POPC   GL166529  29.124  36.171   6.164
 5234POPC   GL266530  29.093  36.022   6.164
 5234POPC   C1A66531  29.115  36.106   6.464
 5234POPC   D2A66532  29.181  36.138   6.764
 5234POPC   C3A66533  29.122  36.162   7.064
 5234POPC   C4A66534  29.147  36.153   7.364
 5234POPC   C1B66535  29.137  35.867   6.464
 5234POPC   C2B66536  29.136  35.911   6.764
 5234POPC   C3B66537  29.107  35.912   7.064
 5234POPC   C4B66538  29.103  35.861   7.364
 5235POPC   NC366539  12.066  15.177   5.564
 5235POPC   PO466540  12.088  15.188   5.864
 5235POPC   GL166541  12.059  15.145   6.164
 5235POPC   GL266542  11.909  15.134   6.164
 5235POPC   C1A66543  12.037  15.165   6.464
 5235POPC   D2A66544  12.125  15.195   6.764
 5235POPC   C3A66545  12.101  15.176   7.064
 5235POPC   C4A66546  12.123  15.141   7.364
 5235POPC   C1B66547  11.885  15.110   6.464
 5235POPC   C2B66548  11.843  15.121   6.764
 5235POPC   C3B66549  11.827  15.070   7.064
 5235POPC   C4B66550  11.875  15.075   7.364
 5236POPC   NC366551  33.069   1.186   5.564
 5236POPC   PO466552  33.070   1.164   5.864
 5236POPC   GL166553  33.071   1.186   6.164
 5236POPC   GL266554  33.085   1.141   6.164
 5236POPC   C1A66555  33.064   1.205   6.464
 5236POPC   D2A66556  33.060   1.227   6.764
 5236POPC   C3A66557  32.984   1.242   7.064
 5236POPC   C4A66558  33.003   1.225   7.364
 5236POPC   C1B66559  33.205   1.108   6.464
 5236POPC   C2B66560  33.206   1.034   6.764
 5236POPC   C3B66561  33.214   1.052   7.064
 5236POPC   C4B66562  33.237   1.024   7.364
 5237POPC   NC366563  31.514   5.051   5.564
 5237POPC   PO466564  31.458   5.061   5.864
 5237POPC   GL166565  31.459   5.141   6.164
 5237POPC   GL266566  31.475   5.207   6.164
 5237POPC   C1A66567  31.516   5.078   6.464
 5237POPC   D2A66568  31.484   5.133   6.764
 5237POPC   C3A66569  31.432   5.092   7.064
 5237POPC   C4A66570  31.430   5.115   7.364
 5237POPC   C1B66571  31.524   5.335   6.464
 5237POPC   C2B66572  31.435   5.301   6.764
 5237POPC   C3B66573  31.493   5.326   7.064
 5237POPC   C4B66574  31.491   5.301   7.364
 5238POPC   NC366575   7.444  29.939   5.564
 5238POPC   PO466576   7.445  29.923   5.864
 5238POPC   GL166577   7.394  29.882   6.164
 5238POPC   GL266578   7.402  29.771   6.164
 5238POPC   C1A66579   7.398  29.964   6.464
 5238POPC   D2A66580   7.422  29.945   6.764
 5238POPC   C3A66581   7.402  29.882   7.064
 5238POPC   C4A66582   7.417  29.904   7.364
 5238POPC   C1B66583   7.281  29.694   6.464
 5238POPC   C2B66584   7.269  29.686   6.764
 5238POPC   C3B66585   7.278  29.672   7.064
 5238POPC   C4B66586   7.287  29.758   7.364
 5239POPC   NC366587  26.051  39.231   5.564
 5239POPC   PO466588  26.011  39.228   5.864
 5239POPC   GL166589  26.081  39.264   6.164
 5239POPC   GL266590  25.905  39.117   6.164
 5239POPC   C1A66591  26.048  39.261   6.464
 5239POPC   D2A66592  26.078  39.224   6.764
 5239POPC   C3A66593  26.015  39.256   7.064
 5239POPC   C4A66594  26.017  39.265   7.364
 5239POPC   C1B66595  25.795  39.061   6.464
 5239POPC   C2B66596  25.816  39.054   6.764
 5239POPC   C3B66597  25.872  39.123   7.064
 5239POPC   C4B66598  25.865  39.077   7.364
 5240POPC   NC366599  33.063  39.183   5.564
 5240POPC   PO466600  33.006  39.279   5.864
 5240POPC   GL166601  33.050  39.242   6.164
 5240POPC   GL266602  32.969  39.288   6.164
 5240POPC   C1A66603  33.058  39.269   6.464
 5240POPC   D2A66604  32.989  39.279   6.764
 5240POPC   C3A66605  32.983  39.251   7.064
 5240POPC   C4A66606  33.070  39.202   7.364
 5240POPC   C1B66607  32.846  39.460   6.464
 5240POPC   C2B66608  32.865  39.375   6.764
 5240POPC   C3B66609  32.834  39.429   7.064
 5240POPC   C4B66610  32.817  39.427   7.364
 5241POPC   NC366611  43.871  22.965   5.564
 5241POPC   PO466612  43.901  22.893   5.864
 5241POPC   GL166613  43.914  22.910   6.164
 5241POPC   GL266614  43.926  23.097   6.164
 5241POPC   C1A66615  43.904  22.953   6.464
 5241POPC   D2A66616  43.852  22.958   6.764
 5241POPC   C3A66617  43.904  22.903   7.064
 5241POPC   C4A66618  43.855  22.937   7.364
 5241POPC   C1B66619  43.905  23.162   6.464
 5241POPC   C2B66620  43.916  23.182   6.764
 5241POPC   C3B66621  43.911  23.237   7.064
 5241POPC   C4B66622  43.839  23.224   7.364
 5242POPC   NC366623   8.245   9.013   5.564
 5242POPC   PO466624   8.218   8.944   5.864
 5242POPC   GL166625   8.216   8.952   6.164
 5242POPC   GL266626   8.326   8.942   6.164
 5242POPC   C1A66627   8.195   8.976   6.464
 5242POPC   D2A66628   8.240   9.000   6.764
 5242POPC   C3A66629   8.189   8.923   7.064
 5242POPC   C4A66630   8.206   8.934   7.364
 5242POPC   C1B66631   8.465   9.049   6.464
 5242POPC   C2B66632   8.412   9.058   6.764
 5242POPC   C3B66633   8.478   9.010   7.064
 5242POPC   C4B66634   8.398   8.978   7.364
 5243POPC   NC366635  23.673  29.182   5.564
 5243POPC   PO466636  23.720  29.104   5.864
 5243POPC   GL166637  23.720  29.159   6.164
 5243POPC   GL266638  23.802  29.219   6.164
 5243POPC   C1A66639  23.723  29.175   6.464
 5243POPC   D2A66640  23.725  29.189   6.764
 5243POPC   C3A66641  23.756  29.125   7.064
 5243POPC   C4A66642  23.731  29.192   7.364
 5243POPC   C1B66643  23.898  29.316   6.464
 5243POPC   C2B66644  23.886  29.276   6.764
 5243POPC   C3B66645  23.868  29.292   7.064
 5243POPC   C4B66646  23.881  29.365   7.364
 5244POPC   NC366647  21.381  29.945   5.564
 5244POPC   PO466648  21.428  29.943   5.864
 5244POPC   GL166649  21.344  29.909   6.164
 5244POPC   GL266650  21.297  29.829   6.164
 5244POPC   C1A66651  21.369  29.960   6.464
 5244POPC   D2A66652  21.343  29.927   6.764
 5244POPC   C3A66653  21.367  29.900   7.064
 5244POPC   C4A66654  21.400  29.945   7.364
 5244POPC   C1B66655  21.245  29.705   6.464
 5244POPC   C2B66656  21.264  29.668   6.764
 5244POPC   C3B66657  21.247  29.676   7.064
 5244POPC   C4B66658  21.232  29.667   7.364
 5245POPC   NC366659  41.550  26.007   5.564
 5245POPC   PO466660  41.521  26.046   5.864
 5245POPC   GL166661  41.552  26.034   6.164
 5245POPC   GL266662  41.465  26.112   6.164
 5245POPC   C1A66663  41.509  26.010   6.464
 5245POPC   D2A66664  41.574  26.003   6.764
 5245POPC   C3A66665  41.594  26.010   7.064
 5245POPC   C4A66666  41.513  26.016   7.364
 5245POPC   C1B66667  41.279  26.091   6.464
 5245POPC   C2B66668  41.330  26.147   6.764
 5245POPC   C3B66669  41.327  26.077   7.064
 5245POPC   C4B66670  41.347  26.077   7.364
 5246POPC   NC366671  42.341  15.144   5.564
 5246POPC   PO466672  42.286  15.131   5.864
 5246POPC   GL166673  42.330  15.150   6.164
 5246POPC   GL266674  42.392  15.270   6.164
 5246POPC   C1A66675  42.367  15.158   6.464
 5246POPC   D2A66676  42.289  15.169   6.764
 5246POPC   C3A66677  42.290  15.220   7.064
 5246POPC   C4A66678  42.315  15.221   7.364
 5246POPC   C1B66679  42.527  15.304   6.464
 5246POPC   C2B66680  42.469  15.392   6.764
 5246POPC   C3B66681  42.484  15.337   7.064
 5246POPC   C4B66682  42.559  15.356   7.364
 5247POPC   NC366683  41.567  20.582   5.564
 5247POPC   PO466684  41.595  20.608   5.864
 5247POPC   GL166685  41.579  20.622   6.164
 5247POPC   GL266686  41.589  20.764   6.164
 5247POPC   C1A66687  41.545  20.650   6.464
 5247POPC   D2A66688  41.516  20.582   6.764
 5247POPC   C3A66689  41.532  20.660   7.064
 5247POPC   C4A66690  41.604  20.602   7.364
 5247POPC   C1B66691  41.609  20.885   6.464
 5247POPC   C2B66692  41.659  20.806   6.764
 5247POPC   C3B66693  41.667  20.879   7.064
 5247POPC   C4B66694  41.639  20.819   7.364
 5248POPC   NC366695  42.374   4.300   5.564
 5248POPC   PO466696  42.320   4.267   5.864
 5248POPC   GL166697  42.363   4.358   6.164
 5248POPC   GL266698  42.469   4.361   6.164
 5248POPC   C1A66699  42.382   4.299   6.464
 5248POPC   D2A66700  42.305   4.362   6.764
 5248POPC   C3A66701  42.341   4.299   7.064
 5248POPC   C4A66702  42.331   4.351   7.364
 5248POPC   C1B66703  42.571   4.291   6.464
 5248POPC   C2B66704  42.627   4.359   6.764
 5248POPC   C3B66705  42.582   4.321   7.064
 5248POPC   C4B66706  42.618   4.334   7.364
 5249POPC   NC366707  19.873  29.892   5.564
 5249POPC   PO466708  19.873  29.944   5.864
 5249POPC   GL166709  19.844  29.925   6.164
 5249POPC   GL266710  19.789  29.827   6.164
 5249POPC   C1A66711  19.862  29.886   6.464
 5249POPC   D2A66712  19.788  29.884   6.764
 5249POPC   C3A66713  19.806  29.899   7.064
 5249POPC   C4A66714  19.803  29.911   7.364
 5249POPC   C1B66715  19.703  29.728   6.464
 5249POPC   C2B66716  19.731  29.769   6.764
 5249POPC   C3B66717  19.699  29.692   7.064
 5249POPC   C4B66718  19.659  29.697   7.364
 5250POPC   NC366719  22.959  13.583   5.564
 5250POPC   PO466720  22.890  13.594   5.864
 5250POPC   GL166721  22.955  13.649   6.164
 5250POPC   GL266722  23.033  13.696   6.164
 5250POPC   C1A66723  22.954  13.667   6.464
 5250POPC   D2A66724  22.903  13.619   6.764
 5250POPC   C3A66725  22.974  13.642   7.064
 5250POPC   C4A66726  22.965  13.618   7.364
 5250POPC   C1B66727  23.113  13.850   6.464
 5250POPC   C2B66728  23.107  13.863   6.764
 5250POPC   C3B66729  23.120  13.836   7.064
 5250POPC   C4B66730  23.041  13.835   7.364
 5251POPC   NC366731   5.863  20.593   5.564
 5251POPC   PO466732   5.829  20.602   5.864
 5251POPC   GL166733   5.911  20.577   6.164
 5251POPC   GL266734   5.847  20.709   6.164
 5251POPC   C1A66735   5.897  20.598   6.464
 5251POPC   D2A66736   5.823  20.592   6.764
 5251POPC   C3A66737   5.891  20.616   7.064
 5251POPC   C4A66738   5.916  20.572   7.364
 5251POPC   C1B66739   5.927  20.832   6.464
 5251POPC   C2B66740   5.946  20.884   6.764
 5251POPC   C3B66741   5.957  20.892   7.064
 5251POPC   C4B66742   5.936  20.901   7.364
 5252POPC   NC366743  17.488  14.394   5.564
 5252POPC   PO466744  17.495  14.397   5.864
 5252POPC   GL166745  17.528  14.432   6.164
 5252POPC   GL266746  17.582  14.504   6.164
 5252POPC   C1A66747  17.547  14.451   6.464
 5252POPC   D2A66748  17.543  14.385   6.764
 5252POPC   C3A66749  17.527  14.387   7.064
 5252POPC   C4A66750  17.506  14.453   7.364
 5252POPC   C1B66751  17.640  14.615   6.464
 5252POPC   C2B66752  17.614  14.593   6.764
 5252POPC   C3B66753  17.650  14.642   7.064
 5252POPC   C4B66754  17.636  14.591   7.364
 5253POPC   NC366755  40.014  32.217   5.564
 5253POPC   PO466756  40.037  32.263   5.864
 5253POPC   GL166757  39.985  32.253   6.164
 5253POPC   GL266758  40.092  32.334   6.164
 5253POPC   C1A66759  39.958  32.251   6.464
 5253POPC   D2A66760  39.991  32.231   6.764
 5253POPC   C3A66761  39.973  32.201   7.064
 5253POPC   C4A66762  40.002  32.221   7.364
 5253POPC   C1B66763  40.200  32.414   6.464
 5253POPC   C2B66764  40.175  32.442   6.764
 5253POPC   C3B66765  40.211  32.396   7.064
 5253POPC   C4B66766  40.229  32.411   7.364
 5254POPC   NC366767  40.828  38.460   5.564
 5254POPC   PO466768  40.795  38.448   5.864
 5254POPC   GL166769  40.795  38.448   6.164
 5254POPC   GL266770  40.928  38.474   6.164
 5254POPC   C1A66771  40.827  38.407   6.464
 5254POPC   D2A66772  40.753  38.424   6.764
 5254POPC   C3A66773  40.792  38.429   7.064
 5254POPC   C4A66774  40.793  38.452   7.364
 5254POPC   C1B66775  41.021  38.482   6.464
 5254POPC   C2B66776  41.057  38.523   6.764
 5254POPC   C3B66777  41.051  38.550   7.064
 5254POPC   C4B66778  41.039  38.571   7.364
 5255POPC   NC366779   5.830  12.817   5.564
 5255POPC   PO466780   5.906  12.827   5.864
 5255POPC   GL166781   5.823  12.852   6.164
 5255POPC   GL266782   5.935  12.762   6.164
 5255POPC   C1A66783   5.860  12.864   6.464
 5255POPC   D2A66784   5.842  12.817   6.764
 5255POPC   C3A66785   5.901  12.809   7.064
 5255POPC   C4A66786   5.840  12.843   7.364
 5255POPC   C1B66787   5.904  12.656   6.464
 5255POPC   C2B66788   5.913  12.616   6.764
 5255POPC   C3B66789   5.933  12.584   7.064
 5255POPC   C4B66790   5.884  12.626   7.364
 5256POPC   NC366791  32.230  15.968   5.564
 5256POPC   PO466792  32.288  15.978   5.864
 5256POPC   GL166793  32.233  15.962   6.164
 5256POPC   GL266794  32.347  16.074   6.164
 5256POPC   C1A66795  32.234  15.933   6.464
 5256POPC   D2A66796  32.235  15.974   6.764
 5256POPC   C3A66797  32.202  15.920   7.064
 5256POPC   C4A66798  32.266  15.983   7.364
 5256POPC   C1B66799  32.456  16.137   6.464
 5256POPC   C2B66800  32.401  16.112   6.764
 5256POPC   C3B66801  32.421  16.168   7.064
 5256POPC   C4B66802  32.409  16.110   7.364
 5257POPC   NC366803  26.810  19.799   5.564
 5257POPC   PO466804  26.839  19.840   5.864
 5257POPC   GL166805  26.796  19.800   6.164
 5257POPC   GL266806  26.831  19.705   6.164
 5257POPC   C1A66807  26.780  19.832   6.464
 5257POPC   D2A66808  26.839  19.852   6.764
 5257POPC   C3A66809  26.811  19.869   7.064
 5257POPC   C4A66810  26.849  19.853   7.364
 5257POPC   C1B66811  26.835  19.566   6.464
 5257POPC   C2B66812  26.862  19.582   6.764
 5257POPC   C3B66813  26.886  19.636   7.064
 5257POPC   C4B66814  26.892  19.625   7.364
 5258POPC   NC366815  33.011  28.342   5.564
 5258POPC   PO466816  32.992  28.334   5.864
 5258POPC   GL166817  32.985  28.412   6.164
 5258POPC   GL266818  32.947  28.378   6.164
 5258POPC   C1A66819  33.029  28.389   6.464
 5258POPC   D2A66820  32.997  28.377   6.764
 5258POPC   C3A66821  33.008  28.342   7.064
 5258POPC   C4A66822  33.043  28.344   7.364
 5258POPC   C1B66823  32.771  28.417   6.464
 5258POPC   C2B66824  32.830  28.422   6.764
 5258POPC   C3B66825  32.778  28.437   7.064
 5258POPC   C4B66826  32.820  28.433   7.364
 5259POPC   NC366827  17.531  41.562   5.564
 5259POPC   PO466828  17.534  41.565   5.864
 5259POPC   GL166829  17.556  41.573   6.164
 5259POPC   GL266830  17.573  41.620   6.164
 5259POPC   C1A66831  17.507  41.594   6.464
 5259POPC   D2A66832  17.506  41.546   6.764
 5259POPC   C3A66833  17.519  41.593   7.064
 5259POPC   C4A66834  17.554  41.556   7.364
 5259POPC   C1B66835  17.581  41.795   6.464
 5259POPC   C2B66836  17.650  41.809   6.764
 5259POPC   C3B66837  17.614  41.749   7.064
 5259POPC   C4B66838  17.638  41.802   7.364
 5260POPC   NC366839  19.846   8.959   5.564
 5260POPC   PO466840  19.853   9.009   5.864
 5260POPC   GL166841  19.868   8.976   6.164
 5260POPC   GL266842  19.863   9.091   6.164
 5260POPC   C1A66843  19.815   8.947   6.464
 5260POPC   D2A66844  19.834   9.006   6.764
 5260POPC   C3A66845  19.866   8.939   7.064
 5260POPC   C4A66846  19.797   8.992   7.364
 5260POPC   C1B66847  19.919   9.176   6.464
 5260POPC   C2B66848  19.918   9.230   6.764
 5260POPC   C3B66849  19.986   9.202   7.064
 5260POPC   C4B66850  19.944   9.179   7.364
 5261POPC   NC366851  23.704  41.604   5.564
 5261POPC   PO466852  23.746  41.590   5.864
 5261POPC   GL166853  23.713  41.593   6.164
 5261POPC   GL266854  23.738  41.399   6.164
 5261POPC   C1A66855  23.682  41.530   6.464
 5261POPC   D2A66856  23.735  41.585   6.764
 5261POPC   C3A66857  23.664  41.518   7.064
 5261POPC   C4A66858  23.733  41.565   7.364
 5261POPC   C1B66859  23.777  41.357   6.464
 5261POPC   C2B66860  23.775  41.293   6.764
 5261POPC   C3B66861  23.828  41.376   7.064
 5261POPC   C4B66862  23.790  41.306   7.364
 5262POPC   NC366863  23.721  15.165   5.564
 5262POPC   PO466864  23.737  15.181   5.864
 5262POPC   GL166865  23.666  15.188   6.164
 5262POPC   GL266866  23.733  15.298   6.164
 5262POPC   C1A66867  23.727  15.143   6.464
 5262POPC   D2A66868  23.686  15.207   6.764
 5262POPC   C3A66869  23.741  15.140   7.064
 5262POPC   C4A66870  23.737  15.220   7.364
 5262POPC   C1B66871  23.695  15.418   6.464
 5262POPC   C2B66872  23.668  15.460   6.764
 5262POPC   C3B66873  23.652  15.471   7.064
 5262POPC   C4B66874  23.654  15.431   7.364
 5263POPC   NC366875  36.915  26.083   5.564
 5263POPC   PO466876  36.896  26.001   5.864
 5263POPC   GL166877  36.907  26.080   6.164
 5263POPC   GL266878  36.891  26.161   6.164
 5263POPC   C1A66879  36.927  26.058   6.464
 5263POPC   D2A66880  36.937  26.063   6.764
 5263POPC   C3A66881  36.942  26.053   7.064
 5263POPC   C4A66882  36.952  26.044   7.364
 5263POPC   C1B66883  36.869  26.266   6.464
 5263POPC   C2B66884  36.841  26.308   6.764
 5263POPC   C3B66885  36.843  26.332   7.064
 5263POPC   C4B66886  36.880  26.242   7.364
 5264POPC   NC366887  12.827  36.912   5.564
 5264POPC   PO466888  12.859  36.912   5.864
 5264POPC   GL166889  12.817  36.873   6.164
 5264POPC   GL266890  12.873  36.990   6.164
 5264POPC   C1A66891  12.892  36.902   6.464
 5264POPC   D2A66892  12.827  36.914   6.764
 5264POPC   C3A66893  12.824  36.931   7.064
 5264POPC   C4A66894  12.838  36.942   7.364
 5264POPC   C1B66895  12.849  37.102   6.464
 5264POPC   C2B66896  12.900  37.197   6.764
 5264POPC   C3B66897  12.881  37.108   7.064
 5264POPC   C4B66898  12.922  37.126   7.364
 5265POPC   NC366899  39.243  34.573   5.564
 5265POPC   PO466900  39.203  34.614   5.864
 5265POPC   GL166901  39.250  34.618   6.164
 5265POPC   GL266902  39.352  34.614   6.164
 5265POPC   C1A66903  39.245  34.611   6.464
 5265POPC   D2A66904  39.200  34.560   6.764
 5265POPC   C3A66905  39.199  34.616   7.064
 5265POPC   C4A66906  39.268  34.547   7.364
 5265POPC   C1B66907  39.411  34.784   6.464
 5265POPC   C2B66908  39.409  34.723   6.764
 5265POPC   C3B66909  39.435  34.742   7.064
 5265POPC   C4B66910  39.390  34.748   7.364
 5266POPC   NC366911   6.646  11.316   5.564
 5266POPC   PO466912   6.669  11.273   5.864
 5266POPC   GL166913   6.691  11.347   6.164
 5266POPC   GL266914   6.565  11.431   6.164
 5266POPC   C1A66915   6.688  11.319   6.464
 5266POPC   D2A66916   6.608  11.304   6.764
 5266POPC   C3A66917   6.629  11.349   7.064
 5266POPC   C4A66918   6.664  11.327   7.364
 5266POPC   C1B66919   6.549  11.583   6.464
 5266POPC   C2B66920   6.585  11.518   6.764
 5266POPC   C3B66921   6.565  11.535   7.064
 5266POPC   C4B66922   6.536  11.545   7.364
 5267POPC   NC366923  36.870  14.363   5.564
 5267POPC   PO466924  36.880  14.366   5.864
 5267POPC   GL166925  36.870  14.363   6.164
 5267POPC   GL266926  36.984  14.551   6.164
 5267POPC   C1A66927  36.918  14.439   6.464
 5267POPC   D2A66928  36.855  14.442   6.764
 5267POPC   C3A66929  36.909  14.395   7.064
 5267POPC   C4A66930  36.905  14.404   7.364
 5267POPC   C1B66931  36.997  14.640   6.464
 5267POPC   C2B66932  36.991  14.589   6.764
 5267POPC   C3B66933  36.990  14.662   7.064
 5267POPC   C4B66934  37.015  14.586   7.364
 5268POPC   NC366935  31.490  39.217   5.564
 5268POPC   PO466936  31.516  39.190   5.864
 5268POPC   GL166937  31.474  39.235   6.164
 5268POPC   GL266938  31.370  39.152   6.164
 5268POPC   C1A66939  31.444  39.236   6.464
 5268POPC   D2A66940  31.513  39.259   6.764
 5268POPC   C3A66941  31.444  39.274   7.064
 5268POPC   C4A66942  31.427  39.211   7.364
 5268POPC   C1B66943  31.199  39.117   6.464
 5268POPC   C2B66944  31.229  39.133   6.764
 5268POPC   C3B66945  31.197  39.113   7.064
 5268POPC   C4B66946  31.265  39.176   7.364
 5269POPC   NC366947   1.231  29.884   5.564
 5269POPC   PO466948   1.192  29.968   5.864
 5269POPC   GL166949   1.204  29.935   6.164
 5269POPC   GL266950   1.374  29.915   6.164
 5269POPC   C1A66951   1.181  29.970   6.464
 5269POPC   D2A66952   1.241  29.912   6.764
 5269POPC   C3A66953   1.202  29.889   7.064
 5269POPC   C4A66954   1.212  29.903   7.364
 5269POPC   C1B66955   1.478  29.956   6.464
 5269POPC   C2B66956   1.490  30.004   6.764
 5269POPC   C3B66957   1.493  29.950   7.064
 5269POPC   C4B66958   1.439  29.953   7.364
 5270POPC   NC366959  12.111  26.775   5.564
 5270POPC   PO466960  12.071  26.837   5.864
 5270POPC   GL166961  12.063  26.845   6.164
 5270POPC   GL266962  12.177  26.784   6.164
 5270POPC   C1A66963  12.091  26.791   6.464
 5270POPC   D2A66964  12.126  26.810   6.764
 5270POPC   C3A66965  12.082  26.792   7.064
 5270POPC   C4A66966  12.092  26.790   7.364
 5270POPC   C1B66967  12.308  26.694   6.464
 5270POPC   C2B66968  12.270  26.696   6.764
 5270POPC   C3B66969  12.272  26.719   7.064
 5270POPC   C4B66970  12.344  26.675   7.364
 5271POPC   NC366971   8.190  17.501   5.564
 5271POPC   PO466972   8.153  17.507   5.864
 5271POPC   GL166973   8.180  17.539   6.164
 5271POPC   GL266974   8.115  17.515   6.164
 5271POPC   C1A66975   8.199  17.490   6.464
 5271POPC   D2A66976   8.201  17.483   6.764
 5271POPC   C3A66977   8.210  17.543   7.064
 5271POPC   C4A66978   8.175  17.503   7.364
 5271POPC   C1B66979   7.911  17.473   6.464
 5271POPC   C2B66980   7.960  17.477   6.764
 5271POPC   C3B66981   7.981  17.452   7.064
 5271POPC   C4B66982   7.959  17.468   7.364
 5272POPC   NC366983  27.583   8.147   5.564
 5272POPC   PO466984  27.627   8.219   5.864
 5272POPC   GL166985  27.558   8.234   6.164
 5272POPC   GL266986  27.673   8.142   6.164
 5272POPC   C1A66987  27.553   8.198   6.464
 5272POPC   D2A66988  27.640   8.184   6.764
 5272POPC   C3A66989  27.600   8.164   7.064
 5272POPC   C4A66990  27.638   8.203   7.364
 5272POPC   C1B66991  27.795   8.063   6.464
 5272POPC   C2B66992  27.809   8.077   6.764
 5272POPC   C3B66993  27.762   8.028   7.064
 5272POPC   C4B66994  27.813   8.048   7.364
 5273POPC   NC366995  22.930  35.358   5.564
 5273POPC   PO466996  22.970  35.385   5.864
 5273POPC   GL166997  22.920  35.308   6.164
 5273POPC   GL266998  22.874  35.412   6.164
 5273POPC   C1A66999  22.962  35.401   6.464
 5273POPC   D2A67000  22.974  35.303   6.764
 5273POPC   C3A67001  22.986  35.333   7.064
 5273POPC   C4A67002  22.900  35.310   7.364
 5273POPC   C1B67003  22.732  35.479   6.464
 5273POPC   C2B67004  22.695  35.548   6.764
 5273POPC   C3B67005  22.738  35.492   7.064
 5273POPC   C4B67006  22.757  35.455   7.364
 5274POPC   NC367007   2.803  35.324   5.564
 5274POPC   PO467008   2.806  35.335   5.864
 5274POPC   GL167009   2.784  35.355   6.164
 5274POPC   GL267010   2.904  35.435   6.164
 5274POPC   C1A67011   2.787  35.318   6.464
 5274POPC   D2A67012   2.776  35.326   6.764
 5274POPC   C3A67013   2.787  35.397   7.064
 5274POPC   C4A67014   2.772  35.362   7.364
 5274POPC   C1B67015   3.015  35.400   6.464
 5274POPC   C2B67016   3.049  35.392   6.764
 5274POPC   C3B67017   3.040  35.424   7.064
 5274POPC   C4B67018   2.985  35.460   7.364
 5275POPC   NC367019  24.446  40.799   5.564
 5275POPC   PO467020  24.529  40.778   5.864
 5275POPC   GL167021  24.535  40.749   6.164
 5275POPC   GL267022  24.584  40.716   6.164
 5275POPC   C1A67023  24.501  40.816   6.464
 5275POPC   D2A67024  24.533  40.830   6.764
 5275POPC   C3A67025  24.512  40.825   7.064
 5275POPC   C4A67026  24.490  40.786   7.364
 5275POPC   C1B67027  24.704  40.759   6.464
 5275POPC   C2B67028  24.783  40.704   6.764
 5275POPC   C3B67029  24.768  40.760   7.064
 5275POPC   C4B67030  24.755  40.717   7.364
 5276POPC   NC367031  15.986  10.538   5.564
 5276POPC   PO467032  15.998  10.536   5.864
 5276POPC   GL167033  15.924  10.475   6.164
 5276POPC   GL267034  16.082  10.568   6.164
 5276POPC   C1A67035  15.997  10.541   6.464
 5276POPC   D2A67036  15.996  10.547   6.764
 5276POPC   C3A67037  15.995  10.543   7.064
 5276POPC   C4A67038  15.944  10.475   7.364
 5276POPC   C1B67039  16.073  10.698   6.464
 5276POPC   C2B67040  16.095  10.738   6.764
 5276POPC   C3B67041  16.108  10.741   7.064
 5276POPC   C4B67042  16.074  10.734   7.364
 5277POPC   NC367043  23.757  11.279   5.564
 5277POPC   PO467044  23.670  11.290   5.864
 5277POPC   GL167045  23.678  11.294   6.164
 5277POPC   GL267046  23.586  11.345   6.164
 5277POPC   C1A67047  23.713  11.313   6.464
 5277POPC   D2A67048  23.707  11.290   6.764
 5277POPC   C3A67049  23.741  11.335   7.064
 5277POPC   C4A67050  23.718  11.331   7.364
 5277POPC   C1B67051  23.567  11.467   6.464
 5277POPC   C2B67052  23.504  11.423   6.764
 5277POPC   C3B67053  23.551  11.470   7.064
 5277POPC   C4B67054  23.525  11.406   7.364
 5278POPC   NC367055  25.994  13.591   5.564
 5278POPC   PO467056  26.091  13.654   5.864
 5278POPC   GL167057  26.091  13.593   6.164
 5278POPC   GL267058  25.948  13.711   6.164
 5278POPC   C1A67059  26.000  13.631   6.464
 5278POPC   D2A67060  26.066  13.606   6.764
 5278POPC   C3A67061  26.085  13.639   7.064
 5278POPC   C4A67062  26.032  13.621   7.364
 5278POPC   C1B67063  25.902  13.790   6.464
 5278POPC   C2B67064  25.832  13.817   6.764
 5278POPC   C3B67065  25.909  13.825   7.064
 5278POPC   C4B67066  25.869  13.865   7.364
 5279POPC   NC367067   5.111  20.618   5.564
 5279POPC   PO467068   5.108  20.621   5.864
 5279POPC   GL167069   5.119  20.602   6.164
 5279POPC   GL267070   4.955  20.497   6.164
 5279POPC   C1A67071   5.065  20.560   6.464
 5279POPC   D2A67072   5.107  20.575   6.764
 5279POPC   C3A67073   5.088  20.615   7.064
 5279POPC   C4A67074   5.081  20.657   7.364
 5279POPC   C1B67075   4.900  20.434   6.464
 5279POPC   C2B67076   4.924  20.459   6.764
 5279POPC   C3B67077   4.871  20.456   7.064
 5279POPC   C4B67078   4.934  20.496   7.364
 5280POPC   NC367079  36.886   2.003   5.564
 5280POPC   PO467080  36.935   1.943   5.864
 5280POPC   GL167081  36.862   2.001   6.164
 5280POPC   GL267082  37.011   1.968   6.164
 5280POPC   C1A67083  36.897   2.027   6.464
 5280POPC   D2A67084  36.915   2.038   6.764
 5280POPC   C3A67085  36.931   1.966   7.064
 5280POPC   C4A67086  36.867   1.974   7.364
 5280POPC   C1B67087  37.134   1.881   6.464
 5280POPC   C2B67088  37.146   1.927   6.764
 5280POPC   C3B67089  37.104   1.940   7.064
 5280POPC   C4B67090  37.095   1.922   7.364
 5281POPC   NC367091  19.842  12.037   5.564
 5281POPC   PO467092  19.802  12.091   5.864
 5281POPC   GL167093  19.835  12.070   6.164
 5281POPC   GL267094  19.867  11.942   6.164
 5281POPC   C1A67095  19.858  12.078   6.464
 5281POPC   D2A67096  19.877  12.092   6.764
 5281POPC   C3A67097  19.851  12.106   7.064
 5281POPC   C4A67098  19.813  12.052   7.364
 5281POPC   C1B67099  19.861  11.876   6.464
 5281POPC   C2B67100  19.860  11.869   6.764
 5281POPC   C3B67101  19.880  11.796   7.064
 5281POPC   C4B67102  19.809  11.793   7.364
 5282POPC   NC367103  36.135   0.389   5.564
 5282POPC   PO467104  36.168   0.394   5.864
 5282POPC   GL167105  36.079   0.461   6.164
 5282POPC   GL267106  36.030   0.319   6.164
 5282POPC   C1A67107  36.131   0.484   6.464
 5282POPC   D2A67108  36.166   0.486   6.764
 5282POPC   C3A67109  36.135   0.425   7.064
 5282POPC   C4A67110  36.157   0.431   7.364
 5282POPC   C1B67111  36.010   0.256   6.464
 5282POPC   C2B67112  35.987   0.221   6.764
 5282POPC   C3B67113  36.018   0.265   7.064
 5282POPC   C4B67114  35.970   0.212   7.364
 5283POPC   NC367115   1.182  23.702   5.564
 5283POPC   PO467116   1.250  23.753   5.864
 5283POPC   GL167117   1.230  23.725   6.164
 5283POPC   GL267118   1.141  23.627   6.164
 5283POPC   C1A67119   1.200  23.671   6.464
 5283POPC   D2A67120   1.223  23.723   6.764
 5283POPC   C3A67121   1.179  23.688   7.064
 5283POPC   C4A67122   1.223  23.674   7.364
 5283POPC   C1B67123   1.072  23.575   6.464
 5283POPC   C2B67124   1.024  23.541   6.764
 5283POPC   C3B67125   1.068  23.593   7.064
 5283POPC   C4B67126   1.064  23.500   7.364
 5284POPC   NC367127  16.745  37.710   5.564
 5284POPC   PO467128  16.683  37.687   5.864
 5284POPC   GL167129  16.722  37.709   6.164
 5284POPC   GL267130  16.726  37.549   6.164
 5284POPC   C1A67131  16.719  37.703   6.464
 5284POPC   D2A67132  16.735  37.684   6.764
 5284POPC   C3A67133  16.755  37.724   7.064
 5284POPC   C4A67134  16.748  37.694   7.364
 5284POPC   C1B67135  16.807  37.428   6.464
 5284POPC   C2B67136  16.811  37.470   6.764
 5284POPC   C3B67137  16.827  37.394   7.064
 5284POPC   C4B67138  16.790  37.417   7.364
 5285POPC   NC367139  37.684  12.069   5.564
 5285POPC   PO467140  37.643  12.083   5.864
 5285POPC   GL167141  37.680  12.050   6.164
 5285POPC   GL267142  37.669  11.930   6.164
 5285POPC   C1A67143  37.668  12.083   6.464
 5285POPC   D2A67144  37.661  12.035   6.764
 5285POPC   C3A67145  37.670  12.095   7.064
 5285POPC   C4A67146  37.640  12.068   7.364
 5285POPC   C1B67147  37.621  11.827   6.464
 5285POPC   C2B67148  37.682  11.789   6.764
 5285POPC   C3B67149  37.693  11.820   7.064
 5285POPC   C4B67150  37.640  11.814   7.364
 5286POPC   NC367151  40.809  33.817   5.564
 5286POPC   PO467152  40.744  33.840   5.864
 5286POPC   GL167153  40.740  33.823   6.164
 5286POPC   GL267154  40.908  33.680   6.164
 5286POPC   C1A67155  40.776  33.807   6.464
 5286POPC   D2A67156  40.813  33.772   6.764
 5286POPC   C3A67157  40.817  33.759   7.064
 5286POPC   C4A67158  40.811  33.766   7.364
 5286POPC   C1B67159  40.971  33.666   6.464
 5286POPC   C2B67160  41.001  33.605   6.764
 5286POPC   C3B67161  40.988  33.612   7.064
 5286POPC   C4B67162  40.973  33.674   7.364
 5287POPC   NC367163  22.193  15.162   5.564
 5287POPC   PO467164  22.120  15.137   5.864
 5287POPC   GL167165  22.188  15.130   6.164
 5287POPC   GL267166  22.143  15.304   6.164
 5287POPC   C1A67167  22.145  15.207   6.464
 5287POPC   D2A67168  22.201  15.182   6.764
 5287POPC   C3A67169  22.212  15.229   7.064
 5287POPC   C4A67170  22.179  15.159   7.364
 5287POPC   C1B67171  22.107  15.464   6.464
 5287POPC   C2B67172  22.115  15.458   6.764
 5287POPC   C3B67173  22.059  15.399   7.064
 5287POPC   C4B67174  22.051  15.387   7.364
 5288POPC   NC367175  40.013  33.768   5.564
 5288POPC   PO467176  39.987  33.759   5.864
 5288POPC   GL167177  40.028  33.814   6.164
 5288POPC   GL267178  40.168  33.724   6.164
 5288POPC   C1A67179  39.959  33.833   6.464
 5288POPC   D2A67180  40.046  33.788   6.764
 5288POPC   C3A67181  40.029  33.805   7.064
 5288POPC   C4A67182  40.000  33.834   7.364
 5288POPC   C1B67183  40.236  33.671   6.464
 5288POPC   C2B67184  40.257  33.707   6.764
 5288POPC   C3B67185  40.234  33.750   7.064
 5288POPC   C4B67186  40.258  33.717   7.364
 5289POPC   NC367187  36.105  29.137   5.564
 5289POPC   PO467188  36.154  29.149   5.864
 5289POPC   GL167189  36.108  29.123   6.164
 5289POPC   GL267190  36.220  29.077   6.164
 5289POPC   C1A67191  36.103  29.192   6.464
 5289POPC   D2A67192  36.155  29.184   6.764
 5289POPC   C3A67193  36.134  29.189   7.064
 5289POPC   C4A67194  36.163  29.176   7.364
 5289POPC   C1B67195  36.339  28.991   6.464
 5289POPC   C2B67196  36.377  29.027   6.764
 5289POPC   C3B67197  36.387  29.016   7.064
 5289POPC   C4B67198  36.325  29.075   7.364
 5290POPC   NC367199  36.171  17.502   5.564
 5290POPC   PO467200  36.108  17.511   5.864
 5290POPC   GL167201  36.101  17.492   6.164
 5290POPC   GL267202  36.107  17.345   6.164
 5290POPC   C1A67203  36.152  17.516   6.464
 5290POPC   D2A67204  36.119  17.494   6.764
 5290POPC   C3A67205  36.140  17.541   7.064
 5290POPC   C4A67206  36.139  17.469   7.364
 5290POPC   C1B67207  36.132  17.275   6.464
 5290POPC   C2B67208  36.100  17.291   6.764
 5290POPC   C3B67209  36.115  17.217   7.064
 5290POPC   C4B67210  36.081  17.244   7.364
 5291POPC   NC367211  35.357  33.003   5.564
 5291POPC   PO467212  35.316  32.998   5.864
 5291POPC   GL167213  35.350  33.010   6.164
 5291POPC   GL267214  35.261  33.044   6.164
 5291POPC   C1A67215  35.377  33.067   6.464
 5291POPC   D2A67216  35.399  32.994   6.764
 5291POPC   C3A67217  35.347  33.040   7.064
 5291POPC   C4A67218  35.318  32.995   7.364
 5291POPC   C1B67219  35.084  33.117   6.464
 5291POPC   C2B67220  35.120  33.171   6.764
 5291POPC   C3B67221  35.126  33.147   7.064
 5291POPC   C4B67222  35.136  33.111   7.364
 5292POPC   NC367223  38.486   5.059   5.564
 5292POPC   PO467224  38.443   5.112   5.864
 5292POPC   GL167225  38.408   5.131   6.164
 5292POPC   GL267226  38.590   5.116   6.164
 5292POPC   C1A67227  38.480   5.106   6.464
 5292POPC   D2A67228  38.434   5.116   6.764
 5292POPC   C3A67229  38.460   5.045   7.064
 5292POPC   C4A67230  38.477   5.086   7.364
 5292POPC   C1B67231  38.699   5.180   6.464
 5292POPC   C2B67232  38.639   5.241   6.764
 5292POPC   C3B67233  38.667   5.232   7.064
 5292POPC   C4B67234  38.695   5.242   7.364
 5293POPC   NC367235  10.556  33.019   5.564
 5293POPC   PO467236  10.491  33.059   5.864
 5293POPC   GL167237  10.563  33.034   6.164
 5293POPC   GL267238  10.637  32.982   6.164
 5293POPC   C1A67239  10.531  33.044   6.464
 5293POPC   D2A67240  10.501  33.011   6.764
 5293POPC   C3A67241  10.532  33.020   7.064
 5293POPC   C4A67242  10.502  33.017   7.364
 5293POPC   C1B67243  10.769  32.926   6.464
 5293POPC   C2B67244  10.736  32.902   6.764
 5293POPC   C3B67245  10.766  32.892   7.064
 5293POPC   C4B67246  10.766  32.876   7.364
 5294POPC   NC367247  29.941  24.467   5.564
 5294POPC   PO467248  29.968  24.501   5.864
 5294POPC   GL167249  29.908  24.492   6.164
 5294POPC   GL267250  29.880  24.327   6.164
 5294POPC   C1A67251  29.909  24.470   6.464
 5294POPC   D2A67252  29.879  24.486   6.764
 5294POPC   C3A67253  29.888  24.530   7.064
 5294POPC   C4A67254  29.878  24.518   7.364
 5294POPC   C1B67255  29.879  24.283   6.464
 5294POPC   C2B67256  29.917  24.258   6.764
 5294POPC   C3B67257  29.901  24.204   7.064
 5294POPC   C4B67258  29.926  24.276   7.364
 5295POPC   NC367259  14.412  26.821   5.564
 5295POPC   PO467260  14.390  26.784   5.864
 5295POPC   GL167261  14.444  26.776   6.164
 5295POPC   GL267262  14.501  26.835   6.164
 5295POPC   C1A67263  14.437  26.782   6.464
 5295POPC   D2A67264  14.437  26.811   6.764
 5295POPC   C3A67265  14.394  26.776   7.064
 5295POPC   C4A67266  14.389  26.840   7.364
 5295POPC   C1B67267  14.587  26.943   6.464
 5295POPC   C2B67268  14.626  26.911   6.764
 5295POPC   C3B67269  14.641  26.924   7.064
 5295POPC   C4B67270  14.642  26.970   7.364
 5296POPC   NC367271  36.864  18.262   5.564
 5296POPC   PO467272  36.935  18.284   5.864
 5296POPC   GL167273  36.886  18.251   6.164
 5296POPC   GL267274  37.025  18.364   6.164
 5296POPC   C1A67275  36.879  18.272   6.464
 5296POPC   D2A67276  36.881  18.316   6.764
 5296POPC   C3A67277  36.879  18.296   7.064
 5296POPC   C4A67278  36.924  18.262   7.364
 5296POPC   C1B67279  37.106  18.376   6.464
 5296POPC   C2B67280  37.134  18.398   6.764
 5296POPC   C3B67281  37.133  18.414   7.064
 5296POPC   C4B67282  37.079  18.447   7.364
 5297POPC   NC367283  23.757  37.652   5.564
 5297POPC   PO467284  23.676  37.692   5.864
 5297POPC   GL167285  23.703  37.662   6.164
 5297POPC   GL267286  23.590  37.547   6.164
 5297POPC   C1A67287  23.710  37.630   6.464
 5297POPC   D2A67288  23.713  37.655   6.764
 5297POPC   C3A67289  23.739  37.716   7.064
 5297POPC   C4A67290  23.746  37.696   7.364
 5297POPC   C1B67291  23.558  37.476   6.464
 5297POPC   C2B67292  23.491  37.539   6.764
 5297POPC   C3B67293  23.503  37.538   7.064
 5297POPC   C4B67294  23.516  37.560   7.364
 5298POPC   NC367295   3.502  26.786   5.564
 5298POPC   PO467296   3.542  26.857   5.864
 5298POPC   GL167297   3.494  26.824   6.164
 5298POPC   GL267298   3.584  26.919   6.164
 5298POPC   C1A67299   3.587  26.809   6.464
 5298POPC   D2A67300   3.504  26.781   6.764
 5298POPC   C3A67301   3.499  26.790   7.064
 5298POPC   C4A67302   3.532  26.837   7.364
 5298POPC   C1B67303   3.626  27.018   6.464
 5298POPC   C2B67304   3.586  27.040   6.764
 5298POPC   C3B67305   3.579  27.067   7.064
 5298POPC   C4B67306   3.599  27.104   7.364
 5299POPC   NC367307  10.488  43.882   5.564
 5299POPC   PO467308  10.547  43.857   5.864
 5299POPC   GL167309  10.531  43.876   6.164
 5299POPC   GL267310  10.459  44.038   6.164
 5299POPC   C1A67311  10.498  43.936   6.464
 5299POPC   D2A67312  10.512  43.852   6.764
 5299POPC   C3A67313  10.496  43.927   7.064
 5299POPC   C4A67314  10.573  43.854   7.364
 5299POPC   C1B67315  10.444  44.151   6.464
 5299POPC   C2B67316  10.441  44.086   6.764
 5299POPC   C3B67317  10.447  44.123   7.064
 5299POPC   C4B67318  10.349  44.102   7.364
 5300POPC   NC367319  43.145   1.247   5.564
 5300POPC   PO467320  43.061   1.223   5.864
 5300POPC   GL167321  43.105   1.204   6.164
 5300POPC   GL267322  42.942   1.237   6.164
 5300POPC   C1A67323  43.126   1.176   6.464
 5300POPC   D2A67324  43.068   1.263   6.764
 5300POPC   C3A67325  43.125   1.165   7.064
 5300POPC   C4A67326  43.128   1.234   7.364
 5300POPC   C1B67327  42.866   1.339   6.464
 5300POPC   C2B67328  42.859   1.330   6.764
 5300POPC   C3B67329  42.847   1.292   7.064
 5300POPC   C4B67330  42.844   1.325   7.364
 5301POPC   NC367331  13.609   6.682   5.564
 5301POPC   PO467332  13.653   6.649   5.864
 5301POPC   GL167333  13.588   6.646   6.164
 5301POPC   GL267334  13.725   6.540   6.164
 5301POPC   C1A67335  13.672   6.629   6.464
 5301POPC   D2A67336  13.607   6.673   6.764
 5301POPC   C3A67337  13.641   6.694   7.064
 5301POPC   C4A67338  13.630   6.679   7.364
 5301POPC   C1B67339  13.856   6.496   6.464
 5301POPC   C2B67340  13.813   6.471   6.764
 5301POPC   C3B67341  13.817   6.471   7.064
 5301POPC   C4B67342  13.787   6.487   7.364
 5302POPC   NC367343  15.950  29.153   5.564
 5302POPC   PO467344  15.976  29.125   5.864
 5302POPC   GL167345  15.961  29.173   6.164
 5302POPC   GL267346  15.832  29.273   6.164
 5302POPC   C1A67347  15.909  29.156   6.464
 5302POPC   D2A67348  15.914  29.193   6.764
 5302POPC   C3A67349  15.970  29.097   7.064
 5302POPC   C4A67350  15.983  29.096   7.364
 5302POPC   C1B67351  15.780  29.342   6.464
 5302POPC   C2B67352  15.771  29.329   6.764
 5302POPC   C3B67353  15.767  29.306   7.064
 5302POPC   C4B67354  15.761  29.349   7.364
 5303POPC   NC367355   1.167   5.884   5.564
 5303POPC   PO467356   1.196   5.871   5.864
 5303POPC   GL167357   1.258   5.918   6.164
 5303POPC   GL267358   1.134   5.891   6.164
 5303POPC   C1A67359   1.245   5.915   6.464
 5303POPC   D2A67360   1.238   5.903   6.764
 5303POPC   C3A67361   1.203   5.918   7.064
 5303POPC   C4A67362   1.169   5.867   7.364
 5303POPC   C1B67363   0.983   5.991   6.464
 5303POPC   C2B67364   0.989   6.010   6.764
 5303POPC   C3B67365   1.003   6.023   7.064
 5303POPC   C4B67366   0.985   5.980   7.364
 5304POPC   NC367367   2.739  11.276   5.564
 5304POPC   PO467368   2.734  11.344   5.864
 5304POPC   GL167369   2.803  11.323   6.164
 5304POPC   GL267370   2.836  11.203   6.164
 5304POPC   C1A67371   2.762  11.341   6.464
 5304POPC   D2A67372   2.742  11.257   6.764
 5304POPC   C3A67373   2.755  11.341   7.064
 5304POPC   C4A67374   2.721  11.274   7.364
 5304POPC   C1B67375   3.002  11.124   6.464
 5304POPC   C2B67376   2.927  11.145   6.764
 5304POPC   C3B67377   2.923  11.190   7.064
 5304POPC   C4B67378   2.999  11.163   7.364
 5305POPC   NC367379  12.830  44.643   5.564
 5305POPC   PO467380  12.836  44.691   5.864
 5305POPC   GL167381  12.883  44.701   6.164
 5305POPC   GL267382  12.740  44.688   6.164
 5305POPC   C1A67383  12.825  44.673   6.464
 5305POPC   D2A67384  12.877  44.683   6.764
 5305POPC   C3A67385  12.835  44.690   7.064
 5305POPC   C4A67386  12.859  44.622   7.364
 5305POPC   C1B67387  12.559  44.659   6.464
 5305POPC   C2B67388  12.621  44.688   6.764
 5305POPC   C3B67389  12.567  44.749   7.064
 5305POPC   C4B67390  12.606  44.737   7.364
 5306POPC   NC367391  11.306  26.810   5.564
 5306POPC   PO467392  11.347  26.810   5.864
 5306POPC   GL167393  11.265  26.782   6.164
 5306POPC   GL267394  11.434  26.814   6.164
 5306POPC   C1A67395  11.302  26.793   6.464
 5306POPC   D2A67396  11.256  26.774   6.764
 5306POPC   C3A67397  11.319  26.832   7.064
 5306POPC   C4A67398  11.313  26.798   7.364
 5306POPC   C1B67399  11.543  26.768   6.464
 5306POPC   C2B67400  11.523  26.801   6.764
 5306POPC   C3B67401  11.539  26.775   7.064
 5306POPC   C4B67402  11.525  26.782   7.364
 5307POPC   NC367403  38.464  16.714   5.564
 5307POPC   PO467404  38.419  16.697   5.864
 5307POPC   GL167405  38.470  16.686   6.164
 5307POPC   GL267406  38.306  16.690   6.164
 5307POPC   C1A67407  38.460  16.684   6.464
 5307POPC   D2A67408  38.420  16.765   6.764
 5307POPC   C3A67409  38.440  16.722   7.064
 5307POPC   C4A67410  38.493  16.746   7.364
 5307POPC   C1B67411  38.221  16.714   6.464
 5307POPC   C2B67412  38.213  16.622   6.764
 5307POPC   C3B67413  38.203  16.684   7.064
 5307POPC   C4B67414  38.203  16.674   7.364
 5308POPC   NC367415  16.004  29.910   5.564
 5308POPC   PO467416  15.960  29.906   5.864
 5308POPC   GL167417  15.915  29.954   6.164
 5308POPC   GL267418  15.996  30.068   6.164
 5308POPC   C1A67419  15.995  29.871   6.464
 5308POPC   D2A67420  15.971  29.879   6.764
 5308POPC   C3A67421  15.925  29.966   7.064
 5308POPC   C4A67422  15.997  29.875   7.364
 5308POPC   C1B67423  15.976  30.192   6.464
 5308POPC   C2B67424  15.964  30.176   6.764
 5308POPC   C3B67425  15.929  30.192   7.064
 5308POPC   C4B67426  15.933  30.200   7.364
 5309POPC   NC367427  16.744  34.581   5.564
 5309POPC   PO467428  16.730  34.535   5.864
 5309POPC   GL167429  16.764  34.569   6.164
 5309POPC   GL267430  16.729  34.439   6.164
 5309POPC   C1A67431  16.749  34.601   6.464
 5309POPC   D2A67432  16.772  34.583   6.764
 5309POPC   C3A67433  16.705  34.579   7.064
 5309POPC   C4A67434  16.740  34.546   7.364
 5309POPC   C1B67435  16.766  34.322   6.464
 5309POPC   C2B67436  16.729  34.278   6.764
 5309POPC   C3B67437  16.798  34.311   7.064
 5309POPC   C4B67438  16.781  34.336   7.364
 5310POPC   NC367439  17.477  24.513   5.564
 5310POPC   PO467440  17.507  24.470   5.864
 5310POPC   GL167441  17.487  24.530   6.164
 5310POPC   GL267442  17.592  24.490   6.164
 5310POPC   C1A67443  17.462  24.442   6.464
 5310POPC   D2A67444  17.468  24.499   6.764
 5310POPC   C3A67445  17.507  24.443   7.064
 5310POPC   C4A67446  17.494  24.531   7.364
 5310POPC   C1B67447  17.797  24.548   6.464
 5310POPC   C2B67448  17.756  24.515   6.764
 5310POPC   C3B67449  17.787  24.496   7.064
 5310POPC   C4B67450  17.744  24.470   7.364
 5311POPC   NC367451  10.556  29.134   5.564
 5311POPC   PO467452  10.534  29.118   5.864
 5311POPC   GL167453  10.501  29.103   6.164
 5311POPC   GL267454  10.462  29.160   6.164
 5311POPC   C1A67455  10.543  29.167   6.464
 5311POPC   D2A67456  10.534  29.160   6.764
 5311POPC   C3A67457  10.529  29.116   7.064
 5311POPC   C4A67458  10.481  29.184   7.364
 5311POPC   C1B67459  10.311  29.229   6.464
 5311POPC   C2B67460  10.300  29.235   6.764
 5311POPC   C3B67461  10.340  29.220   7.064
 5311POPC   C4B67462  10.353  29.291   7.364
 5312POPC   NC367463  12.048  13.604   5.564
 5312POPC   PO467464  12.093  13.629   5.864
 5312POPC   GL167465  12.047  13.652   6.164
 5312POPC   GL267466  12.175  13.689   6.164
 5312POPC   C1A67467  12.076  13.606   6.464
 5312POPC   D2A67468  12.027  13.638   6.764
 5312POPC   C3A67469  12.091  13.649   7.064
 5312POPC   C4A67470  12.087  13.657   7.364
 5312POPC   C1B67471  12.226  13.803   6.464
 5312POPC   C2B67472  12.226  13.862   6.764
 5312POPC   C3B67473  12.239  13.829   7.064
 5312POPC   C4B67474  12.224  13.864   7.364
 5313POPC   NC367475  19.817  42.310   5.564
 5313POPC   PO467476  19.798  42.364   5.864
 5313POPC   GL167477  19.835  42.376   6.164
 5313POPC   GL267478  19.817  42.498   6.164
 5313POPC   C1A67479  19.851  42.319   6.464
 5313POPC   D2A67480  19.846  42.330   6.764
 5313POPC   C3A67481  19.876  42.292   7.064
 5313POPC   C4A67482  19.798  42.305   7.364
 5313POPC   C1B67483  19.885  42.598   6.464
 5313POPC   C2B67484  19.870  42.570   6.764
 5313POPC   C3B67485  19.842  42.545   7.064
 5313POPC   C4B67486  19.854  42.569   7.364
 5314POPC   NC367487  34.557  31.496   5.564
 5314POPC   PO467488  34.601  31.481   5.864
 5314POPC   GL167489  34.607  31.492   6.164
 5314POPC   GL267490  34.525  31.433   6.164
 5314POPC   C1A67491  34.569  31.472   6.464
 5314POPC   D2A67492  34.565  31.462   6.764
 5314POPC   C3A67493  34.543  31.428   7.064
 5314POPC   C4A67494  34.619  31.520   7.364
 5314POPC   C1B67495  34.381  31.272   6.464
 5314POPC   C2B67496  34.356  31.291   6.764
 5314POPC   C3B67497  34.401  31.255   7.064
 5314POPC   C4B67498  34.393  31.332   7.364
 5315POPC   NC367499  10.515  17.486   5.564
 5315POPC   PO467500  10.560  17.469   5.864
 5315POPC   GL167501  10.567  17.526   6.164
 5315POPC   GL267502  10.377  17.608   6.164
 5315POPC   C1A67503  10.546  17.542   6.464
 5315POPC   D2A67504  10.553  17.482   6.764
 5315POPC   C3A67505  10.488  17.532   7.064
 5315POPC   C4A67506  10.557  17.459   7.364
 5315POPC   C1B67507  10.329  17.659   6.464
 5315POPC   C2B67508  10.328  17.672   6.764
 5315POPC   C3B67509  10.309  17.665   7.064
 5315POPC   C4B67510  10.267  17.639   7.364
 5316POPC   NC367511  41.565   9.752   5.564
 5316POPC   PO467512  41.604   9.738   5.864
 5316POPC   GL167513  41.606   9.749   6.164
 5316POPC   GL267514  41.612   9.772   6.164
 5316POPC   C1A67515  41.585   9.757   6.464
 5316POPC   D2A67516  41.542   9.762   6.764
 5316POPC   C3A67517  41.546   9.720   7.064
 5316POPC   C4A67518  41.553   9.712   7.364
 5316POPC   C1B67519  41.814   9.866   6.464
 5316POPC   C2B67520  41.748   9.860   6.764
 5316POPC   C3B67521  41.737   9.863   7.064
 5316POPC   C4B67522  41.803   9.897   7.364
 5317POPC   NC367523  12.038  34.607   5.564
 5317POPC   PO467524  12.099  34.540   5.864
 5317POPC   GL167525  12.035  34.616   6.164
 5317POPC   GL267526  12.160  34.503   6.164
 5317POPC   C1A67527  12.047  34.542   6.464
 5317POPC   D2A67528  12.087  34.558   6.764
 5317POPC   C3A67529  12.124  34.602   7.064
 5317POPC   C4A67530  12.084  34.569   7.364
 5317POPC   C1B67531  12.334  34.488   6.464
 5317POPC   C2B67532  12.339  34.453   6.764
 5317POPC   C3B67533  12.275  34.516   7.064
 5317POPC   C4B67534  12.317  34.483   7.364
 5318POPC   NC367535   9.720  12.101   5.564
 5318POPC   PO467536   9.758  12.126   5.864
 5318POPC   GL167537   9.701  12.076   6.164
 5318POPC   GL267538   9.741  12.159   6.164
 5318POPC   C1A67539   9.744  12.041   6.464
 5318POPC   D2A67540   9.746  12.073   6.764
 5318POPC   C3A67541   9.715  12.119   7.064
 5318POPC   C4A67542   9.797  12.037   7.364
 5318POPC   C1B67543   9.699  12.372   6.464
 5318POPC   C2B67544   9.681  12.321   6.764
 5318POPC   C3B67545   9.684  12.371   7.064
 5318POPC   C4B67546   9.671  12.370   7.364
 5319POPC   NC367547  40.831  32.243   5.564
 5319POPC   PO467548  40.741  32.274   5.864
 5319POPC   GL167549  40.798  32.282   6.164
 5319POPC   GL267550  40.639  32.280   6.164
 5319POPC   C1A67551  40.738  32.273   6.464
 5319POPC   D2A67552  40.764  32.231   6.764
 5319POPC   C3A67553  40.777  32.285   7.064
 5319POPC   C4A67554  40.800  32.253   7.364
 5319POPC   C1B67555  40.503  32.284   6.464
 5319POPC   C2B67556  40.577  32.331   6.764
 5319POPC   C3B67557  40.571  32.280   7.064
 5319POPC   C4B67558  40.548  32.254   7.364
 5320POPC   NC367559  26.042  18.330   5.564
 5320POPC   PO467560  26.000  18.312   5.864
 5320POPC   GL167561  26.080  18.254   6.164
 5320POPC   GL267562  25.988  18.430   6.164
 5320POPC   C1A67563  26.078  18.278   6.464
 5320POPC   D2A67564  26.032  18.320   6.764
 5320POPC   C3A67565  26.077  18.285   7.064
 5320POPC   C4A67566  26.028  18.276   7.364
 5320POPC   C1B67567  25.921  18.533   6.464
 5320POPC   C2B67568  25.973  18.536   6.764
 5320POPC   C3B67569  25.994  18.522   7.064
 5320POPC   C4B67570  25.993  18.514   7.364
 5321POPC   NC367571  11.297  16.777   5.564
 5321POPC   PO467572  11.316  16.715   5.864
 5321POPC   GL167573  11.345  16.735   6.164
 5321POPC   GL267574  11.411  16.663   6.164
 5321POPC   C1A67575  11.335  16.706   6.464
 5321POPC   D2A67576  11.320  16.706   6.764
 5321POPC   C3A67577  11.320  16.774   7.064
 5321POPC   C4A67578  11.340  16.710   7.364
 5321POPC   C1B67579  11.454  16.512   6.464
 5321POPC   C2B67580  11.478  16.516   6.764
 5321POPC   C3B67581  11.434  16.481   7.064
 5321POPC   C4B67582  11.408  16.497   7.364
 5322POPC   NC367583  36.933  26.831   5.564
 5322POPC   PO467584  36.922  26.831   5.864
 5322POPC   GL167585  36.906  26.776   6.164
 5322POPC   GL267586  36.798  26.724   6.164
 5322POPC   C1A67587  36.932  26.829   6.464
 5322POPC   D2A67588  36.910  26.858   6.764
 5322POPC   C3A67589  36.918  26.772   7.064
 5322POPC   C4A67590  36.942  26.817   7.364
 5322POPC   C1B67591  36.668  26.613   6.464
 5322POPC   C2B67592  36.665  26.658   6.764
 5322POPC   C3B67593  36.747  26.653   7.064
 5322POPC   C4B67594  36.734  26.661   7.364
 5323POPC   NC367595  19.015  44.625   5.564
 5323POPC   PO467596  19.033  44.650   5.864
 5323POPC   GL167597  19.029  44.685   6.164
 5323POPC   GL267598  19.179  44.743   6.164
 5323POPC   C1A67599  19.105  44.648   6.464
 5323POPC   D2A67600  19.040  44.632   6.764
 5323POPC   C3A67601  19.031  44.626   7.064
 5323POPC   C4A67602  19.024  44.659   7.364
 5323POPC   C1B67603  19.301  44.797   6.464
 5323POPC   C2B67604  19.272  44.773   6.764
 5323POPC   C3B67605  19.296  44.753   7.064
 5323POPC   C4B67606  19.268  44.795   7.364
 5324POPC   NC367607  18.251  25.252   5.564
 5324POPC   PO467608  18.318  25.271   5.864
 5324POPC   GL167609  18.319  25.282   6.164
 5324POPC   GL267610  18.139  25.257   6.164
 5324POPC   C1A67611  18.244  25.264   6.464
 5324POPC   D2A67612  18.250  25.287   6.764
 5324POPC   C3A67613  18.316  25.278   7.064
 5324POPC   C4A67614  18.252  25.264   7.364
 5324POPC   C1B67615  18.041  25.144   6.464
 5324POPC   C2B67616  18.067  25.164   6.764
 5324POPC   C3B67617  18.038  25.136   7.064
 5324POPC   C4B67618  18.067  25.196   7.364
 5325POPC   NC367619   9.701  42.374   5.564
 5325POPC   PO467620   9.702  42.349   5.864
 5325POPC   GL167621   9.780  42.370   6.164
 5325POPC   GL267622   9.886  42.315   6.164
 5325POPC   C1A67623   9.724  42.296   6.464
 5325POPC   D2A67624   9.722  42.316   6.764
 5325POPC   C3A67625   9.749  42.359   7.064
 5325POPC   C4A67626   9.723  42.343   7.364
 5325POPC   C1B67627   9.956  42.270   6.464
 5325POPC   C2B67628  10.024  42.265   6.764
 5325POPC   C3B67629   9.969  42.236   7.064
 5325POPC   C4B67630   9.996  42.250   7.364
 5326POPC   NC367631  38.503  28.406   5.564
 5326POPC   PO467632  38.470  28.322   5.864
 5326POPC   GL167633  38.502  28.353   6.164
 5326POPC   GL267634  38.574  28.470   6.164
 5326POPC   C1A67635  38.496  28.344   6.464
 5326POPC   D2A67636  38.485  28.387   6.764
 5326POPC   C3A67637  38.431  28.404   7.064
 5326POPC   C4A67638  38.422  28.347   7.364
 5326POPC   C1B67639  38.674  28.497   6.464
 5326POPC   C2B67640  38.699  28.475   6.764
 5326POPC   C3B67641  38.634  28.530   7.064
 5326POPC   C4B67642  38.711  28.497   7.364
 5327POPC   NC367643  33.056  14.416   5.564
 5327POPC   PO467644  33.021  14.366   5.864
 5327POPC   GL167645  32.983  14.420   6.164
 5327POPC   GL267646  32.911  14.341   6.164
 5327POPC   C1A67647  32.997  14.382   6.464
 5327POPC   D2A67648  33.017  14.430   6.764
 5327POPC   C3A67649  32.987  14.403   7.064
 5327POPC   C4A67650  32.995  14.409   7.364
 5327POPC   C1B67651  32.864  14.186   6.464
 5327POPC   C2B67652  32.903  14.216   6.764
 5327POPC   C3B67653  32.856  14.251   7.064
 5327POPC   C4B67654  32.835  14.182   7.364
 5328POPC   NC367655   1.253   5.073   5.564
 5328POPC   PO467656   1.223   5.137   5.864
 5328POPC   GL167657   1.222   5.065   6.164
 5328POPC   GL267658   1.118   5.133   6.164
 5328POPC   C1A67659   1.213   5.050   6.464
 5328POPC   D2A67660   1.241   5.044   6.764
 5328POPC   C3A67661   1.247   5.078   7.064
 5328POPC   C4A67662   1.185   5.061   7.364
 5328POPC   C1B67663   0.971   5.138   6.464
 5328POPC   C2B67664   0.943   5.167   6.764
 5328POPC   C3B67665   0.944   5.187   7.064
 5328POPC   C4B67666   1.012   5.162   7.364
 5329POPC   NC367667   7.436   6.676   5.564
 5329POPC   PO467668   7.429   6.672   5.864
 5329POPC   GL167669   7.423   6.695   6.164
 5329POPC   GL267670   7.369   6.778   6.164
 5329POPC   C1A67671   7.468   6.649   6.464
 5329POPC   D2A67672   7.426   6.645   6.764
 5329POPC   C3A67673   7.458   6.646   7.064
 5329POPC   C4A67674   7.399   6.662   7.364
 5329POPC   C1B67675   7.418   6.867   6.464
 5329POPC   C2B67676   7.371   6.865   6.764
 5329POPC   C3B67677   7.430   6.904   7.064
 5329POPC   C4B67678   7.351   6.882   7.364
 5330POPC   NC367679   6.648  29.190   5.564
 5330POPC   PO467680   6.658  29.164   5.864
 5330POPC   GL167681   6.630  29.110   6.164
 5330POPC   GL267682   6.775  29.254   6.164
 5330POPC   C1A67683   6.649  29.099   6.464
 5330POPC   D2A67684   6.633  29.129   6.764
 5330POPC   C3A67685   6.678  29.191   7.064
 5330POPC   C4A67686   6.626  29.186   7.364
 5330POPC   C1B67687   6.855  29.323   6.464
 5330POPC   C2B67688   6.832  29.254   6.764
 5330POPC   C3B67689   6.848  29.343   7.064
 5330POPC   C4B67690   6.881  29.288   7.364
 5331POPC   NC367691  22.965  33.069   5.564
 5331POPC   PO467692  22.896  33.055   5.864
 5331POPC   GL167693  22.897  33.000   6.164
 5331POPC   GL267694  22.874  32.906   6.164
 5331POPC   C1A67695  22.944  32.980   6.464
 5331POPC   D2A67696  22.905  33.058   6.764
 5331POPC   C3A67697  22.931  33.027   7.064
 5331POPC   C4A67698  22.964  33.023   7.364
 5331POPC   C1B67699  22.808  32.805   6.464
 5331POPC   C2B67700  22.847  32.757   6.764
 5331POPC   C3B67701  22.826  32.759   7.064
 5331POPC   C4B67702  22.883  32.841   7.364
 5332POPC   NC367703  26.046  12.085   5.564
 5332POPC   PO467704  26.068  12.048   5.864
 5332POPC   GL167705  26.074  12.080   6.164
 5332POPC   GL267706  26.012  11.958   6.164
 5332POPC   C1A67707  26.000  12.031   6.464
 5332POPC   D2A67708  26.083  12.087   6.764
 5332POPC   C3A67709  26.010  12.033   7.064
 5332POPC   C4A67710  26.058  12.030   7.364
 5332POPC   C1B67711  25.880  11.890   6.464
 5332POPC   C2B67712  25.916  11.835   6.764
 5332POPC   C3B67713  25.871  11.918   7.064
 5332POPC   C4B67714  25.874  11.902   7.364
 5333POPC   NC367715  33.766  42.360   5.564
 5333POPC   PO467716  33.824  42.343   5.864
 5333POPC   GL167717  33.786  42.313   6.164
 5333POPC   GL267718  33.705  42.411   6.164
 5333POPC   C1A67719  33.830  42.373   6.464
 5333POPC   D2A67720  33.827  42.374   6.764
 5333POPC   C3A67721  33.826  42.383   7.064
 5333POPC   C4A67722  33.781  42.344   7.364
 5333POPC   C1B67723  33.697  42.549   6.464
 5333POPC   C2B67724  33.641  42.572   6.764
 5333POPC   C3B67725  33.668  42.498   7.064
 5333POPC   C4B67726  33.644  42.570   7.364
 5334POPC   NC367727  24.453   5.861   5.564
 5334POPC   PO467728  24.513   5.821   5.864
 5334POPC   GL167729  24.487   5.824   6.164
 5334POPC   GL267730  24.617   5.826   6.164
 5334POPC   C1A67731  24.443   5.881   6.464
 5334POPC   D2A67732  24.480   5.833   6.764
 5334POPC   C3A67733  24.497   5.895   7.064
 5334POPC   C4A67734  24.453   5.900   7.364
 5334POPC   C1B67735  24.761   5.813   6.464
 5334POPC   C2B67736  24.763   5.806   6.764
 5334POPC   C3B67737  24.698   5.745   7.064
 5334POPC   C4B67738  24.742   5.764   7.364
 5335POPC   NC367739  29.148  41.602   5.564
 5335POPC   PO467740  29.129  41.530   5.864
 5335POPC   GL167741  29.116  41.608   6.164
 5335POPC   GL267742  29.222  41.457   6.164
 5335POPC   C1A67743  29.137  41.557   6.464
 5335POPC   D2A67744  29.097  41.515   6.764
 5335POPC   C3A67745  29.152  41.537   7.064
 5335POPC   C4A67746  29.152  41.542   7.364
 5335POPC   C1B67747  29.240  41.372   6.464
 5335POPC   C2B67748  29.254  41.336   6.764
 5335POPC   C3B67749  29.234  41.390   7.064
 5335POPC   C4B67750  29.312  41.326   7.364
 5336POPC   NC367751  23.696  29.947   5.564
 5336POPC   PO467752  23.709  29.933   5.864
 5336POPC   GL167753  23.760  29.871   6.164
 5336POPC   GL267754  23.684  30.028   6.164
 5336POPC   C1A67755  23.737  29.947   6.464
 5336POPC   D2A67756  23.722  29.883   6.764
 5336POPC   C3A67757  23.720  29.913   7.064
 5336POPC   C4A67758  23.749  29.967   7.364
 5336POPC   C1B67759  23.648  30.155   6.464
 5336POPC   C2B67760  23.566  30.132   6.764
 5336POPC   C3B67761  23.608  30.179   7.064
 5336POPC   C4B67762  23.565  30.165   7.364
 5337POPC   NC367763  26.839   0.398   5.564
 5337POPC   PO467764  26.837   0.413   5.864
 5337POPC   GL167765  26.865   0.423   6.164
 5337POPC   GL267766  26.849   0.499   6.164
 5337POPC   C1A67767  26.781   0.402   6.464
 5337POPC   D2A67768  26.796   0.461   6.764
 5337POPC   C3A67769  26.774   0.422   7.064
 5337POPC   C4A67770  26.809   0.430   7.364
 5337POPC   C1B67771  26.985   0.662   6.464
 5337POPC   C2B67772  26.913   0.645   6.764
 5337POPC   C3B67773  26.939   0.670   7.064
 5337POPC   C4B67774  26.907   0.650   7.364
 5338POPC   NC367775  39.968  35.302   5.564
 5338POPC   PO467776  40.051  35.338   5.864
 5338POPC   GL167777  40.037  35.320   6.164
 5338POPC   GL267778  40.101  35.284   6.164
 5338POPC   C1A67779  40.039  35.315   6.464
 5338POPC   D2A67780  39.967  35.311   6.764
 5338POPC   C3A67781  40.021  35.303   7.064
 5338POPC   C4A67782  40.030  35.332   7.364
 5338POPC   C1B67783  40.114  35.165   6.464
 5338POPC   C2B67784  40.102  35.142   6.764
 5338POPC   C3B67785  40.144  35.104   7.064
 5338POPC   C4B67786  40.182  35.157   7.364
 5339POPC   NC367787  30.652  25.308   5.564
 5339POPC   PO467788  30.695  25.247   5.864
 5339POPC   GL167789  30.691  25.275   6.164
 5339POPC   GL267790  30.805  25.253   6.164
 5339POPC   C1A67791  30.663  25.271   6.464
 5339POPC   D2A67792  30.676  25.300   6.764
 5339POPC   C3A67793  30.710  25.310   7.064
 5339POPC   C4A67794  30.664  25.254   7.364
 5339POPC   C1B67795  30.882  25.180   6.464
 5339POPC   C2B67796  30.949  25.107   6.764
 5339POPC   C3B67797  30.924  25.149   7.064
 5339POPC   C4B67798  30.934  25.110   7.364
 5340POPC   NC367799  40.052  34.578   5.564
 5340POPC   PO467800  40.055  34.607   5.864
 5340POPC   GL167801  40.054  34.587   6.164
 5340POPC   GL267802  39.891  34.550   6.164
 5340POPC   C1A67803  39.965  34.602   6.464
 5340POPC   D2A67804  40.030  34.558   6.764
 5340POPC   C3A67805  40.044  34.621   7.064
 5340POPC   C4A67806  40.007  34.527   7.364
 5340POPC   C1B67807  39.790  34.617   6.464
 5340POPC   C2B67808  39.760  34.533   6.764
 5340POPC   C3B67809  39.784  34.587   7.064
 5340POPC   C4B67810  39.799  34.541   7.364
 5341POPC   NC367811  22.979  14.439   5.564
 5341POPC   PO467812  22.912  14.420   5.864
 5341POPC   GL167813  22.958  14.411   6.164
 5341POPC   GL267814  23.038  14.400   6.164
 5341POPC   C1A67815  22.978  14.412   6.464
 5341POPC   D2A67816  22.981  14.423   6.764
 5341POPC   C3A67817  22.978  14.408   7.064
 5341POPC   C4A67818  22.970  14.441   7.364
 5341POPC   C1B67819  23.189  14.286   6.464
 5341POPC   C2B67820  23.204  14.346   6.764
 5341POPC   C3B67821  23.201  14.358   7.064
 5341POPC   C4B67822  23.183  14.341   7.364
 5342POPC   NC367823  31.426  30.679   5.564
 5342POPC   PO467824  31.466  30.678   5.864
 5342POPC   GL167825  31.494  30.663   6.164
 5342POPC   GL267826  31.618  30.763   6.164
 5342POPC   C1A67827  31.475  30.739   6.464
 5342POPC   D2A67828  31.520  30.715   6.764
 5342POPC   C3A67829  31.471  30.650   7.064
 5342POPC   C4A67830  31.491  30.673   7.364
 5342POPC   C1B67831  31.686  30.690   6.464
 5342POPC   C2B67832  31.692  30.698   6.764
 5342POPC   C3B67833  31.763  30.701   7.064
 5342POPC   C4B67834  31.737  30.755   7.364
 5343POPC   NC367835  21.357   9.788   5.564
 5343POPC   PO467836  21.337   9.797   5.864
 5343POPC   GL167837  21.361   9.755   6.164
 5343POPC   GL267838  21.248   9.768   6.164
 5343POPC   C1A67839  21.406   9.715   6.464
 5343POPC   D2A67840  21.339   9.707   6.764
 5343POPC   C3A67841  21.407   9.797   7.064
 5343POPC   C4A67842  21.361   9.734   7.364
 5343POPC   C1B67843  21.192   9.847   6.464
 5343POPC   C2B67844  21.126   9.834   6.764
 5343POPC   C3B67845  21.131   9.832   7.064
 5343POPC   C4B67846  21.194   9.803   7.364
 5344POPC   NC367847  32.253  43.063   5.564
 5344POPC   PO467848  32.277  43.101   5.864
 5344POPC   GL167849  32.278  43.073   6.164
 5344POPC   GL267850  32.189  42.972   6.164
 5344POPC   C1A67851  32.287  43.081   6.464
 5344POPC   D2A67852  32.285  43.143   6.764
 5344POPC   C3A67853  32.280  43.125   7.064
 5344POPC   C4A67854  32.228  43.142   7.364
 5344POPC   C1B67855  32.172  42.841   6.464
 5344POPC   C2B67856  32.162  42.901   6.764
 5344POPC   C3B67857  32.171  42.898   7.064
 5344POPC   C4B67858  32.181  42.832   7.364
 5345POPC   NC367859   2.803  17.498   5.564
 5345POPC   PO467860   2.732  17.476   5.864
 5345POPC   GL167861   2.771  17.550   6.164
 5345POPC   GL267862   2.658  17.596   6.164
 5345POPC   C1A67863   2.742  17.466   6.464
 5345POPC   D2A67864   2.803  17.502   6.764
 5345POPC   C3A67865   2.749  17.522   7.064
 5345POPC   C4A67866   2.730  17.553   7.364
 5345POPC   C1B67867   2.626  17.682   6.464
 5345POPC   C2B67868   2.603  17.698   6.764
 5345POPC   C3B67869   2.606  17.747   7.064
 5345POPC   C4B67870   2.567  17.681   7.364
 5346POPC   NC367871  32.253   1.213   5.564
 5346POPC   PO467872  32.277   1.174   5.864
 5346POPC   GL167873  32.261   1.225   6.164
 5346POPC   GL267874  32.325   1.146   6.164
 5346POPC   C1A67875  32.246   1.213   6.464
 5346POPC   D2A67876  32.283   1.238   6.764
 5346POPC   C3A67877  32.296   1.198   7.064
 5346POPC   C4A67878  32.280   1.209   7.364
 5346POPC   C1B67879  32.394   1.016   6.464
 5346POPC   C2B67880  32.412   0.993   6.764
 5346POPC   C3B67881  32.342   1.051   7.064
 5346POPC   C4B67882  32.403   0.971   7.364
 5347POPC   NC367883  29.160   7.372   5.564
 5347POPC   PO467884  29.126   7.392   5.864
 5347POPC   GL167885  29.193   7.372   6.164
 5347POPC   GL267886  29.076   7.490   6.164
 5347POPC   C1A67887  29.188   7.441   6.464
 5347POPC   D2A67888  29.131   7.408   6.764
 5347POPC   C3A67889  29.137   7.431   7.064
 5347POPC   C4A67890  29.132   7.394   7.364
 5347POPC   C1B67891  28.939   7.560   6.464
 5347POPC   C2B67892  28.968   7.538   6.764
 5347POPC   C3B67893  28.939   7.514   7.064
 5347POPC   C4B67894  28.936   7.508   7.364
 5348POPC   NC367895  34.604   1.207   5.564
 5348POPC   PO467896  34.564   1.208   5.864
 5348POPC   GL167897  34.567   1.255   6.164
 5348POPC   GL267898  34.565   1.378   6.164
 5348POPC   C1A67899  34.553   1.174   6.464
 5348POPC   D2A67900  34.552   1.180   6.764
 5348POPC   C3A67901  34.600   1.233   7.064
 5348POPC   C4A67902  34.614   1.215   7.364
 5348POPC   C1B67903  34.622   1.463   6.464
 5348POPC   C2B67904  34.613   1.421   6.764
 5348POPC   C3B67905  34.660   1.492   7.064
 5348POPC   C4B67906  34.627   1.501   7.364
 5349POPC   NC367907  28.374  17.519   5.564
 5349POPC   PO467908  28.321  17.473   5.864
 5349POPC   GL167909  28.377  17.517   6.164
 5349POPC   GL267910  28.411  17.408   6.164
 5349POPC   C1A67911  28.328  17.527   6.464
 5349POPC   D2A67912  28.348  17.540   6.764
 5349POPC   C3A67913  28.376  17.527   7.064
 5349POPC   C4A67914  28.386  17.492   7.364
 5349POPC   C1B67915  28.552  17.325   6.464
 5349POPC   C2B67916  28.570  17.363   6.764
 5349POPC   C3B67917  28.514  17.365   7.064
 5349POPC   C4B67918  28.501  17.285   7.364
 5350POPC   NC367919  43.916  31.445   5.564
 5350POPC   PO467920  43.905  31.443   5.864
 5350POPC   GL167921  43.916  31.517   6.164
 5350POPC   GL267922  44.019  31.570   6.164
 5350POPC   C1A67923  43.900  31.511   6.464
 5350POPC   D2A67924  43.924  31.452   6.764
 5350POPC   C3A67925  43.898  31.439   7.064
 5350POPC   C4A67926  43.868  31.426   7.364
 5350POPC   C1B67927  44.090  31.672   6.464
 5350POPC   C2B67928  44.030  31.639   6.764
 5350POPC   C3B67929  44.055  31.630   7.064
 5350POPC   C4B67930  44.104  31.617   7.364
 5351POPC   NC367931  29.918  41.544   5.564
 5351POPC   PO467932  29.892  41.570   5.864
 5351POPC   GL167933  29.954  41.534   6.164
 5351POPC   GL267934  30.013  41.681   6.164
 5351POPC   C1A67935  29.939  41.602   6.464
 5351POPC   D2A67936  29.966  41.565   6.764
 5351POPC   C3A67937  29.903  41.558   7.064
 5351POPC   C4A67938  29.954  41.521   7.364
 5351POPC   C1B67939  30.056  41.700   6.464
 5351POPC   C2B67940  30.106  41.713   6.764
 5351POPC   C3B67941  30.136  41.739   7.064
 5351POPC   C4B67942  30.087  41.762   7.364
 5352POPC   NC367943  30.685  24.522   5.564
 5352POPC   PO467944  30.656  24.498   5.864
 5352POPC   GL167945  30.652  24.463   6.164
 5352POPC   GL267946  30.850  24.495   6.164
 5352POPC   C1A67947  30.687  24.536   6.464
 5352POPC   D2A67948  30.715  24.496   6.764
 5352POPC   C3A67949  30.726  24.504   7.064
 5352POPC   C4A67950  30.689  24.444   7.364
 5352POPC   C1B67951  30.894  24.570   6.464
 5352POPC   C2B67952  30.972  24.567   6.764
 5352POPC   C3B67953  30.958  24.590   7.064
 5352POPC   C4B67954  30.887  24.585   7.364
 5353POPC   NC367955  30.704   2.025   5.564
 5353POPC   PO467956  30.681   2.008   5.864
 5353POPC   GL167957  30.661   2.022   6.164
 5353POPC   GL267958  30.636   1.932   6.164
 5353POPC   C1A67959  30.658   2.001   6.464
 5353POPC   D2A67960  30.711   1.941   6.764
 5353POPC   C3A67961  30.717   2.036   7.064
 5353POPC   C4A67962  30.652   1.965   7.364
 5353POPC   C1B67963  30.468   1.868   6.464
 5353POPC   C2B67964  30.452   1.818   6.764
 5353POPC   C3B67965  30.530   1.824   7.064
 5353POPC   C4B67966  30.458   1.822   7.364
 5354POPC   NC367967   1.192  20.625   5.564
 5354POPC   PO467968   1.169  20.645   5.864
 5354POPC   GL167969   1.251  20.644   6.164
 5354POPC   GL267970   1.106  20.585   6.164
 5354POPC   C1A67971   1.240  20.561   6.464
 5354POPC   D2A67972   1.179  20.590   6.764
 5354POPC   C3A67973   1.207  20.600   7.064
 5354POPC   C4A67974   1.246  20.635   7.364
 5354POPC   C1B67975   1.016  20.541   6.464
 5354POPC   C2B67976   0.977  20.544   6.764
 5354POPC   C3B67977   0.941  20.519   7.064
 5354POPC   C4B67978   1.007  20.523   7.364
 5355POPC   NC367979  10.507  15.957   5.564
 5355POPC   PO467980  10.556  15.958   5.864
 5355POPC   GL167981  10.477  15.916   6.164
 5355POPC   GL267982  10.643  16.029   6.164
 5355POPC   C1A67983  10.553  15.943   6.464
 5355POPC   D2A67984  10.502  15.922   6.764
 5355POPC   C3A67985  10.570  15.967   7.064
 5355POPC   C4A67986  10.572  15.953   7.364
 5355POPC   C1B67987  10.739  16.131   6.464
 5355POPC   C2B67988  10.687  16.111   6.764
 5355POPC   C3B67989  10.660  16.172   7.064
 5355POPC   C4B67990  10.677  16.085   7.364
 5356POPC   NC367991   8.996  29.147   5.564
 5356POPC   PO467992   8.950  29.155   5.864
 5356POPC   GL167993   8.957  29.147   6.164
 5356POPC   GL267994   8.964  29.019   6.164
 5356POPC   C1A67995   8.996  29.175   6.464
 5356POPC   D2A67996   8.983  29.128   6.764
 5356POPC   C3A67997   8.971  29.095   7.064
 5356POPC   C4A67998   8.929  29.183   7.364
 5356POPC   C1B67999   8.986  28.936   6.464
 5356POPC   C2B68000   8.948  28.849   6.764
 5356POPC   C3B68001   8.980  28.921   7.064
 5356POPC   C4B68002   8.980  28.928   7.364
 5357POPC   NC368003  39.965  14.429   5.564
 5357POPC   PO468004  40.021  14.413   5.864
 5357POPC   GL168005  40.033  14.425   6.164
 5357POPC   GL268006  39.898  14.367   6.164
 5357POPC   C1A68007  40.033  14.451   6.464
 5357POPC   D2A68008  39.959  14.423   6.764
 5357POPC   C3A68009  39.979  14.390   7.064
 5357POPC   C4A68010  39.962  14.400   7.364
 5357POPC   C1B68011  39.795  14.310   6.464
 5357POPC   C2B68012  39.787  14.373   6.764
 5357POPC   C3B68013  39.732  14.366   7.064
 5357POPC   C4B68014  39.781  14.306   7.364
 5358POPC   NC368015  38.498  29.129   5.564
 5358POPC   PO468016  38.423  29.121   5.864
 5358POPC   GL168017  38.431  29.109   6.164
 5358POPC   GL268018  38.490  29.243   6.164
 5358POPC   C1A68019  38.471  29.187   6.464
 5358POPC   D2A68020  38.484  29.174   6.764
 5358POPC   C3A68021  38.495  29.135   7.064
 5358POPC   C4A68022  38.486  29.145   7.364
 5358POPC   C1B68023  38.592  29.337   6.464
 5358POPC   C2B68024  38.574  29.389   6.764
 5358POPC   C3B68025  38.548  29.380   7.064
 5358POPC   C4B68026  38.594  29.414   7.364
 5359POPC   NC368027  39.987  22.118   5.564
 5359POPC   PO468028  39.982  22.184   5.864
 5359POPC   GL168029  40.041  22.189   6.164
 5359POPC   GL268030  39.932  22.091   6.164
 5359POPC   C1A68031  40.015  22.197   6.464
 5359POPC   D2A68032  40.042  22.200   6.764
 5359POPC   C3A68033  39.966  22.117   7.064
 5359POPC   C4A68034  39.996  22.182   7.364
 5359POPC   C1B68035  39.884  22.011   6.464
 5359POPC   C2B68036  39.880  21.941   6.764
 5359POPC   C3B68037  39.791  21.972   7.064
 5359POPC   C4B68038  39.835  21.949   7.364
 5360POPC   NC368039  36.893  15.907   5.564
 5360POPC   PO468040  36.872  15.986   5.864
 5360POPC   GL168041  36.901  15.936   6.164
 5360POPC   GL268042  36.826  16.005   6.164
 5360POPC   C1A68043  36.943  15.926   6.464
 5360POPC   D2A68044  36.865  15.933   6.764
 5360POPC   C3A68045  36.909  15.913   7.064
 5360POPC   C4A68046  36.911  15.924   7.364
 5360POPC   C1B68047  36.647  15.979   6.464
 5360POPC   C2B68048  36.675  15.966   6.764
 5360POPC   C3B68049  36.643  16.061   7.064
 5360POPC   C4B68050  36.698  16.024   7.364
 5361POPC   NC368051  15.983   5.070   5.564
 5361POPC   PO468052  15.906   5.068   5.864
 5361POPC   GL168053  15.959   5.086   6.164
 5361POPC   GL268054  16.019   5.169   6.164
 5361POPC   C1A68055  15.924   5.047   6.464
 5361POPC   D2A68056  15.906   5.101   6.764
 5361POPC   C3A68057  15.965   5.061   7.064
 5361POPC   C4A68058  15.917   5.141   7.364
 5361POPC   C1B68059  16.167   5.305   6.464
 5361POPC   C2B68060  16.134   5.230   6.764
 5361POPC   C3B68061  16.173   5.273   7.064
 5361POPC   C4B68062  16.160   5.256   7.364
 5362POPC   NC368063  29.161  33.818   5.564
 5362POPC   PO468064  29.181  33.795   5.864
 5362POPC   GL168065  29.153  33.793   6.164
 5362POPC   GL268066  29.016  33.797   6.164
 5362POPC   C1A68067  29.177  33.840   6.464
 5362POPC   D2A68068  29.133  33.752   6.764
 5362POPC   C3A68069  29.113  33.756   7.064
 5362POPC   C4A68070  29.179  33.844   7.364
 5362POPC   C1B68071  28.923  33.903   6.464
 5362POPC   C2B68072  28.941  33.810   6.764
 5362POPC   C3B68073  28.901  33.870   7.064
 5362POPC   C4B68074  28.938  33.814   7.364
 5363POPC   NC368075  32.245  42.337   5.564
 5363POPC   PO468076  32.271  42.383   5.864
 5363POPC   GL168077  32.276  42.356   6.164
 5363POPC   GL268078  32.205  42.175   6.164
 5363POPC   C1A68079  32.292  42.323   6.464
 5363POPC   D2A68080  32.199  42.351   6.764
 5363POPC   C3A68081  32.222  42.287   7.064
 5363POPC   C4A68082  32.231  42.339   7.364
 5363POPC   C1B68083  32.173  42.110   6.464
 5363POPC   C2B68084  32.192  42.131   6.764
 5363POPC   C3B68085  32.175  42.118   7.064
 5363POPC   C4B68086  32.132  42.129   7.364
 5364POPC   NC368087   1.187  17.521   5.564
 5364POPC   PO468088   1.182  17.552   5.864
 5364POPC   GL168089   1.247  17.459   6.164
 5364POPC   GL268090   1.112  17.537   6.164
 5364POPC   C1A68091   1.248  17.476   6.464
 5364POPC   D2A68092   1.222  17.517   6.764
 5364POPC   C3A68093   1.244  17.488   7.064
 5364POPC   C4A68094   1.250  17.458   7.364
 5364POPC   C1B68095   0.933  17.585   6.464
 5364POPC   C2B68096   0.974  17.586   6.764
 5364POPC   C3B68097   0.930  17.540   7.064
 5364POPC   C4B68098   0.939  17.566   7.364
 5365POPC   NC368099   5.119  42.291   5.564
 5365POPC   PO468100   5.116  42.380   5.864
 5365POPC   GL168101   5.110  42.312   6.164
 5365POPC   GL268102   4.970  42.275   6.164
 5365POPC   C1A68103   5.115  42.349   6.464
 5365POPC   D2A68104   5.080  42.337   6.764
 5365POPC   C3A68105   5.107  42.378   7.064
 5365POPC   C4A68106   5.120  42.335   7.364
 5365POPC   C1B68107   4.931  42.143   6.464
 5365POPC   C2B68108   4.946  42.173   6.764
 5365POPC   C3B68109   4.902  42.170   7.064
 5365POPC   C4B68110   4.897  42.163   7.364
 5366POPC   NC368111  38.479  26.008   5.564
 5366POPC   PO468112  38.458  26.050   5.864
 5366POPC   GL168113  38.464  26.002   6.164
 5366POPC   GL268114  38.529  26.194   6.164
 5366POPC   C1A68115  38.461  26.016   6.464
 5366POPC   D2A68116  38.469  26.041   6.764
 5366POPC   C3A68117  38.437  26.032   7.064
 5366POPC   C4A68118  38.481  26.018   7.364
 5366POPC   C1B68119  38.541  26.291   6.464
 5366POPC   C2B68120  38.533  26.246   6.764
 5366POPC   C3B68121  38.553  26.271   7.064
 5366POPC   C4B68122  38.573  26.320   7.364
 5367POPC   NC368123  15.925   7.456   5.564
 5367POPC   PO468124  15.995   7.430   5.864
 5367POPC   GL168125  15.984   7.382   6.164
 5367POPC   GL268126  16.122   7.413   6.164
 5367POPC   C1A68127  15.962   7.416   6.464
 5367POPC   D2A68128  15.939   7.374   6.764
 5367POPC   C3A68129  15.911   7.383   7.064
 5367POPC   C4A68130  15.917   7.395   7.364
 5367POPC   C1B68131  16.185   7.385   6.464
 5367POPC   C2B68132  16.162   7.442   6.764
 5367POPC   C3B68133  16.194   7.367   7.064
 5367POPC   C4B68134  16.253   7.433   7.364
 5368POPC   NC368135  10.544  12.053   5.564
 5368POPC   PO468136  10.536  12.122   5.864
 5368POPC   GL168137  10.499  12.068   6.164
 5368POPC   GL268138  10.383  11.991   6.164
 5368POPC   C1A68139  10.543  12.125   6.464
 5368POPC   D2A68140  10.569  12.046   6.764
 5368POPC   C3A68141  10.517  12.029   7.064
 5368POPC   C4A68142  10.573  12.065   7.364
 5368POPC   C1B68143  10.273  11.977   6.464
 5368POPC   C2B68144  10.317  11.897   6.764
 5368POPC   C3B68145  10.324  11.945   7.064
 5368POPC   C4B68146  10.325  11.933   7.364
 5369POPC   NC368147  12.815  20.587   5.564
 5369POPC   PO468148  12.870  20.603   5.864
 5369POPC   GL168149  12.822  20.587   6.164
 5369POPC   GL268150  12.709  20.571   6.164
 5369POPC   C1A68151  12.864  20.588   6.464
 5369POPC   D2A68152  12.812  20.644   6.764
 5369POPC   C3A68153  12.839  20.577   7.064
 5369POPC   C4A68154  12.883  20.647   7.364
 5369POPC   C1B68155  12.629  20.627   6.464
 5369POPC   C2B68156  12.639  20.558   6.764
 5369POPC   C3B68157  12.590  20.543   7.064
 5369POPC   C4B68158  12.569  20.598   7.364
 5370POPC   NC368159  31.511  27.596   5.564
 5370POPC   PO468160  31.464  27.568   5.864
 5370POPC   GL168161  31.461  27.613   6.164
 5370POPC   GL268162  31.431  27.684   6.164
 5370POPC   C1A68163  31.522  27.614   6.464
 5370POPC   D2A68164  31.456  27.580   6.764
 5370POPC   C3A68165  31.463  27.597   7.064
 5370POPC   C4A68166  31.472  27.591   7.364
 5370POPC   C1B68167  31.319  27.835   6.464
 5370POPC   C2B68168  31.401  27.839   6.764
 5370POPC   C3B68169  31.318  27.829   7.064
 5370POPC   C4B68170  31.355  27.807   7.364
 5371POPC   NC368171  27.570  14.439   5.564
 5371POPC   PO468172  27.611  14.364   5.864
 5371POPC   GL168173  27.599  14.362   6.164
 5371POPC   GL268174  27.676  14.458   6.164
 5371POPC   C1A68175  27.628  14.411   6.464
 5371POPC   D2A68176  27.571  14.373   6.764
 5371POPC   C3A68177  27.611  14.443   7.064
 5371POPC   C4A68178  27.637  14.404   7.364
 5371POPC   C1B68179  27.823  14.521   6.464
 5371POPC   C2B68180  27.792  14.516   6.764
 5371POPC   C3B68181  27.860  14.524   7.064
 5371POPC   C4B68182  27.847  14.541   7.364
 5372POPC   NC368183   8.151   3.577   5.564
 5372POPC   PO468184   8.214   3.536   5.864
 5372POPC   GL168185   8.209   3.555   6.164
 5372POPC   GL268186   8.179   3.626   6.164
 5372POPC   C1A68187   8.196   3.541   6.464
 5372POPC   D2A68188   8.196   3.506   6.764
 5372POPC   C3A68189   8.236   3.586   7.064
 5372POPC   C4A68190   8.231   3.569   7.364
 5372POPC   C1B68191   8.281   3.831   6.464
 5372POPC   C2B68192   8.228   3.822   6.764
 5372POPC   C3B68193   8.298   3.812   7.064
 5372POPC   C4B68194   8.268   3.747   7.364
 5373POPC   NC368195  33.805  11.341   5.564
 5373POPC   PO468196  33.793  11.280   5.864
 5373POPC   GL168197  33.752  11.282   6.164
 5373POPC   GL268198  33.674  11.380   6.164
 5373POPC   C1A68199  33.840  11.321   6.464
 5373POPC   D2A68200  33.769  11.265   6.764
 5373POPC   C3A68201  33.792  11.286   7.064
 5373POPC   C4A68202  33.781  11.250   7.364
 5373POPC   C1B68203  33.569  11.426   6.464
 5373POPC   C2B68204  33.583  11.414   6.764
 5373POPC   C3B68205  33.534  11.374   7.064
 5373POPC   C4B68206  33.603  11.410   7.364
 5374POPC   NC368207  32.222  38.474   5.564
 5374POPC   PO468208  32.255  38.430   5.864
 5374POPC   GL168209  32.226  38.464   6.164
 5374POPC   GL268210  32.207  38.309   6.164
 5374POPC   C1A68211  32.218  38.437   6.464
 5374POPC   D2A68212  32.243  38.460   6.764
 5374POPC   C3A68213  32.208  38.441   7.064
 5374POPC   C4A68214  32.293  38.446   7.364
 5374POPC   C1B68215  32.281  38.229   6.464
 5374POPC   C2B68216  32.212  38.203   6.764
 5374POPC   C3B68217  32.244  38.192   7.064
 5374POPC   C4B68218  32.247  38.183   7.364
 5375POPC   NC368219  38.407  15.941   5.564
 5375POPC   PO468220  38.475  15.956   5.864
 5375POPC   GL168221  38.447  15.981   6.164
 5375POPC   GL268222  38.373  15.876   6.164
 5375POPC   C1A68223  38.480  15.966   6.464
 5375POPC   D2A68224  38.463  15.906   6.764
 5375POPC   C3A68225  38.477  15.968   7.064
 5375POPC   C4A68226  38.489  15.964   7.364
 5375POPC   C1B68227  38.401  15.679   6.464
 5375POPC   C2B68228  38.432  15.722   6.764
 5375POPC   C3B68229  38.415  15.746   7.064
 5375POPC   C4B68230  38.410  15.671   7.364
 5376POPC   NC368231   1.985  23.711   5.564
 5376POPC   PO468232   2.035  23.690   5.864
 5376POPC   GL168233   1.970  23.692   6.164
 5376POPC   GL268234   1.938  23.645   6.164
 5376POPC   C1A68235   1.943  23.693   6.464
 5376POPC   D2A68236   1.955  23.698   6.764
 5376POPC   C3A68237   1.985  23.689   7.064
 5376POPC   C4A68238   2.019  23.736   7.364
 5376POPC   C1B68239   1.859  23.537   6.464
 5376POPC   C2B68240   1.886  23.488   6.764
 5376POPC   C3B68241   1.817  23.475   7.064
 5376POPC   C4B68242   1.874  23.499   7.364
 5377POPC   NC368243  33.053   6.614   5.564
 5377POPC   PO468244  32.986   6.610   5.864
 5377POPC   GL168245  33.001   6.657   6.164
 5377POPC   GL268246  32.987   6.764   6.164
 5377POPC   C1A68247  32.993   6.664   6.464
 5377POPC   D2A68248  33.010   6.615   6.764
 5377POPC   C3A68249  33.006   6.682   7.064
 5377POPC   C4A68250  33.048   6.619   7.364
 5377POPC   C1B68251  33.027   6.885   6.464
 5377POPC   C2B68252  32.992   6.891   6.764
 5377POPC   C3B68253  33.013   6.899   7.064
 5377POPC   C4B68254  32.984   6.868   7.364
 5378POPC   NC368255   0.473   7.461   5.564
 5378POPC   PO468256   0.414   7.385   5.864
 5378POPC   GL168257   0.399   7.447   6.164
 5378POPC   GL268258   0.321   7.399   6.164
 5378POPC   C1A68259   0.440   7.417   6.464
 5378POPC   D2A68260   0.425   7.457   6.764
 5378POPC   C3A68261   0.477   7.432   7.064
 5378POPC   C4A68262   0.428   7.372   7.364
 5378POPC   C1B68263   0.229   7.484   6.464
 5378POPC   C2B68264   0.159   7.443   6.764
 5378POPC   C3B68265   0.208   7.411   7.064
 5378POPC   C4B68266   0.186   7.418   7.364
 5379POPC   NC368267   8.177  14.407   5.564
 5379POPC   PO468268   8.243  14.418   5.864
 5379POPC   GL168269   8.169  14.450   6.164
 5379POPC   GL268270   8.091  14.373   6.164
 5379POPC   C1A68271   8.179  14.412   6.464
 5379POPC   D2A68272   8.246  14.419   6.764
 5379POPC   C3A68273   8.166  14.441   7.064
 5379POPC   C4A68274   8.173  14.386   7.364
 5379POPC   C1B68275   8.002  14.302   6.464
 5379POPC   C2B68276   7.939  14.291   6.764
 5379POPC   C3B68277   7.973  14.329   7.064
 5379POPC   C4B68278   8.010  14.308   7.364
 5380POPC   NC368279  24.488  19.798   5.564
 5380POPC   PO468280  24.450  19.827   5.864
 5380POPC   GL168281  24.517  19.788   6.164
 5380POPC   GL268282  24.475  19.750   6.164
 5380POPC   C1A68283  24.515  19.801   6.464
 5380POPC   D2A68284  24.509  19.793   6.764
 5380POPC   C3A68285  24.471  19.791   7.064
 5380POPC   C4A68286  24.470  19.852   7.364
 5380POPC   C1B68287  24.429  19.622   6.464
 5380POPC   C2B68288  24.391  19.611   6.764
 5380POPC   C3B68289  24.382  19.552   7.064
 5380POPC   C4B68290  24.471  19.633   7.364
 5381POPC   NC368291  26.853   3.569   5.564
 5381POPC   PO468292  26.782   3.495   5.864
 5381POPC   GL168293  26.840   3.533   6.164
 5381POPC   GL268294  26.691   3.450   6.164
 5381POPC   C1A68295  26.808   3.504   6.464
 5381POPC   D2A68296  26.847   3.590   6.764
 5381POPC   C3A68297  26.867   3.509   7.064
 5381POPC   C4A68298  26.797   3.527   7.364
 5381POPC   C1B68299  26.603   3.377   6.464
 5381POPC   C2B68300  26.641   3.398   6.764
 5381POPC   C3B68301  26.695   3.362   7.064
 5381POPC   C4B68302  26.608   3.399   7.364
 5382POPC   NC368303  23.718   6.613   5.564
 5382POPC   PO468304  23.706   6.633   5.864
 5382POPC   GL168305  23.675   6.672   6.164
 5382POPC   GL268306  23.776   6.744   6.164
 5382POPC   C1A68307  23.685   6.651   6.464
 5382POPC   D2A68308  23.718   6.627   6.764
 5382POPC   C3A68309  23.724   6.648   7.064
 5382POPC   C4A68310  23.692   6.635   7.364
 5382POPC   C1B68311  23.744   6.864   6.464
 5382POPC   C2B68312  23.718   6.937   6.764
 5382POPC   C3B68313  23.790   6.921   7.064
 5382POPC   C4B68314  23.723   6.916   7.364
 5383POPC   NC368315  10.565  12.857   5.564
 5383POPC   PO468316  10.528  12.819   5.864
 5383POPC   GL168317  10.493  12.847   6.164
 5383POPC   GL268318  10.581  12.998   6.164
 5383POPC   C1A68319  10.521  12.829   6.464
 5383POPC   D2A68320  10.574  12.898   6.764
 5383POPC   C3A68321  10.562  12.807   7.064
 5383POPC   C4A68322  10.563  12.875   7.364
 5383POPC   C1B68323  10.564  13.104   6.464
 5383POPC   C2B68324  10.579  13.121   6.764
 5383POPC   C3B68325  10.555  13.142   7.064
 5383POPC   C4B68326  10.556  13.102   7.364
 5384POPC   NC368327  36.922  12.840   5.564
 5384POPC   PO468328  36.902  12.826   5.864
 5384POPC   GL168329  36.952  12.819   6.164
 5384POPC   GL268330  36.815  12.902   6.164
 5384POPC   C1A68331  36.914  12.819   6.464
 5384POPC   D2A68332  36.888  12.818   6.764
 5384POPC   C3A68333  36.952  12.803   7.064
 5384POPC   C4A68334  36.952  12.886   7.364
 5384POPC   C1B68335  36.659  12.826   6.464
 5384POPC   C2B68336  36.677  12.868   6.764
 5384POPC   C3B68337  36.693  12.856   7.064
 5384POPC   C4B68338  36.655  12.872   7.364
 5385POPC   NC368339  19.826  34.563   5.564
 5385POPC   PO468340  19.884  34.605   5.864
 5385POPC   GL168341  19.825  34.610   6.164
 5385POPC   GL268342  19.902  34.707   6.164
 5385POPC   C1A68343  19.843  34.569   6.464
 5385POPC   D2A68344  19.829  34.570   6.764
 5385POPC   C3A68345  19.806  34.598   7.064
 5385POPC   C4A68346  19.802  34.572   7.364
 5385POPC   C1B68347  20.072  34.761   6.464
 5385POPC   C2B68348  20.069  34.779   6.764
 5385POPC   C3B68349  20.063  34.711   7.064
 5385POPC   C4B68350  20.053  34.774   7.364
 5386POPC   NC368351  33.047  40.009   5.564
 5386POPC   PO468352  33.043  39.957   5.864
 5386POPC   GL168353  33.040  39.968   6.164
 5386POPC   GL268354  33.037  40.174   6.164
 5386POPC   C1A68355  33.051  40.038   6.464
 5386POPC   D2A68356  32.984  40.015   6.764
 5386POPC   C3A68357  32.981  40.004   7.064
 5386POPC   C4A68358  33.056  39.962   7.364
 5386POPC   C1B68359  32.934  40.232   6.464
 5386POPC   C2B68360  32.936  40.236   6.764
 5386POPC   C3B68361  32.969  40.288   7.064
 5386POPC   C4B68362  32.934  40.219   7.364
 5387POPC   NC368363  31.426  43.895   5.564
 5387POPC   PO468364  31.428  43.885   5.864
 5387POPC   GL168365  31.462  43.923   6.164
 5387POPC   GL268366  31.517  43.780   6.164
 5387POPC   C1A68367  31.447  43.909   6.464
 5387POPC   D2A68368  31.466  43.851   6.764
 5387POPC   C3A68369  31.451  43.936   7.064
 5387POPC   C4A68370  31.484  43.864   7.364
 5387POPC   C1B68371  31.535  43.666   6.464
 5387POPC   C2B68372  31.590  43.696   6.764
 5387POPC   C3B68373  31.564  43.705   7.064
 5387POPC   C4B68374  31.622  43.645   7.364
 5388POPC   NC368375  18.288   4.326   5.564
 5388POPC   PO468376  18.249   4.351   5.864
 5388POPC   GL168377  18.312   4.293   6.164
 5388POPC   GL268378  18.244   4.483   6.164
 5388POPC   C1A68379  18.315   4.280   6.464
 5388POPC   D2A68380  18.267   4.288   6.764
 5388POPC   C3A68381  18.286   4.346   7.064
 5388POPC   C4A68382  18.300   4.283   7.364
 5388POPC   C1B68383  18.294   4.581   6.464
 5388POPC   C2B68384  18.291   4.576   6.764
 5388POPC   C3B68385  18.314   4.520   7.064
 5388POPC   C4B68386  18.278   4.571   7.364
 5389POPC   NC368387  33.787   5.045   5.564
 5389POPC   PO468388  33.775   5.046   5.864
 5389POPC   GL168389  33.834   5.122   6.164
 5389POPC   GL268390  33.823   5.214   6.164
 5389POPC   C1A68391  33.783   5.109   6.464
 5389POPC   D2A68392  33.814   5.122   6.764
 5389POPC   C3A68393  33.754   5.061   7.064
 5389POPC   C4A68394  33.815   5.090   7.364
 5389POPC   C1B68395  33.895   5.353   6.464
 5389POPC   C2B68396  33.903   5.382   6.764
 5389POPC   C3B68397  33.836   5.380   7.064
 5389POPC   C4B68398  33.874   5.348   7.364
 5390POPC   NC368399  25.287  32.247   5.564
 5390POPC   PO468400  25.268  32.260   5.864
 5390POPC   GL168401  25.271  32.202   6.164
 5390POPC   GL268402  25.248  32.344   6.164
 5390POPC   C1A68403  25.249  32.261   6.464
 5390POPC   D2A68404  25.233  32.296   6.764
 5390POPC   C3A68405  25.236  32.290   7.064
 5390POPC   C4A68406  25.289  32.267   7.364
 5390POPC   C1B68407  25.265  32.477   6.464
 5390POPC   C2B68408  25.202  32.495   6.764
 5390POPC   C3B68409  25.184  32.479   7.064
 5390POPC   C4B68410  25.222  32.508   7.364
 5391POPC   NC368411  32.280  14.410   5.564
 5391POPC   PO468412  32.289  14.368   5.864
 5391POPC   GL168413  32.227  14.377   6.164
 5391POPC   GL268414  32.109  14.365   6.164
 5391POPC   C1A68415  32.268  14.364   6.464
 5391POPC   D2A68416  32.220  14.430   6.764
 5391POPC   C3A68417  32.277  14.434   7.064
 5391POPC   C4A68418  32.212  14.390   7.364
 5391POPC   C1B68419  32.062  14.275   6.464
 5391POPC   C2B68420  32.001  14.305   6.764
 5391POPC   C3B68421  32.047  14.304   7.064
 5391POPC   C4B68422  32.020  14.317   7.364
 5392POPC   NC368423  36.916  40.790   5.564
 5392POPC   PO468424  36.890  40.828   5.864
 5392POPC   GL168425  36.904  40.779   6.164
 5392POPC   GL268426  36.881  40.869   6.164
 5392POPC   C1A68427  36.947  40.736   6.464
 5392POPC   D2A68428  36.909  40.762   6.764
 5392POPC   C3A68429  36.948  40.760   7.064
 5392POPC   C4A68430  36.937  40.750   7.364
 5392POPC   C1B68431  36.954  41.041   6.464
 5392POPC   C2B68432  36.913  41.025   6.764
 5392POPC   C3B68433  36.950  41.020   7.064
 5392POPC   C4B68434  36.990  41.064   7.364
 5393POPC   NC368435  36.115  20.644   5.564
 5393POPC   PO468436  36.105  20.597   5.864
 5393POPC   GL168437  36.105  20.625   6.164
 5393POPC   GL268438  36.127  20.443   6.164
 5393POPC   C1A68439  36.098  20.573   6.464
 5393POPC   D2A68440  36.106  20.613   6.764
 5393POPC   C3A68441  36.098  20.587   7.064
 5393POPC   C4A68442  36.160  20.561   7.364
 5393POPC   C1B68443  36.073  20.314   6.464
 5393POPC   C2B68444  36.130  20.402   6.764
 5393POPC   C3B68445  36.084  20.385   7.064
 5393POPC   C4B68446  36.163  20.363   7.364
 5394POPC   NC368447  16.743  32.264   5.564
 5394POPC   PO468448  16.735  32.256   5.864
 5394POPC   GL168449  16.723  32.288   6.164
 5394POPC   GL268450  16.710  32.370   6.164
 5394POPC   C1A68451  16.727  32.241   6.464
 5394POPC   D2A68452  16.727  32.252   6.764
 5394POPC   C3A68453  16.702  32.239   7.064
 5394POPC   C4A68454  16.694  32.238   7.364
 5394POPC   C1B68455  16.681  32.436   6.464
 5394POPC   C2B68456  16.634  32.514   6.764
 5394POPC   C3B68457  16.624  32.445   7.064
 5394POPC   C4B68458  16.625  32.528   7.364
 5395POPC   NC368459  41.556  29.913   5.564
 5395POPC   PO468460  41.528  29.923   5.864
 5395POPC   GL168461  41.586  29.958   6.164
 5395POPC   GL268462  41.634  29.922   6.164
 5395POPC   C1A68463  41.523  29.952   6.464
 5395POPC   D2A68464  41.518  29.935   6.764
 5395POPC   C3A68465  41.576  29.965   7.064
 5395POPC   C4A68466  41.595  29.887   7.364
 5395POPC   C1B68467  41.825  29.932   6.464
 5395POPC   C2B68468  41.843  29.912   6.764
 5395POPC   C3B68469  41.796  29.908   7.064
 5395POPC   C4B68470  41.811  29.859   7.364
 5396POPC   NC368471  39.971   9.759   5.564
 5396POPC   PO468472  39.995   9.713   5.864
 5396POPC   GL168473  40.054   9.757   6.164
 5396POPC   GL268474  40.061   9.678   6.164
 5396POPC   C1A68475  39.993   9.756   6.464
 5396POPC   D2A68476  40.037   9.707   6.764
 5396POPC   C3A68477  40.039   9.728   7.064
 5396POPC   C4A68478  39.997   9.751   7.364
 5396POPC   C1B68479  40.213   9.540   6.464
 5396POPC   C2B68480  40.228   9.622   6.764
 5396POPC   C3B68481  40.199   9.561   7.064
 5396POPC   C4B68482  40.210   9.611   7.364
 5397POPC   NC368483  16.691  29.158   5.564
 5397POPC   PO468484  16.711  29.160   5.864
 5397POPC   GL168485  16.734  29.146   6.164
 5397POPC   GL268486  16.823  29.236   6.164
 5397POPC   C1A68487  16.762  29.149   6.464
 5397POPC   D2A68488  16.749  29.184   6.764
 5397POPC   C3A68489  16.728  29.156   7.064
 5397POPC   C4A68490  16.720  29.119   7.364
 5397POPC   C1B68491  16.966  29.275   6.464
 5397POPC   C2B68492  16.972  29.256   6.764
 5397POPC   C3B68493  16.913  29.262   7.064
 5397POPC   C4B68494  16.912  29.252   7.364
 5398POPC   NC368495  39.201  28.329   5.564
 5398POPC   PO468496  39.269  28.347   5.864
 5398POPC   GL168497  39.187  28.390   6.164
 5398POPC   GL268498  39.305  28.279   6.164
 5398POPC   C1A68499  39.264  28.386   6.464
 5398POPC   D2A68500  39.187  28.341   6.764
 5398POPC   C3A68501  39.259  28.411   7.064
 5398POPC   C4A68502  39.190  28.374   7.364
 5398POPC   C1B68503  39.441  28.289   6.464
 5398POPC   C2B68504  39.488  28.275   6.764
 5398POPC   C3B68505  39.469  28.248   7.064
 5398POPC   C4B68506  39.514  28.300   7.364
 5399POPC   NC368507  41.558   3.514   5.564
 5399POPC   PO468508  41.572   3.585   5.864
 5399POPC   GL168509  41.546   3.493   6.164
 5399POPC   GL268510  41.523   3.385   6.164
 5399POPC   C1A68511  41.585   3.494   6.464
 5399POPC   D2A68512  41.517   3.496   6.764
 5399POPC   C3A68513  41.571   3.560   7.064
 5399POPC   C4A68514  41.558   3.545   7.364
 5399POPC   C1B68515  41.608   3.272   6.464
 5399POPC   C2B68516  41.527   3.256   6.764
 5399POPC   C3B68517  41.525   3.313   7.064
 5399POPC   C4B68518  41.620   3.327   7.364
 5400POPC   NC368519  35.311  19.850   5.564
 5400POPC   PO468520  35.315  19.853   5.864
 5400POPC   GL168521  35.308  19.862   6.164
 5400POPC   GL268522  35.291  19.869   6.164
 5400POPC   C1A68523  35.329  19.827   6.464
 5400POPC   D2A68524  35.380  19.848   6.764
 5400POPC   C3A68525  35.345  19.867   7.064
 5400POPC   C4A68526  35.345  19.799   7.364
 5400POPC   C1B68527  35.187  19.979   6.464
 5400POPC   C2B68528  35.191  19.941   6.764
 5400POPC   C3B68529  35.204  19.940   7.064
 5400POPC   C4B68530  35.127  20.012   7.364
 5401POPC   NC368531   9.708  38.466   5.564
 5401POPC   PO468532   9.751  38.479   5.864
 5401POPC   GL168533   9.756  38.493   6.164
 5401POPC   GL268534   9.780  38.543   6.164
 5401POPC   C1A68535   9.737  38.459   6.464
 5401POPC   D2A68536   9.778  38.423   6.764
 5401POPC   C3A68537   9.791  38.417   7.064
 5401POPC   C4A68538   9.765  38.453   7.364
 5401POPC   C1B68539   9.768  38.687   6.464
 5401POPC   C2B68540   9.806  38.732   6.764
 5401POPC   C3B68541   9.823  38.744   7.064
 5401POPC   C4B68542   9.824  38.657   7.364
 5402POPC   NC368543  32.257  39.182   5.564
 5402POPC   PO468544  32.277  39.252   5.864
 5402POPC   GL168545  32.274  39.263   6.164
 5402POPC   GL268546  32.107  39.214   6.164
 5402POPC   C1A68547  32.222  39.277   6.464
 5402POPC   D2A68548  32.283  39.250   6.764
 5402POPC   C3A68549  32.233  39.230   7.064
 5402POPC   C4A68550  32.260  39.268   7.364
 5402POPC   C1B68551  32.006  39.131   6.464
 5402POPC   C2B68552  32.047  39.166   6.764
 5402POPC   C3B68553  31.972  39.086   7.064
 5402POPC   C4B68554  32.053  39.131   7.364
 5403POPC   NC368555  35.398  44.626   5.564
 5403POPC   PO468556  35.395  44.623   5.864
 5403POPC   GL168557  35.394  44.618   6.164
 5403POPC   GL268558  35.303  44.756   6.164
 5403POPC   C1A68559  35.383  44.692   6.464
 5403POPC   D2A68560  35.366  44.681   6.764
 5403POPC   C3A68561  35.396  44.689   7.064
 5403POPC   C4A68562  35.312  44.649   7.364
 5403POPC   C1B68563  35.160  44.897   6.464
 5403POPC   C2B68564  35.202  44.842   6.764
 5403POPC   C3B68565  35.201  44.901   7.064
 5403POPC   C4B68566  35.168  44.895   7.364
 5404POPC   NC368567  14.440  22.204   5.564
 5404POPC   PO468568  14.370  22.205   5.864
 5404POPC   GL168569  14.394  22.128   6.164
 5404POPC   GL268570  14.294  22.201   6.164
 5404POPC   C1A68571  14.366  22.152   6.464
 5404POPC   D2A68572  14.375  22.151   6.764
 5404POPC   C3A68573  14.427  22.191   7.064
 5404POPC   C4A68574  14.415  22.146   7.364
 5404POPC   C1B68575  14.182  22.161   6.464
 5404POPC   C2B68576  14.190  22.164   6.764
 5404POPC   C3B68577  14.194  22.115   7.064
 5404POPC   C4B68578  14.139  22.120   7.364
 5405POPC   NC368579  20.570  34.548   5.564
 5405POPC   PO468580  20.634  34.600   5.864
 5405POPC   GL168581  20.658  34.553   6.164
 5405POPC   GL268582  20.441  34.533   6.164
 5405POPC   C1A68583  20.601  34.558   6.464
 5405POPC   D2A68584  20.660  34.614   6.764
 5405POPC   C3A68585  20.626  34.573   7.064
 5405POPC   C4A68586  20.599  34.547   7.364
 5405POPC   C1B68587  20.381  34.600   6.464
 5405POPC   C2B68588  20.350  34.525   6.764
 5405POPC   C3B68589  20.348  34.604   7.064
 5405POPC   C4B68590  20.376  34.570   7.364
 5406POPC   NC368591  31.443   1.203   5.564
 5406POPC   PO468592  31.485   1.231   5.864
 5406POPC   GL168593  31.438   1.171   6.164
 5406POPC   GL268594  31.364   1.215   6.164
 5406POPC   C1A68595  31.454   1.236   6.464
 5406POPC   D2A68596  31.455   1.245   6.764
 5406POPC   C3A68597  31.505   1.252   7.064
 5406POPC   C4A68598  31.465   1.208   7.364
 5406POPC   C1B68599  31.228   1.234   6.464
 5406POPC   C2B68600  31.241   1.208   6.764
 5406POPC   C3B68601  31.249   1.184   7.064
 5406POPC   C4B68602  31.223   1.240   7.364
 5407POPC   NC368603   1.182  43.906   5.564
 5407POPC   PO468604   1.230  43.892   5.864
 5407POPC   GL168605   1.252  43.894   6.164
 5407POPC   GL268606   1.106  43.790   6.164
 5407POPC   C1A68607   1.193  43.893   6.464
 5407POPC   D2A68608   1.220  43.839   6.764
 5407POPC   C3A68609   1.178  43.870   7.064
 5407POPC   C4A68610   1.216  43.908   7.364
 5407POPC   C1B68611   0.972  43.739   6.464
 5407POPC   C2B68612   1.035  43.803   6.764
 5407POPC   C3B68613   1.019  43.739   7.064
 5407POPC   C4B68614   0.949  43.763   7.364
 5408POPC   NC368615  39.219   5.141   5.564
 5408POPC   PO468616  39.187   5.089   5.864
 5408POPC   GL168617  39.235   5.052   6.164
 5408POPC   GL268618  39.071   5.104   6.164
 5408POPC   C1A68619  39.255   5.127   6.464
 5408POPC   D2A68620  39.276   5.136   6.764
 5408POPC   C3A68621  39.281   5.124   7.064
 5408POPC   C4A68622  39.241   5.127   7.364
 5408POPC   C1B68623  39.049   5.205   6.464
 5408POPC   C2B68624  39.050   5.260   6.764
 5408POPC   C3B68625  39.016   5.167   7.064
 5408POPC   C4B68626  39.009   5.233   7.364
 5409POPC   NC368627  34.579  24.527   5.564
 5409POPC   PO468628  34.547  24.517   5.864
 5409POPC   GL168629  34.615  24.446   6.164
 5409POPC   GL268630  34.631  24.541   6.164
 5409POPC   C1A68631  34.593  24.534   6.464
 5409POPC   D2A68632  34.618  24.508   6.764
 5409POPC   C3A68633  34.621  24.473   7.064
 5409POPC   C4A68634  34.605  24.495   7.364
 5409POPC   C1B68635  34.780  24.616   6.464
 5409POPC   C2B68636  34.756  24.597   6.764
 5409POPC   C3B68637  34.802  24.666   7.064
 5409POPC   C4B68638  34.723  24.662   7.364
 5410POPC   NC368639  12.895  19.019   5.564
 5410POPC   PO468640  12.834  19.086   5.864
 5410POPC   GL168641  12.874  19.053   6.164
 5410POPC   GL268642  12.997  19.060   6.164
 5410POPC   C1A68643  12.825  19.011   6.464
 5410POPC   D2A68644  12.888  19.075   6.764
 5410POPC   C3A68645  12.830  19.010   7.064
 5410POPC   C4A68646  12.845  19.068   7.364
 5410POPC   C1B68647  13.132  19.049   6.464
 5410POPC   C2B68648  13.077  19.036   6.764
 5410POPC   C3B68649  13.104  18.988   7.064
 5410POPC   C4B68650  13.066  19.042   7.364
 5411POPC   NC368651  19.011  16.718   5.564
 5411POPC   PO468652  19.018  16.746   5.864
 5411POPC   GL168653  19.032  16.758   6.164
 5411POPC   GL268654  18.949  16.742   6.164
 5411POPC   C1A68655  19.061  16.776   6.464
 5411POPC   D2A68656  19.042  16.774   6.764
 5411POPC   C3A68657  19.055  16.780   7.064
 5411POPC   C4A68658  19.045  16.778   7.364
 5411POPC   C1B68659  18.761  16.722   6.464
 5411POPC   C2B68660  18.842  16.691   6.764
 5411POPC   C3B68661  18.784  16.715   7.064
 5411POPC   C4B68662  18.815  16.721   7.364
 5412POPC   NC368663  29.875  29.114   5.564
 5412POPC   PO468664  29.896  29.168   5.864
 5412POPC   GL168665  29.883  29.191   6.164
 5412POPC   GL268666  30.026  29.012   6.164
 5412POPC   C1A68667  29.937  29.128   6.464
 5412POPC   D2A68668  29.889  29.193   6.764
 5412POPC   C3A68669  29.918  29.141   7.064
 5412POPC   C4A68670  29.930  29.139   7.364
 5412POPC   C1B68671  30.050  28.976   6.464
 5412POPC   C2B68672  30.103  28.974   6.764
 5412POPC   C3B68673  30.131  28.990   7.064
 5412POPC   C4B68674  30.100  28.938   7.364
 5413POPC   NC368675   8.962  16.705   5.564
 5413POPC   PO468676   9.014  16.762   5.864
 5413POPC   GL168677   8.950  16.728   6.164
 5413POPC   GL268678   8.867  16.629   6.164
 5413POPC   C1A68679   8.997  16.686   6.464
 5413POPC   D2A68680   8.951  16.730   6.764
 5413POPC   C3A68681   8.933  16.762   7.064
 5413POPC   C4A68682   8.969  16.779   7.364
 5413POPC   C1B68683   8.787  16.543   6.464
 5413POPC   C2B68684   8.880  16.516   6.764
 5413POPC   C3B68685   8.822  16.508   7.064
 5413POPC   C4B68686   8.823  16.541   7.364
 5414POPC   NC368687  32.296  22.968   5.564
 5414POPC   PO468688  32.246  22.913   5.864
 5414POPC   GL168689  32.232  22.983   6.164
 5414POPC   GL268690  32.302  23.027   6.164
 5414POPC   C1A68691  32.234  22.958   6.464
 5414POPC   D2A68692  32.231  22.980   6.764
 5414POPC   C3A68693  32.292  22.942   7.064
 5414POPC   C4A68694  32.244  22.897   7.364
 5414POPC   C1B68695  32.280  23.136   6.464
 5414POPC   C2B68696  32.330  23.224   6.764
 5414POPC   C3B68697  32.293  23.214   7.064
 5414POPC   C4B68698  32.303  23.207   7.364
 5415POPC   NC368699  37.677  33.756   5.564
 5415POPC   PO468700  37.641  33.761   5.864
 5415POPC   GL168701  37.726  33.779   6.164
 5415POPC   GL268702  37.716  33.896   6.164
 5415POPC   C1A68703  37.694  33.838   6.464
 5415POPC   D2A68704  37.706  33.769   6.764
 5415POPC   C3A68705  37.722  33.805   7.064
 5415POPC   C4A68706  37.651  33.775   7.364
 5415POPC   C1B68707  37.702  34.015   6.464
 5415POPC   C2B68708  37.709  34.051   6.764
 5415POPC   C3B68709  37.717  34.068   7.064
 5415POPC   C4B68710  37.726  34.039   7.364
 5416POPC   NC368711  18.251  41.518   5.564
 5416POPC   PO468712  18.329  41.525   5.864
 5416POPC   GL168713  18.291  41.526   6.164
 5416POPC   GL268714  18.199  41.614   6.164
 5416POPC   C1A68715  18.315  41.603   6.464
 5416POPC   D2A68716  18.247  41.556   6.764
 5416POPC   C3A68717  18.292  41.566   7.064
 5416POPC   C4A68718  18.269  41.540   7.364
 5416POPC   C1B68719  18.045  41.691   6.464
 5416POPC   C2B68720  18.129  41.722   6.764
 5416POPC   C3B68721  18.118  41.694   7.064
 5416POPC   C4B68722  18.136  41.730   7.364
 5417POPC   NC368723   8.206  26.781   5.564
 5417POPC   PO468724   8.219  26.786   5.864
 5417POPC   GL168725   8.160  26.793   6.164
 5417POPC   GL268726   8.338  26.840   6.164
 5417POPC   C1A68727   8.161  26.778   6.464
 5417POPC   D2A68728   8.190  26.797   6.764
 5417POPC   C3A68729   8.200  26.845   7.064
 5417POPC   C4A68730   8.172  26.840   7.364
 5417POPC   C1B68731   8.472  26.899   6.464
 5417POPC   C2B68732   8.404  26.934   6.764
 5417POPC   C3B68733   8.432  26.964   7.064
 5417POPC   C4B68734   8.376  26.930   7.364
 5418POPC   NC368735  22.137  27.623   5.564
 5418POPC   PO468736  22.121  27.606   5.864
 5418POPC   GL168737  22.200  27.609   6.164
 5418POPC   GL268738  22.211  27.450   6.164
 5418POPC   C1A68739  22.196  27.626   6.464
 5418POPC   D2A68740  22.206  27.604   6.764
 5418POPC   C3A68741  22.154  27.581   7.064
 5418POPC   C4A68742  22.172  27.610   7.364
 5418POPC   C1B68743  22.259  27.362   6.464
 5418POPC   C2B68744  22.206  27.357   6.764
 5418POPC   C3B68745  22.288  27.381   7.064
 5418POPC   C4B68746  22.283  27.342   7.364
 5419POPC   NC368747  43.887   1.964   5.564
 5419POPC   PO468748  43.861   1.970   5.864
 5419POPC   GL168749  43.866   2.001   6.164
 5419POPC   GL268750  43.752   1.969   6.164
 5419POPC   C1A68751  43.917   2.034   6.464
 5419POPC   D2A68752  43.860   1.967   6.764
 5419POPC   C3A68753  43.836   1.953   7.064
 5419POPC   C4A68754  43.856   2.027   7.364
 5419POPC   C1B68755  43.709   1.889   6.464
 5419POPC   C2B68756  43.695   1.854   6.764
 5419POPC   C3B68757  43.663   1.896   7.064
 5419POPC   C4B68758  43.728   1.828   7.364
 5420POPC   NC368759  20.653   2.784   5.564
 5420POPC   PO468760  20.561   2.730   5.864
 5420POPC   GL168761  20.566   2.788   6.164
 5420POPC   GL268762  20.532   2.756   6.164
 5420POPC   C1A68763  20.597   2.790   6.464
 5420POPC   D2A68764  20.584   2.744   6.764
 5420POPC   C3A68765  20.617   2.734   7.064
 5420POPC   C4A68766  20.659   2.785   7.364
 5420POPC   C1B68767  20.357   2.726   6.464
 5420POPC   C2B68768  20.416   2.730   6.764
 5420POPC   C3B68769  20.369   2.730   7.064
 5420POPC   C4B68770  20.362   2.729   7.364
 5421POPC   NC368771  15.949   8.224   5.564
 5421POPC   PO468772  15.987   8.220   5.864
 5421POPC   GL168773  15.962   8.204   6.164
 5421POPC   GL268774  15.894   8.106   6.164
 5421POPC   C1A68775  15.942   8.180   6.464
 5421POPC   D2A68776  15.919   8.234   6.764
 5421POPC   C3A68777  15.914   8.203   7.064
 5421POPC   C4A68778  15.965   8.212   7.364
 5421POPC   C1B68779  15.924   7.987   6.464
 5421POPC   C2B68780  15.924   7.946   6.764
 5421POPC   C3B68781  15.917   7.902   7.064
 5421POPC   C4B68782  15.881   7.919   7.364
 5422POPC   NC368783   8.943  26.010   5.564
 5422POPC   PO468784   8.924  26.084   5.864
 5422POPC   GL168785   8.948  26.055   6.164
 5422POPC   GL268786   9.047  25.886   6.164
 5422POPC   C1A68787   9.011  26.009   6.464
 5422POPC   D2A68788   9.020  26.062   6.764
 5422POPC   C3A68789   8.965  26.042   7.064
 5422POPC   C4A68790   9.004  26.066   7.364
 5422POPC   C1B68791   9.035  25.756   6.464
 5422POPC   C2B68792   9.047  25.770   6.764
 5422POPC   C3B68793   9.000  25.777   7.064
 5422POPC   C4B68794   8.979  25.805   7.364
 5423POPC   NC368795  41.509  27.558   5.564
 5423POPC   PO468796  41.540  27.559   5.864
 5423POPC   GL168797  41.564  27.587   6.164
 5423POPC   GL268798  41.625  27.554   6.164
 5423POPC   C1A68799  41.516  27.560   6.464
 5423POPC   D2A68800  41.595  27.587   6.764
 5423POPC   C3A68801  41.596  27.632   7.064
 5423POPC   C4A68802  41.567  27.617   7.364
 5423POPC   C1B68803  41.718  27.452   6.464
 5423POPC   C2B68804  41.758  27.406   6.764
 5423POPC   C3B68805  41.714  27.493   7.064
 5423POPC   C4B68806  41.769  27.440   7.364
 5424POPC   NC368807  22.171  24.457   5.564
 5424POPC   PO468808  22.172  24.472   5.864
 5424POPC   GL168809  22.208  24.496   6.164
 5424POPC   GL268810  22.281  24.531   6.164
 5424POPC   C1A68811  22.161  24.463   6.464
 5424POPC   D2A68812  22.193  24.442   6.764
 5424POPC   C3A68813  22.161  24.458   7.064
 5424POPC   C4A68814  22.159  24.494   7.364
 5424POPC   C1B68815  22.374  24.510   6.464
 5424POPC   C2B68816  22.391  24.586   6.764
 5424POPC   C3B68817  22.422  24.511   7.064
 5424POPC   C4B68818  22.443  24.555   7.364
 5425POPC   NC368819   6.644  13.644   5.564
 5425POPC   PO468820   6.694  13.626   5.864
 5425POPC   GL168821   6.680  13.641   6.164
 5425POPC   GL268822   6.592  13.512   6.164
 5425POPC   C1A68823   6.688  13.607   6.464
 5425POPC   D2A68824   6.687  13.644   6.764
 5425POPC   C3A68825   6.647  13.614   7.064
 5425POPC   C4A68826   6.613  13.675   7.364
 5425POPC   C1B68827   6.523  13.448   6.464
 5425POPC   C2B68828   6.511  13.448   6.764
 5425POPC   C3B68829   6.501  13.428   7.064
 5425POPC   C4B68830   6.511  13.451   7.364
 5426POPC   NC368831  36.863   9.727   5.564
 5426POPC   PO468832  36.879   9.775   5.864
 5426POPC   GL168833  36.864   9.714   6.164
 5426POPC   GL268834  36.938   9.836   6.164
 5426POPC   C1A68835  36.900   9.778   6.464
 5426POPC   D2A68836  36.942   9.753   6.764
 5426POPC   C3A68837  36.941   9.721   7.064
 5426POPC   C4A68838  36.917   9.783   7.364
 5426POPC   C1B68839  36.980   9.947   6.464
 5426POPC   C2B68840  37.054   9.986   6.764
 5426POPC   C3B68841  36.989   9.933   7.064
 5426POPC   C4B68842  37.023   9.992   7.364
 5427POPC   NC368843  38.489  30.653   5.564
 5427POPC   PO468844  38.435  30.734   5.864
 5427POPC   GL168845  38.490  30.696   6.164
 5427POPC   GL268846  38.564  30.732   6.164
 5427POPC   C1A68847  38.505  30.671   6.464
 5427POPC   D2A68848  38.411  30.647   6.764
 5427POPC   C3A68849  38.449  30.738   7.064
 5427POPC   C4A68850  38.409  30.693   7.364
 5427POPC   C1B68851  38.651  30.775   6.464
 5427POPC   C2B68852  38.688  30.751   6.764
 5427POPC   C3B68853  38.650  30.782   7.064
 5427POPC   C4B68854  38.732  30.802   7.364
 5428POPC   NC368855  25.263  43.881   5.564
 5428POPC   PO468856  25.289  43.879   5.864
 5428POPC   GL168857  25.298  43.839   6.164
 5428POPC   GL268858  25.255  43.785   6.164
 5428POPC   C1A68859  25.305  43.929   6.464
 5428POPC   D2A68860  25.274  43.852   6.764
 5428POPC   C3A68861  25.279  43.916   7.064
 5428POPC   C4A68862  25.249  43.903   7.364
 5428POPC   C1B68863  25.384  43.657   6.464
 5428POPC   C2B68864  25.318  43.607   6.764
 5428POPC   C3B68865  25.312  43.621   7.064
 5428POPC   C4B68866  25.306  43.673   7.364
 5429POPC   NC368867  20.648  29.133   5.564
 5429POPC   PO468868  20.587  29.140   5.864
 5429POPC   GL168869  20.575  29.130   6.164
 5429POPC   GL268870  20.740  29.133   6.164
 5429POPC   C1A68871  20.618  29.168   6.464
 5429POPC   D2A68872  20.607  29.125   6.764
 5429POPC   C3A68873  20.579  29.192   7.064
 5429POPC   C4A68874  20.561  29.190   7.364
 5429POPC   C1B68875  20.822  29.140   6.464
 5429POPC   C2B68876  20.884  29.110   6.764
 5429POPC   C3B68877  20.904  29.084   7.064
 5429POPC   C4B68878  20.809  29.081   7.364
 5430POPC   NC368879  16.693  36.937   5.564
 5430POPC   PO468880  16.752  36.887   5.864
 5430POPC   GL168881  16.681  36.862   6.164
 5430POPC   GL268882  16.850  36.978   6.164
 5430POPC   C1A68883  16.761  36.918   6.464
 5430POPC   D2A68884  16.696  36.911   6.764
 5430POPC   C3A68885  16.736  36.944   7.064
 5430POPC   C4A68886  16.771  36.874   7.364
 5430POPC   C1B68887  16.899  37.025   6.464
 5430POPC   C2B68888  16.910  37.011   6.764
 5430POPC   C3B68889  16.959  37.088   7.064
 5430POPC   C4B68890  16.909  37.036   7.364
 5431POPC   NC368891  24.534  22.896   5.564
 5431POPC   PO468892  24.476  22.943   5.864
 5431POPC   GL168893  24.526  22.896   6.164
 5431POPC   GL268894  24.382  22.977   6.164
 5431POPC   C1A68895  24.458  22.905   6.464
 5431POPC   D2A68896  24.443  22.956   6.764
 5431POPC   C3A68897  24.446  22.932   7.064
 5431POPC   C4A68898  24.457  22.907   7.364
 5431POPC   C1B68899  24.261  22.974   6.464
 5431POPC   C2B68900  24.209  23.058   6.764
 5431POPC   C3B68901  24.293  23.010   7.064
 5431POPC   C4B68902  24.275  23.049   7.364
 5432POPC   NC368903  12.878  39.278   5.564
 5432POPC   PO468904  12.858  39.267   5.864
 5432POPC   GL168905  12.862  39.230   6.164
 5432POPC   GL268906  12.759  39.276   6.164
 5432POPC   C1A68907  12.852  39.242   6.464
 5432POPC   D2A68908  12.818  39.184   6.764
 5432POPC   C3A68909  12.802  39.249   7.064
 5432POPC   C4A68910  12.843  39.195   7.364
 5432POPC   C1B68911  12.643  39.419   6.464
 5432POPC   C2B68912  12.704  39.359   6.764
 5432POPC   C3B68913  12.709  39.387   7.064
 5432POPC   C4B68914  12.665  39.356   7.364
 5433POPC   NC368915   9.748  39.242   5.564
 5433POPC   PO468916   9.777  39.260   5.864
 5433POPC   GL168917   9.789  39.212   6.164
 5433POPC   GL268918   9.847  39.303   6.164
 5433POPC   C1A68919   9.745  39.189   6.464
 5433POPC   D2A68920   9.712  39.253   6.764
 5433POPC   C3A68921   9.723  39.216   7.064
 5433POPC   C4A68922   9.782  39.270   7.364
 5433POPC   C1B68923   9.875  39.398   6.464
 5433POPC   C2B68924   9.852  39.434   6.764
 5433POPC   C3B68925   9.885  39.495   7.064
 5433POPC   C4B68926   9.918  39.424   7.364
 5434POPC   NC368927  30.717  36.946   5.564
 5434POPC   PO468928  30.734  36.944   5.864
 5434POPC   GL168929  30.738  36.899   6.164
 5434POPC   GL268930  30.613  36.768   6.164
 5434POPC   C1A68931  30.661  36.867   6.464
 5434POPC   D2A68932  30.718  36.859   6.764
 5434POPC   C3A68933  30.669  36.896   7.064
 5434POPC   C4A68934  30.732  36.928   7.364
 5434POPC   C1B68935  30.614  36.632   6.464
 5434POPC   C2B68936  30.604  36.705   6.764
 5434POPC   C3B68937  30.578  36.633   7.064
 5434POPC   C4B68938  30.550  36.636   7.364
 5435POPC   NC368939   1.982  41.592   5.564
 5435POPC   PO468940   2.032  41.513   5.864
 5435POPC   GL168941   2.032  41.592   6.164
 5435POPC   GL268942   1.903  41.629   6.164
 5435POPC   C1A68943   2.039  41.513   6.464
 5435POPC   D2A68944   1.982  41.521   6.764
 5435POPC   C3A68945   2.007  41.585   7.064
 5435POPC   C4A68946   1.992  41.573   7.364
 5435POPC   C1B68947   1.750  41.677   6.464
 5435POPC   C2B68948   1.794  41.665   6.764
 5435POPC   C3B68949   1.764  41.729   7.064
 5435POPC   C4B68950   1.737  41.687   7.364
 5436POPC   NC368951  15.153  36.890   5.564
 5436POPC   PO468952  15.187  36.912   5.864
 5436POPC   GL168953  15.219  36.909   6.164
 5436POPC   GL268954  15.271  36.824   6.164
 5436POPC   C1A68955  15.175  36.940   6.464
 5436POPC   D2A68956  15.168  36.899   6.764
 5436POPC   C3A68957  15.214  36.910   7.064
 5436POPC   C4A68958  15.151  36.883   7.364
 5436POPC   C1B68959  15.366  36.806   6.464
 5436POPC   C2B68960  15.408  36.752   6.764
 5436POPC   C3B68961  15.394  36.756   7.064
 5436POPC   C4B68962  15.399  36.768   7.364
 5437POPC   NC368963  24.492  36.146   5.564
 5437POPC   PO468964  24.509  36.095   5.864
 5437POPC   GL168965  24.498  36.091   6.164
 5437POPC   GL268966  24.403  36.272   6.164
 5437POPC   C1A68967  24.533  36.158   6.464
 5437POPC   D2A68968  24.440  36.147   6.764
 5437POPC   C3A68969  24.483  36.085   7.064
 5437POPC   C4A68970  24.479  36.116   7.364
 5437POPC   C1B68971  24.334  36.330   6.464
 5437POPC   C2B68972  24.382  36.339   6.764
 5437POPC   C3B68973  24.384  36.376   7.064
 5437POPC   C4B68974  24.403  36.312   7.364
 5438POPC   NC368975  14.362  27.548   5.564
 5438POPC   PO468976  14.441  27.575   5.864
 5438POPC   GL168977  14.453  27.621   6.164
 5438POPC   GL268978  14.332  27.756   6.164
 5438POPC   C1A68979  14.386  27.558   6.464
 5438POPC   D2A68980  14.417  27.592   6.764
 5438POPC   C3A68981  14.451  27.590   7.064
 5438POPC   C4A68982  14.446  27.559   7.364
 5438POPC   C1B68983  14.369  27.882   6.464
 5438POPC   C2B68984  14.313  27.811   6.764
 5438POPC   C3B68985  14.406  27.792   7.064
 5438POPC   C4B68986  14.311  27.883   7.364
 5439POPC   NC368987  26.027   1.220   5.564
 5439POPC   PO468988  26.054   1.208   5.864
 5439POPC   GL168989  26.051   1.204   6.164
 5439POPC   GL268990  26.185   1.264   6.164
 5439POPC   C1A68991  26.031   1.225   6.464
 5439POPC   D2A68992  26.036   1.188   6.764
 5439POPC   C3A68993  25.997   1.263   7.064
 5439POPC   C4A68994  26.081   1.246   7.364
 5439POPC   C1B68995  26.255   1.249   6.464
 5439POPC   C2B68996  26.304   1.200   6.764
 5439POPC   C3B68997  26.315   1.193   7.064
 5439POPC   C4B68998  26.319   1.268   7.364
 5440POPC   NC368999  29.875  40.037   5.564
 5440POPC   PO469000  29.956  39.975   5.864
 5440POPC   GL169001  29.885  40.051   6.164
 5440POPC   GL269002  29.917  39.892   6.164
 5440POPC   C1A69003  29.876  40.022   6.464
 5440POPC   D2A69004  29.949  40.016   6.764
 5440POPC   C3A69005  29.957  39.984   7.064
 5440POPC   C4A69006  29.906  40.039   7.364
 5440POPC   C1B69007  29.960  39.807   6.464
 5440POPC   C2B69008  30.002  39.740   6.764
 5440POPC   C3B69009  30.001  39.785   7.064
 5440POPC   C4B69010  29.953  39.775   7.364
 5441POPC   NC369011  39.196  18.299   5.564
 5441POPC   PO469012  39.219  18.244   5.864
 5441POPC   GL169013  39.275  18.239   6.164
 5441POPC   GL269014  39.156  18.204   6.164
 5441POPC   C1A69015  39.214  18.311   6.464
 5441POPC   D2A69016  39.187  18.253   6.764
 5441POPC   C3A69017  39.182  18.238   7.064
 5441POPC   C4A69018  39.219  18.249   7.364
 5441POPC   C1B69019  39.083  18.061   6.464
 5441POPC   C2B69020  39.097  18.119   6.764
 5441POPC   C3B69021  39.144  18.037   7.064
 5441POPC   C4B69022  39.080  18.047   7.364
 5442POPC   NC369023  15.176   7.465   5.564
 5442POPC   PO469024  15.223   7.457   5.864
 5442POPC   GL169025  15.157   7.470   6.164
 5442POPC   GL269026  15.226   7.551   6.164
 5442POPC   C1A69027  15.228   7.443   6.464
 5442POPC   D2A69028  15.176   7.451   6.764
 5442POPC   C3A69029  15.198   7.409   7.064
 5442POPC   C4A69030  15.215   7.412   7.364
 5442POPC   C1B69031  15.297   7.628   6.464
 5442POPC   C2B69032  15.353   7.594   6.764
 5442POPC   C3B69033  15.330   7.615   7.064
 5442POPC   C4B69034  15.280   7.605   7.364
 5443POPC   NC369035  42.364  10.505   5.564
 5443POPC   PO469036  42.287  10.536   5.864
 5443POPC   GL169037  42.372  10.514   6.164
 5443POPC   GL269038  42.240  10.613   6.164
 5443POPC   C1A69039  42.316  10.540   6.464
 5443POPC   D2A69040  42.353  10.557   6.764
 5443POPC   C3A69041  42.298  10.534   7.064
 5443POPC   C4A69042  42.368  10.533   7.364
 5443POPC   C1B69043  42.202  10.719   6.464
 5443POPC   C2B69044  42.166  10.732   6.764
 5443POPC   C3B69045  42.148  10.660   7.064
 5443POPC   C4B69046  42.173  10.733   7.364
 5444POPC   NC369047  41.527  28.334   5.564
 5444POPC   PO469048  41.537  28.322   5.864
 5444POPC   GL169049  41.533  28.377   6.164
 5444POPC   GL269050  41.479  28.440   6.164
 5444POPC   C1A69051  41.571  28.348   6.464
 5444POPC   D2A69052  41.607  28.348   6.764
 5444POPC   C3A69053  41.557  28.337   7.064
 5444POPC   C4A69054  41.607  28.363   7.364
 5444POPC   C1B69055  41.417  28.590   6.464
 5444POPC   C2B69056  41.394  28.629   6.764
 5444POPC   C3B69057  41.429  28.632   7.064
 5444POPC   C4B69058  41.473  28.620   7.364
 5445POPC   NC369059  31.507  39.978   5.564
 5445POPC   PO469060  31.484  40.043   5.864
 5445POPC   GL169061  31.433  39.967   6.164
 5445POPC   GL269062  31.364  39.937   6.164
 5445POPC   C1A69063  31.472  39.991   6.464
 5445POPC   D2A69064  31.501  39.986   6.764
 5445POPC   C3A69065  31.449  40.015   7.064
 5445POPC   C4A69066  31.433  39.997   7.364
 5445POPC   C1B69067  31.351  39.785   6.464
 5445POPC   C2B69068  31.323  39.830   6.764
 5445POPC   C3B69069  31.341  39.756   7.064
 5445POPC   C4B69070  31.390  39.780   7.364
 5446POPC   NC369071   0.473  11.259   5.564
 5446POPC   PO469072   0.421  11.300   5.864
 5446POPC   GL169073   0.455  11.272   6.164
 5446POPC   GL269074   0.310  11.214   6.164
 5446POPC   C1A69075   0.402  11.307   6.464
 5446POPC   D2A69076   0.471  11.334   6.764
 5446POPC   C3A69077   0.436  11.252   7.064
 5446POPC   C4A69078   0.435  11.305   7.364
 5446POPC   C1B69079   0.265  11.180   6.464
 5446POPC   C2B69080   0.235  11.178   6.764
 5446POPC   C3B69081   0.278  11.095   7.064
 5446POPC   C4B69082   0.213  11.105   7.364
 5447POPC   NC369083  16.762  29.969   5.564
 5447POPC   PO469084  16.751  29.941   5.864
 5447POPC   GL169085  16.726  29.909   6.164
 5447POPC   GL269086  16.719  30.051   6.164
 5447POPC   C1A69087  16.766  29.922   6.464
 5447POPC   D2A69088  16.684  29.947   6.764
 5447POPC   C3A69089  16.780  29.883   7.064
 5447POPC   C4A69090  16.755  29.948   7.364
 5447POPC   C1B69091  16.709  30.131   6.464
 5447POPC   C2B69092  16.688  30.146   6.764
 5447POPC   C3B69093  16.669  30.206   7.064
 5447POPC   C4B69094  16.626  30.118   7.364
 5448POPC   NC369095   8.985  39.260   5.564
 5448POPC   PO469096   8.944  39.188   5.864
 5448POPC   GL169097   8.979  39.192   6.164
 5448POPC   GL269098   9.078  39.175   6.164
 5448POPC   C1A69099   8.998  39.256   6.464
 5448POPC   D2A69100   8.960  39.262   6.764
 5448POPC   C3A69101   9.002  39.262   7.064
 5448POPC   C4A69102   8.998  39.252   7.364
 5448POPC   C1B69103   9.251  39.170   6.464
 5448POPC   C2B69104   9.248  39.177   6.764
 5448POPC   C3B69105   9.202  39.176   7.064
 5448POPC   C4B69106   9.201  39.177   7.364
 5449POPC   NC369107  42.364  30.689   5.564
 5449POPC   PO469108  42.315  30.693   5.864
 5449POPC   GL169109  42.335  30.717   6.164
 5449POPC   GL269110  42.200  30.696   6.164
 5449POPC   C1A69111  42.345  30.737   6.464
 5449POPC   D2A69112  42.335  30.652   6.764
 5449POPC   C3A69113  42.330  30.662   7.064
 5449POPC   C4A69114  42.347  30.680   7.364
 5449POPC   C1B69115  42.131  30.604   6.464
 5449POPC   C2B69116  42.143  30.650   6.764
 5449POPC   C3B69117  42.096  30.648   7.064
 5449POPC   C4B69118  42.119  30.631   7.364
 5450POPC   NC369119  21.357  14.448   5.564
 5450POPC   PO469120  21.388  14.356   5.864
 5450POPC   GL169121  21.421  14.389   6.164
 5450POPC   GL269122  21.531  14.424   6.164
 5450POPC   C1A69123  21.399  14.355   6.464
 5450POPC   D2A69124  21.356  14.431   6.764
 5450POPC   C3A69125  21.398  14.446   7.064
 5450POPC   C4A69126  21.355  14.422   7.364
 5450POPC   C1B69127  21.674  14.306   6.464
 5450POPC   C2B69128  21.613  14.325   6.764
 5450POPC   C3B69129  21.585  14.344   7.064
 5450POPC   C4B69130  21.600  14.321   7.364
 5451POPC   NC369131   4.352  33.848   5.564
 5451POPC   PO469132   4.358  33.770   5.864
 5451POPC   GL169133   4.325  33.816   6.164
 5451POPC   GL269134   4.405  33.701   6.164
 5451POPC   C1A69135   4.311  33.817   6.464
 5451POPC   D2A69136   4.281  33.844   6.764
 5451POPC   C3A69137   4.355  33.794   7.064
 5451POPC   C4A69138   4.342  33.773   7.364
 5451POPC   C1B69139   4.493  33.617   6.464
 5451POPC   C2B69140   4.464  33.660   6.764
 5451POPC   C3B69141   4.521  33.641   7.064
 5451POPC   C4B69142   4.524  33.648   7.364
 5452POPC   NC369143   9.752   3.517   5.564
 5452POPC   PO469144   9.775   3.585   5.864
 5452POPC   GL169145   9.791   3.532   6.164
 5452POPC   GL269146   9.785   3.656   6.164
 5452POPC   C1A69147   9.751   3.520   6.464
 5452POPC   D2A69148   9.768   3.530   6.764
 5452POPC   C3A69149   9.722   3.591   7.064
 5452POPC   C4A69150   9.762   3.555   7.364
 5452POPC   C1B69151   9.777   3.742   6.464
 5452POPC   C2B69152   9.765   3.805   6.764
 5452POPC   C3B69153   9.775   3.766   7.064
 5452POPC   C4B69154   9.801   3.833   7.364
 5453POPC   NC369155  28.398  35.397   5.564
 5453POPC   PO469156  28.415  35.366   5.864
 5453POPC   GL169157  28.320  35.317   6.164
 5453POPC   GL269158  28.308  35.458   6.164
 5453POPC   C1A69159  28.331  35.302   6.464
 5453POPC   D2A69160  28.346  35.381   6.764
 5453POPC   C3A69161  28.413  35.320   7.064
 5453POPC   C4A69162  28.352  35.324   7.364
 5453POPC   C1B69163  28.138  35.495   6.464
 5453POPC   C2B69164  28.158  35.472   6.764
 5453POPC   C3B69165  28.133  35.454   7.064
 5453POPC   C4B69166  28.135  35.511   7.364
 5454POPC   NC369167  24.513  43.135   5.564
 5454POPC   PO469168  24.448  43.142   5.864
 5454POPC   GL169169  24.459  43.120   6.164
 5454POPC   GL269170  24.467  43.197   6.164
 5454POPC   C1A69171  24.469  43.142   6.464
 5454POPC   D2A69172  24.518  43.155   6.764
 5454POPC   C3A69173  24.509  43.123   7.064
 5454POPC   C4A69174  24.498  43.143   7.364
 5454POPC   C1B69175  24.363  43.322   6.464
 5454POPC   C2B69176  24.410  43.318   6.764
 5454POPC   C3B69177  24.393  43.353   7.064
 5454POPC   C4B69178  24.417  43.288   7.364
 5455POPC   NC369179  32.207  24.486   5.564
 5455POPC   PO469180  32.247  24.523   5.864
 5455POPC   GL169181  32.271  24.502   6.164
 5455POPC   GL269182  32.237  24.349   6.164
 5455POPC   C1A69183  32.279  24.539   6.464
 5455POPC   D2A69184  32.247  24.537   6.764
 5455POPC   C3A69185  32.260  24.464   7.064
 5455POPC   C4A69186  32.280  24.517   7.364
 5455POPC   C1B69187  32.251  24.273   6.464
 5455POPC   C2B69188  32.301  24.229   6.764
 5455POPC   C3B69189  32.286  24.197   7.064
 5455POPC   C4B69190  32.270  24.213   7.364
 5456POPC   NC369191  22.187  10.520   5.564
 5456POPC   PO469192  22.193  10.503   5.864
 5456POPC   GL169193  22.167  10.543   6.164
 5456POPC   GL269194  22.153  10.645   6.164
 5456POPC   C1A69195  22.156  10.503   6.464
 5456POPC   D2A69196  22.142  10.569   6.764
 5456POPC   C3A69197  22.135  10.557   7.064
 5456POPC   C4A69198  22.178  10.516   7.364
 5456POPC   C1B69199  22.059  10.762   6.464
 5456POPC   C2B69200  22.025  10.726   6.764
 5456POPC   C3B69201  22.031  10.794   7.064
 5456POPC   C4B69202  22.035  10.794   7.364
 5457POPC   NC369203  26.769  38.430   5.564
 5457POPC   PO469204  26.781  38.470   5.864
 5457POPC   GL169205  26.847  38.417   6.164
 5457POPC   GL269206  26.781  38.322   6.164
 5457POPC   C1A69207  26.794  38.420   6.464
 5457POPC   D2A69208  26.816  38.407   6.764
 5457POPC   C3A69209  26.829  38.473   7.064
 5457POPC   C4A69210  26.829  38.427   7.364
 5457POPC   C1B69211  26.771  38.161   6.464
 5457POPC   C2B69212  26.825  38.159   6.764
 5457POPC   C3B69213  26.831  38.250   7.064
 5457POPC   C4B69214  26.780  38.229   7.364
 5458POPC   NC369215  40.777  15.911   5.564
 5458POPC   PO469216  40.784  15.959   5.864
 5458POPC   GL169217  40.794  15.956   6.164
 5458POPC   GL269218  40.815  16.077   6.164
 5458POPC   C1A69219  40.759  15.939   6.464
 5458POPC   D2A69220  40.817  15.962   6.764
 5458POPC   C3A69221  40.761  15.965   7.064
 5458POPC   C4A69222  40.735  16.003   7.364
 5458POPC   C1B69223  40.721  16.197   6.464
 5458POPC   C2B69224  40.730  16.176   6.764
 5458POPC   C3B69225  40.747  16.191   7.064
 5458POPC   C4B69226  40.784  16.169   7.364
 5459POPC   NC369227  29.162  14.441   5.564
 5459POPC   PO469228  29.157  14.441   5.864
 5459POPC   GL169229  29.104  14.431   6.164
 5459POPC   GL269230  29.225  14.364   6.164
 5459POPC   C1A69231  29.105  14.368   6.464
 5459POPC   D2A69232  29.134  14.420   6.764
 5459POPC   C3A69233  29.176  14.410   7.064
 5459POPC   C4A69234  29.174  14.364   7.364
 5459POPC   C1B69235  29.310  14.257   6.464
 5459POPC   C2B69236  29.344  14.270   6.764
 5459POPC   C3B69237  29.325  14.253   7.064
 5459POPC   C4B69238  29.327  14.214   7.364
 5460POPC   NC369239  42.347  31.455   5.564
 5460POPC   PO469240  42.308  31.468   5.864
 5460POPC   GL169241  42.355  31.499   6.164
 5460POPC   GL269242  42.247  31.528   6.164
 5460POPC   C1A69243  42.307  31.462   6.464
 5460POPC   D2A69244  42.366  31.439   6.764
 5460POPC   C3A69245  42.329  31.490   7.064
 5460POPC   C4A69246  42.303  31.489   7.364
 5460POPC   C1B69247  42.158  31.702   6.464
 5460POPC   C2B69248  42.207  31.684   6.764
 5460POPC   C3B69249  42.195  31.663   7.064
 5460POPC   C4B69250  42.208  31.671   7.364
 5461POPC   NC369251   0.404  22.201   5.564
 5461POPC   PO469252   0.394  22.178   5.864
 5461POPC   GL169253   0.464  22.203   6.164
 5461POPC   GL269254   0.401  22.304   6.164
 5461POPC   C1A69255   0.405  22.184   6.464
 5461POPC   D2A69256   0.427  22.173   6.764
 5461POPC   C3A69257   0.465  22.171   7.064
 5461POPC   C4A69258   0.407  22.189   7.364
 5461POPC   C1B69259   0.395  22.388   6.464
 5461POPC   C2B69260   0.474  22.453   6.764
 5461POPC   C3B69261   0.419  22.378   7.064
 5461POPC   C4B69262   0.429  22.440   7.364
 5462POPC   NC369263  36.090  12.083   5.564
 5462POPC   PO469264  36.087  12.077   5.864
 5462POPC   GL169265  36.142  12.056   6.164
 5462POPC   GL269266  36.047  12.155   6.164
 5462POPC   C1A69267  36.129  12.087   6.464
 5462POPC   D2A69268  36.122  12.041   6.764
 5462POPC   C3A69269  36.099  12.091   7.064
 5462POPC   C4A69270  36.092  12.121   7.364
 5462POPC   C1B69271  35.893  12.162   6.464
 5462POPC   C2B69272  35.893  12.128   6.764
 5462POPC   C3B69273  35.906  12.173   7.064
 5462POPC   C4B69274  35.892  12.159   7.364
 5463POPC   NC369275  29.161  28.378   5.564
 5463POPC   PO469276  29.132  28.390   5.864
 5463POPC   GL169277  29.128  28.327   6.164
 5463POPC   GL269278  29.177  28.473   6.164
 5463POPC   C1A69279  29.192  28.351   6.464
 5463POPC   D2A69280  29.158  28.394   6.764
 5463POPC   C3A69281  29.124  28.364   7.064
 5463POPC   C4A69282  29.125  28.336   7.364
 5463POPC   C1B69283  29.178  28.629   6.464
 5463POPC   C2B69284  29.183  28.633   6.764
 5463POPC   C3B69285  29.199  28.618   7.064
 5463POPC   C4B69286  29.209  28.611   7.364
 5464POPC   NC369287   1.182  22.960   5.564
 5464POPC   PO469288   1.167  22.903   5.864
 5464POPC   GL169289   1.220  22.986   6.164
 5464POPC   GL269290   1.138  22.817   6.164
 5464POPC   C1A69291   1.169  22.909   6.464
 5464POPC   D2A69292   1.167  22.931   6.764
 5464POPC   C3A69293   1.181  22.921   7.064
 5464POPC   C4A69294   1.192  22.967   7.364
 5464POPC   C1B69295   1.094  22.771   6.464
 5464POPC   C2B69296   1.088  22.738   6.764
 5464POPC   C3B69297   1.082  22.734   7.064
 5464POPC   C4B69298   1.088  22.730   7.364
 5465POPC   NC369299  11.253  21.345   5.564
 5465POPC   PO469300  11.349  21.379   5.864
 5465POPC   GL169301  11.347  21.430   6.164
 5465POPC   GL269302  11.399  21.370   6.164
 5465POPC   C1A69303  11.334  21.399   6.464
 5465POPC   D2A69304  11.279  21.407   6.764
 5465POPC   C3A69305  11.331  21.398   7.064
 5465POPC   C4A69306  11.334  21.361   7.364
 5465POPC   C1B69307  11.498  21.290   6.464
 5465POPC   C2B69308  11.484  21.309   6.764
 5465POPC   C3B69309  11.549  21.298   7.064
 5465POPC   C4B69310  11.516  21.267   7.364
 5466POPC   NC369311  20.600  39.203   5.564
 5466POPC   PO469312  20.642  39.242   5.864
 5466POPC   GL169313  20.660  39.257   6.164
 5466POPC   GL269314  20.712  39.153   6.164
 5466POPC   C1A69315  20.633  39.217   6.464
 5466POPC   D2A69316  20.659  39.244   6.764
 5466POPC   C3A69317  20.616  39.265   7.064
 5466POPC   C4A69318  20.597  39.238   7.364
 5466POPC   C1B69319  20.882  39.171   6.464
 5466POPC   C2B69320  20.833  39.157   6.764
 5466POPC   C3B69321  20.794  39.165   7.064
 5466POPC   C4B69322  20.863  39.122   7.364
 5467POPC   NC369323  39.193  35.307   5.564
 5467POPC   PO469324  39.188  35.398   5.864
 5467POPC   GL169325  39.280  35.320   6.164
 5467POPC   GL269326  39.376  35.300   6.164
 5467POPC   C1A69327  39.208  35.349   6.464
 5467POPC   D2A69328  39.267  35.386   6.764
 5467POPC   C3A69329  39.234  35.355   7.064
 5467POPC   C4A69330  39.249  35.381   7.364
 5467POPC   C1B69331  39.518  35.380   6.464
 5467POPC   C2B69332  39.478  35.386   6.764
 5467POPC   C3B69333  39.466  35.351   7.064
 5467POPC   C4B69334  39.510  35.387   7.364
 5468POPC   NC369335  34.604  34.624   5.564
 5468POPC   PO469336  34.533  34.535   5.864
 5468POPC   GL169337  34.572  34.623   6.164
 5468POPC   GL269338  34.609  34.479   6.164
 5468POPC   C1A69339  34.594  34.579   6.464
 5468POPC   D2A69340  34.598  34.542   6.764
 5468POPC   C3A69341  34.592  34.602   7.064
 5468POPC   C4A69342  34.588  34.621   7.364
 5468POPC   C1B69343  34.746  34.329   6.464
 5468POPC   C2B69344  34.721  34.394   6.764
 5468POPC   C3B69345  34.740  34.348   7.064
 5468POPC   C4B69346  34.715  34.333   7.364
 5469POPC   NC369347   7.384   2.744   5.564
 5469POPC   PO469348   7.428   2.791   5.864
 5469POPC   GL169349   7.441   2.763   6.164
 5469POPC   GL269350   7.393   2.892   6.164
 5469POPC   C1A69351   7.415   2.777   6.464
 5469POPC   D2A69352   7.422   2.721   6.764
 5469POPC   C3A69353   7.432   2.716   7.064
 5469POPC   C4A69354   7.465   2.741   7.364
 5469POPC   C1B69355   7.343   2.982   6.464
 5469POPC   C2B69356   7.360   2.978   6.764
 5469POPC   C3B69357   7.301   2.973   7.064
 5469POPC   C4B69358   7.338   3.024   7.364
 5470POPC   NC369359  40.829  34.557   5.564
 5470POPC   PO469360  40.749  34.562   5.864
 5470POPC   GL169361  40.793  34.612   6.164
 5470POPC   GL269362  40.782  34.656   6.164
 5470POPC   C1A69363  40.813  34.595   6.464
 5470POPC   D2A69364  40.763  34.563   6.764
 5470POPC   C3A69365  40.820  34.590   7.064
 5470POPC   C4A69366  40.808  34.611   7.364
 5470POPC   C1B69367  40.867  34.856   6.464
 5470POPC   C2B69368  40.789  34.824   6.764
 5470POPC   C3B69369  40.853  34.775   7.064
 5470POPC   C4B69370  40.868  34.798   7.364
 5471POPC   NC369371  42.332  22.172   5.564
 5471POPC   PO469372  42.300  22.175   5.864
 5471POPC   GL169373  42.287  22.157   6.164
 5471POPC   GL269374  42.288  22.039   6.164
 5471POPC   C1A69375  42.380  22.143   6.464
 5471POPC   D2A69376  42.321  22.132   6.764
 5471POPC   C3A69377  42.291  22.178   7.064
 5471POPC   C4A69378  42.325  22.136   7.364
 5471POPC   C1B69379  42.321  21.958   6.464
 5471POPC   C2B69380  42.331  21.913   6.764
 5471POPC   C3B69381  42.287  21.905   7.064
 5471POPC   C4B69382  42.340  21.957   7.364
 5472POPC   NC369383   4.313  41.583   5.564
 5472POPC   PO469384   4.346  41.592   5.864
 5472POPC   GL169385   4.290  41.560   6.164
 5472POPC   GL269386   4.211  41.527   6.164
 5472POPC   C1A69387   4.312  41.542   6.464
 5472POPC   D2A69388   4.324  41.570   6.764
 5472POPC   C3A69389   4.291  41.563   7.064
 5472POPC   C4A69390   4.348  41.512   7.364
 5472POPC   C1B69391   4.064  41.563   6.464
 5472POPC   C2B69392   4.069  41.556   6.764
 5472POPC   C3B69393   4.103  41.585   7.064
 5472POPC   C4B69394   4.057  41.512   7.364
 5473POPC   NC369395   8.946  38.489   5.564
 5473POPC   PO469396   8.993  38.445   5.864
 5473POPC   GL169397   8.996  38.502   6.164
 5473POPC   GL269398   9.124  38.388   6.164
 5473POPC   C1A69399   8.930  38.470   6.464
 5473POPC   D2A69400   8.988  38.493   6.764
 5473POPC   C3A69401   9.007  38.429   7.064
 5473POPC   C4A69402   8.927  38.489   7.364
 5473POPC   C1B69403   9.221  38.382   6.464
 5473POPC   C2B69404   9.255  38.384   6.764
 5473POPC   C3B69405   9.261  38.367   7.064
 5473POPC   C4B69406   9.222  38.368   7.364
 5474POPC   NC369407  12.106   8.206   5.564
 5474POPC   PO469408  12.116   8.190   5.864
 5474POPC   GL169409  12.110   8.239   6.164
 5474POPC   GL269410  12.160   8.258   6.164
 5474POPC   C1A69411  12.112   8.181   6.464
 5474POPC   D2A69412  12.090   8.191   6.764
 5474POPC   C3A69413  12.050   8.200   7.064
 5474POPC   C4A69414  12.029   8.237   7.364
 5474POPC   C1B69415  12.281   8.228   6.464
 5474POPC   C2B69416  12.276   8.213   6.764
 5474POPC   C3B69417  12.370   8.223   7.064
 5474POPC   C4B69418  12.315   8.189   7.364
 5475POPC   NC369419  42.296  23.718   5.564
 5475POPC   PO469420  42.337  23.751   5.864
 5475POPC   GL169421  42.318  23.680   6.164
 5475POPC   GL269422  42.217  23.641   6.164
 5475POPC   C1A69423  42.346  23.670   6.464
 5475POPC   D2A69424  42.309  23.683   6.764
 5475POPC   C3A69425  42.354  23.720   7.064
 5475POPC   C4A69426  42.356  23.753   7.364
 5475POPC   C1B69427  42.124  23.577   6.464
 5475POPC   C2B69428  42.150  23.553   6.764
 5475POPC   C3B69429  42.108  23.563   7.064
 5475POPC   C4B69430  42.125  23.561   7.364
 5476POPC   NC369431  20.587   8.228   5.564
 5476POPC   PO469432  20.646   8.147   5.864
 5476POPC   GL169433  20.643   8.218   6.164
 5476POPC   GL269434  20.486   8.089   6.164
 5476POPC   C1A69435  20.604   8.210   6.464
 5476POPC   D2A69436  20.570   8.179   6.764
 5476POPC   C3A69437  20.627   8.211   7.064
 5476POPC   C4A69438  20.592   8.218   7.364
 5476POPC   C1B69439  20.426   8.001   6.464
 5476POPC   C2B69440  20.511   7.967   6.764
 5476POPC   C3B69441  20.413   7.976   7.064
 5476POPC   C4B69442  20.486   7.978   7.364
 5477POPC   NC369443  34.582  40.050   5.564
 5477POPC   PO469444  34.603  39.982   5.864
 5477POPC   GL169445  34.542  39.983   6.164
 5477POPC   GL269446  34.577  40.172   6.164
 5477POPC   C1A69447  34.529  39.982   6.464
 5477POPC   D2A69448  34.625  40.020   6.764
 5477POPC   C3A69449  34.527  40.005   7.064
 5477POPC   C4A69450  34.584  39.989   7.364
 5477POPC   C1B69451  34.596  40.281   6.464
 5477POPC   C2B69452  34.643  40.292   6.764
 5477POPC   C3B69453  34.621  40.271   7.064
 5477POPC   C4B69454  34.579  40.256   7.364
 5478POPC   NC369455  22.182  22.196   5.564
 5478POPC   PO469456  22.196  22.193   5.864
 5478POPC   GL169457  22.134  22.146   6.164
 5478POPC   GL269458  22.058  22.171   6.164
 5478POPC   C1A69459  22.125  22.198   6.464
 5478POPC   D2A69460  22.164  22.179   6.764
 5478POPC   C3A69461  22.181  22.113   7.064
 5478POPC   C4A69462  22.125  22.141   7.364
 5478POPC   C1B69463  21.942  22.067   6.464
 5478POPC   C2B69464  21.970  22.101   6.764
 5478POPC   C3B69465  21.908  22.060   7.064
 5478POPC   C4B69466  21.891  22.131   7.364
 5479POPC   NC369467  36.887  41.586   5.564
 5479POPC   PO469468  36.952  41.596   5.864
 5479POPC   GL169469  36.945  41.603   6.164
 5479POPC   GL269470  36.865  41.697   6.164
 5479POPC   C1A69471  36.929  41.525   6.464
 5479POPC   D2A69472  36.889  41.581   6.764
 5479POPC   C3A69473  36.881  41.606   7.064
 5479POPC   C4A69474  36.854  41.579   7.364
 5479POPC   C1B69475  36.821  41.835   6.464
 5479POPC   C2B69476  36.796  41.791   6.764
 5479POPC   C3B69477  36.887  41.788   7.064
 5479POPC   C4B69478  36.792  41.778   7.364
 5480POPC   NC369479  19.019  17.496   5.564
 5480POPC   PO469480  19.075  17.500   5.864
 5480POPC   GL169481  19.046  17.470   6.164
 5480POPC   GL269482  19.078  17.416   6.164
 5480POPC   C1A69483  19.018  17.492   6.464
 5480POPC   D2A69484  19.100  17.523   6.764
 5480POPC   C3A69485  19.054  17.492   7.064
 5480POPC   C4A69486  19.066  17.458   7.364
 5480POPC   C1B69487  19.031  17.252   6.464
 5480POPC   C2B69488  19.078  17.237   6.764
 5480POPC   C3B69489  19.057  17.277   7.064
 5480POPC   C4B69490  19.008  17.235   7.364
 5481POPC   NC369491  27.557  12.089   5.564
 5481POPC   PO469492  27.640  12.123   5.864
 5481POPC   GL169493  27.605  12.113   6.164
 5481POPC   GL269494  27.478  12.124   6.164
 5481POPC   C1A69495  27.602  12.033   6.464
 5481POPC   D2A69496  27.580  12.118   6.764
 5481POPC   C3A69497  27.620  12.092   7.064
 5481POPC   C4A69498  27.578  12.074   7.364
 5481POPC   C1B69499  27.408  12.232   6.464
 5481POPC   C2B69500  27.422  12.256   6.764
 5481POPC   C3B69501  27.415  12.206   7.064
 5481POPC   C4B69502  27.414  12.192   7.364
 5482POPC   NC369503   0.389  28.343   5.564
 5482POPC   PO469504   0.454  28.346   5.864
 5482POPC   GL169505   0.452  28.374   6.164
 5482POPC   GL269506   0.329  28.275   6.164
 5482POPC   C1A69507   0.402  28.344   6.464
 5482POPC   D2A69508   0.480  28.404   6.764
 5482POPC   C3A69509   0.421  28.356   7.064
 5482POPC   C4A69510   0.444  28.399   7.364
 5482POPC   C1B69511   0.320  28.199   6.464
 5482POPC   C2B69512   0.283  28.137   6.764
 5482POPC   C3B69513   0.325  28.146   7.064
 5482POPC   C4B69514   0.308  28.153   7.364
 5483POPC   NC369515  22.943  11.327   5.564
 5483POPC   PO469516  22.974  11.325   5.864
 5483POPC   GL169517  22.932  11.254   6.164
 5483POPC   GL269518  23.107  11.320   6.164
 5483POPC   C1A69519  22.947  11.344   6.464
 5483POPC   D2A69520  22.966  11.325   6.764
 5483POPC   C3A69521  22.899  11.302   7.064
 5483POPC   C4A69522  22.942  11.287   7.364
 5483POPC   C1B69523  23.177  11.329   6.464
 5483POPC   C2B69524  23.197  11.396   6.764
 5483POPC   C3B69525  23.135  11.314   7.064
 5483POPC   C4B69526  23.228  11.321   7.364
 5484POPC   NC369527  22.968  33.829   5.564
 5484POPC   PO469528  22.988  33.829   5.864
 5484POPC   GL169529  22.959  33.800   6.164
 5484POPC   GL269530  23.033  33.739   6.164
 5484POPC   C1A69531  22.898  33.775   6.464
 5484POPC   D2A69532  22.922  33.751   6.764
 5484POPC   C3A69533  22.907  33.798   7.064
 5484POPC   C4A69534  22.982  33.835   7.364
 5484POPC   C1B69535  23.082  33.637   6.464
 5484POPC   C2B69536  23.131  33.649   6.764
 5484POPC   C3B69537  23.127  33.653   7.064
 5484POPC   C4B69538  23.051  33.588   7.364
 5485POPC   NC369539   8.246  11.294   5.564
 5485POPC   PO469540   8.200  11.337   5.864
 5485POPC   GL169541   8.215  11.256   6.164
 5485POPC   GL269542   8.281  11.455   6.164
 5485POPC   C1A69543   8.203  11.319   6.464
 5485POPC   D2A69544   8.161  11.313   6.764
 5485POPC   C3A69545   8.159  11.271   7.064
 5485POPC   C4A69546   8.153  11.301   7.364
 5485POPC   C1B69547   8.262  11.526   6.464
 5485POPC   C2B69548   8.317  11.580   6.764
 5485POPC   C3B69549   8.313  11.532   7.064
 5485POPC   C4B69550   8.296  11.556   7.364
 5486POPC   NC369551  15.224  22.926   5.564
 5486POPC   PO469552  15.162  22.970   5.864
 5486POPC   GL169553  15.219  22.928   6.164
 5486POPC   GL269554  15.094  22.903   6.164
 5486POPC   C1A69555  15.131  22.897   6.464
 5486POPC   D2A69556  15.153  22.966   6.764
 5486POPC   C3A69557  15.136  22.936   7.064
 5486POPC   C4A69558  15.134  22.962   7.364
 5486POPC   C1B69559  14.987  22.865   6.464
 5486POPC   C2B69560  14.910  22.822   6.764
 5486POPC   C3B69561  14.910  22.821   7.064
 5486POPC   C4B69562  14.925  22.828   7.364
 5487POPC   NC369563  42.366   1.962   5.564
 5487POPC   PO469564  42.309   1.945   5.864
 5487POPC   GL169565  42.332   2.018   6.164
 5487POPC   GL269566  42.368   2.099   6.164
 5487POPC   C1A69567  42.348   2.031   6.464
 5487POPC   D2A69568  42.352   1.997   6.764
 5487POPC   C3A69569  42.316   1.940   7.064
 5487POPC   C4A69570  42.312   1.983   7.364
 5487POPC   C1B69571  42.535   2.141   6.464
 5487POPC   C2B69572  42.527   2.155   6.764
 5487POPC   C3B69573  42.493   2.162   7.064
 5487POPC   C4B69574  42.516   2.148   7.364
 5488POPC   NC369575  15.204  15.164   5.564
 5488POPC   PO469576  15.173  15.149   5.864
 5488POPC   GL169577  15.209  15.151   6.164
 5488POPC   GL269578  15.250  15.033   6.164
 5488POPC   C1A69579  15.186  15.223   6.464
 5488POPC   D2A69580  15.216  15.201   6.764
 5488POPC   C3A69581  15.146  15.191   7.064
 5488POPC   C4A69582  15.204  15.166   7.364
 5488POPC   C1B69583  15.202  14.923   6.464
 5488POPC   C2B69584  15.273  14.912   6.764
 5488POPC   C3B69585  15.207  14.957   7.064
 5488POPC   C4B69586  15.236  14.924   7.364
 5489POPC   NC369587  19.865  26.086   5.564
 5489POPC   PO469588  19.794  26.022   5.864
 5489POPC   GL169589  19.808  26.017   6.164
 5489POPC   GL269590  19.789  25.887   6.164
 5489POPC   C1A69591  19.803  26.028   6.464
 5489POPC   D2A69592  19.805  26.049   6.764
 5489POPC   C3A69593  19.808  26.041   7.064
 5489POPC   C4A69594  19.875  26.021   7.364
 5489POPC   C1B69595  19.745  25.815   6.464
 5489POPC   C2B69596  19.779  25.835   6.764
 5489POPC   C3B69597  19.821  25.790   7.064
 5489POPC   C4B69598  19.748  25.771   7.364
 5490POPC   NC369599   4.300  31.500   5.564
 5490POPC   PO469600   4.278  31.511   5.864
 5490POPC   GL169601   4.300  31.507   6.164
 5490POPC   GL269602   4.345  31.569   6.164
 5490POPC   C1A69603   4.361  31.465   6.464
 5490POPC   D2A69604   4.287  31.516   6.764
 5490POPC   C3A69605   4.336  31.519   7.064
 5490POPC   C4A69606   4.295  31.441   7.364
 5490POPC   C1B69607   4.429  31.671   6.464
 5490POPC   C2B69608   4.396  31.756   6.764
 5490POPC   C3B69609   4.424  31.716   7.064
 5490POPC   C4B69610   4.381  31.702   7.364
 5491POPC   NC369611   1.974  13.658   5.564
 5491POPC   PO469612   2.020  13.630   5.864
 5491POPC   GL169613   2.022  13.608   6.164
 5491POPC   GL269614   1.970  13.736   6.164
 5491POPC   C1A69615   2.019  13.610   6.464
 5491POPC   D2A69616   1.947  13.608   6.764
 5491POPC   C3A69617   2.017  13.626   7.064
 5491POPC   C4A69618   2.038  13.624   7.364
 5491POPC   C1B69619   1.991  13.841   6.464
 5491POPC   C2B69620   1.963  13.867   6.764
 5491POPC   C3B69621   1.961  13.918   7.064
 5491POPC   C4B69622   1.986  13.886   7.364
 5492POPC   NC369623  19.084  27.543   5.564
 5492POPC   PO469624  19.049  27.631   5.864
 5492POPC   GL169625  19.094  27.549   6.164
 5492POPC   GL269626  18.969  27.478   6.164
 5492POPC   C1A69627  19.070  27.623   6.464
 5492POPC   D2A69628  19.029  27.589   6.764
 5492POPC   C3A69629  19.063  27.612   7.064
 5492POPC   C4A69630  19.030  27.556   7.364
 5492POPC   C1B69631  18.808  27.491   6.464
 5492POPC   C2B69632  18.883  27.432   6.764
 5492POPC   C3B69633  18.906  27.435   7.064
 5492POPC   C4B69634  18.835  27.489   7.364
 5493POPC   NC369635  13.664  36.129   5.564
 5493POPC   PO469636  13.579  36.115   5.864
 5493POPC   GL169637  13.663  36.170   6.164
 5493POPC   GL269638  13.555  36.017   6.164
 5493POPC   C1A69639  13.583  36.092   6.464
 5493POPC   D2A69640  13.651  36.078   6.764
 5493POPC   C3A69641  13.581  36.083   7.064
 5493POPC   C4A69642  13.673  36.091   7.364
 5493POPC   C1B69643  13.451  36.003   6.464
 5493POPC   C2B69644  13.414  36.019   6.764
 5493POPC   C3B69645  13.385  35.948   7.064
 5493POPC   C4B69646  13.450  35.933   7.364
 5494POPC   NC369647   6.638   1.236   5.564
 5494POPC   PO469648   6.635   1.183   5.864
 5494POPC   GL169649   6.693   1.189   6.164
 5494POPC   GL269650   6.773   1.291   6.164
 5494POPC   C1A69651   6.634   1.173   6.464
 5494POPC   D2A69652   6.614   1.237   6.764
 5494POPC   C3A69653   6.604   1.206   7.064
 5494POPC   C4A69654   6.651   1.254   7.364
 5494POPC   C1B69655   6.877   1.334   6.464
 5494POPC   C2B69656   6.825   1.326   6.764
 5494POPC   C3B69657   6.903   1.300   7.064
 5494POPC   C4B69658   6.896   1.356   7.364
 5495POPC   NC369659  43.898  27.575   5.564
 5495POPC   PO469660  43.890  27.598   5.864
 5495POPC   GL169661  43.845  27.612   6.164
 5495POPC   GL269662  43.787  27.544   6.164
 5495POPC   C1A69663  43.903  27.637   6.464
 5495POPC   D2A69664  43.852  27.633   6.764
 5495POPC   C3A69665  43.908  27.559   7.064
 5495POPC   C4A69666  43.906  27.621   7.364
 5495POPC   C1B69667  43.719  27.432   6.464
 5495POPC   C2B69668  43.631  27.407   6.764
 5495POPC   C3B69669  43.700  27.502   7.064
 5495POPC   C4B69670  43.721  27.450   7.364
 5496POPC   NC369671  19.036   6.654   5.564
 5496POPC   PO469672  19.077   6.683   5.864
 5496POPC   GL169673  19.017   6.693   6.164
 5496POPC   GL269674  19.061   6.557   6.164
 5496POPC   C1A69675  19.021   6.629   6.464
 5496POPC   D2A69676  19.026   6.686   6.764
 5496POPC   C3A69677  19.030   6.601   7.064
 5496POPC   C4A69678  19.066   6.624   7.364
 5496POPC   C1B69679  18.976   6.375   6.464
 5496POPC   C2B69680  18.971   6.395   6.764
 5496POPC   C3B69681  19.009   6.451   7.064
 5496POPC   C4B69682  19.023   6.372   7.364
 5497POPC   NC369683  12.881  18.294   5.564
 5497POPC   PO469684  12.845  18.276   5.864
 5497POPC   GL169685  12.816  18.276   6.164
 5497POPC   GL269686  12.954  18.208   6.164
 5497POPC   C1A69687  12.852  18.303   6.464
 5497POPC   D2A69688  12.840  18.304   6.764
 5497POPC   C3A69689  12.882  18.307   7.064
 5497POPC   C4A69690  12.840  18.249   7.364
 5497POPC   C1B69691  12.986  18.093   6.464
 5497POPC   C2B69692  12.990  18.057   6.764
 5497POPC   C3B69693  12.991  18.064   7.064
 5497POPC   C4B69694  13.017  18.081   7.364
 5498POPC   NC369695  12.846  34.547   5.564
 5498POPC   PO469696  12.810  34.554   5.864
 5498POPC   GL169697  12.858  34.540   6.164
 5498POPC   GL269698  12.847  34.493   6.164
 5498POPC   C1A69699  12.832  34.600   6.464
 5498POPC   D2A69700  12.814  34.586   6.764
 5498POPC   C3A69701  12.877  34.622   7.064
 5498POPC   C4A69702  12.872  34.549   7.364
 5498POPC   C1B69703  12.763  34.339   6.464
 5498POPC   C2B69704  12.851  34.301   6.764
 5498POPC   C3B69705  12.822  34.371   7.064
 5498POPC   C4B69706  12.792  34.340   7.364
 5499POPC   NC369707  29.137  13.605   5.564
 5499POPC   PO469708  29.161  13.593   5.864
 5499POPC   GL169709  29.142  13.664   6.164
 5499POPC   GL269710  29.092  13.682   6.164
 5499POPC   C1A69711  29.182  13.599   6.464
 5499POPC   D2A69712  29.164  13.619   6.764
 5499POPC   C3A69713  29.105  13.585   7.064
 5499POPC   C4A69714  29.161  13.599   7.364
 5499POPC   C1B69715  28.966  13.839   6.464
 5499POPC   C2B69716  29.037  13.802   6.764
 5499POPC   C3B69717  29.008  13.855   7.064
 5499POPC   C4B69718  28.972  13.825   7.364
 5500POPC   NC369719  26.061  26.792   5.564
 5500POPC   PO469720  26.090  26.803   5.864
 5500POPC   GL169721  26.081  26.828   6.164
 5500POPC   GL269722  26.038  26.914   6.164
 5500POPC   C1A69723  26.087  26.823   6.464
 5500POPC   D2A69724  26.012  26.849   6.764
 5500POPC   C3A69725  26.040  26.804   7.064
 5500POPC   C4A69726  26.008  26.860   7.364
 5500POPC   C1B69727  25.933  27.089   6.464
 5500POPC   C2B69728  25.993  27.045   6.764
 5500POPC   C3B69729  25.993  27.084   7.064
 5500POPC   C4B69730  25.993  27.092   7.364
 5501POPC   NC369731  40.826   2.014   5.564
 5501POPC   PO469732  40.818   1.974   5.864
 5501POPC   GL169733  40.741   1.981   6.164
 5501POPC   GL269734  40.895   1.998   6.164
 5501POPC   C1A69735  40.773   1.940   6.464
 5501POPC   D2A69736  40.790   1.972   6.764
 5501POPC   C3A69737  40.796   1.991   7.064
 5501POPC   C4A69738  40.765   1.975   7.364
 5501POPC   C1B69739  41.028   2.066   6.464
 5501POPC   C2B69740  40.998   2.020   6.764
 5501POPC   C3B69741  41.036   2.094   7.064
 5501POPC   C4B69742  41.058   2.076   7.364
 5502POPC   NC369743  36.944  29.884   5.564
 5502POPC   PO469744  36.896  29.923   5.864
 5502POPC   GL169745  36.870  29.958   6.164
 5502POPC   GL269746  36.959  30.041   6.164
 5502POPC   C1A69747  36.905  29.885   6.464
 5502POPC   D2A69748  36.888  29.927   6.764
 5502POPC   C3A69749  36.867  29.879   7.064
 5502POPC   C4A69750  36.872  29.956   7.364
 5502POPC   C1B69751  37.075  30.145   6.464
 5502POPC   C2B69752  37.088  30.173   6.764
 5502POPC   C3B69753  37.064  30.078   7.064
 5502POPC   C4B69754  37.027  30.142   7.364
 5503POPC   NC369755  30.670  42.366   5.564
 5503POPC   PO469756  30.744  42.328   5.864
 5503POPC   GL169757  30.689  42.287   6.164
 5503POPC   GL269758  30.790  42.355   6.164
 5503POPC   C1A69759  30.698  42.303   6.464
 5503POPC   D2A69760  30.738  42.375   6.764
 5503POPC   C3A69761  30.656  42.303   7.064
 5503POPC   C4A69762  30.675  42.322   7.364
 5503POPC   C1B69763  30.978  42.287   6.464
 5503POPC   C2B69764  30.985  42.334   6.764
 5503POPC   C3B69765  30.920  42.285   7.064
 5503POPC   C4B69766  30.962  42.281   7.364
 5504POPC   NC369767  44.708   0.403   5.564
 5504POPC   PO469768  44.694   0.413   5.864
 5504POPC   GL169769  44.622   0.479   6.164
 5504POPC   GL269770  44.763   0.546   6.164
 5504POPC   C1A69771  44.704   0.402   6.464
 5504POPC   D2A69772  44.708   0.418   6.764
 5504POPC   C3A69773  44.622   0.416   7.064
 5504POPC   C4A69774  44.693   0.454   7.364
 5504POPC   C1B69775  44.834   0.603   6.464
 5504POPC   C2B69776  44.810   0.634   6.764
 5504POPC   C3B69777  44.772   0.672   7.064
 5504POPC   C4B69778  44.773   0.671   7.364
 5505POPC   NC369779  29.891  20.585   5.564
 5505POPC   PO469780  29.933  20.613   5.864
 5505POPC   GL169781  29.892  20.598   6.164
 5505POPC   GL269782  29.825  20.737   6.164
 5505POPC   C1A69783  29.952  20.615   6.464
 5505POPC   D2A69784  29.960  20.648   6.764
 5505POPC   C3A69785  29.930  20.615   7.064
 5505POPC   C4A69786  29.966  20.574   7.364
 5505POPC   C1B69787  29.812  20.834   6.464
 5505POPC   C2B69788  29.788  20.831   6.764
 5505POPC   C3B69789  29.771  20.786   7.064
 5505POPC   C4B69790  29.789  20.754   7.364
 5506POPC   NC369791  25.303  25.243   5.564
 5506POPC   PO469792  25.266  25.249   5.864
 5506POPC   GL169793  25.244  25.224   6.164
 5506POPC   GL269794  25.213  25.400   6.164
 5506POPC   C1A69795  25.292  25.245   6.464
 5506POPC   D2A69796  25.304  25.277   6.764
 5506POPC   C3A69797  25.274  25.293   7.064
 5506POPC   C4A69798  25.281  25.304   7.364
 5506POPC   C1B69799  25.066  25.480   6.464
 5506POPC   C2B69800  25.049  25.467   6.764
 5506POPC   C3B69801  25.083  25.418   7.064
 5506POPC   C4B69802  25.128  25.466   7.364
 5507POPC   NC369803   9.779  29.926   5.564
 5507POPC   PO469804   9.772  29.945   5.864
 5507POPC   GL169805   9.707  29.956   6.164
 5507POPC   GL269806   9.663  30.030   6.164
 5507POPC   C1A69807   9.737  29.967   6.464
 5507POPC   D2A69808   9.706  29.881   6.764
 5507POPC   C3A69809   9.780  29.947   7.064
 5507POPC   C4A69810   9.775  29.952   7.364
 5507POPC   C1B69811   9.534  30.069   6.464
 5507POPC   C2B69812   9.604  30.140   6.764
 5507POPC   C3B69813   9.596  30.084   7.064
 5507POPC   C4B69814   9.541  30.100   7.364
 5508POPC   NC369815   5.101  24.454   5.564
 5508POPC   PO469816   5.086  24.497   5.864
 5508POPC   GL169817   5.125  24.442   6.164
 5508POPC   GL269818   4.966  24.423   6.164
 5508POPC   C1A69819   5.086  24.515   6.464
 5508POPC   D2A69820   5.111  24.483   6.764
 5508POPC   C3A69821   5.121  24.513   7.064
 5508POPC   C4A69822   5.123  24.472   7.364
 5508POPC   C1B69823   4.884  24.349   6.464
 5508POPC   C2B69824   4.897  24.304   6.764
 5508POPC   C3B69825   4.899  24.264   7.064
 5508POPC   C4B69826   4.956  24.302   7.364
 5509POPC   NC369827  34.543  16.732   5.564
 5509POPC   PO469828  34.597  16.719   5.864
 5509POPC   GL169829  34.612  16.766   6.164
 5509POPC   GL269830  34.591  16.620   6.164
 5509POPC   C1A69831  34.554  16.723   6.464
 5509POPC   D2A69832  34.553  16.701   6.764
 5509POPC   C3A69833  34.529  16.700   7.064
 5509POPC   C4A69834  34.611  16.744   7.364
 5509POPC   C1B69835  34.531  16.479   6.464
 5509POPC   C2B69836  34.524  16.460   6.764
 5509POPC   C3B69837  34.503  16.518   7.064
 5509POPC   C4B69838  34.580  16.465   7.364
 5510POPC   NC369839  44.690  19.830   5.564
 5510POPC   PO469840  44.652  19.858   5.864
 5510POPC   GL169841  44.684  19.859   6.164
 5510POPC   GL269842  44.569  19.860   6.164
 5510POPC   C1A69843  44.647  19.813   6.464
 5510POPC   D2A69844  44.648  19.881   6.764
 5510POPC   C3A69845  44.710  19.813   7.064
 5510POPC   C4A69846  44.663  19.834   7.364
 5510POPC   C1B69847  44.462  20.006   6.464
 5510POPC   C2B69848  44.424  20.008   6.764
 5510POPC   C3B69849  44.408  19.966   7.064
 5510POPC   C4B69850  44.438  19.968   7.364
 5511POPC   NC369851   1.951  39.231   5.564
 5511POPC   PO469852   2.018  39.207   5.864
 5511POPC   GL169853   1.954  39.267   6.164
 5511POPC   GL269854   1.882  39.186   6.164
 5511POPC   C1A69855   1.950  39.195   6.464
 5511POPC   D2A69856   2.037  39.267   6.764
 5511POPC   C3A69857   1.984  39.190   7.064
 5511POPC   C4A69858   1.958  39.242   7.364
 5511POPC   C1B69859   1.765  39.197   6.464
 5511POPC   C2B69860   1.730  39.157   6.764
 5511POPC   C3B69861   1.795  39.146   7.064
 5511POPC   C4B69862   1.739  39.179   7.364
 5512POPC   NC369863  40.023  13.658   5.564
 5512POPC   PO469864  40.005  13.584   5.864
 5512POPC   GL169865  40.026  13.584   6.164
 5512POPC   GL269866  40.011  13.508   6.164
 5512POPC   C1A69867  40.023  13.631   6.464
 5512POPC   D2A69868  39.975  13.629   6.764
 5512POPC   C3A69869  40.032  13.677   7.064
 5512POPC   C4A69870  39.996  13.663   7.364
 5512POPC   C1B69871  39.958  13.415   6.464
 5512POPC   C2B69872  39.888  13.439   6.764
 5512POPC   C3B69873  39.932  13.410   7.064
 5512POPC   C4B69874  39.881  13.366   7.364
 5513POPC   NC369875  20.602   0.442   5.564
 5513POPC   PO469876  20.626   0.473   5.864
 5513POPC   GL169877  20.593   0.455   6.164
 5513POPC   GL269878  20.694   0.332   6.164
 5513POPC   C1A69879  20.600   0.472   6.464
 5513POPC   D2A69880  20.569   0.390   6.764
 5513POPC   C3A69881  20.610   0.462   7.064
 5513POPC   C4A69882  20.581   0.412   7.364
 5513POPC   C1B69883  20.776   0.271   6.464
 5513POPC   C2B69884  20.785   0.227   6.764
 5513POPC   C3B69885  20.766   0.236   7.064
 5513POPC   C4B69886  20.800   0.233   7.364
 5514POPC   NC369887   8.952  10.481   5.564
 5514POPC   PO469888   8.972  10.496   5.864
 5514POPC   GL169889   8.977  10.551   6.164
 5514POPC   GL269890   9.032  10.598   6.164
 5514POPC   C1A69891   8.931  10.518   6.464
 5514POPC   D2A69892   8.962  10.523   6.764
 5514POPC   C3A69893   8.924  10.560   7.064
 5514POPC   C4A69894   8.974  10.566   7.364
 5514POPC   C1B69895   9.165  10.651   6.464
 5514POPC   C2B69896   9.218  10.715   6.764
 5514POPC   C3B69897   9.142  10.656   7.064
 5514POPC   C4B69898   9.188  10.657   7.364
 5515POPC   NC369899  36.165  36.877   5.564
 5515POPC   PO469900  36.135  36.887   5.864
 5515POPC   GL169901  36.126  36.891   6.164
 5515POPC   GL269902  36.195  36.982   6.164
 5515POPC   C1A69903  36.119  36.891   6.464
 5515POPC   D2A69904  36.102  36.895   6.764
 5515POPC   C3A69905  36.111  36.895   7.064
 5515POPC   C4A69906  36.149  36.897   7.364
 5515POPC   C1B69907  36.357  37.037   6.464
 5515POPC   C2B69908  36.373  37.041   6.764
 5515POPC   C3B69909  36.348  37.060   7.064
 5515POPC   C4B69910  36.336  37.086   7.364
 5516POPC   NC369911  18.322  36.171   5.564
 5516POPC   PO469912  18.253  36.154   5.864
 5516POPC   GL169913  18.330  36.147   6.164
 5516POPC   GL269914  18.216  36.028   6.164
 5516POPC   C1A69915  18.329  36.124   6.464
 5516POPC   D2A69916  18.238  36.115   6.764
 5516POPC   C3A69917  18.303  36.152   7.064
 5516POPC   C4A69918  18.291  36.167   7.364
 5516POPC   C1B69919  18.193  35.936   6.464
 5516POPC   C2B69920  18.118  35.871   6.764
 5516POPC   C3B69921  18.125  35.876   7.064
 5516POPC   C4B69922  18.132  35.888   7.364
 5517POPC   NC369923  43.855   8.235   5.564
 5517POPC   PO469924  43.921   8.238   5.864
 5517POPC   GL169925  43.916   8.217   6.164
 5517POPC   GL269926  43.987   8.176   6.164
 5517POPC   C1A69927  43.905   8.204   6.464
 5517POPC   D2A69928  43.902   8.238   6.764
 5517POPC   C3A69929  43.881   8.149   7.064
 5517POPC   C4A69930  43.895   8.183   7.364
 5517POPC   C1B69931  44.109   8.087   6.464
 5517POPC   C2B69932  44.093   8.114   6.764
 5517POPC   C3B69933  44.119   8.092   7.064
 5517POPC   C4B69934  44.088   8.119   7.364
 5518POPC   NC369935  30.731  19.878   5.564
 5518POPC   PO469936  30.714  19.882   5.864
 5518POPC   GL169937  30.712  19.802   6.164
 5518POPC   GL269938  30.754  19.939   6.164
 5518POPC   C1A69939  30.717  19.841   6.464
 5518POPC   D2A69940  30.674  19.830   6.764
 5518POPC   C3A69941  30.725  19.859   7.064
 5518POPC   C4A69942  30.727  19.864   7.364
 5518POPC   C1B69943  30.758  20.057   6.464
 5518POPC   C2B69944  30.818  20.079   6.764
 5518POPC   C3B69945  30.763  20.116   7.064
 5518POPC   C4B69946  30.719  20.030   7.364
 5519POPC   NC369947  12.117  36.857   5.564
 5519POPC   PO469948  12.110  36.877   5.864
 5519POPC   GL169949  12.040  36.894   6.164
 5519POPC   GL269950  12.176  37.018   6.164
 5519POPC   C1A69951  12.031  36.868   6.464
 5519POPC   D2A69952  12.071  36.885   6.764
 5519POPC   C3A69953  12.037  36.896   7.064
 5519POPC   C4A69954  12.073  36.952   7.364
 5519POPC   C1B69955  12.229  37.129   6.464
 5519POPC   C2B69956  12.163  37.176   6.764
 5519POPC   C3B69957  12.166  37.109   7.064
 5519POPC   C4B69958  12.217  37.107   7.364
 5520POPC   NC369959   1.947  19.038   5.564
 5520POPC   PO469960   1.943  19.046   5.864
 5520POPC   GL169961   1.974  19.081   6.164
 5520POPC   GL269962   1.926  19.105   6.164
 5520POPC   C1A69963   1.973  19.108   6.464
 5520POPC   D2A69964   2.007  19.076   6.764
 5520POPC   C3A69965   2.038  19.099   7.064
 5520POPC   C4A69966   1.941  19.098   7.364
 5520POPC   C1B69967   1.796  19.194   6.464
 5520POPC   C2B69968   1.736  19.169   6.764
 5520POPC   C3B69969   1.793  19.192   7.064
 5520POPC   C4B69970   1.798  19.182   7.364
 5521POPC   NC369971  22.959  42.323   5.564
 5521POPC   PO469972  22.974  42.376   5.864
 5521POPC   GL169973  22.905  42.343   6.164
 5521POPC   GL269974  23.053  42.344   6.164
 5521POPC   C1A69975  22.919  42.339   6.464
 5521POPC   D2A69976  22.897  42.383   6.764
 5521POPC   C3A69977  22.898  42.340   7.064
 5521POPC   C4A69978  22.939  42.362   7.364
 5521POPC   C1B69979  23.141  42.400   6.464
 5521POPC   C2B69980  23.216  42.355   6.764
 5521POPC   C3B69981  23.179  42.418   7.064
 5521POPC   C4B69982  23.168  42.447   7.364
 5522POPC   NC369983  40.793  29.878   5.564
 5522POPC   PO469984  40.776  29.913   5.864
 5522POPC   GL169985  40.824  29.942   6.164
 5522POPC   GL269986  40.801  29.747   6.164
 5522POPC   C1A69987  40.741  29.874   6.464
 5522POPC   D2A69988  40.791  29.970   6.764
 5522POPC   C3A69989  40.809  29.964   7.064
 5522POPC   C4A69990  40.794  29.945   7.364
 5522POPC   C1B69991  40.774  29.630   6.464
 5522POPC   C2B69992  40.850  29.699   6.764
 5522POPC   C3B69993  40.868  29.687   7.064
 5522POPC   C4B69994  40.844  29.660   7.364
 5523POPC   NC369995  36.169   3.509   5.564
 5523POPC   PO469996  36.078   3.585   5.864
 5523POPC   GL169997  36.126   3.505   6.164
 5523POPC   GL269998  36.014   3.450   6.164
 5523POPC   C1A69999  36.151   3.538   6.464
 5523POPC   D2A70000  36.087   3.586   6.764
 5523POPC   C3A70001  36.155   3.543   7.064
 5523POPC   C4A70002  36.156   3.574   7.364
 5523POPC   C1B70003  35.950   3.448   6.464
 5523POPC   C2B70004  35.889   3.402   6.764
 5523POPC   C3B70005  35.938   3.401   7.064
 5523POPC   C4B70006  35.892   3.448   7.364
 5524POPC   NC370007   9.002  40.006   5.564
 5524POPC   PO470008   8.948  40.000   5.864
 5524POPC   GL170009   8.973  40.020   6.164
 5524POPC   GL270010   9.086  40.023   6.164
 5524POPC   C1A70011   9.015  39.994   6.464
 5524POPC   D2A70012   8.990  40.019   6.764
 5524POPC   C3A70013   8.987  40.024   7.064
 5524POPC   C4A70014   8.993  40.037   7.364
 5524POPC   C1B70015   9.229  40.071   6.464
 5524POPC   C2B70016   9.225  40.011   6.764
 5524POPC   C3B70017   9.177  40.006   7.064
 5524POPC   C4B70018   9.251  40.019   7.364
 5525POPC   NC370019   2.759  31.471   5.564
 5525POPC   PO470020   2.726  31.496   5.864
 5525POPC   GL170021   2.804  31.513   6.164
 5525POPC   GL270022   2.799  31.380   6.164
 5525POPC   C1A70023   2.730  31.489   6.464
 5525POPC   D2A70024   2.755  31.424   6.764
 5525POPC   C3A70025   2.762  31.428   7.064
 5525POPC   C4A70026   2.747  31.442   7.364
 5525POPC   C1B70027   2.843  31.281   6.464
 5525POPC   C2B70028   2.866  31.238   6.764
 5525POPC   C3B70029   2.840  31.203   7.064
 5525POPC   C4B70030   2.860  31.214   7.364
 5526POPC   NC370031  19.808   5.045   5.564
 5526POPC   PO470032  19.849   5.058   5.864
 5526POPC   GL170033  19.838   5.051   6.164
 5526POPC   GL270034  19.721   4.997   6.164
 5526POPC   C1A70035  19.866   5.110   6.464
 5526POPC   D2A70036  19.836   5.067   6.764
 5526POPC   C3A70037  19.785   5.087   7.064
 5526POPC   C4A70038  19.832   5.098   7.364
 5526POPC   C1B70039  19.603   4.909   6.464
 5526POPC   C2B70040  19.656   4.945   6.764
 5526POPC   C3B70041  19.587   4.954   7.064
 5526POPC   C4B70042  19.653   4.899   7.364
 5527POPC   NC370043  30.665  38.499   5.564
 5527POPC   PO470044  30.704  38.440   5.864
 5527POPC   GL170045  30.670  38.444   6.164
 5527POPC   GL270046  30.678  38.577   6.164
 5527POPC   C1A70047  30.713  38.444   6.464
 5527POPC   D2A70048  30.666  38.452   6.764
 5527POPC   C3A70049  30.712  38.490   7.064
 5527POPC   C4A70050  30.702  38.462   7.364
 5527POPC   C1B70051  30.579  38.687   6.464
 5527POPC   C2B70052  30.569  38.703   6.764
 5527POPC   C3B70053  30.600  38.704   7.064
 5527POPC   C4B70054  30.540  38.697   7.364
 5528POPC   NC370055  32.275  36.146   5.564
 5528POPC   PO470056  32.281  36.135   5.864
 5528POPC   GL170057  32.204  36.129   6.164
 5528POPC   GL270058  32.120  36.051   6.164
 5528POPC   C1A70059  32.285  36.138   6.464
 5528POPC   D2A70060  32.209  36.114   6.764
 5528POPC   C3A70061  32.241  36.167   7.064
 5528POPC   C4A70062  32.286  36.169   7.364
 5528POPC   C1B70063  32.101  35.937   6.464
 5528POPC   C2B70064  32.017  35.939   6.764
 5528POPC   C3B70065  32.079  35.937   7.064
 5528POPC   C4B70066  32.098  35.927   7.364
 5529POPC   NC370067  12.842  22.896   5.564
 5529POPC   PO470068  12.862  22.913   5.864
 5529POPC   GL170069  12.807  22.930   6.164
 5529POPC   GL270070  12.926  22.869   6.164
 5529POPC   C1A70071  12.871  22.911   6.464
 5529POPC   D2A70072  12.861  22.966   6.764
 5529POPC   C3A70073  12.823  22.956   7.064
 5529POPC   C4A70074  12.897  22.984   7.364
 5529POPC   C1B70075  12.971  22.665   6.464
 5529POPC   C2B70076  12.944  22.729   6.764
 5529POPC   C3B70077  12.929  22.739   7.064
 5529POPC   C4B70078  12.980  22.756   7.364
 5530POPC   NC370079   3.524  43.109   5.564
 5530POPC   PO470080   3.588  43.158   5.864
 5530POPC   GL170081   3.549  43.147   6.164
 5530POPC   GL270082   3.634  42.982   6.164
 5530POPC   C1A70083   3.513  43.100   6.464
 5530POPC   D2A70084   3.534  43.093   6.764
 5530POPC   C3A70085   3.536  43.082   7.064
 5530POPC   C4A70086   3.555  43.095   7.364
 5530POPC   C1B70087   3.715  42.924   6.464
 5530POPC   C2B70088   3.702  42.868   6.764
 5530POPC   C3B70089   3.677  42.921   7.064
 5530POPC   C4B70090   3.680  42.919   7.364
 5531POPC   NC370091  25.251  38.413   5.564
 5531POPC   PO470092  25.299  38.431   5.864
 5531POPC   GL170093  25.309  38.500   6.164
 5531POPC   GL270094  25.275  38.552   6.164
 5531POPC   C1A70095  25.245  38.469   6.464
 5531POPC   D2A70096  25.300  38.501   6.764
 5531POPC   C3A70097  25.233  38.460   7.064
 5531POPC   C4A70098  25.303  38.419   7.364
 5531POPC   C1B70099  25.176  38.703   6.464
 5531POPC   C2B70100  25.174  38.744   6.764
 5531POPC   C3B70101  25.184  38.745   7.064
 5531POPC   C4B70102  25.246  38.701   7.364
 5532POPC   NC370103  39.216   0.469   5.564
 5532POPC   PO470104  39.280   0.470   5.864
 5532POPC   GL170105  39.236   0.460   6.164
 5532POPC   GL270106  39.171   0.512   6.164
 5532POPC   C1A70107  39.210   0.452   6.464
 5532POPC   D2A70108  39.237   0.394   6.764
 5532POPC   C3A70109  39.243   0.417   7.064
 5532POPC   C4A70110  39.206   0.458   7.364
 5532POPC   C1B70111  39.028   0.645   6.464
 5532POPC   C2B70112  39.065   0.587   6.764
 5532POPC   C3B70113  38.997   0.642   7.064
 5532POPC   C4B70114  39.019   0.606   7.364
 5533POPC   NC370115  10.535  27.624   5.564
 5533POPC   PO470116  10.519  27.618   5.864
 5533POPC   GL170117  10.528  27.612   6.164
 5533POPC   GL270118  10.607  27.539   6.164
 5533POPC   C1A70119  10.569  27.553   6.464
 5533POPC   D2A70120  10.570  27.602   6.764
 5533POPC   C3A70121  10.500  27.639   7.064
 5533POPC   C4A70122  10.484  27.641   7.364
 5533POPC   C1B70123  10.661  27.375   6.464
 5533POPC   C2B70124  10.736  27.419   6.764
 5533POPC   C3B70125  10.717  27.378   7.064
 5533POPC   C4B70126  10.654  27.412   7.364
 5534POPC   NC370127  30.652  29.183   5.564
 5534POPC   PO470128  30.706  29.130   5.864
 5534POPC   GL170129  30.700  29.152   6.164
 5534POPC   GL270130  30.628  29.253   6.164
 5534POPC   C1A70131  30.711  29.107   6.464
 5534POPC   D2A70132  30.664  29.152   6.764
 5534POPC   C3A70133  30.713  29.136   7.064
 5534POPC   C4A70134  30.731  29.146   7.364
 5534POPC   C1B70135  30.585  29.370   6.464
 5534POPC   C2B70136  30.641  29.401   6.764
 5534POPC   C3B70137  30.602  29.402   7.064
 5534POPC   C4B70138  30.632  29.395   7.364
 5535POPC   NC370139  12.063  28.395   5.564
 5535POPC   PO470140  12.125  28.350   5.864
 5535POPC   GL170141  12.061  28.348   6.164
 5535POPC   GL270142  12.205  28.404   6.164
 5535POPC   C1A70143  12.124  28.413   6.464
 5535POPC   D2A70144  12.049  28.413   6.764
 5535POPC   C3A70145  12.118  28.362   7.064
 5535POPC   C4A70146  12.122  28.344   7.364
 5535POPC   C1B70147  12.361  28.425   6.464
 5535POPC   C2B70148  12.279  28.458   6.764
 5535POPC   C3B70149  12.285  28.441   7.064
 5535POPC   C4B70150  12.322  28.445   7.364
 5536POPC   NC370151  15.132   9.748   5.564
 5536POPC   PO470152  15.146   9.775   5.864
 5536POPC   GL170153  15.222   9.788   6.164
 5536POPC   GL270154  15.274   9.789   6.164
 5536POPC   C1A70155  15.227   9.783   6.464
 5536POPC   D2A70156  15.191   9.757   6.764
 5536POPC   C3A70157  15.145   9.724   7.064
 5536POPC   C4A70158  15.146   9.731   7.364
 5536POPC   C1B70159  15.413   9.737   6.464
 5536POPC   C2B70160  15.447   9.727   6.764
 5536POPC   C3B70161  15.458   9.717   7.064
 5536POPC   C4B70162  15.380   9.730   7.364
 5537POPC   NC370163  16.689  33.027   5.564
 5537POPC   PO470164  16.762  33.008   5.864
 5537POPC   GL170165  16.725  33.074   6.164
 5537POPC   GL270166  16.696  33.086   6.164
 5537POPC   C1A70167  16.747  32.981   6.464
 5537POPC   D2A70168  16.743  32.996   6.764
 5537POPC   C3A70169  16.764  32.980   7.064
 5537POPC   C4A70170  16.775  33.011   7.364
 5537POPC   C1B70171  16.592  33.249   6.464
 5537POPC   C2B70172  16.539  33.182   6.764
 5537POPC   C3B70173  16.599  33.167   7.064
 5537POPC   C4B70174  16.526  33.248   7.364
 5538POPC   NC370175  40.003  42.353   5.564
 5538POPC   PO470176  39.983  42.287   5.864
 5538POPC   GL170177  40.026  42.345   6.164
 5538POPC   GL270178  40.052  42.437   6.164
 5538POPC   C1A70179  40.032  42.379   6.464
 5538POPC   D2A70180  40.053  42.357   6.764
 5538POPC   C3A70181  39.961  42.341   7.064
 5538POPC   C4A70182  39.983  42.323   7.364
 5538POPC   C1B70183  40.084  42.530   6.464
 5538POPC   C2B70184  40.059  42.614   6.764
 5538POPC   C3B70185  40.112  42.549   7.064
 5538POPC   C4B70186  40.105  42.554   7.364
 5539POPC   NC370187  36.169  38.484   5.564
 5539POPC   PO470188  36.116  38.501   5.864
 5539POPC   GL170189  36.093  38.457   6.164
 5539POPC   GL270190  36.048  38.565   6.164
 5539POPC   C1A70191  36.115  38.433   6.464
 5539POPC   D2A70192  36.148  38.459   6.764
 5539POPC   C3A70193  36.123  38.488   7.064
 5539POPC   C4A70194  36.152  38.432   7.364
 5539POPC   C1B70195  35.957  38.621   6.464
 5539POPC   C2B70196  36.012  38.647   6.764
 5539POPC   C3B70197  35.982  38.684   7.064
 5539POPC   C4B70198  35.981  38.636   7.364
 5540POPC   NC370199   3.539   0.433   5.564
 5540POPC   PO470200   3.564   0.450   5.864
 5540POPC   GL170201   3.516   0.482   6.164
 5540POPC   GL270202   3.447   0.456   6.164
 5540POPC   C1A70203   3.562   0.430   6.464
 5540POPC   D2A70204   3.532   0.398   6.764
 5540POPC   C3A70205   3.542   0.436   7.064
 5540POPC   C4A70206   3.492   0.473   7.364
 5540POPC   C1B70207   3.274   0.435   6.464
 5540POPC   C2B70208   3.249   0.502   6.764
 5540POPC   C3B70209   3.287   0.421   7.064
 5540POPC   C4B70210   3.293   0.464   7.364
 5541POPC   NC370211   6.637  36.936   5.564
 5541POPC   PO470212   6.610  36.879   5.864
 5541POPC   GL170213   6.684  36.943   6.164
 5541POPC   GL270214   6.737  36.911   6.164
 5541POPC   C1A70215   6.688  36.953   6.464
 5541POPC   D2A70216   6.636  36.917   6.764
 5541POPC   C3A70217   6.638  36.939   7.064
 5541POPC   C4A70218   6.605  36.922   7.364
 5541POPC   C1B70219   6.888  36.907   6.464
 5541POPC   C2B70220   6.932  36.845   6.764
 5541POPC   C3B70221   6.921  36.887   7.064
 5541POPC   C4B70222   6.859  36.864   7.364
 5542POPC   NC370223  15.961  30.725   5.564
 5542POPC   PO470224  15.933  30.683   5.864
 5542POPC   GL170225  15.917  30.710   6.164
 5542POPC   GL270226  15.810  30.715   6.164
 5542POPC   C1A70227  15.972  30.723   6.464
 5542POPC   D2A70228  15.972  30.725   6.764
 5542POPC   C3A70229  15.994  30.737   7.064
 5542POPC   C4A70230  15.982  30.718   7.364
 5542POPC   C1B70231  15.672  30.701   6.464
 5542POPC   C2B70232  15.710  30.746   6.764
 5542POPC   C3B70233  15.669  30.744   7.064
 5542POPC   C4B70234  15.734  30.670   7.364
 5543POPC   NC370235   1.200   2.731   5.564
 5543POPC   PO470236   1.178   2.728   5.864
 5543POPC   GL170237   1.223   2.802   6.164
 5543POPC   GL270238   1.210   2.913   6.164
 5543POPC   C1A70239   1.253   2.775   6.464
 5543POPC   D2A70240   1.218   2.759   6.764
 5543POPC   C3A70241   1.258   2.800   7.064
 5543POPC   C4A70242   1.223   2.813   7.364
 5543POPC   C1B70243   1.092   3.003   6.464
 5543POPC   C2B70244   1.101   3.017   6.764
 5543POPC   C3B70245   1.177   2.969   7.064
 5543POPC   C4B70246   1.102   2.953   7.364
 5544POPC   NC370247  42.324   5.057   5.564
 5544POPC   PO470248  42.378   5.059   5.864
 5544POPC   GL170249  42.370   5.078   6.164
 5544POPC   GL270250  42.395   4.923   6.164
 5544POPC   C1A70251  42.384   5.139   6.464
 5544POPC   D2A70252  42.324   5.066   6.764
 5544POPC   C3A70253  42.334   5.052   7.064
 5544POPC   C4A70254  42.317   5.080   7.364
 5544POPC   C1B70255  42.389   4.890   6.464
 5544POPC   C2B70256  42.396   4.857   6.764
 5544POPC   C3B70257  42.347   4.864   7.064
 5544POPC   C4B70258  42.361   4.895   7.364
 5545POPC   NC370259  40.039  19.872   5.564
 5545POPC   PO470260  39.960  19.789   5.864
 5545POPC   GL170261  40.030  19.799   6.164
 5545POPC   GL270262  39.842  19.863   6.164
 5545POPC   C1A70263  40.010  19.884   6.464
 5545POPC   D2A70264  39.980  19.818   6.764
 5545POPC   C3A70265  40.005  19.875   7.064
 5545POPC   C4A70266  39.985  19.847   7.364
 5545POPC   C1B70267  39.793  19.810   6.464
 5545POPC   C2B70268  39.797  19.814   6.764
 5545POPC   C3B70269  39.780  19.768   7.064
 5545POPC   C4B70270  39.774  19.857   7.364
 5546POPC   NC370271  40.010  23.742   5.564
 5546POPC   PO470272  39.998  23.678   5.864
 5546POPC   GL170273  39.958  23.683   6.164
 5546POPC   GL270274  40.110  23.622   6.164
 5546POPC   C1A70275  40.026  23.674   6.464
 5546POPC   D2A70276  39.994  23.678   6.764
 5546POPC   C3A70277  39.966  23.763   7.064
 5546POPC   C4A70278  40.038  23.666   7.364
 5546POPC   C1B70279  40.082  23.464   6.464
 5546POPC   C2B70280  40.139  23.501   6.764
 5546POPC   C3B70281  40.126  23.507   7.064
 5546POPC   C4B70282  40.112  23.499   7.364
 5547POPC   NC370283   7.384  32.217   5.564
 5547POPC   PO470284   7.413  32.231   5.864
 5547POPC   GL170285   7.379  32.216   6.164
 5547POPC   GL270286   7.548  32.328   6.164
 5547POPC   C1A70287   7.387  32.242   6.464
 5547POPC   D2A70288   7.388  32.240   6.764
 5547POPC   C3A70289   7.401  32.212   7.064
 5547POPC   C4A70290   7.468  32.297   7.364
 5547POPC   C1B70291   7.616  32.382   6.464
 5547POPC   C2B70292   7.598  32.419   6.764
 5547POPC   C3B70293   7.635  32.459   7.064
 5547POPC   C4B70294   7.637  32.459   7.364
 5548POPC   NC370295   8.178  12.885   5.564
 5548POPC   PO470296   8.151  12.859   5.864
 5548POPC   GL170297   8.220  12.867   6.164
 5548POPC   GL270298   8.106  12.930   6.164
 5548POPC   C1A70299   8.193  12.879   6.464
 5548POPC   D2A70300   8.235  12.888   6.764
 5548POPC   C3A70301   8.205  12.876   7.064
 5548POPC   C4A70302   8.197  12.886   7.364
 5548POPC   C1B70303   8.013  12.991   6.464
 5548POPC   C2B70304   7.965  13.007   6.764
 5548POPC   C3B70305   7.955  12.992   7.064
 5548POPC   C4B70306   8.026  12.943   7.364
 5549POPC   NC370307  29.879  14.383   5.564
 5549POPC   PO470308  29.912  14.403   5.864
 5549POPC   GL170309  29.950  14.450   6.164
 5549POPC   GL270310  29.864  14.499   6.164
 5549POPC   C1A70311  29.894  14.407   6.464
 5549POPC   D2A70312  29.953  14.364   6.764
 5549POPC   C3A70313  29.891  14.432   7.064
 5549POPC   C4A70314  29.943  14.390   7.364
 5549POPC   C1B70315  29.873  14.676   6.464
 5549POPC   C2B70316  29.829  14.651   6.764
 5549POPC   C3B70317  29.877  14.609   7.064
 5549POPC   C4B70318  29.852  14.678   7.364
 5550POPC   NC370319  15.940   1.207   5.564
 5550POPC   PO470320  15.997   1.174   5.864
 5550POPC   GL170321  15.995   1.195   6.164
 5550POPC   GL270322  15.886   1.096   6.164
 5550POPC   C1A70323  15.925   1.172   6.464
 5550POPC   D2A70324  15.951   1.216   6.764
 5550POPC   C3A70325  15.955   1.261   7.064
 5550POPC   C4A70326  15.972   1.208   7.364
 5550POPC   C1B70327  15.822   1.031   6.464
 5550POPC   C2B70328  15.855   1.018   6.764
 5550POPC   C3B70329  15.812   1.040   7.064
 5550POPC   C4B70330  15.803   1.002   7.364
 5551POPC   NC370331  20.575  40.015   5.564
 5551POPC   PO470332  20.660  40.018   5.864
 5551POPC   GL170333  20.563  40.035   6.164
 5551POPC   GL270334  20.621  39.872   6.164
 5551POPC   C1A70335  20.584  40.038   6.464
 5551POPC   D2A70336  20.628  39.994   6.764
 5551POPC   C3A70337  20.641  39.971   7.064
 5551POPC   C4A70338  20.633  39.986   7.364
 5551POPC   C1B70339  20.674  39.756   6.464
 5551POPC   C2B70340  20.687  39.748   6.764
 5551POPC   C3B70341  20.643  39.808   7.064
 5551POPC   C4B70342  20.694  39.800   7.364
 5552POPC   NC370343  30.721  18.271   5.564
 5552POPC   PO470344  30.716  18.327   5.864
 5552POPC   GL170345  30.716  18.292   6.164
 5552POPC   GL270346  30.629  18.330   6.164
 5552POPC   C1A70347  30.704  18.295   6.464
 5552POPC   D2A70348  30.719  18.238   6.764
 5552POPC   C3A70349  30.701  18.260   7.064
 5552POPC   C4A70350  30.665  18.328   7.364
 5552POPC   C1B70351  30.521  18.489   6.464
 5552POPC   C2B70352  30.556  18.494   6.764
 5552POPC   C3B70353  30.565  18.504   7.064
 5552POPC   C4B70354  30.512  18.476   7.364
 5553POPC   NC370355  28.338  44.705   5.564
 5553POPC   PO470356  28.328  44.632   5.864
 5553POPC   GL170357  28.412  44.666   6.164
 5553POPC   GL270358  28.486  44.588   6.164
 5553POPC   C1A70359  28.400  44.642   6.464
 5553POPC   D2A70360  28.418  44.694   6.764
 5553POPC   C3A70361  28.412  44.701   7.064
 5553POPC   C4A70362  28.367  44.639   7.364
 5553POPC   C1B70363  28.646  44.587   6.464
 5553POPC   C2B70364  28.594  44.550   6.764
 5553POPC   C3B70365  28.571  44.598   7.064
 5553POPC   C4B70366  28.562  44.629   7.364
 5554POPC   NC370367   2.795  19.086   5.564
 5554POPC   PO470368   2.773  19.081   5.864
 5554POPC   GL170369   2.743  19.079   6.164
 5554POPC   GL270370   2.655  18.977   6.164
 5554POPC   C1A70371   2.781  19.068   6.464
 5554POPC   D2A70372   2.801  19.104   6.764
 5554POPC   C3A70373   2.806  19.045   7.064
 5554POPC   C4A70374   2.785  19.010   7.364
 5554POPC   C1B70375   2.586  18.922   6.464
 5554POPC   C2B70376   2.603  18.876   6.764
 5554POPC   C3B70377   2.629  18.856   7.064
 5554POPC   C4B70378   2.565  18.863   7.364
 5555POPC   NC370379  11.255  43.933   5.564
 5555POPC   PO470380  11.254  43.876   5.864
 5555POPC   GL170381  11.331  43.882   6.164
 5555POPC   GL270382  11.411  43.978   6.164
 5555POPC   C1A70383  11.329  43.850   6.464
 5555POPC   D2A70384  11.338  43.861   6.764
 5555POPC   C3A70385  11.346  43.852   7.064
 5555POPC   C4A70386  11.347  43.866   7.364
 5555POPC   C1B70387  11.549  44.023   6.464
 5555POPC   C2B70388  11.554  43.976   6.764
 5555POPC   C3B70389  11.510  43.998   7.064
 5555POPC   C4B70390  11.497  43.963   7.364
 5556POPC   NC370391  32.985  20.599   5.564
 5556POPC   PO470392  33.023  20.649   5.864
 5556POPC   GL170393  33.070  20.595   6.164
 5556POPC   GL270394  33.137  20.477   6.164
 5556POPC   C1A70395  33.028  20.570   6.464
 5556POPC   D2A70396  32.974  20.647   6.764
 5556POPC   C3A70397  32.987  20.653   7.064
 5556POPC   C4A70398  33.046  20.580   7.364
 5556POPC   C1B70399  33.200  20.439   6.464
 5556POPC   C2B70400  33.210  20.384   6.764
 5556POPC   C3B70401  33.198  20.449   7.064
 5556POPC   C4B70402  33.145  20.430   7.364
 5557POPC   NC370403  15.914  19.817   5.564
 5557POPC   PO470404  15.943  19.799   5.864
 5557POPC   GL170405  15.987  19.850   6.164
 5557POPC   GL270406  15.941  19.749   6.164
 5557POPC   C1A70407  15.924  19.819   6.464
 5557POPC   D2A70408  15.924  19.809   6.764
 5557POPC   C3A70409  15.938  19.881   7.064
 5557POPC   C4A70410  15.970  19.830   7.364
 5557POPC   C1B70411  16.014  19.604   6.464
 5557POPC   C2B70412  16.027  19.543   6.764
 5557POPC   C3B70413  15.964  19.544   7.064
 5557POPC   C4B70414  16.034  19.613   7.364
 5558POPC   NC370415  26.072   1.991   5.564
 5558POPC   PO470416  26.022   1.943   5.864
 5558POPC   GL170417  26.032   1.999   6.164
 5558POPC   GL270418  26.121   2.063   6.164
 5558POPC   C1A70419  26.019   2.005   6.464
 5558POPC   D2A70420  26.078   2.028   6.764
 5558POPC   C3A70421  26.082   2.035   7.064
 5558POPC   C4A70422  26.072   1.973   7.364
 5558POPC   C1B70423  26.270   2.004   6.464
 5558POPC   C2B70424  26.310   2.086   6.764
 5558POPC   C3B70425  26.257   2.076   7.064
 5558POPC   C4B70426  26.292   2.076   7.364
 5559POPC   NC370427  26.783  12.882   5.564
 5559POPC   PO470428  26.778  12.811   5.864
 5559POPC   GL170429  26.820  12.838   6.164
 5559POPC   GL270430  26.855  12.728   6.164
 5559POPC   C1A70431  26.845  12.829   6.464
 5559POPC   D2A70432  26.813  12.897   6.764
 5559POPC   C3A70433  26.810  12.892   7.064
 5559POPC   C4A70434  26.801  12.836   7.364
 5559POPC   C1B70435  26.961  12.636   6.464
 5559POPC   C2B70436  26.976  12.615   6.764
 5559POPC   C3B70437  26.995  12.649   7.064
 5559POPC   C4B70438  27.002  12.605   7.364
 5560POPC   NC370439   4.319  36.913   5.564
 5560POPC   PO470440   4.313  36.891   5.864
 5560POPC   GL170441   4.350  36.868   6.164
 5560POPC   GL270442   4.349  36.750   6.164
 5560POPC   C1A70443   4.361  36.927   6.464
 5560POPC   D2A70444   4.334  36.900   6.764
 5560POPC   C3A70445   4.276  36.948   7.064
 5560POPC   C4A70446   4.359  36.936   7.364
 5560POPC   C1B70447   4.375  36.647   6.464
 5560POPC   C2B70448   4.401  36.662   6.764
 5560POPC   C3B70449   4.331  36.638   7.064
 5560POPC   C4B70450   4.333  36.633   7.364
 5561POPC   NC370451  12.820  42.367   5.564
 5561POPC   PO470452  12.840  42.309   5.864
 5561POPC   GL170453  12.900  42.288   6.164
 5561POPC   GL270454  12.839  42.170   6.164
 5561POPC   C1A70455  12.858  42.353   6.464
 5561POPC   D2A70456  12.877  42.376   6.764
 5561POPC   C3A70457  12.862  42.376   7.064
 5561POPC   C4A70458  12.888  42.345   7.364
 5561POPC   C1B70459  12.863  42.125   6.464
 5561POPC   C2B70460  12.834  42.040   6.764
 5561POPC   C3B70461  12.885  42.078   7.064
 5561POPC   C4B70462  12.891  42.114   7.364
 5562POPC   NC370463  12.897  22.145   5.564
 5562POPC   PO470464  12.837  22.132   5.864
 5562POPC   GL170465  12.839  22.139   6.164
 5562POPC   GL270466  12.761  22.127   6.164
 5562POPC   C1A70467  12.837  22.184   6.464
 5562POPC   D2A70468  12.898  22.127   6.764
 5562POPC   C3A70469  12.849  22.133   7.064
 5562POPC   C4A70470  12.838  22.206   7.364
 5562POPC   C1B70471  12.610  22.142   6.464
 5562POPC   C2B70472  12.593  22.126   6.764
 5562POPC   C3B70473  12.627  22.190   7.064
 5562POPC   C4B70474  12.576  22.136   7.364
 5563POPC   NC370475   2.782   5.096   5.564
 5563POPC   PO470476   2.791   5.088   5.864
 5563POPC   GL170477   2.752   5.054   6.164
 5563POPC   GL270478   2.881   5.079   6.164
 5563POPC   C1A70479   2.738   5.126   6.464
 5563POPC   D2A70480   2.749   5.123   6.764
 5563POPC   C3A70481   2.812   5.098   7.064
 5563POPC   C4A70482   2.767   5.078   7.364
 5563POPC   C1B70483   3.053   5.005   6.464
 5563POPC   C2B70484   3.038   4.987   6.764
 5563POPC   C3B70485   2.965   5.037   7.064
 5563POPC   C4B70486   2.980   5.036   7.364
 5564POPC   NC370487  16.696  43.106   5.564
 5564POPC   PO470488  16.689  43.076   5.864
 5564POPC   GL170489  16.755  43.104   6.164
 5564POPC   GL270490  16.709  43.236   6.164
 5564POPC   C1A70491  16.713  43.158   6.464
 5564POPC   D2A70492  16.686  43.135   6.764
 5564POPC   C3A70493  16.710  43.159   7.064
 5564POPC   C4A70494  16.746  43.155   7.364
 5564POPC   C1B70495  16.807  43.371   6.464
 5564POPC   C2B70496  16.796  43.345   6.764
 5564POPC   C3B70497  16.778  43.318   7.064
 5564POPC   C4B70498  16.814  43.390   7.364
 5565POPC   NC370499   3.525  30.665   5.564
 5565POPC   PO470500   3.520  30.691   5.864
 5565POPC   GL170501   3.579  30.655   6.164
 5565POPC   GL270502   3.642  30.772   6.164
 5565POPC   C1A70503   3.582  30.712   6.464
 5565POPC   D2A70504   3.537  30.719   6.764
 5565POPC   C3A70505   3.526  30.729   7.064
 5565POPC   C4A70506   3.580  30.670   7.364
 5565POPC   C1B70507   3.689  30.862   6.464
 5565POPC   C2B70508   3.675  30.910   6.764
 5565POPC   C3B70509   3.711  30.895   7.064
 5565POPC   C4B70510   3.668  30.919   7.364
 5566POPC   NC370511  16.742   8.966   5.564
 5566POPC   PO470512  16.699   8.966   5.864
 5566POPC   GL170513  16.775   8.980   6.164
 5566POPC   GL270514  16.763   8.840   6.164
 5566POPC   C1A70515  16.738   8.933   6.464
 5566POPC   D2A70516  16.699   8.988   6.764
 5566POPC   C3A70517  16.776   8.960   7.064
 5566POPC   C4A70518  16.773   8.976   7.364
 5566POPC   C1B70519  16.805   8.760   6.464
 5566POPC   C2B70520  16.813   8.707   6.764
 5566POPC   C3B70521  16.852   8.772   7.064
 5566POPC   C4B70522  16.772   8.692   7.364
 5567POPC   NC370523  25.222   5.829   5.564
 5567POPC   PO470524  25.305   5.885   5.864
 5567POPC   GL170525  25.272   5.847   6.164
 5567POPC   GL270526  25.311   5.831   6.164
 5567POPC   C1A70527  25.237   5.891   6.464
 5567POPC   D2A70528  25.237   5.886   6.764
 5567POPC   C3A70529  25.232   5.826   7.064
 5567POPC   C4A70530  25.305   5.823   7.364
 5567POPC   C1B70531  25.451   5.676   6.464
 5567POPC   C2B70532  25.431   5.672   6.764
 5567POPC   C3B70533  25.451   5.664   7.064
 5567POPC   C4B70534  25.460   5.701   7.364
 5568POPC   NC370535  15.958  26.067   5.564
 5568POPC   PO470536  15.914  26.002   5.864
 5568POPC   GL170537  15.922  26.068   6.164
 5568POPC   GL270538  15.844  26.044   6.164
 5568POPC   C1A70539  15.926  26.082   6.464
 5568POPC   D2A70540  15.984  26.010   6.764
 5568POPC   C3A70541  15.993  26.056   7.064
 5568POPC   C4A70542  15.939  26.001   7.364
 5568POPC   C1B70543  15.736  26.110   6.464
 5568POPC   C2B70544  15.690  26.106   6.764
 5568POPC   C3B70545  15.660  26.025   7.064
 5568POPC   C4B70546  15.665  26.058   7.364
 5569POPC   NC370547   2.033  32.276   5.564
 5569POPC   PO470548   1.988  32.280   5.864
 5569POPC   GL170549   2.011  32.274   6.164
 5569POPC   GL270550   1.889  32.244   6.164
 5569POPC   C1A70551   1.996  32.219   6.464
 5569POPC   D2A70552   2.015  32.240   6.764
 5569POPC   C3A70553   1.971  32.286   7.064
 5569POPC   C4A70554   1.982  32.285   7.364
 5569POPC   C1B70555   1.707  32.383   6.464
 5569POPC   C2B70556   1.718  32.289   6.764
 5569POPC   C3B70557   1.800  32.341   7.064
 5569POPC   C4B70558   1.749  32.313   7.364
 5570POPC   NC370559  36.158  39.990   5.564
 5570POPC   PO470560  36.081  40.044   5.864
 5570POPC   GL170561  36.159  40.044   6.164
 5570POPC   GL270562  36.147  39.921   6.164
 5570POPC   C1A70563  36.176  40.029   6.464
 5570POPC   D2A70564  36.139  40.044   6.764
 5570POPC   C3A70565  36.164  39.962   7.064
 5570POPC   C4A70566  36.175  39.971   7.364
 5570POPC   C1B70567  36.252  39.827   6.464
 5570POPC   C2B70568  36.259  39.816   6.764
 5570POPC   C3B70569  36.221  39.744   7.064
 5570POPC   C4B70570  36.251  39.784   7.364
 5571POPC   NC370571   5.880   8.959   5.564
 5571POPC   PO470572   5.916   8.946   5.864
 5571POPC   GL170573   5.887   9.005   6.164
 5571POPC   GL270574   5.724   8.926   6.164
 5571POPC   C1A70575   5.824   8.963   6.464
 5571POPC   D2A70576   5.856   8.978   6.764
 5571POPC   C3A70577   5.836   8.997   7.064
 5571POPC   C4A70578   5.897   8.943   7.364
 5571POPC   C1B70579   5.643   8.806   6.464
 5571POPC   C2B70580   5.627   8.843   6.764
 5571POPC   C3B70581   5.720   8.853   7.064
 5571POPC   C4B70582   5.638   8.865   7.364
 5572POPC   NC370583  22.965  10.494   5.564
 5572POPC   PO470584  22.929  10.573   5.864
 5572POPC   GL170585  22.964  10.540   6.164
 5572POPC   GL270586  22.947  10.366   6.164
 5572POPC   C1A70587  22.902  10.557   6.464
 5572POPC   D2A70588  22.967  10.570   6.764
 5572POPC   C3A70589  22.893  10.508   7.064
 5572POPC   C4A70590  22.967  10.499   7.364
 5572POPC   C1B70591  22.956  10.324   6.464
 5572POPC   C2B70592  22.887  10.267   6.764
 5572POPC   C3B70593  22.960  10.268   7.064
 5572POPC   C4B70594  22.947  10.232   7.364
 5573POPC   NC370595  13.608  35.353   5.564
 5573POPC   PO470596  13.664  35.378   5.864
 5573POPC   GL170597  13.663  35.383   6.164
 5573POPC   GL270598  13.487  35.319   6.164
 5573POPC   C1A70599  13.659  35.383   6.464
 5573POPC   D2A70600  13.595  35.335   6.764
 5573POPC   C3A70601  13.580  35.354   7.064
 5573POPC   C4A70602  13.604  35.336   7.364
 5573POPC   C1B70603  13.464  35.219   6.464
 5573POPC   C2B70604  13.437  35.187   6.764
 5573POPC   C3B70605  13.456  35.145   7.064
 5573POPC   C4B70606  13.397  35.222   7.364
 5574POPC   NC370607   6.666  25.269   5.564
 5574POPC   PO470608   6.661  25.253   5.864
 5574POPC   GL170609   6.621  25.277   6.164
 5574POPC   GL270610   6.685  25.167   6.164
 5574POPC   C1A70611   6.622  25.232   6.464
 5574POPC   D2A70612   6.625  25.315   6.764
 5574POPC   C3A70613   6.629  25.216   7.064
 5574POPC   C4A70614   6.601  25.286   7.364
 5574POPC   C1B70615   6.779  25.113   6.464
 5574POPC   C2B70616   6.812  25.035   6.764
 5574POPC   C3B70617   6.780  25.103   7.064
 5574POPC   C4B70618   6.840  25.100   7.364
 5575POPC   NC370619  38.480  19.828   5.564
 5575POPC   PO470620  38.498  19.795   5.864
 5575POPC   GL170621  38.429  19.858   6.164
 5575POPC   GL270622  38.400  19.768   6.164
 5575POPC   C1A70623  38.430  19.833   6.464
 5575POPC   D2A70624  38.429  19.852   6.764
 5575POPC   C3A70625  38.460  19.869   7.064
 5575POPC   C4A70626  38.456  19.829   7.364
 5575POPC   C1B70627  38.394  19.609   6.464
 5575POPC   C2B70628  38.318  19.596   6.764
 5575POPC   C3B70629  38.319  19.571   7.064
 5575POPC   C4B70630  38.363  19.619   7.364
 5576POPC   NC370631  37.672   9.767   5.564
 5576POPC   PO470632  37.648   9.744   5.864
 5576POPC   GL170633  37.723   9.789   6.164
 5576POPC   GL270634  37.553   9.737   6.164
 5576POPC   C1A70635  37.687   9.722   6.464
 5576POPC   D2A70636  37.720   9.727   6.764
 5576POPC   C3A70637  37.660   9.797   7.064
 5576POPC   C4A70638  37.683   9.723   7.364
 5576POPC   C1B70639  37.431   9.672   6.464
 5576POPC   C2B70640  37.398   9.681   6.764
 5576POPC   C3B70641  37.463   9.665   7.064
 5576POPC   C4B70642  37.399   9.719   7.364
 5577POPC   NC370643  25.281   7.431   5.564
 5577POPC   PO470644  25.288   7.449   5.864
 5577POPC   GL170645  25.308   7.452   6.164
 5577POPC   GL270646  25.288   7.275   6.164
 5577POPC   C1A70647  25.237   7.418   6.464
 5577POPC   D2A70648  25.230   7.443   6.764
 5577POPC   C3A70649  25.241   7.417   7.064
 5577POPC   C4A70650  25.233   7.448   7.364
 5577POPC   C1B70651  25.384   7.159   6.464
 5577POPC   C2B70652  25.332   7.141   6.764
 5577POPC   C3B70653  25.306   7.178   7.064
 5577POPC   C4B70654  25.376   7.186   7.364
 5578POPC   NC370655  17.459   6.682   5.564
 5578POPC   PO470656  17.534   6.670   5.864
 5578POPC   GL170657  17.491   6.694   6.164
 5578POPC   GL270658  17.525   6.494   6.164
 5578POPC   C1A70659  17.495   6.679   6.464
 5578POPC   D2A70660  17.495   6.692   6.764
 5578POPC   C3A70661  17.460   6.600   7.064
 5578POPC   C4A70662  17.543   6.687   7.364
 5578POPC   C1B70663  17.505   6.412   6.464
 5578POPC   C2B70664  17.551   6.400   6.764
 5578POPC   C3B70665  17.546   6.448   7.064
 5578POPC   C4B70666  17.525   6.416   7.364
 5579POPC   NC370667  22.948  12.100   5.564
 5579POPC   PO470668  22.969  12.104   5.864
 5579POPC   GL170669  22.894  12.026   6.164
 5579POPC   GL270670  22.855  11.987   6.164
 5579POPC   C1A70671  22.963  12.124   6.464
 5579POPC   D2A70672  22.943  12.041   6.764
 5579POPC   C3A70673  22.932  12.087   7.064
 5579POPC   C4A70674  22.926  12.113   7.364
 5579POPC   C1B70675  22.841  11.810   6.464
 5579POPC   C2B70676  22.827  11.872   6.764
 5579POPC   C3B70677  22.822  11.825   7.064
 5579POPC   C4B70678  22.847  11.843   7.364
 5580POPC   NC370679  12.099  32.228   5.564
 5580POPC   PO470680  12.121  32.288   5.864
 5580POPC   GL170681  12.109  32.259   6.164
 5580POPC   GL270682  11.993  32.212   6.164
 5580POPC   C1A70683  12.108  32.250   6.464
 5580POPC   D2A70684  12.026  32.256   6.764
 5580POPC   C3A70685  12.040  32.232   7.064
 5580POPC   C4A70686  12.118  32.229   7.364
 5580POPC   C1B70687  11.864  32.237   6.464
 5580POPC   C2B70688  11.854  32.231   6.764
 5580POPC   C3B70689  11.825  32.294   7.064
 5580POPC   C4B70690  11.780  32.279   7.364
 5581POPC   NC370691  28.348  40.739   5.564
 5581POPC   PO470692  28.325  40.770   5.864
 5581POPC   GL170693  28.360  40.775   6.164
 5581POPC   GL270694  28.280  40.747   6.164
 5581POPC   C1A70695  28.320  40.746   6.464
 5581POPC   D2A70696  28.329  40.820   6.764
 5581POPC   C3A70697  28.393  40.784   7.064
 5581POPC   C4A70698  28.396  40.802   7.364
 5581POPC   C1B70699  28.202  40.613   6.464
 5581POPC   C2B70700  28.140  40.593   6.764
 5581POPC   C3B70701  28.214  40.669   7.064
 5581POPC   C4B70702  28.165  40.660   7.364
 5582POPC   NC370703  19.861   1.999   5.564
 5582POPC   PO470704  19.790   1.946   5.864
 5582POPC   GL170705  19.798   2.022   6.164
 5582POPC   GL270706  19.871   1.881   6.164
 5582POPC   C1A70707  19.870   1.963   6.464
 5582POPC   D2A70708  19.795   1.944   6.764
 5582POPC   C3A70709  19.859   1.972   7.064
 5582POPC   C4A70710  19.823   1.988   7.364
 5582POPC   C1B70711  19.871   1.758   6.464
 5582POPC   C2B70712  19.877   1.758   6.764
 5582POPC   C3B70713  19.837   1.763   7.064
 5582POPC   C4B70714  19.796   1.767   7.364
 5583POPC   NC370715  26.776  10.519   5.564
 5583POPC   PO470716  26.810  10.533   5.864
 5583POPC   GL170717  26.801  10.499   6.164
 5583POPC   GL270718  26.858  10.414   6.164
 5583POPC   C1A70719  26.812  10.517   6.464
 5583POPC   D2A70720  26.770  10.503   6.764
 5583POPC   C3A70721  26.820  10.546   7.064
 5583POPC   C4A70722  26.822  10.500   7.364
 5583POPC   C1B70723  26.959  10.292   6.464
 5583POPC   C2B70724  26.911  10.355   6.764
 5583POPC   C3B70725  26.953  10.357   7.064
 5583POPC   C4B70726  26.934  10.262   7.364
 5584POPC   NC370727  24.495  34.573   5.564
 5584POPC   PO470728  24.466  34.542   5.864
 5584POPC   GL170729  24.520  34.591   6.164
 5584POPC   GL270730  24.371  34.535   6.164
 5584POPC   C1A70731  24.537  34.623   6.464
 5584POPC   D2A70732  24.528  34.544   6.764
 5584POPC   C3A70733  24.503  34.604   7.064
 5584POPC   C4A70734  24.524  34.530   7.364
 5584POPC   C1B70735  24.237  34.393   6.464
 5584POPC   C2B70736  24.298  34.432   6.764
 5584POPC   C3B70737  24.250  34.451   7.064
 5584POPC   C4B70738  24.328  34.403   7.364
 5585POPC   NC370739  17.550  13.581   5.564
 5585POPC   PO470740  17.474  13.606   5.864
 5585POPC   GL170741  17.514  13.619   6.164
 5585POPC   GL270742  17.505  13.703   6.164
 5585POPC   C1A70743  17.538  13.605   6.464
 5585POPC   D2A70744  17.519  13.591   6.764
 5585POPC   C3A70745  17.549  13.594   7.064
 5585POPC   C4A70746  17.488  13.629   7.364
 5585POPC   C1B70747  17.502  13.862   6.464
 5585POPC   C2B70748  17.486  13.847   6.764
 5585POPC   C3B70749  17.442  13.923   7.064
 5585POPC   C4B70750  17.447  13.856   7.364
 5586POPC   NC370751  43.113  29.131   5.564
 5586POPC   PO470752  43.088  29.120   5.864
 5586POPC   GL170753  43.134  29.187   6.164
 5586POPC   GL270754  42.965  29.218   6.164
 5586POPC   C1A70755  43.112  29.193   6.464
 5586POPC   D2A70756  43.138  29.126   6.764
 5586POPC   C3A70757  43.106  29.128   7.064
 5586POPC   C4A70758  43.087  29.120   7.364
 5586POPC   C1B70759  42.873  29.194   6.464
 5586POPC   C2B70760  42.898  29.212   6.764
 5586POPC   C3B70761  42.830  29.217   7.064
 5586POPC   C4B70762  42.867  29.253   7.364
 5587POPC   NC370763  43.069   4.360   5.564
 5587POPC   PO470764  43.062   4.290   5.864
 5587POPC   GL170765  43.068   4.319   6.164
 5587POPC   GL270766  42.997   4.327   6.164
 5587POPC   C1A70767  43.097   4.364   6.464
 5587POPC   D2A70768  43.145   4.351   6.764
 5587POPC   C3A70769  43.156   4.354   7.064
 5587POPC   C4A70770  43.125   4.304   7.364
 5587POPC   C1B70771  42.920   4.398   6.464
 5587POPC   C2B70772  42.835   4.417   6.764
 5587POPC   C3B70773  42.859   4.356   7.064
 5587POPC   C4B70774  42.917   4.444   7.364
 5588POPC   NC370775  32.263  19.106   5.564
 5588POPC   PO470776  32.230  19.025   5.864
 5588POPC   GL170777  32.266  19.057   6.164
 5588POPC   GL270778  32.374  19.055   6.164
 5588POPC   C1A70779  32.238  19.094   6.464
 5588POPC   D2A70780  32.262  19.065   6.764
 5588POPC   C3A70781  32.238  19.048   7.064
 5588POPC   C4A70782  32.236  19.041   7.364
 5588POPC   C1B70783  32.494  19.048   6.464
 5588POPC   C2B70784  32.530  19.047   6.764
 5588POPC   C3B70785  32.485  19.062   7.064
 5588POPC   C4B70786  32.499  18.980   7.364
 5589POPC   NC370787   0.397  36.889   5.564
 5589POPC   PO470788   0.394  36.929   5.864
 5589POPC   GL170789   0.417  36.907   6.164
 5589POPC   GL270790   0.575  36.991   6.164
 5589POPC   C1A70791   0.411  36.903   6.464
 5589POPC   D2A70792   0.393  36.877   6.764
 5589POPC   C3A70793   0.400  36.940   7.064
 5589POPC   C4A70794   0.445  36.932   7.364
 5589POPC   C1B70795   0.627  37.024   6.464
 5589POPC   C2B70796   0.616  37.046   6.764
 5589POPC   C3B70797   0.595  37.034   7.064
 5589POPC   C4B70798   0.630  37.050   7.364
 5590POPC   NC370799  22.197  15.954   5.564
 5590POPC   PO470800  22.122  15.915   5.864
 5590POPC   GL170801  22.198  15.932   6.164
 5590POPC   GL270802  22.232  15.890   6.164
 5590POPC   C1A70803  22.123  15.939   6.464
 5590POPC   D2A70804  22.161  16.000   6.764
 5590POPC   C3A70805  22.149  15.939   7.064
 5590POPC   C4A70806  22.197  15.920   7.364
 5590POPC   C1B70807  22.411  15.859   6.464
 5590POPC   C2B70808  22.350  15.836   6.764
 5590POPC   C3B70809  22.404  15.880   7.064
 5590POPC   C4B70810  22.416  15.911   7.364
 5591POPC   NC370811   6.638  26.011   5.564
 5591POPC   PO470812   6.595  26.056   5.864
 5591POPC   GL170813   6.682  26.035   6.164
 5591POPC   GL270814   6.523  26.039   6.164
 5591POPC   C1A70815   6.643  26.061   6.464
 5591POPC   D2A70816   6.639  26.058   6.764
 5591POPC   C3A70817   6.625  26.067   7.064
 5591POPC   C4A70818   6.678  26.057   7.364
 5591POPC   C1B70819   6.387  26.016   6.464
 5591POPC   C2B70820   6.415  26.034   6.764
 5591POPC   C3B70821   6.370  25.981   7.064
 5591POPC   C4B70822   6.428  26.023   7.364
 5592POPC   NC370823   3.505  19.789   5.564
 5592POPC   PO470824   3.556  19.816   5.864
 5592POPC   GL170825   3.561  19.799   6.164
 5592POPC   GL270826   3.647  19.790   6.164
 5592POPC   C1A70827   3.533  19.844   6.464
 5592POPC   D2A70828   3.587  19.823   6.764
 5592POPC   C3A70829   3.561  19.838   7.064
 5592POPC   C4A70830   3.513  19.808   7.364
 5592POPC   C1B70831   3.769  19.869   6.464
 5592POPC   C2B70832   3.778  19.841   6.764
 5592POPC   C3B70833   3.792  19.829   7.064
 5592POPC   C4B70834   3.742  19.859   7.364
 5593POPC   NC370835  13.653  12.852   5.564
 5593POPC   PO470836  13.615  12.874   5.864
 5593POPC   GL170837  13.664  12.839   6.164
 5593POPC   GL270838  13.511  12.807   6.164
 5593POPC   C1A70839  13.670  12.820   6.464
 5593POPC   D2A70840  13.647  12.878   6.764
 5593POPC   C3A70841  13.583  12.857   7.064
 5593POPC   C4A70842  13.580  12.810   7.364
 5593POPC   C1B70843  13.384  12.874   6.464
 5593POPC   C2B70844  13.389  12.875   6.764
 5593POPC   C3B70845  13.396  12.863   7.064
 5593POPC   C4B70846  13.407  12.871   7.364
 5594POPC   NC370847  10.477   2.741   5.564
 5594POPC   PO470848  10.550   2.801   5.864
 5594POPC   GL170849  10.477   2.774   6.164
 5594POPC   GL270850  10.567   2.903   6.164
 5594POPC   C1A70851  10.483   2.764   6.464
 5594POPC   D2A70852  10.512   2.766   6.764
 5594POPC   C3A70853  10.556   2.759   7.064
 5594POPC   C4A70854  10.557   2.744   7.364
 5594POPC   C1B70855  10.623   2.992   6.464
 5594POPC   C2B70856  10.613   3.000   6.764
 5594POPC   C3B70857  10.610   3.028   7.064
 5594POPC   C4B70858  10.608   2.997   7.364
 5595POPC   NC370859  30.727  17.492   5.564
 5595POPC   PO470860  30.688  17.481   5.864
 5595POPC   GL170861  30.687  17.467   6.164
 5595POPC   GL270862  30.581  17.444   6.164
 5595POPC   C1A70863  30.719  17.505   6.464
 5595POPC   D2A70864  30.658  17.509   6.764
 5595POPC   C3A70865  30.672  17.493   7.064
 5595POPC   C4A70866  30.694  17.498   7.364
 5595POPC   C1B70867  30.531  17.381   6.464
 5595POPC   C2B70868  30.505  17.306   6.764
 5595POPC   C3B70869  30.483  17.354   7.064
 5595POPC   C4B70870  30.555  17.310   7.364
 5596POPC   NC370871  19.094  36.084   5.564
 5596POPC   PO470872  19.069  36.176   5.864
 5596POPC   GL170873  19.067  36.133   6.164
 5596POPC   GL270874  19.149  36.018   6.164
 5596POPC   C1A70875  19.017  36.121   6.464
 5596POPC   D2A70876  19.098  36.124   6.764
 5596POPC   C3A70877  19.029  36.136   7.064
 5596POPC   C4A70878  19.009  36.146   7.364
 5596POPC   C1B70879  19.255  35.900   6.464
 5596POPC   C2B70880  19.223  35.905   6.764
 5596POPC   C3B70881  19.268  35.945   7.064
 5596POPC   C4B70882  19.204  35.938   7.364
 5597POPC   NC370883  11.321  44.668   5.564
 5597POPC   PO470884  11.260  44.704   5.864
 5597POPC   GL170885  11.319  44.710   6.164
 5597POPC   GL270886  11.425  44.600   6.164
 5597POPC   C1A70887  11.272  44.678   6.464
 5597POPC   D2A70888  11.305  44.617   6.764
 5597POPC   C3A70889  11.269  44.692   7.064
 5597POPC   C4A70890  11.299  44.647   7.364
 5597POPC   C1B70891  11.554  44.542   6.464
 5597POPC   C2B70892  11.556  44.546   6.764
 5597POPC   C3B70893  11.492  44.575   7.064
 5597POPC   C4B70894  11.531  44.590   7.364
 5598POPC   NC370895  19.849  39.203   5.564
 5598POPC   PO470896  19.874  39.235   5.864
 5598POPC   GL170897  19.861  39.186   6.164
 5598POPC   GL270898  19.909  39.218   6.164
 5598POPC   C1A70899  19.882  39.236   6.464
 5598POPC   D2A70900  19.880  39.218   6.764
 5598POPC   C3A70901  19.797  39.208   7.064
 5598POPC   C4A70902  19.876  39.188   7.364
 5598POPC   C1B70903  20.048  39.128   6.464
 5598POPC   C2B70904  20.074  39.153   6.764
 5598POPC   C3B70905  20.093  39.128   7.064
 5598POPC   C4B70906  20.061  39.156   7.364
 5599POPC   NC370907  16.758   0.473   5.564
 5599POPC   PO470908  16.778   0.443   5.864
 5599POPC   GL170909  16.766   0.441   6.164
 5599POPC   GL270910  16.781   0.353   6.164
 5599POPC   C1A70911  16.715   0.437   6.464
 5599POPC   D2A70912  16.688   0.479   6.764
 5599POPC   C3A70913  16.749   0.426   7.064
 5599POPC   C4A70914  16.708   0.473   7.364
 5599POPC   C1B70915  16.750   0.234   6.464
 5599POPC   C2B70916  16.817   0.179   6.764
 5599POPC   C3B70917  16.831   0.234   7.064
 5599POPC   C4B70918  16.811   0.200   7.364
 5600POPC   NC370919  39.189  12.064   5.564
 5600POPC   PO470920  39.200  12.039   5.864
 5600POPC   GL170921  39.274  12.064   6.164
 5600POPC   GL270922  39.311  12.025   6.164
 5600POPC   C1A70923  39.207  12.122   6.464
 5600POPC   D2A70924  39.270  12.045   6.764
 5600POPC   C3A70925  39.278  12.091   7.064
 5600POPC   C4A70926  39.201  12.028   7.364
 5600POPC   C1B70927  39.431  11.967   6.464
 5600POPC   C2B70928  39.452  11.952   6.764
 5600POPC   C3B70929  39.442  11.974   7.064
 5600POPC   C4B70930  39.451  11.986   7.364
 5601POPC   NC370931  29.914  17.478   5.564
 5601POPC   PO470932  29.939  17.541   5.864
 5601POPC   GL170933  29.920  17.461   6.164
 5601POPC   GL270934  30.026  17.630   6.164
 5601POPC   C1A70935  29.922  17.490   6.464
 5601POPC   D2A70936  29.938  17.506   6.764
 5601POPC   C3A70937  29.917  17.549   7.064
 5601POPC   C4A70938  29.904  17.515   7.364
 5601POPC   C1B70939  30.075  17.670   6.464
 5601POPC   C2B70940  30.044  17.730   6.764
 5601POPC   C3B70941  30.036  17.739   7.064
 5601POPC   C4B70942  30.090  17.718   7.364
 5602POPC   NC370943  17.516  36.173   5.564
 5602POPC   PO470944  17.526  36.079   5.864
 5602POPC   GL170945  17.521  36.149   6.164
 5602POPC   GL270946  17.432  36.086   6.164
 5602POPC   C1A70947  17.526  36.092   6.464
 5602POPC   D2A70948  17.525  36.153   6.764
 5602POPC   C3A70949  17.521  36.154   7.064
 5602POPC   C4A70950  17.521  36.138   7.364
 5602POPC   C1B70951  17.245  36.125   6.464
 5602POPC   C2B70952  17.299  36.156   6.764
 5602POPC   C3B70953  17.252  36.131   7.064
 5602POPC   C4B70954  17.209  36.136   7.364
 5603POPC   NC370955  22.154   9.763   5.564
 5603POPC   PO470956  22.118   9.763   5.864
 5603POPC   GL170957  22.157   9.719   6.164
 5603POPC   GL270958  22.095   9.755   6.164
 5603POPC   C1A70959  22.115   9.733   6.464
 5603POPC   D2A70960  22.202   9.704   6.764
 5603POPC   C3A70961  22.199   9.744   7.064
 5603POPC   C4A70962  22.149   9.729   7.364
 5603POPC   C1B70963  21.982   9.868   6.464
 5603POPC   C2B70964  21.940   9.817   6.764
 5603POPC   C3B70965  21.920   9.838   7.064
 5603POPC   C4B70966  21.900   9.890   7.364
 5604POPC   NC370967  31.481  14.399   5.564
 5604POPC   PO470968  31.505  14.403   5.864
 5604POPC   GL170969  31.521  14.376   6.164
 5604POPC   GL270970  31.588  14.417   6.164
 5604POPC   C1A70971  31.429  14.375   6.464
 5604POPC   D2A70972  31.518  14.437   6.764
 5604POPC   C3A70973  31.485  14.356   7.064
 5604POPC   C4A70974  31.458  14.434   7.364
 5604POPC   C1B70975  31.709  14.535   6.464
 5604POPC   C2B70976  31.700  14.515   6.764
 5604POPC   C3B70977  31.739  14.542   7.064
 5604POPC   C4B70978  31.657  14.477   7.364
 5605POPC   NC370979  11.310  39.204   5.564
 5605POPC   PO470980  11.280  39.245   5.864
 5605POPC   GL170981  11.316  39.236   6.164
 5605POPC   GL270982  11.389  39.267   6.164
 5605POPC   C1A70983  11.324  39.263   6.464
 5605POPC   D2A70984  11.310  39.278   6.764
 5605POPC   C3A70985  11.329  39.242   7.064
 5605POPC   C4A70986  11.256  39.233   7.364
 5605POPC   C1B70987  11.544  39.169   6.464
 5605POPC   C2B70988  11.588  39.228   6.764
 5605POPC   C3B70989  11.563  39.170   7.064
 5605POPC   C4B70990  11.509  39.256   7.364
 5606POPC   NC370991  20.611  41.588   5.564
 5606POPC   PO470992  20.638  41.573   5.864
 5606POPC   GL170993  20.568  41.527   6.164
 5606POPC   GL270994  20.602  41.416   6.164
 5606POPC   C1A70995  20.640  41.590   6.464
 5606POPC   D2A70996  20.613  41.525   6.764
 5606POPC   C3A70997  20.621  41.576   7.064
 5606POPC   C4A70998  20.652  41.607   7.364
 5606POPC   C1B70999  20.564  41.370   6.464
 5606POPC   C2B71000  20.531  41.367   6.764
 5606POPC   C3B71001  20.515  41.286   7.064
 5606POPC   C4B71002  20.505  41.284   7.364
 5607POPC   NC371003   9.715  10.565   5.564
 5607POPC   PO471004   9.727  10.506   5.864
 5607POPC   GL171005   9.701  10.497   6.164
 5607POPC   GL271006   9.663  10.667   6.164
 5607POPC   C1A71007   9.757  10.561   6.464
 5607POPC   D2A71008   9.772  10.560   6.764
 5607POPC   C3A71009   9.710  10.492   7.064
 5607POPC   C4A71010   9.780  10.477   7.364
 5607POPC   C1B71011   9.606  10.770   6.464
 5607POPC   C2B71012   9.640  10.748   6.764
 5607POPC   C3B71013   9.579  10.740   7.064
 5607POPC   C4B71014   9.578  10.745   7.364
 5608POPC   NC371015  33.052  31.463   5.564
 5608POPC   PO471016  33.033  31.478   5.864
 5608POPC   GL171017  33.072  31.503   6.164
 5608POPC   GL271018  32.930  31.594   6.164
 5608POPC   C1A71019  33.072  31.504   6.464
 5608POPC   D2A71020  33.070  31.451   6.764
 5608POPC   C3A71021  33.021  31.455   7.064
 5608POPC   C4A71022  33.001  31.506   7.364
 5608POPC   C1B71023  32.889  31.731   6.464
 5608POPC   C2B71024  32.882  31.738   6.764
 5608POPC   C3B71025  32.867  31.716   7.064
 5608POPC   C4B71026  32.872  31.662   7.364
 5609POPC   NC371027  11.307   1.227   5.564
 5609POPC   PO471028  11.277   1.209   5.864
 5609POPC   GL171029  11.320   1.219   6.164
 5609POPC   GL271030  11.363   1.245   6.164
 5609POPC   C1A71031  11.341   1.170   6.464
 5609POPC   D2A71032  11.295   1.258   6.764
 5609POPC   C3A71033  11.284   1.174   7.064
 5609POPC   C4A71034  11.337   1.171   7.364
 5609POPC   C1B71035  11.497   1.370   6.464
 5609POPC   C2B71036  11.552   1.373   6.764
 5609POPC   C3B71037  11.485   1.322   7.064
 5609POPC   C4B71038  11.484   1.387   7.364
 5610POPC   NC371039  41.526   7.413   5.564
 5610POPC   PO471040  41.558   7.448   5.864
 5610POPC   GL171041  41.600   7.389   6.164
 5610POPC   GL271042  41.591   7.314   6.164
 5610POPC   C1A71043  41.556   7.444   6.464
 5610POPC   D2A71044  41.605   7.380   6.764
 5610POPC   C3A71045  41.518   7.449   7.064
 5610POPC   C4A71046  41.561   7.375   7.364
 5610POPC   C1B71047  41.528   7.213   6.464
 5610POPC   C2B71048  41.550   7.201   6.764
 5610POPC   C3B71049  41.595   7.132   7.064
 5610POPC   C4B71050  41.559   7.172   7.364
 5611POPC   NC371051  26.088  42.320   5.564
 5611POPC   PO471052  26.054  42.288   5.864
 5611POPC   GL171053  26.070  42.341   6.164
 5611POPC   GL271054  26.116  42.466   6.164
 5611POPC   C1A71055  26.013  42.300   6.464
 5611POPC   D2A71056  26.073  42.323   6.764
 5611POPC   C3A71057  26.081  42.360   7.064
 5611POPC   C4A71058  26.088  42.297   7.364
 5611POPC   C1B71059  26.258  42.536   6.464
 5611POPC   C2B71060  26.234  42.530   6.764
 5611POPC   C3B71061  26.227  42.530   7.064
 5611POPC   C4B71062  26.227  42.524   7.364
 5612POPC   NC371063  30.678  19.050   5.564
 5612POPC   PO471064  30.729  19.067   5.864
 5612POPC   GL171065  30.739  19.082   6.164
 5612POPC   GL271066  30.625  18.944   6.164
 5612POPC   C1A71067  30.651  19.084   6.464
 5612POPC   D2A71068  30.730  19.065   6.764
 5612POPC   C3A71069  30.647  19.083   7.064
 5612POPC   C4A71070  30.717  19.051   7.364
 5612POPC   C1B71071  30.525  18.943   6.464
 5612POPC   C2B71072  30.526  18.896   6.764
 5612POPC   C3B71073  30.485  18.883   7.064
 5612POPC   C4B71074  30.501  18.878   7.364
 5613POPC   NC371075   1.216  33.014   5.564
 5613POPC   PO471076   1.237  33.044   5.864
 5613POPC   GL171077   1.236  33.003   6.164
 5613POPC   GL271078   1.082  33.079   6.164
 5613POPC   C1A71079   1.197  32.978   6.464
 5613POPC   D2A71080   1.171  33.023   6.764
 5613POPC   C3A71081   1.203  32.987   7.064
 5613POPC   C4A71082   1.263  33.051   7.364
 5613POPC   C1B71083   1.024  33.157   6.464
 5613POPC   C2B71084   0.993  33.204   6.764
 5613POPC   C3B71085   1.042  33.145   7.064
 5613POPC   C4B71086   1.059  33.185   7.364
 5614POPC   NC371087  26.042   9.000   5.564
 5614POPC   PO471088  26.036   9.006   5.864
 5614POPC   GL171089  26.079   8.942   6.164
 5614POPC   GL271090  25.986   9.080   6.164
 5614POPC   C1A71091  26.038   9.014   6.464
 5614POPC   D2A71092  26.056   8.925   6.764
 5614POPC   C3A71093  26.055   8.995   7.064
 5614POPC   C4A71094  26.009   9.003   7.364
 5614POPC   C1B71095  25.907   9.135   6.464
 5614POPC   C2B71096  25.849   9.203   6.764
 5614POPC   C3B71097  25.848   9.188   7.064
 5614POPC   C4B71098  25.918   9.176   7.364
 5615POPC   NC371099  31.461  22.147   5.564
 5615POPC   PO471100  31.451  22.113   5.864
 5615POPC   GL171101  31.502  22.142   6.164
 5615POPC   GL271102  31.464  22.062   6.164
 5615POPC   C1A71103  31.518  22.169   6.464
 5615POPC   D2A71104  31.507  22.129   6.764
 5615POPC   C3A71105  31.478  22.198   7.064
 5615POPC   C4A71106  31.477  22.123   7.364
 5615POPC   C1B71107  31.515  21.891   6.464
 5615POPC   C2B71108  31.560  21.893   6.764
 5615POPC   C3B71109  31.576  21.955   7.064
 5615POPC   C4B71110  31.574  21.970   7.364
 5616POPC   NC371111  27.604  43.906   5.564
 5616POPC   PO471112  27.605  43.908   5.864
 5616POPC   GL171113  27.613  43.874   6.164
 5616POPC   GL271114  27.702  43.901   6.164
 5616POPC   C1A71115  27.557  43.864   6.464
 5616POPC   D2A71116  27.562  43.880   6.764
 5616POPC   C3A71117  27.635  43.923   7.064
 5616POPC   C4A71118  27.620  43.846   7.364
 5616POPC   C1B71119  27.809  43.939   6.464
 5616POPC   C2B71120  27.831  43.944   6.764
 5616POPC   C3B71121  27.866  43.884   7.064
 5616POPC   C4B71122  27.822  43.938   7.364
 5617POPC   NC371123  36.132  35.363   5.564
 5617POPC   PO471124  36.155  35.391   5.864
 5617POPC   GL171125  36.104  35.368   6.164
 5617POPC   GL271126  36.279  35.435   6.164
 5617POPC   C1A71127  36.112  35.340   6.464
 5617POPC   D2A71128  36.154  35.387   6.764
 5617POPC   C3A71129  36.095  35.379   7.064
 5617POPC   C4A71130  36.095  35.357   7.364
 5617POPC   C1B71131  36.329  35.423   6.464
 5617POPC   C2B71132  36.345  35.397   6.764
 5617POPC   C3B71133  36.316  35.454   7.064
 5617POPC   C4B71134  36.393  35.431   7.364
 5618POPC   NC371135  34.562   4.308   5.564
 5618POPC   PO471136  34.531   4.288   5.864
 5618POPC   GL171137  34.596   4.332   6.164
 5618POPC   GL271138  34.520   4.382   6.164
 5618POPC   C1A71139  34.615   4.297   6.464
 5618POPC   D2A71140  34.620   4.327   6.764
 5618POPC   C3A71141  34.564   4.269   7.064
 5618POPC   C4A71142  34.617   4.288   7.364
 5618POPC   C1B71143  34.427   4.494   6.464
 5618POPC   C2B71144  34.437   4.552   6.764
 5618POPC   C3B71145  34.451   4.511   7.064
 5618POPC   C4B71146  34.464   4.507   7.364
 5619POPC   NC371147  20.567  43.141   5.564
 5619POPC   PO471148  20.571  43.104   5.864
 5619POPC   GL171149  20.568  43.123   6.164
 5619POPC   GL271150  20.692  43.029   6.164
 5619POPC   C1A71151  20.619  43.117   6.464
 5619POPC   D2A71152  20.633  43.062   6.764
 5619POPC   C3A71153  20.602  43.102   7.064
 5619POPC   C4A71154  20.654  43.144   7.364
 5619POPC   C1B71155  20.837  42.940   6.464
 5619POPC   C2B71156  20.830  42.956   6.764
 5619POPC   C3B71157  20.772  42.957   7.064
 5619POPC   C4B71158  20.762  42.900   7.364
 5620POPC   NC371159  23.698  34.550   5.564
 5620POPC   PO471160  23.674  34.607   5.864
 5620POPC   GL171161  23.750  34.552   6.164
 5620POPC   GL271162  23.641  34.630   6.164
 5620POPC   C1A71163  23.713  34.574   6.464
 5620POPC   D2A71164  23.699  34.575   6.764
 5620POPC   C3A71165  23.679  34.532   7.064
 5620POPC   C4A71166  23.702  34.599   7.364
 5620POPC   C1B71167  23.553  34.732   6.464
 5620POPC   C2B71168  23.502  34.755   6.764
 5620POPC   C3B71169  23.472  34.749   7.064
 5620POPC   C4B71170  23.545  34.700   7.364
 5621POPC   NC371171  15.977  34.623   5.564
 5621POPC   PO471172  15.994  34.597   5.864
 5621POPC   GL171173  15.924  34.549   6.164
 5621POPC   GL271174  16.053  34.521   6.164
 5621POPC   C1A71175  15.957  34.613   6.464
 5621POPC   D2A71176  15.955  34.529   6.764
 5621POPC   C3A71177  15.955  34.544   7.064
 5621POPC   C4A71178  15.995  34.603   7.364
 5621POPC   C1B71179  16.159  34.393   6.464
 5621POPC   C2B71180  16.192  34.406   6.764
 5621POPC   C3B71181  16.129  34.379   7.064
 5621POPC   C4B71182  16.176  34.464   7.364
 5622POPC   NC371183   9.796   4.365   5.564
 5622POPC   PO471184   9.712   4.330   5.864
 5622POPC   GL171185   9.702   4.324   6.164
 5622POPC   GL271186   9.844   4.285   6.164
 5622POPC   C1A71187   9.710   4.298   6.464
 5622POPC   D2A71188   9.795   4.302   6.764
 5622POPC   C3A71189   9.777   4.330   7.064
 5622POPC   C4A71190   9.699   4.354   7.364
 5622POPC   C1B71191  10.023   4.257   6.464
 5622POPC   C2B71192  10.025   4.254   6.764
 5622POPC   C3B71193   9.949   4.297   7.064
 5622POPC   C4B71194   9.984   4.296   7.364
 5623POPC   NC371195   6.670   7.411   5.564
 5623POPC   PO471196   6.626   7.385   5.864
 5623POPC   GL171197   6.597   7.392   6.164
 5623POPC   GL271198   6.689   7.300   6.164
 5623POPC   C1A71199   6.646   7.463   6.464
 5623POPC   D2A71200   6.656   7.423   6.764
 5623POPC   C3A71201   6.616   7.432   7.064
 5623POPC   C4A71202   6.651   7.448   7.364
 5623POPC   C1B71203   6.771   7.191   6.464
 5623POPC   C2B71204   6.770   7.162   6.764
 5623POPC   C3B71205   6.712   7.224   7.064
 5623POPC   C4B71206   6.737   7.240   7.364
 5624POPC   NC371207  26.807  29.119   5.564
 5624POPC   PO471208  26.841  29.118   5.864
 5624POPC   GL171209  26.842  29.125   6.164
 5624POPC   GL271210  26.653  29.071   6.164
 5624POPC   C1A71211  26.772  29.189   6.464
 5624POPC   D2A71212  26.781  29.104   6.764
 5624POPC   C3A71213  26.818  29.126   7.064
 5624POPC   C4A71214  26.846  29.097   7.364
 5624POPC   C1B71215  26.589  29.121   6.464
 5624POPC   C2B71216  26.605  29.074   6.764
 5624POPC   C3B71217  26.592  29.080   7.064
 5624POPC   C4B71218  26.577  29.089   7.364
 5625POPC   NC371219  35.349   0.427   5.564
 5625POPC   PO471220  35.340   0.412   5.864
 5625POPC   GL171221  35.351   0.402   6.164
 5625POPC   GL271222  35.285   0.272   6.164
 5625POPC   C1A71223  35.376   0.389   6.464
 5625POPC   D2A71224  35.338   0.390   6.764
 5625POPC   C3A71225  35.368   0.409   7.064
 5625POPC   C4A71226  35.336   0.437   7.364
 5625POPC   C1B71227  35.260   0.148   6.464
 5625POPC   C2B71228  35.345   0.236   6.764
 5625POPC   C3B71229  35.354   0.149   7.064
 5625POPC   C4B71230  35.304   0.216   7.364
 5626POPC   NC371231   9.773  11.285   5.564
 5626POPC   PO471232   9.741  11.260   5.864
 5626POPC   GL171233   9.788  11.277   6.164
 5626POPC   GL271234   9.656  11.396   6.164
 5626POPC   C1A71235   9.789  11.298   6.464
 5626POPC   D2A71236   9.748  11.309   6.764
 5626POPC   C3A71237   9.716  11.335   7.064
 5626POPC   C4A71238   9.768  11.342   7.364
 5626POPC   C1B71239   9.593  11.478   6.464
 5626POPC   C2B71240   9.672  11.502   6.764
 5626POPC   C3B71241   9.634  11.482   7.064
 5626POPC   C4B71242   9.602  11.567   7.364
 5627POPC   NC371243   1.254  12.078   5.564
 5627POPC   PO471244   1.194  12.094   5.864
 5627POPC   GL171245   1.212  12.055   6.164
 5627POPC   GL271246   1.285  12.133   6.164
 5627POPC   C1A71247   1.237  12.060   6.464
 5627POPC   D2A71248   1.192  12.084   6.764
 5627POPC   C3A71249   1.226  12.104   7.064
 5627POPC   C4A71250   1.224  12.088   7.364
 5627POPC   C1B71251   1.388  12.228   6.464
 5627POPC   C2B71252   1.404  12.244   6.764
 5627POPC   C3B71253   1.368  12.250   7.064
 5627POPC   C4B71254   1.373  12.182   7.364
 5628POPC   NC371255  38.450  15.150   5.564
 5628POPC   PO471256  38.442  15.160   5.864
 5628POPC   GL171257  38.408  15.222   6.164
 5628POPC   GL271258  38.389  15.030   6.164
 5628POPC   C1A71259  38.487  15.189   6.464
 5628POPC   D2A71260  38.431  15.134   6.764
 5628POPC   C3A71261  38.474  15.206   7.064
 5628POPC   C4A71262  38.407  15.192   7.364
 5628POPC   C1B71263  38.336  14.934   6.464
 5628POPC   C2B71264  38.357  14.904   6.764
 5628POPC   C3B71265  38.318  14.935   7.064
 5628POPC   C4B71266  38.397  14.964   7.364
 5629POPC   NC371267  15.162  44.632   5.564
 5629POPC   PO471268  15.142  44.694   5.864
 5629POPC   GL171269  15.149  44.697   6.164
 5629POPC   GL271270  15.132  44.528   6.164
 5629POPC   C1A71271  15.198  44.658   6.464
 5629POPC   D2A71272  15.141  44.688   6.764
 5629POPC   C3A71273  15.164  44.627   7.064
 5629POPC   C4A71274  15.139  44.638   7.364
 5629POPC   C1B71275  15.000  44.476   6.464
 5629POPC   C2B71276  15.034  44.471   6.764
 5629POPC   C3B71277  15.058  44.482   7.064
 5629POPC   C4B71278  15.050  44.449   7.364
 5630POPC   NC371279  10.563  34.557   5.564
 5630POPC   PO471280  10.503  34.535   5.864
 5630POPC   GL171281  10.478  34.598   6.164
 5630POPC   GL271282  10.505  34.689   6.164
 5630POPC   C1A71283  10.543  34.574   6.464
 5630POPC   D2A71284  10.520  34.625   6.764
 5630POPC   C3A71285  10.534  34.529   7.064
 5630POPC   C4A71286  10.483  34.530   7.364
 5630POPC   C1B71287  10.428  34.840   6.464
 5630POPC   C2B71288  10.458  34.781   6.764
 5630POPC   C3B71289  10.454  34.829   7.064
 5630POPC   C4B71290  10.430  34.846   7.364
 5631POPC   NC371291   1.184  40.036   5.564
 5631POPC   PO471292   1.250  40.014   5.864
 5631POPC   GL171293   1.185  39.993   6.164
 5631POPC   GL271294   1.173  39.890   6.164
 5631POPC   C1A71295   1.212  39.970   6.464
 5631POPC   D2A71296   1.263  40.030   6.764
 5631POPC   C3A71297   1.212  40.023   7.064
 5631POPC   C4A71298   1.228  40.010   7.364
 5631POPC   C1B71299   1.151  39.776   6.464
 5631POPC   C2B71300   1.186  39.714   6.764
 5631POPC   C3B71301   1.211  39.766   7.064
 5631POPC   C4B71302   1.191  39.788   7.364
 5632POPC   NC371303  27.572  33.820   5.564
 5632POPC   PO471304  27.613  33.773   5.864
 5632POPC   GL171305  27.564  33.798   6.164
 5632POPC   GL271306  27.473  33.733   6.164
 5632POPC   C1A71307  27.565  33.753   6.464
 5632POPC   D2A71308  27.595  33.842   6.764
 5632POPC   C3A71309  27.577  33.846   7.064
 5632POPC   C4A71310  27.590  33.815   7.364
 5632POPC   C1B71311  27.439  33.615   6.464
 5632POPC   C2B71312  27.434  33.567   6.764
 5632POPC   C3B71313  27.474  33.615   7.064
 5632POPC   C4B71314  27.413  33.553   7.364
 5633POPC   NC371315  12.824  31.509   5.564
 5633POPC   PO471316  12.834  31.438   5.864
 5633POPC   GL171317  12.833  31.494   6.164
 5633POPC   GL271318  12.735  31.373   6.164
 5633POPC   C1A71319  12.836  31.471   6.464
 5633POPC   D2A71320  12.864  31.436   6.764
 5633POPC   C3A71321  12.866  31.502   7.064
 5633POPC   C4A71322  12.829  31.522   7.364
 5633POPC   C1B71323  12.673  31.320   6.464
 5633POPC   C2B71324  12.622  31.360   6.764
 5633POPC   C3B71325  12.686  31.386   7.064
 5633POPC   C4B71326  12.623  31.300   7.364
 5634POPC   NC371327  29.122   5.074   5.564
 5634POPC   PO471328  29.172   5.074   5.864
 5634POPC   GL171329  29.122   5.117   6.164
 5634POPC   GL271330  29.137   4.942   6.164
 5634POPC   C1A71331  29.131   5.044   6.464
 5634POPC   D2A71332  29.148   5.072   6.764
 5634POPC   C3A71333  29.184   5.125   7.064
 5634POPC   C4A71334  29.189   5.063   7.364
 5634POPC   C1B71335  29.057   4.847   6.464
 5634POPC   C2B71336  29.111   4.888   6.764
 5634POPC   C3B71337  29.107   4.835   7.064
 5634POPC   C4B71338  29.051   4.864   7.364
 5635POPC   NC371339  34.563  14.424   5.564
 5635POPC   PO471340  34.580  14.422   5.864
 5635POPC   GL171341  34.577  14.389   6.164
 5635POPC   GL271342  34.451  14.370   6.164
 5635POPC   C1A71343  34.562  14.449   6.464
 5635POPC   D2A71344  34.572  14.449   6.764
 5635POPC   C3A71345  34.567  14.444   7.064
 5635POPC   C4A71346  34.534  14.377   7.364
 5635POPC   C1B71347  34.308  14.348   6.464
 5635POPC   C2B71348  34.303  14.358   6.764
 5635POPC   C3B71349  34.304  14.340   7.064
 5635POPC   C4B71350  34.301  14.303   7.364
 5636POPC   NC371351  15.197  18.248   5.564
 5636POPC   PO471352  15.133  18.268   5.864
 5636POPC   GL171353  15.176  18.320   6.164
 5636POPC   GL271354  15.232  18.139   6.164
 5636POPC   C1A71355  15.182  18.260   6.464
 5636POPC   D2A71356  15.222  18.259   6.764
 5636POPC   C3A71357  15.151  18.300   7.064
 5636POPC   C4A71358  15.226  18.311   7.364
 5636POPC   C1B71359  15.182  18.065   6.464
 5636POPC   C2B71360  15.241  18.061   6.764
 5636POPC   C3B71361  15.243  18.024   7.064
 5636POPC   C4B71362  15.233  18.084   7.364
 5637POPC   NC371363  27.559  30.699   5.564
 5637POPC   PO471364  27.556  30.721   5.864
 5637POPC   GL171365  27.562  30.733   6.164
 5637POPC   GL271366  27.541  30.759   6.164
 5637POPC   C1A71367  27.571  30.695   6.464
 5637POPC   D2A71368  27.587  30.694   6.764
 5637POPC   C3A71369  27.579  30.676   7.064
 5637POPC   C4A71370  27.567  30.672   7.364
 5637POPC   C1B71371  27.383  30.839   6.464
 5637POPC   C2B71372  27.431  30.847   6.764
 5637POPC   C3B71373  27.453  30.823   7.064
 5637POPC   C4B71374  27.381  30.916   7.364
 5638POPC   NC371375  22.921  29.908   5.564
 5638POPC   PO471376  22.927  29.958   5.864
 5638POPC   GL171377  22.902  29.957   6.164
 5638POPC   GL271378  23.010  29.852   6.164
 5638POPC   C1A71379  22.897  29.914   6.464
 5638POPC   D2A71380  22.919  29.969   6.764
 5638POPC   C3A71381  22.953  29.912   7.064
 5638POPC   C4A71382  22.949  29.952   7.364
 5638POPC   C1B71383  23.100  29.731   6.464
 5638POPC   C2B71384  23.143  29.788   6.764
 5638POPC   C3B71385  23.181  29.762   7.064
 5638POPC   C4B71386  23.172  29.737   7.364
 5639POPC   NC371387  24.485  30.672   5.564
 5639POPC   PO471388  24.498  30.652   5.864
 5639POPC   GL171389  24.448  30.653   6.164
 5639POPC   GL271390  24.599  30.565   6.164
 5639POPC   C1A71391  24.442  30.674   6.464
 5639POPC   D2A71392  24.527  30.690   6.764
 5639POPC   C3A71393  24.537  30.660   7.064
 5639POPC   C4A71394  24.454  30.736   7.364
 5639POPC   C1B71395  24.689  30.462   6.464
 5639POPC   C2B71396  24.655  30.502   6.764
 5639POPC   C3B71397  24.638  30.448   7.064
 5639POPC   C4B71398  24.647  30.545   7.364
 5640POPC   NC371399  25.221  22.926   5.564
 5640POPC   PO471400  25.262  22.937   5.864
 5640POPC   GL171401  25.285  22.945   6.164
 5640POPC   GL271402  25.102  22.953   6.164
 5640POPC   C1A71403  25.281  22.890   6.464
 5640POPC   D2A71404  25.240  22.905   6.764
 5640POPC   C3A71405  25.246  22.964   7.064
 5640POPC   C4A71406  25.284  22.971   7.364
 5640POPC   C1B71407  25.048  23.005   6.464
 5640POPC   C2B71408  25.060  22.929   6.764
 5640POPC   C3B71409  24.992  22.990   7.064
 5640POPC   C4B71410  24.968  22.927   7.364
 5641POPC   NC371411  10.505  21.367   5.564
 5641POPC   PO471412  10.485  21.365   5.864
 5641POPC   GL171413  10.535  21.399   6.164
 5641POPC   GL271414  10.551  21.309   6.164
 5641POPC   C1A71415  10.508  21.373   6.464
 5641POPC   D2A71416  10.505  21.427   6.764
 5641POPC   C3A71417  10.503  21.359   7.064
 5641POPC   C4A71418  10.523  21.426   7.364
 5641POPC   C1B71419  10.666  21.131   6.464
 5641POPC   C2B71420  10.605  21.149   6.764
 5641POPC   C3B71421  10.591  21.136   7.064
 5641POPC   C4B71422  10.657  21.192   7.364
 5642POPC   NC371423  19.831  19.086   5.564
 5642POPC   PO471424  19.829  19.076   5.864
 5642POPC   GL171425  19.856  19.034   6.164
 5642POPC   GL271426  19.837  19.197   6.164
 5642POPC   C1A71427  19.791  19.045   6.464
 5642POPC   D2A71428  19.793  19.040   6.764
 5642POPC   C3A71429  19.793  19.085   7.064
 5642POPC   C4A71430  19.820  19.028   7.364
 5642POPC   C1B71431  19.930  19.326   6.464
 5642POPC   C2B71432  19.869  19.338   6.764
 5642POPC   C3B71433  19.941  19.292   7.064
 5642POPC   C4B71434  19.876  19.304   7.364
 5643POPC   NC371435   5.830  10.553   5.564
 5643POPC   PO471436   5.821  10.572   5.864
 5643POPC   GL171437   5.873  10.531   6.164
 5643POPC   GL271438   5.879  10.419   6.164
 5643POPC   C1A71439   5.918  10.522   6.464
 5643POPC   D2A71440   5.898  10.506   6.764
 5643POPC   C3A71441   5.845  10.485   7.064
 5643POPC   C4A71442   5.872  10.555   7.364
 5643POPC   C1B71443   5.935  10.272   6.464
 5643POPC   C2B71444   5.936  10.344   6.764
 5643POPC   C3B71445   5.994  10.300   7.064
 5643POPC   C4B71446   5.948  10.341   7.364
 5644POPC   NC371447  41.535  37.651   5.564
 5644POPC   PO471448  41.581  37.705   5.864
 5644POPC   GL171449  41.537  37.657   6.164
 5644POPC   GL271450  41.484  37.612   6.164
 5644POPC   C1A71451  41.560  37.630   6.464
 5644POPC   D2A71452  41.596  37.641   6.764
 5644POPC   C3A71453  41.535  37.646   7.064
 5644POPC   C4A71454  41.524  37.687   7.364
 5644POPC   C1B71455  41.331  37.543   6.464
 5644POPC   C2B71456  41.353  37.564   6.764
 5644POPC   C3B71457  41.327  37.490   7.064
 5644POPC   C4B71458  41.350  37.514   7.364
 5645POPC   NC371459  43.135   2.027   5.564
 5645POPC   PO471460  43.155   2.017   5.864
 5645POPC   GL171461  43.080   1.984   6.164
 5645POPC   GL271462  43.061   2.137   6.164
 5645POPC   C1A71463  43.111   1.940   6.464
 5645POPC   D2A71464  43.063   2.039   6.764
 5645POPC   C3A71465  43.095   1.986   7.064
 5645POPC   C4A71466  43.098   1.949   7.364
 5645POPC   C1B71467  42.983   2.185   6.464
 5645POPC   C2B71468  43.016   2.187   6.764
 5645POPC   C3B71469  42.990   2.255   7.064
 5645POPC   C4B71470  43.024   2.183   7.364
 5646POPC   NC371471  12.109  26.002   5.564
 5646POPC   PO471472  12.066  26.006   5.864
 5646POPC   GL171473  12.064  26.003   6.164
 5646POPC   GL271474  12.129  26.098   6.164
 5646POPC   C1A71475  12.026  26.023   6.464
 5646POPC   D2A71476  12.084  26.035   6.764
 5646POPC   C3A71477  12.034  25.997   7.064
 5646POPC   C4A71478  12.105  26.074   7.364
 5646POPC   C1B71479  12.327  26.150   6.464
 5646POPC   C2B71480  12.301  26.175   6.764
 5646POPC   C3B71481  12.260  26.194   7.064
 5646POPC   C4B71482  12.321  26.217   7.364
 5647POPC   NC371483  27.632  36.924   5.564
 5647POPC   PO471484  27.635  36.916   5.864
 5647POPC   GL171485  27.637  36.934   6.164
 5647POPC   GL271486  27.505  36.892   6.164
 5647POPC   C1A71487  27.633  36.931   6.464
 5647POPC   D2A71488  27.643  36.862   6.764
 5647POPC   C3A71489  27.585  36.938   7.064
 5647POPC   C4A71490  27.591  36.906   7.364
 5647POPC   C1B71491  27.346  36.810   6.464
 5647POPC   C2B71492  27.343  36.828   6.764
 5647POPC   C3B71493  27.336  36.789   7.064
 5647POPC   C4B71494  27.397  36.796   7.364
 5648POPC   NC371495  14.424   9.715   5.564
 5648POPC   PO471496  14.421   9.794   5.864
 5648POPC   GL171497  14.354   9.777   6.164
 5648POPC   GL271498  14.241   9.761   6.164
 5648POPC   C1A71499  14.440   9.702   6.464
 5648POPC   D2A71500  14.363   9.789   6.764
 5648POPC   C3A71501  14.417   9.758   7.064
 5648POPC   C4A71502  14.428   9.716   7.364
 5648POPC   C1B71503  14.121   9.833   6.464
 5648POPC   C2B71504  14.148   9.842   6.764
 5648POPC   C3B71505  14.167   9.838   7.064
 5648POPC   C4B71506  14.141   9.802   7.364
 5649POPC   NC371507  33.819   1.981   5.564
 5649POPC   PO471508  33.846   2.010   5.864
 5649POPC   GL171509  33.847   2.028   6.164
 5649POPC   GL271510  33.894   1.859   6.164
 5649POPC   C1A71511  33.806   1.971   6.464
 5649POPC   D2A71512  33.815   1.963   6.764
 5649POPC   C3A71513  33.818   2.003   7.064
 5649POPC   C4A71514  33.801   1.969   7.364
 5649POPC   C1B71515  33.940   1.818   6.464
 5649POPC   C2B71516  33.949   1.775   6.764
 5649POPC   C3B71517  33.959   1.775   7.064
 5649POPC   C4B71518  33.947   1.808   7.364
 5650POPC   NC371519  44.644  15.975   5.564
 5650POPC   PO471520  44.655  15.992   5.864
 5650POPC   GL171521  44.637  15.906   6.164
 5650POPC   GL271522  44.762  16.064   6.164
 5650POPC   C1A71523  44.707  15.914   6.464
 5650POPC   D2A71524  44.709  15.937   6.764
 5650POPC   C3A71525  44.679  15.933   7.064
 5650POPC   C4A71526  44.654  15.932   7.364
 5650POPC   C1B71527  44.774  16.196   6.464
 5650POPC   C2B71528  44.845  16.129   6.764
 5650POPC   C3B71529  44.836  16.173   7.064
 5650POPC   C4B71530  44.809  16.120   7.364
 5651POPC   NC371531  19.090   9.797   5.564
 5651POPC   PO471532  19.103   9.765   5.864
 5651POPC   GL171533  19.010   9.732   6.164
 5651POPC   GL271534  18.943   9.852   6.164
 5651POPC   C1A71535  19.067   9.778   6.464
 5651POPC   D2A71536  19.035   9.712   6.764
 5651POPC   C3A71537  19.081   9.727   7.064
 5651POPC   C4A71538  19.047   9.709   7.364
 5651POPC   C1B71539  18.873   9.983   6.464
 5651POPC   C2B71540  18.949   9.961   6.764
 5651POPC   C3B71541  18.905   9.915   7.064
 5651POPC   C4B71542  18.954   9.990   7.364
 5652POPC   NC371543  24.526  29.926   5.564
 5652POPC   PO471544  24.487  29.892   5.864
 5652POPC   GL171545  24.520  29.900   6.164
 5652POPC   GL271546  24.386  30.023   6.164
 5652POPC   C1A71547  24.484  29.911   6.464
 5652POPC   D2A71548  24.451  29.936   6.764
 5652POPC   C3A71549  24.539  29.960   7.064
 5652POPC   C4A71550  24.518  29.966   7.364
 5652POPC   C1B71551  24.248  30.101   6.464
 5652POPC   C2B71552  24.323  30.052   6.764
 5652POPC   C3B71553  24.290  30.078   7.064
 5652POPC   C4B71554  24.295  30.046   7.364
 5653POPC   NC371555  18.289  26.832   5.564
 5653POPC   PO471556  18.297  26.804   5.864
 5653POPC   GL171557  18.305  26.781   6.164
 5653POPC   GL271558  18.206  26.922   6.164
 5653POPC   C1A71559  18.288  26.824   6.464
 5653POPC   D2A71560  18.316  26.783   6.764
 5653POPC   C3A71561  18.301  26.819   7.064
 5653POPC   C4A71562  18.306  26.785   7.364
 5653POPC   C1B71563  18.093  26.964   6.464
 5653POPC   C2B71564  18.091  26.989   6.764
 5653POPC   C3B71565  18.030  26.966   7.064
 5653POPC   C4B71566  18.032  26.968   7.364
 5654POPC   NC371567  27.609  40.785   5.564
 5654POPC   PO471568  27.621  40.828   5.864
 5654POPC   GL171569  27.641  40.766   6.164
 5654POPC   GL271570  27.487  40.667   6.164
 5654POPC   C1A71571  27.640  40.766   6.464
 5654POPC   D2A71572  27.555  40.828   6.764
 5654POPC   C3A71573  27.557  40.804   7.064
 5654POPC   C4A71574  27.640  40.791   7.364
 5654POPC   C1B71575  27.433  40.580   6.464
 5654POPC   C2B71576  27.467  40.572   6.764
 5654POPC   C3B71577  27.454  40.541   7.064
 5654POPC   C4B71578  27.427  40.568   7.364
 5655POPC   NC371579  24.444  25.237   5.564
 5655POPC   PO471580  24.497  25.239   5.864
 5655POPC   GL171581  24.456  25.275   6.164
 5655POPC   GL271582  24.356  25.148   6.164
 5655POPC   C1A71583  24.531  25.266   6.464
 5655POPC   D2A71584  24.511  25.217   6.764
 5655POPC   C3A71585  24.504  25.226   7.064
 5655POPC   C4A71586  24.508  25.267   7.364
 5655POPC   C1B71587  24.249  25.094   6.464
 5655POPC   C2B71588  24.256  25.077   6.764
 5655POPC   C3B71589  24.331  25.101   7.064
 5655POPC   C4B71590  24.256  25.122   7.364
 5656POPC   NC371591   5.868  18.247   5.564
 5656POPC   PO471592   5.829  18.306   5.864
 5656POPC   GL171593   5.891  18.241   6.164
 5656POPC   GL271594   5.928  18.218   6.164
 5656POPC   C1A71595   5.861  18.309   6.464
 5656POPC   D2A71596   5.900  18.245   6.764
 5656POPC   C3A71597   5.824  18.308   7.064
 5656POPC   C4A71598   5.882  18.270   7.364
 5656POPC   C1B71599   6.027  18.107   6.464
 5656POPC   C2B71600   6.032  18.054   6.764
 5656POPC   C3B71601   6.004  18.096   7.064
 5656POPC   C4B71602   6.029  18.061   7.364
 5657POPC   NC371603   3.532  29.096   5.564
 5657POPC   PO471604   3.522  29.184   5.864
 5657POPC   GL171605   3.499  29.191   6.164
 5657POPC   GL271606   3.606  29.239   6.164
 5657POPC   C1A71607   3.511  29.107   6.464
 5657POPC   D2A71608   3.557  29.152   6.764
 5657POPC   C3A71609   3.524  29.158   7.064
 5657POPC   C4A71610   3.558  29.158   7.364
 5657POPC   C1B71611   3.792  29.204   6.464
 5657POPC   C2B71612   3.773  29.296   6.764
 5657POPC   C3B71613   3.773  29.214   7.064
 5657POPC   C4B71614   3.812  29.240   7.364
 5658POPC   NC371615  39.220   9.756   5.564
 5658POPC   PO471616  39.245   9.736   5.864
 5658POPC   GL171617  39.190   9.731   6.164
 5658POPC   GL271618  39.217   9.864   6.164
 5658POPC   C1A71619  39.257   9.795   6.464
 5658POPC   D2A71620  39.229   9.715   6.764
 5658POPC   C3A71621  39.231   9.783   7.064
 5658POPC   C4A71622  39.209   9.702   7.364
 5658POPC   C1B71623  39.129  10.040   6.464
 5658POPC   C2B71624  39.187  10.003   6.764
 5658POPC   C3B71625  39.166   9.981   7.064
 5658POPC   C4B71626  39.164  10.006   7.364
 5659POPC   NC371627  25.253  14.389   5.564
 5659POPC   PO471628  25.305  14.365   5.864
 5659POPC   GL171629  25.271  14.403   6.164
 5659POPC   GL271630  25.420  14.429   6.164
 5659POPC   C1A71631  25.234  14.409   6.464
 5659POPC   D2A71632  25.221  14.450   6.764
 5659POPC   C3A71633  25.259  14.357   7.064
 5659POPC   C4A71634  25.302  14.411   7.364
 5659POPC   C1B71635  25.501  14.477   6.464
 5659POPC   C2B71636  25.554  14.455   6.764
 5659POPC   C3B71637  25.477  14.434   7.064
 5659POPC   C4B71638  25.510  14.444   7.364
 5660POPC   NC371639  40.759   8.186   5.564
 5660POPC   PO471640  40.738   8.155   5.864
 5660POPC   GL171641  40.806   8.216   6.164
 5660POPC   GL271642  40.732   8.291   6.164
 5660POPC   C1A71643  40.765   8.188   6.464
 5660POPC   D2A71644  40.785   8.175   6.764
 5660POPC   C3A71645  40.812   8.222   7.064
 5660POPC   C4A71646  40.745   8.241   7.364
 5660POPC   C1B71647  40.710   8.415   6.464
 5660POPC   C2B71648  40.740   8.400   6.764
 5660POPC   C3B71649  40.680   8.436   7.064
 5660POPC   C4B71650  40.657   8.431   7.364
 5661POPC   NC371651  16.748  43.920   5.564
 5661POPC   PO471652  16.701  43.879   5.864
 5661POPC   GL171653  16.741  43.886   6.164
 5661POPC   GL271654  16.657  43.984   6.164
 5661POPC   C1A71655  16.707  43.857   6.464
 5661POPC   D2A71656  16.691  43.917   6.764
 5661POPC   C3A71657  16.773  43.883   7.064
 5661POPC   C4A71658  16.715  43.898   7.364
 5661POPC   C1B71659  16.630  44.043   6.464
 5661POPC   C2B71660  16.618  44.101   6.764
 5661POPC   C3B71661  16.626  44.058   7.064
 5661POPC   C4B71662  16.584  44.123   7.364
 5662POPC   NC371663   8.980  20.657   5.564
 5662POPC   PO471664   9.004  20.651   5.864
 5662POPC   GL171665   8.955  20.581   6.164
 5662POPC   GL271666   8.832  20.684   6.164
 5662POPC   C1A71667   9.004  20.575   6.464
 5662POPC   D2A71668   8.928  20.660   6.764
 5662POPC   C3A71669   8.939  20.629   7.064
 5662POPC   C4A71670   8.997  20.648   7.364
 5662POPC   C1B71671   8.822  20.741   6.464
 5662POPC   C2B71672   8.777  20.782   6.764
 5662POPC   C3B71673   8.767  20.743   7.064
 5662POPC   C4B71674   8.732  20.801   7.364
 5663POPC   NC371675  44.667   9.755   5.564
 5663POPC   PO471676  44.651   9.719   5.864
 5663POPC   GL171677  44.631   9.785   6.164
 5663POPC   GL271678  44.561   9.695   6.164
 5663POPC   C1A71679  44.619   9.709   6.464
 5663POPC   D2A71680  44.681   9.751   6.764
 5663POPC   C3A71681  44.617   9.790   7.064
 5663POPC   C4A71682  44.633   9.701   7.364
 5663POPC   C1B71683  44.410   9.620   6.464
 5663POPC   C2B71684  44.427   9.640   6.764
 5663POPC   C3B71685  44.435   9.632   7.064
 5663POPC   C4B71686  44.465   9.623   7.364
 5664POPC   NC371687  14.409  29.166   5.564
 5664POPC   PO471688  14.359  29.193   5.864
 5664POPC   GL171689  14.388  29.187   6.164
 5664POPC   GL271690  14.298  29.002   6.164
 5664POPC   C1A71691  14.377  29.168   6.464
 5664POPC   D2A71692  14.413  29.124   6.764
 5664POPC   C3A71693  14.394  29.167   7.064
 5664POPC   C4A71694  14.364  29.170   7.364
 5664POPC   C1B71695  14.277  28.986   6.464
 5664POPC   C2B71696  14.257  28.949   6.764
 5664POPC   C3B71697  14.230  28.926   7.064
 5664POPC   C4B71698  14.238  28.970   7.364
 5665POPC   NC371699  33.799  22.892   5.564
 5665POPC   PO471700  33.757  22.930   5.864
 5665POPC   GL171701  33.822  22.911   6.164
 5665POPC   GL271702  33.656  22.948   6.164
 5665POPC   C1A71703  33.787  22.986   6.464
 5665POPC   D2A71704  33.788  22.910   6.764
 5665POPC   C3A71705  33.800  22.922   7.064
 5665POPC   C4A71706  33.775  22.891   7.364
 5665POPC   C1B71707  33.531  22.873   6.464
 5665POPC   C2B71708  33.529  22.880   6.764
 5665POPC   C3B71709  33.598  22.912   7.064
 5665POPC   C4B71710  33.512  22.891   7.364
 5666POPC   NC371711  19.845   7.388   5.564
 5666POPC   PO471712  19.878   7.455   5.864
 5666POPC   GL171713  19.869   7.451   6.164
 5666POPC   GL271714  19.839   7.505   6.164
 5666POPC   C1A71715  19.809   7.433   6.464
 5666POPC   D2A71716  19.826   7.417   6.764
 5666POPC   C3A71717  19.804   7.374   7.064
 5666POPC   C4A71718  19.858   7.434   7.364
 5666POPC   C1B71719  19.801   7.704   6.464
 5666POPC   C2B71720  19.774   7.689   6.764
 5666POPC   C3B71721  19.817   7.714   7.064
 5666POPC   C4B71722  19.868   7.670   7.364
 5667POPC   NC371723  19.107   3.588   5.564
 5667POPC   PO471724  19.085   3.584   5.864
 5667POPC   GL171725  19.012   3.565   6.164
 5667POPC   GL271726  19.092   3.456   6.164
 5667POPC   C1A71727  19.046   3.553   6.464
 5667POPC   D2A71728  19.088   3.514   6.764
 5667POPC   C3A71729  19.096   3.500   7.064
 5667POPC   C4A71730  19.025   3.530   7.364
 5667POPC   C1B71731  19.193   3.316   6.464
 5667POPC   C2B71732  19.173   3.375   6.764
 5667POPC   C3B71733  19.189   3.347   7.064
 5667POPC   C4B71734  19.190   3.356   7.364
 5668POPC   NC371735  23.706  15.929   5.564
 5668POPC   PO471736  23.703  15.973   5.864
 5668POPC   GL171737  23.671  15.918   6.164
 5668POPC   GL271738  23.689  16.066   6.164
 5668POPC   C1A71739  23.745  15.940   6.464
 5668POPC   D2A71740  23.760  15.970   6.764
 5668POPC   C3A71741  23.687  15.984   7.064
 5668POPC   C4A71742  23.705  15.972   7.364
 5668POPC   C1B71743  23.716  16.210   6.464
 5668POPC   C2B71744  23.743  16.232   6.764
 5668POPC   C3B71745  23.795  16.199   7.064
 5668POPC   C4B71746  23.799  16.229   7.364
 5669POPC   NC371747  42.296   8.984   5.564
 5669POPC   PO471748  42.319   8.986   5.864
 5669POPC   GL171749  42.359   8.979   6.164
 5669POPC   GL271750  42.341   8.841   6.164
 5669POPC   C1A71751  42.370   8.978   6.464
 5669POPC   D2A71752  42.371   8.936   6.764
 5669POPC   C3A71753  42.372   8.996   7.064
 5669POPC   C4A71754  42.384   8.934   7.364
 5669POPC   C1B71755  42.251   8.748   6.464
 5669POPC   C2B71756  42.264   8.754   6.764
 5669POPC   C3B71757  42.301   8.765   7.064
 5669POPC   C4B71758  42.239   8.734   7.364
 5670POPC   NC371759   4.323  10.559   5.564
 5670POPC   PO471760   4.354  10.565   5.864
 5670POPC   GL171761   4.346  10.567   6.164
 5670POPC   GL271762   4.454  10.493   6.164
 5670POPC   C1A71763   4.357  10.557   6.464
 5670POPC   D2A71764   4.335  10.489   6.764
 5670POPC   C3A71765   4.321  10.480   7.064
 5670POPC   C4A71766   4.347  10.549   7.364
 5670POPC   C1B71767   4.611  10.492   6.464
 5670POPC   C2B71768   4.569  10.480   6.764
 5670POPC   C3B71769   4.581  10.491   7.064
 5670POPC   C4B71770   4.583  10.477   7.364
 5671POPC   NC371771  32.280  41.533   5.564
 5671POPC   PO471772  32.224  41.569   5.864
 5671POPC   GL171773  32.199  41.529   6.164
 5671POPC   GL271774  32.414  41.614   6.164
 5671POPC   C1A71775  32.249  41.512   6.464
 5671POPC   D2A71776  32.288  41.605   6.764
 5671POPC   C3A71777  32.260  41.585   7.064
 5671POPC   C4A71778  32.239  41.563   7.364
 5671POPC   C1B71779  32.518  41.570   6.464
 5671POPC   C2B71780  32.524  41.599   6.764
 5671POPC   C3B71781  32.541  41.634   7.064
 5671POPC   C4B71782  32.450  41.616   7.364
 5672POPC   NC371783  21.405  22.194   5.564
 5672POPC   PO471784  21.421  22.156   5.864
 5672POPC   GL171785  21.434  22.160   6.164
 5672POPC   GL271786  21.436  22.271   6.164
 5672POPC   C1A71787  21.414  22.140   6.464
 5672POPC   D2A71788  21.394  22.183   6.764
 5672POPC   C3A71789  21.429  22.180   7.064
 5672POPC   C4A71790  21.409  22.144   7.364
 5672POPC   C1B71791  21.455  22.362   6.464
 5672POPC   C2B71792  21.465  22.409   6.764
 5672POPC   C3B71793  21.442  22.345   7.064
 5672POPC   C4B71794  21.434  22.367   7.364
 5673POPC   NC371795   8.157  41.581   5.564
 5673POPC   PO471796   8.210  41.530   5.864
 5673POPC   GL171797   8.213  41.562   6.164
 5673POPC   GL271798   8.327  41.496   6.164
 5673POPC   C1A71799   8.160  41.607   6.464
 5673POPC   D2A71800   8.245  41.514   6.764
 5673POPC   C3A71801   8.219  41.576   7.064
 5673POPC   C4A71802   8.222  41.531   7.364
 5673POPC   C1B71803   8.376  41.407   6.464
 5673POPC   C2B71804   8.393  41.394   6.764
 5673POPC   C3B71805   8.396  41.395   7.064
 5673POPC   C4B71806   8.359  41.358   7.364
 5674POPC   NC371807  35.362   5.110   5.564
 5674POPC   PO471808  35.316   5.084   5.864
 5674POPC   GL171809  35.305   5.105   6.164
 5674POPC   GL271810  35.429   5.192   6.164
 5674POPC   C1A71811  35.393   5.110   6.464
 5674POPC   D2A71812  35.335   5.105   6.764
 5674POPC   C3A71813  35.388   5.133   7.064
 5674POPC   C4A71814  35.364   5.116   7.364
 5674POPC   C1B71815  35.500   5.281   6.464
 5674POPC   C2B71816  35.499   5.328   6.764
 5674POPC   C3B71817  35.530   5.325   7.064
 5674POPC   C4B71818  35.481   5.273   7.364
 5675POPC   NC371819  27.549  29.879   5.564
 5675POPC   PO471820  27.620  29.881   5.864
 5675POPC   GL171821  27.614  29.931   6.164
 5675POPC   GL271822  27.511  30.070   6.164
 5675POPC   C1A71823  27.609  29.949   6.464
 5675POPC   D2A71824  27.624  29.954   6.764
 5675POPC   C3A71825  27.620  29.894   7.064
 5675POPC   C4A71826  27.600  29.952   7.364
 5675POPC   C1B71827  27.524  30.118   6.464
 5675POPC   C2B71828  27.520  30.160   6.764
 5675POPC   C3B71829  27.496  30.183   7.064
 5675POPC   C4B71830  27.475  30.188   7.364
 5676POPC   NC371831  27.554   1.174   5.564
 5676POPC   PO471832  27.598   1.257   5.864
 5676POPC   GL171833  27.641   1.264   6.164
 5676POPC   GL271834  27.573   1.334   6.164
 5676POPC   C1A71835  27.637   1.238   6.464
 5676POPC   D2A71836  27.547   1.233   6.764
 5676POPC   C3A71837  27.560   1.181   7.064
 5676POPC   C4A71838  27.584   1.175   7.364
 5676POPC   C1B71839  27.494   1.447   6.464
 5676POPC   C2B71840  27.511   1.501   6.764
 5676POPC   C3B71841  27.541   1.478   7.064
 5676POPC   C4B71842  27.558   1.454   7.364
 5677POPC   NC371843  28.406  18.287   5.564
 5677POPC   PO471844  28.419  18.327   5.864
 5677POPC   GL171845  28.349  18.309   6.164
 5677POPC   GL271846  28.472  18.176   6.164
 5677POPC   C1A71847  28.347  18.306   6.464
 5677POPC   D2A71848  28.324  18.258   6.764
 5677POPC   C3A71849  28.373  18.269   7.064
 5677POPC   C4A71850  28.346  18.301   7.364
 5677POPC   C1B71851  28.618  18.173   6.464
 5677POPC   C2B71852  28.601  18.164   6.764
 5677POPC   C3B71853  28.573  18.124   7.064
 5677POPC   C4B71854  28.613  18.200   7.364
 5678POPC   NC371855   8.202   4.346   5.564
 5678POPC   PO471856   8.155   4.328   5.864
 5678POPC   GL171857   8.155   4.270   6.164
 5678POPC   GL271858   8.173   4.150   6.164
 5678POPC   C1A71859   8.180   4.324   6.464
 5678POPC   D2A71860   8.161   4.275   6.764
 5678POPC   C3A71861   8.223   4.357   7.064
 5678POPC   C4A71862   8.147   4.321   7.364
 5678POPC   C1B71863   8.223   4.063   6.464
 5678POPC   C2B71864   8.180   4.038   6.764
 5678POPC   C3B71865   8.186   4.104   7.064
 5678POPC   C4B71866   8.224   4.106   7.364
 5679POPC   NC371867  26.063  35.325   5.564
 5679POPC   PO471868  26.006  35.352   5.864
 5679POPC   GL171869  26.078  35.349   6.164
 5679POPC   GL271870  26.176  35.453   6.164
 5679POPC   C1A71871  26.083  35.395   6.464
 5679POPC   D2A71872  26.015  35.379   6.764
 5679POPC   C3A71873  25.997  35.367   7.064
 5679POPC   C4A71874  26.086  35.355   7.364
 5679POPC   C1B71875  26.253  35.517   6.464
 5679POPC   C2B71876  26.216  35.465   6.764
 5679POPC   C3B71877  26.259  35.497   7.064
 5679POPC   C4B71878  26.223  35.455   7.364
 5680POPC   NC371879  32.271   5.061   5.564
 5680POPC   PO471880  32.204   5.104   5.864
 5680POPC   GL171881  32.274   5.054   6.164
 5680POPC   GL271882  32.119   5.005   6.164
 5680POPC   C1A71883  32.202   5.089   6.464
 5680POPC   D2A71884  32.232   5.141   6.764
 5680POPC   C3A71885  32.215   5.055   7.064
 5680POPC   C4A71886  32.292   5.085   7.364
 5680POPC   C1B71887  32.055   4.915   6.464
 5680POPC   C2B71888  32.072   4.988   6.764
 5680POPC   C3B71889  32.021   4.991   7.064
 5680POPC   C4B71890  32.043   4.968   7.364
 5681POPC   NC371891  44.635  27.585   5.564
 5681POPC   PO471892  44.688  27.642   5.864
 5681POPC   GL171893  44.680  27.562   6.164
 5681POPC   GL271894  44.501  27.608   6.164
 5681POPC   C1A71895  44.681  27.590   6.464
 5681POPC   D2A71896  44.710  27.634   6.764
 5681POPC   C3A71897  44.654  27.597   7.064
 5681POPC   C4A71898  44.661  27.596   7.364
 5681POPC   C1B71899  44.400  27.593   6.464
 5681POPC   C2B71900  44.444  27.573   6.764
 5681POPC   C3B71901  44.366  27.528   7.064
 5681POPC   C4B71902  44.432  27.550   7.364
 5682POPC   NC371903   6.679  39.979   5.564
 5682POPC   PO471904   6.664  40.031   5.864
 5682POPC   GL171905   6.680  40.014   6.164
 5682POPC   GL271906   6.583  40.064   6.164
 5682POPC   C1A71907   6.637  39.990   6.464
 5682POPC   D2A71908   6.666  39.983   6.764
 5682POPC   C3A71909   6.658  40.023   7.064
 5682POPC   C4A71910   6.622  39.962   7.364
 5682POPC   C1B71911   6.404  40.202   6.464
 5682POPC   C2B71912   6.403  40.123   6.764
 5682POPC   C3B71913   6.448  40.130   7.064
 5682POPC   C4B71914   6.486  40.116   7.364
 5683POPC   NC371915  37.633  43.129   5.564
 5683POPC   PO471916  37.638  43.072   5.864
 5683POPC   GL171917  37.651  43.089   6.164
 5683POPC   GL271918  37.532  43.060   6.164
 5683POPC   C1A71919  37.655  43.082   6.464
 5683POPC   D2A71920  37.694  43.078   6.764
 5683POPC   C3A71921  37.717  43.065   7.064
 5683POPC   C4A71922  37.726  43.069   7.364
 5683POPC   C1B71923  37.405  43.046   6.464
 5683POPC   C2B71924  37.428  43.037   6.764
 5683POPC   C3B71925  37.486  43.031   7.064
 5683POPC   C4B71926  37.446  42.992   7.364
 5684POPC   NC371927  38.465   2.788   5.564
 5684POPC   PO471928  38.449   2.815   5.864
 5684POPC   GL171929  38.496   2.782   6.164
 5684POPC   GL271930  38.487   2.629   6.164
 5684POPC   C1A71931  38.504   2.792   6.464
 5684POPC   D2A71932  38.486   2.783   6.764
 5684POPC   C3A71933  38.501   2.724   7.064
 5684POPC   C4A71934  38.495   2.747   7.364
 5684POPC   C1B71935  38.407   2.554   6.464
 5684POPC   C2B71936  38.461   2.473   6.764
 5684POPC   C3B71937  38.406   2.479   7.064
 5684POPC   C4B71938  38.441   2.537   7.364
 5685POPC   NC371939  28.372  10.556   5.564
 5685POPC   PO471940  28.413  10.507   5.864
 5685POPC   GL171941  28.329  10.513   6.164
 5685POPC   GL271942  28.443  10.370   6.164
 5685POPC   C1A71943  28.343  10.502   6.464
 5685POPC   D2A71944  28.380  10.479   6.764
 5685POPC   C3A71945  28.357  10.569   7.064
 5685POPC   C4A71946  28.328  10.569   7.364
 5685POPC   C1B71947  28.497  10.268   6.464
 5685POPC   C2B71948  28.457  10.333   6.764
 5685POPC   C3B71949  28.509  10.328   7.064
 5685POPC   C4B71950  28.528  10.288   7.364
 5686POPC   NC371951   9.714   8.184   5.564
 5686POPC   PO471952   9.757   8.190   5.864
 5686POPC   GL171953   9.717   8.154   6.164
 5686POPC   GL271954   9.630   8.099   6.164
 5686POPC   C1A71955   9.708   8.236   6.464
 5686POPC   D2A71956   9.746   8.174   6.764
 5686POPC   C3A71957   9.710   8.211   7.064
 5686POPC   C4A71958   9.793   8.236   7.364
 5686POPC   C1B71959   9.572   8.032   6.464
 5686POPC   C2B71960   9.499   8.053   6.764
 5686POPC   C3B71961   9.565   8.063   7.064
 5686POPC   C4B71962   9.526   8.099   7.364
 5687POPC   NC371963  41.549  35.315   5.564
 5687POPC   PO471964  41.596  35.383   5.864
 5687POPC   GL171965  41.525  35.381   6.164
 5687POPC   GL271966  41.620  35.265   6.164
 5687POPC   C1A71967  41.608  35.379   6.464
 5687POPC   D2A71968  41.544  35.366   6.764
 5687POPC   C3A71969  41.585  35.399   7.064
 5687POPC   C4A71970  41.516  35.393   7.364
 5687POPC   C1B71971  41.739  35.141   6.464
 5687POPC   C2B71972  41.721  35.219   6.764
 5687POPC   C3B71973  41.762  35.187   7.064
 5687POPC   C4B71974  41.763  35.166   7.364
 5688POPC   NC371975  16.712  38.486   5.564
 5688POPC   PO471976  16.778  38.430   5.864
 5688POPC   GL171977  16.715  38.422   6.164
 5688POPC   GL271978  16.778  38.415   6.164
 5688POPC   C1A71979  16.764  38.487   6.464
 5688POPC   D2A71980  16.723  38.481   6.764
 5688POPC   C3A71981  16.690  38.483   7.064
 5688POPC   C4A71982  16.704  38.432   7.364
 5688POPC   C1B71983  16.884  38.292   6.464
 5688POPC   C2B71984  16.876  38.275   6.764
 5688POPC   C3B71985  16.906  38.297   7.064
 5688POPC   C4B71986  16.890  38.250   7.364
 5689POPC   NC371987  12.094   0.404   5.564
 5689POPC   PO471988  12.027   0.430   5.864
 5689POPC   GL171989  12.065   0.486   6.164
 5689POPC   GL271990  12.140   0.473   6.164
 5689POPC   C1A71991  12.099   0.461   6.464
 5689POPC   D2A71992  12.090   0.391   6.764
 5689POPC   C3A71993  12.031   0.420   7.064
 5689POPC   C4A71994  12.028   0.471   7.364
 5689POPC   C1B71995  12.303   0.516   6.464
 5689POPC   C2B71996  12.276   0.594   6.764
 5689POPC   C3B71997  12.279   0.567   7.064
 5689POPC   C4B71998  12.328   0.576   7.364
 5690POPC   NC371999   1.169  34.533   5.564
 5690POPC   PO472000   1.233  34.553   5.864
 5690POPC   GL172001   1.174  34.547   6.164
 5690POPC   GL272002   1.085  34.502   6.164
 5690POPC   C1A72003   1.175  34.565   6.464
 5690POPC   D2A72004   1.211  34.589   6.764
 5690POPC   C3A72005   1.186  34.618   7.064
 5690POPC   C4A72006   1.191  34.613   7.364
 5690POPC   C1B72007   1.011  34.501   6.464
 5690POPC   C2B72008   1.006  34.451   6.764
 5690POPC   C3B72009   0.997  34.493   7.064
 5690POPC   C4B72010   0.943  34.487   7.364
 5691POPC   NC372011   2.784  44.649   5.564
 5691POPC   PO472012   2.766  44.622   5.864
 5691POPC   GL172013   2.795  44.697   6.164
 5691POPC   GL272014   2.919  44.689   6.164
 5691POPC   C1A72015   2.775  44.651   6.464
 5691POPC   D2A72016   2.763  44.699   6.764
 5691POPC   C3A72017   2.766  44.701   7.064
 5691POPC   C4A72018   2.748  44.649   7.364
 5691POPC   C1B72019   3.018  44.761   6.464
 5691POPC   C2B72020   3.036  44.805   6.764
 5691POPC   C3B72021   2.947  44.771   7.064
 5691POPC   C4B72022   3.002  44.801   7.364
 5692POPC   NC372023  43.862  12.855   5.564
 5692POPC   PO472024  43.844  12.896   5.864
 5692POPC   GL172025  43.884  12.828   6.164
 5692POPC   GL272026  43.932  12.715   6.164
 5692POPC   C1A72027  43.916  12.825   6.464
 5692POPC   D2A72028  43.864  12.858   6.764
 5692POPC   C3A72029  43.890  12.878   7.064
 5692POPC   C4A72030  43.847  12.861   7.364
 5692POPC   C1B72031  43.983  12.615   6.464
 5692POPC   C2B72032  43.957  12.595   6.764
 5692POPC   C3B72033  44.000  12.632   7.064
 5692POPC   C4B72034  44.001  12.613   7.364
 5693POPC   NC372035   8.182  13.605   5.564
 5693POPC   PO472036   8.169  13.661   5.864
 5693POPC   GL172037   8.229  13.643   6.164
 5693POPC   GL272038   8.303  13.760   6.164
 5693POPC   C1A72039   8.230  13.596   6.464
 5693POPC   D2A72040   8.194  13.629   6.764
 5693POPC   C3A72041   8.217  13.647   7.064
 5693POPC   C4A72042   8.185  13.672   7.364
 5693POPC   C1B72043   8.351  13.869   6.464
 5693POPC   C2B72044   8.385  13.847   6.764
 5693POPC   C3B72045   8.362  13.853   7.064
 5693POPC   C4B72046   8.374  13.816   7.364
 5694POPC   NC372047   1.996  36.920   5.564
 5694POPC   PO472048   1.952  36.883   5.864
 5694POPC   GL172049   1.989  36.890   6.164
 5694POPC   GL272050   1.896  36.820   6.164
 5694POPC   C1A72051   2.008  36.922   6.464
 5694POPC   D2A72052   1.970  36.917   6.764
 5694POPC   C3A72053   1.986  36.870   7.064
 5694POPC   C4A72054   1.961  36.928   7.364
 5694POPC   C1B72055   1.900  36.657   6.464
 5694POPC   C2B72056   1.907  36.664   6.764
 5694POPC   C3B72057   1.841  36.686   7.064
 5694POPC   C4B72058   1.860  36.664   7.364
 5695POPC   NC372059   6.680  31.443   5.564
 5695POPC   PO472060   6.624  31.470   5.864
 5695POPC   GL172061   6.687  31.451   6.164
 5695POPC   GL272062   6.607  31.570   6.164
 5695POPC   C1A72063   6.617  31.518   6.464
 5695POPC   D2A72064   6.654  31.450   6.764
 5695POPC   C3A72065   6.668  31.452   7.064
 5695POPC   C4A72066   6.665  31.465   7.364
 5695POPC   C1B72067   6.582  31.720   6.464
 5695POPC   C2B72068   6.594  31.747   6.764
 5695POPC   C3B72069   6.599  31.745   7.064
 5695POPC   C4B72070   6.554  31.680   7.364
 5696POPC   NC372071   0.396   5.115   5.564
 5696POPC   PO472072   0.477   5.140   5.864
 5696POPC   GL172073   0.438   5.062   6.164
 5696POPC   GL272074   0.345   5.184   6.164
 5696POPC   C1A72075   0.401   5.108   6.464
 5696POPC   D2A72076   0.401   5.096   6.764
 5696POPC   C3A72077   0.483   5.090   7.064
 5696POPC   C4A72078   0.427   5.080   7.364
 5696POPC   C1B72079   0.322   5.277   6.464
 5696POPC   C2B72080   0.370   5.290   6.764
 5696POPC   C3B72081   0.333   5.340   7.064
 5696POPC   C4B72082   0.292   5.309   7.364
 5697POPC   NC372083  19.048  29.156   5.564
 5697POPC   PO472084  19.028  29.143   5.864
 5697POPC   GL172085  19.016  29.102   6.164
 5697POPC   GL272086  19.215  29.195   6.164
 5697POPC   C1A72087  19.052  29.152   6.464
 5697POPC   D2A72088  19.107  29.129   6.764
 5697POPC   C3A72089  19.056  29.158   7.064
 5697POPC   C4A72090  19.037  29.191   7.364
 5697POPC   C1B72091  19.319  29.194   6.464
 5697POPC   C2B72092  19.273  29.216   6.764
 5697POPC   C3B72093  19.291  29.167   7.064
 5697POPC   C4B72094  19.282  29.218   7.364
 5698POPC   NC372095  43.927   8.936   5.564
 5698POPC   PO472096  43.892   8.960   5.864
 5698POPC   GL172097  43.844   9.020   6.164
 5698POPC   GL272098  43.940   9.026   6.164
 5698POPC   C1A72099  43.922   9.022   6.464
 5698POPC   D2A72100  43.898   8.985   6.764
 5698POPC   C3A72101  43.909   8.936   7.064
 5698POPC   C4A72102  43.841   8.968   7.364
 5698POPC   C1B72103  44.010   9.196   6.464
 5698POPC   C2B72104  44.067   9.166   6.764
 5698POPC   C3B72105  44.056   9.208   7.064
 5698POPC   C4B72106  44.009   9.151   7.364
 5699POPC   NC372107  35.381  43.064   5.564
 5699POPC   PO472108  35.370  43.157   5.864
 5699POPC   GL172109  35.377  43.114   6.164
 5699POPC   GL272110  35.226  43.105   6.164
 5699POPC   C1A72111  35.336  43.136   6.464
 5699POPC   D2A72112  35.359  43.106   6.764
 5699POPC   C3A72113  35.386  43.094   7.064
 5699POPC   C4A72114  35.324  43.158   7.364
 5699POPC   C1B72115  35.153  43.184   6.464
 5699POPC   C2B72116  35.082  43.170   6.764
 5699POPC   C3B72117  35.118  43.184   7.064
 5699POPC   C4B72118  35.153  43.211   7.364
 5700POPC   NC372119  36.151  28.360   5.564
 5700POPC   PO472120  36.152  28.348   5.864
 5700POPC   GL172121  36.129  28.345   6.164
 5700POPC   GL272122  36.001  28.473   6.164
 5700POPC   C1A72123  36.119  28.360   6.464
 5700POPC   D2A72124  36.110  28.374   6.764
 5700POPC   C3A72125  36.107  28.411   7.064
 5700POPC   C4A72126  36.083  28.416   7.364
 5700POPC   C1B72127  35.975  28.488   6.464
 5700POPC   C2B72128  35.970  28.534   6.764
 5700POPC   C3B72129  35.911  28.512   7.064
 5700POPC   C4B72130  35.895  28.533   7.364
 5701POPC   NC372131  29.908  12.115   5.564
 5701POPC   PO472132  29.892  12.112   5.864
 5701POPC   GL172133  29.950  12.106   6.164
 5701POPC   GL272134  30.094  12.032   6.164
 5701POPC   C1A72135  29.951  12.060   6.464
 5701POPC   D2A72136  29.931  12.084   6.764
 5701POPC   C3A72137  29.914  12.113   7.064
 5701POPC   C4A72138  29.952  12.120   7.364
 5701POPC   C1B72139  30.210  12.062   6.464
 5701POPC   C2B72140  30.128  12.027   6.764
 5701POPC   C3B72141  30.210  12.046   7.064
 5701POPC   C4B72142  30.122  12.109   7.364
 5702POPC   NC372143   8.244  32.275   5.564
 5702POPC   PO472144   8.159  32.234   5.864
 5702POPC   GL172145   8.237  32.277   6.164
 5702POPC   GL272146   8.320  32.361   6.164
 5702POPC   C1A72147   8.195  32.243   6.464
 5702POPC   D2A72148   8.196  32.246   6.764
 5702POPC   C3A72149   8.246  32.285   7.064
 5702POPC   C4A72150   8.190  32.281   7.364
 5702POPC   C1B72151   8.386  32.452   6.464
 5702POPC   C2B72152   8.369  32.388   6.764
 5702POPC   C3B72153   8.356  32.371   7.064
 5702POPC   C4B72154   8.362  32.427   7.364
 5703POPC   NC372155  11.337  43.084   5.564
 5703POPC   PO472156  11.308  43.118   5.864
 5703POPC   GL172157  11.258  43.088   6.164
 5703POPC   GL272158  11.238  43.010   6.164
 5703POPC   C1A72159  11.318  43.073   6.464
 5703POPC   D2A72160  11.302  43.137   6.764
 5703POPC   C3A72161  11.254  43.066   7.064
 5703POPC   C4A72162  11.321  43.152   7.364
 5703POPC   C1B72163  11.152  42.923   6.464
 5703POPC   C2B72164  11.136  42.918   6.764
 5703POPC   C3B72165  11.207  42.934   7.064
 5703POPC   C4B72166  11.227  42.941   7.364
 5704POPC   NC372167  12.093   1.258   5.564
 5704POPC   PO472168  12.055   1.246   5.864
 5704POPC   GL172169  12.115   1.257   6.164
 5704POPC   GL272170  11.949   1.161   6.164
 5704POPC   C1A72171  12.122   1.214   6.464
 5704POPC   D2A72172  12.103   1.249   6.764
 5704POPC   C3A72173  12.035   1.235   7.064
 5704POPC   C4A72174  12.122   1.182   7.364
 5704POPC   C1B72175  11.850   1.152   6.464
 5704POPC   C2B72176  11.850   1.122   6.764
 5704POPC   C3B72177  11.841   1.134   7.064
 5704POPC   C4B72178  11.803   1.206   7.364
 5705POPC   NC372179  35.312  18.268   5.564
 5705POPC   PO472180  35.350  18.296   5.864
 5705POPC   GL172181  35.307  18.267   6.164
 5705POPC   GL272182  35.254  18.146   6.164
 5705POPC   C1A72183  35.375  18.308   6.464
 5705POPC   D2A72184  35.309  18.316   6.764
 5705POPC   C3A72185  35.375  18.316   7.064
 5705POPC   C4A72186  35.342  18.241   7.364
 5705POPC   C1B72187  35.262  18.064   6.464
 5705POPC   C2B72188  35.274  18.071   6.764
 5705POPC   C3B72189  35.250  18.012   7.064
 5705POPC   C4B72190  35.249  18.016   7.364
 5706POPC   NC372191  21.350   1.238   5.564
 5706POPC   PO472192  21.357   1.198   5.864
 5706POPC   GL172193  21.400   1.179   6.164
 5706POPC   GL272194  21.391   1.072   6.164
 5706POPC   C1A72195  21.356   1.232   6.464
 5706POPC   D2A72196  21.393   1.200   6.764
 5706POPC   C3A72197  21.423   1.217   7.064
 5706POPC   C4A72198  21.388   1.184   7.364
 5706POPC   C1B72199  21.395   1.010   6.464
 5706POPC   C2B72200  21.408   0.931   6.764
 5706POPC   C3B72201  21.399   0.957   7.064
 5706POPC   C4B72202  21.397   0.946   7.364
 5707POPC   NC372203  15.218  31.454   5.564
 5707POPC   PO472204  15.187  31.429   5.864
 5707POPC   GL172205  15.153  31.475   6.164
 5707POPC   GL272206  15.163  31.585   6.164
 5707POPC   C1A72207  15.195  31.426   6.464
 5707POPC   D2A72208  15.221  31.426   6.764
 5707POPC   C3A72209  15.180  31.511   7.064
 5707POPC   C4A72210  15.222  31.479   7.364
 5707POPC   C1B72211  15.090  31.720   6.464
 5707POPC   C2B72212  15.081  31.759   6.764
 5707POPC   C3B72213  15.071  31.756   7.064
 5707POPC   C4B72214  15.128  31.726   7.364
 5708POPC   NC372215   5.075  11.308   5.564
 5708POPC   PO472216   5.044  11.265   5.864
 5708POPC   GL172217   5.052  11.344   6.164
 5708POPC   GL272218   4.998  11.274   6.164
 5708POPC   C1A72219   5.093  11.312   6.464
 5708POPC   D2A72220   5.105  11.290   6.764
 5708POPC   C3A72221   5.125  11.347   7.064
 5708POPC   C4A72222   5.139  11.308   7.364
 5708POPC   C1B72223   4.896  11.193   6.464
 5708POPC   C2B72224   4.875  11.160   6.764
 5708POPC   C3B72225   4.905  11.185   7.064
 5708POPC   C4B72226   4.882  11.160   7.364
 5709POPC   NC372227  16.764   3.566   5.564
 5709POPC   PO472228  16.747   3.538   5.864
 5709POPC   GL172229  16.776   3.513   6.164
 5709POPC   GL272230  16.589   3.556   6.164
 5709POPC   C1A72231  16.730   3.590   6.464
 5709POPC   D2A72232  16.748   3.531   6.764
 5709POPC   C3A72233  16.738   3.520   7.064
 5709POPC   C4A72234  16.733   3.584   7.364
 5709POPC   C1B72235  16.457   3.585   6.464
 5709POPC   C2B72236  16.456   3.654   6.764
 5709POPC   C3B72237  16.511   3.580   7.064
 5709POPC   C4B72238  16.527   3.635   7.364
 5710POPC   NC372239   5.845   6.618   5.564
 5710POPC   PO472240   5.916   6.646   5.864
 5710POPC   GL172241   5.837   6.633   6.164
 5710POPC   GL272242   5.859   6.575   6.164
 5710POPC   C1A72243   5.834   6.655   6.464
 5710POPC   D2A72244   5.865   6.620   6.764
 5710POPC   C3A72245   5.843   6.632   7.064
 5710POPC   C4A72246   5.916   6.674   7.364
 5710POPC   C1B72247   5.984   6.413   6.464
 5710POPC   C2B72248   5.916   6.414   6.764
 5710POPC   C3B72249   5.980   6.446   7.064
 5710POPC   C4B72250   5.945   6.370   7.364
 5711POPC   NC372251  43.886  39.972   5.564
 5711POPC   PO472252  43.914  39.985   5.864
 5711POPC   GL172253  43.936  39.983   6.164
 5711POPC   GL272254  43.843  39.883   6.164
 5711POPC   C1A72255  43.905  40.025   6.464
 5711POPC   D2A72256  43.856  39.960   6.764
 5711POPC   C3A72257  43.914  40.043   7.064
 5711POPC   C4A72258  43.909  39.988   7.364
 5711POPC   C1B72259  43.683  39.768   6.464
 5711POPC   C2B72260  43.729  39.809   6.764
 5711POPC   C3B72261  43.717  39.768   7.064
 5711POPC   C4B72262  43.706  39.775   7.364
 5712POPC   NC372263  29.884  33.059   5.564
 5712POPC   PO472264  29.918  33.007   5.864
 5712POPC   GL172265  29.964  32.979   6.164
 5712POPC   GL272266  29.909  32.870   6.164
 5712POPC   C1A72267  29.901  33.004   6.464
 5712POPC   D2A72268  29.967  33.073   6.764
 5712POPC   C3A72269  29.929  32.981   7.064
 5712POPC   C4A72270  29.962  32.982   7.364
 5712POPC   C1B72271  29.942  32.799   6.464
 5712POPC   C2B72272  29.947  32.774   6.764
 5712POPC   C3B72273  29.948  32.727   7.064
 5712POPC   C4B72274  29.854  32.822   7.364
 5713POPC   NC372275   7.428  18.285   5.564
 5713POPC   PO472276   7.401  18.273   5.864
 5713POPC   GL172277   7.401  18.275   6.164
 5713POPC   GL272278   7.349  18.416   6.164
 5713POPC   C1A72279   7.461  18.321   6.464
 5713POPC   D2A72280   7.399  18.322   6.764
 5713POPC   C3A72281   7.428  18.325   7.064
 5713POPC   C4A72282   7.431  18.326   7.364
 5713POPC   C1B72283   7.377  18.530   6.464
 5713POPC   C2B72284   7.334  18.546   6.764
 5713POPC   C3B72285   7.392  18.527   7.064
 5713POPC   C4B72286   7.344  18.486   7.364
 5714POPC   NC372287  30.647  14.386   5.564
 5714POPC   PO472288  30.711  14.446   5.864
 5714POPC   GL172289  30.661  14.418   6.164
 5714POPC   GL272290  30.778  14.444   6.164
 5714POPC   C1A72291  30.672  14.383   6.464
 5714POPC   D2A72292  30.686  14.375   6.764
 5714POPC   C3A72293  30.701  14.368   7.064
 5714POPC   C4A72294  30.686  14.417   7.364
 5714POPC   C1B72295  30.868  14.533   6.464
 5714POPC   C2B72296  30.886  14.604   6.764
 5714POPC   C3B72297  30.851  14.548   7.064
 5714POPC   C4B72298  30.894  14.543   7.364
 5715POPC   NC372299  14.445   0.441   5.564
 5715POPC   PO472300  14.393   0.399   5.864
 5715POPC   GL172301  14.438   0.476   6.164
 5715POPC   GL272302  14.389   0.272   6.164
 5715POPC   C1A72303  14.387   0.406   6.464
 5715POPC   D2A72304  14.385   0.388   6.764
 5715POPC   C3A72305  14.360   0.465   7.064
 5715POPC   C4A72306  14.409   0.406   7.364
 5715POPC   C1B72307  14.373   0.168   6.464
 5715POPC   C2B72308  14.397   0.168   6.764
 5715POPC   C3B72309  14.396   0.181   7.064
 5715POPC   C4B72310  14.355   0.154   7.364
 5716POPC   NC372311  17.482   4.342   5.564
 5716POPC   PO472312  17.519   4.302   5.864
 5716POPC   GL172313  17.547   4.295   6.164
 5716POPC   GL272314  17.350   4.348   6.164
 5716POPC   C1A72315  17.488   4.328   6.464
 5716POPC   D2A72316  17.483   4.342   6.764
 5716POPC   C3A72317  17.519   4.281   7.064
 5716POPC   C4A72318  17.535   4.304   7.364
 5716POPC   C1B72319  17.303   4.340   6.464
 5716POPC   C2B72320  17.300   4.336   6.764
 5716POPC   C3B72321  17.300   4.338   7.064
 5716POPC   C4B72322  17.303   4.323   7.364
 5717POPC   NC372323   0.484  23.697   5.564
 5717POPC   PO472324   0.403  23.684   5.864
 5717POPC   GL172325   0.435  23.681   6.164
 5717POPC   GL272326   0.503  23.782   6.164
 5717POPC   C1A72327   0.467  23.732   6.464
 5717POPC   D2A72328   0.464  23.703   6.764
 5717POPC   C3A72329   0.414  23.666   7.064
 5717POPC   C4A72330   0.451  23.681   7.364
 5717POPC   C1B72331   0.531  23.973   6.464
 5717POPC   C2B72332   0.538  23.905   6.764
 5717POPC   C3B72333   0.531  23.894   7.064
 5717POPC   C4B72334   0.499  23.926   7.364
 5718POPC   NC372335   2.809  23.700   5.564
 5718POPC   PO472336   2.766  23.683   5.864
 5718POPC   GL172337   2.798  23.713   6.164
 5718POPC   GL272338   2.659  23.837   6.164
 5718POPC   C1A72339   2.789  23.764   6.464
 5718POPC   D2A72340   2.759  23.712   6.764
 5718POPC   C3A72341   2.773  23.679   7.064
 5718POPC   C4A72342   2.803  23.665   7.364
 5718POPC   C1B72343   2.534  23.865   6.464
 5718POPC   C2B72344   2.524  23.856   6.764
 5718POPC   C3B72345   2.549  23.887   7.064
 5718POPC   C4B72346   2.591  23.892   7.364
 5719POPC   NC372347  27.599  10.550   5.564
 5719POPC   PO472348  27.611  10.556   5.864
 5719POPC   GL172349  27.586  10.542   6.164
 5719POPC   GL272350  27.661  10.506   6.164
 5719POPC   C1A72351  27.570  10.526   6.464
 5719POPC   D2A72352  27.561  10.568   6.764
 5719POPC   C3A72353  27.596  10.560   7.064
 5719POPC   C4A72354  27.630  10.493   7.364
 5719POPC   C1B72355  27.792  10.416   6.464
 5719POPC   C2B72356  27.763  10.406   6.764
 5719POPC   C3B72357  27.844  10.370   7.064
 5719POPC   C4B72358  27.808  10.388   7.364
 5720POPC   NC372359  10.520  30.681   5.564
 5720POPC   PO472360  10.514  30.713   5.864
 5720POPC   GL172361  10.482  30.658   6.164
 5720POPC   GL272362  10.452  30.623   6.164
 5720POPC   C1A72363  10.483  30.650   6.464
 5720POPC   D2A72364  10.506  30.733   6.764
 5720POPC   C3A72365  10.477  30.653   7.064
 5720POPC   C4A72366  10.561  30.694   7.364
 5720POPC   C1B72367  10.439  30.456   6.464
 5720POPC   C2B72368  10.395  30.423   6.764
 5720POPC   C3B72369  10.414  30.424   7.064
 5720POPC   C4B72370  10.488  30.506   7.364
 5721POPC   NC372371  12.078  23.698   5.564
 5721POPC   PO472372  12.085  23.734   5.864
 5721POPC   GL172373  12.099  23.721   6.164
 5721POPC   GL272374  12.237  23.761   6.164
 5721POPC   C1A72375  12.114  23.698   6.464
 5721POPC   D2A72376  12.088  23.682   6.764
 5721POPC   C3A72377  12.097  23.734   7.064
 5721POPC   C4A72378  12.087  23.721   7.364
 5721POPC   C1B72379  12.360  23.741   6.464
 5721POPC   C2B72380  12.325  23.730   6.764
 5721POPC   C3B72381  12.283  23.722   7.064
 5721POPC   C4B72382  12.288  23.679   7.364
 5722POPC   NC372383  26.772  18.292   5.564
 5722POPC   PO472384  26.802  18.328   5.864
 5722POPC   GL172385  26.866  18.262   6.164
 5722POPC   GL272386  26.773  18.140   6.164
 5722POPC   C1A72387  26.863  18.278   6.464
 5722POPC   D2A72388  26.776  18.266   6.764
 5722POPC   C3A72389  26.773  18.332   7.064
 5722POPC   C4A72390  26.791  18.261   7.364
 5722POPC   C1B72391  26.703  18.082   6.464
 5722POPC   C2B72392  26.685  18.062   6.764
 5722POPC   C3B72393  26.698  18.081   7.064
 5722POPC   C4B72394  26.616  18.110   7.364
 5723POPC   NC372395  40.760  39.194   5.564
 5723POPC   PO472396  40.768  39.277   5.864
 5723POPC   GL172397  40.788  39.216   6.164
 5723POPC   GL272398  40.720  39.156   6.164
 5723POPC   C1A72399  40.782  39.264   6.464
 5723POPC   D2A72400  40.754  39.251   6.764
 5723POPC   C3A72401  40.763  39.204   7.064
 5723POPC   C4A72402  40.746  39.200   7.364
 5723POPC   C1B72403  40.703  38.991   6.464
 5723POPC   C2B72404  40.709  38.936   6.764
 5723POPC   C3B72405  40.766  38.991   7.064
 5723POPC   C4B72406  40.741  38.939   7.364
 5724POPC   NC372407  25.284  16.699   5.564
 5724POPC   PO472408  25.302  16.732   5.864
 5724POPC   GL172409  25.255  16.698   6.164
 5724POPC   GL272410  25.313  16.617   6.164
 5724POPC   C1A72411  25.264  16.766   6.464
 5724POPC   D2A72412  25.225  16.736   6.764
 5724POPC   C3A72413  25.312  16.768   7.064
 5724POPC   C4A72414  25.276  16.752   7.364
 5724POPC   C1B72415  25.404  16.537   6.464
 5724POPC   C2B72416  25.468  16.562   6.764
 5724POPC   C3B72417  25.440  16.532   7.064
 5724POPC   C4B72418  25.452  16.496   7.364
 5725POPC   NC372419  19.009  34.588   5.564
 5725POPC   PO472420  19.054  34.623   5.864
 5725POPC   GL172421  19.084  34.570   6.164
 5725POPC   GL272422  19.064  34.481   6.164
 5725POPC   C1A72423  19.025  34.548   6.464
 5725POPC   D2A72424  19.086  34.597   6.764
 5725POPC   C3A72425  19.088  34.601   7.064
 5725POPC   C4A72426  19.062  34.539   7.364
 5725POPC   C1B72427  18.951  34.384   6.464
 5725POPC   C2B72428  18.947  34.310   6.764
 5725POPC   C3B72429  18.970  34.365   7.064
 5725POPC   C4B72430  18.971  34.361   7.364
 5726POPC   NC372431   1.263  19.098   5.564
 5726POPC   PO472432   1.252  19.020   5.864
 5726POPC   GL172433   1.202  19.102   6.164
 5726POPC   GL272434   1.259  19.183   6.164
 5726POPC   C1A72435   1.203  19.058   6.464
 5726POPC   D2A72436   1.208  19.058   6.764
 5726POPC   C3A72437   1.259  19.055   7.064
 5726POPC   C4A72438   1.211  19.088   7.364
 5726POPC   C1B72439   1.354  19.267   6.464
 5726POPC   C2B72440   1.426  19.276   6.764
 5726POPC   C3B72441   1.380  19.221   7.064
 5726POPC   C4B72442   1.382  19.295   7.364
 5727POPC   NC372443   8.214   5.820   5.564
 5727POPC   PO472444   8.211   5.860   5.864
 5727POPC   GL172445   8.166   5.893   6.164
 5727POPC   GL272446   8.222   6.012   6.164
 5727POPC   C1A72447   8.182   5.824   6.464
 5727POPC   D2A72448   8.233   5.885   6.764
 5727POPC   C3A72449   8.179   5.915   7.064
 5727POPC   C4A72450   8.233   5.855   7.364
 5727POPC   C1B72451   8.308   6.115   6.464
 5727POPC   C2B72452   8.350   6.100   6.764
 5727POPC   C3B72453   8.286   6.084   7.064
 5727POPC   C4B72454   8.355   6.127   7.364
 5728POPC   NC372455   3.538  40.815   5.564
 5728POPC   PO472456   3.566  40.829   5.864
 5728POPC   GL172457   3.517  40.764   6.164
 5728POPC   GL272458   3.522  40.894   6.164
 5728POPC   C1A72459   3.554  40.775   6.464
 5728POPC   D2A72460   3.544  40.793   6.764
 5728POPC   C3A72461   3.553  40.806   7.064
 5728POPC   C4A72462   3.499  40.785   7.364
 5728POPC   C1B72463   3.511  41.041   6.464
 5728POPC   C2B72464   3.486  41.050   6.764
 5728POPC   C3B72465   3.488  41.044   7.064
 5728POPC   C4B72466   3.576  41.004   7.364
 5729POPC   NC372467  29.187  26.791   5.564
 5729POPC   PO472468  29.146  26.839   5.864
 5729POPC   GL172469  29.143  26.821   6.164
 5729POPC   GL272470  29.160  26.947   6.164
 5729POPC   C1A72471  29.150  26.771   6.464
 5729POPC   D2A72472  29.179  26.811   6.764
 5729POPC   C3A72473  29.129  26.827   7.064
 5729POPC   C4A72474  29.171  26.827   7.364
 5729POPC   C1B72475  29.236  27.081   6.464
 5729POPC   C2B72476  29.234  27.089   6.764
 5729POPC   C3B72477  29.249  27.080   7.064
 5729POPC   C4B72478  29.203  27.046   7.364
 5730POPC   NC372479   9.710  17.518   5.564
 5730POPC   PO472480   9.761  17.520   5.864
 5730POPC   GL172481   9.776  17.495   6.164
 5730POPC   GL272482   9.818  17.548   6.164
 5730POPC   C1A72483   9.782  17.548   6.464
 5730POPC   D2A72484   9.755  17.507   6.764
 5730POPC   C3A72485   9.712  17.491   7.064
 5730POPC   C4A72486   9.701  17.548   7.364
 5730POPC   C1B72487   9.945  17.633   6.464
 5730POPC   C2B72488   9.917  17.642   6.764
 5730POPC   C3B72489   9.989  17.679   7.064
 5730POPC   C4B72490   9.929  17.675   7.364
 5731POPC   NC372491  25.278  33.823   5.564
 5731POPC   PO472492  25.221  33.759   5.864
 5731POPC   GL172493  25.251  33.782   6.164
 5731POPC   GL272494  25.415  33.811   6.164
 5731POPC   C1A72495  25.282  33.828   6.464
 5731POPC   D2A72496  25.239  33.753   6.764
 5731POPC   C3A72497  25.242  33.825   7.064
 5731POPC   C4A72498  25.231  33.834   7.364
 5731POPC   C1B72499  25.478  33.815   6.464
 5731POPC   C2B72500  25.490  33.742   6.764
 5731POPC   C3B72501  25.468  33.827   7.064
 5731POPC   C4B72502  25.544  33.810   7.364
 5732POPC   NC372503   6.626  18.316   5.564
 5732POPC   PO472504   6.607  18.309   5.864
 5732POPC   GL172505   6.672  18.268   6.164
 5732POPC   GL272506   6.736  18.215   6.164
 5732POPC   C1A72507   6.680  18.259   6.464
 5732POPC   D2A72508   6.663  18.269   6.764
 5732POPC   C3A72509   6.660  18.248   7.064
 5732POPC   C4A72510   6.634  18.324   7.364
 5732POPC   C1B72511   6.794  18.078   6.464
 5732POPC   C2B72512   6.761  18.123   6.764
 5732POPC   C3B72513   6.816  18.109   7.064
 5732POPC   C4B72514   6.788  18.096   7.364
 5733POPC   NC372515  36.134  15.940   5.564
 5733POPC   PO472516  36.144  16.001   5.864
 5733POPC   GL172517  36.155  15.917   6.164
 5733POPC   GL272518  36.152  16.070   6.164
 5733POPC   C1A72519  36.167  15.973   6.464
 5733POPC   D2A72520  36.162  15.975   6.764
 5733POPC   C3A72521  36.111  15.947   7.064
 5733POPC   C4A72522  36.109  15.925   7.364
 5733POPC   C1B72523  36.274  16.147   6.464
 5733POPC   C2B72524  36.260  16.199   6.764
 5733POPC   C3B72525  36.265  16.220   7.064
 5733POPC   C4B72526  36.233  16.179   7.364
 5734POPC   NC372527   1.226  19.850   5.564
 5734POPC   PO472528   1.260  19.883   5.864
 5734POPC   GL172529   1.169  19.804   6.164
 5734POPC   GL272530   1.211  19.723   6.164
 5734POPC   C1A72531   1.210  19.835   6.464
 5734POPC   D2A72532   1.178  19.853   6.764
 5734POPC   C3A72533   1.179  19.834   7.064
 5734POPC   C4A72534   1.215  19.850   7.364
 5734POPC   C1B72535   1.213  19.585   6.464
 5734POPC   C2B72536   1.220  19.628   6.764
 5734POPC   C3B72537   1.186  19.588   7.064
 5734POPC   C4B72538   1.260  19.592   7.364
 5735POPC   NC372539   5.912   3.506   5.564
 5735POPC   PO472540   5.841   3.547   5.864
 5735POPC   GL172541   5.843   3.558   6.164
 5735POPC   GL272542   5.944   3.568   6.164
 5735POPC   C1A72543   5.878   3.513   6.464
 5735POPC   D2A72544   5.912   3.514   6.764
 5735POPC   C3A72545   5.829   3.503   7.064
 5735POPC   C4A72546   5.820   3.524   7.364
 5735POPC   C1B72547   6.103   3.584   6.464
 5735POPC   C2B72548   6.133   3.595   6.764
 5735POPC   C3B72549   6.088   3.594   7.064
 5735POPC   C4B72550   6.089   3.633   7.364
 5736POPC   NC372551  25.280  35.325   5.564
 5736POPC   PO472552  25.307  35.310   5.864
 5736POPC   GL172553  25.235  35.397   6.164
 5736POPC   GL272554  25.237  35.229   6.164
 5736POPC   C1A72555  25.242  35.392   6.464
 5736POPC   D2A72556  25.293  35.367   6.764
 5736POPC   C3A72557  25.303  35.329   7.064
 5736POPC   C4A72558  25.232  35.390   7.364
 5736POPC   C1B72559  25.136  35.118   6.464
 5736POPC   C2B72560  25.200  35.114   6.764
 5736POPC   C3B72561  25.134  35.099   7.064
 5736POPC   C4B72562  25.165  35.144   7.364
 5737POPC   NC372563  29.910   0.397   5.564
 5737POPC   PO472564  29.965   0.436   5.864
 5737POPC   GL172565  29.906   0.389   6.164
 5737POPC   GL272566  29.994   0.491   6.164
 5737POPC   C1A72567  29.894   0.487   6.464
 5737POPC   D2A72568  29.894   0.421   6.764
 5737POPC   C3A72569  29.889   0.459   7.064
 5737POPC   C4A72570  29.937   0.431   7.364
 5737POPC   C1B72571  30.128   0.536   6.464
 5737POPC   C2B72572  30.144   0.569   6.764
 5737POPC   C3B72573  30.127   0.543   7.064
 5737POPC   C4B72574  30.107   0.597   7.364
 5738POPC   NC372575   4.356   5.126   5.564
 5738POPC   PO472576   4.290   5.097   5.864
 5738POPC   GL172577   4.288   5.127   6.164
 5738POPC   GL272578   4.290   4.976   6.164
 5738POPC   C1A72579   4.315   5.062   6.464
 5738POPC   D2A72580   4.363   5.114   6.764
 5738POPC   C3A72581   4.335   5.052   7.064
 5738POPC   C4A72582   4.271   5.051   7.364
 5738POPC   C1B72583   4.145   4.914   6.464
 5738POPC   C2B72584   4.172   4.907   6.764
 5738POPC   C3B72585   4.225   4.889   7.064
 5738POPC   C4B72586   4.158   4.931   7.364
 5739POPC   NC372587  22.157  30.684   5.564
 5739POPC   PO472588  22.202  30.682   5.864
 5739POPC   GL172589  22.140  30.738   6.164
 5739POPC   GL272590  22.118  30.545   6.164
 5739POPC   C1A72591  22.177  30.675   6.464
 5739POPC   D2A72592  22.168  30.653   6.764
 5739POPC   C3A72593  22.174  30.684   7.064
 5739POPC   C4A72594  22.137  30.726   7.364
 5739POPC   C1B72595  22.113  30.454   6.464
 5739POPC   C2B72596  22.195  30.447   6.764
 5739POPC   C3B72597  22.136  30.398   7.064
 5739POPC   C4B72598  22.199  30.444   7.364
 5740POPC   NC372599   1.192  32.253   5.564
 5740POPC   PO472600   1.166  32.272   5.864
 5740POPC   GL172601   1.183  32.282   6.164
 5740POPC   GL272602   1.265  32.339   6.164
 5740POPC   C1A72603   1.189  32.233   6.464
 5740POPC   D2A72604   1.183  32.273   6.764
 5740POPC   C3A72605   1.225  32.223   7.064
 5740POPC   C4A72606   1.183  32.260   7.364
 5740POPC   C1B72607   1.195  32.466   6.464
 5740POPC   C2B72608   1.241  32.523   6.764
 5740POPC   C3B72609   1.243  32.519   7.064
 5740POPC   C4B72610   1.193  32.547   7.364
 5741POPC   NC372611  26.795   9.019   5.564
 5741POPC   PO472612  26.828   8.994   5.864
 5741POPC   GL172613  26.834   8.982   6.164
 5741POPC   GL272614  26.839   9.137   6.164
 5741POPC   C1A72615  26.842   8.969   6.464
 5741POPC   D2A72616  26.802   8.969   6.764
 5741POPC   C3A72617  26.794   9.017   7.064
 5741POPC   C4A72618  26.814   8.953   7.364
 5741POPC   C1B72619  26.885   9.168   6.464
 5741POPC   C2B72620  26.832   9.250   6.764
 5741POPC   C3B72621  26.873   9.210   7.064
 5741POPC   C4B72622  26.902   9.252   7.364
 5742POPC   NC372623  33.051  25.297   5.564
 5742POPC   PO472624  32.986  25.272   5.864
 5742POPC   GL172625  33.026  25.304   6.164
 5742POPC   GL272626  33.082  25.146   6.164
 5742POPC   C1A72627  33.001  25.256   6.464
 5742POPC   D2A72628  32.978  25.304   6.764
 5742POPC   C3A72629  32.995  25.303   7.064
 5742POPC   C4A72630  33.005  25.286   7.364
 5742POPC   C1B72631  33.130  25.026   6.464
 5742POPC   C2B72632  33.125  24.996   6.764
 5742POPC   C3B72633  33.089  24.995   7.064
 5742POPC   C4B72634  33.115  25.066   7.364
 5743POPC   NC372635  20.653  19.883   5.564
 5743POPC   PO472636  20.596  19.824   5.864
 5743POPC   GL172637  20.628  19.858   6.164
 5743POPC   GL272638  20.684  19.911   6.164
 5743POPC   C1A72639  20.563  19.835   6.464
 5743POPC   D2A72640  20.578  19.879   6.764
 5743POPC   C3A72641  20.636  19.871   7.064
 5743POPC   C4A72642  20.626  19.869   7.364
 5743POPC   C1B72643  20.820  19.861   6.464
 5743POPC   C2B72644  20.827  19.876   6.764
 5743POPC   C3B72645  20.892  19.918   7.064
 5743POPC   C4B72646  20.814  19.882   7.364
 5744POPC   NC372647  37.653  22.943   5.564
 5744POPC   PO472648  37.724  22.947   5.864
 5744POPC   GL172649  37.688  22.950   6.164
 5744POPC   GL272650  37.652  23.048   6.164
 5744POPC   C1A72651  37.674  22.986   6.464
 5744POPC   D2A72652  37.679  22.943   6.764
 5744POPC   C3A72653  37.656  22.889   7.064
 5744POPC   C4A72654  37.634  22.920   7.364
 5744POPC   C1B72655  37.658  23.139   6.464
 5744POPC   C2B72656  37.594  23.201   6.764
 5744POPC   C3B72657  37.605  23.141   7.064
 5744POPC   C4B72658  37.626  23.160   7.364
 5745POPC   NC372659  30.696  12.848   5.564
 5745POPC   PO472660  30.658  12.831   5.864
 5745POPC   GL172661  30.665  12.863   6.164
 5745POPC   GL272662  30.743  13.005   6.164
 5745POPC   C1A72663  30.670  12.838   6.464
 5745POPC   D2A72664  30.741  12.876   6.764
 5745POPC   C3A72665  30.714  12.902   7.064
 5745POPC   C4A72666  30.719  12.823   7.364
 5745POPC   C1B72667  30.790  13.071   6.464
 5745POPC   C2B72668  30.790  13.112   6.764
 5745POPC   C3B72669  30.746  13.108   7.064
 5745POPC   C4B72670  30.755  13.076   7.364
 5746POPC   NC372671  30.674  16.765   5.564
 5746POPC   PO472672  30.691  16.702   5.864
 5746POPC   GL172673  30.731  16.742   6.164
 5746POPC   GL272674  30.557  16.838   6.164
 5746POPC   C1A72675  30.651  16.717   6.464
 5746POPC   D2A72676  30.727  16.683   6.764
 5746POPC   C3A72677  30.708  16.727   7.064
 5746POPC   C4A72678  30.700  16.700   7.364
 5746POPC   C1B72679  30.470  16.880   6.464
 5746POPC   C2B72680  30.516  16.817   6.764
 5746POPC   C3B72681  30.531  16.873   7.064
 5746POPC   C4B72682  30.532  16.872   7.364
 5747POPC   NC372683  13.636  40.734   5.564
 5747POPC   PO472684  13.672  40.787   5.864
 5747POPC   GL172685  13.666  40.768   6.164
 5747POPC   GL272686  13.631  40.878   6.164
 5747POPC   C1A72687  13.631  40.748   6.464
 5747POPC   D2A72688  13.579  40.735   6.764
 5747POPC   C3A72689  13.662  40.811   7.064
 5747POPC   C4A72690  13.655  40.767   7.364
 5747POPC   C1B72691  13.619  41.023   6.464
 5747POPC   C2B72692  13.558  41.070   6.764
 5747POPC   C3B72693  13.566  40.985   7.064
 5747POPC   C4B72694  13.523  41.035   7.364
 5748POPC   NC372695  40.056   2.031   5.564
 5748POPC   PO472696  40.053   1.972   5.864
 5748POPC   GL172697  40.013   1.959   6.164
 5748POPC   GL272698  40.095   2.032   6.164
 5748POPC   C1A72699  40.047   1.968   6.464
 5748POPC   D2A72700  40.050   1.972   6.764
 5748POPC   C3A72701  39.984   1.943   7.064
 5748POPC   C4A72702  40.006   1.969   7.364
 5748POPC   C1B72703  40.164   2.210   6.464
 5748POPC   C2B72704  40.215   2.175   6.764
 5748POPC   C3B72705  40.207   2.141   7.064
 5748POPC   C4B72706  40.139   2.177   7.364
 5749POPC   NC372707  20.611  12.875   5.564
 5749POPC   PO472708  20.606  12.843   5.864
 5749POPC   GL172709  20.613  12.896   6.164
 5749POPC   GL272710  20.534  12.718   6.164
 5749POPC   C1A72711  20.570  12.835   6.464
 5749POPC   D2A72712  20.568  12.862   6.764
 5749POPC   C3A72713  20.563  12.860   7.064
 5749POPC   C4A72714  20.590  12.820   7.364
 5749POPC   C1B72715  20.416  12.709   6.464
 5749POPC   C2B72716  20.475  12.706   6.764
 5749POPC   C3B72717  20.442  12.632   7.064
 5749POPC   C4B72718  20.395  12.676   7.364
 5750POPC   NC372719  22.941   0.390   5.564
 5750POPC   PO472720  22.978   0.446   5.864
 5750POPC   GL172721  22.897   0.454   6.164
 5750POPC   GL272722  22.907   0.517   6.164
 5750POPC   C1A72723  22.941   0.474   6.464
 5750POPC   D2A72724  22.939   0.433   6.764
 5750POPC   C3A72725  22.961   0.439   7.064
 5750POPC   C4A72726  22.967   0.430   7.364
 5750POPC   C1B72727  22.846   0.688   6.464
 5750POPC   C2B72728  22.774   0.608   6.764
 5750POPC   C3B72729  22.831   0.625   7.064
 5750POPC   C4B72730  22.822   0.660   7.364
 5751POPC   NC372731   8.160  40.048   5.564
 5751POPC   PO472732   8.220  39.973   5.864
 5751POPC   GL172733   8.160  40.023   6.164
 5751POPC   GL272734   8.124  39.852   6.164
 5751POPC   C1A72735   8.195  39.973   6.464
 5751POPC   D2A72736   8.219  40.017   6.764
 5751POPC   C3A72737   8.202  39.958   7.064
 5751POPC   C4A72738   8.194  40.046   7.364
 5751POPC   C1B72739   8.055  39.782   6.464
 5751POPC   C2B72740   8.118  39.828   6.764
 5751POPC   C3B72741   8.063  39.775   7.064
 5751POPC   C4B72742   8.091  39.806   7.364
 5752POPC   NC372743  34.600  11.250   5.564
 5752POPC   PO472744  34.570  11.343   5.864
 5752POPC   GL172745  34.530  11.307   6.164
 5752POPC   GL272746  34.603  11.418   6.164
 5752POPC   C1A72747  34.550  11.331   6.464
 5752POPC   D2A72748  34.565  11.333   6.764
 5752POPC   C3A72749  34.541  11.307   7.064
 5752POPC   C4A72750  34.534  11.289   7.364
 5752POPC   C1B72751  34.690  11.498   6.464
 5752POPC   C2B72752  34.709  11.490   6.764
 5752POPC   C3B72753  34.735  11.499   7.064
 5752POPC   C4B72754  34.680  11.504   7.364
 5753POPC   NC372755   0.458   0.404   5.564
 5753POPC   PO472756   0.476   0.474   5.864
 5753POPC   GL172757   0.397   0.480   6.164
 5753POPC   GL272758   0.293   0.484   6.164
 5753POPC   C1A72759   0.416   0.481   6.464
 5753POPC   D2A72760   0.401   0.428   6.764
 5753POPC   C3A72761   0.442   0.454   7.064
 5753POPC   C4A72762   0.444   0.400   7.364
 5753POPC   C1B72763   0.210   0.495   6.464
 5753POPC   C2B72764   0.209   0.477   6.764
 5753POPC   C3B72765   0.219   0.505   7.064
 5753POPC   C4B72766   0.191   0.466   7.364
 5754POPC   NC372767  15.154  16.685   5.564
 5754POPC   PO472768  15.209  16.735   5.864
 5754POPC   GL172769  15.141  16.770   6.164
 5754POPC   GL272770  15.164  16.838   6.164
 5754POPC   C1A72771  15.159  16.775   6.464
 5754POPC   D2A72772  15.187  16.701   6.764
 5754POPC   C3A72773  15.223  16.768   7.064
 5754POPC   C4A72774  15.186  16.694   7.364
 5754POPC   C1B72775  15.124  16.949   6.464
 5754POPC   C2B72776  15.106  17.013   6.764
 5754POPC   C3B72777  15.149  16.925   7.064
 5754POPC   C4B72778  15.085  16.963   7.364
 5755POPC   NC372779   3.580  24.502   5.564
 5755POPC   PO472780   3.498  24.472   5.864
 5755POPC   GL172781   3.528  24.469   6.164
 5755POPC   GL272782   3.381  24.495   6.164
 5755POPC   C1A72783   3.541  24.503   6.464
 5755POPC   D2A72784   3.550  24.525   6.764
 5755POPC   C3A72785   3.559  24.471   7.064
 5755POPC   C4A72786   3.558  24.497   7.364
 5755POPC   C1B72787   3.270  24.507   6.464
 5755POPC   C2B72788   3.255  24.443   6.764
 5755POPC   C3B72789   3.243  24.492   7.064
 5755POPC   C4B72790   3.272  24.483   7.364
 5756POPC   NC372791   2.770   1.233   5.564
 5756POPC   PO472792   2.763   1.188   5.864
 5756POPC   GL172793   2.786   1.187   6.164
 5756POPC   GL272794   2.780   1.049   6.164
 5756POPC   C1A72795   2.787   1.170   6.464
 5756POPC   D2A72796   2.786   1.226   6.764
 5756POPC   C3A72797   2.763   1.213   7.064
 5756POPC   C4A72798   2.788   1.232   7.364
 5756POPC   C1B72799   2.825   0.935   6.464
 5756POPC   C2B72800   2.859   1.013   6.764
 5756POPC   C3B72801   2.828   0.987   7.064
 5756POPC   C4B72802   2.881   0.967   7.364
 5757POPC   NC372803  24.462  14.435   5.564
 5757POPC   PO472804  24.447  14.390   5.864
 5757POPC   GL172805  24.501  14.373   6.164
 5757POPC   GL272806  24.633  14.467   6.164
 5757POPC   C1A72807  24.459  14.381   6.464
 5757POPC   D2A72808  24.494  14.443   6.764
 5757POPC   C3A72809  24.475  14.366   7.064
 5757POPC   C4A72810  24.444  14.429   7.364
 5757POPC   C1B72811  24.740  14.548   6.464
 5757POPC   C2B72812  24.741  14.504   6.764
 5757POPC   C3B72813  24.736  14.478   7.064
 5757POPC   C4B72814  24.693  14.539   7.364
 5758POPC   NC372815   1.232  16.000   5.564
 5758POPC   PO472816   1.224  15.946   5.864
 5758POPC   GL172817   1.217  15.967   6.164
 5758POPC   GL272818   1.140  15.889   6.164
 5758POPC   C1A72819   1.169  15.974   6.464
 5758POPC   D2A72820   1.167  15.953   6.764
 5758POPC   C3A72821   1.218  15.929   7.064
 5758POPC   C4A72822   1.229  15.951   7.364
 5758POPC   C1B72823   1.115  15.785   6.464
 5758POPC   C2B72824   1.094  15.780   6.764
 5758POPC   C3B72825   1.091  15.711   7.064
 5758POPC   C4B72826   1.055  15.747   7.364
 5759POPC   NC372827  21.374  16.681   5.564
 5759POPC   PO472828  21.409  16.758   5.864
 5759POPC   GL172829  21.419  16.697   6.164
 5759POPC   GL272830  21.330  16.603   6.164
 5759POPC   C1A72831  21.381  16.755   6.464
 5759POPC   D2A72832  21.418  16.757   6.764
 5759POPC   C3A72833  21.363  16.718   7.064
 5759POPC   C4A72834  21.365  16.685   7.364
 5759POPC   C1B72835  21.255  16.501   6.464
 5759POPC   C2B72836  21.282  16.489   6.764
 5759POPC   C3B72837  21.262  16.476   7.064
 5759POPC   C4B72838  21.237  16.505   7.364
 5760POPC   NC372839  31.497  40.808   5.564
 5760POPC   PO472840  31.509  40.789   5.864
 5760POPC   GL172841  31.514  40.783   6.164
 5760POPC   GL272842  31.550  40.725   6.164
 5760POPC   C1A72843  31.509  40.741   6.464
 5760POPC   D2A72844  31.437  40.824   6.764
 5760POPC   C3A72845  31.434  40.774   7.064
 5760POPC   C4A72846  31.522  40.792   7.364
 5760POPC   C1B72847  31.614  40.625   6.464
 5760POPC   C2B72848  31.606  40.531   6.764
 5760POPC   C3B72849  31.592  40.554   7.064
 5760POPC   C4B72850  31.617  40.549   7.364
 5761POPC   NC372851  23.738  42.308   5.564
 5761POPC   PO472852  23.734  42.312   5.864
 5761POPC   GL172853  23.670  42.359   6.164
 5761POPC   GL272854  23.602  42.324   6.164
 5761POPC   C1A72855  23.704  42.333   6.464
 5761POPC   D2A72856  23.669  42.322   6.764
 5761POPC   C3A72857  23.713  42.324   7.064
 5761POPC   C4A72858  23.720  42.369   7.364
 5761POPC   C1B72859  23.503  42.432   6.464
 5761POPC   C2B72860  23.503  42.447   6.764
 5761POPC   C3B72861  23.452  42.454   7.064
 5761POPC   C4B72862  23.483  42.415   7.364
 5762POPC   NC372863  26.042  24.482   5.564
 5762POPC   PO472864  26.057  24.520   5.864
 5762POPC   GL172865  26.015  24.535   6.164
 5762POPC   GL272866  25.931  24.462   6.164
 5762POPC   C1A72867  26.005  24.478   6.464
 5762POPC   D2A72868  26.015  24.457   6.764
 5762POPC   C3A72869  26.075  24.473   7.064
 5762POPC   C4A72870  25.991  24.485   7.364
 5762POPC   C1B72871  25.837  24.390   6.464
 5762POPC   C2B72872  25.773  24.413   6.764
 5762POPC   C3B72873  25.846  24.375   7.064
 5762POPC   C4B72874  25.848  24.360   7.364
 5763POPC   NC372875  28.393  33.836   5.564
 5763POPC   PO472876  28.323  33.792   5.864
 5763POPC   GL172877  28.348  33.776   6.164
 5763POPC   GL272878  28.275  33.686   6.164
 5763POPC   C1A72879  28.383  33.752   6.464
 5763POPC   D2A72880  28.407  33.832   6.764
 5763POPC   C3A72881  28.341  33.785   7.064
 5763POPC   C4A72882  28.336  33.780   7.364
 5763POPC   C1B72883  28.214  33.599   6.464
 5763POPC   C2B72884  28.161  33.671   6.764
 5763POPC   C3B72885  28.144  33.608   7.064
 5763POPC   C4B72886  28.145  33.611   7.364
 5764POPC   NC372887   6.641   8.959   5.564
 5764POPC   PO472888   6.598   8.942   5.864
 5764POPC   GL172889   6.648   8.957   6.164
 5764POPC   GL272890   6.752   9.096   6.164
 5764POPC   C1A72891   6.653   8.932   6.464
 5764POPC   D2A72892   6.596   8.975   6.764
 5764POPC   C3A72893   6.648   8.930   7.064
 5764POPC   C4A72894   6.608   8.989   7.364
 5764POPC   C1B72895   6.870   9.124   6.464
 5764POPC   C2B72896   6.879   9.146   6.764
 5764POPC   C3B72897   6.881   9.109   7.064
 5764POPC   C4B72898   6.846   9.102   7.364
 5765POPC   NC372899  26.824  40.034   5.564
 5765POPC   PO472900  26.820  40.024   5.864
 5765POPC   GL172901  26.784  39.966   6.164
 5765POPC   GL272902  26.827  39.900   6.164
 5765POPC   C1A72903  26.790  39.971   6.464
 5765POPC   D2A72904  26.835  39.997   6.764
 5765POPC   C3A72905  26.830  39.970   7.064
 5765POPC   C4A72906  26.864  40.048   7.364
 5765POPC   C1B72907  26.853  39.743   6.464
 5765POPC   C2B72908  26.854  39.742   6.764
 5765POPC   C3B72909  26.812  39.711   7.064
 5765POPC   C4B72910  26.855  39.772   7.364
 5766POPC   NC372911  41.578  15.947   5.564
 5766POPC   PO472912  41.576  15.908   5.864
 5766POPC   GL172913  41.599  15.980   6.164
 5766POPC   GL272914  41.481  15.947   6.164
 5766POPC   C1A72915  41.568  15.912   6.464
 5766POPC   D2A72916  41.554  15.915   6.764
 5766POPC   C3A72917  41.602  15.982   7.064
 5766POPC   C4A72918  41.608  15.969   7.364
 5766POPC   C1B72919  41.322  16.049   6.464
 5766POPC   C2B72920  41.326  16.041   6.764
 5766POPC   C3B72921  41.343  16.060   7.064
 5766POPC   C4B72922  41.312  15.993   7.364
 5767POPC   NC372923  32.297   1.963   5.564
 5767POPC   PO472924  32.269   1.969   5.864
 5767POPC   GL172925  32.220   1.965   6.164
 5767POPC   GL272926  32.341   1.922   6.164
 5767POPC   C1A72927  32.231   2.020   6.464
 5767POPC   D2A72928  32.264   2.034   6.764
 5767POPC   C3A72929  32.230   1.966   7.064
 5767POPC   C4A72930  32.262   2.039   7.364
 5767POPC   C1B72931  32.433   1.873   6.464
 5767POPC   C2B72932  32.432   1.880   6.764
 5767POPC   C3B72933  32.442   1.879   7.064
 5767POPC   C4B72934  32.482   1.828   7.364
 5768POPC   NC372935   5.049  15.913   5.564
 5768POPC   PO472936   5.066  15.945   5.864
 5768POPC   GL172937   5.141  16.005   6.164
 5768POPC   GL272938   5.209  16.035   6.164
 5768POPC   C1A72939   5.078  15.977   6.464
 5768POPC   D2A72940   5.121  15.906   6.764
 5768POPC   C3A72941   5.112  15.926   7.064
 5768POPC   C4A72942   5.111  15.993   7.364
 5768POPC   C1B72943   5.269  16.158   6.464
 5768POPC   C2B72944   5.211  16.103   6.764
 5768POPC   C3B72945   5.215  16.128   7.064
 5768POPC   C4B72946   5.248  16.196   7.364
 5769POPC   NC372947  38.427  42.334   5.564
 5769POPC   PO472948  38.468  42.309   5.864
 5769POPC   GL172949  38.463  42.383   6.164
 5769POPC   GL272950  38.366  42.250   6.164
 5769POPC   C1A72951  38.433  42.334   6.464
 5769POPC   D2A72952  38.413  42.359   6.764
 5769POPC   C3A72953  38.429  42.351   7.064
 5769POPC   C4A72954  38.439  42.351   7.364
 5769POPC   C1B72955  38.275  42.133   6.464
 5769POPC   C2B72956  38.351  42.165   6.764
 5769POPC   C3B72957  38.358  42.088   7.064
 5769POPC   C4B72958  38.342  42.170   7.364
 5770POPC   NC372959   7.467   8.998   5.564
 5770POPC   PO472960   7.381   8.947   5.864
 5770POPC   GL172961   7.449   8.978   6.164
 5770POPC   GL272962   7.360   8.896   6.164
 5770POPC   C1A72963   7.398   8.947   6.464
 5770POPC   D2A72964   7.456   8.997   6.764
 5770POPC   C3A72965   7.378   8.930   7.064
 5770POPC   C4A72966   7.377   8.941   7.364
 5770POPC   C1B72967   7.189   8.883   6.464
 5770POPC   C2B72968   7.179   8.869   6.764
 5770POPC   C3B72969   7.198   8.889   7.064
 5770POPC   C4B72970   7.237   8.815   7.364
 5771POPC   NC372971  33.836  44.687   5.564
 5771POPC   PO472972  33.811  44.630   5.864
 5771POPC   GL172973  33.758  44.706   6.164
 5771POPC   GL272974  33.759  44.579   6.164
 5771POPC   C1A72975  33.768  44.671   6.464
 5771POPC   D2A72976  33.804  44.641   6.764
 5771POPC   C3A72977  33.828  44.699   7.064
 5771POPC   C4A72978  33.766  44.639   7.364
 5771POPC   C1B72979  33.692  44.491   6.464
 5771POPC   C2B72980  33.675  44.424   6.764
 5771POPC   C3B72981  33.642  44.415   7.064
 5771POPC   C4B72982  33.633  44.424   7.364
 5772POPC   NC372983  33.850  28.405   5.564
 5772POPC   PO472984  33.834  28.332   5.864
 5772POPC   GL172985  33.831  28.413   6.164
 5772POPC   GL272986  33.872  28.512   6.164
 5772POPC   C1A72987  33.772  28.324   6.464
 5772POPC   D2A72988  33.841  28.340   6.764
 5772POPC   C3A72989  33.848  28.352   7.064
 5772POPC   C4A72990  33.832  28.383   7.364
 5772POPC   C1B72991  33.994  28.591   6.464
 5772POPC   C2B72992  33.902  28.545   6.764
 5772POPC   C3B72993  33.995  28.525   7.064
 5772POPC   C4B72994  33.918  28.521   7.364
 5773POPC   NC372995   9.749  31.501   5.564
 5773POPC   PO472996   9.724  31.458   5.864
 5773POPC   GL172997   9.701  31.428   6.164
 5773POPC   GL272998   9.835  31.626   6.164
 5773POPC   C1A72999   9.744  31.461   6.464
 5773POPC   D2A73000   9.730  31.511   6.764
 5773POPC   C3A73001   9.718  31.450   7.064
 5773POPC   C4A73002   9.767  31.455   7.364
 5773POPC   C1B73003   9.873  31.681   6.464
 5773POPC   C2B73004   9.888  31.748   6.764
 5773POPC   C3B73005   9.836  31.725   7.064
 5773POPC   C4B73006   9.874  31.710   7.364
 5774POPC   NC373007  41.533  14.425   5.564
 5774POPC   PO473008  41.563  14.438   5.864
 5774POPC   GL173009  41.533  14.453   6.164
 5774POPC   GL273010  41.606  14.361   6.164
 5774POPC   C1A73011  41.511  14.373   6.464
 5774POPC   D2A73012  41.517  14.401   6.764
 5774POPC   C3A73013  41.514  14.417   7.064
 5774POPC   C4A73014  41.521  14.358   7.364
 5774POPC   C1B73015  41.752  14.259   6.464
 5774POPC   C2B73016  41.792  14.198   6.764
 5774POPC   C3B73017  41.705  14.274   7.064
 5774POPC   C4B73018  41.787  14.244   7.364
 5775POPC   NC373019   8.954  43.062   5.564
 5775POPC   PO473020   8.974  43.083   5.864
 5775POPC   GL173021   9.011  43.112   6.164
 5775POPC   GL273022   8.802  43.097   6.164
 5775POPC   C1A73023   8.959  43.159   6.464
 5775POPC   D2A73024   8.956  43.061   6.764
 5775POPC   C3A73025   8.935  43.131   7.064
 5775POPC   C4A73026   8.992  43.088   7.364
 5775POPC   C1B73027   8.745  43.164   6.464
 5775POPC   C2B73028   8.713  43.150   6.764
 5775POPC   C3B73029   8.735  43.135   7.064
 5775POPC   C4B73030   8.718  43.126   7.364
 5776POPC   NC373031  29.888   3.562   5.564
 5776POPC   PO473032  29.906   3.506   5.864
 5776POPC   GL173033  29.890   3.551   6.164
 5776POPC   GL273034  29.851   3.615   6.164
 5776POPC   C1A73035  29.920   3.555   6.464
 5776POPC   D2A73036  29.875   3.516   6.764
 5776POPC   C3A73037  29.889   3.519   7.064
 5776POPC   C4A73038  29.933   3.548   7.364
 5776POPC   C1B73039  29.846   3.745   6.464
 5776POPC   C2B73040  29.763   3.787   6.764
 5776POPC   C3B73041  29.792   3.812   7.064
 5776POPC   C4B73042  29.758   3.813   7.364
 5777POPC   NC373043  36.921  15.158   5.564
 5777POPC   PO473044  36.862  15.229   5.864
 5777POPC   GL173045  36.944  15.144   6.164
 5777POPC   GL273046  36.756  15.207   6.164
 5777POPC   C1A73047  36.868  15.174   6.464
 5777POPC   D2A73048  36.927  15.159   6.764
 5777POPC   C3A73049  36.888  15.169   7.064
 5777POPC   C4A73050  36.930  15.222   7.364
 5777POPC   C1B73051  36.713  15.307   6.464
 5777POPC   C2B73052  36.703  15.373   6.764
 5777POPC   C3B73053  36.675  15.298   7.064
 5777POPC   C4B73054  36.710  15.340   7.364
 5778POPC   NC373055  43.092  23.749   5.564
 5778POPC   PO473056  43.122  23.674   5.864
 5778POPC   GL173057  43.074  23.675   6.164
 5778POPC   GL273058  43.202  23.788   6.164
 5778POPC   C1A73059  43.154  23.744   6.464
 5778POPC   D2A73060  43.125  23.687   6.764
 5778POPC   C3A73061  43.154  23.731   7.064
 5778POPC   C4A73062  43.075  23.730   7.364
 5778POPC   C1B73063  43.196  23.966   6.464
 5778POPC   C2B73064  43.191  23.970   6.764
 5778POPC   C3B73065  43.180  23.926   7.064
 5778POPC   C4B73066  43.148  23.944   7.364
 5779POPC   NC373067  22.923  32.259   5.564
 5779POPC   PO473068  22.949  32.207   5.864
 5779POPC   GL173069  22.942  32.271   6.164
 5779POPC   GL273070  23.008  32.340   6.164
 5779POPC   C1A73071  22.928  32.199   6.464
 5779POPC   D2A73072  22.979  32.263   6.764
 5779POPC   C3A73073  22.931  32.246   7.064
 5779POPC   C4A73074  22.949  32.282   7.364
 5779POPC   C1B73075  23.106  32.431   6.464
 5779POPC   C2B73076  23.122  32.470   6.764
 5779POPC   C3B73077  23.065  32.455   7.064
 5779POPC   C4B73078  23.073  32.439   7.364
 5780POPC   NC373079  35.362   1.946   5.564
 5780POPC   PO473080  35.366   1.979   5.864
 5780POPC   GL173081  35.392   1.983   6.164
 5780POPC   GL273082  35.192   1.989   6.164
 5780POPC   C1A73083  35.391   2.035   6.464
 5780POPC   D2A73084  35.356   1.964   6.764
 5780POPC   C3A73085  35.350   1.957   7.064
 5780POPC   C4A73086  35.361   1.943   7.364
 5780POPC   C1B73087  35.124   1.992   6.464
 5780POPC   C2B73088  35.106   1.962   6.764
 5780POPC   C3B73089  35.152   1.932   7.064
 5780POPC   C4B73090  35.154   1.967   7.364
 5781POPC   NC373091   5.051   2.789   5.564
 5781POPC   PO473092   5.088   2.722   5.864
 5781POPC   GL173093   5.046   2.747   6.164
 5781POPC   GL273094   5.082   2.687   6.164
 5781POPC   C1A73095   5.047   2.740   6.464
 5781POPC   D2A73096   5.066   2.789   6.764
 5781POPC   C3A73097   5.100   2.755   7.064
 5781POPC   C4A73098   5.142   2.798   7.364
 5781POPC   C1B73099   5.027   2.534   6.464
 5781POPC   C2B73100   5.067   2.563   6.764
 5781POPC   C3B73101   5.098   2.538   7.064
 5781POPC   C4B73102   5.083   2.515   7.364
 5782POPC   NC373103  10.504  41.517   5.564
 5782POPC   PO473104  10.547  41.561   5.864
 5782POPC   GL173105  10.494  41.599   6.164
 5782POPC   GL273106  10.630  41.541   6.164
 5782POPC   C1A73107  10.496  41.572   6.464
 5782POPC   D2A73108  10.572  41.554   6.764
 5782POPC   C3A73109  10.490  41.597   7.064
 5782POPC   C4A73110  10.571  41.584   7.364
 5782POPC   C1B73111  10.729  41.523   6.464
 5782POPC   C2B73112  10.778  41.499   6.764
 5782POPC   C3B73113  10.767  41.585   7.064
 5782POPC   C4B73114  10.788  41.525   7.364
 5783POPC   NC373115   8.946   8.944   5.564
 5783POPC   PO473116   8.936   9.022   5.864
 5783POPC   GL173117   8.988   8.991   6.164
 5783POPC   GL273118   9.016   8.909   6.164
 5783POPC   C1A73119   8.958   8.937   6.464
 5783POPC   D2A73120   8.974   8.925   6.764
 5783POPC   C3A73121   8.996   8.980   7.064
 5783POPC   C4A73122   8.951   8.965   7.364
 5783POPC   C1B73123   9.164   8.726   6.464
 5783POPC   C2B73124   9.160   8.784   6.764
 5783POPC   C3B73125   9.155   8.749   7.064
 5783POPC   C4B73126   9.082   8.794   7.364
 5784POPC   NC373127  12.893  13.578   5.564
 5784POPC   PO473128  12.892  13.587   5.864
 5784POPC   GL173129  12.815  13.670   6.164
 5784POPC   GL273130  12.935  13.498   6.164
 5784POPC   C1A73131  12.835  13.604   6.464
 5784POPC   D2A73132  12.851  13.661   6.764
 5784POPC   C3A73133  12.833  13.666   7.064
 5784POPC   C4A73134  12.889  13.644   7.364
 5784POPC   C1B73135  12.933  13.354   6.464
 5784POPC   C2B73136  12.907  13.393   6.764
 5784POPC   C3B73137  12.921  13.354   7.064
 5784POPC   C4B73138  12.999  13.449   7.364
 5785POPC   NC373139  43.935  28.365   5.564
 5785POPC   PO473140  43.905  28.369   5.864
 5785POPC   GL173141  43.856  28.341   6.164
 5785POPC   GL273142  43.990  28.393   6.164
 5785POPC   C1A73143  43.882  28.324   6.464
 5785POPC   D2A73144  43.873  28.358   6.764
 5785POPC   C3A73145  43.913  28.362   7.064
 5785POPC   C4A73146  43.929  28.396   7.364
 5785POPC   C1B73147  44.116  28.431   6.464
 5785POPC   C2B73148  44.134  28.395   6.764
 5785POPC   C3B73149  44.108  28.450   7.064
 5785POPC   C4B73150  44.136  28.426   7.364
 5786POPC   NC373151  13.591   8.997   5.564
 5786POPC   PO473152  13.627   8.972   5.864
 5786POPC   GL173153  13.585   9.016   6.164
 5786POPC   GL273154  13.548   9.041   6.164
 5786POPC   C1A73155  13.615   8.944   6.464
 5786POPC   D2A73156  13.612   9.004   6.764
 5786POPC   C3A73157  13.636   8.983   7.064
 5786POPC   C4A73158  13.578   9.015   7.364
 5786POPC   C1B73159  13.418   9.098   6.464
 5786POPC   C2B73160  13.442   9.088   6.764
 5786POPC   C3B73161  13.460   9.082   7.064
 5786POPC   C4B73162  13.429   9.124   7.364
 5787POPC   NC373163   1.216  14.452   5.564
 5787POPC   PO473164   1.210  14.360   5.864
 5787POPC   GL173165   1.210  14.450   6.164
 5787POPC   GL273166   1.193  14.506   6.164
 5787POPC   C1A73167   1.206  14.414   6.464
 5787POPC   D2A73168   1.182  14.379   6.764
 5787POPC   C3A73169   1.195  14.432   7.064
 5787POPC   C4A73170   1.246  14.413   7.364
 5787POPC   C1B73171   1.211  14.613   6.464
 5787POPC   C2B73172   1.248  14.665   6.764
 5787POPC   C3B73173   1.221  14.641   7.064
 5787POPC   C4B73174   1.251  14.629   7.364
 5788POPC   NC373175  30.718  12.055   5.564
 5788POPC   PO473176  30.737  12.074   5.864
 5788POPC   GL173177  30.696  12.048   6.164
 5788POPC   GL273178  30.843  12.088   6.164
 5788POPC   C1A73179  30.716  12.027   6.464
 5788POPC   D2A73180  30.719  12.057   6.764
 5788POPC   C3A73181  30.678  12.049   7.064
 5788POPC   C4A73182  30.739  12.041   7.364
 5788POPC   C1B73183  30.940  12.222   6.464
 5788POPC   C2B73184  30.927  12.249   6.764
 5788POPC   C3B73185  30.917  12.239   7.064
 5788POPC   C4B73186  30.864  12.239   7.364
 5789POPC   NC373187  35.336  23.733   5.564
 5789POPC   PO473188  35.352  23.695   5.864
 5789POPC   GL173189  35.316  23.729   6.164
 5789POPC   GL273190  35.404  23.638   6.164
 5789POPC   C1A73191  35.391  23.708   6.464
 5789POPC   D2A73192  35.304  23.696   6.764
 5789POPC   C3A73193  35.364  23.737   7.064
 5789POPC   C4A73194  35.311  23.727   7.364
 5789POPC   C1B73195  35.458  23.458   6.464
 5789POPC   C2B73196  35.469  23.497   6.764
 5789POPC   C3B73197  35.437  23.449   7.064
 5789POPC   C4B73198  35.495  23.509   7.364
 5790POPC   NC373199  42.356  41.566   5.564
 5790POPC   PO473200  42.347  41.575   5.864
 5790POPC   GL173201  42.364  41.601   6.164
 5790POPC   GL273202  42.224  41.573   6.164
 5790POPC   C1A73203  42.306  41.604   6.464
 5790POPC   D2A73204  42.366  41.552   6.764
 5790POPC   C3A73205  42.352  41.587   7.064
 5790POPC   C4A73206  42.355  41.567   7.364
 5790POPC   C1B73207  42.101  41.538   6.464
 5790POPC   C2B73208  42.061  41.498   6.764
 5790POPC   C3B73209  42.088  41.454   7.064
 5790POPC   C4B73210  42.114  41.507   7.364
 5791POPC   NC373211   4.330  43.892   5.564
 5791POPC   PO473212   4.353  43.935   5.864
 5791POPC   GL173213   4.309  43.896   6.164
 5791POPC   GL273214   4.388  43.912   6.164
 5791POPC   C1A73215   4.307  43.921   6.464
 5791POPC   D2A73216   4.286  43.929   6.764
 5791POPC   C3A73217   4.330  43.928   7.064
 5791POPC   C4A73218   4.349  43.891   7.364
 5791POPC   C1B73219   4.487  43.978   6.464
 5791POPC   C2B73220   4.509  43.983   6.764
 5791POPC   C3B73221   4.520  43.975   7.064
 5791POPC   C4B73222   4.485  44.009   7.364
 5792POPC   NC373223  34.586  19.828   5.564
 5792POPC   PO473224  34.568  19.873   5.864
 5792POPC   GL173225  34.559  19.839   6.164
 5792POPC   GL273226  34.531  19.986   6.164
 5792POPC   C1A73227  34.612  19.792   6.464
 5792POPC   D2A73228  34.564  19.827   6.764
 5792POPC   C3A73229  34.601  19.848   7.064
 5792POPC   C4A73230  34.535  19.829   7.364
 5792POPC   C1B73231  34.486  20.020   6.464
 5792POPC   C2B73232  34.464  20.091   6.764
 5792POPC   C3B73233  34.484  20.049   7.064
 5792POPC   C4B73234  34.505  20.065   7.364
 5793POPC   NC373235  41.530  21.341   5.564
 5793POPC   PO473236  41.510  21.434   5.864
 5793POPC   GL173237  41.565  21.420   6.164
 5793POPC   GL273238  41.540  21.492   6.164
 5793POPC   C1A73239  41.573  21.398   6.464
 5793POPC   D2A73240  41.563  21.378   6.764
 5793POPC   C3A73241  41.527  21.399   7.064
 5793POPC   C4A73242  41.588  21.370   7.364
 5793POPC   C1B73243  41.563  21.642   6.464
 5793POPC   C2B73244  41.596  21.636   6.764
 5793POPC   C3B73245  41.597  21.624   7.064
 5793POPC   C4B73246  41.587  21.682   7.364
 5794POPC   NC373247  29.915  32.225   5.564
 5794POPC   PO473248  29.938  32.231   5.864
 5794POPC   GL173249  29.922  32.233   6.164
 5794POPC   GL273250  29.912  32.382   6.164
 5794POPC   C1A73251  29.958  32.258   6.464
 5794POPC   D2A73252  29.954  32.230   6.764
 5794POPC   C3A73253  29.902  32.233   7.064
 5794POPC   C4A73254  29.963  32.260   7.364
 5794POPC   C1B73255  29.899  32.527   6.464
 5794POPC   C2B73256  29.964  32.496   6.764
 5794POPC   C3B73257  29.911  32.463   7.064
 5794POPC   C4B73258  29.913  32.542   7.364
 5795POPC   NC373259  26.772  32.199   5.564
 5795POPC   PO473260  26.791  32.247   5.864
 5795POPC   GL173261  26.859  32.247   6.164
 5795POPC   GL273262  26.746  32.363   6.164
 5795POPC   C1A73263  26.856  32.254   6.464
 5795POPC   D2A73264  26.860  32.215   6.764
 5795POPC   C3A73265  26.847  32.214   7.064
 5795POPC   C4A73266  26.811  32.215   7.364
 5795POPC   C1B73267  26.658  32.424   6.464
 5795POPC   C2B73268  26.655  32.429   6.764
 5795POPC   C3B73269  26.631  32.467   7.064
 5795POPC   C4B73270  26.658  32.379   7.364
 5796POPC   NC373271  44.655  29.173   5.564
 5796POPC   PO473272  44.690  29.102   5.864
 5796POPC   GL173273  44.686  29.132   6.164
 5796POPC   GL273274  44.620  29.039   6.164
 5796POPC   C1A73275  44.693  29.143   6.464
 5796POPC   D2A73276  44.649  29.150   6.764
 5796POPC   C3A73277  44.703  29.120   7.064
 5796POPC   C4A73278  44.645  29.128   7.364
 5796POPC   C1B73279  44.541  28.869   6.464
 5796POPC   C2B73280  44.600  28.891   6.764
 5796POPC   C3B73281  44.580  28.913   7.064
 5796POPC   C4B73282  44.584  28.883   7.364
 5797POPC   NC373283   0.480  37.698   5.564
 5797POPC   PO473284   0.484  37.646   5.864
 5797POPC   GL173285   0.452  37.692   6.164
 5797POPC   GL273286   0.512  37.743   6.164
 5797POPC   C1A73287   0.486  37.676   6.464
 5797POPC   D2A73288   0.394  37.696   6.764
 5797POPC   C3A73289   0.419  37.632   7.064
 5797POPC   C4A73290   0.398  37.681   7.364
 5797POPC   C1B73291   0.658  37.786   6.464
 5797POPC   C2B73292   0.639  37.707   6.764
 5797POPC   C3B73293   0.715  37.701   7.064
 5797POPC   C4B73294   0.633  37.709   7.364
 5798POPC   NC373295  24.448  28.361   5.564
 5798POPC   PO473296  24.470  28.347   5.864
 5798POPC   GL173297  24.496  28.386   6.164
 5798POPC   GL273298  24.364  28.269   6.164
 5798POPC   C1A73299  24.517  28.400   6.464
 5798POPC   D2A73300  24.511  28.410   6.764
 5798POPC   C3A73301  24.501  28.361   7.064
 5798POPC   C4A73302  24.518  28.385   7.364
 5798POPC   C1B73303  24.294  28.263   6.464
 5798POPC   C2B73304  24.295  28.278   6.764
 5798POPC   C3B73305  24.262  28.216   7.064
 5798POPC   C4B73306  24.241  28.250   7.364
 5799POPC   NC373307  16.701   1.954   5.564
 5799POPC   PO473308  16.701   1.993   5.864
 5799POPC   GL173309  16.765   1.995   6.164
 5799POPC   GL273310  16.847   1.915   6.164
 5799POPC   C1A73311  16.728   2.006   6.464
 5799POPC   D2A73312  16.692   2.004   6.764
 5799POPC   C3A73313  16.717   1.969   7.064
 5799POPC   C4A73314  16.686   2.021   7.364
 5799POPC   C1B73315  16.930   1.941   6.464
 5799POPC   C2B73316  17.013   1.920   6.764
 5799POPC   C3B73317  16.964   1.969   7.064
 5799POPC   C4B73318  16.926   1.974   7.364
 5800POPC   NC373319  23.734   7.456   5.564
 5800POPC   PO473320  23.680   7.429   5.864
 5800POPC   GL173321  23.692   7.400   6.164
 5800POPC   GL273322  23.731   7.500   6.164
 5800POPC   C1A73323  23.714   7.458   6.464
 5800POPC   D2A73324  23.741   7.441   6.764
 5800POPC   C3A73325  23.667   7.450   7.064
 5800POPC   C4A73326  23.686   7.397   7.364
 5800POPC   C1B73327  23.782   7.595   6.464
 5800POPC   C2B73328  23.819   7.622   6.764
 5800POPC   C3B73329  23.783   7.643   7.064
 5800POPC   C4B73330  23.828   7.668   7.364
 5801POPC   NC373331  37.708  39.257   5.564
 5801POPC   PO473332  37.648  39.209   5.864
 5801POPC   GL173333  37.654  39.230   6.164
 5801POPC   GL273334  37.829  39.200   6.164
 5801POPC   C1A73335  37.632  39.204   6.464
 5801POPC   D2A73336  37.704  39.183   6.764
 5801POPC   C3A73337  37.685  39.277   7.064
 5801POPC   C4A73338  37.692  39.194   7.364
 5801POPC   C1B73339  37.952  39.299   6.464
 5801POPC   C2B73340  37.972  39.302   6.764
 5801POPC   C3B73341  37.973  39.271   7.064
 5801POPC   C4B73342  37.944  39.271   7.364
 5802POPC   NC373343   2.772  26.072   5.564
 5802POPC   PO473344   2.782  26.051   5.864
 5802POPC   GL173345   2.762  26.052   6.164
 5802POPC   GL273346   2.798  25.975   6.164
 5802POPC   C1A73347   2.731  26.017   6.464
 5802POPC   D2A73348   2.805  26.034   6.764
 5802POPC   C3A73349   2.739  26.063   7.064
 5802POPC   C4A73350   2.776  26.032   7.364
 5802POPC   C1B73351   2.839  25.805   6.464
 5802POPC   C2B73352   2.853  25.793   6.764
 5802POPC   C3B73353   2.905  25.815   7.064
 5802POPC   C4B73354   2.847  25.772   7.364
 5803POPC   NC373355  26.835  13.663   5.564
 5803POPC   PO473356  26.785  13.666   5.864
 5803POPC   GL173357  26.837  13.643   6.164
 5803POPC   GL273358  26.783  13.504   6.164
 5803POPC   C1A73359  26.863  13.642   6.464
 5803POPC   D2A73360  26.833  13.662   6.764
 5803POPC   C3A73361  26.851  13.650   7.064
 5803POPC   C4A73362  26.844  13.669   7.364
 5803POPC   C1B73363  26.772  13.393   6.464
 5803POPC   C2B73364  26.696  13.369   6.764
 5803POPC   C3B73365  26.784  13.339   7.064
 5803POPC   C4B73366  26.760  13.398   7.364
 5804POPC   NC373367  26.775   5.829   5.564
 5804POPC   PO473368  26.826   5.872   5.864
 5804POPC   GL173369  26.794   5.864   6.164
 5804POPC   GL273370  26.770   5.986   6.164
 5804POPC   C1A73371  26.786   5.866   6.464
 5804POPC   D2A73372  26.794   5.905   6.764
 5804POPC   C3A73373  26.810   5.876   7.064
 5804POPC   C4A73374  26.834   5.848   7.364
 5804POPC   C1B73375  26.675   6.015   6.464
 5804POPC   C2B73376  26.709   6.097   6.764
 5804POPC   C3B73377  26.678   6.049   7.064
 5804POPC   C4B73378  26.623   6.063   7.364
 5805POPC   NC373379  15.175   6.608   5.564
 5805POPC   PO473380  15.143   6.642   5.864
 5805POPC   GL173381  15.177   6.649   6.164
 5805POPC   GL273382  15.112   6.549   6.164
 5805POPC   C1A73383  15.136   6.665   6.464
 5805POPC   D2A73384  15.166   6.663   6.764
 5805POPC   C3A73385  15.132   6.624   7.064
 5805POPC   C4A73386  15.184   6.656   7.364
 5805POPC   C1B73387  15.002   6.496   6.464
 5805POPC   C2B73388  14.943   6.549   6.764
 5805POPC   C3B73389  14.960   6.492   7.064
 5805POPC   C4B73390  14.960   6.555   7.364
 5806POPC   NC373391  34.588  25.293   5.564
 5806POPC   PO473392  34.583  25.305   5.864
 5806POPC   GL173393  34.536  25.282   6.164
 5806POPC   GL273394  34.586  25.134   6.164
 5806POPC   C1A73395  34.533  25.235   6.464
 5806POPC   D2A73396  34.623  25.291   6.764
 5806POPC   C3A73397  34.534  25.266   7.064
 5806POPC   C4A73398  34.552  25.286   7.364
 5806POPC   C1B73399  34.584  25.011   6.464
 5806POPC   C2B73400  34.599  25.059   6.764
 5806POPC   C3B73401  34.575  24.975   7.064
 5806POPC   C4B73402  34.559  25.045   7.364
 5807POPC   NC373403  26.780  36.111   5.564
 5807POPC   PO473404  26.810  36.117   5.864
 5807POPC   GL173405  26.857  36.139   6.164
 5807POPC   GL273406  26.681  36.103   6.164
 5807POPC   C1A73407  26.832  36.170   6.464
 5807POPC   D2A73408  26.785  36.119   6.764
 5807POPC   C3A73409  26.799  36.177   7.064
 5807POPC   C4A73410  26.821  36.142   7.364
 5807POPC   C1B73411  26.608  36.173   6.464
 5807POPC   C2B73412  26.580  36.090   6.764
 5807POPC   C3B73413  26.570  36.112   7.064
 5807POPC   C4B73414  26.611  36.111   7.364
 5808POPC   NC373415  13.652   9.735   5.564
 5808POPC   PO473416  13.671   9.709   5.864
 5808POPC   GL173417  13.661   9.747   6.164
 5808POPC   GL273418  13.695   9.854   6.164
 5808POPC   C1A73419  13.619   9.740   6.464
 5808POPC   D2A73420  13.652   9.769   6.764
 5808POPC   C3A73421  13.610   9.717   7.064
 5808POPC   C4A73422  13.621   9.751   7.364
 5808POPC   C1B73423  13.826   9.910   6.464
 5808POPC   C2B73424  13.758   9.922   6.764
 5808POPC   C3B73425  13.753   9.881   7.064
 5808POPC   C4B73426  13.817   9.942   7.364
 5809POPC   NC373427  34.548   7.420   5.564
 5809POPC   PO473428  34.582   7.457   5.864
 5809POPC   GL173429  34.599   7.427   6.164
 5809POPC   GL273430  34.561   7.586   6.164
 5809POPC   C1A73431  34.608   7.378   6.464
 5809POPC   D2A73432  34.549   7.436   6.764
 5809POPC   C3A73433  34.574   7.451   7.064
 5809POPC   C4A73434  34.596   7.407   7.364
 5809POPC   C1B73435  34.577   7.682   6.464
 5809POPC   C2B73436  34.605   7.680   6.764
 5809POPC   C3B73437  34.558   7.719   7.064
 5809POPC   C4B73438  34.572   7.656   7.364
 5810POPC   NC373439   0.403  15.211   5.564
 5810POPC   PO473440   0.449  15.135   5.864
 5810POPC   GL173441   0.407  15.130   6.164
 5810POPC   GL273442   0.334  15.135   6.164
 5810POPC   C1A73443   0.412  15.148   6.464
 5810POPC   D2A73444   0.420  15.182   6.764
 5810POPC   C3A73445   0.440  15.168   7.064
 5810POPC   C4A73446   0.414  15.211   7.364
 5810POPC   C1B73447   0.161  15.061   6.464
 5810POPC   C2B73448   0.176  15.075   6.764
 5810POPC   C3B73449   0.219  15.041   7.064
 5810POPC   C4B73450   0.239  15.085   7.364
 5811POPC   NC373451  20.599   5.121   5.564
 5811POPC   PO473452  20.653   5.084   5.864
 5811POPC   GL173453  20.651   5.061   6.164
 5811POPC   GL273454  20.579   5.150   6.164
 5811POPC   C1A73455  20.592   5.089   6.464
 5811POPC   D2A73456  20.606   5.125   6.764
 5811POPC   C3A73457  20.568   5.120   7.064
 5811POPC   C4A73458  20.610   5.095   7.364
 5811POPC   C1B73459  20.503   5.263   6.464
 5811POPC   C2B73460  20.513   5.293   6.764
 5811POPC   C3B73461  20.481   5.292   7.064
 5811POPC   C4B73462  20.508   5.280   7.364
 5812POPC   NC373463  27.604  25.314   5.564
 5812POPC   PO473464  27.558  25.305   5.864
 5812POPC   GL173465  27.573  25.274   6.164
 5812POPC   GL273466  27.727  25.287   6.164
 5812POPC   C1A73467  27.564  25.290   6.464
 5812POPC   D2A73468  27.585  25.277   6.764
 5812POPC   C3A73469  27.585  25.257   7.064
 5812POPC   C4A73470  27.586  25.272   7.364
 5812POPC   C1B73471  27.853  25.291   6.464
 5812POPC   C2B73472  27.884  25.230   6.764
 5812POPC   C3B73473  27.847  25.247   7.064
 5812POPC   C4B73474  27.839  25.251   7.364
 5813POPC   NC373475   3.570  42.315   5.564
 5813POPC   PO473476   3.577  42.376   5.864
 5813POPC   GL173477   3.553  42.365   6.164
 5813POPC   GL273478   3.457  42.275   6.164
 5813POPC   C1A73479   3.554  42.351   6.464
 5813POPC   D2A73480   3.526  42.309   6.764
 5813POPC   C3A73481   3.496  42.345   7.064
 5813POPC   C4A73482   3.535  42.316   7.364
 5813POPC   C1B73483   3.390  42.107   6.464
 5813POPC   C2B73484   3.389  42.128   6.764
 5813POPC   C3B73485   3.439  42.157   7.064
 5813POPC   C4B73486   3.397  42.151   7.364
 5814POPC   NC373487  35.331  32.278   5.564
 5814POPC   PO473488  35.387  32.269   5.864
 5814POPC   GL173489  35.306  32.242   6.164
 5814POPC   GL273490  35.497  32.151   6.164
 5814POPC   C1A73491  35.380  32.276   6.464
 5814POPC   D2A73492  35.342  32.224   6.764
 5814POPC   C3A73493  35.342  32.269   7.064
 5814POPC   C4A73494  35.338  32.241   7.364
 5814POPC   C1B73495  35.558  32.149   6.464
 5814POPC   C2B73496  35.582  32.120   6.764
 5814POPC   C3B73497  35.556  32.137   7.064
 5814POPC   C4B73498  35.575  32.082   7.364
 5815POPC   NC373499  37.671  12.895   5.564
 5815POPC   PO473500  37.663  12.815   5.864
 5815POPC   GL173501  37.723  12.867   6.164
 5815POPC   GL273502  37.725  12.933   6.164
 5815POPC   C1A73503  37.633  12.837   6.464
 5815POPC   D2A73504  37.721  12.859   6.764
 5815POPC   C3A73505  37.689  12.885   7.064
 5815POPC   C4A73506  37.642  12.839   7.364
 5815POPC   C1B73507  37.686  13.086   6.464
 5815POPC   C2B73508  37.657  13.080   6.764
 5815POPC   C3B73509  37.740  13.114   7.064
 5815POPC   C4B73510  37.703  13.092   7.364
 5816POPC   NC373511  11.264  22.141   5.564
 5816POPC   PO473512  11.283  22.171   5.864
 5816POPC   GL173513  11.286  22.163   6.164
 5816POPC   GL273514  11.438  22.197   6.164
 5816POPC   C1A73515  11.269  22.161   6.464
 5816POPC   D2A73516  11.286  22.210   6.764
 5816POPC   C3A73517  11.350  22.207   7.064
 5816POPC   C4A73518  11.279  22.133   7.364
 5816POPC   C1B73519  11.515  22.284   6.464
 5816POPC   C2B73520  11.524  22.326   6.764
 5816POPC   C3B73521  11.514  22.281   7.064
 5816POPC   C4B73522  11.489  22.270   7.364
 5817POPC   NC373523  39.987   6.631   5.564
 5817POPC   PO473524  39.993   6.615   5.864
 5817POPC   GL173525  40.019   6.669   6.164
 5817POPC   GL273526  39.870   6.704   6.164
 5817POPC   C1A73527  39.974   6.643   6.464
 5817POPC   D2A73528  40.021   6.672   6.764
 5817POPC   C3A73529  40.035   6.619   7.064
 5817POPC   C4A73530  40.050   6.621   7.364
 5817POPC   C1B73531  39.785   6.726   6.464
 5817POPC   C2B73532  39.794   6.727   6.764
 5817POPC   C3B73533  39.800   6.755   7.064
 5817POPC   C4B73534  39.774   6.716   7.364
 5818POPC   NC373535  14.387  30.668   5.564
 5818POPC   PO473536  14.401  30.736   5.864
 5818POPC   GL173537  14.397  30.661   6.164
 5818POPC   GL273538  14.354  30.764   6.164
 5818POPC   C1A73539  14.409  30.691   6.464
 5818POPC   D2A73540  14.359  30.689   6.764
 5818POPC   C3A73541  14.387  30.724   7.064
 5818POPC   C4A73542  14.445  30.744   7.364
 5818POPC   C1B73543  14.259  30.852   6.464
 5818POPC   C2B73544  14.264  30.838   6.764
 5818POPC   C3B73545  14.183  30.861   7.064
 5818POPC   C4B73546  14.223  30.864   7.364
 5819POPC   NC373547  13.650  42.288   5.564
 5819POPC   PO473548  13.589  42.293   5.864
 5819POPC   GL173549  13.587  42.291   6.164
 5819POPC   GL273550  13.568  42.200   6.164
 5819POPC   C1A73551  13.637  42.357   6.464
 5819POPC   D2A73552  13.671  42.310   6.764
 5819POPC   C3A73553  13.672  42.315   7.064
 5819POPC   C4A73554  13.638  42.304   7.364
 5819POPC   C1B73555  13.457  42.190   6.464
 5819POPC   C2B73556  13.451  42.163   6.764
 5819POPC   C3B73557  13.474  42.116   7.064
 5819POPC   C4B73558  13.454  42.128   7.364
 5820POPC   NC373559  26.049  28.329   5.564
 5820POPC   PO473560  26.018  28.334   5.864
 5820POPC   GL173561  26.049  28.415   6.164
 5820POPC   GL273562  25.947  28.409   6.164
 5820POPC   C1A73563  26.027  28.356   6.464
 5820POPC   D2A73564  26.041  28.369   6.764
 5820POPC   C3A73565  26.026  28.365   7.064
 5820POPC   C4A73566  26.066  28.394   7.364
 5820POPC   C1B73567  25.822  28.490   6.464
 5820POPC   C2B73568  25.814  28.514   6.764
 5820POPC   C3B73569  25.800  28.482   7.064
 5820POPC   C4B73570  25.801  28.517   7.364
 5821POPC   NC373571  26.859  33.820   5.564
 5821POPC   PO473572  26.814  33.842   5.864
 5821POPC   GL173573  26.789  33.759   6.164
 5821POPC   GL273574  26.728  33.666   6.164
 5821POPC   C1A73575  26.788  33.823   6.464
 5821POPC   D2A73576  26.827  33.753   6.764
 5821POPC   C3A73577  26.799  33.781   7.064
 5821POPC   C4A73578  26.788  33.781   7.364
 5821POPC   C1B73579  26.665  33.599   6.464
 5821POPC   C2B73580  26.655  33.569   6.764
 5821POPC   C3B73581  26.645  33.583   7.064
 5821POPC   C4B73582  26.671  33.655   7.364
 5822POPC   NC373583  12.816   8.164   5.564
 5822POPC   PO473584  12.839   8.152   5.864
 5822POPC   GL173585  12.838   8.205   6.164
 5822POPC   GL273586  12.896   8.344   6.164
 5822POPC   C1A73587  12.899   8.224   6.464
 5822POPC   D2A73588  12.896   8.176   6.764
 5822POPC   C3A73589  12.810   8.218   7.064
 5822POPC   C4A73590  12.899   8.201   7.364
 5822POPC   C1B73591  12.825   8.487   6.464
 5822POPC   C2B73592  12.845   8.472   6.764
 5822POPC   C3B73593  12.877   8.429   7.064
 5822POPC   C4B73594  12.884   8.457   7.364
 5823POPC   NC373595  27.556  19.086   5.564
 5823POPC   PO473596  27.552  19.077   5.864
 5823POPC   GL173597  27.551  19.016   6.164
 5823POPC   GL273598  27.490  18.937   6.164
 5823POPC   C1A73599  27.636  19.056   6.464
 5823POPC   D2A73600  27.580  19.022   6.764
 5823POPC   C3A73601  27.623  19.086   7.064
 5823POPC   C4A73602  27.601  19.072   7.364
 5823POPC   C1B73603  27.406  18.894   6.464
 5823POPC   C2B73604  27.467  18.871   6.764
 5823POPC   C3B73605  27.393  18.868   7.064
 5823POPC   C4B73606  27.373  18.898   7.364
 5824POPC   NC373607  39.219  33.783   5.564
 5824POPC   PO473608  39.280  33.837   5.864
 5824POPC   GL173609  39.181  33.802   6.164
 5824POPC   GL273610  39.146  33.766   6.164
 5824POPC   C1A73611  39.279  33.767   6.464
 5824POPC   D2A73612  39.191  33.843   6.764
 5824POPC   C3A73613  39.265  33.773   7.064
 5824POPC   C4A73614  39.246  33.792   7.364
 5824POPC   C1B73615  38.964  33.720   6.464
 5824POPC   C2B73616  39.001  33.759   6.764
 5824POPC   C3B73617  38.999  33.757   7.064
 5824POPC   C4B73618  38.974  33.799   7.364
 5825POPC   NC373619  35.397  43.863   5.564
 5825POPC   PO473620  35.383  43.872   5.864
 5825POPC   GL173621  35.399  43.896   6.164
 5825POPC   GL273622  35.440  44.020   6.164
 5825POPC   C1A73623  35.354  43.857   6.464
 5825POPC   D2A73624  35.320  43.886   6.764
 5825POPC   C3A73625  35.397  43.933   7.064
 5825POPC   C4A73626  35.338  43.845   7.364
 5825POPC   C1B73627  35.477  44.092   6.464
 5825POPC   C2B73628  35.438  44.065   6.764
 5825POPC   C3B73629  35.442  44.137   7.064
 5825POPC   C4B73630  35.472  44.147   7.364
 5826POPC   NC373631  35.369  14.414   5.564
 5826POPC   PO473632  35.303  14.419   5.864
 5826POPC   GL173633  35.320  14.386   6.164
 5826POPC   GL273634  35.265  14.256   6.164
 5826POPC   C1A73635  35.354  14.386   6.464
 5826POPC   D2A73636  35.344  14.425   6.764
 5826POPC   C3A73637  35.392  14.377   7.064
 5826POPC   C4A73638  35.377  14.411   7.364
 5826POPC   C1B73639  35.251  14.198   6.464
 5826POPC   C2B73640  35.245  14.224   6.764
 5826POPC   C3B73641  35.242  14.188   7.064
 5826POPC   C4B73642  35.208  14.187   7.364
 5827POPC   NC373643  36.881  34.554   5.564
 5827POPC   PO473644  36.946  34.531   5.864
 5827POPC   GL173645  36.950  34.593   6.164
 5827POPC   GL273646  36.857  34.713   6.164
 5827POPC   C1A73647  36.856  34.609   6.464
 5827POPC   D2A73648  36.889  34.526   6.764
 5827POPC   C3A73649  36.899  34.616   7.064
 5827POPC   C4A73650  36.885  34.580   7.364
 5827POPC   C1B73651  36.891  34.853   6.464
 5827POPC   C2B73652  36.866  34.824   6.764
 5827POPC   C3B73653  36.956  34.864   7.064
 5827POPC   C4B73654  36.926  34.832   7.364
 5828POPC   NC373655   7.433  43.125   5.564
 5828POPC   PO473656   7.469  43.090   5.864
 5828POPC   GL173657   7.371  43.131   6.164
 5828POPC   GL273658   7.556  43.158   6.164
 5828POPC   C1A73659   7.381  43.094   6.464
 5828POPC   D2A73660   7.400  43.067   6.764
 5828POPC   C3A73661   7.395  43.146   7.064
 5828POPC   C4A73662   7.374  43.093   7.364
 5828POPC   C1B73663   7.652  43.230   6.464
 5828POPC   C2B73664   7.669  43.193   6.764
 5828POPC   C3B73665   7.679  43.152   7.064
 5828POPC   C4B73666   7.623  43.187   7.364
 5829POPC   NC373667  17.532  35.379   5.564
 5829POPC   PO473668  17.494  35.333   5.864
 5829POPC   GL173669  17.534  35.394   6.164
 5829POPC   GL273670  17.337  35.368   6.164
 5829POPC   C1A73671  17.484  35.378   6.464
 5829POPC   D2A73672  17.509  35.378   6.764
 5829POPC   C3A73673  17.508  35.335   7.064
 5829POPC   C4A73674  17.504  35.384   7.364
 5829POPC   C1B73675  17.233  35.374   6.464
 5829POPC   C2B73676  17.287  35.417   6.764
 5829POPC   C3B73677  17.218  35.423   7.064
 5829POPC   C4B73678  17.238  35.434   7.364
 5830POPC   NC373679  15.192  25.293   5.564
 5830POPC   PO473680  15.133  25.219   5.864
 5830POPC   GL173681  15.167  25.222   6.164
 5830POPC   GL273682  15.223  25.385   6.164
 5830POPC   C1A73683  15.200  25.239   6.464
 5830POPC   D2A73684  15.190  25.256   6.764
 5830POPC   C3A73685  15.197  25.315   7.064
 5830POPC   C4A73686  15.221  25.257   7.364
 5830POPC   C1B73687  15.257  25.498   6.464
 5830POPC   C2B73688  15.267  25.522   6.764
 5830POPC   C3B73689  15.305  25.465   7.064
 5830POPC   C4B73690  15.272  25.536   7.364
 5831POPC   NC373691  22.187  12.884   5.564
 5831POPC   PO473692  22.132  12.814   5.864
 5831POPC   GL173693  22.120  12.826   6.164
 5831POPC   GL273694  22.067  12.878   6.164
 5831POPC   C1A73695  22.124  12.806   6.464
 5831POPC   D2A73696  22.117  12.845   6.764
 5831POPC   C3A73697  22.118  12.885   7.064
 5831POPC   C4A73698  22.149  12.807   7.364
 5831POPC   C1B73699  21.951  12.916   6.464
 5831POPC   C2B73700  21.932  12.855   6.764
 5831POPC   C3B73701  21.946  12.885   7.064
 5831POPC   C4B73702  21.879  12.899   7.364
 5832POPC   NC373703  31.477   5.877   5.564
 5832POPC   PO473704  31.453   5.878   5.864
 5832POPC   GL173705  31.497   5.873   6.164
 5832POPC   GL273706  31.517   5.790   6.164
 5832POPC   C1A73707  31.453   5.902   6.464
 5832POPC   D2A73708  31.469   5.919   6.764
 5832POPC   C3A73709  31.509   5.898   7.064
 5832POPC   C4A73710  31.502   5.850   7.364
 5832POPC   C1B73711  31.609   5.694   6.464
 5832POPC   C2B73712  31.579   5.686   6.764
 5832POPC   C3B73713  31.584   5.676   7.064
 5832POPC   C4B73714  31.606   5.636   7.364
 5833POPC   NC373715  21.344  41.594   5.564
 5833POPC   PO473716  21.344  41.600   5.864
 5833POPC   GL173717  21.375  41.590   6.164
 5833POPC   GL273718  21.461  41.611   6.164
 5833POPC   C1A73719  21.355  41.562   6.464
 5833POPC   D2A73720  21.410  41.540   6.764
 5833POPC   C3A73721  21.366  41.599   7.064
 5833POPC   C4A73722  21.430  41.576   7.364
 5833POPC   C1B73723  21.601  41.687   6.464
 5833POPC   C2B73724  21.659  41.641   6.764
 5833POPC   C3B73725  21.655  41.686   7.064
 5833POPC   C4B73726  21.633  41.689   7.364
 5834POPC   NC373727  39.973  27.633   5.564
 5834POPC   PO473728  40.035  27.616   5.864
 5834POPC   GL173729  39.975  27.585   6.164
 5834POPC   GL273730  40.083  27.693   6.164
 5834POPC   C1A73731  40.016  27.571   6.464
 5834POPC   D2A73732  40.022  27.581   6.764
 5834POPC   C3A73733  40.018  27.576   7.064
 5834POPC   C4A73734  40.053  27.594   7.364
 5834POPC   C1B73735  40.217  27.731   6.464
 5834POPC   C2B73736  40.153  27.812   6.764
 5834POPC   C3B73737  40.145  27.793   7.064
 5834POPC   C4B73738  40.165  27.814   7.364
 5835POPC   NC373739  12.841   9.712   5.564
 5835POPC   PO473740  12.844   9.728   5.864
 5835POPC   GL173741  12.852   9.715   6.164
 5835POPC   GL273742  12.940   9.868   6.164
 5835POPC   C1A73743  12.874   9.787   6.464
 5835POPC   D2A73744  12.864   9.787   6.764
 5835POPC   C3A73745  12.861   9.765   7.064
 5835POPC   C4A73746  12.813   9.705   7.364
 5835POPC   C1B73747  12.960   9.950   6.464
 5835POPC   C2B73748  13.005   9.929   6.764
 5835POPC   C3B73749  13.044   9.920   7.064
 5835POPC   C4B73750  12.963   9.969   7.364
 5836POPC   NC373751  35.387  10.497   5.564
 5836POPC   PO473752  35.384  10.545   5.864
 5836POPC   GL173753  35.350  10.572   6.164
 5836POPC   GL273754  35.240  10.466   6.164
 5836POPC   C1A73755  35.323  10.489   6.464
 5836POPC   D2A73756  35.358  10.545   6.764
 5836POPC   C3A73757  35.328  10.509   7.064
 5836POPC   C4A73758  35.391  10.498   7.364
 5836POPC   C1B73759  35.112  10.319   6.464
 5836POPC   C2B73760  35.128  10.321   6.764
 5836POPC   C3B73761  35.167  10.393   7.064
 5836POPC   C4B73762  35.194  10.376   7.364
 5837POPC   NC373763  20.575  15.981   5.564
 5837POPC   PO473764  20.567  15.909   5.864
 5837POPC   GL173765  20.635  15.935   6.164
 5837POPC   GL273766  20.487  16.042   6.164
 5837POPC   C1A73767  20.567  15.906   6.464
 5837POPC   D2A73768  20.623  15.991   6.764
 5837POPC   C3A73769  20.645  15.961   7.064
 5837POPC   C4A73770  20.577  15.938   7.364
 5837POPC   C1B73771  20.442  16.095   6.464
 5837POPC   C2B73772  20.357  16.091   6.764
 5837POPC   C3B73773  20.404  16.107   7.064
 5837POPC   C4B73774  20.414  16.073   7.364
 5838POPC   NC373775  24.484  27.587   5.564
 5838POPC   PO473776  24.509  27.618   5.864
 5838POPC   GL173777  24.454  27.589   6.164
 5838POPC   GL273778  24.571  27.503   6.164
 5838POPC   C1A73779  24.443  27.592   6.464
 5838POPC   D2A73780  24.448  27.588   6.764
 5838POPC   C3A73781  24.539  27.621   7.064
 5838POPC   C4A73782  24.515  27.597   7.364
 5838POPC   C1B73783  24.753  27.484   6.464
 5838POPC   C2B73784  24.767  27.527   6.764
 5838POPC   C3B73785  24.730  27.540   7.064
 5838POPC   C4B73786  24.712  27.458   7.364
 5839POPC   NC373787  23.721  24.465   5.564
 5839POPC   PO473788  23.748  24.488   5.864
 5839POPC   GL173789  23.737  24.487   6.164
 5839POPC   GL273790  23.721  24.649   6.164
 5839POPC   C1A73791  23.680  24.484   6.464
 5839POPC   D2A73792  23.739  24.445   6.764
 5839POPC   C3A73793  23.691  24.481   7.064
 5839POPC   C4A73794  23.751  24.478   7.364
 5839POPC   C1B73795  23.611  24.720   6.464
 5839POPC   C2B73796  23.680  24.773   6.764
 5839POPC   C3B73797  23.690  24.769   7.064
 5839POPC   C4B73798  23.655  24.734   7.364
 5840POPC   NC373799  12.810  27.587   5.564
 5840POPC   PO473800  12.827  27.548   5.864
 5840POPC   GL173801  12.844  27.581   6.164
 5840POPC   GL273802  12.943  27.549   6.164
 5840POPC   C1A73803  12.874  27.614   6.464
 5840POPC   D2A73804  12.881  27.568   6.764
 5840POPC   C3A73805  12.854  27.589   7.064
 5840POPC   C4A73806  12.811  27.588   7.364
 5840POPC   C1B73807  13.091  27.521   6.464
 5840POPC   C2B73808  13.052  27.504   6.764
 5840POPC   C3B73809  13.052  27.560   7.064
 5840POPC   C4B73810  13.057  27.549   7.364
 5841POPC   NC373811   4.280  40.775   5.564
 5841POPC   PO473812   4.302  40.820   5.864
 5841POPC   GL173813   4.357  40.794   6.164
 5841POPC   GL273814   4.337  40.921   6.164
 5841POPC   C1A73815   4.283  40.810   6.464
 5841POPC   D2A73816   4.313  40.821   6.764
 5841POPC   C3A73817   4.336  40.754   7.064
 5841POPC   C4A73818   4.280  40.780   7.364
 5841POPC   C1B73819   4.397  41.003   6.464
 5841POPC   C2B73820   4.435  40.995   6.764
 5841POPC   C3B73821   4.483  41.027   7.064
 5841POPC   C4B73822   4.477  40.974   7.364
 5842POPC   NC373823  29.880   6.613   5.564
 5842POPC   PO473824  29.964   6.666   5.864
 5842POPC   GL173825  29.906   6.651   6.164
 5842POPC   GL273826  29.838   6.743   6.164
 5842POPC   C1A73827  29.945   6.641   6.464
 5842POPC   D2A73828  29.927   6.681   6.764
 5842POPC   C3A73829  29.883   6.691   7.064
 5842POPC   C4A73830  29.904   6.605   7.364
 5842POPC   C1B73831  29.775   6.846   6.464
 5842POPC   C2B73832  29.783   6.816   6.764
 5842POPC   C3B73833  29.773   6.861   7.064
 5842POPC   C4B73834  29.813   6.837   7.364
 5843POPC   NC373835  17.528   1.965   5.564
 5843POPC   PO473836  17.496   1.962   5.864
 5843POPC   GL173837  17.472   2.034   6.164
 5843POPC   GL273838  17.417   1.932   6.164
 5843POPC   C1A73839  17.471   1.983   6.464
 5843POPC   D2A73840  17.549   1.980   6.764
 5843POPC   C3A73841  17.554   2.031   7.064
 5843POPC   C4A73842  17.482   2.029   7.364
 5843POPC   C1B73843  17.251   2.007   6.464
 5843POPC   C2B73844  17.237   1.997   6.764
 5843POPC   C3B73845  17.229   1.962   7.064
 5843POPC   C4B73846  17.272   1.978   7.364
 5844POPC   NC373847  29.883  31.445   5.564
 5844POPC   PO473848  29.877  31.491   5.864
 5844POPC   GL173849  29.897  31.455   6.164
 5844POPC   GL273850  30.057  31.517   6.164
 5844POPC   C1A73851  29.942  31.478   6.464
 5844POPC   D2A73852  29.951  31.503   6.764
 5844POPC   C3A73853  29.943  31.446   7.064
 5844POPC   C4A73854  29.880  31.499   7.364
 5844POPC   C1B73855  30.110  31.608   6.464
 5844POPC   C2B73856  30.089  31.604   6.764
 5844POPC   C3B73857  30.084  31.604   7.064
 5844POPC   C4B73858  30.108  31.673   7.364
 5845POPC   NC373859  22.148  38.433   5.564
 5845POPC   PO473860  22.204  38.482   5.864
 5845POPC   GL173861  22.197  38.420   6.164
 5845POPC   GL273862  22.014  38.530   6.164
 5845POPC   C1A73863  22.205  38.425   6.464
 5845POPC   D2A73864  22.130  38.439   6.764
 5845POPC   C3A73865  22.126  38.445   7.064
 5845POPC   C4A73866  22.136  38.434   7.364
 5845POPC   C1B73867  21.981  38.570   6.464
 5845POPC   C2B73868  21.919  38.614   6.764
 5845POPC   C3B73869  21.956  38.556   7.064
 5845POPC   C4B73870  21.989  38.627   7.364
 5846POPC   NC373871  33.780   3.514   5.564
 5846POPC   PO473872  33.805   3.558   5.864
 5846POPC   GL173873  33.805   3.568   6.164
 5846POPC   GL273874  33.762   3.434   6.164
 5846POPC   C1A73875  33.802   3.586   6.464
 5846POPC   D2A73876  33.786   3.540   6.764
 5846POPC   C3A73877  33.818   3.533   7.064
 5846POPC   C4A73878  33.814   3.570   7.364
 5846POPC   C1B73879  33.696   3.337   6.464
 5846POPC   C2B73880  33.691   3.315   6.764
 5846POPC   C3B73881  33.706   3.336   7.064
 5846POPC   C4B73882  33.719   3.308   7.364
 5847POPC   NC373883   0.415   3.540   5.564
 5847POPC   PO473884   0.470   3.551   5.864
 5847POPC   GL173885   0.478   3.492   6.164
 5847POPC   GL273886   0.543   3.497   6.164
 5847POPC   C1A73887   0.471   3.551   6.464
 5847POPC   D2A73888   0.390   3.586   6.764
 5847POPC   C3A73889   0.396   3.505   7.064
 5847POPC   C4A73890   0.414   3.543   7.364
 5847POPC   C1B73891   0.672   3.454   6.464
 5847POPC   C2B73892   0.680   3.451   6.764
 5847POPC   C3B73893   0.654   3.427   7.064
 5847POPC   C4B73894   0.693   3.415   7.364
 5848POPC   NC373895  27.556   6.612   5.564
 5848POPC   PO473896  27.575   6.618   5.864
 5848POPC   GL173897  27.558   6.683   6.164
 5848POPC   GL273898  27.718   6.668   6.164
 5848POPC   C1A73899  27.582   6.636   6.464
 5848POPC   D2A73900  27.578   6.606   6.764
 5848POPC   C3A73901  27.562   6.677   7.064
 5848POPC   C4A73902  27.586   6.644   7.364
 5848POPC   C1B73903  27.845   6.691   6.464
 5848POPC   C2B73904  27.875   6.652   6.764
 5848POPC   C3B73905  27.881   6.740   7.064
 5848POPC   C4B73906  27.815   6.683   7.364
 5849POPC   NC373907  36.856   5.881   5.564
 5849POPC   PO473908  36.884   5.830   5.864
 5849POPC   GL173909  36.857   5.869   6.164
 5849POPC   GL273910  37.033   5.851   6.164
 5849POPC   C1A73911  36.905   5.854   6.464
 5849POPC   D2A73912  36.928   5.852   6.764
 5849POPC   C3A73913  36.869   5.911   7.064
 5849POPC   C4A73914  36.854   5.833   7.364
 5849POPC   C1B73915  37.144   5.732   6.464
 5849POPC   C2B73916  37.135   5.810   6.764
 5849POPC   C3B73917  37.111   5.795   7.064
 5849POPC   C4B73918  37.120   5.804   7.364
 5850POPC   NC373919  29.161   1.973   5.564
 5850POPC   PO473920  29.112   1.995   5.864
 5850POPC   GL173921  29.095   1.986   6.164
 5850POPC   GL273922  29.205   2.107   6.164
 5850POPC   C1A73923  29.106   2.020   6.464
 5850POPC   D2A73924  29.171   1.986   6.764
 5850POPC   C3A73925  29.151   1.967   7.064
 5850POPC   C4A73926  29.128   1.951   7.364
 5850POPC   C1B73927  29.275   2.214   6.464
 5850POPC   C2B73928  29.209   2.228   6.764
 5850POPC   C3B73929  29.249   2.235   7.064
 5850POPC   C4B73930  29.197   2.179   7.364
 5851POPC   NC373931  20.578  43.905   5.564
 5851POPC   PO473932  20.629  43.928   5.864
 5851POPC   GL173933  20.648  43.918   6.164
 5851POPC   GL273934  20.712  43.970   6.164
 5851POPC   C1A73935  20.609  43.857   6.464
 5851POPC   D2A73936  20.660  43.910   6.764
 5851POPC   C3A73937  20.630  43.936   7.064
 5851POPC   C4A73938  20.602  43.922   7.364
 5851POPC   C1B73939  20.709  44.089   6.464
 5851POPC   C2B73940  20.719  44.143   6.764
 5851POPC   C3B73941  20.676  44.104   7.064
 5851POPC   C4B73942  20.743  44.143   7.364
 5852POPC   NC373943  33.831   0.455   5.564
 5852POPC   PO473944  33.827   0.470   5.864
 5852POPC   GL173945  33.825   0.392   6.164
 5852POPC   GL273946  33.635   0.402   6.164
 5852POPC   C1A73947  33.789   0.468   6.464
 5852POPC   D2A73948  33.808   0.437   6.764
 5852POPC   C3A73949  33.801   0.453   7.064
 5852POPC   C4A73950  33.778   0.417   7.364
 5852POPC   C1B73951  33.591   0.374   6.464
 5852POPC   C2B73952  33.599   0.380   6.764
 5852POPC   C3B73953  33.541   0.446   7.064
 5852POPC   C4B73954  33.549   0.436   7.364
 5853POPC   NC373955  43.063  38.483   5.564
 5853POPC   PO473956  43.074  38.460   5.864
 5853POPC   GL173957  43.101  38.437   6.164
 5853POPC   GL273958  43.116  38.534   6.164
 5853POPC   C1A73959  43.081  38.467   6.464
 5853POPC   D2A73960  43.128  38.417   6.764
 5853POPC   C3A73961  43.081  38.470   7.064
 5853POPC   C4A73962  43.133  38.438   7.364
 5853POPC   C1B73963  43.123  38.692   6.464
 5853POPC   C2B73964  43.075  38.695   6.764
 5853POPC   C3B73965  43.080  38.680   7.064
 5853POPC   C4B73966  43.078  38.674   7.364
 5854POPC   NC373967  41.518  41.607   5.564
 5854POPC   PO473968  41.603  41.515   5.864
 5854POPC   GL173969  41.572  41.583   6.164
 5854POPC   GL273970  41.701  41.479   6.164
 5854POPC   C1A73971  41.594  41.514   6.464
 5854POPC   D2A73972  41.571  41.607   6.764
 5854POPC   C3A73973  41.553  41.599   7.064
 5854POPC   C4A73974  41.578  41.571   7.364
 5854POPC   C1B73975  41.778  41.356   6.464
 5854POPC   C2B73976  41.768  41.366   6.764
 5854POPC   C3B73977  41.751  41.433   7.064
 5854POPC   C4B73978  41.795  41.431   7.364
 5855POPC   NC373979  22.975   8.941   5.564
 5855POPC   PO473980  22.934   8.997   5.864
 5855POPC   GL173981  22.951   8.964   6.164
 5855POPC   GL273982  22.930   8.894   6.164
 5855POPC   C1A73983  22.899   8.990   6.464
 5855POPC   D2A73984  22.949   8.994   6.764
 5855POPC   C3A73985  22.891   8.972   7.064
 5855POPC   C4A73986  22.924   8.953   7.364
 5855POPC   C1B73987  22.956   8.686   6.464
 5855POPC   C2B73988  22.913   8.771   6.764
 5855POPC   C3B73989  22.977   8.740   7.064
 5855POPC   C4B73990  22.971   8.709   7.364
 5856POPC   NC373991  27.600   4.362   5.564
 5856POPC   PO473992  27.626   4.336   5.864
 5856POPC   GL173993  27.637   4.318   6.164
 5856POPC   GL273994  27.500   4.431   6.164
 5856POPC   C1A73995  27.590   4.333   6.464
 5856POPC   D2A73996  27.615   4.325   6.764
 5856POPC   C3A73997  27.577   4.269   7.064
 5856POPC   C4A73998  27.631   4.278   7.364
 5856POPC   C1B73999  27.495   4.536   6.464
 5856POPC   C2B74000  27.508   4.525   6.764
 5856POPC   C3B74001  27.520   4.583   7.064
 5856POPC   C4B74002  27.507   4.590   7.364
 5857POPC   NC374003  17.497  43.867   5.564
 5857POPC   PO474004  17.488  43.873   5.864
 5857POPC   GL174005  17.479  43.863   6.164
 5857POPC   GL274006  17.568  43.948   6.164
 5857POPC   C1A74007  17.544  43.911   6.464
 5857POPC   D2A74008  17.497  43.914   6.764
 5857POPC   C3A74009  17.519  43.934   7.064
 5857POPC   C4A74010  17.529  43.896   7.364
 5857POPC   C1B74011  17.662  44.047   6.464
 5857POPC   C2B74012  17.711  44.057   6.764
 5857POPC   C3B74013  17.731  44.063   7.064
 5857POPC   C4B74014  17.705  44.023   7.364
 5858POPC   NC374015   4.285  24.536   5.564
 5858POPC   PO474016   4.341  24.482   5.864
 5858POPC   GL174017   4.326  24.465   6.164
 5858POPC   GL274018   4.337  24.399   6.164
 5858POPC   C1A74019   4.283  24.491   6.464
 5858POPC   D2A74020   4.308  24.503   6.764
 5858POPC   C3A74021   4.275  24.535   7.064
 5858POPC   C4A74022   4.299  24.515   7.364
 5858POPC   C1B74023   4.353  24.232   6.464
 5858POPC   C2B74024   4.424  24.202   6.764
 5858POPC   C3B74025   4.340  24.267   7.064
 5858POPC   C4B74026   4.368  24.234   7.364
 5859POPC   NC374027  29.958  27.592   5.564
 5859POPC   PO474028  29.950  27.638   5.864
 5859POPC   GL174029  29.948  27.568   6.164
 5859POPC   GL274030  29.952  27.435   6.164
 5859POPC   C1A74031  29.877  27.616   6.464
 5859POPC   D2A74032  29.910  27.574   6.764
 5859POPC   C3A74033  29.964  27.604   7.064
 5859POPC   C4A74034  29.943  27.557   7.364
 5859POPC   C1B74035  30.031  27.420   6.464
 5859POPC   C2B74036  29.993  27.344   6.764
 5859POPC   C3B74037  30.072  27.374   7.064
 5859POPC   C4B74038  30.003  27.363   7.364
 5860POPC   NC374039  22.192  29.890   5.564
 5860POPC   PO474040  22.191  29.940   5.864
 5860POPC   GL174041  22.160  29.940   6.164
 5860POPC   GL274042  22.035  29.909   6.164
 5860POPC   C1A74043  22.128  29.935   6.464
 5860POPC   D2A74044  22.177  29.941   6.764
 5860POPC   C3A74045  22.202  29.928   7.064
 5860POPC   C4A74046  22.190  29.896   7.364
 5860POPC   C1B74047  21.867  29.967   6.464
 5860POPC   C2B74048  21.881  29.981   6.764
 5860POPC   C3B74049  21.941  29.934   7.064
 5860POPC   C4B74050  21.941  29.914   7.364
 5861POPC   NC374051  15.938  43.912   5.564
 5861POPC   PO474052  15.987  43.869   5.864
 5861POPC   GL174053  15.995  43.865   6.164
 5861POPC   GL274054  16.101  43.921   6.164
 5861POPC   C1A74055  15.992  43.878   6.464
 5861POPC   D2A74056  15.987  43.860   6.764
 5861POPC   C3A74057  15.997  43.915   7.064
 5861POPC   C4A74058  15.972  43.902   7.364
 5861POPC   C1B74059  16.192  43.903   6.464
 5861POPC   C2B74060  16.239  43.889   6.764
 5861POPC   C3B74061  16.169  43.955   7.064
 5861POPC   C4B74062  16.184  43.930   7.364
 5862POPC   NC374063  32.230  43.839   5.564
 5862POPC   PO474064  32.277  43.881   5.864
 5862POPC   GL174065  32.208  43.886   6.164
 5862POPC   GL274066  32.370  43.874   6.164
 5862POPC   C1A74067  32.285  43.870   6.464
 5862POPC   D2A74068  32.247  43.930   6.764
 5862POPC   C3A74069  32.255  43.889   7.064
 5862POPC   C4A74070  32.204  43.859   7.364
 5862POPC   C1B74071  32.512  43.897   6.464
 5862POPC   C2B74072  32.476  43.981   6.764
 5862POPC   C3B74073  32.518  43.960   7.064
 5862POPC   C4B74074  32.501  43.981   7.364
 5863POPC   NC374075  25.227  18.296   5.564
 5863POPC   PO474076  25.224  18.249   5.864
 5863POPC   GL174077  25.224  18.300   6.164
 5863POPC   GL274078  25.145  18.147   6.164
 5863POPC   C1A74079  25.232  18.294   6.464
 5863POPC   D2A74080  25.311  18.233   6.764
 5863POPC   C3A74081  25.275  18.238   7.064
 5863POPC   C4A74082  25.296  18.319   7.364
 5863POPC   C1B74083  25.077  18.041   6.464
 5863POPC   C2B74084  25.164  18.047   6.764
 5863POPC   C3B74085  25.160  18.110   7.064
 5863POPC   C4B74086  25.150  18.094   7.364
 5864POPC   NC374087   6.645  38.474   5.564
 5864POPC   PO474088   6.615  38.476   5.864
 5864POPC   GL174089   6.687  38.492   6.164
 5864POPC   GL274090   6.719  38.355   6.164
 5864POPC   C1A74091   6.618  38.429   6.464
 5864POPC   D2A74092   6.678  38.483   6.764
 5864POPC   C3A74093   6.677  38.442   7.064
 5864POPC   C4A74094   6.629  38.467   7.364
 5864POPC   C1B74095   6.849  38.300   6.464
 5864POPC   C2B74096   6.832  38.283   6.764
 5864POPC   C3B74097   6.805  38.287   7.064
 5864POPC   C4B74098   6.838  38.232   7.364
 5865POPC   NC374099  12.069  19.094   5.564
 5865POPC   PO474100  12.124  19.032   5.864
 5865POPC   GL174101  12.040  19.086   6.164
 5865POPC   GL274102  12.157  19.171   6.164
 5865POPC   C1A74103  12.070  19.065   6.464
 5865POPC   D2A74104  12.055  19.088   6.764
 5865POPC   C3A74105  12.055  19.077   7.064
 5865POPC   C4A74106  12.026  19.036   7.364
 5865POPC   C1B74107  12.194  19.256   6.464
 5865POPC   C2B74108  12.283  19.206   6.764
 5865POPC   C3B74109  12.277  19.252   7.064
 5865POPC   C4B74110  12.249  19.276   7.364
 5866POPC   NC374111  31.515   2.003   5.564
 5866POPC   PO474112  31.425   2.020   5.864
 5866POPC   GL174113  31.448   1.998   6.164
 5866POPC   GL274114  31.634   1.941   6.164
 5866POPC   C1A74115  31.519   1.969   6.464
 5866POPC   D2A74116  31.447   2.037   6.764
 5866POPC   C3A74117  31.501   2.026   7.064
 5866POPC   C4A74118  31.498   2.034   7.364
 5866POPC   C1B74119  31.716   1.852   6.464
 5866POPC   C2B74120  31.653   1.866   6.764
 5866POPC   C3B74121  31.691   1.915   7.064
 5866POPC   C4B74122  31.717   1.879   7.364
 5867POPC   NC374123  26.047  30.679   5.564
 5867POPC   PO474124  25.996  30.680   5.864
 5867POPC   GL174125  26.076  30.687   6.164
 5867POPC   GL274126  26.118  30.738   6.164
 5867POPC   C1A74127  26.058  30.666   6.464
 5867POPC   D2A74128  26.021  30.732   6.764
 5867POPC   C3A74129  26.035  30.703   7.064
 5867POPC   C4A74130  26.018  30.661   7.364
 5867POPC   C1B74131  26.227  30.829   6.464
 5867POPC   C2B74132  26.230  30.783   6.764
 5867POPC   C3B74133  26.215  30.840   7.064
 5867POPC   C4B74134  26.225  30.786   7.364
 5868POPC   NC374135  39.274  25.218   5.564
 5868POPC   PO474136  39.278  25.301   5.864
 5868POPC   GL174137  39.182  25.277   6.164
 5868POPC   GL274138  39.363  25.203   6.164
 5868POPC   C1A74139  39.212  25.289   6.464
 5868POPC   D2A74140  39.220  25.264   6.764
 5868POPC   C3A74141  39.204  25.305   7.064
 5868POPC   C4A74142  39.213  25.299   7.364
 5868POPC   C1B74143  39.427  25.159   6.464
 5868POPC   C2B74144  39.471  25.135   6.764
 5868POPC   C3B74145  39.419  25.137   7.064
 5868POPC   C4B74146  39.408  25.176   7.364
 5869POPC   NC374147   8.979  18.283   5.564
 5869POPC   PO474148   9.022  18.311   5.864
 5869POPC   GL174149   8.930  18.279   6.164
 5869POPC   GL274150   8.900  18.219   6.164
 5869POPC   C1A74151   8.949  18.250   6.464
 5869POPC   D2A74152   8.945  18.296   6.764
 5869POPC   C3A74153   8.943  18.276   7.064
 5869POPC   C4A74154   8.972  18.254   7.364
 5869POPC   C1B74155   8.825  18.076   6.464
 5869POPC   C2B74156   8.859  18.067   6.764
 5869POPC   C3B74157   8.854  18.057   7.064
 5869POPC   C4B74158   8.780  18.130   7.364
 5870POPC   NC374159  26.807  26.816   5.564
 5870POPC   PO474160  26.802  26.815   5.864
 5870POPC   GL174161  26.792  26.863   6.164
 5870POPC   GL274162  26.776  26.718   6.164
 5870POPC   C1A74163  26.794  26.783   6.464
 5870POPC   D2A74164  26.850  26.803   6.764
 5870POPC   C3A74165  26.818  26.800   7.064
 5870POPC   C4A74166  26.863  26.851   7.364
 5870POPC   C1B74167  26.801  26.608   6.464
 5870POPC   C2B74168  26.764  26.554   6.764
 5870POPC   C3B74169  26.758  26.584   7.064
 5870POPC   C4B74170  26.755  26.571   7.364
 5871POPC   NC374171  18.265  43.102   5.564
 5871POPC   PO474172  18.274  43.138   5.864
 5871POPC   GL174173  18.262  43.069   6.164
 5871POPC   GL274174  18.344  43.045   6.164
 5871POPC   C1A74175  18.255  43.062   6.464
 5871POPC   D2A74176  18.245  43.068   6.764
 5871POPC   C3A74177  18.247  43.151   7.064
 5871POPC   C4A74178  18.312  43.160   7.364
 5871POPC   C1B74179  18.458  42.939   6.464
 5871POPC   C2B74180  18.522  42.922   6.764
 5871POPC   C3B74181  18.443  43.011   7.064
 5871POPC   C4B74182  18.490  43.010   7.364
 5872POPC   NC374183  24.505  13.641   5.564
 5872POPC   PO474184  24.447  13.676   5.864
 5872POPC   GL174185  24.537  13.638   6.164
 5872POPC   GL274186  24.482  13.708   6.164
 5872POPC   C1A74187  24.447  13.599   6.464
 5872POPC   D2A74188  24.510  13.600   6.764
 5872POPC   C3A74189  24.448  13.661   7.064
 5872POPC   C4A74190  24.481  13.674   7.364
 5872POPC   C1B74191  24.475  13.839   6.464
 5872POPC   C2B74192  24.407  13.857   6.764
 5872POPC   C3B74193  24.383  13.906   7.064
 5872POPC   C4B74194  24.446  13.900   7.364
 5873POPC   NC374195  20.580  42.316   5.564
 5873POPC   PO474196  20.618  42.315   5.864
 5873POPC   GL174197  20.594  42.368   6.164
 5873POPC   GL274198  20.734  42.404   6.164
 5873POPC   C1A74199  20.572  42.363   6.464
 5873POPC   D2A74200  20.572  42.302   6.764
 5873POPC   C3A74201  20.644  42.357   7.064
 5873POPC   C4A74202  20.610  42.378   7.364
 5873POPC   C1B74203  20.817  42.426   6.464
 5873POPC   C2B74204  20.845  42.443   6.764
 5873POPC   C3B74205  20.827  42.358   7.064
 5873POPC   C4B74206  20.859  42.394   7.364
 5874POPC   NC374207   6.618  28.376   5.564
 5874POPC   PO474208   6.625  28.419   5.864
 5874POPC   GL174209   6.664  28.343   6.164
 5874POPC   GL274210   6.663  28.532   6.164
 5874POPC   C1A74211   6.610  28.383   6.464
 5874POPC   D2A74212   6.597  28.366   6.764
 5874POPC   C3A74213   6.691  28.386   7.064
 5874POPC   C4A74214   6.617  28.406   7.364
 5874POPC   C1B74215   6.665  28.646   6.464
 5874POPC   C2B74216   6.656  28.597   6.764
 5874POPC   C3B74217   6.679  28.611   7.064
 5874POPC   C4B74218   6.614  28.616   7.364
 5875POPC   NC374219  43.089  22.202   5.564
 5875POPC   PO474220  43.065  22.155   5.864
 5875POPC   GL174221  43.078  22.141   6.164
 5875POPC   GL274222  43.274  22.220   6.164
 5875POPC   C1A74223  43.134  22.162   6.464
 5875POPC   D2A74224  43.105  22.177   6.764
 5875POPC   C3A74225  43.062  22.206   7.064
 5875POPC   C4A74226  43.150  22.163   7.364
 5875POPC   C1B74227  43.393  22.240   6.464
 5875POPC   C2B74228  43.347  22.177   6.764
 5875POPC   C3B74229  43.317  22.211   7.064
 5875POPC   C4B74230  43.368  22.184   7.364
 5876POPC   NC374231   2.030  39.967   5.564
 5876POPC   PO474232   1.976  39.994   5.864
 5876POPC   GL174233   1.978  39.982   6.164
 5876POPC   GL274234   2.018  40.132   6.164
 5876POPC   C1A74235   1.957  40.038   6.464
 5876POPC   D2A74236   2.034  39.990   6.764
 5876POPC   C3A74237   1.963  40.010   7.064
 5876POPC   C4A74238   1.960  40.001   7.364
 5876POPC   C1B74239   2.023  40.216   6.464
 5876POPC   C2B74240   2.041  40.216   6.764
 5876POPC   C3B74241   2.080  40.276   7.064
 5876POPC   C4B74242   2.101  40.288   7.364
 5877POPC   NC374243  25.298  29.877   5.564
 5877POPC   PO474244  25.255  29.877   5.864
 5877POPC   GL174245  25.304  29.937   6.164
 5877POPC   GL274246  25.155  29.913   6.164
 5877POPC   C1A74247  25.303  29.918   6.464
 5877POPC   D2A74248  25.314  29.873   6.764
 5877POPC   C3A74249  25.303  29.914   7.064
 5877POPC   C4A74250  25.255  29.875   7.364
 5877POPC   C1B74251  25.052  29.908   6.464
 5877POPC   C2B74252  25.044  29.883   6.764
 5877POPC   C3B74253  25.060  29.894   7.064
 5877POPC   C4B74254  24.985  29.866   7.364
 5878POPC   NC374255  15.164  26.852   5.564
 5878POPC   PO474256  15.135  26.840   5.864
 5878POPC   GL174257  15.200  26.811   6.164
 5878POPC   GL274258  15.157  26.941   6.164
 5878POPC   C1A74259  15.198  26.781   6.464
 5878POPC   D2A74260  15.180  26.865   6.764
 5878POPC   C3A74261  15.183  26.854   7.064
 5878POPC   C4A74262  15.156  26.841   7.364
 5878POPC   C1B74263  15.130  27.092   6.464
 5878POPC   C2B74264  15.137  27.035   6.764
 5878POPC   C3B74265  15.104  27.008   7.064
 5878POPC   C4B74266  15.100  27.101   7.364
 5879POPC   NC374267  23.757  18.277   5.564
 5879POPC   PO474268  23.744  18.326   5.864
 5879POPC   GL174269  23.721  18.298   6.164
 5879POPC   GL274270  23.680  18.206   6.164
 5879POPC   C1A74271  23.761  18.289   6.464
 5879POPC   D2A74272  23.728  18.312   6.764
 5879POPC   C3A74273  23.693  18.286   7.064
 5879POPC   C4A74274  23.670  18.321   7.364
 5879POPC   C1B74275  23.517  18.048   6.464
 5879POPC   C2B74276  23.522  18.126   6.764
 5879POPC   C3B74277  23.527  18.129   7.064
 5879POPC   C4B74278  23.525  18.124   7.364
 5880POPC   NC374279   8.994   1.168   5.564
 5880POPC   PO474280   8.970   1.226   5.864
 5880POPC   GL174281   8.976   1.198   6.164
 5880POPC   GL274282   8.824   1.181   6.164
 5880POPC   C1A74283   8.990   1.186   6.464
 5880POPC   D2A74284   9.016   1.211   6.764
 5880POPC   C3A74285   9.016   1.218   7.064
 5880POPC   C4A74286   8.974   1.171   7.364
 5880POPC   C1B74287   8.817   1.039   6.464
 5880POPC   C2B74288   8.783   1.023   6.764
 5880POPC   C3B74289   8.822   1.093   7.064
 5880POPC   C4B74290   8.766   1.032   7.364
 5881POPC   NC374291  19.050   7.453   5.564
 5881POPC   PO474292  19.023   7.440   5.864
 5881POPC   GL174293  19.010   7.394   6.164
 5881POPC   GL274294  19.231   7.450   6.164
 5881POPC   C1A74295  19.036   7.432   6.464
 5881POPC   D2A74296  19.012   7.464   6.764
 5881POPC   C3A74297  19.039   7.399   7.064
 5881POPC   C4A74298  19.027   7.465   7.364
 5881POPC   C1B74299  19.318   7.358   6.464
 5881POPC   C2B74300  19.274   7.362   6.764
 5881POPC   C3B74301  19.335   7.398   7.064
 5881POPC   C4B74302  19.282   7.421   7.364
 5882POPC   NC374303  37.721   3.524   5.564
 5882POPC   PO474304  37.682   3.585   5.864
 5882POPC   GL174305  37.708   3.549   6.164
 5882POPC   GL274306  37.765   3.448   6.164
 5882POPC   C1A74307  37.651   3.544   6.464
 5882POPC   D2A74308  37.715   3.568   6.764
 5882POPC   C3A74309  37.660   3.575   7.064
 5882POPC   C4A74310  37.683   3.528   7.364
 5882POPC   C1B74311  37.838   3.335   6.464
 5882POPC   C2B74312  37.817   3.293   6.764
 5882POPC   C3B74313  37.816   3.309   7.064
 5882POPC   C4B74314  37.771   3.370   7.364
 5883POPC   NC374315   9.699  28.344   5.564
 5883POPC   PO474316   9.776  28.415   5.864
 5883POPC   GL174317   9.768  28.351   6.164
 5883POPC   GL274318   9.588  28.333   6.164
 5883POPC   C1A74319   9.786  28.395   6.464
 5883POPC   D2A74320   9.757  28.374   6.764
 5883POPC   C3A74321   9.727  28.319   7.064
 5883POPC   C4A74322   9.701  28.324   7.364
 5883POPC   C1B74323   9.455  28.344   6.464
 5883POPC   C2B74324   9.548  28.354   6.764
 5883POPC   C3B74325   9.548  28.366   7.064
 5883POPC   C4B74326   9.476  28.378   7.364
 5884POPC   NC374327   2.727  39.227   5.564
 5884POPC   PO474328   2.735  39.208   5.864
 5884POPC   GL174329   2.732  39.271   6.164
 5884POPC   GL274330   2.817  39.355   6.164
 5884POPC   C1A74331   2.795  39.222   6.464
 5884POPC   D2A74332   2.787  39.236   6.764
 5884POPC   C3A74333   2.753  39.193   7.064
 5884POPC   C4A74334   2.734  39.263   7.364
 5884POPC   C1B74335   2.833  39.469   6.464
 5884POPC   C2B74336   2.822  39.443   6.764
 5884POPC   C3B74337   2.833  39.486   7.064
 5884POPC   C4B74338   2.852  39.498   7.364
 5885POPC   NC374339  27.609  32.223   5.564
 5885POPC   PO474340  27.546  32.228   5.864
 5885POPC   GL174341  27.599  32.211   6.164
 5885POPC   GL274342  27.730  32.199   6.164
 5885POPC   C1A74343  27.570  32.204   6.464
 5885POPC   D2A74344  27.580  32.283   6.764
 5885POPC   C3A74345  27.622  32.282   7.064
 5885POPC   C4A74346  27.552  32.231   7.364
 5885POPC   C1B74347  27.814  32.061   6.464
 5885POPC   C2B74348  27.836  32.123   6.764
 5885POPC   C3B74349  27.784  32.148   7.064
 5885POPC   C4B74350  27.811  32.051   7.364
 5886POPC   NC374351   7.457  15.139   5.564
 5886POPC   PO474352   7.410  15.138   5.864
 5886POPC   GL174353   7.431  15.157   6.164
 5886POPC   GL274354   7.341  15.039   6.164
 5886POPC   C1A74355   7.416  15.225   6.464
 5886POPC   D2A74356   7.375  15.219   6.764
 5886POPC   C3A74357   7.395  15.188   7.064
 5886POPC   C4A74358   7.400  15.174   7.364
 5886POPC   C1B74359   7.363  14.915   6.464
 5886POPC   C2B74360   7.331  14.921   6.764
 5886POPC   C3B74361   7.337  14.939   7.064
 5886POPC   C4B74362   7.330  14.939   7.364
 5887POPC   NC374363  42.314  39.244   5.564
 5887POPC   PO474364  42.292  39.271   5.864
 5887POPC   GL174365  42.361  39.256   6.164
 5887POPC   GL274366  42.285  39.094   6.164
 5887POPC   C1A74367  42.293  39.273   6.464
 5887POPC   D2A74368  42.334  39.246   6.764
 5887POPC   C3A74369  42.373  39.195   7.064
 5887POPC   C4A74370  42.363  39.234   7.364
 5887POPC   C1B74371  42.268  39.005   6.464
 5887POPC   C2B74372  42.213  38.972   6.764
 5887POPC   C3B74373  42.204  39.019   7.064
 5887POPC   C4B74374  42.235  38.955   7.364
 5888POPC   NC374375   8.974  32.211   5.564
 5888POPC   PO474376   8.932  32.261   5.864
 5888POPC   GL174377   9.000  32.205   6.164
 5888POPC   GL274378   9.005  32.161   6.164
 5888POPC   C1A74379   8.989  32.291   6.464
 5888POPC   D2A74380   8.993  32.240   6.764
 5888POPC   C3A74381   8.934  32.253   7.064
 5888POPC   C4A74382   8.942  32.262   7.364
 5888POPC   C1B74383   9.028  32.034   6.464
 5888POPC   C2B74384   9.011  31.967   6.764
 5888POPC   C3B74385   9.052  32.029   7.064
 5888POPC   C4B74386   9.006  32.035   7.364
 5889POPC   NC374387  43.135  25.287   5.564
 5889POPC   PO474388  43.078  25.231   5.864
 5889POPC   GL174389  43.143  25.295   6.164
 5889POPC   GL274390  43.118  25.187   6.164
 5889POPC   C1A74391  43.115  25.300   6.464
 5889POPC   D2A74392  43.072  25.281   6.764
 5889POPC   C3A74393  43.063  25.271   7.064
 5889POPC   C4A74394  43.108  25.256   7.364
 5889POPC   C1B74395  43.199  25.004   6.464
 5889POPC   C2B74396  43.189  25.057   6.764
 5889POPC   C3B74397  43.114  25.030   7.064
 5889POPC   C4B74398  43.129  24.971   7.364
 5890POPC   NC374399  19.042  11.313   5.564
 5890POPC   PO474400  19.012  11.268   5.864
 5890POPC   GL174401  19.025  11.271   6.164
 5890POPC   GL274402  18.994  11.177   6.164
 5890POPC   C1A74403  19.096  11.317   6.464
 5890POPC   D2A74404  19.109  11.269   6.764
 5890POPC   C3A74405  19.095  11.323   7.064
 5890POPC   C4A74406  19.098  11.264   7.364
 5890POPC   C1B74407  18.872  11.083   6.464
 5890POPC   C2B74408  18.877  11.153   6.764
 5890POPC   C3B74409  18.851  11.107   7.064
 5890POPC   C4B74410  18.901  11.093   7.364
 5891POPC   NC374411  33.761  39.258   5.564
 5891POPC   PO474412  33.808  39.274   5.864
 5891POPC   GL174413  33.760  39.269   6.164
 5891POPC   GL274414  33.799  39.111   6.164
 5891POPC   C1A74415  33.798  39.255   6.464
 5891POPC   D2A74416  33.798  39.194   6.764
 5891POPC   C3A74417  33.759  39.230   7.064
 5891POPC   C4A74418  33.811  39.222   7.364
 5891POPC   C1B74419  33.746  38.934   6.464
 5891POPC   C2B74420  33.757  38.999   6.764
 5891POPC   C3B74421  33.738  38.948   7.064
 5891POPC   C4B74422  33.771  38.940   7.364
 5892POPC   NC374423  15.912   5.863   5.564
 5892POPC   PO474424  15.979   5.871   5.864
 5892POPC   GL174425  15.974   5.901   6.164
 5892POPC   GL274426  15.807   5.914   6.164
 5892POPC   C1A74427  15.921   5.859   6.464
 5892POPC   D2A74428  15.924   5.850   6.764
 5892POPC   C3A74429  15.930   5.843   7.064
 5892POPC   C4A74430  15.966   5.887   7.364
 5892POPC   C1B74431  15.698   5.951   6.464
 5892POPC   C2B74432  15.725   5.948   6.764
 5892POPC   C3B74433  15.747   5.935   7.064
 5892POPC   C4B74434  15.762   5.949   7.364
 5893POPC   NC374435  41.605   9.018   5.564
 5893POPC   PO474436  41.593   9.021   5.864
 5893POPC   GL174437  41.511   8.999   6.164
 5893POPC   GL274438  41.617   8.876   6.164
 5893POPC   C1A74439  41.539   8.976   6.464
 5893POPC   D2A74440  41.560   8.964   6.764
 5893POPC   C3A74441  41.546   8.925   7.064
 5893POPC   C4A74442  41.604   8.963   7.364
 5893POPC   C1B74443  41.615   8.731   6.464
 5893POPC   C2B74444  41.579   8.710   6.764
 5893POPC   C3B74445  41.568   8.734   7.064
 5893POPC   C4B74446  41.636   8.682   7.364
 5894POPC   NC374447  34.533  12.840   5.564
 5894POPC   PO474448  34.582  12.834   5.864
 5894POPC   GL174449  34.552  12.871   6.164
 5894POPC   GL274450  34.657  12.751   6.164
 5894POPC   C1A74451  34.599  12.852   6.464
 5894POPC   D2A74452  34.550  12.875   6.764
 5894POPC   C3A74453  34.558  12.866   7.064
 5894POPC   C4A74454  34.590  12.802   7.364
 5894POPC   C1B74455  34.728  12.576   6.464
 5894POPC   C2B74456  34.666  12.610   6.764
 5894POPC   C3B74457  34.685  12.579   7.064
 5894POPC   C4B74458  34.672  12.579   7.364
 5895POPC   NC374459  13.636  40.028   5.564
 5895POPC   PO474460  13.589  39.995   5.864
 5895POPC   GL174461  13.596  39.991   6.164
 5895POPC   GL274462  13.678  40.133   6.164
 5895POPC   C1A74463  13.607  39.971   6.464
 5895POPC   D2A74464  13.663  39.965   6.764
 5895POPC   C3A74465  13.618  39.981   7.064
 5895POPC   C4A74466  13.637  39.981   7.364
 5895POPC   C1B74467  13.778  40.221   6.464
 5895POPC   C2B74468  13.753  40.235   6.764
 5895POPC   C3B74469  13.777  40.233   7.064
 5895POPC   C4B74470  13.766  40.175   7.364
 5896POPC   NC374471  33.822  17.489   5.564
 5896POPC   PO474472  33.778  17.529   5.864
 5896POPC   GL174473  33.803  17.547   6.164
 5896POPC   GL274474  33.889  17.392   6.164
 5896POPC   C1A74475  33.798  17.527   6.464
 5896POPC   D2A74476  33.782  17.500   6.764
 5896POPC   C3A74477  33.806  17.488   7.064
 5896POPC   C4A74478  33.825  17.467   7.364
 5896POPC   C1B74479  33.959  17.314   6.464
 5896POPC   C2B74480  33.982  17.328   6.764
 5896POPC   C3B74481  34.002  17.332   7.064
 5896POPC   C4B74482  34.009  17.347   7.364
 5897POPC   NC374483  38.423  34.591   5.564
 5897POPC   PO474484  38.500  34.546   5.864
 5897POPC   GL174485  38.461  34.555   6.164
 5897POPC   GL274486  38.427  34.437   6.164
 5897POPC   C1A74487  38.502  34.535   6.464
 5897POPC   D2A74488  38.484  34.607   6.764
 5897POPC   C3A74489  38.493  34.598   7.064
 5897POPC   C4A74490  38.438  34.620   7.364
 5897POPC   C1B74491  38.344  34.310   6.464
 5897POPC   C2B74492  38.362  34.303   6.764
 5897POPC   C3B74493  38.337  34.379   7.064
 5897POPC   C4B74494  38.355  34.309   7.364
 5898POPC   NC374495   4.281  39.979   5.564
 5898POPC   PO474496   4.298  40.039   5.864
 5898POPC   GL174497   4.329  40.025   6.164
 5898POPC   GL274498   4.418  39.912   6.164
 5898POPC   C1A74499   4.288  40.031   6.464
 5898POPC   D2A74500   4.363  40.039   6.764
 5898POPC   C3A74501   4.326  39.957   7.064
 5898POPC   C4A74502   4.330  40.027   7.364
 5898POPC   C1B74503   4.508  39.836   6.464
 5898POPC   C2B74504   4.554  39.893   6.764
 5898POPC   C3B74505   4.531  39.879   7.064
 5898POPC   C4B74506   4.491  39.870   7.364
 5899POPC   NC374507  41.587  33.049   5.564
 5899POPC   PO474508  41.527  32.978   5.864
 5899POPC   GL174509  41.573  33.011   6.164
 5899POPC   GL274510  41.480  33.128   6.164
 5899POPC   C1A74511  41.509  33.013   6.464
 5899POPC   D2A74512  41.589  33.028   6.764
 5899POPC   C3A74513  41.589  33.064   7.064
 5899POPC   C4A74514  41.526  33.006   7.364
 5899POPC   C1B74515  41.379  33.167   6.464
 5899POPC   C2B74516  41.351  33.166   6.764
 5899POPC   C3B74517  41.381  33.142   7.064
 5899POPC   C4B74518  41.326  33.170   7.364
 5900POPC   NC374519  31.475  37.632   5.564
 5900POPC   PO474520  31.478  37.700   5.864
 5900POPC   GL174521  31.501  37.634   6.164
 5900POPC   GL274522  31.596  37.786   6.164
 5900POPC   C1A74523  31.464  37.676   6.464
 5900POPC   D2A74524  31.481  37.668   6.764
 5900POPC   C3A74525  31.517  37.722   7.064
 5900POPC   C4A74526  31.436  37.673   7.364
 5900POPC   C1B74527  31.680  37.895   6.464
 5900POPC   C2B74528  31.664  37.852   6.764
 5900POPC   C3B74529  31.663  37.890   7.064
 5900POPC   C4B74530  31.623  37.896   7.364
 5901POPC   NC374531  26.067   3.574   5.564
 5901POPC   PO474532  26.076   3.540   5.864
 5901POPC   GL174533  26.056   3.559   6.164
 5901POPC   GL274534  26.064   3.461   6.164
 5901POPC   C1A74535  26.059   3.500   6.464
 5901POPC   D2A74536  26.033   3.494   6.764
 5901POPC   C3A74537  26.008   3.504   7.064
 5901POPC   C4A74538  25.999   3.562   7.364
 5901POPC   C1B74539  26.093   3.318   6.464
 5901POPC   C2B74540  26.161   3.350   6.764
 5901POPC   C3B74541  26.178   3.355   7.064
 5901POPC   C4B74542  26.177   3.335   7.364
 5902POPC   NC374543  33.816  19.034   5.564
 5902POPC   PO474544  33.838  19.048   5.864
 5902POPC   GL174545  33.791  19.060   6.164
 5902POPC   GL274546  33.782  19.202   6.164
 5902POPC   C1A74547  33.831  19.083   6.464
 5902POPC   D2A74548  33.794  19.097   6.764
 5902POPC   C3A74549  33.788  19.080   7.064
 5902POPC   C4A74550  33.770  19.039   7.364
 5902POPC   C1B74551  33.844  19.339   6.464
 5902POPC   C2B74552  33.788  19.344   6.764
 5902POPC   C3B74553  33.802  19.318   7.064
 5902POPC   C4B74554  33.816  19.284   7.364
 5903POPC   NC374555  35.302  15.998   5.564
 5903POPC   PO474556  35.366  15.956   5.864
 5903POPC   GL174557  35.312  15.981   6.164
 5903POPC   GL274558  35.338  16.116   6.164
 5903POPC   C1A74559  35.374  15.965   6.464
 5903POPC   D2A74560  35.305  15.971   6.764
 5903POPC   C3A74561  35.318  15.929   7.064
 5903POPC   C4A74562  35.347  15.919   7.364
 5903POPC   C1B74563  35.449  16.200   6.464
 5903POPC   C2B74564  35.396  16.172   6.764
 5903POPC   C3B74565  35.385  16.243   7.064
 5903POPC   C4B74566  35.430  16.215   7.364
 5904POPC   NC374567  31.430   4.359   5.564
 5904POPC   PO474568  31.498   4.356   5.864
 5904POPC   GL174569  31.508   4.341   6.164
 5904POPC   GL274570  31.438   4.153   6.164
 5904POPC   C1A74571  31.437   4.346   6.464
 5904POPC   D2A74572  31.520   4.276   6.764
 5904POPC   C3A74573  31.512   4.361   7.064
 5904POPC   C4A74574  31.516   4.286   7.364
 5904POPC   C1B74575  31.399   4.070   6.464
 5904POPC   C2B74576  31.396   4.095   6.764
 5904POPC   C3B74577  31.420   4.032   7.064
 5904POPC   C4B74578  31.361   4.104   7.364
 5905POPC   NC374579  34.613  26.824   5.564
 5905POPC   PO474580  34.540  26.772   5.864
 5905POPC   GL174581  34.543  26.808   6.164
 5905POPC   GL274582  34.612  26.673   6.164
 5905POPC   C1A74583  34.620  26.861   6.464
 5905POPC   D2A74584  34.576  26.793   6.764
 5905POPC   C3A74585  34.617  26.811   7.064
 5905POPC   C4A74586  34.579  26.835   7.364
 5905POPC   C1B74587  34.678  26.573   6.464
 5905POPC   C2B74588  34.668  26.571   6.764
 5905POPC   C3B74589  34.737  26.566   7.064
 5905POPC   C4B74590  34.694  26.561   7.364
 5906POPC   NC374591   9.729  32.233   5.564
 5906POPC   PO474592   9.791  32.261   5.864
 5906POPC   GL174593   9.724  32.236   6.164
 5906POPC   GL274594   9.811  32.351   6.164
 5906POPC   C1A74595   9.791  32.281   6.464
 5906POPC   D2A74596   9.724  32.294   6.764
 5906POPC   C3A74597   9.700  32.215   7.064
 5906POPC   C4A74598   9.752  32.236   7.364
 5906POPC   C1B74599   9.950  32.443   6.464
 5906POPC   C2B74600   9.927  32.396   6.764
 5906POPC   C3B74601   9.957  32.429   7.064
 5906POPC   C4B74602   9.951  32.383   7.364
 5907POPC   NC374603  41.513  38.467   5.564
 5907POPC   PO474604  41.589  38.410   5.864
 5907POPC   GL174605  41.560  38.460   6.164
 5907POPC   GL274606  41.582  38.335   6.164
 5907POPC   C1A74607  41.559  38.491   6.464
 5907POPC   D2A74608  41.570  38.473   6.764
 5907POPC   C3A74609  41.556  38.484   7.064
 5907POPC   C4A74610  41.592  38.470   7.364
 5907POPC   C1B74611  41.572  38.242   6.464
 5907POPC   C2B74612  41.559  38.232   6.764
 5907POPC   C3B74613  41.492  38.229   7.064
 5907POPC   C4B74614  41.510  38.230   7.364
 5908POPC   NC374615  15.139   8.242   5.564
 5908POPC   PO474616  15.223   8.204   5.864
 5908POPC   GL174617  15.222   8.183   6.164
 5908POPC   GL274618  15.072   8.295   6.164
 5908POPC   C1A74619  15.151   8.187   6.464
 5908POPC   D2A74620  15.187   8.240   6.764
 5908POPC   C3A74621  15.179   8.153   7.064
 5908POPC   C4A74622  15.196   8.185   7.364
 5908POPC   C1B74623  14.997   8.382   6.464
 5908POPC   C2B74624  14.938   8.367   6.764
 5908POPC   C3B74625  14.952   8.330   7.064
 5908POPC   C4B74626  14.969   8.349   7.364
 5909POPC   NC374627   9.758  15.974   5.564
 5909POPC   PO474628   9.708  15.971   5.864
 5909POPC   GL174629   9.796  15.962   6.164
 5909POPC   GL274630   9.737  15.848   6.164
 5909POPC   C1A74631   9.708  15.963   6.464
 5909POPC   D2A74632   9.701  15.949   6.764
 5909POPC   C3A74633   9.792  15.995   7.064
 5909POPC   C4A74634   9.707  15.987   7.364
 5909POPC   C1B74635   9.624  15.708   6.464
 5909POPC   C2B74636   9.623  15.692   6.764
 5909POPC   C3B74637   9.648  15.699   7.064
 5909POPC   C4B74638   9.618  15.702   7.364
 5910POPC   NC374639  43.142  24.454   5.564
 5910POPC   PO474640  43.157  24.481   5.864
 5910POPC   GL174641  43.081  24.520   6.164
 5910POPC   GL274642  43.145  24.411   6.164
 5910POPC   C1A74643  43.150  24.512   6.464
 5910POPC   D2A74644  43.095  24.484   6.764
 5910POPC   C3A74645  43.141  24.493   7.064
 5910POPC   C4A74646  43.082  24.529   7.364
 5910POPC   C1B74647  43.073  24.211   6.464
 5910POPC   C2B74648  43.074  24.277   6.764
 5910POPC   C3B74649  43.126  24.213   7.064
 5910POPC   C4B74650  43.102  24.225   7.364
 5911POPC   NC374651  30.729  41.563   5.564
 5911POPC   PO474652  30.727  41.519   5.864
 5911POPC   GL174653  30.732  41.517   6.164
 5911POPC   GL274654  30.737  41.410   6.164
 5911POPC   C1A74655  30.679  41.576   6.464
 5911POPC   D2A74656  30.653  41.559   6.764
 5911POPC   C3A74657  30.671  41.547   7.064
 5911POPC   C4A74658  30.648  41.602   7.364
 5911POPC   C1B74659  30.685  41.266   6.464
 5911POPC   C2B74660  30.702  41.314   6.764
 5911POPC   C3B74661  30.727  41.324   7.064
 5911POPC   C4B74662  30.700  41.286   7.364
 5912POPC   NC374663  37.656  15.227   5.564
 5912POPC   PO474664  37.667  15.222   5.864
 5912POPC   GL174665  37.663  15.215   6.164
 5912POPC   GL274666  37.610  15.336   6.164
 5912POPC   C1A74667  37.632  15.211   6.464
 5912POPC   D2A74668  37.718  15.167   6.764
 5912POPC   C3A74669  37.641  15.170   7.064
 5912POPC   C4A74670  37.637  15.224   7.364
 5912POPC   C1B74671  37.639  15.422   6.464
 5912POPC   C2B74672  37.647  15.413   6.764
 5912POPC   C3B74673  37.583  15.378   7.064
 5912POPC   C4B74674  37.581  15.443   7.364
 5913POPC   NC374675  42.340  36.914   5.564
 5913POPC   PO474676  42.361  36.901   5.864
 5913POPC   GL174677  42.292  36.884   6.164
 5913POPC   GL274678  42.462  36.982   6.164
 5913POPC   C1A74679  42.369  36.869   6.464
 5913POPC   D2A74680  42.305  36.854   6.764
 5913POPC   C3A74681  42.359  36.935   7.064
 5913POPC   C4A74682  42.305  36.916   7.364
 5913POPC   C1B74683  42.578  37.007   6.464
 5913POPC   C2B74684  42.550  36.970   6.764
 5913POPC   C3B74685  42.528  36.942   7.064
 5913POPC   C4B74686  42.558  37.020   7.364
 5914POPC   NC374687  15.932  23.668   5.564
 5914POPC   PO474688  15.953  23.721   5.864
 5914POPC   GL174689  15.937  23.675   6.164
 5914POPC   GL274690  16.042  23.744   6.164
 5914POPC   C1A74691  15.986  23.679   6.464
 5914POPC   D2A74692  15.930  23.690   6.764
 5914POPC   C3A74693  15.977  23.666   7.064
 5914POPC   C4A74694  15.987  23.754   7.364
 5914POPC   C1B74695  16.201  23.762   6.464
 5914POPC   C2B74696  16.208  23.766   6.764
 5914POPC   C3B74697  16.241  23.773   7.064
 5914POPC   C4B74698  16.175  23.772   7.364
 5915POPC   NC374699  41.541   5.058   5.564
 5915POPC   PO474700  41.544   5.053   5.864
 5915POPC   GL174701  41.542   5.079   6.164
 5915POPC   GL274702  41.566   5.185   6.164
 5915POPC   C1A74703  41.597   5.132   6.464
 5915POPC   D2A74704  41.608   5.055   6.764
 5915POPC   C3A74705  41.527   5.057   7.064
 5915POPC   C4A74706  41.549   5.107   7.364
 5915POPC   C1B74707  41.508   5.321   6.464
 5915POPC   C2B74708  41.567   5.315   6.764
 5915POPC   C3B74709  41.580   5.382   7.064
 5915POPC   C4B74710  41.487   5.384   7.364
 5916POPC   NC374711   7.397  41.529   5.564
 5916POPC   PO474712   7.438  41.557   5.864
 5916POPC   GL174713   7.452  41.538   6.164
 5916POPC   GL274714   7.492  41.682   6.164
 5916POPC   C1A74715   7.417  41.548   6.464
 5916POPC   D2A74716   7.389  41.564   6.764
 5916POPC   C3A74717   7.445  41.517   7.064
 5916POPC   C4A74718   7.443  41.571   7.364
 5916POPC   C1B74719   7.663  41.756   6.464
 5916POPC   C2B74720   7.575  41.713   6.764
 5916POPC   C3B74721   7.650  41.693   7.064
 5916POPC   C4B74722   7.652  41.720   7.364
 5917POPC   NC374723  12.116  35.326   5.564
 5917POPC   PO474724  12.124  35.334   5.864
 5917POPC   GL174725  12.109  35.361   6.164
 5917POPC   GL274726  12.088  35.499   6.164
 5917POPC   C1A74727  12.057  35.384   6.464
 5917POPC   D2A74728  12.118  35.361   6.764
 5917POPC   C3A74729  12.033  35.313   7.064
 5917POPC   C4A74730  12.087  35.316   7.364
 5917POPC   C1B74731  12.183  35.630   6.464
 5917POPC   C2B74732  12.135  35.592   6.764
 5917POPC   C3B74733  12.137  35.558   7.064
 5917POPC   C4B74734  12.094  35.634   7.364
 5918POPC   NC374735  42.373   5.857   5.564
 5918POPC   PO474736  42.292   5.857   5.864
 5918POPC   GL174737  42.312   5.895   6.164
 5918POPC   GL274738  42.234   5.873   6.164
 5918POPC   C1A74739  42.344   5.853   6.464
 5918POPC   D2A74740  42.340   5.874   6.764
 5918POPC   C3A74741  42.289   5.859   7.064
 5918POPC   C4A74742  42.342   5.822   7.364
 5918POPC   C1B74743  42.054   5.959   6.464
 5918POPC   C2B74744  42.071   5.940   6.764
 5918POPC   C3B74745  42.118   5.918   7.064
 5918POPC   C4B74746  42.082   5.919   7.364
 5919POPC   NC374747  20.655  16.688   5.564
 5919POPC   PO474748  20.649  16.761   5.864
 5919POPC   GL174749  20.616  16.744   6.164
 5919POPC   GL274750  20.533  16.781   6.164
 5919POPC   C1A74751  20.659  16.745   6.464
 5919POPC   D2A74752  20.613  16.752   6.764
 5919POPC   C3A74753  20.626  16.773   7.064
 5919POPC   C4A74754  20.570  16.718   7.364
 5919POPC   C1B74755  20.421  16.797   6.464
 5919POPC   C2B74756  20.341  16.790   6.764
 5919POPC   C3B74757  20.363  16.777   7.064
 5919POPC   C4B74758  20.374  16.785   7.364
 5920POPC   NC374759  26.864   2.786   5.564
 5920POPC   PO474760  26.834   2.737   5.864
 5920POPC   GL174761  26.855   2.804   6.164
 5920POPC   GL274762  26.683   2.789   6.164
 5920POPC   C1A74763  26.806   2.788   6.464
 5920POPC   D2A74764  26.865   2.794   6.764
 5920POPC   C3A74765  26.779   2.791   7.064
 5920POPC   C4A74766  26.784   2.730   7.364
 5920POPC   C1B74767  26.574   2.806   6.464
 5920POPC   C2B74768  26.545   2.789   6.764
 5920POPC   C3B74769  26.586   2.851   7.064
 5920POPC   C4B74770  26.538   2.824   7.364
 5921POPC   NC374771  33.046  44.673   5.564
 5921POPC   PO474772  33.007  44.699   5.864
 5921POPC   GL174773  33.064  44.644   6.164
 5921POPC   GL274774  32.905  44.683   6.164
 5921POPC   C1A74775  33.002  44.642   6.464
 5921POPC   D2A74776  32.989  44.654   6.764
 5921POPC   C3A74777  33.025  44.677   7.064
 5921POPC   C4A74778  33.066  44.660   7.364
 5921POPC   C1B74779  32.795  44.727   6.464
 5921POPC   C2B74780  32.778  44.695   6.764
 5921POPC   C3B74781  32.818  44.763   7.064
 5921POPC   C4B74782  32.752  44.707   7.364
 5922POPC   NC374783  35.340  40.786   5.564
 5922POPC   PO474784  35.326  40.822   5.864
 5922POPC   GL174785  35.372  40.734   6.164
 5922POPC   GL274786  35.205  40.712   6.164
 5922POPC   C1A74787  35.305  40.767   6.464
 5922POPC   D2A74788  35.390  40.741   6.764
 5922POPC   C3A74789  35.363  40.799   7.064
 5922POPC   C4A74790  35.318  40.774   7.364
 5922POPC   C1B74791  35.151  40.696   6.464
 5922POPC   C2B74792  35.161  40.662   6.764
 5922POPC   C3B74793  35.080  40.679   7.064
 5922POPC   C4B74794  35.173  40.674   7.364
 5923POPC   NC374795   0.407  19.872   5.564
 5923POPC   PO474796   0.397  19.790   5.864
 5923POPC   GL174797   0.394  19.846   6.164
 5923POPC   GL274798   0.288  19.779   6.164
 5923POPC   C1A74799   0.452  19.868   6.464
 5923POPC   D2A74800   0.447  19.871   6.764
 5923POPC   C3A74801   0.477  19.862   7.064
 5923POPC   C4A74802   0.395  19.836   7.364
 5923POPC   C1B74803   0.216  19.808   6.464
 5923POPC   C2B74804   0.217  19.824   6.764
 5923POPC   C3B74805   0.225  19.773   7.064
 5923POPC   C4B74806   0.224  19.837   7.364
 5924POPC   NC374807  34.549  27.624   5.564
 5924POPC   PO474808  34.529  27.571   5.864
 5924POPC   GL174809  34.602  27.613   6.164
 5924POPC   GL274810  34.588  27.727   6.164
 5924POPC   C1A74811  34.553  27.615   6.464
 5924POPC   D2A74812  34.579  27.630   6.764
 5924POPC   C3A74813  34.624  27.573   7.064
 5924POPC   C4A74814  34.610  27.561   7.364
 5924POPC   C1B74815  34.678  27.837   6.464
 5924POPC   C2B74816  34.708  27.864   6.764
 5924POPC   C3B74817  34.656  27.816   7.064
 5924POPC   C4B74818  34.689  27.824   7.364
 5925POPC   NC374819  37.699   1.947   5.564
 5925POPC   PO474820  37.693   2.038   5.864
 5925POPC   GL174821  37.641   1.975   6.164
 5925POPC   GL274822  37.540   2.010   6.164
 5925POPC   C1A74823  37.659   2.023   6.464
 5925POPC   D2A74824  37.728   1.958   6.764
 5925POPC   C3A74825  37.640   2.009   7.064
 5925POPC   C4A74826  37.676   1.997   7.364
 5925POPC   C1B74827  37.426   2.012   6.464
 5925POPC   C2B74828  37.424   2.021   6.764
 5925POPC   C3B74829  37.414   2.062   7.064
 5925POPC   C4B74830  37.457   2.072   7.364
 5926POPC   NC374831  34.580  28.354   5.564
 5926POPC   PO474832  34.580  28.357   5.864
 5926POPC   GL174833  34.574  28.336   6.164
 5926POPC   GL274834  34.558  28.250   6.164
 5926POPC   C1A74835  34.563  28.390   6.464
 5926POPC   D2A74836  34.535  28.379   6.764
 5926POPC   C3A74837  34.595  28.366   7.064
 5926POPC   C4A74838  34.566  28.397   7.364
 5926POPC   C1B74839  34.622  28.143   6.464
 5926POPC   C2B74840  34.590  28.088   6.764
 5926POPC   C3B74841  34.626  28.137   7.064
 5926POPC   C4B74842  34.666  28.143   7.364
 5927POPC   NC374843  15.920  19.088   5.564
 5927POPC   PO474844  15.922  19.026   5.864
 5927POPC   GL174845  15.951  19.095   6.164
 5927POPC   GL274846  16.112  19.121   6.164
 5927POPC   C1A74847  15.961  19.050   6.464
 5927POPC   D2A74848  15.991  19.055   6.764
 5927POPC   C3A74849  15.915  19.106   7.064
 5927POPC   C4A74850  15.927  19.021   7.364
 5927POPC   C1B74851  16.154  19.172   6.464
 5927POPC   C2B74852  16.232  19.120   6.764
 5927POPC   C3B74853  16.176  19.096   7.064
 5927POPC   C4B74854  16.230  19.135   7.364
 5928POPC   NC374855  20.632  44.663   5.564
 5928POPC   PO474856  20.572  44.694   5.864
 5928POPC   GL174857  20.576  44.706   6.164
 5928POPC   GL274858  20.737  44.575   6.164
 5928POPC   C1A74859  20.638  44.622   6.464
 5928POPC   D2A74860  20.647  44.700   6.764
 5928POPC   C3A74861  20.615  44.657   7.064
 5928POPC   C4A74862  20.562  44.688   7.364
 5928POPC   C1B74863  20.771  44.455   6.464
 5928POPC   C2B74864  20.765  44.459   6.764
 5928POPC   C3B74865  20.792  44.490   7.064
 5928POPC   C4B74866  20.790  44.489   7.364
 5929POPC   NC374867  33.040  17.542   5.564
 5929POPC   PO474868  33.073  17.478   5.864
 5929POPC   GL174869  33.038  17.508   6.164
 5929POPC   GL274870  33.119  17.543   6.164
 5929POPC   C1A74871  33.023  17.534   6.464
 5929POPC   D2A74872  33.060  17.553   6.764
 5929POPC   C3A74873  33.013  17.507   7.064
 5929POPC   C4A74874  33.008  17.480   7.364
 5929POPC   C1B74875  33.234  17.482   6.464
 5929POPC   C2B74876  33.225  17.517   6.764
 5929POPC   C3B74877  33.255  17.551   7.064
 5929POPC   C4B74878  33.293  17.483   7.364
 5930POPC   NC374879  12.067  43.892   5.564
 5930POPC   PO474880  12.041  43.867   5.864
 5930POPC   GL174881  12.087  43.896   6.164
 5930POPC   GL274882  12.121  43.746   6.164
 5930POPC   C1A74883  12.120  43.890   6.464
 5930POPC   D2A74884  12.108  43.838   6.764
 5930POPC   C3A74885  12.032  43.934   7.064
 5930POPC   C4A74886  12.068  43.860   7.364
 5930POPC   C1B74887  12.049  43.599   6.464
 5930POPC   C2B74888  12.045  43.607   6.764
 5930POPC   C3B74889  12.127  43.658   7.064
 5930POPC   C4B74890  12.065  43.669   7.364
 5931POPC   NC374891  36.883   5.123   5.564
 5931POPC   PO474892  36.927   5.097   5.864
 5931POPC   GL174893  36.875   5.089   6.164
 5931POPC   GL274894  36.975   5.151   6.164
 5931POPC   C1A74895  36.944   5.089   6.464
 5931POPC   D2A74896  36.937   5.083   6.764
 5931POPC   C3A74897  36.867   5.082   7.064
 5931POPC   C4A74898  36.896   5.090   7.364
 5931POPC   C1B74899  37.118   5.136   6.464
 5931POPC   C2B74900  37.103   5.208   6.764
 5931POPC   C3B74901  37.165   5.180   7.064
 5931POPC   C4B74902  37.147   5.164   7.364
 5932POPC   NC374903  26.072  10.525   5.564
 5932POPC   PO474904  26.014  10.547   5.864
 5932POPC   GL174905  26.024  10.525   6.164
 5932POPC   GL274906  25.943  10.422   6.164
 5932POPC   C1A74907  26.087  10.509   6.464
 5932POPC   D2A74908  26.067  10.474   6.764
 5932POPC   C3A74909  26.088  10.520   7.064
 5932POPC   C4A74910  26.052  10.509   7.364
 5932POPC   C1B74911  25.826  10.430   6.464
 5932POPC   C2B74912  25.827  10.366   6.764
 5932POPC   C3B74913  25.792  10.418   7.064
 5932POPC   C4B74914  25.866  10.376   7.364
 5933POPC   NC374915   3.552  40.040   5.564
 5933POPC   PO474916   3.533  40.006   5.864
 5933POPC   GL174917   3.562  39.972   6.164
 5933POPC   GL274918   3.711  40.032   6.164
 5933POPC   C1A74919   3.543  40.021   6.464
 5933POPC   D2A74920   3.524  39.959   6.764
 5933POPC   C3A74921   3.498  40.027   7.064
 5933POPC   C4A74922   3.561  40.046   7.364
 5933POPC   C1B74923   3.830  39.976   6.464
 5933POPC   C2B74924   3.775  40.003   6.764
 5933POPC   C3B74925   3.804  39.976   7.064
 5933POPC   C4B74926   3.773  39.997   7.364
 5934POPC   NC374927   3.503  32.269   5.564
 5934POPC   PO474928   3.529  32.242   5.864
 5934POPC   GL174929   3.568  32.199   6.164
 5934POPC   GL274930   3.460  32.219   6.164
 5934POPC   C1A74931   3.565  32.208   6.464
 5934POPC   D2A74932   3.556  32.234   6.764
 5934POPC   C3A74933   3.574  32.249   7.064
 5934POPC   C4A74934   3.578  32.280   7.364
 5934POPC   C1B74935   3.289  32.115   6.464
 5934POPC   C2B74936   3.308  32.155   6.764
 5934POPC   C3B74937   3.357  32.100   7.064
 5934POPC   C4B74938   3.305  32.125   7.364
 5935POPC   NC374939   4.303  30.698   5.564
 5935POPC   PO474940   4.275  30.704   5.864
 5935POPC   GL174941   4.308  30.648   6.164
 5935POPC   GL274942   4.277  30.564   6.164
 5935POPC   C1A74943   4.314  30.726   6.464
 5935POPC   D2A74944   4.315  30.696   6.764
 5935POPC   C3A74945   4.320  30.698   7.064
 5935POPC   C4A74946   4.336  30.709   7.364
 5935POPC   C1B74947   4.288  30.481   6.464
 5935POPC   C2B74948   4.217  30.447   6.764
 5935POPC   C3B74949   4.203  30.444   7.064
 5935POPC   C4B74950   4.275  30.419   7.364
 5936POPC   NC374951  21.426  24.518   5.564
 5936POPC   PO474952  21.436  24.457   5.864
 5936POPC   GL174953  21.435  24.506   6.164
 5936POPC   GL274954  21.427  24.594   6.164
 5936POPC   C1A74955  21.365  24.467   6.464
 5936POPC   D2A74956  21.351  24.471   6.764
 5936POPC   C3A74957  21.339  24.504   7.064
 5936POPC   C4A74958  21.393  24.495   7.364
 5936POPC   C1B74959  21.516  24.727   6.464
 5936POPC   C2B74960  21.534  24.663   6.764
 5936POPC   C3B74961  21.580  24.638   7.064
 5936POPC   C4B74962  21.510  24.692   7.364
 5937POPC   NC374963   9.757  40.794   5.564
 5937POPC   PO474964   9.756  40.735   5.864
 5937POPC   GL174965   9.765  40.832   6.164
 5937POPC   GL274966   9.695  40.629   6.164
 5937POPC   C1A74967   9.739  40.734   6.464
 5937POPC   D2A74968   9.701  40.737   6.764
 5937POPC   C3A74969   9.708  40.825   7.064
 5937POPC   C4A74970   9.749  40.745   7.364
 5937POPC   C1B74971   9.615  40.538   6.464
 5937POPC   C2B74972   9.618  40.517   6.764
 5937POPC   C3B74973   9.647  40.585   7.064
 5937POPC   C4B74974   9.697  40.545   7.364
 5938POPC   NC374975  36.889   2.756   5.564
 5938POPC   PO474976  36.911   2.769   5.864
 5938POPC   GL174977  36.908   2.793   6.164
 5938POPC   GL274978  36.931   2.624   6.164
 5938POPC   C1A74979  36.895   2.800   6.464
 5938POPC   D2A74980  36.941   2.798   6.764
 5938POPC   C3A74981  36.938   2.806   7.064
 5938POPC   C4A74982  36.943   2.796   7.364
 5938POPC   C1B74983  37.031   2.584   6.464
 5938POPC   C2B74984  36.997   2.567   6.764
 5938POPC   C3B74985  37.054   2.500   7.064
 5938POPC   C4B74986  37.010   2.493   7.364
 5939POPC   NC374987   6.601  22.148   5.564
 5939POPC   PO474988   6.651  22.205   5.864
 5939POPC   GL174989   6.685  22.130   6.164
 5939POPC   GL274990   6.694  22.309   6.164
 5939POPC   C1A74991   6.598  22.145   6.464
 5939POPC   D2A74992   6.665  22.154   6.764
 5939POPC   C3A74993   6.610  22.173   7.064
 5939POPC   C4A74994   6.687  22.189   7.364
 5939POPC   C1B74995   6.807  22.366   6.464
 5939POPC   C2B74996   6.797  22.398   6.764
 5939POPC   C3B74997   6.740  22.364   7.064
 5939POPC   C4B74998   6.749  22.403   7.364
 5940POPC   NC374999  23.677  43.148   5.564
 5940POPC   PO475000  23.722  43.070   5.864
 5940POPC   GL175001  23.763  43.126   6.164
 5940POPC   GL275002  23.792  43.136   6.164
 5940POPC   C1A75003  23.699  43.130   6.464
 5940POPC   D2A75004  23.685  43.142   6.764
 5940POPC   C3A75005  23.744  43.152   7.064
 5940POPC   C4A75006  23.762  43.074   7.364
 5940POPC   C1B75007  23.924  43.237   6.464
 5940POPC   C2B75008  23.895  43.274   6.764
 5940POPC   C3B75009  23.912  43.286   7.064
 5940POPC   C4B75010  23.908  43.280   7.364
 5941POPC   NC375011   8.958   5.050   5.564
 5941POPC   PO475012   9.013   5.053   5.864
 5941POPC   GL175013   8.946   5.131   6.164
 5941POPC   GL275014   8.903   5.242   6.164
 5941POPC   C1A75015   8.925   5.088   6.464
 5941POPC   D2A75016   8.953   5.102   6.764
 5941POPC   C3A75017   8.925   5.061   7.064
 5941POPC   C4A75018   8.930   5.097   7.364
 5941POPC   C1B75019   8.910   5.329   6.464
 5941POPC   C2B75020   8.833   5.308   6.764
 5941POPC   C3B75021   8.826   5.278   7.064
 5941POPC   C4B75022   8.825   5.282   7.364
 5942POPC   NC375023  26.864   7.383   5.564
 5942POPC   PO475024  26.841   7.388   5.864
 5942POPC   GL175025  26.773   7.387   6.164
 5942POPC   GL275026  26.810   7.541   6.164
 5942POPC   C1A75027  26.835   7.379   6.464
 5942POPC   D2A75028  26.857   7.388   6.764
 5942POPC   C3A75029  26.844   7.427   7.064
 5942POPC   C4A75030  26.829   7.445   7.364
 5942POPC   C1B75031  26.819   7.647   6.464
 5942POPC   C2B75032  26.822   7.710   6.764
 5942POPC   C3B75033  26.778   7.701   7.064
 5942POPC   C4B75034  26.771   7.661   7.364
 5943POPC   NC375035   4.328  21.427   5.564
 5943POPC   PO475036   4.364  21.379   5.864
 5943POPC   GL175037   4.299  21.375   6.164
 5943POPC   GL275038   4.423  21.307   6.164
 5943POPC   C1A75039   4.286  21.362   6.464
 5943POPC   D2A75040   4.360  21.402   6.764
 5943POPC   C3A75041   4.280  21.423   7.064
 5943POPC   C4A75042   4.328  21.427   7.364
 5943POPC   C1B75043   4.410  21.173   6.464
 5943POPC   C2B75044   4.413  21.217   6.764
 5943POPC   C3B75045   4.472  21.157   7.064
 5943POPC   C4B75046   4.442  21.179   7.364
 5944POPC   NC375047  33.792  15.929   5.564
 5944POPC   PO475048  33.760  15.925   5.864
 5944POPC   GL175049  33.798  15.970   6.164
 5944POPC   GL275050  33.889  15.929   6.164
 5944POPC   C1A75051  33.822  15.941   6.464
 5944POPC   D2A75052  33.835  15.987   6.764
 5944POPC   C3A75053  33.809  16.001   7.064
 5944POPC   C4A75054  33.775  15.921   7.364
 5944POPC   C1B75055  34.028  15.926   6.464
 5944POPC   C2B75056  34.048  15.939   6.764
 5944POPC   C3B75057  34.017  15.940   7.064
 5944POPC   C4B75058  34.008  15.912   7.364
 5945POPC   NC375059  37.652   2.775   5.564
 5945POPC   PO475060  37.697   2.786   5.864
 5945POPC   GL175061  37.640   2.814   6.164
 5945POPC   GL275062  37.604   2.859   6.164
 5945POPC   C1A75063  37.677   2.721   6.464
 5945POPC   D2A75064  37.701   2.730   6.764
 5945POPC   C3A75065  37.666   2.809   7.064
 5945POPC   C4A75066  37.649   2.742   7.364
 5945POPC   C1B75067  37.496   2.939   6.464
 5945POPC   C2B75068  37.549   2.933   6.764
 5945POPC   C3B75069  37.530   2.968   7.064
 5945POPC   C4B75070  37.562   2.952   7.364
 5946POPC   NC375071  43.150  27.554   5.564
 5946POPC   PO475072  43.123  27.599   5.864
 5946POPC   GL175073  43.122  27.606   6.164
 5946POPC   GL275074  43.204  27.472   6.164
 5946POPC   C1A75075  43.121  27.556   6.464
 5946POPC   D2A75076  43.086  27.580   6.764
 5946POPC   C3A75077  43.157  27.563   7.064
 5946POPC   C4A75078  43.144  27.549   7.364
 5946POPC   C1B75079  43.230  27.413   6.464
 5946POPC   C2B75080  43.195  27.379   6.764
 5946POPC   C3B75081  43.273  27.424   7.064
 5946POPC   C4B75082  43.215  27.331   7.364
 5947POPC   NC375083  12.110  10.486   5.564
 5947POPC   PO475084  12.088  10.525   5.864
 5947POPC   GL175085  12.063  10.497   6.164
 5947POPC   GL275086  12.148  10.463   6.164
 5947POPC   C1A75087  12.107  10.549   6.464
 5947POPC   D2A75088  12.075  10.559   6.764
 5947POPC   C3A75089  12.056  10.568   7.064
 5947POPC   C4A75090  12.068  10.499   7.364
 5947POPC   C1B75091  12.298  10.467   6.464
 5947POPC   C2B75092  12.284  10.383   6.764
 5947POPC   C3B75093  12.313  10.401   7.064
 5947POPC   C4B75094  12.272  10.410   7.364
 5948POPC   NC375095  16.768  19.857   5.564
 5948POPC   PO475096  16.745  19.837   5.864
 5948POPC   GL175097  16.698  19.867   6.164
 5948POPC   GL275098  16.770  19.718   6.164
 5948POPC   C1A75099  16.691  19.868   6.464
 5948POPC   D2A75100  16.718  19.805   6.764
 5948POPC   C3A75101  16.742  19.867   7.064
 5948POPC   C4A75102  16.689  19.854   7.364
 5948POPC   C1B75103  16.809  19.599   6.464
 5948POPC   C2B75104  16.784  19.561   6.764
 5948POPC   C3B75105  16.807  19.652   7.064
 5948POPC   C4B75106  16.811  19.631   7.364
 5949POPC   NC375107   3.523   7.400   5.564
 5949POPC   PO475108   3.543   7.422   5.864
 5949POPC   GL175109   3.504   7.459   6.164
 5949POPC   GL275110   3.638   7.405   6.164
 5949POPC   C1A75111   3.499   7.404   6.464
 5949POPC   D2A75112   3.518   7.377   6.764
 5949POPC   C3A75113   3.586   7.436   7.064
 5949POPC   C4A75114   3.543   7.414   7.364
 5949POPC   C1B75115   3.750   7.387   6.464
 5949POPC   C2B75116   3.777   7.377   6.764
 5949POPC   C3B75117   3.751   7.402   7.064
 5949POPC   C4B75118   3.812   7.378   7.364
 5950POPC   NC375119   0.488  30.704   5.564
 5950POPC   PO475120   0.401  30.647   5.864
 5950POPC   GL175121   0.431  30.712   6.164
 5950POPC   GL275122   0.346  30.642   6.164
 5950POPC   C1A75123   0.437  30.675   6.464
 5950POPC   D2A75124   0.471  30.742   6.764
 5950POPC   C3A75125   0.391  30.692   7.064
 5950POPC   C4A75126   0.481  30.730   7.364
 5950POPC   C1B75127   0.178  30.649   6.464
 5950POPC   C2B75128   0.243  30.598   6.764
 5950POPC   C3B75129   0.234  30.610   7.064
 5950POPC   C4B75130   0.153  30.600   7.364
 5951POPC   NC375131  11.252   5.056   5.564
 5951POPC   PO475132  11.275   5.107   5.864
 5951POPC   GL175133  11.264   5.110   6.164
 5951POPC   GL275134  11.267   5.022   6.164
 5951POPC   C1A75135  11.297   5.072   6.464
 5951POPC   D2A75136  11.283   5.138   6.764
 5951POPC   C3A75137  11.271   5.066   7.064
 5951POPC   C4A75138  11.296   5.052   7.364
 5951POPC   C1B75139  11.234   4.825   6.464
 5951POPC   C2B75140  11.170   4.858   6.764
 5951POPC   C3B75141  11.185   4.867   7.064
 5951POPC   C4B75142  11.172   4.877   7.364
 5952POPC   NC375143  31.508  36.872   5.564
 5952POPC   PO475144  31.431  36.897   5.864
 5952POPC   GL175145  31.509  36.855   6.164
 5952POPC   GL275146  31.584  36.990   6.164
 5952POPC   C1A75147  31.436  36.923   6.464
 5952POPC   D2A75148  31.450  36.907   6.764
 5952POPC   C3A75149  31.516  36.914   7.064
 5952POPC   C4A75150  31.487  36.899   7.364
 5952POPC   C1B75151  31.612  37.044   6.464
 5952POPC   C2B75152  31.615  37.108   6.764
 5952POPC   C3B75153  31.653  37.085   7.064
 5952POPC   C4B75154  31.641  37.050   7.364
 5953POPC   NC375155   0.448  12.047   5.564
 5953POPC   PO475156   0.471  12.066   5.864
 5953POPC   GL175157   0.400  12.067   6.164
 5953POPC   GL275158   0.318  12.140   6.164
 5953POPC   C1A75159   0.455  12.044   6.464
 5953POPC   D2A75160   0.488  12.116   6.764
 5953POPC   C3A75161   0.462  12.058   7.064
 5953POPC   C4A75162   0.444  12.123   7.364
 5953POPC   C1B75163   0.287  12.270   6.464
 5953POPC   C2B75164   0.299  12.232   6.764
 5953POPC   C3B75165   0.242  12.252   7.064
 5953POPC   C4B75166   0.312  12.221   7.364
 5954POPC   NC375167  29.155  37.687   5.564
 5954POPC   PO475168  29.175  37.721   5.864
 5954POPC   GL175169  29.130  37.670   6.164
 5954POPC   GL275170  29.085  37.565   6.164
 5954POPC   C1A75171  29.187  37.708   6.464
 5954POPC   D2A75172  29.120  37.701   6.764
 5954POPC   C3A75173  29.116  37.684   7.064
 5954POPC   C4A75174  29.187  37.721   7.364
 5954POPC   C1B75175  29.022  37.463   6.464
 5954POPC   C2B75176  28.994  37.491   6.764
 5954POPC   C3B75177  28.993  37.492   7.064
 5954POPC   C4B75178  29.003  37.462   7.364
 5955POPC   NC375179  41.596  11.298   5.564
 5955POPC   PO475180  41.532  11.269   5.864
 5955POPC   GL175181  41.567  11.299   6.164
 5955POPC   GL275182  41.507  11.371   6.164
 5955POPC   C1A75183  41.579  11.279   6.464
 5955POPC   D2A75184  41.521  11.313   6.764
 5955POPC   C3A75185  41.519  11.338   7.064
 5955POPC   C4A75186  41.563  11.329   7.364
 5955POPC   C1B75187  41.446  11.512   6.464
 5955POPC   C2B75188  41.468  11.482   6.764
 5955POPC   C3B75189  41.437  11.542   7.064
 5955POPC   C4B75190  41.486  11.483   7.364
 5956POPC   NC375191  38.468  39.254   5.564
 5956POPC   PO475192  38.491  39.203   5.864
 5956POPC   GL175193  38.451  39.263   6.164
 5956POPC   GL275194  38.533  39.312   6.164
 5956POPC   C1A75195  38.437  39.237   6.464
 5956POPC   D2A75196  38.472  39.195   6.764
 5956POPC   C3A75197  38.465  39.263   7.064
 5956POPC   C4A75198  38.461  39.213   7.364
 5956POPC   C1B75199  38.544  39.428   6.464
 5956POPC   C2B75200  38.530  39.482   6.764
 5956POPC   C3B75201  38.540  39.498   7.064
 5956POPC   C4B75202  38.567  39.508   7.364
 5957POPC   NC375203  43.104  26.010   5.564
 5957POPC   PO475204  43.069  25.994   5.864
 5957POPC   GL175205  43.062  26.022   6.164
 5957POPC   GL275206  42.945  26.017   6.164
 5957POPC   C1A75207  43.090  25.992   6.464
 5957POPC   D2A75208  43.065  26.049   6.764
 5957POPC   C3A75209  43.117  26.088   7.064
 5957POPC   C4A75210  43.061  26.035   7.364
 5957POPC   C1B75211  42.908  26.010   6.464
 5957POPC   C2B75212  42.882  26.027   6.764
 5957POPC   C3B75213  42.855  26.040   7.064
 5957POPC   C4B75214  42.889  26.041   7.364
 5958POPC   NC375215  26.079  40.019   5.564
 5958POPC   PO475216  26.043  40.051   5.864
 5958POPC   GL175217  26.016  40.053   6.164
 5958POPC   GL275218  26.186  39.992   6.164
 5958POPC   C1A75219  26.026  39.985   6.464
 5958POPC   D2A75220  26.052  40.025   6.764
 5958POPC   C3A75221  25.999  39.961   7.064
 5958POPC   C4A75222  26.001  40.045   7.364
 5958POPC   C1B75223  26.301  39.976   6.464
 5958POPC   C2B75224  26.261  39.994   6.764
 5958POPC   C3B75225  26.285  39.965   7.064
 5958POPC   C4B75226  26.271  40.039   7.364
 5959POPC   NC375227   5.055  25.223   5.564
 5959POPC   PO475228   5.084  25.257   5.864
 5959POPC   GL175229   5.094  25.252   6.164
 5959POPC   GL275230   5.215  25.223   6.164
 5959POPC   C1A75231   5.105  25.239   6.464
 5959POPC   D2A75232   5.071  25.309   6.764
 5959POPC   C3A75233   5.106  25.270   7.064
 5959POPC   C4A75234   5.046  25.308   7.364
 5959POPC   C1B75235   5.385  25.246   6.464
 5959POPC   C2B75236   5.345  25.213   6.764
 5959POPC   C3B75237   5.358  25.263   7.064
 5959POPC   C4B75238   5.364  25.278   7.364
 5960POPC   NC375239   7.466  25.997   5.564
 5960POPC   PO475240   7.398  26.073   5.864
 5960POPC   GL175241   7.393  26.035   6.164
 5960POPC   GL275242   7.381  25.947   6.164
 5960POPC   C1A75243   7.428  26.003   6.464
 5960POPC   D2A75244   7.383  26.042   6.764
 5960POPC   C3A75245   7.460  26.079   7.064
 5960POPC   C4A75246   7.406  26.077   7.364
 5960POPC   C1B75247   7.292  25.827   6.464
 5960POPC   C2B75248   7.300  25.858   6.764
 5960POPC   C3B75249   7.244  25.840   7.064
 5960POPC   C4B75250   7.273  25.817   7.364
 5961POPC   NC375251  22.976  17.510   5.564
 5961POPC   PO475252  22.943  17.495   5.864
 5961POPC   GL175253  22.987  17.483   6.164
 5961POPC   GL275254  22.965  17.669   6.164
 5961POPC   C1A75255  22.952  17.501   6.464
 5961POPC   D2A75256  22.922  17.475   6.764
 5961POPC   C3A75257  22.890  17.528   7.064
 5961POPC   C4A75258  22.939  17.496   7.364
 5961POPC   C1B75259  22.944  17.783   6.464
 5961POPC   C2B75260  22.973  17.739   6.764
 5961POPC   C3B75261  22.906  17.752   7.064
 5961POPC   C4B75262  22.924  17.796   7.364
 5962POPC   NC375263  29.124  38.409   5.564
 5962POPC   PO475264  29.146  38.476   5.864
 5962POPC   GL175265  29.187  38.435   6.164
 5962POPC   GL275266  29.012  38.364   6.164
 5962POPC   C1A75267  29.107  38.464   6.464
 5962POPC   D2A75268  29.182  38.464   6.764
 5962POPC   C3A75269  29.184  38.501   7.064
 5962POPC   C4A75270  29.191  38.448   7.364
 5962POPC   C1B75271  28.903  38.352   6.464
 5962POPC   C2B75272  28.978  38.358   6.764
 5962POPC   C3B75273  28.927  38.287   7.064
 5962POPC   C4B75274  28.904  38.364   7.364
 5963POPC   NC375275  40.742  13.589   5.564
 5963POPC   PO475276  40.800  13.593   5.864
 5963POPC   GL175277  40.744  13.589   6.164
 5963POPC   GL275278  40.754  13.534   6.164
 5963POPC   C1A75279  40.804  13.600   6.464
 5963POPC   D2A75280  40.793  13.631   6.764
 5963POPC   C3A75281  40.820  13.646   7.064
 5963POPC   C4A75282  40.733  13.664   7.364
 5963POPC   C1B75283  40.843  13.333   6.464
 5963POPC   C2B75284  40.823  13.343   6.764
 5963POPC   C3B75285  40.861  13.353   7.064
 5963POPC   C4B75286  40.846  13.407   7.364
 5964POPC   NC375287  11.308  13.581   5.564
 5964POPC   PO475288  11.271  13.613   5.864
 5964POPC   GL175289  11.272  13.633   6.164
 5964POPC   GL275290  11.457  13.556   6.164
 5964POPC   C1A75291  11.331  13.652   6.464
 5964POPC   D2A75292  11.333  13.634   6.764
 5964POPC   C3A75293  11.281  13.602   7.064
 5964POPC   C4A75294  11.288  13.652   7.364
 5964POPC   C1B75295  11.468  13.546   6.464
 5964POPC   C2B75296  11.530  13.516   6.764
 5964POPC   C3B75297  11.504  13.486   7.064
 5964POPC   C4B75298  11.552  13.468   7.364
 5965POPC   NC375299  30.738  40.002   5.564
 5965POPC   PO475300  30.698  40.042   5.864
 5965POPC   GL175301  30.733  39.971   6.164
 5965POPC   GL275302  30.553  40.006   6.164
 5965POPC   C1A75303  30.651  40.055   6.464
 5965POPC   D2A75304  30.696  40.055   6.764
 5965POPC   C3A75305  30.656  39.975   7.064
 5965POPC   C4A75306  30.722  40.022   7.364
 5965POPC   C1B75307  30.499  40.047   6.464
 5965POPC   C2B75308  30.423  40.085   6.764
 5965POPC   C3B75309  30.420  40.067   7.064
 5965POPC   C4B75310  30.456  40.049   7.364
 5966POPC   NC375311  37.680  26.822   5.564
 5966POPC   PO475312  37.671  26.847   5.864
 5966POPC   GL175313  37.676  26.791   6.164
 5966POPC   GL275314  37.608  26.751   6.164
 5966POPC   C1A75315  37.702  26.862   6.464
 5966POPC   D2A75316  37.688  26.838   6.764
 5966POPC   C3A75317  37.664  26.784   7.064
 5966POPC   C4A75318  37.683  26.807   7.364
 5966POPC   C1B75319  37.515  26.613   6.464
 5966POPC   C2B75320  37.505  26.626   6.764
 5966POPC   C3B75321  37.517  26.618   7.064
 5966POPC   C4B75322  37.504  26.622   7.364
 5967POPC   NC375323   8.986  41.565   5.564
 5967POPC   PO475324   9.008  41.546   5.864
 5967POPC   GL175325   8.946  41.599   6.164
 5967POPC   GL275326   8.876  41.516   6.164
 5967POPC   C1A75327   8.999  41.560   6.464
 5967POPC   D2A75328   8.923  41.548   6.764
 5967POPC   C3A75329   8.936  41.594   7.064
 5967POPC   C4A75330   8.965  41.561   7.364
 5967POPC   C1B75331   8.749  41.466   6.464
 5967POPC   C2B75332   8.701  41.515   6.764
 5967POPC   C3B75333   8.740  41.444   7.064
 5967POPC   C4B75334   8.758  41.505   7.364
 5968POPC   NC375335   0.394  27.570   5.564
 5968POPC   PO475336   0.428  27.611   5.864
 5968POPC   GL175337   0.443  27.609   6.164
 5968POPC   GL275338   0.517  27.703   6.164
 5968POPC   C1A75339   0.403  27.621   6.464
 5968POPC   D2A75340   0.487  27.613   6.764
 5968POPC   C3A75341   0.393  27.573   7.064
 5968POPC   C4A75342   0.410  27.602   7.364
 5968POPC   C1B75343   0.623  27.789   6.464
 5968POPC   C2B75344   0.556  27.772   6.764
 5968POPC   C3B75345   0.572  27.758   7.064
 5968POPC   C4B75346   0.543  27.763   7.364
 5969POPC   NC375347  44.711   5.103   5.564
 5969POPC   PO475348  44.702   5.081   5.864
 5969POPC   GL175349  44.649   5.141   6.164
 5969POPC   GL275350  44.731   5.091   6.164
 5969POPC   C1A75351  44.619   5.084   6.464
 5969POPC   D2A75352  44.690   5.092   6.764
 5969POPC   C3A75353  44.633   5.049   7.064
 5969POPC   C4A75354  44.663   5.125   7.364
 5969POPC   C1B75355  44.873   4.990   6.464
 5969POPC   C2B75356  44.883   4.993   6.764
 5969POPC   C3B75357  44.876   5.033   7.064
 5969POPC   C4B75358  44.910   5.003   7.364
 5970POPC   NC375359  34.573  21.433   5.564
 5970POPC   PO475360  34.565  21.403   5.864
 5970POPC   GL175361  34.526  21.379   6.164
 5970POPC   GL275362  34.530  21.335   6.164
 5970POPC   C1A75363  34.539  21.408   6.464
 5970POPC   D2A75364  34.613  21.409   6.764
 5970POPC   C3A75365  34.529  21.402   7.064
 5970POPC   C4A75366  34.547  21.406   7.364
 5970POPC   C1B75367  34.424  21.154   6.464
 5970POPC   C2B75368  34.385  21.156   6.764
 5970POPC   C3B75369  34.475  21.136   7.064
 5970POPC   C4B75370  34.469  21.183   7.364
 5971POPC   NC375371  42.365  36.133   5.564
 5971POPC   PO475372  42.294  36.081   5.864
 5971POPC   GL175373  42.378  36.162   6.164
 5971POPC   GL275374  42.500  36.153   6.164
 5971POPC   C1A75375  42.345  36.142   6.464
 5971POPC   D2A75376  42.285  36.116   6.764
 5971POPC   C3A75377  42.379  36.088   7.064
 5971POPC   C4A75378  42.324  36.167   7.364
 5971POPC   C1B75379  42.584  36.181   6.464
 5971POPC   C2B75380  42.607  36.153   6.764
 5971POPC   C3B75381  42.571  36.152   7.064
 5971POPC   C4B75382  42.604  36.142   7.364
 5972POPC   NC375383  15.908  22.965   5.564
 5972POPC   PO475384  15.978  22.958   5.864
 5972POPC   GL175385  15.911  22.934   6.164
 5972POPC   GL275386  15.968  23.016   6.164
 5972POPC   C1A75387  15.915  22.978   6.464
 5972POPC   D2A75388  16.003  22.986   6.764
 5972POPC   C3A75389  15.923  22.927   7.064
 5972POPC   C4A75390  15.935  22.926   7.364
 5972POPC   C1B75391  15.931  23.208   6.464
 5972POPC   C2B75392  15.995  23.173   6.764
 5972POPC   C3B75393  15.993  23.150   7.064
 5972POPC   C4B75394  15.941  23.171   7.364
 5973POPC   NC375395  43.871  25.993   5.564
 5973POPC   PO475396  43.931  26.040   5.864
 5973POPC   GL175397  43.863  26.029   6.164
 5973POPC   GL275398  43.716  26.000   6.164
 5973POPC   C1A75399  43.858  26.072   6.464
 5973POPC   D2A75400  43.910  26.003   6.764
 5973POPC   C3A75401  43.879  26.091   7.064
 5973POPC   C4A75402  43.930  26.040   7.364
 5973POPC   C1B75403  43.654  26.040   6.464
 5973POPC   C2B75404  43.662  26.096   6.764
 5973POPC   C3B75405  43.631  26.030   7.064
 5973POPC   C4B75406  43.634  26.022   7.364
 5974POPC   NC375407  12.830   5.124   5.564
 5974POPC   PO475408  12.876   5.097   5.864
 5974POPC   GL175409  12.825   5.074   6.164
 5974POPC   GL275410  12.822   5.012   6.164
 5974POPC   C1A75411  12.826   5.141   6.464
 5974POPC   D2A75412  12.811   5.122   6.764
 5974POPC   C3A75413  12.841   5.114   7.064
 5974POPC   C4A75414  12.842   5.112   7.364
 5974POPC   C1B75415  12.822   4.870   6.464
 5974POPC   C2B75416  12.785   4.811   6.764
 5974POPC   C3B75417  12.846   4.868   7.064
 5974POPC   C4B75418  12.791   4.896   7.364
 5975POPC   NC375419   1.253  21.398   5.564
 5975POPC   PO475420   1.222  21.367   5.864
 5975POPC   GL175421   1.180  21.435   6.164
 5975POPC   GL275422   1.325  21.309   6.164
 5975POPC   C1A75423   1.184  21.426   6.464
 5975POPC   D2A75424   1.225  21.411   6.764
 5975POPC   C3A75425   1.189  21.390   7.064
 5975POPC   C4A75426   1.186  21.353   7.364
 5975POPC   C1B75427   1.445  21.347   6.464
 5975POPC   C2B75428   1.447  21.275   6.764
 5975POPC   C3B75429   1.499  21.294   7.064
 5975POPC   C4B75430   1.424  21.291   7.364
 5976POPC   NC375431  12.048  22.905   5.564
 5976POPC   PO475432  12.092  22.922   5.864
 5976POPC   GL175433  12.026  22.962   6.164
 5976POPC   GL275434  12.220  22.978   6.164
 5976POPC   C1A75435  12.050  22.895   6.464
 5976POPC   D2A75436  12.039  22.912   6.764
 5976POPC   C3A75437  12.085  22.951   7.064
 5976POPC   C4A75438  12.085  22.914   7.364
 5976POPC   C1B75439  12.296  22.896   6.464
 5976POPC   C2B75440  12.338  22.958   6.764
 5976POPC   C3B75441  12.311  22.889   7.064
 5976POPC   C4B75442  12.326  22.911   7.364
 5977POPC   NC375443   6.677  15.950   5.564
 5977POPC   PO475444   6.679  15.997   5.864
 5977POPC   GL175445   6.605  15.915   6.164
 5977POPC   GL275446   6.744  16.090   6.164
 5977POPC   C1A75447   6.661  15.959   6.464
 5977POPC   D2A75448   6.627  15.916   6.764
 5977POPC   C3A75449   6.684  15.955   7.064
 5977POPC   C4A75450   6.646  15.985   7.364
 5977POPC   C1B75451   6.801  16.144   6.464
 5977POPC   C2B75452   6.814  16.085   6.764
 5977POPC   C3B75453   6.800  16.093   7.064
 5977POPC   C4B75454   6.777  16.139   7.364
 5978POPC   NC375455  44.696  21.415   5.564
 5978POPC   PO475456  44.637  21.377   5.864
 5978POPC   GL175457  44.621  21.395   6.164
 5978POPC   GL275458  44.491  21.385   6.164
 5978POPC   C1A75459  44.632  21.339   6.464
 5978POPC   D2A75460  44.624  21.429   6.764
 5978POPC   C3A75461  44.688  21.436   7.064
 5978POPC   C4A75462  44.669  21.387   7.364
 5978POPC   C1B75463  44.389  21.350   6.464
 5978POPC   C2B75464  44.456  21.414   6.764
 5978POPC   C3B75465  44.461  21.362   7.064
 5978POPC   C4B75466  44.427  21.353   7.364
 5979POPC   NC375467  15.207   0.479   5.564
 5979POPC   PO475468  15.143   0.449   5.864
 5979POPC   GL175469  15.177   0.398   6.164
 5979POPC   GL275470  15.051   0.496   6.164
 5979POPC   C1A75471  15.134   0.401   6.464
 5979POPC   D2A75472  15.181   0.395   6.764
 5979POPC   C3A75473  15.134   0.419   7.064
 5979POPC   C4A75474  15.135   0.461   7.364
 5979POPC   C1B75475  14.938   0.607   6.464
 5979POPC   C2B75476  15.016   0.555   6.764
 5979POPC   C3B75477  14.926   0.572   7.064
 5979POPC   C4B75478  14.926   0.587   7.364
 5980POPC   NC375479  26.790  39.183   5.564
 5980POPC   PO475480  26.792  39.239   5.864
 5980POPC   GL175481  26.790  39.232   6.164
 5980POPC   GL275482  26.766  39.312   6.164
 5980POPC   C1A75483  26.805  39.191   6.464
 5980POPC   D2A75484  26.810  39.187   6.764
 5980POPC   C3A75485  26.856  39.203   7.064
 5980POPC   C4A75486  26.790  39.187   7.364
 5980POPC   C1B75487  26.667  39.469   6.464
 5980POPC   C2B75488  26.694  39.495   6.764
 5980POPC   C3B75489  26.742  39.411   7.064
 5980POPC   C4B75490  26.728  39.479   7.364
 5981POPC   NC375491   9.706  23.756   5.564
 5981POPC   PO475492   9.705  23.705   5.864
 5981POPC   GL175493   9.742  23.708   6.164
 5981POPC   GL275494   9.815  23.818   6.164
 5981POPC   C1A75495   9.780  23.748   6.464
 5981POPC   D2A75496   9.709  23.667   6.764
 5981POPC   C3A75497   9.740  23.671   7.064
 5981POPC   C4A75498   9.710  23.702   7.364
 5981POPC   C1B75499   9.865  23.949   6.464
 5981POPC   C2B75500   9.903  23.931   6.764
 5981POPC   C3B75501   9.938  23.923   7.064
 5981POPC   C4B75502   9.939  23.916   7.364
 5982POPC   NC375503   6.690  39.235   5.564
 5982POPC   PO475504   6.601  39.266   5.864
 5982POPC   GL175505   6.657  39.201   6.164
 5982POPC   GL275506   6.479  39.202   6.164
 5982POPC   C1A75507   6.613  39.262   6.464
 5982POPC   D2A75508   6.680  39.280   6.764
 5982POPC   C3A75509   6.676  39.209   7.064
 5982POPC   C4A75510   6.652  39.221   7.364
 5982POPC   C1B75511   6.374  39.313   6.464
 5982POPC   C2B75512   6.395  39.305   6.764
 5982POPC   C3B75513   6.369  39.317   7.064
 5982POPC   C4B75514   6.357  39.282   7.364
 5983POPC   NC375515  22.165  35.373   5.564
 5983POPC   PO475516  22.199  35.392   5.864
 5983POPC   GL175517  22.188  35.353   6.164
 5983POPC   GL275518  22.232  35.444   6.164
 5983POPC   C1A75519  22.156  35.305   6.464
 5983POPC   D2A75520  22.148  35.343   6.764
 5983POPC   C3A75521  22.178  35.365   7.064
 5983POPC   C4A75522  22.182  35.346   7.364
 5983POPC   C1B75523  22.305  35.515   6.464
 5983POPC   C2B75524  22.347  35.572   6.764
 5983POPC   C3B75525  22.328  35.549   7.064
 5983POPC   C4B75526  22.354  35.580   7.364
 5984POPC   NC375527  12.891  12.880   5.564
 5984POPC   PO475528  12.843  12.815   5.864
 5984POPC   GL175529  12.877  12.832   6.164
 5984POPC   GL275530  12.944  12.979   6.164
 5984POPC   C1A75531  12.853  12.836   6.464
 5984POPC   D2A75532  12.848  12.809   6.764
 5984POPC   C3A75533  12.898  12.868   7.064
 5984POPC   C4A75534  12.812  12.815   7.364
 5984POPC   C1B75535  12.964  13.082   6.464
 5984POPC   C2B75536  12.982  13.108   6.764
 5984POPC   C3B75537  12.964  13.027   7.064
 5984POPC   C4B75538  12.979  13.047   7.364
 5985POPC   NC375539  38.439  33.836   5.564
 5985POPC   PO475540  38.431  33.838   5.864
 5985POPC   GL175541  38.424  33.798   6.164
 5985POPC   GL275542  38.355  33.837   6.164
 5985POPC   C1A75543  38.420  33.845   6.464
 5985POPC   D2A75544  38.500  33.755   6.764
 5985POPC   C3A75545  38.446  33.850   7.064
 5985POPC   C4A75546  38.431  33.821   7.364
 5985POPC   C1B75547  38.210  33.950   6.464
 5985POPC   C2B75548  38.195  33.966   6.764
 5985POPC   C3B75549  38.195  33.971   7.064
 5985POPC   C4B75550  38.245  33.912   7.364
 5986POPC   NC375551  19.089   1.975   5.564
 5986POPC   PO475552  19.053   2.010   5.864
 5986POPC   GL175553  19.091   1.999   6.164
 5986POPC   GL275554  19.069   1.830   6.164
 5986POPC   C1A75555  19.024   1.995   6.464
 5986POPC   D2A75556  19.013   1.967   6.764
 5986POPC   C3A75557  19.094   1.984   7.064
 5986POPC   C4A75558  19.017   1.962   7.364
 5986POPC   C1B75559  19.087   1.778   6.464
 5986POPC   C2B75560  19.079   1.765   6.764
 5986POPC   C3B75561  19.101   1.746   7.064
 5986POPC   C4B75562  19.075   1.733   7.364
 5987POPC   NC375563  14.407  15.198   5.564
 5987POPC   PO475564  14.424  15.210   5.864
 5987POPC   GL175565  14.393  15.170   6.164
 5987POPC   GL275566  14.287  15.209   6.164
 5987POPC   C1A75567  14.443  15.163   6.464
 5987POPC   D2A75568  14.356  15.201   6.764
 5987POPC   C3A75569  14.383  15.201   7.064
 5987POPC   C4A75570  14.360  15.171   7.364
 5987POPC   C1B75571  14.225  15.336   6.464
 5987POPC   C2B75572  14.206  15.350   6.764
 5987POPC   C3B75573  14.167  15.356   7.064
 5987POPC   C4B75574  14.157  15.326   7.364
 5988POPC   NC375575  40.020  37.714   5.564
 5988POPC   PO475576  39.978  37.690   5.864
 5988POPC   GL175577  40.024  37.642   6.164
 5988POPC   GL275578  39.870  37.773   6.164
 5988POPC   C1A75579  39.988  37.723   6.464
 5988POPC   D2A75580  39.985  37.649   6.764
 5988POPC   C3A75581  39.968  37.710   7.064
 5988POPC   C4A75582  39.959  37.683   7.364
 5988POPC   C1B75583  39.812  37.823   6.464
 5988POPC   C2B75584  39.755  37.751   6.764
 5988POPC   C3B75585  39.778  37.742   7.064
 5988POPC   C4B75586  39.765  37.807   7.364
 5989POPC   NC375587  20.596  19.065   5.564
 5989POPC   PO475588  20.602  19.088   5.864
 5989POPC   GL175589  20.656  19.093   6.164
 5989POPC   GL275590  20.701  18.988   6.164
 5989POPC   C1A75591  20.578  19.059   6.464
 5989POPC   D2A75592  20.574  19.093   6.764
 5989POPC   C3A75593  20.561  19.059   7.064
 5989POPC   C4A75594  20.579  19.085   7.364
 5989POPC   C1B75595  20.773  18.868   6.464
 5989POPC   C2B75596  20.730  18.823   6.764
 5989POPC   C3B75597  20.763  18.853   7.064
 5989POPC   C4B75598  20.689  18.879   7.364
 5990POPC   NC375599  20.578  26.789   5.564
 5990POPC   PO475600  20.657  26.780   5.864
 5990POPC   GL175601  20.592  26.782   6.164
 5990POPC   GL275602  20.532  26.677   6.164
 5990POPC   C1A75603  20.569  26.856   6.464
 5990POPC   D2A75604  20.594  26.856   6.764
 5990POPC   C3A75605  20.563  26.833   7.064
 5990POPC   C4A75606  20.599  26.817   7.364
 5990POPC   C1B75607  20.487  26.549   6.464
 5990POPC   C2B75608  20.493  26.565   6.764
 5990POPC   C3B75609  20.498  26.630   7.064
 5990POPC   C4B75610  20.511  26.552   7.364
 5991POPC   NC375611  22.206  31.504   5.564
 5991POPC   PO475612  22.132  31.488   5.864
 5991POPC   GL175613  22.139  31.437   6.164
 5991POPC   GL275614  22.093  31.355   6.164
 5991POPC   C1A75615  22.180  31.516   6.464
 5991POPC   D2A75616  22.211  31.463   6.764
 5991POPC   C3A75617  22.165  31.499   7.064
 5991POPC   C4A75618  22.144  31.498   7.364
 5991POPC   C1B75619  21.946  31.270   6.464
 5991POPC   C2B75620  21.954  31.335   6.764
 5991POPC   C3B75621  22.032  31.306   7.064
 5991POPC   C4B75622  21.994  31.302   7.364
 5992POPC   NC375623   1.196  27.602   5.564
 5992POPC   PO475624   1.199  27.579   5.864
 5992POPC   GL175625   1.251  27.623   6.164
 5992POPC   GL275626   1.358  27.507   6.164
 5992POPC   C1A75627   1.190  27.609   6.464
 5992POPC   D2A75628   1.248  27.570   6.764
 5992POPC   C3A75629   1.229  27.581   7.064
 5992POPC   C4A75630   1.208  27.589   7.364
 5992POPC   C1B75631   1.425  27.494   6.464
 5992POPC   C2B75632   1.460  27.521   6.764
 5992POPC   C3B75633   1.461  27.532   7.064
 5992POPC   C4B75634   1.463  27.486   7.364
 5993POPC   NC375635  15.914  42.377   5.564
 5993POPC   PO475636  15.991  42.371   5.864
 5993POPC   GL175637  15.910  42.335   6.164
 5993POPC   GL275638  16.087  42.300   6.164
 5993POPC   C1A75639  15.907  42.327   6.464
 5993POPC   D2A75640  15.975  42.380   6.764
 5993POPC   C3A75641  15.934  42.324   7.064
 5993POPC   C4A75642  15.976  42.335   7.364
 5993POPC   C1B75643  16.208  42.282   6.464
 5993POPC   C2B75644  16.239  42.290   6.764
 5993POPC   C3B75645  16.186  42.258   7.064
 5993POPC   C4B75646  16.161  42.286   7.364
 5994POPC   NC375647  42.291  12.108   5.564
 5994POPC   PO475648  42.290  12.118   5.864
 5994POPC   GL175649  42.373  12.112   6.164
 5994POPC   GL275650  42.242  11.935   6.164
 5994POPC   C1A75651  42.311  12.051   6.464
 5994POPC   D2A75652  42.317  12.117   6.764
 5994POPC   C3A75653  42.312  12.093   7.064
 5994POPC   C4A75654  42.287  12.060   7.364
 5994POPC   C1B75655  42.181  11.908   6.464
 5994POPC   C2B75656  42.204  11.918   6.764
 5994POPC   C3B75657  42.199  11.855   7.064
 5994POPC   C4B75658  42.180  11.835   7.364
 5995POPC   NC375659  43.068  15.217   5.564
 5995POPC   PO475660  43.155  15.159   5.864
 5995POPC   GL175661  43.090  15.217   6.164
 5995POPC   GL275662  43.260  15.192   6.164
 5995POPC   C1A75663  43.103  15.135   6.464
 5995POPC   D2A75664  43.087  15.160   6.764
 5995POPC   C3A75665  43.118  15.151   7.064
 5995POPC   C4A75666  43.082  15.139   7.364
 5995POPC   C1B75667  43.370  15.202   6.464
 5995POPC   C2B75668  43.354  15.242   6.764
 5995POPC   C3B75669  43.348  15.170   7.064
 5995POPC   C4B75670  43.380  15.232   7.364
 5996POPC   NC375671  12.884  16.761   5.564
 5996POPC   PO475672  12.834  16.729   5.864
 5996POPC   GL175673  12.828  16.781   6.164
 5996POPC   GL275674  12.858  16.874   6.164
 5996POPC   C1A75675  12.859  16.775   6.464
 5996POPC   D2A75676  12.887  16.706   6.764
 5996POPC   C3A75677  12.851  16.711   7.064
 5996POPC   C4A75678  12.864  16.711   7.364
 5996POPC   C1B75679  12.969  16.937   6.464
 5996POPC   C2B75680  12.976  16.956   6.764
 5996POPC   C3B75681  12.955  16.978   7.064
 5996POPC   C4B75682  12.960  16.994   7.364
 5997POPC   NC375683  15.932  12.072   5.564
 5997POPC   PO475684  15.950  12.048   5.864
 5997POPC   GL175685  15.966  12.043   6.164
 5997POPC   GL275686  15.978  11.955   6.164
 5997POPC   C1A75687  15.933  12.115   6.464
 5997POPC   D2A75688  15.972  12.092   6.764
 5997POPC   C3A75689  15.989  12.067   7.064
 5997POPC   C4A75690  15.988  12.036   7.364
 5997POPC   C1B75691  16.048  11.820   6.464
 5997POPC   C2B75692  16.076  11.875   6.764
 5997POPC   C3B75693  16.035  11.805   7.064
 5997POPC   C4B75694  16.098  11.838   7.364
 5998POPC   NC375695  29.152  19.081   5.564
 5998POPC   PO475696  29.137  19.024   5.864
 5998POPC   GL175697  29.156  19.101   6.164
 5998POPC   GL275698  29.270  19.058   6.164
 5998POPC   C1A75699  29.099  19.064   6.464
 5998POPC   D2A75700  29.172  19.027   6.764
 5998POPC   C3A75701  29.192  19.102   7.064
 5998POPC   C4A75702  29.135  19.022   7.364
 5998POPC   C1B75703  29.363  19.026   6.464
 5998POPC   C2B75704  29.375  19.049   6.764
 5998POPC   C3B75705  29.356  19.083   7.064
 5998POPC   C4B75706  29.355  19.073   7.364
 5999POPC   NC375707  19.878  43.909   5.564
 5999POPC   PO475708  19.855  43.847   5.864
 5999POPC   GL175709  19.844  43.841   6.164
 5999POPC   GL275710  19.686  43.975   6.164
 5999POPC   C1A75711  19.821  43.852   6.464
 5999POPC   D2A75712  19.853  43.845   6.764
 5999POPC   C3A75713  19.819  43.899   7.064
 5999POPC   C4A75714  19.836  43.886   7.364
 5999POPC   C1B75715  19.658  44.046   6.464
 5999POPC   C2B75716  19.610  43.991   6.764
 5999POPC   C3B75717  19.657  43.980   7.064
 5999POPC   C4B75718  19.584  44.037   7.364
 6000POPC   NC375719  33.775  23.710   5.564
 6000POPC   PO475720  33.810  23.757   5.864
 6000POPC   GL175721  33.784  23.674   6.164
 6000POPC   GL275722  33.707  23.788   6.164
 6000POPC   C1A75723  33.762  23.755   6.464
 6000POPC   D2A75724  33.778  23.714   6.764
 6000POPC   C3A75725  33.782  23.711   7.064
 6000POPC   C4A75726  33.778  23.736   7.364
 6000POPC   C1B75727  33.624  23.882   6.464
 6000POPC   C2B75728  33.649  23.879   6.764
 6000POPC   C3B75729  33.705  23.936   7.064
 6000POPC   C4B75730  33.660  23.946   7.364
 6001POPC   NC375731  26.775  42.330   5.564
 6001POPC   PO475732  26.835  42.322   5.864
 6001POPC   GL175733  26.774  42.301   6.164
 6001POPC   GL275734  26.762  42.411   6.164
 6001POPC   C1A75735  26.771  42.360   6.464
 6001POPC   D2A75736  26.787  42.323   6.764
 6001POPC   C3A75737  26.836  42.332   7.064
 6001POPC   C4A75738  26.847  42.312   7.364
 6001POPC   C1B75739  26.741  42.532   6.464
 6001POPC   C2B75740  26.684  42.558   6.764
 6001POPC   C3B75741  26.709  42.593   7.064
 6001POPC   C4B75742  26.764  42.615   7.364
 6002POPC   NC375743  29.889  15.979   5.564
 6002POPC   PO475744  29.927  15.924   5.864
 6002POPC   GL175745  29.947  15.925   6.164
 6002POPC   GL275746  29.941  15.826   6.164
 6002POPC   C1A75747  29.939  15.972   6.464
 6002POPC   D2A75748  29.872  15.972   6.764
 6002POPC   C3A75749  29.929  15.923   7.064
 6002POPC   C4A75750  29.901  15.933   7.364
 6002POPC   C1B75751  30.032  15.687   6.464
 6002POPC   C2B75752  29.965  15.670   6.764
 6002POPC   C3B75753  29.975  15.756   7.064
 6002POPC   C4B75754  29.977  15.741   7.364
 6003POPC   NC375755  39.223   4.310   5.564
 6003POPC   PO475756  39.255   4.294   5.864
 6003POPC   GL175757  39.250   4.357   6.164
 6003POPC   GL275758  39.095   4.398   6.164
 6003POPC   C1A75759  39.186   4.363   6.464
 6003POPC   D2A75760  39.263   4.364   6.764
 6003POPC   C3A75761  39.198   4.284   7.064
 6003POPC   C4A75762  39.221   4.342   7.364
 6003POPC   C1B75763  39.035   4.436   6.464
 6003POPC   C2B75764  39.007   4.386   6.764
 6003POPC   C3B75765  38.950   4.355   7.064
 6003POPC   C4B75766  38.959   4.399   7.364
 6004POPC   NC375767  18.265  26.018   5.564
 6004POPC   PO475768  18.276  26.002   5.864
 6004POPC   GL175769  18.235  26.036   6.164
 6004POPC   GL275770  18.423  25.930   6.164
 6004POPC   C1A75771  18.314  26.066   6.464
 6004POPC   D2A75772  18.326  26.016   6.764
 6004POPC   C3A75773  18.263  26.024   7.064
 6004POPC   C4A75774  18.279  26.029   7.364
 6004POPC   C1B75775  18.484  25.890   6.464
 6004POPC   C2B75776  18.508  25.869   6.764
 6004POPC   C3B75777  18.496  25.912   7.064
 6004POPC   C4B75778  18.453  25.841   7.364
 6005POPC   NC375779   6.660   4.286   5.564
 6005POPC   PO475780   6.661   4.301   5.864
 6005POPC   GL175781   6.664   4.286   6.164
 6005POPC   GL275782   6.516   4.358   6.164
 6005POPC   C1A75783   6.675   4.331   6.464
 6005POPC   D2A75784   6.677   4.316   6.764
 6005POPC   C3A75785   6.657   4.337   7.064
 6005POPC   C4A75786   6.680   4.276   7.364
 6005POPC   C1B75787   6.481   4.441   6.464
 6005POPC   C2B75788   6.448   4.426   6.764
 6005POPC   C3B75789   6.402   4.434   7.064
 6005POPC   C4B75790   6.418   4.476   7.364
 6006POPC   NC375791  10.570  42.294   5.564
 6006POPC   PO475792  10.482  42.373   5.864
 6006POPC   GL175793  10.518  42.314   6.164
 6006POPC   GL275794  10.479  42.397   6.164
 6006POPC   C1A75795  10.508  42.335   6.464
 6006POPC   D2A75796  10.541  42.355   6.764
 6006POPC   C3A75797  10.476  42.354   7.064
 6006POPC   C4A75798  10.547  42.314   7.364
 6006POPC   C1B75799  10.370  42.526   6.464
 6006POPC   C2B75800  10.389  42.575   6.764
 6006POPC   C3B75801  10.384  42.517   7.064
 6006POPC   C4B75802  10.368  42.514   7.364
 6007POPC   NC375803  38.410   6.642   5.564
 6007POPC   PO475804  38.412   6.689   5.864
 6007POPC   GL175805  38.496   6.667   6.164
 6007POPC   GL275806  38.327   6.675   6.164
 6007POPC   C1A75807  38.406   6.681   6.464
 6007POPC   D2A75808  38.462   6.648   6.764
 6007POPC   C3A75809  38.469   6.635   7.064
 6007POPC   C4A75810  38.493   6.670   7.364
 6007POPC   C1B75811  38.255   6.669   6.464
 6007POPC   C2B75812  38.224   6.683   6.764
 6007POPC   C3B75813  38.199   6.657   7.064
 6007POPC   C4B75814  38.248   6.643   7.364
 6008POPC   NC375815   1.946  31.429   5.564
 6008POPC   PO475816   1.995  31.482   5.864
 6008POPC   GL175817   1.977  31.446   6.164
 6008POPC   GL275818   1.944  31.628   6.164
 6008POPC   C1A75819   2.022  31.516   6.464
 6008POPC   D2A75820   2.007  31.440   6.764
 6008POPC   C3A75821   1.987  31.436   7.064
 6008POPC   C4A75822   2.018  31.476   7.364
 6008POPC   C1B75823   1.895  31.739   6.464
 6008POPC   C2B75824   1.954  31.756   6.764
 6008POPC   C3B75825   1.884  31.749   7.064
 6008POPC   C4B75826   1.959  31.726   7.364
 6009POPC   NC375827   7.372  20.580   5.564
 6009POPC   PO475828   7.437  20.655   5.864
 6009POPC   GL175829   7.443  20.650   6.164
 6009POPC   GL275830   7.344  20.651   6.164
 6009POPC   C1A75831   7.401  20.650   6.464
 6009POPC   D2A75832   7.395  20.568   6.764
 6009POPC   C3A75833   7.424  20.648   7.064
 6009POPC   C4A75834   7.405  20.645   7.364
 6009POPC   C1B75835   7.249  20.747   6.464
 6009POPC   C2B75836   7.269  20.718   6.764
 6009POPC   C3B75837   7.246  20.784   7.064
 6009POPC   C4B75838   7.270  20.745   7.364
 6010POPC   NC375839   6.690  21.364   5.564
 6010POPC   PO475840   6.642  21.342   5.864
 6010POPC   GL175841   6.685  21.377   6.164
 6010POPC   GL275842   6.553  21.427   6.164
 6010POPC   C1A75843   6.648  21.406   6.464
 6010POPC   D2A75844   6.653  21.366   6.764
 6010POPC   C3A75845   6.678  21.368   7.064
 6010POPC   C4A75846   6.633  21.430   7.364
 6010POPC   C1B75847   6.420  21.411   6.464
 6010POPC   C2B75848   6.384  21.455   6.764
 6010POPC   C3B75849   6.416  21.422   7.064
 6010POPC   C4B75850   6.359  21.447   7.364
 6011POPC   NC375851   5.116  34.615   5.564
 6011POPC   PO475852   5.082  34.594   5.864
 6011POPC   GL175853   5.107  34.533   6.164
 6011POPC   GL275854   5.011  34.683   6.164
 6011POPC   C1A75855   5.100  34.556   6.464
 6011POPC   D2A75856   5.084  34.540   6.764
 6011POPC   C3A75857   5.073  34.618   7.064
 6011POPC   C4A75858   5.070  34.572   7.364
 6011POPC   C1B75859   4.999  34.733   6.464
 6011POPC   C2B75860   4.955  34.810   6.764
 6011POPC   C3B75861   4.957  34.822   7.064
 6011POPC   C4B75862   4.933  34.822   7.364
 6012POPC   NC375863   5.130  38.482   5.564
 6012POPC   PO475864   5.134  38.434   5.864
 6012POPC   GL175865   5.056  38.455   6.164
 6012POPC   GL275866   5.132  38.330   6.164
 6012POPC   C1A75867   5.103  38.479   6.464
 6012POPC   D2A75868   5.125  38.423   6.764
 6012POPC   C3A75869   5.108  38.459   7.064
 6012POPC   C4A75870   5.060  38.409   7.364
 6012POPC   C1B75871   5.169  38.190   6.464
 6012POPC   C2B75872   5.100  38.178   6.764
 6012POPC   C3B75873   5.112  38.183   7.064
 6012POPC   C4B75874   5.106  38.159   7.364
 6013POPC   NC375875  35.394  26.021   5.564
 6013POPC   PO475876  35.394  26.068   5.864
 6013POPC   GL175877  35.386  26.014   6.164
 6013POPC   GL275878  35.283  26.082   6.164
 6013POPC   C1A75879  35.329  26.047   6.464
 6013POPC   D2A75880  35.365  26.054   6.764
 6013POPC   C3A75881  35.312  26.008   7.064
 6013POPC   C4A75882  35.306  26.070   7.364
 6013POPC   C1B75883  35.165  26.147   6.464
 6013POPC   C2B75884  35.147  26.085   6.764
 6013POPC   C3B75885  35.101  26.103   7.064
 6013POPC   C4B75886  35.091  26.160   7.364
 6014POPC   NC375887  12.867   5.896   5.564
 6014POPC   PO475888  12.844   5.893   5.864
 6014POPC   GL175889  12.855   5.884   6.164
 6014POPC   GL275890  13.011   5.953   6.164
 6014POPC   C1A75891  12.819   5.824   6.464
 6014POPC   D2A75892  12.820   5.827   6.764
 6014POPC   C3A75893  12.885   5.865   7.064
 6014POPC   C4A75894  12.840   5.882   7.364
 6014POPC   C1B75895  13.099   6.003   6.464
 6014POPC   C2B75896  13.038   6.024   6.764
 6014POPC   C3B75897  13.098   5.990   7.064
 6014POPC   C4B75898  13.052   5.945   7.364
 6015POPC   NC375899  33.061  12.802   5.564
 6015POPC   PO475900  33.070  12.804   5.864
 6015POPC   GL175901  33.014  12.864   6.164
 6015POPC   GL275902  32.888  12.768   6.164
 6015POPC   C1A75903  33.058  12.821   6.464
 6015POPC   D2A75904  32.999  12.893   6.764
 6015POPC   C3A75905  33.066  12.847   7.064
 6015POPC   C4A75906  33.021  12.890   7.364
 6015POPC   C1B75907  32.758  12.766   6.464
 6015POPC   C2B75908  32.788  12.704   6.764
 6015POPC   C3B75909  32.826  12.755   7.064
 6015POPC   C4B75910  32.796  12.778   7.364
 6016POPC   NC375911  14.436  38.479   5.564
 6016POPC   PO475912  14.422  38.472   5.864
 6016POPC   GL175913  14.447  38.466   6.164
 6016POPC   GL275914  14.295  38.390   6.164
 6016POPC   C1A75915  14.432  38.497   6.464
 6016POPC   D2A75916  14.382  38.489   6.764
 6016POPC   C3A75917  14.387  38.419   7.064
 6016POPC   C4A75918  14.366  38.479   7.364
 6016POPC   C1B75919  14.174  38.303   6.464
 6016POPC   C2B75920  14.210  38.327   6.764
 6016POPC   C3B75921  14.232  38.236   7.064
 6016POPC   C4B75922  14.181  38.309   7.364
 6017POPC   NC375923  34.550  13.596   5.564
 6017POPC   PO475924  34.551  13.657   5.864
 6017POPC   GL175925  34.606  13.630   6.164
 6017POPC   GL275926  34.550  13.703   6.164
 6017POPC   C1A75927  34.528  13.586   6.464
 6017POPC   D2A75928  34.576  13.646   6.764
 6017POPC   C3A75929  34.619  13.659   7.064
 6017POPC   C4A75930  34.597  13.582   7.364
 6017POPC   C1B75931  34.594  13.841   6.464
 6017POPC   C2B75932  34.606  13.841   6.764
 6017POPC   C3B75933  34.630  13.846   7.064
 6017POPC   C4B75934  34.630  13.836   7.364
 6018POPC   NC375935  40.017  19.098   5.564
 6018POPC   PO475936  39.961  19.084   5.864
 6018POPC   GL175937  40.032  19.021   6.164
 6018POPC   GL275938  39.900  19.143   6.164
 6018POPC   C1A75939  40.003  19.013   6.464
 6018POPC   D2A75940  40.031  19.079   6.764
 6018POPC   C3A75941  40.012  19.098   7.064
 6018POPC   C4A75942  40.012  19.041   7.364
 6018POPC   C1B75943  39.877  19.281   6.464
 6018POPC   C2B75944  39.811  19.239   6.764
 6018POPC   C3B75945  39.887  19.207   7.064
 6018POPC   C4B75946  39.797  19.279   7.364
 6019POPC   NC375947  31.484  22.956   5.564
 6019POPC   PO475948  31.448  22.943   5.864
 6019POPC   GL175949  31.518  22.913   6.164
 6019POPC   GL275950  31.548  23.043   6.164
 6019POPC   C1A75951  31.518  22.945   6.464
 6019POPC   D2A75952  31.498  22.976   6.764
 6019POPC   C3A75953  31.434  22.968   7.064
 6019POPC   C4A75954  31.440  22.894   7.364
 6019POPC   C1B75955  31.550  23.139   6.464
 6019POPC   C2B75956  31.516  23.158   6.764
 6019POPC   C3B75957  31.540  23.226   7.064
 6019POPC   C4B75958  31.576  23.152   7.364
 6020POPC   NC375959   2.733  27.576   5.564
 6020POPC   PO475960   2.775  27.622   5.864
 6020POPC   GL175961   2.811  27.583   6.164
 6020POPC   GL275962   2.687  27.666   6.164
 6020POPC   C1A75963   2.732  27.585   6.464
 6020POPC   D2A75964   2.773  27.571   6.764
 6020POPC   C3A75965   2.719  27.565   7.064
 6020POPC   C4A75966   2.725  27.553   7.364
 6020POPC   C1B75967   2.657  27.782   6.464
 6020POPC   C2B75968   2.683  27.829   6.764
 6020POPC   C3B75969   2.639  27.780   7.064
 6020POPC   C4B75970   2.610  27.862   7.364
 6021POPC   NC375971   9.791   9.016   5.564
 6021POPC   PO475972   9.780   8.976   5.864
 6021POPC   GL175973   9.703   8.981   6.164
 6021POPC   GL275974   9.700   9.067   6.164
 6021POPC   C1A75975   9.726   8.929   6.464
 6021POPC   D2A75976   9.740   8.936   6.764
 6021POPC   C3A75977   9.791   8.948   7.064
 6021POPC   C4A75978   9.776   8.924   7.364
 6021POPC   C1B75979   9.651   9.215   6.464
 6021POPC   C2B75980   9.703   9.246   6.764
 6021POPC   C3B75981   9.679   9.250   7.064
 6021POPC   C4B75982   9.677   9.237   7.364
 6022POPC   NC375983  16.764  10.571   5.564
 6022POPC   PO475984  16.772  10.556   5.864
 6022POPC   GL175985  16.693  10.553   6.164
 6022POPC   GL275986  16.786  10.643   6.164
 6022POPC   C1A75987  16.717  10.503   6.464
 6022POPC   D2A75988  16.717  10.500   6.764
 6022POPC   C3A75989  16.698  10.548   7.064
 6022POPC   C4A75990  16.700  10.511   7.364
 6022POPC   C1B75991  16.894  10.775   6.464
 6022POPC   C2B75992  16.854  10.698   6.764
 6022POPC   C3B75993  16.896  10.699   7.064
 6022POPC   C4B75994  16.880  10.777   7.364
 6023POPC   NC375995   5.048   0.443   5.564
 6023POPC   PO475996   5.100   0.393   5.864
 6023POPC   GL175997   5.047   0.459   6.164
 6023POPC   GL275998   5.161   0.387   6.164
 6023POPC   C1A75999   5.125   0.432   6.464
 6023POPC   D2A76000   5.058   0.421   6.764
 6023POPC   C3A76001   5.102   0.399   7.064
 6023POPC   C4A76002   5.076   0.394   7.364
 6023POPC   C1B76003   5.230   0.307   6.464
 6023POPC   C2B76004   5.229   0.280   6.764
 6023POPC   C3B76005   5.307   0.237   7.064
 6023POPC   C4B76006   5.260   0.248   7.364
 6024POPC   NC376007  31.453  33.774   5.564
 6024POPC   PO476008  31.471  33.805   5.864
 6024POPC   GL176009  31.505  33.763   6.164
 6024POPC   GL276010  31.317  33.822   6.164
 6024POPC   C1A76011  31.500  33.846   6.464
 6024POPC   D2A76012  31.464  33.847   6.764
 6024POPC   C3A76013  31.438  33.790   7.064
 6024POPC   C4A76014  31.458  33.799   7.364
 6024POPC   C1B76015  31.288  33.954   6.464
 6024POPC   C2B76016  31.259  33.924   6.764
 6024POPC   C3B76017  31.232  33.909   7.064
 6024POPC   C4B76018  31.295  33.896   7.364
 6025POPC   NC376019  31.484  19.854   5.564
 6025POPC   PO476020  31.511  19.855   5.864
 6025POPC   GL176021  31.488  19.843   6.164
 6025POPC   GL276022  31.361  19.914   6.164
 6025POPC   C1A76023  31.445  19.840   6.464
 6025POPC   D2A76024  31.453  19.836   6.764
 6025POPC   C3A76025  31.468  19.859   7.064
 6025POPC   C4A76026  31.493  19.869   7.364
 6025POPC   C1B76027  31.364  20.035   6.464
 6025POPC   C2B76028  31.375  20.001   6.764
 6025POPC   C3B76029  31.359  20.067   7.064
 6025POPC   C4B76030  31.363  20.022   7.364
 6026POPC   NC376031   5.106  44.622   5.564
 6026POPC   PO476032   5.141  44.661   5.864
 6026POPC   GL176033   5.112  44.710   6.164
 6026POPC   GL276034   5.052  44.749   6.164
 6026POPC   C1A76035   5.084  44.612   6.464
 6026POPC   D2A76036   5.063  44.619   6.764
 6026POPC   C3A76037   5.065  44.620   7.064
 6026POPC   C4A76038   5.104  44.653   7.364
 6026POPC   C1B76039   4.986  44.924   6.464
 6026POPC   C2B76040   4.944  44.919   6.764
 6026POPC   C3B76041   4.927  44.869   7.064
 6026POPC   C4B76042   4.938  44.909   7.364
 6027POPC   NC376043  33.830  20.605   5.564
 6027POPC   PO476044  33.764  20.561   5.864
 6027POPC   GL176045  33.817  20.650   6.164
 6027POPC   GL276046  33.773  20.508   6.164
 6027POPC   C1A76047  33.813  20.609   6.464
 6027POPC   D2A76048  33.789  20.659   6.764
 6027POPC   C3A76049  33.802  20.630   7.064
 6027POPC   C4A76050  33.841  20.600   7.364
 6027POPC   C1B76051  33.808  20.340   6.464
 6027POPC   C2B76052  33.783  20.383   6.764
 6027POPC   C3B76053  33.853  20.407   7.064
 6027POPC   C4B76054  33.848  20.401   7.364
 6028POPC   NC376055  11.308  11.323   5.564
 6028POPC   PO476056  11.334  11.252   5.864
 6028POPC   GL176057  11.347  11.341   6.164
 6028POPC   GL276058  11.184  11.366   6.164
 6028POPC   C1A76059  11.315  11.309   6.464
 6028POPC   D2A76060  11.324  11.313   6.764
 6028POPC   C3A76061  11.344  11.285   7.064
 6028POPC   C4A76062  11.308  11.281   7.364
 6028POPC   C1B76063  11.100  11.426   6.464
 6028POPC   C2B76064  11.129  11.446   6.764
 6028POPC   C3B76065  11.112  11.434   7.064
 6028POPC   C4B76066  11.142  11.411   7.364
 6029POPC   NC376067   5.858   2.741   5.564
 6029POPC   PO476068   5.890   2.771   5.864
 6029POPC   GL176069   5.845   2.780   6.164
 6029POPC   GL276070   5.811   2.625   6.164
 6029POPC   C1A76071   5.851   2.795   6.464
 6029POPC   D2A76072   5.891   2.787   6.764
 6029POPC   C3A76073   5.866   2.810   7.064
 6029POPC   C4A76074   5.896   2.734   7.364
 6029POPC   C1B76075   5.755   2.541   6.464
 6029POPC   C2B76076   5.758   2.574   6.764
 6029POPC   C3B76077   5.789   2.489   7.064
 6029POPC   C4B76078   5.761   2.530   7.364
 6030POPC   NC376079   0.483  13.602   5.564
 6030POPC   PO476080   0.483  13.602   5.864
 6030POPC   GL176081   0.418  13.589   6.164
 6030POPC   GL276082   0.361  13.668   6.164
 6030POPC   C1A76083   0.425  13.671   6.464
 6030POPC   D2A76084   0.427  13.675   6.764
 6030POPC   C3A76085   0.401  13.635   7.064
 6030POPC   C4A76086   0.422  13.657   7.364
 6030POPC   C1B76087   0.177  13.784   6.464
 6030POPC   C2B76088   0.246  13.706   6.764
 6030POPC   C3B76089   0.214  13.732   7.064
 6030POPC   C4B76090   0.242  13.716   7.364
 6031POPC   NC376091  36.079  16.770   5.564
 6031POPC   PO476092  36.162  16.690   5.864
 6031POPC   GL176093  36.089  16.687   6.164
 6031POPC   GL276094  36.109  16.882   6.164
 6031POPC   C1A76095  36.133  16.742   6.464
 6031POPC   D2A76096  36.141  16.721   6.764
 6031POPC   C3A76097  36.080  16.774   7.064
 6031POPC   C4A76098  36.161  16.713   7.364
 6031POPC   C1B76099  36.178  17.008   6.464
 6031POPC   C2B76100  36.154  16.992   6.764
 6031POPC   C3B76101  36.172  16.934   7.064
 6031POPC   C4B76102  36.116  16.950   7.364
 6032POPC   NC376103   1.250  12.881   5.564
 6032POPC   PO476104   1.165  12.881   5.864
 6032POPC   GL176105   1.262  12.837   6.164
 6032POPC   GL276106   1.347  12.913   6.164
 6032POPC   C1A76107   1.228  12.806   6.464
 6032POPC   D2A76108   1.182  12.900   6.764
 6032POPC   C3A76109   1.236  12.822   7.064
 6032POPC   C4A76110   1.216  12.841   7.364
 6032POPC   C1B76111   1.439  12.942   6.464
 6032POPC   C2B76112   1.391  13.031   6.764
 6032POPC   C3B76113   1.467  13.018   7.064
 6032POPC   C4B76114   1.405  12.966   7.364
 6033POPC   NC376115  15.199  11.280   5.564
 6033POPC   PO476116  15.183  11.273   5.864
 6033POPC   GL176117  15.151  11.256   6.164
 6033POPC   GL276118  15.114  11.453   6.164
 6033POPC   C1A76119  15.162  11.265   6.464
 6033POPC   D2A76120  15.170  11.299   6.764
 6033POPC   C3A76121  15.131  11.328   7.064
 6033POPC   C4A76122  15.224  11.258   7.364
 6033POPC   C1B76123  15.054  11.576   6.464
 6033POPC   C2B76124  15.059  11.539   6.764
 6033POPC   C3B76125  15.133  11.557   7.064
 6033POPC   C4B76126  15.097  11.575   7.364
 6034POPC   NC376127  22.963  38.432   5.564
 6034POPC   PO476128  22.909  38.418   5.864
 6034POPC   GL176129  22.922  38.465   6.164
 6034POPC   GL276130  23.003  38.353   6.164
 6034POPC   C1A76131  22.924  38.480   6.464
 6034POPC   D2A76132  22.933  38.437   6.764
 6034POPC   C3A76133  22.902  38.486   7.064
 6034POPC   C4A76134  22.969  38.439   7.364
 6034POPC   C1B76135  23.014  38.224   6.464
 6034POPC   C2B76136  22.977  38.268   6.764
 6034POPC   C3B76137  23.016  38.181   7.064
 6034POPC   C4B76138  22.999  38.257   7.364
 6035POPC   NC376139  15.912  44.704   5.564
 6035POPC   PO476140  15.919  44.700   5.864
 6035POPC   GL176141  15.909  44.613   6.164
 6035POPC   GL276142  15.821  44.555   6.164
 6035POPC   C1A76143  15.972  44.654   6.464
 6035POPC   D2A76144  15.923  44.695   6.764
 6035POPC   C3A76145  15.924  44.649   7.064
 6035POPC   C4A76146  15.957  44.670   7.364
 6035POPC   C1B76147  15.789  44.528   6.464
 6035POPC   C2B76148  15.736  44.520   6.764
 6035POPC   C3B76149  15.775  44.546   7.064
 6035POPC   C4B76150  15.744  44.481   7.364
 6036POPC   NC376151   2.739  40.805   5.564
 6036POPC   PO476152   2.812  40.798   5.864
 6036POPC   GL176153   2.733  40.753   6.164
 6036POPC   GL276154   2.616  40.775   6.164
 6036POPC   C1A76155   2.736  40.809   6.464
 6036POPC   D2A76156   2.772  40.826   6.764
 6036POPC   C3A76157   2.792  40.758   7.064
 6036POPC   C4A76158   2.755  40.816   7.364
 6036POPC   C1B76159   2.484  40.777   6.464
 6036POPC   C2B76160   2.524  40.711   6.764
 6036POPC   C3B76161   2.511  40.767   7.064
 6036POPC   C4B76162   2.491  40.699   7.364
 6037POPC   NC376163  22.152  34.580   5.564
 6037POPC   PO476164  22.133  34.599   5.864
 6037POPC   GL176165  22.190  34.580   6.164
 6037POPC   GL276166  22.025  34.633   6.164
 6037POPC   C1A76167  22.160  34.585   6.464
 6037POPC   D2A76168  22.181  34.589   6.764
 6037POPC   C3A76169  22.185  34.610   7.064
 6037POPC   C4A76170  22.160  34.571   7.364
 6037POPC   C1B76171  21.984  34.640   6.464
 6037POPC   C2B76172  21.934  34.663   6.764
 6037POPC   C3B76173  21.925  34.729   7.064
 6037POPC   C4B76174  21.916  34.635   7.364
 6038POPC   NC376175  20.637   1.223   5.564
 6038POPC   PO476176  20.660   1.169   5.864
 6038POPC   GL176177  20.636   1.210   6.164
 6038POPC   GL276178  20.638   1.069   6.164
 6038POPC   C1A76179  20.632   1.261   6.464
 6038POPC   D2A76180  20.567   1.225   6.764
 6038POPC   C3A76181  20.619   1.220   7.064
 6038POPC   C4A76182  20.650   1.210   7.364
 6038POPC   C1B76183  20.649   0.954   6.464
 6038POPC   C2B76184  20.634   0.981   6.764
 6038POPC   C3B76185  20.672   0.993   7.064
 6038POPC   C4B76186  20.678   0.973   7.364
 6039POPC   NC376187  26.846  17.494   5.564
 6039POPC   PO476188  26.811  17.508   5.864
 6039POPC   GL176189  26.816  17.482   6.164
 6039POPC   GL276190  26.649  17.544   6.164
 6039POPC   C1A76191  26.791  17.526   6.464
 6039POPC   D2A76192  26.809  17.463   6.764
 6039POPC   C3A76193  26.860  17.467   7.064
 6039POPC   C4A76194  26.768  17.534   7.364
 6039POPC   C1B76195  26.549  17.556   6.464
 6039POPC   C2B76196  26.596  17.624   6.764
 6039POPC   C3B76197  26.616  17.593   7.064
 6039POPC   C4B76198  26.567  17.609   7.364
 6040POPC   NC376199   5.127  27.585   5.564
 6040POPC   PO476200   5.046  27.589   5.864
 6040POPC   GL176201   5.119  27.636   6.164
 6040POPC   GL276202   5.145  27.766   6.164
 6040POPC   C1A76203   5.097  27.561   6.464
 6040POPC   D2A76204   5.120  27.612   6.764
 6040POPC   C3A76205   5.043  27.602   7.064
 6040POPC   C4A76206   5.117  27.550   7.364
 6040POPC   C1B76207   5.107  27.841   6.464
 6040POPC   C2B76208   5.171  27.792   6.764
 6040POPC   C3B76209   5.127  27.872   7.064
 6040POPC   C4B76210   5.133  27.828   7.364
 6041POPC   NC376211  13.579  14.380   5.564
 6041POPC   PO476212  13.620  14.453   5.864
 6041POPC   GL176213  13.611  14.372   6.164
 6041POPC   GL276214  13.730  14.498   6.164
 6041POPC   C1A76215  13.634  14.357   6.464
 6041POPC   D2A76216  13.578  14.402   6.764
 6041POPC   C3A76217  13.657  14.387   7.064
 6041POPC   C4A76218  13.625  14.355   7.364
 6041POPC   C1B76219  13.800  14.597   6.464
 6041POPC   C2B76220  13.781  14.557   6.764
 6041POPC   C3B76221  13.763  14.611   7.064
 6041POPC   C4B76222  13.785  14.554   7.364
 6042POPC   NC376223  33.791  12.804   5.564
 6042POPC   PO476224  33.820  12.811   5.864
 6042POPC   GL176225  33.849  12.825   6.164
 6042POPC   GL276226  33.919  12.743   6.164
 6042POPC   C1A76227  33.773  12.883   6.464
 6042POPC   D2A76228  33.760  12.807   6.764
 6042POPC   C3A76229  33.783  12.811   7.064
 6042POPC   C4A76230  33.849  12.835   7.364
 6042POPC   C1B76231  34.046  12.693   6.464
 6042POPC   C2B76232  33.970  12.710   6.764
 6042POPC   C3B76233  33.971  12.673   7.064
 6042POPC   C4B76234  34.012  12.697   7.364
 6043POPC   NC376235  14.382  33.831   5.564
 6043POPC   PO476236  14.438  33.812   5.864
 6043POPC   GL176237  14.374  33.799   6.164
 6043POPC   GL276238  14.412  33.901   6.164
 6043POPC   C1A76239  14.451  33.827   6.464
 6043POPC   D2A76240  14.377  33.769   6.764
 6043POPC   C3A76241  14.379  33.819   7.064
 6043POPC   C4A76242  14.407  33.779   7.364
 6043POPC   C1B76243  14.446  34.052   6.464
 6043POPC   C2B76244  14.477  34.090   6.764
 6043POPC   C3B76245  14.482  33.998   7.064
 6043POPC   C4B76246  14.469  34.062   7.364
 6044POPC   NC376247   1.981  43.096   5.564
 6044POPC   PO476248   1.960  43.134   5.864
 6044POPC   GL176249   1.996  43.150   6.164
 6044POPC   GL276250   2.047  43.236   6.164
 6044POPC   C1A76251   2.012  43.144   6.464
 6044POPC   D2A76252   1.947  43.105   6.764
 6044POPC   C3A76253   2.012  43.115   7.064
 6044POPC   C4A76254   1.973  43.126   7.364
 6044POPC   C1B76255   2.179  43.286   6.464
 6044POPC   C2B76256   2.148  43.284   6.764
 6044POPC   C3B76257   2.144  43.219   7.064
 6044POPC   C4B76258   2.230  43.283   7.364
 6045POPC   NC376259  29.145  43.903   5.564
 6045POPC   PO476260  29.139  43.850   5.864
 6045POPC   GL176261  29.170  43.883   6.164
 6045POPC   GL276262  29.122  43.771   6.164
 6045POPC   C1A76263  29.103  43.837   6.464
 6045POPC   D2A76264  29.156  43.851   6.764
 6045POPC   C3A76265  29.176  43.889   7.064
 6045POPC   C4A76266  29.099  43.925   7.364
 6045POPC   C1B76267  29.146  43.597   6.464
 6045POPC   C2B76268  29.194  43.656   6.764
 6045POPC   C3B76269  29.128  43.611   7.064
 6045POPC   C4B76270  29.224  43.608   7.364
 6046POPC   NC376271  15.139   5.089   5.564
 6046POPC   PO476272  15.193   5.113   5.864
 6046POPC   GL176273  15.223   5.111   6.164
 6046POPC   GL276274  15.084   5.085   6.164
 6046POPC   C1A76275  15.129   5.058   6.464
 6046POPC   D2A76276  15.177   5.094   6.764
 6046POPC   C3A76277  15.137   5.124   7.064
 6046POPC   C4A76278  15.141   5.128   7.364
 6046POPC   C1B76279  14.891   5.033   6.464
 6046POPC   C2B76280  14.936   5.056   6.764
 6046POPC   C3B76281  14.983   5.058   7.064
 6046POPC   C4B76282  14.974   5.052   7.364
 6047POPC   NC376283   1.250   9.769   5.564
 6047POPC   PO476284   1.253   9.750   5.864
 6047POPC   GL176285   1.217   9.753   6.164
 6047POPC   GL276286   1.378   9.799   6.164
 6047POPC   C1A76287   1.228   9.699   6.464
 6047POPC   D2A76288   1.227   9.717   6.764
 6047POPC   C3A76289   1.235   9.749   7.064
 6047POPC   C4A76290   1.212   9.783   7.364
 6047POPC   C1B76291   1.471   9.824   6.464
 6047POPC   C2B76292   1.438   9.827   6.764
 6047POPC   C3B76293   1.494   9.766   7.064
 6047POPC   C4B76294   1.415   9.829   7.364
 6048POPC   NC376295  18.258  29.922   5.564
 6048POPC   PO476296  18.318  29.922   5.864
 6048POPC   GL176297  18.256  29.894   6.164
 6048POPC   GL276298  18.143  29.860   6.164
 6048POPC   C1A76299  18.261  29.875   6.464
 6048POPC   D2A76300  18.289  29.876   6.764
 6048POPC   C3A76301  18.281  29.957   7.064
 6048POPC   C4A76302  18.314  29.874   7.364
 6048POPC   C1B76303  18.126  29.798   6.464
 6048POPC   C2B76304  18.111  29.725   6.764
 6048POPC   C3B76305  18.073  29.737   7.064
 6048POPC   C4B76306  18.053  29.765   7.364
 6049POPC   NC376307  40.797  33.052   5.564
 6049POPC   PO476308  40.780  33.015   5.864
 6049POPC   GL176309  40.818  32.993   6.164
 6049POPC   GL276310  40.644  33.037   6.164
 6049POPC   C1A76311  40.754  32.982   6.464
 6049POPC   D2A76312  40.807  33.016   6.764
 6049POPC   C3A76313  40.821  33.035   7.064
 6049POPC   C4A76314  40.792  32.977   7.364
 6049POPC   C1B76315  40.575  33.076   6.464
 6049POPC   C2B76316  40.535  33.074   6.764
 6049POPC   C3B76317  40.569  33.058   7.064
 6049POPC   C4B76318  40.511  33.149   7.364
 6050POPC   NC376319  25.263  19.033   5.564
 6050POPC   PO476320  25.262  19.034   5.864
 6050POPC   GL176321  25.242  19.023   6.164
 6050POPC   GL276322  25.352  19.153   6.164
 6050POPC   C1A76323  25.227  19.087   6.464
 6050POPC   D2A76324  25.237  19.046   6.764
 6050POPC   C3A76325  25.240  19.055   7.064
 6050POPC   C4A76326  25.220  19.051   7.364
 6050POPC   C1B76327  25.456  19.212   6.464
 6050POPC   C2B76328  25.482  19.200   6.764
 6050POPC   C3B76329  25.459  19.226   7.064
 6050POPC   C4B76330  25.463  19.264   7.364
 6051POPC   NC376331  27.599  36.130   5.564
 6051POPC   PO476332  27.613  36.121   5.864
 6051POPC   GL176333  27.627  36.089   6.164
 6051POPC   GL276334  27.567  36.275   6.164
 6051POPC   C1A76335  27.607  36.165   6.464
 6051POPC   D2A76336  27.583  36.127   6.764
 6051POPC   C3A76337  27.561  36.147   7.064
 6051POPC   C4A76338  27.617  36.101   7.364
 6051POPC   C1B76339  27.524  36.391   6.464
 6051POPC   C2B76340  27.468  36.356   6.764
 6051POPC   C3B76341  27.495  36.359   7.064
 6051POPC   C4B76342  27.489  36.322   7.364
 6052POPC   NC376343  21.435  38.465   5.564
 6052POPC   PO476344  21.401  38.492   5.864
 6052POPC   GL176345  21.393  38.408   6.164
 6052POPC   GL276346  21.499  38.343   6.164
 6052POPC   C1A76347  21.380  38.485   6.464
 6052POPC   D2A76348  21.394  38.491   6.764
 6052POPC   C3A76349  21.360  38.415   7.064
 6052POPC   C4A76350  21.432  38.429   7.364
 6052POPC   C1B76351  21.556  38.277   6.464
 6052POPC   C2B76352  21.511  38.302   6.764
 6052POPC   C3B76353  21.583  38.241   7.064
 6052POPC   C4B76354  21.567  38.250   7.364
 6053POPC   NC376355  34.564   2.779   5.564
 6053POPC   PO476356  34.599   2.716   5.864
 6053POPC   GL176357  34.585   2.808   6.164
 6053POPC   GL276358  34.623   2.905   6.164
 6053POPC   C1A76359  34.625   2.723   6.464
 6053POPC   D2A76360  34.558   2.791   6.764
 6053POPC   C3A76361  34.595   2.800   7.064
 6053POPC   C4A76362  34.593   2.759   7.364
 6053POPC   C1B76363  34.714   2.949   6.464
 6053POPC   C2B76364  34.745   2.990   6.764
 6053POPC   C3B76365  34.712   2.997   7.064
 6053POPC   C4B76366  34.731   2.952   7.364
 6054POPC   NC376367  31.434  12.883   5.564
 6054POPC   PO476368  31.516  12.807   5.864
 6054POPC   GL176369  31.477  12.838   6.164
 6054POPC   GL276370  31.515  12.739   6.164
 6054POPC   C1A76371  31.488  12.878   6.464
 6054POPC   D2A76372  31.504  12.804   6.764
 6054POPC   C3A76373  31.497  12.897   7.064
 6054POPC   C4A76374  31.504  12.864   7.364
 6054POPC   C1B76375  31.644  12.692   6.464
 6054POPC   C2B76376  31.692  12.685   6.764
 6054POPC   C3B76377  31.662  12.668   7.064
 6054POPC   C4B76378  31.667  12.645   7.364
 6055POPC   NC376379  28.402  32.242   5.564
 6055POPC   PO476380  28.349  32.286   5.864
 6055POPC   GL176381  28.344  32.244   6.164
 6055POPC   GL276382  28.413  32.151   6.164
 6055POPC   C1A76383  28.353  32.267   6.464
 6055POPC   D2A76384  28.386  32.226   6.764
 6055POPC   C3A76385  28.417  32.203   7.064
 6055POPC   C4A76386  28.358  32.219   7.364
 6055POPC   C1B76387  28.408  32.047   6.464
 6055POPC   C2B76388  28.387  31.997   6.764
 6055POPC   C3B76389  28.386  32.047   7.064
 6055POPC   C4B76390  28.431  32.002   7.364
 6056POPC   NC376391  37.676  14.400   5.564
 6056POPC   PO476392  37.719  14.417   5.864
 6056POPC   GL176393  37.717  14.440   6.164
 6056POPC   GL276394  37.744  14.343   6.164
 6056POPC   C1A76395  37.636  14.437   6.464
 6056POPC   D2A76396  37.699  14.437   6.764
 6056POPC   C3A76397  37.641  14.403   7.064
 6056POPC   C4A76398  37.724  14.446   7.364
 6056POPC   C1B76399  37.844  14.176   6.464
 6056POPC   C2B76400  37.830  14.156   6.764
 6056POPC   C3B76401  37.791  14.176   7.064
 6056POPC   C4B76402  37.811  14.220   7.364
 6057POPC   NC376403   5.090  10.498   5.564
 6057POPC   PO476404   5.066  10.490   5.864
 6057POPC   GL176405   5.117  10.564   6.164
 6057POPC   GL276406   5.034  10.641   6.164
 6057POPC   C1A76407   5.050  10.497   6.464
 6057POPC   D2A76408   5.064  10.561   6.764
 6057POPC   C3A76409   5.107  10.496   7.064
 6057POPC   C4A76410   5.087  10.561   7.364
 6057POPC   C1B76411   4.915  10.749   6.464
 6057POPC   C2B76412   4.907  10.743   6.764
 6057POPC   C3B76413   4.908  10.722   7.064
 6057POPC   C4B76414   4.951  10.756   7.364
 6058POPC   NC376415  40.753  36.881   5.564
 6058POPC   PO476416  40.742  36.953   5.864
 6058POPC   GL176417  40.752  36.856   6.164
 6058POPC   GL276418  40.778  37.053   6.164
 6058POPC   C1A76419  40.790  36.901   6.464
 6058POPC   D2A76420  40.752  36.911   6.764
 6058POPC   C3A76421  40.771  36.929   7.064
 6058POPC   C4A76422  40.791  36.907   7.364
 6058POPC   C1B76423  40.774  37.153   6.464
 6058POPC   C2B76424  40.754  37.177   6.764
 6058POPC   C3B76425  40.744  37.153   7.064
 6058POPC   C4B76426  40.713  37.188   7.364
 6059POPC   NC376427  44.697  25.293   5.564
 6059POPC   PO476428  44.615  25.285   5.864
 6059POPC   GL176429  44.683  25.251   6.164
 6059POPC   GL276430  44.756  25.259   6.164
 6059POPC   C1A76431  44.679  25.267   6.464
 6059POPC   D2A76432  44.613  25.217   6.764
 6059POPC   C3A76433  44.643  25.269   7.064
 6059POPC   C4A76434  44.647  25.250   7.364
 6059POPC   C1B76435  44.867  25.219   6.464
 6059POPC   C2B76436  44.871  25.269   6.764
 6059POPC   C3B76437  44.877  25.281   7.064
 6059POPC   C4B76438  44.940  25.216   7.364
 6060POPC   NC376439  21.409  21.348   5.564
 6060POPC   PO476440  21.352  21.353   5.864
 6060POPC   GL176441  21.342  21.364   6.164
 6060POPC   GL276442  21.281  21.476   6.164
 6060POPC   C1A76443  21.393  21.430   6.464
 6060POPC   D2A76444  21.420  21.410   6.764
 6060POPC   C3A76445  21.342  21.413   7.064
 6060POPC   C4A76446  21.420  21.352   7.364
 6060POPC   C1B76447  21.298  21.586   6.464
 6060POPC   C2B76448  21.264  21.634   6.764
 6060POPC   C3B76449  21.270  21.606   7.064
 6060POPC   C4B76450  21.241  21.555   7.364
 6061POPC   NC376451   6.615  27.595   5.564
 6061POPC   PO476452   6.664  27.642   5.864
 6061POPC   GL176453   6.653  27.567   6.164
 6061POPC   GL276454   6.505  27.533   6.164
 6061POPC   C1A76455   6.671  27.564   6.464
 6061POPC   D2A76456   6.685  27.638   6.764
 6061POPC   C3A76457   6.690  27.556   7.064
 6061POPC   C4A76458   6.694  27.545   7.364
 6061POPC   C1B76459   6.498  27.404   6.464
 6061POPC   C2B76460   6.414  27.447   6.764
 6061POPC   C3B76461   6.500  27.447   7.064
 6061POPC   C4B76462   6.493  27.463   7.364
 6062POPC   NC376463  12.815  43.853   5.564
 6062POPC   PO476464  12.805  43.847   5.864
 6062POPC   GL176465  12.813  43.887   6.164
 6062POPC   GL276466  12.849  43.775   6.164
 6062POPC   C1A76467  12.878  43.899   6.464
 6062POPC   D2A76468  12.803  43.862   6.764
 6062POPC   C3A76469  12.886  43.848   7.064
 6062POPC   C4A76470  12.821  43.843   7.364
 6062POPC   C1B76471  12.823  43.621   6.464
 6062POPC   C2B76472  12.822  43.657   6.764
 6062POPC   C3B76473  12.826  43.629   7.064
 6062POPC   C4B76474  12.820  43.596   7.364
 6063POPC   NC376475  29.959  28.320   5.564
 6063POPC   PO476476  29.929  28.319   5.864
 6063POPC   GL176477  29.897  28.362   6.164
 6063POPC   GL276478  29.949  28.458   6.164
 6063POPC   C1A76479  29.939  28.320   6.464
 6063POPC   D2A76480  29.921  28.342   6.764
 6063POPC   C3A76481  29.887  28.383   7.064
 6063POPC   C4A76482  29.897  28.377   7.364
 6063POPC   C1B76483  30.045  28.598   6.464
 6063POPC   C2B76484  30.052  28.589   6.764
 6063POPC   C3B76485  30.068  28.557   7.064
 6063POPC   C4B76486  30.045  28.534   7.364
 6064POPC   NC376487  15.224  26.025   5.564
 6064POPC   PO476488  15.155  26.066   5.864
 6064POPC   GL176489  15.211  26.076   6.164
 6064POPC   GL276490  15.102  26.094   6.164
 6064POPC   C1A76491  15.136  26.049   6.464
 6064POPC   D2A76492  15.149  26.071   6.764
 6064POPC   C3A76493  15.201  26.030   7.064
 6064POPC   C4A76494  15.197  26.084   7.364
 6064POPC   C1B76495  15.028  26.232   6.464
 6064POPC   C2B76496  14.954  26.158   6.764
 6064POPC   C3B76497  14.961  26.169   7.064
 6064POPC   C4B76498  14.948  26.166   7.364
 6065POPC   NC376499   0.478  20.562   5.564
 6065POPC   PO476500   0.473  20.656   5.864
 6065POPC   GL176501   0.415  20.655   6.164
 6065POPC   GL276502   0.530  20.679   6.164
 6065POPC   C1A76503   0.487  20.592   6.464
 6065POPC   D2A76504   0.463  20.607   6.764
 6065POPC   C3A76505   0.451  20.648   7.064
 6065POPC   C4A76506   0.449  20.595   7.364
 6065POPC   C1B76507   0.656  20.668   6.464
 6065POPC   C2B76508   0.629  20.728   6.764
 6065POPC   C3B76509   0.678  20.750   7.064
 6065POPC   C4B76510   0.645  20.747   7.364
 6066POPC   NC376511  12.040  27.566   5.564
 6066POPC   PO476512  12.100  27.561   5.864
 6066POPC   GL176513  12.029  27.575   6.164
 6066POPC   GL276514  12.089  27.720   6.164
 6066POPC   C1A76515  12.104  27.544   6.464
 6066POPC   D2A76516  12.070  27.552   6.764
 6066POPC   C3A76517  12.107  27.602   7.064
 6066POPC   C4A76518  12.097  27.619   7.364
 6066POPC   C1B76519  12.180  27.835   6.464
 6066POPC   C2B76520  12.237  27.776   6.764
 6066POPC   C3B76521  12.202  27.765   7.064
 6066POPC   C4B76522  12.169  27.834   7.364
 6067POPC   NC376523  21.373  15.133   5.564
 6067POPC   PO476524  21.411  15.185   5.864
 6067POPC   GL176525  21.410  15.172   6.164
 6067POPC   GL276526  21.550  15.187   6.164
 6067POPC   C1A76527  21.409  15.151   6.464
 6067POPC   D2A76528  21.423  15.162   6.764
 6067POPC   C3A76529  21.408  15.214   7.064
 6067POPC   C4A76530  21.397  15.205   7.364
 6067POPC   C1B76531  21.681  15.228   6.464
 6067POPC   C2B76532  21.620  15.254   6.764
 6067POPC   C3B76533  21.601  15.186   7.064
 6067POPC   C4B76534  21.656  15.216   7.364
 6068POPC   NC376535   5.915  41.576   5.564
 6068POPC   PO476536   5.850  41.553   5.864
 6068POPC   GL176537   5.843  41.586   6.164
 6068POPC   GL276538   5.870  41.699   6.164
 6068POPC   C1A76539   5.859  41.557   6.464
 6068POPC   D2A76540   5.886  41.576   6.764
 6068POPC   C3A76541   5.877  41.533   7.064
 6068POPC   C4A76542   5.886  41.602   7.364
 6068POPC   C1B76543   5.791  41.776   6.464
 6068POPC   C2B76544   5.855  41.845   6.764
 6068POPC   C3B76545   5.832  41.775   7.064
 6068POPC   C4B76546   5.856  41.838   7.364
 6069POPC   NC376547  44.710  26.772   5.564
 6069POPC   PO476548  44.684  26.864   5.864
 6069POPC   GL176549  44.614  26.856   6.164
 6069POPC   GL276550  44.700  26.912   6.164
 6069POPC   C1A76551  44.710  26.831   6.464
 6069POPC   D2A76552  44.617  26.803   6.764
 6069POPC   C3A76553  44.654  26.775   7.064
 6069POPC   C4A76554  44.687  26.778   7.364
 6069POPC   C1B76555  44.777  27.017   6.464
 6069POPC   C2B76556  44.795  26.996   6.764
 6069POPC   C3B76557  44.762  27.045   7.064
 6069POPC   C4B76558  44.786  27.007   7.364
 6070POPC   NC376559  21.366  19.023   5.564
 6070POPC   PO476560  21.413  19.093   5.864
 6070POPC   GL176561  21.377  19.062   6.164
 6070POPC   GL276562  21.269  18.940   6.164
 6070POPC   C1A76563  21.355  19.078   6.464
 6070POPC   D2A76564  21.412  19.052   6.764
 6070POPC   C3A76565  21.385  19.059   7.064
 6070POPC   C4A76566  21.402  19.096   7.364
 6070POPC   C1B76567  21.229  18.856   6.464
 6070POPC   C2B76568  21.171  18.892   6.764
 6070POPC   C3B76569  21.246  18.915   7.064
 6070POPC   C4B76570  21.214  18.881   7.364
 6071POPC   NC376571  21.412  25.225   5.564
 6071POPC   PO476572  21.344  25.282   5.864
 6071POPC   GL176573  21.359  25.241   6.164
 6071POPC   GL276574  21.286  25.299   6.164
 6071POPC   C1A76575  21.364  25.280   6.464
 6071POPC   D2A76576  21.372  25.287   6.764
 6071POPC   C3A76577  21.395  25.267   7.064
 6071POPC   C4A76578  21.415  25.269   7.364
 6071POPC   C1B76579  21.170  25.245   6.464
 6071POPC   C2B76580  21.173  25.200   6.764
 6071POPC   C3B76581  21.095  25.223   7.064
 6071POPC   C4B76582  21.139  25.205   7.364
 6072POPC   NC376583  16.761  33.799   5.564
 6072POPC   PO476584  16.760  33.782   5.864
 6072POPC   GL176585  16.684  33.791   6.164
 6072POPC   GL276586  16.753  33.658   6.164
 6072POPC   C1A76587  16.704  33.842   6.464
 6072POPC   D2A76588  16.754  33.791   6.764
 6072POPC   C3A76589  16.697  33.761   7.064
 6072POPC   C4A76590  16.777  33.775   7.364
 6072POPC   C1B76591  16.643  33.596   6.464
 6072POPC   C2B76592  16.673  33.592   6.764
 6072POPC   C3B76593  16.699  33.579   7.064
 6072POPC   C4B76594  16.638  33.565   7.364
 6073POPC   NC376595   2.761   4.361   5.564
 6073POPC   PO476596   2.801   4.280   5.864
 6073POPC   GL176597   2.750   4.285   6.164
 6073POPC   GL276598   2.825   4.244   6.164
 6073POPC   C1A76599   2.727   4.321   6.464
 6073POPC   D2A76600   2.749   4.355   6.764
 6073POPC   C3A76601   2.760   4.332   7.064
 6073POPC   C4A76602   2.748   4.318   7.364
 6073POPC   C1B76603   2.885   4.067   6.464
 6073POPC   C2B76604   2.861   4.092   6.764
 6073POPC   C3B76605   2.876   4.042   7.064
 6073POPC   C4B76606   2.841   4.071   7.364
 6074POPC   NC376607   2.727  12.854   5.564
 6074POPC   PO476608   2.720  12.823   5.864
 6074POPC   GL176609   2.815  12.861   6.164
 6074POPC   GL276610   2.641  12.774   6.164
 6074POPC   C1A76611   2.771  12.853   6.464
 6074POPC   D2A76612   2.780  12.852   6.764
 6074POPC   C3A76613   2.731  12.863   7.064
 6074POPC   C4A76614   2.749  12.871   7.364
 6074POPC   C1B76615   2.550  12.743   6.464
 6074POPC   C2B76616   2.487  12.750   6.764
 6074POPC   C3B76617   2.559  12.804   7.064
 6074POPC   C4B76618   2.532  12.792   7.364
 6075POPC   NC376619  26.780  16.761   5.564
 6075POPC   PO476620  26.808  16.698   5.864
 6075POPC   GL176621  26.823  16.744   6.164
 6075POPC   GL276622  26.686  16.770   6.164
 6075POPC   C1A76623  26.854  16.705   6.464
 6075POPC   D2A76624  26.776  16.712   6.764
 6075POPC   C3A76625  26.814  16.758   7.064
 6075POPC   C4A76626  26.820  16.762   7.364
 6075POPC   C1B76627  26.561  16.714   6.464
 6075POPC   C2B76628  26.608  16.695   6.764
 6075POPC   C3B76629  26.573  16.765   7.064
 6075POPC   C4B76630  26.571  16.714   7.364
 6076POPC   NC376631  33.782  29.192   5.564
 6076POPC   PO476632  33.843  29.189   5.864
 6076POPC   GL176633  33.763  29.141   6.164
 6076POPC   GL276634  33.876  29.050   6.164
 6076POPC   C1A76635  33.753  29.186   6.464
 6076POPC   D2A76636  33.801  29.145   6.764
 6076POPC   C3A76637  33.824  29.104   7.064
 6076POPC   C4A76638  33.826  29.097   7.364
 6076POPC   C1B76639  33.903  28.940   6.464
 6076POPC   C2B76640  33.944  28.897   6.764
 6076POPC   C3B76641  33.927  28.894   7.064
 6076POPC   C4B76642  33.957  28.974   7.364
 6077POPC   NC376643  28.353  26.829   5.564
 6077POPC   PO476644  28.408  26.770   5.864
 6077POPC   GL176645  28.346  26.841   6.164
 6077POPC   GL276646  28.417  26.714   6.164
 6077POPC   C1A76647  28.362  26.813   6.464
 6077POPC   D2A76648  28.380  26.798   6.764
 6077POPC   C3A76649  28.353  26.794   7.064
 6077POPC   C4A76650  28.335  26.835   7.364
 6077POPC   C1B76651  28.385  26.616   6.464
 6077POPC   C2B76652  28.406  26.592   6.764
 6077POPC   C3B76653  28.430  26.527   7.064
 6077POPC   C4B76654  28.389  26.531   7.364
 6078POPC   NC376655  35.375  25.306   5.564
 6078POPC   PO476656  35.378  25.298   5.864
 6078POPC   GL176657  35.369  25.275   6.164
 6078POPC   GL276658  35.415  25.415   6.164
 6078POPC   C1A76659  35.306  25.260   6.464
 6078POPC   D2A76660  35.331  25.279   6.764
 6078POPC   C3A76661  35.379  25.225   7.064
 6078POPC   C4A76662  35.397  25.310   7.364
 6078POPC   C1B76663  35.421  25.489   6.464
 6078POPC   C2B76664  35.389  25.497   6.764
 6078POPC   C3B76665  35.426  25.491   7.064
 6078POPC   C4B76666  35.410  25.484   7.364
 6079POPC   NC376667   1.951  25.255   5.564
 6079POPC   PO476668   1.950  25.216   5.864
 6079POPC   GL176669   2.016  25.221   6.164
 6079POPC   GL276670   1.895  25.192   6.164
 6079POPC   C1A76671   2.032  25.305   6.464
 6079POPC   D2A76672   2.039  25.260   6.764
 6079POPC   C3A76673   2.036  25.223   7.064
 6079POPC   C4A76674   1.951  25.308   7.364
 6079POPC   C1B76675   1.718  25.132   6.464
 6079POPC   C2B76676   1.809  25.165   6.764
 6079POPC   C3B76677   1.802  25.148   7.064
 6079POPC   C4B76678   1.798  25.153   7.364
 6080POPC   NC376679   6.681  12.112   5.564
 6080POPC   PO476680   6.608  12.064   5.864
 6080POPC   GL176681   6.685  12.078   6.164
 6080POPC   GL276682   6.736  12.132   6.164
 6080POPC   C1A76683   6.666  12.112   6.464
 6080POPC   D2A76684   6.604  12.105   6.764
 6080POPC   C3A76685   6.659  12.068   7.064
 6080POPC   C4A76686   6.636  12.090   7.364
 6080POPC   C1B76687   6.917  12.135   6.464
 6080POPC   C2B76688   6.839  12.212   6.764
 6080POPC   C3B76689   6.921  12.195   7.064
 6080POPC   C4B76690   6.865  12.195   7.364
 6081POPC   NC376691  11.265  36.901   5.564
 6081POPC   PO476692  11.260  36.928   5.864
 6081POPC   GL176693  11.266  36.938   6.164
 6081POPC   GL276694  11.452  36.891   6.164
 6081POPC   C1A76695  11.285  36.878   6.464
 6081POPC   D2A76696  11.286  36.889   6.764
 6081POPC   C3A76697  11.342  36.855   7.064
 6081POPC   C4A76698  11.334  36.915   7.364
 6081POPC   C1B76699  11.498  36.832   6.464
 6081POPC   C2B76700  11.532  36.842   6.764
 6081POPC   C3B76701  11.581  36.833   7.064
 6081POPC   C4B76702  11.519  36.874   7.364
 6082POPC   NC376703  14.396  28.373   5.564
 6082POPC   PO476704  14.447  28.373   5.864
 6082POPC   GL176705  14.445  28.410   6.164
 6082POPC   GL276706  14.321  28.327   6.164
 6082POPC   C1A76707  14.430  28.348   6.464
 6082POPC   D2A76708  14.445  28.407   6.764
 6082POPC   C3A76709  14.410  28.332   7.064
 6082POPC   C4A76710  14.403  28.322   7.364
 6082POPC   C1B76711  14.108  28.325   6.464
 6082POPC   C2B76712  14.143  28.348   6.764
 6082POPC   C3B76713  14.140  28.317   7.064
 6082POPC   C4B76714  14.150  28.364   7.364
 6083POPC   NC376715  22.202  41.601   5.564
 6083POPC   PO476716  22.183  41.548   5.864
 6083POPC   GL176717  22.187  41.543   6.164
 6083POPC   GL276718  22.150  41.726   6.164
 6083POPC   C1A76719  22.202  41.515   6.464
 6083POPC   D2A76720  22.157  41.543   6.764
 6083POPC   C3A76721  22.169  41.534   7.064
 6083POPC   C4A76722  22.195  41.511   7.364
 6083POPC   C1B76723  22.072  41.771   6.464
 6083POPC   C2B76724  22.138  41.839   6.764
 6083POPC   C3B76725  22.052  41.777   7.064
 6083POPC   C4B76726  22.079  41.780   7.364
 6084POPC   NC376727  33.830  31.466   5.564
 6084POPC   PO476728  33.750  31.487   5.864
 6084POPC   GL176729  33.799  31.455   6.164
 6084POPC   GL276730  33.856  31.530   6.164
 6084POPC   C1A76731  33.765  31.447   6.464
 6084POPC   D2A76732  33.812  31.464   6.764
 6084POPC   C3A76733  33.755  31.513   7.064
 6084POPC   C4A76734  33.773  31.490   7.364
 6084POPC   C1B76735  33.890  31.725   6.464
 6084POPC   C2B76736  33.946  31.677   6.764
 6084POPC   C3B76737  33.932  31.650   7.064
 6084POPC   C4B76738  33.973  31.642   7.364
 6085POPC   NC376739  39.249   2.731   5.564
 6085POPC   PO476740  39.198   2.772   5.864
 6085POPC   GL176741  39.216   2.765   6.164
 6085POPC   GL276742  39.385   2.813   6.164
 6085POPC   C1A76743  39.275   2.746   6.464
 6085POPC   D2A76744  39.216   2.743   6.764
 6085POPC   C3A76745  39.248   2.735   7.064
 6085POPC   C4A76746  39.198   2.786   7.364
 6085POPC   C1B76747  39.454   2.840   6.464
 6085POPC   C2B76748  39.443   2.819   6.764
 6085POPC   C3B76749  39.476   2.883   7.064
 6085POPC   C4B76750  39.443   2.835   7.364
 6086POPC   NC376751   4.343   4.280   5.564
 6086POPC   PO476752   4.324   4.355   5.864
 6086POPC   GL176753   4.322   4.324   6.164
 6086POPC   GL276754   4.212   4.350   6.164
 6086POPC   C1A76755   4.325   4.293   6.464
 6086POPC   D2A76756   4.329   4.307   6.764
 6086POPC   C3A76757   4.312   4.357   7.064
 6086POPC   C4A76758   4.315   4.333   7.364
 6086POPC   C1B76759   4.027   4.358   6.464
 6086POPC   C2B76760   4.023   4.297   6.764
 6086POPC   C3B76761   4.043   4.394   7.064
 6086POPC   C4B76762   4.114   4.359   7.364
 6087POPC   NC376763  23.714  20.628   5.564
 6087POPC   PO476764  23.712  20.571   5.864
 6087POPC   GL176765  23.688  20.629   6.164
 6087POPC   GL276766  23.783  20.731   6.164
 6087POPC   C1A76767  23.705  20.568   6.464
 6087POPC   D2A76768  23.669  20.607   6.764
 6087POPC   C3A76769  23.733  20.646   7.064
 6087POPC   C4A76770  23.733  20.646   7.364
 6087POPC   C1B76771  23.844  20.816   6.464
 6087POPC   C2B76772  23.872  20.860   6.764
 6087POPC   C3B76773  23.886  20.770   7.064
 6087POPC   C4B76774  23.872  20.814   7.364
 6088POPC   NC376775  18.256  12.817   5.564
 6088POPC   PO476776  18.240  12.884   5.864
 6088POPC   GL176777  18.271  12.859   6.164
 6088POPC   GL276778  18.311  12.983   6.164
 6088POPC   C1A76779  18.319  12.871   6.464
 6088POPC   D2A76780  18.290  12.885   6.764
 6088POPC   C3A76781  18.270  12.832   7.064
 6088POPC   C4A76782  18.314  12.847   7.364
 6088POPC   C1B76783  18.375  13.108   6.464
 6088POPC   C2B76784  18.327  13.143   6.764
 6088POPC   C3B76785  18.331  13.059   7.064
 6088POPC   C4B76786  18.374  13.102   7.364
 6089POPC   NC376787  16.710  25.236   5.564
 6089POPC   PO476788  16.720  25.310   5.864
 6089POPC   GL176789  16.727  25.233   6.164
 6089POPC   GL276790  16.595  25.199   6.164
 6089POPC   C1A76791  16.767  25.274   6.464
 6089POPC   D2A76792  16.771  25.259   6.764
 6089POPC   C3A76793  16.769  25.226   7.064
 6089POPC   C4A76794  16.704  25.308   7.364
 6089POPC   C1B76795  16.467  25.183   6.464
 6089POPC   C2B76796  16.499  25.191   6.764
 6089POPC   C3B76797  16.484  25.223   7.064
 6089POPC   C4B76798  16.531  25.151   7.364
 6090POPC   NC376799  26.856   4.360   5.564
 6090POPC   PO476800  26.788   4.366   5.864
 6090POPC   GL176801  26.820   4.294   6.164
 6090POPC   GL276802  26.750   4.252   6.164
 6090POPC   C1A76803  26.774   4.341   6.464
 6090POPC   D2A76804  26.863   4.293   6.764
 6090POPC   C3A76805  26.771   4.312   7.064
 6090POPC   C4A76806  26.849   4.323   7.364
 6090POPC   C1B76807  26.614   4.089   6.464
 6090POPC   C2B76808  26.634   4.179   6.764
 6090POPC   C3B76809  26.651   4.094   7.064
 6090POPC   C4B76810  26.667   4.158   7.364
 6091POPC   NC376811  19.067   8.152   5.564
 6091POPC   PO476812  19.084   8.214   5.864
 6091POPC   GL176813  19.047   8.211   6.164
 6091POPC   GL276814  19.074   8.117   6.164
 6091POPC   C1A76815  19.083   8.242   6.464
 6091POPC   D2A76816  19.086   8.147   6.764
 6091POPC   C3A76817  19.075   8.156   7.064
 6091POPC   C4A76818  19.094   8.205   7.364
 6091POPC   C1B76819  19.099   7.968   6.464
 6091POPC   C2B76820  19.099   7.961   6.764
 6091POPC   C3B76821  19.181   7.959   7.064
 6091POPC   C4B76822  19.124   7.911   7.364
 6092POPC   NC376823  43.842   5.068   5.564
 6092POPC   PO476824  43.927   5.121   5.864
 6092POPC   GL176825  43.898   5.073   6.164
 6092POPC   GL276826  43.806   4.977   6.164
 6092POPC   C1A76827  43.858   5.095   6.464
 6092POPC   D2A76828  43.927   5.073   6.764
 6092POPC   C3A76829  43.889   5.071   7.064
 6092POPC   C4A76830  43.934   5.045   7.364
 6092POPC   C1B76831  43.781   4.834   6.464
 6092POPC   C2B76832  43.777   4.912   6.764
 6092POPC   C3B76833  43.727   4.869   7.064
 6092POPC   C4B76834  43.730   4.874   7.364
 6093POPC   NC376835  34.595  35.357   5.564
 6093POPC   PO476836  34.611  35.303   5.864
 6093POPC   GL176837  34.618  35.314   6.164
 6093POPC   GL276838  34.459  35.360   6.164
 6093POPC   C1A76839  34.548  35.362   6.464
 6093POPC   D2A76840  34.548  35.347   6.764
 6093POPC   C3A76841  34.615  35.308   7.064
 6093POPC   C4A76842  34.560  35.381   7.364
 6093POPC   C1B76843  34.331  35.350   6.464
 6093POPC   C2B76844  34.318  35.325   6.764
 6093POPC   C3B76845  34.376  35.301   7.064
 6093POPC   C4B76846  34.277  35.307   7.364
 6094POPC   NC376847  14.433  41.605   5.564
 6094POPC   PO476848  14.453  41.552   5.864
 6094POPC   GL176849  14.359  41.530   6.164
 6094POPC   GL276850  14.493  41.660   6.164
 6094POPC   C1A76851  14.431  41.601   6.464
 6094POPC   D2A76852  14.409  41.561   6.764
 6094POPC   C3A76853  14.376  41.518   7.064
 6094POPC   C4A76854  14.380  41.521   7.364
 6094POPC   C1B76855  14.600  41.654   6.464
 6094POPC   C2B76856  14.658  41.716   6.764
 6094POPC   C3B76857  14.624  41.718   7.064
 6094POPC   C4B76858  14.571  41.689   7.364
 6095POPC   NC376859  26.043  38.496   5.564
 6095POPC   PO476860  26.038  38.500   5.864
 6095POPC   GL176861  26.051  38.406   6.164
 6095POPC   GL276862  26.131  38.369   6.164
 6095POPC   C1A76863  26.003  38.441   6.464
 6095POPC   D2A76864  26.048  38.448   6.764
 6095POPC   C3A76865  26.047  38.432   7.064
 6095POPC   C4A76866  26.037  38.445   7.364
 6095POPC   C1B76867  26.255  38.324   6.464
 6095POPC   C2B76868  26.199  38.301   6.764
 6095POPC   C3B76869  26.264  38.256   7.064
 6095POPC   C4B76870  26.270  38.304   7.364
 6096POPC   NC376871   6.641  19.025   5.564
 6096POPC   PO476872   6.633  19.084   5.864
 6096POPC   GL176873   6.665  19.049   6.164
 6096POPC   GL276874   6.681  18.954   6.164
 6096POPC   C1A76875   6.602  19.035   6.464
 6096POPC   D2A76876   6.614  19.013   6.764
 6096POPC   C3A76877   6.693  19.017   7.064
 6096POPC   C4A76878   6.644  19.050   7.364
 6096POPC   C1B76879   6.785  18.812   6.464
 6096POPC   C2B76880   6.712  18.800   6.764
 6096POPC   C3B76881   6.771  18.811   7.064
 6096POPC   C4B76882   6.762  18.788   7.364
 6097POPC   NC376883  35.340   5.856   5.564
 6097POPC   PO476884  35.376   5.851   5.864
 6097POPC   GL176885  35.324   5.897   6.164
 6097POPC   GL276886  35.463   5.963   6.164
 6097POPC   C1A76887  35.316   5.909   6.464
 6097POPC   D2A76888  35.336   5.879   6.764
 6097POPC   C3A76889  35.333   5.831   7.064
 6097POPC   C4A76890  35.353   5.913   7.364
 6097POPC   C1B76891  35.522   6.029   6.464
 6097POPC   C2B76892  35.555   6.076   6.764
 6097POPC   C3B76893  35.537   6.072   7.064
 6097POPC   C4B76894  35.528   5.998   7.364
 6098POPC   NC376895  25.269  41.516   5.564
 6098POPC   PO476896  25.260  41.586   5.864
 6098POPC   GL176897  25.233  41.575   6.164
 6098POPC   GL276898  25.430  41.546   6.164
 6098POPC   C1A76899  25.229  41.588   6.464
 6098POPC   D2A76900  25.249  41.521   6.764
 6098POPC   C3A76901  25.302  41.597   7.064
 6098POPC   C4A76902  25.268  41.570   7.364
 6098POPC   C1B76903  25.482  41.603   6.464
 6098POPC   C2B76904  25.477  41.612   6.764
 6098POPC   C3B76905  25.545  41.625   7.064
 6098POPC   C4B76906  25.537  41.592   7.364
 6099POPC   NC376907   9.722  29.182   5.564
 6099POPC   PO476908   9.771  29.137   5.864
 6099POPC   GL176909   9.725  29.149   6.164
 6099POPC   GL276910   9.655  29.293   6.164
 6099POPC   C1A76911   9.717  29.119   6.464
 6099POPC   D2A76912   9.749  29.095   6.764
 6099POPC   C3A76913   9.766  29.113   7.064
 6099POPC   C4A76914   9.749  29.166   7.364
 6099POPC   C1B76915   9.608  29.399   6.464
 6099POPC   C2B76916   9.613  29.309   6.764
 6099POPC   C3B76917   9.575  29.355   7.064
 6099POPC   C4B76918   9.601  29.360   7.364
 6100POPC   NC376919  20.598  22.160   5.564
 6100POPC   PO476920  20.619  22.135   5.864
 6100POPC   GL176921  20.610  22.132   6.164
 6100POPC   GL276922  20.712  22.110   6.164
 6100POPC   C1A76923  20.624  22.176   6.464
 6100POPC   D2A76924  20.598  22.133   6.764
 6100POPC   C3A76925  20.619  22.123   7.064
 6100POPC   C4A76926  20.599  22.168   7.364
 6100POPC   C1B76927  20.754  21.943   6.464
 6100POPC   C2B76928  20.824  22.020   6.764
 6100POPC   C3B76929  20.773  21.976   7.064
 6100POPC   C4B76930  20.781  22.024   7.364
 6101POPC   NC376931   5.116  21.414   5.564
 6101POPC   PO476932   5.121  21.374   5.864
 6101POPC   GL176933   5.137  21.373   6.164
 6101POPC   GL276934   4.924  21.325   6.164
 6101POPC   C1A76935   5.092  21.376   6.464
 6101POPC   D2A76936   5.129  21.391   6.764
 6101POPC   C3A76937   5.116  21.411   7.064
 6101POPC   C4A76938   5.078  21.412   7.364
 6101POPC   C1B76939   4.826  21.312   6.464
 6101POPC   C2B76940   4.809  21.365   6.764
 6101POPC   C3B76941   4.870  21.352   7.064
 6101POPC   C4B76942   4.828  21.322   7.364
 6102POPC   NC376943  22.168  14.358   5.564
 6102POPC   PO476944  22.192  14.434   5.864
 6102POPC   GL176945  22.114  14.451   6.164
 6102POPC   GL276946  22.219  14.328   6.164
 6102POPC   C1A76947  22.167  14.437   6.464
 6102POPC   D2A76948  22.200  14.355   6.764
 6102POPC   C3A76949  22.147  14.417   7.064
 6102POPC   C4A76950  22.119  14.425   7.364
 6102POPC   C1B76951  22.319  14.193   6.464
 6102POPC   C2B76952  22.348  14.287   6.764
 6102POPC   C3B76953  22.343  14.226   7.064
 6102POPC   C4B76954  22.302  14.263   7.364
 6103POPC   NC376955  12.079  39.210   5.564
 6103POPC   PO476956  12.088  39.215   5.864
 6103POPC   GL176957  12.040  39.223   6.164
 6103POPC   GL276958  11.967  39.238   6.164
 6103POPC   C1A76959  12.041  39.246   6.464
 6103POPC   D2A76960  12.068  39.192   6.764
 6103POPC   C3A76961  12.051  39.192   7.064
 6103POPC   C4A76962  12.090  39.274   7.364
 6103POPC   C1B76963  11.851  39.300   6.464
 6103POPC   C2B76964  11.803  39.330   6.764
 6103POPC   C3B76965  11.882  39.364   7.064
 6103POPC   C4B76966  11.821  39.284   7.364
 6104POPC   NC376967  33.824   8.176   5.564
 6104POPC   PO476968  33.756   8.178   5.864
 6104POPC   GL176969  33.775   8.176   6.164
 6104POPC   GL276970  33.719   8.055   6.164
 6104POPC   C1A76971  33.786   8.231   6.464
 6104POPC   D2A76972  33.784   8.229   6.764
 6104POPC   C3A76973  33.754   8.153   7.064
 6104POPC   C4A76974  33.808   8.187   7.364
 6104POPC   C1B76975  33.760   7.936   6.464
 6104POPC   C2B76976  33.716   7.948   6.764
 6104POPC   C3B76977  33.706   7.988   7.064
 6104POPC   C4B76978  33.725   8.000   7.364
 6105POPC   NC376979  29.899  18.289   5.564
 6105POPC   PO476980  29.956  18.273   5.864
 6105POPC   GL176981  29.909  18.332   6.164
 6105POPC   GL276982  29.974  18.193   6.164
 6105POPC   C1A76983  29.913  18.332   6.464
 6105POPC   D2A76984  29.920  18.260   6.764
 6105POPC   C3A76985  29.885  18.324   7.064
 6105POPC   C4A76986  29.880  18.237   7.364
 6105POPC   C1B76987  29.981  18.030   6.464
 6105POPC   C2B76988  29.942  18.059   6.764
 6105POPC   C3B76989  29.985  18.028   7.064
 6105POPC   C4B76990  30.001  18.012   7.364
 6106POPC   NC376991  20.610   9.701   5.564
 6106POPC   PO476992  20.595   9.794   5.864
 6106POPC   GL176993  20.596   9.753   6.164
 6106POPC   GL276994  20.768   9.834   6.164
 6106POPC   C1A76995  20.589   9.746   6.464
 6106POPC   D2A76996  20.571   9.726   6.764
 6106POPC   C3A76997  20.586   9.715   7.064
 6106POPC   C4A76998  20.598   9.711   7.364
 6106POPC   C1B76999  20.848   9.844   6.464
 6106POPC   C2B77000  20.843   9.796   6.764
 6106POPC   C3B77001  20.892   9.857   7.064
 6106POPC   C4B77002  20.827   9.789   7.364
 6107POPC   NC377003  19.091  18.308   5.564
 6107POPC   PO477004  19.018  18.272   5.864
 6107POPC   GL177005  19.010  18.261   6.164
 6107POPC   GL277006  18.965  18.310   6.164
 6107POPC   C1A77007  19.018  18.246   6.464
 6107POPC   D2A77008  19.059  18.323   6.764
 6107POPC   C3A77009  19.098  18.263   7.064
 6107POPC   C4A77010  19.090  18.233   7.364
 6107POPC   C1B77011  18.775  18.217   6.464
 6107POPC   C2B77012  18.855  18.279   6.764
 6107POPC   C3B77013  18.808  18.230   7.064
 6107POPC   C4B77014  18.835  18.257   7.364
 6108POPC   NC377015  11.271   2.717   5.564
 6108POPC   PO477016  11.321   2.803   5.864
 6108POPC   GL177017  11.335   2.782   6.164
 6108POPC   GL277018  11.298   2.869   6.164
 6108POPC   C1A77019  11.286   2.738   6.464
 6108POPC   D2A77020  11.322   2.790   6.764
 6108POPC   C3A77021  11.299   2.724   7.064
 6108POPC   C4A77022  11.322   2.763   7.364
 6108POPC   C1B77023  11.318   3.015   6.464
 6108POPC   C2B77024  11.242   3.037   6.764
 6108POPC   C3B77025  11.334   3.025   7.064
 6108POPC   C4B77026  11.334   3.040   7.364
 6109POPC   NC377027   1.191  40.745   5.564
 6109POPC   PO477028   1.256  40.797   5.864
 6109POPC   GL177029   1.167  40.826   6.164
 6109POPC   GL277030   1.134  40.724   6.164
 6109POPC   C1A77031   1.196  40.738   6.464
 6109POPC   D2A77032   1.166  40.736   6.764
 6109POPC   C3A77033   1.200  40.800   7.064
 6109POPC   C4A77034   1.177  40.742   7.364
 6109POPC   C1B77035   0.969  40.681   6.464
 6109POPC   C2B77036   0.958  40.732   6.764
 6109POPC   C3B77037   0.972  40.687   7.064
 6109POPC   C4B77038   0.938  40.696   7.364
 6110POPC   NC377039  25.231  12.113   5.564
 6110POPC   PO477040  25.222  12.115   5.864
 6110POPC   GL177041  25.283  12.099   6.164
 6110POPC   GL277042  25.120  12.015   6.164
 6110POPC   C1A77043  25.261  12.109   6.464
 6110POPC   D2A77044  25.287  12.092   6.764
 6110POPC   C3A77045  25.295  12.042   7.064
 6110POPC   C4A77046  25.314  12.027   7.364
 6110POPC   C1B77047  25.062  12.019   6.464
 6110POPC   C2B77048  25.005  11.982   6.764
 6110POPC   C3B77049  25.021  12.054   7.064
 6110POPC   C4B77050  25.011  12.003   7.364
 6111POPC   NC377051  35.321   4.279   5.564
 6111POPC   PO477052  35.370   4.349   5.864
 6111POPC   GL177053  35.316   4.307   6.164
 6111POPC   GL277054  35.400   4.378   6.164
 6111POPC   C1A77055  35.358   4.298   6.464
 6111POPC   D2A77056  35.356   4.364   6.764
 6111POPC   C3A77057  35.358   4.323   7.064
 6111POPC   C4A77058  35.396   4.318   7.364
 6111POPC   C1B77059  35.469   4.508   6.464
 6111POPC   C2B77060  35.567   4.478   6.764
 6111POPC   C3B77061  35.499   4.463   7.064
 6111POPC   C4B77062  35.538   4.522   7.364
 6112POPC   NC377063  38.417  20.585   5.564
 6112POPC   PO477064  38.415  20.630   5.864
 6112POPC   GL177065  38.498  20.599   6.164
 6112POPC   GL277066  38.429  20.697   6.164
 6112POPC   C1A77067  38.496  20.633   6.464
 6112POPC   D2A77068  38.433  20.642   6.764
 6112POPC   C3A77069  38.481  20.641   7.064
 6112POPC   C4A77070  38.416  20.627   7.364
 6112POPC   C1B77071  38.347  20.826   6.464
 6112POPC   C2B77072  38.342  20.816   6.764
 6112POPC   C3B77073  38.343  20.859   7.064
 6112POPC   C4B77074  38.313  20.841   7.364
 6113POPC   NC377075  26.852  11.341   5.564
 6113POPC   PO477076  26.812  11.281   5.864
 6113POPC   GL177077  26.786  11.289   6.164
 6113POPC   GL277078  26.927  11.287   6.164
 6113POPC   C1A77079  26.819  11.325   6.464
 6113POPC   D2A77080  26.857  11.320   6.764
 6113POPC   C3A77081  26.808  11.294   7.064
 6113POPC   C4A77082  26.863  11.301   7.364
 6113POPC   C1B77083  27.015  11.203   6.464
 6113POPC   C2B77084  27.038  11.227   6.764
 6113POPC   C3B77085  27.019  11.243   7.064
 6113POPC   C4B77086  27.005  11.235   7.364
 6114POPC   NC377087  12.109   8.975   5.564
 6114POPC   PO477088  12.073   8.936   5.864
 6114POPC   GL177089  12.033   8.984   6.164
 6114POPC   GL277090  12.055   9.059   6.164
 6114POPC   C1A77091  12.036   8.959   6.464
 6114POPC   D2A77092  12.093   9.010   6.764
 6114POPC   C3A77093  12.040   8.988   7.064
 6114POPC   C4A77094  12.105   8.999   7.364
 6114POPC   C1B77095  12.035   9.195   6.464
 6114POPC   C2B77096  12.051   9.239   6.764
 6114POPC   C3B77097  11.999   9.191   7.064
 6114POPC   C4B77098  12.064   9.234   7.364
 6115POPC   NC377099  29.112  16.737   5.564
 6115POPC   PO477100  29.099  16.695   5.864
 6115POPC   GL177101  29.192  16.684   6.164
 6115POPC   GL277102  29.159  16.804   6.164
 6115POPC   C1A77103  29.147  16.688   6.464
 6115POPC   D2A77104  29.190  16.718   6.764
 6115POPC   C3A77105  29.190  16.735   7.064
 6115POPC   C4A77106  29.095  16.691   7.364
 6115POPC   C1B77107  29.092  16.963   6.464
 6115POPC   C2B77108  29.099  16.934   6.764
 6115POPC   C3B77109  29.121  16.926   7.064
 6115POPC   C4B77110  29.128  16.997   7.364
 6116POPC   NC377111  40.012  25.233   5.564
 6116POPC   PO477112  39.964  25.312   5.864
 6116POPC   GL177113  39.998  25.262   6.164
 6116POPC   GL277114  39.936  25.323   6.164
 6116POPC   C1A77115  40.025  25.268   6.464
 6116POPC   D2A77116  40.052  25.266   6.764
 6116POPC   C3A77117  40.027  25.219   7.064
 6116POPC   C4A77118  40.029  25.307   7.364
 6116POPC   C1B77119  39.827  25.384   6.464
 6116POPC   C2B77120  39.816  25.406   6.764
 6116POPC   C3B77121  39.801  25.393   7.064
 6116POPC   C4B77122  39.796  25.404   7.364
 6117POPC   NC377123  23.713  27.628   5.564
 6117POPC   PO477124  23.721  27.630   5.864
 6117POPC   GL177125  23.694  27.594   6.164
 6117POPC   GL277126  23.780  27.488   6.164
 6117POPC   C1A77127  23.673  27.561   6.464
 6117POPC   D2A77128  23.683  27.549   6.764
 6117POPC   C3A77129  23.686  27.630   7.064
 6117POPC   C4A77130  23.696  27.550   7.364
 6117POPC   C1B77131  23.891  27.366   6.464
 6117POPC   C2B77132  23.834  27.374   6.764
 6117POPC   C3B77133  23.893  27.400   7.064
 6117POPC   C4B77134  23.895  27.434   7.364
 6118POPC   NC377135  23.751  26.846   5.564
 6118POPC   PO477136  23.757  26.821   5.864
 6118POPC   GL177137  23.753  26.794   6.164
 6118POPC   GL277138  23.811  26.740   6.164
 6118POPC   C1A77139  23.707  26.849   6.464
 6118POPC   D2A77140  23.744  26.789   6.764
 6118POPC   C3A77141  23.681  26.827   7.064
 6118POPC   C4A77142  23.672  26.786   7.364
 6118POPC   C1B77143  23.909  26.601   6.464
 6118POPC   C2B77144  23.879  26.681   6.764
 6118POPC   C3B77145  23.844  26.615   7.064
 6118POPC   C4B77146  23.895  26.623   7.364
 6119POPC   NC377147  23.685  40.029   5.564
 6119POPC   PO477148  23.748  39.971   5.864
 6119POPC   GL177149  23.683  40.005   6.164
 6119POPC   GL277150  23.756  40.081   6.164
 6119POPC   C1A77151  23.734  40.002   6.464
 6119POPC   D2A77152  23.725  39.971   6.764
 6119POPC   C3A77153  23.744  39.963   7.064
 6119POPC   C4A77154  23.681  40.001   7.364
 6119POPC   C1B77155  23.824  40.262   6.464
 6119POPC   C2B77156  23.800  40.279   6.764
 6119POPC   C3B77157  23.758  40.253   7.064
 6119POPC   C4B77158  23.775  40.278   7.364
 6120POPC   NC377159  32.289  37.663   5.564
 6120POPC   PO477160  32.204  37.667   5.864
 6120POPC   GL177161  32.215  37.683   6.164
 6120POPC   GL277162  32.313  37.586   6.164
 6120POPC   C1A77163  32.284  37.644   6.464
 6120POPC   D2A77164  32.286  37.665   6.764
 6120POPC   C3A77165  32.292  37.671   7.064
 6120POPC   C4A77166  32.276  37.672   7.364
 6120POPC   C1B77167  32.390  37.518   6.464
 6120POPC   C2B77168  32.418  37.430   6.764
 6120POPC   C3B77169  32.371  37.426   7.064
 6120POPC   C4B77170  32.419  37.449   7.364
 6121POPC   NC377171   7.415  19.832   5.564
 6121POPC   PO477172   7.450  19.836   5.864
 6121POPC   GL177173   7.464  19.804   6.164
 6121POPC   GL277174   7.564  19.819   6.164
 6121POPC   C1A77175   7.468  19.833   6.464
 6121POPC   D2A77176   7.469  19.792   6.764
 6121POPC   C3A77177   7.439  19.876   7.064
 6121POPC   C4A77178   7.465  19.835   7.364
 6121POPC   C1B77179   7.674  19.752   6.464
 6121POPC   C2B77180   7.674  19.783   6.764
 6121POPC   C3B77181   7.696  19.705   7.064
 6121POPC   C4B77182   7.701  19.748   7.364
 6122POPC   NC377183  29.117  33.059   5.564
 6122POPC   PO477184  29.102  33.031   5.864
 6122POPC   GL177185  29.137  32.974   6.164
 6122POPC   GL277186  29.260  33.009   6.164
 6122POPC   C1A77187  29.179  33.052   6.464
 6122POPC   D2A77188  29.139  33.064   6.764
 6122POPC   C3A77189  29.106  33.027   7.064
 6122POPC   C4A77190  29.157  32.991   7.364
 6122POPC   C1B77191  29.356  32.942   6.464
 6122POPC   C2B77192  29.408  32.905   6.764
 6122POPC   C3B77193  29.402  32.967   7.064
 6122POPC   C4B77194  29.393  32.966   7.364
 6123POPC   NC377195  23.733  19.797   5.564
 6123POPC   PO477196  23.672  19.833   5.864
 6123POPC   GL177197  23.666  19.873   6.164
 6123POPC   GL277198  23.810  19.732   6.164
 6123POPC   C1A77199  23.701  19.818   6.464
 6123POPC   D2A77200  23.689  19.870   6.764
 6123POPC   C3A77201  23.685  19.788   7.064
 6123POPC   C4A77202  23.758  19.802   7.364
 6123POPC   C1B77203  23.944  19.729   6.464
 6123POPC   C2B77204  23.906  19.697   6.764
 6123POPC   C3B77205  23.979  19.701   7.064
 6123POPC   C4B77206  23.981  19.747   7.364
 6124POPC   NC377207  38.417  11.265   5.564
 6124POPC   PO477208  38.434  11.330   5.864
 6124POPC   GL177209  38.434  11.332   6.164
 6124POPC   GL277210  38.342  11.277   6.164
 6124POPC   C1A77211  38.492  11.262   6.464
 6124POPC   D2A77212  38.425  11.264   6.764
 6124POPC   C3A77213  38.417  11.274   7.064
 6124POPC   C4A77214  38.436  11.338   7.364
 6124POPC   C1B77215  38.245  11.306   6.464
 6124POPC   C2B77216  38.219  11.292   6.764
 6124POPC   C3B77217  38.185  11.306   7.064
 6124POPC   C4B77218  38.161  11.277   7.364
 6125POPC   NC377219  22.188  16.687   5.564
 6125POPC   PO477220  22.120  16.743   5.864
 6125POPC   GL177221  22.205  16.683   6.164
 6125POPC   GL277222  22.204  16.830   6.164
 6125POPC   C1A77223  22.165  16.754   6.464
 6125POPC   D2A77224  22.189  16.759   6.764
 6125POPC   C3A77225  22.167  16.719   7.064
 6125POPC   C4A77226  22.180  16.742   7.364
 6125POPC   C1B77227  22.370  16.884   6.464
 6125POPC   C2B77228  22.301  16.939   6.764
 6125POPC   C3B77229  22.371  16.865   7.064
 6125POPC   C4B77230  22.301  16.950   7.364
 6126POPC   NC377231  43.933  23.748   5.564
 6126POPC   PO477232  43.856  23.763   5.864
 6126POPC   GL177233  43.929  23.705   6.164
 6126POPC   GL277234  43.977  23.853   6.164
 6126POPC   C1A77235  43.868  23.710   6.464
 6126POPC   D2A77236  43.919  23.672   6.764
 6126POPC   C3A77237  43.929  23.678   7.064
 6126POPC   C4A77238  43.869  23.718   7.364
 6126POPC   C1B77239  43.990  23.919   6.464
 6126POPC   C2B77240  44.020  23.927   6.764
 6126POPC   C3B77241  43.984  23.925   7.064
 6126POPC   C4B77242  43.997  23.908   7.364
 6127POPC   NC377243  22.163  26.824   5.564
 6127POPC   PO477244  22.175  26.794   5.864
 6127POPC   GL177245  22.128  26.851   6.164
 6127POPC   GL277246  22.245  26.954   6.164
 6127POPC   C1A77247  22.211  26.773   6.464
 6127POPC   D2A77248  22.198  26.849   6.764
 6127POPC   C3A77249  22.152  26.837   7.064
 6127POPC   C4A77250  22.173  26.833   7.364
 6127POPC   C1B77251  22.203  27.015   6.464
 6127POPC   C2B77252  22.250  27.077   6.764
 6127POPC   C3B77253  22.200  27.052   7.064
 6127POPC   C4B77254  22.257  27.054   7.364
 6128POPC   NC377255  43.067   5.107   5.564
 6128POPC   PO477256  43.132   5.101   5.864
 6128POPC   GL177257  43.135   5.096   6.164
 6128POPC   GL277258  43.169   5.251   6.164
 6128POPC   C1A77259  43.087   5.083   6.464
 6128POPC   D2A77260  43.069   5.101   6.764
 6128POPC   C3A77261  43.106   5.082   7.064
 6128POPC   C4A77262  43.103   5.110   7.364
 6128POPC   C1B77263  43.207   5.292   6.464
 6128POPC   C2B77264  43.168   5.300   6.764
 6128POPC   C3B77265  43.209   5.347   7.064
 6128POPC   C4B77266  43.153   5.362   7.364
 6129POPC   NC377267  10.540   4.314   5.564
 6129POPC   PO477268  10.523   4.285   5.864
 6129POPC   GL177269  10.515   4.363   6.164
 6129POPC   GL277270  10.503   4.234   6.164
 6129POPC   C1A77271  10.524   4.342   6.464
 6129POPC   D2A77272  10.478   4.327   6.764
 6129POPC   C3A77273  10.488   4.340   7.064
 6129POPC   C4A77274  10.524   4.293   7.364
 6129POPC   C1B77275  10.521   4.039   6.464
 6129POPC   C2B77276  10.485   4.027   6.764
 6129POPC   C3B77277  10.492   4.066   7.064
 6129POPC   C4B77278  10.507   4.020   7.364
 6130POPC   NC377279  27.606  29.142   5.564
 6130POPC   PO477280  27.555  29.175   5.864
 6130POPC   GL177281  27.587  29.165   6.164
 6130POPC   GL277282  27.656  29.032   6.164
 6130POPC   C1A77283  27.599  29.146   6.464
 6130POPC   D2A77284  27.575  29.137   6.764
 6130POPC   C3A77285  27.613  29.157   7.064
 6130POPC   C4A77286  27.568  29.096   7.364
 6130POPC   C1B77287  27.749  28.901   6.464
 6130POPC   C2B77288  27.739  28.915   6.764
 6130POPC   C3B77289  27.708  28.900   7.064
 6130POPC   C4B77290  27.713  28.903   7.364
 6131POPC   NC377291  11.266   6.658   5.564
 6131POPC   PO477292  11.337   6.675   5.864
 6131POPC   GL177293  11.269   6.605   6.164
 6131POPC   GL277294  11.157   6.572   6.164
 6131POPC   C1A77295  11.295   6.608   6.464
 6131POPC   D2A77296  11.310   6.625   6.764
 6131POPC   C3A77297  11.323   6.603   7.064
 6131POPC   C4A77298  11.320   6.620   7.364
 6131POPC   C1B77299  11.079   6.556   6.464
 6131POPC   C2B77300  11.126   6.484   6.764
 6131POPC   C3B77301  11.101   6.491   7.064
 6131POPC   C4B77302  11.105   6.547   7.364
 6132POPC   NC377303   5.115  40.012   5.564
 6132POPC   PO477304   5.079  40.003   5.864
 6132POPC   GL177305   5.058  40.055   6.164
 6132POPC   GL277306   5.155  39.914   6.164
 6132POPC   C1A77307   5.068  40.048   6.464
 6132POPC   D2A77308   5.140  39.981   6.764
 6132POPC   C3A77309   5.054  40.001   7.064
 6132POPC   C4A77310   5.054  40.045   7.364
 6132POPC   C1B77311   5.264  39.881   6.464
 6132POPC   C2B77312   5.275  39.870   6.764
 6132POPC   C3B77313   5.270  39.801   7.064
 6132POPC   C4B77314   5.327  39.892   7.364
 6133POPC   NC377315  21.429  42.320   5.564
 6133POPC   PO477316  21.394  42.331   5.864
 6133POPC   GL177317  21.369  42.303   6.164
 6133POPC   GL277318  21.262  42.430   6.164
 6133POPC   C1A77319  21.365  42.337   6.464
 6133POPC   D2A77320  21.373  42.382   6.764
 6133POPC   C3A77321  21.359  42.380   7.064
 6133POPC   C4A77322  21.418  42.365   7.364
 6133POPC   C1B77323  21.180  42.506   6.464
 6133POPC   C2B77324  21.179  42.484   6.764
 6133POPC   C3B77325  21.200  42.528   7.064
 6133POPC   C4B77326  21.202  42.552   7.364
 6134POPC   NC377327  32.987  43.876   5.564
 6134POPC   PO477328  33.065  43.935   5.864
 6134POPC   GL177329  33.061  43.873   6.164
 6134POPC   GL277330  32.980  43.974   6.164
 6134POPC   C1A77331  33.016  43.864   6.464
 6134POPC   D2A77332  32.987  43.904   6.764
 6134POPC   C3A77333  33.026  43.876   7.064
 6134POPC   C4A77334  33.001  43.899   7.364
 6134POPC   C1B77335  32.910  44.075   6.464
 6134POPC   C2B77336  32.885  44.109   6.764
 6134POPC   C3B77337  32.882  44.055   7.064
 6134POPC   C4B77338  32.904  44.046   7.364
 6135POPC   NC377339  36.138  32.257   5.564
 6135POPC   PO477340  36.119  32.268   5.864
 6135POPC   GL177341  36.131  32.276   6.164
 6135POPC   GL277342  36.056  32.359   6.164
 6135POPC   C1A77343  36.129  32.238   6.464
 6135POPC   D2A77344  36.124  32.285   6.764
 6135POPC   C3A77345  36.137  32.278   7.064
 6135POPC   C4A77346  36.174  32.277   7.364
 6135POPC   C1B77347  36.026  32.461   6.464
 6135POPC   C2B77348  36.068  32.477   6.764
 6135POPC   C3B77349  36.073  32.525   7.064
 6135POPC   C4B77350  36.086  32.529   7.364
 6136POPC   NC377351  12.097   6.629   5.564
 6136POPC   PO477352  12.061   6.694   5.864
 6136POPC   GL177353  12.052   6.646   6.164
 6136POPC   GL277354  12.164   6.700   6.164
 6136POPC   C1A77355  12.117   6.637   6.464
 6136POPC   D2A77356  12.035   6.676   6.764
 6136POPC   C3A77357  12.032   6.647   7.064
 6136POPC   C4A77358  12.104   6.661   7.364
 6136POPC   C1B77359  12.258   6.876   6.464
 6136POPC   C2B77360  12.195   6.820   6.764
 6136POPC   C3B77361  12.233   6.836   7.064
 6136POPC   C4B77362  12.251   6.866   7.364
 6137POPC   NC377363  33.030  32.238   5.564
 6137POPC   PO477364  33.043  32.220   5.864
 6137POPC   GL177365  33.048  32.245   6.164
 6137POPC   GL277366  33.077  32.171   6.164
 6137POPC   C1A77367  33.070  32.261   6.464
 6137POPC   D2A77368  33.032  32.238   6.764
 6137POPC   C3A77369  33.011  32.272   7.064
 6137POPC   C4A77370  33.019  32.272   7.364
 6137POPC   C1B77371  33.160  32.069   6.464
 6137POPC   C2B77372  33.126  32.038   6.764
 6137POPC   C3B77373  33.150  31.991   7.064
 6137POPC   C4B77374  33.146  31.995   7.364
 6138POPC   NC377375  26.087  43.885   5.564
 6138POPC   PO477376  26.015  43.890   5.864
 6138POPC   GL177377  26.043  43.902   6.164
 6138POPC   GL277378  26.205  43.894   6.164
 6138POPC   C1A77379  26.075  43.855   6.464
 6138POPC   D2A77380  26.062  43.874   6.764
 6138POPC   C3A77381  26.032  43.923   7.064
 6138POPC   C4A77382  26.002  43.923   7.364
 6138POPC   C1B77383  26.311  43.871   6.464
 6138POPC   C2B77384  26.254  43.838   6.764
 6138POPC   C3B77385  26.318  43.799   7.064
 6138POPC   C4B77386  26.281  43.870   7.364
 6139POPC   NC377387  29.118  29.900   5.564
 6139POPC   PO477388  29.111  29.880   5.864
 6139POPC   GL177389  29.186  29.967   6.164
 6139POPC   GL277390  29.259  29.986   6.164
 6139POPC   C1A77391  29.179  29.967   6.464
 6139POPC   D2A77392  29.105  29.930   6.764
 6139POPC   C3A77393  29.178  29.908   7.064
 6139POPC   C4A77394  29.174  29.875   7.364
 6139POPC   C1B77395  29.422  29.941   6.464
 6139POPC   C2B77396  29.352  29.976   6.764
 6139POPC   C3B77397  29.429  29.954   7.064
 6139POPC   C4B77398  29.396  29.924   7.364
 6140POPC   NC377399   5.870  13.652   5.564
 6140POPC   PO477400   5.882  13.616   5.864
 6140POPC   GL177401   5.846  13.644   6.164
 6140POPC   GL277402   5.951  13.773   6.164
 6140POPC   C1A77403   5.903  13.611   6.464
 6140POPC   D2A77404   5.918  13.644   6.764
 6140POPC   C3A77405   5.832  13.651   7.064
 6140POPC   C4A77406   5.908  13.599   7.364
 6140POPC   C1B77407   5.949  13.900   6.464
 6140POPC   C2B77408   5.953  13.862   6.764
 6140POPC   C3B77409   5.958  13.822   7.064
 6140POPC   C4B77410   5.971  13.812   7.364
 6141POPC   NC377411  14.418  20.612   5.564
 6141POPC   PO477412  14.422  20.596   5.864
 6141POPC   GL177413  14.372  20.626   6.164
 6141POPC   GL277414  14.522  20.693   6.164
 6141POPC   C1A77415  14.430  20.590   6.464
 6141POPC   D2A77416  14.363  20.603   6.764
 6141POPC   C3A77417  14.438  20.649   7.064
 6141POPC   C4A77418  14.425  20.577   7.364
 6141POPC   C1B77419  14.643  20.772   6.464
 6141POPC   C2B77420  14.592  20.785   6.764
 6141POPC   C3B77421  14.559  20.727   7.064
 6141POPC   C4B77422  14.640  20.797   7.364
 6142POPC   NC377423  13.592   5.848   5.564
 6142POPC   PO477424  13.616   5.915   5.864
 6142POPC   GL177425  13.625   5.878   6.164
 6142POPC   GL277426  13.506   5.881   6.164
 6142POPC   C1A77427  13.596   5.840   6.464
 6142POPC   D2A77428  13.610   5.831   6.764
 6142POPC   C3A77429  13.623   5.854   7.064
 6142POPC   C4A77430  13.643   5.838   7.364
 6142POPC   C1B77431  13.450   5.981   6.464
 6142POPC   C2B77432  13.359   6.036   6.764
 6142POPC   C3B77433  13.446   5.950   7.064
 6142POPC   C4B77434  13.393   5.940   7.364
 6143POPC   NC377435  21.424   8.968   5.564
 6143POPC   PO477436  21.338   9.010   5.864
 6143POPC   GL177437  21.424   9.020   6.164
 6143POPC   GL277438  21.236   8.937   6.164
 6143POPC   C1A77439  21.422   8.947   6.464
 6143POPC   D2A77440  21.350   8.984   6.764
 6143POPC   C3A77441  21.384   8.978   7.064
 6143POPC   C4A77442  21.343   8.996   7.364
 6143POPC   C1B77443  21.192   8.881   6.464
 6143POPC   C2B77444  21.135   8.879   6.764
 6143POPC   C3B77445  21.224   8.872   7.064
 6143POPC   C4B77446  21.169   8.868   7.364
 6144POPC   NC377447  44.687  26.066   5.564
 6144POPC   PO477448  44.635  26.089   5.864
 6144POPC   GL177449  44.671  26.059   6.164
 6144POPC   GL277450  44.535  26.021   6.164
 6144POPC   C1A77451  44.621  26.074   6.464
 6144POPC   D2A77452  44.697  26.008   6.764
 6144POPC   C3A77453  44.688  26.032   7.064
 6144POPC   C4A77454  44.618  26.000   7.364
 6144POPC   C1B77455  44.401  25.900   6.464
 6144POPC   C2B77456  44.443  25.919   6.764
 6144POPC   C3B77457  44.448  25.975   7.064
 6144POPC   C4B77458  44.402  25.896   7.364
 6145POPC   NC377459  17.468  26.056   5.564
 6145POPC   PO477460  17.481  26.086   5.864
 6145POPC   GL177461  17.521  26.087   6.164
 6145POPC   GL277462  17.386  26.181   6.164
 6145POPC   C1A77463  17.464  26.031   6.464
 6145POPC   D2A77464  17.550  26.002   6.764
 6145POPC   C3A77465  17.462  26.048   7.064
 6145POPC   C4A77466  17.545  26.018   7.364
 6145POPC   C1B77467  17.325  26.282   6.464
 6145POPC   C2B77468  17.318  26.221   6.764
 6145POPC   C3B77469  17.399  26.265   7.064
 6145POPC   C4B77470  17.330  26.217   7.364
 6146POPC   NC377471  24.532  42.297   5.564
 6146POPC   PO477472  24.460  42.334   5.864
 6146POPC   GL177473  24.500  42.294   6.164
 6146POPC   GL277474  24.434  42.220   6.164
 6146POPC   C1A77475  24.463  42.338   6.464
 6146POPC   D2A77476  24.484  42.311   6.764
 6146POPC   C3A77477  24.481  42.367   7.064
 6146POPC   C4A77478  24.510  42.289   7.364
 6146POPC   C1B77479  24.307  42.234   6.464
 6146POPC   C2B77480  24.286  42.234   6.764
 6146POPC   C3B77481  24.247  42.220   7.064
 6146POPC   C4B77482  24.271  42.208   7.364
 6147POPC   NC377483  28.330  31.512   5.564
 6147POPC   PO477484  28.330  31.452   5.864
 6147POPC   GL177485  28.408  31.435   6.164
 6147POPC   GL277486  28.413  31.619   6.164
 6147POPC   C1A77487  28.336  31.521   6.464
 6147POPC   D2A77488  28.384  31.514   6.764
 6147POPC   C3A77489  28.414  31.440   7.064
 6147POPC   C4A77490  28.386  31.480   7.364
 6147POPC   C1B77491  28.489  31.676   6.464
 6147POPC   C2B77492  28.505  31.727   6.764
 6147POPC   C3B77493  28.500  31.734   7.064
 6147POPC   C4B77494  28.522  31.702   7.364
 6148POPC   NC377495  27.626  34.565   5.564
 6148POPC   PO477496  27.633  34.606   5.864
 6148POPC   GL177497  27.588  34.566   6.164
 6148POPC   GL277498  27.430  34.553   6.164
 6148POPC   C1A77499  27.608  34.620   6.464
 6148POPC   D2A77500  27.631  34.582   6.764
 6148POPC   C3A77501  27.642  34.553   7.064
 6148POPC   C4A77502  27.544  34.556   7.364
 6148POPC   C1B77503  27.310  34.567   6.464
 6148POPC   C2B77504  27.363  34.576   6.764
 6148POPC   C3B77505  27.313  34.511   7.064
 6148POPC   C4B77506  27.301  34.510   7.364
 6149POPC   NC377507  13.631  31.475   5.564
 6149POPC   PO477508  13.625  31.505   5.864
 6149POPC   GL177509  13.664  31.464   6.164
 6149POPC   GL277510  13.506  31.460   6.164
 6149POPC   C1A77511  13.580  31.493   6.464
 6149POPC   D2A77512  13.643  31.515   6.764
 6149POPC   C3A77513  13.665  31.510   7.064
 6149POPC   C4A77514  13.584  31.434   7.364
 6149POPC   C1B77515  13.405  31.355   6.464
 6149POPC   C2B77516  13.427  31.408   6.764
 6149POPC   C3B77517  13.448  31.396   7.064
 6149POPC   C4B77518  13.427  31.385   7.364
 6150POPC   NC377519   3.545  10.489   5.564
 6150POPC   PO477520   3.516  10.500   5.864
 6150POPC   GL177521   3.519  10.505   6.164
 6150POPC   GL277522   3.651  10.478   6.164
 6150POPC   C1A77523   3.579  10.551   6.464
 6150POPC   D2A77524   3.563  10.493   6.764
 6150POPC   C3A77525   3.506  10.483   7.064
 6150POPC   C4A77526   3.527  10.566   7.364
 6150POPC   C1B77527   3.672  10.335   6.464
 6150POPC   C2B77528   3.716  10.373   6.764
 6150POPC   C3B77529   3.744  10.378   7.064
 6150POPC   C4B77530   3.729  10.389   7.364
 6151POPC   NC377531  38.480   5.888   5.564
 6151POPC   PO477532  38.409   5.907   5.864
 6151POPC   GL177533  38.417   5.913   6.164
 6151POPC   GL277534  38.434   6.003   6.164
 6151POPC   C1A77535  38.443   5.903   6.464
 6151POPC   D2A77536  38.415   5.894   6.764
 6151POPC   C3A77537  38.502   5.909   7.064
 6151POPC   C4A77538  38.495   5.832   7.364
 6151POPC   C1B77539  38.439   6.155   6.464
 6151POPC   C2B77540  38.460   6.092   6.764
 6151POPC   C3B77541  38.414   6.141   7.064
 6151POPC   C4B77542  38.446   6.145   7.364
 6152POPC   NC377543  26.819  19.056   5.564
 6152POPC   PO477544  26.858  19.046   5.864
 6152POPC   GL177545  26.813  19.027   6.164
 6152POPC   GL277546  26.763  19.177   6.164
 6152POPC   C1A77547  26.823  19.071   6.464
 6152POPC   D2A77548  26.773  19.045   6.764
 6152POPC   C3A77549  26.799  19.056   7.064
 6152POPC   C4A77550  26.845  19.097   7.364
 6152POPC   C1B77551  26.611  19.172   6.464
 6152POPC   C2B77552  26.647  19.241   6.764
 6152POPC   C3B77553  26.624  19.257   7.064
 6152POPC   C4B77554  26.610  19.228   7.364
 6153POPC   NC377555  32.979   2.009   5.564
 6153POPC   PO477556  32.993   1.958   5.864
 6153POPC   GL177557  33.024   1.946   6.164
 6153POPC   GL277558  33.068   2.065   6.164
 6153POPC   C1A77559  32.977   1.974   6.464
 6153POPC   D2A77560  33.013   2.017   6.764
 6153POPC   C3A77561  33.037   1.949   7.064
 6153POPC   C4A77562  32.996   2.023   7.364
 6153POPC   C1B77563  33.200   2.172   6.464
 6153POPC   C2B77564  33.213   2.208   6.764
 6153POPC   C3B77565  33.258   2.144   7.064
 6153POPC   C4B77566  33.171   2.182   7.364
 6154POPC   NC377567   1.191  25.306   5.564
 6154POPC   PO477568   1.258  25.257   5.864
 6154POPC   GL177569   1.170  25.274   6.164
 6154POPC   GL277570   1.291  25.329   6.164
 6154POPC   C1A77571   1.199  25.285   6.464
 6154POPC   D2A77572   1.229  25.295   6.764
 6154POPC   C3A77573   1.237  25.310   7.064
 6154POPC   C4A77574   1.170  25.292   7.364
 6154POPC   C1B77575   1.338  25.512   6.464
 6154POPC   C2B77576   1.340  25.445   6.764
 6154POPC   C3B77577   1.332  25.463   7.064
 6154POPC   C4B77578   1.376  25.438   7.364
 6155POPC   NC377579  19.839  13.600   5.564
 6155POPC   PO477580  19.800  13.587   5.864
 6155POPC   GL177581  19.863  13.640   6.164
 6155POPC   GL277582  19.782  13.569   6.164
 6155POPC   C1A77583  19.789  13.581   6.464
 6155POPC   D2A77584  19.806  13.598   6.764
 6155POPC   C3A77585  19.838  13.603   7.064
 6155POPC   C4A77586  19.807  13.613   7.364
 6155POPC   C1B77587  19.666  13.525   6.464
 6155POPC   C2B77588  19.665  13.436   6.764
 6155POPC   C3B77589  19.634  13.431   7.064
 6155POPC   C4B77590  19.661  13.456   7.364
 6156POPC   NC377591  15.936  33.040   5.564
 6156POPC   PO477592  15.962  33.018   5.864
 6156POPC   GL177593  15.928  33.063   6.164
 6156POPC   GL277594  15.866  33.131   6.164
 6156POPC   C1A77595  16.000  33.043   6.464
 6156POPC   D2A77596  15.951  32.995   6.764
 6156POPC   C3A77597  15.965  33.006   7.064
 6156POPC   C4A77598  15.916  32.981   7.364
 6156POPC   C1B77599  15.804  33.180   6.464
 6156POPC   C2B77600  15.744  33.182   6.764
 6156POPC   C3B77601  15.771  33.216   7.064
 6156POPC   C4B77602  15.740  33.153   7.364
 6157POPC   NC377603   0.417   2.002   5.564
 6157POPC   PO477604   0.411   1.980   5.864
 6157POPC   GL177605   0.389   1.996   6.164
 6157POPC   GL277606   0.445   1.824   6.164
 6157POPC   C1A77607   0.432   1.945   6.464
 6157POPC   D2A77608   0.439   1.961   6.764
 6157POPC   C3A77609   0.454   1.952   7.064
 6157POPC   C4A77610   0.466   1.987   7.364
 6157POPC   C1B77611   0.492   1.795   6.464
 6157POPC   C2B77612   0.521   1.768   6.764
 6157POPC   C3B77613   0.546   1.730   7.064
 6157POPC   C4B77614   0.561   1.725   7.364
 6158POPC   NC377615  32.233  29.898   5.564
 6158POPC   PO477616  32.201  29.911   5.864
 6158POPC   GL177617  32.250  29.918   6.164
 6158POPC   GL277618  32.110  29.937   6.164
 6158POPC   C1A77619  32.290  29.891   6.464
 6158POPC   D2A77620  32.204  29.969   6.764
 6158POPC   C3A77621  32.225  29.951   7.064
 6158POPC   C4A77622  32.219  29.876   7.364
 6158POPC   C1B77623  31.988  29.962   6.464
 6158POPC   C2B77624  31.958  29.960   6.764
 6158POPC   C3B77625  32.026  29.993   7.064
 6158POPC   C4B77626  31.968  29.938   7.364
 6159POPC   NC377627  17.460  12.898   5.564
 6159POPC   PO477628  17.491  12.856   5.864
 6159POPC   GL177629  17.553  12.851   6.164
 6159POPC   GL277630  17.522  12.994   6.164
 6159POPC   C1A77631  17.519  12.861   6.464
 6159POPC   D2A77632  17.517  12.896   6.764
 6159POPC   C3A77633  17.488  12.869   7.064
 6159POPC   C4A77634  17.469  12.858   7.364
 6159POPC   C1B77635  17.615  13.110   6.464
 6159POPC   C2B77636  17.594  13.078   6.764
 6159POPC   C3B77637  17.622  13.061   7.064
 6159POPC   C4B77638  17.582  13.049   7.364
 6160POPC   NC377639  14.428  43.128   5.564
 6160POPC   PO477640  14.372  43.147   5.864
 6160POPC   GL177641  14.453  43.151   6.164
 6160POPC   GL277642  14.242  43.111   6.164
 6160POPC   C1A77643  14.369  43.120   6.464
 6160POPC   D2A77644  14.435  43.094   6.764
 6160POPC   C3A77645  14.378  43.153   7.064
 6160POPC   C4A77646  14.392  43.080   7.364
 6160POPC   C1B77647  14.184  43.161   6.464
 6160POPC   C2B77648  14.164  43.189   6.764
 6160POPC   C3B77649  14.217  43.230   7.064
 6160POPC   C4B77650  14.193  43.215   7.364
 6161POPC   NC377651   5.848  11.277   5.564
 6161POPC   PO477652   5.845  11.312   5.864
 6161POPC   GL177653   5.876  11.277   6.164
 6161POPC   GL277654   6.002  11.257   6.164
 6161POPC   C1A77655   5.853  11.350   6.464
 6161POPC   D2A77656   5.910  11.304   6.764
 6161POPC   C3A77657   5.908  11.342   7.064
 6161POPC   C4A77658   5.884  11.274   7.364
 6161POPC   C1B77659   6.029  11.110   6.464
 6161POPC   C2B77660   6.045  11.103   6.764
 6161POPC   C3B77661   6.030  11.132   7.064
 6161POPC   C4B77662   6.064  11.161   7.364
 6162POPC   NC377663   7.375  30.736   5.564
 6162POPC   PO477664   7.470  30.648   5.864
 6162POPC   GL177665   7.387  30.679   6.164
 6162POPC   GL277666   7.323  30.588   6.164
 6162POPC   C1A77667   7.456  30.648   6.464
 6162POPC   D2A77668   7.462  30.681   6.764
 6162POPC   C3A77669   7.443  30.696   7.064
 6162POPC   C4A77670   7.389  30.649   7.364
 6162POPC   C1B77671   7.290  30.506   6.464
 6162POPC   C2B77672   7.339  30.454   6.764
 6162POPC   C3B77673   7.301  30.488   7.064
 6162POPC   C4B77674   7.365  30.459   7.364
 6163POPC   NC377675  19.856  16.777   5.564
 6163POPC   PO477676  19.787  16.754   5.864
 6163POPC   GL177677  19.837  16.685   6.164
 6163POPC   GL277678  19.832  16.895   6.164
 6163POPC   C1A77679  19.844  16.741   6.464
 6163POPC   D2A77680  19.884  16.708   6.764
 6163POPC   C3A77681  19.806  16.746   7.064
 6163POPC   C4A77682  19.850  16.764   7.364
 6163POPC   C1B77683  19.897  16.966   6.464
 6163POPC   C2B77684  19.847  16.984   6.764
 6163POPC   C3B77685  19.909  16.943   7.064
 6163POPC   C4B77686  19.843  16.945   7.364
 6164POPC   NC377687   2.022  38.457   5.564
 6164POPC   PO477688   2.021  38.420   5.864
 6164POPC   GL177689   1.960  38.433   6.164
 6164POPC   GL277690   1.957  38.581   6.164
 6164POPC   C1A77691   1.976  38.409   6.464
 6164POPC   D2A77692   1.967  38.470   6.764
 6164POPC   C3A77693   1.960  38.499   7.064
 6164POPC   C4A77694   2.025  38.418   7.364
 6164POPC   C1B77695   1.887  38.730   6.464
 6164POPC   C2B77696   1.860  38.652   6.764
 6164POPC   C3B77697   1.933  38.682   7.064
 6164POPC   C4B77698   1.873  38.674   7.364
 6165POPC   NC377699   1.948  43.924   5.564
 6165POPC   PO477700   2.009  43.916   5.864
 6165POPC   GL177701   2.037  43.925   6.164
 6165POPC   GL277702   2.125  43.806   6.164
 6165POPC   C1A77703   1.946  43.921   6.464
 6165POPC   D2A77704   1.969  43.847   6.764
 6165POPC   C3A77705   1.953  43.878   7.064
 6165POPC   C4A77706   1.940  43.846   7.364
 6165POPC   C1B77707   2.241  43.781   6.464
 6165POPC   C2B77708   2.185  43.698   6.764
 6165POPC   C3B77709   2.156  43.702   7.064
 6165POPC   C4B77710   2.229  43.715   7.364
 6166POPC   NC377711   4.298   7.460   5.564
 6166POPC   PO477712   4.366   7.465   5.864
 6166POPC   GL177713   4.303   7.427   6.164
 6166POPC   GL277714   4.216   7.425   6.164
 6166POPC   C1A77715   4.315   7.426   6.464
 6166POPC   D2A77716   4.303   7.395   6.764
 6166POPC   C3A77717   4.310   7.468   7.064
 6166POPC   C4A77718   4.281   7.394   7.364
 6166POPC   C1B77719   4.032   7.523   6.464
 6166POPC   C2B77720   4.092   7.474   6.764
 6166POPC   C3B77721   4.120   7.513   7.064
 6166POPC   C4B77722   4.113   7.481   7.364
 6167POPC   NC377723   1.262   8.175   5.564
 6167POPC   PO477724   1.169   8.242   5.864
 6167POPC   GL177725   1.174   8.190   6.164
 6167POPC   GL277726   1.293   8.354   6.164
 6167POPC   C1A77727   1.260   8.214   6.464
 6167POPC   D2A77728   1.260   8.241   6.764
 6167POPC   C3A77729   1.200   8.148   7.064
 6167POPC   C4A77730   1.210   8.199   7.364
 6167POPC   C1B77731   1.358   8.443   6.464
 6167POPC   C2B77732   1.320   8.400   6.764
 6167POPC   C3B77733   1.370   8.406   7.064
 6167POPC   C4B77734   1.296   8.451   7.364
 6168POPC   NC377735   7.445   1.198   5.564
 6168POPC   PO477736   7.397   1.188   5.864
 6168POPC   GL177737   7.372   1.261   6.164
 6168POPC   GL277738   7.416   1.317   6.164
 6168POPC   C1A77739   7.391   1.232   6.464
 6168POPC   D2A77740   7.426   1.249   6.764
 6168POPC   C3A77741   7.398   1.166   7.064
 6168POPC   C4A77742   7.392   1.173   7.364
 6168POPC   C1B77743   7.407   1.458   6.464
 6168POPC   C2B77744   7.405   1.511   6.764
 6168POPC   C3B77745   7.406   1.485   7.064
 6168POPC   C4B77746   7.444   1.422   7.364
 6169POPC   NC377747  29.162  39.966   5.564
 6169POPC   PO477748  29.103  40.016   5.864
 6169POPC   GL177749  29.161  40.056   6.164
 6169POPC   GL277750  29.039  40.096   6.164
 6169POPC   C1A77751  29.104  40.022   6.464
 6169POPC   D2A77752  29.165  40.030   6.764
 6169POPC   C3A77753  29.155  40.050   7.064
 6169POPC   C4A77754  29.186  39.985   7.364
 6169POPC   C1B77755  28.871  40.108   6.464
 6169POPC   C2B77756  28.919  40.153   6.764
 6169POPC   C3B77757  28.892  40.098   7.064
 6169POPC   C4B77758  28.934  40.113   7.364
 6170POPC   NC377759  22.182  19.851   5.564
 6170POPC   PO477760  22.163  19.837   5.864
 6170POPC   GL177761  22.153  19.808   6.164
 6170POPC   GL277762  22.070  19.775   6.164
 6170POPC   C1A77763  22.205  19.835   6.464
 6170POPC   D2A77764  22.121  19.878   6.764
 6170POPC   C3A77765  22.118  19.825   7.064
 6170POPC   C4A77766  22.150  19.813   7.364
 6170POPC   C1B77767  21.974  19.661   6.464
 6170POPC   C2B77768  22.039  19.587   6.764
 6170POPC   C3B77769  21.995  19.613   7.064
 6170POPC   C4B77770  22.056  19.652   7.364
 6171POPC   NC377771  33.067  21.355   5.564
 6171POPC   PO477772  33.025  21.336   5.864
 6171POPC   GL177773  33.025  21.428   6.164
 6171POPC   GL277774  33.135  21.400   6.164
 6171POPC   C1A77775  33.019  21.342   6.464
 6171POPC   D2A77776  32.998  21.415   6.764
 6171POPC   C3A77777  32.999  21.356   7.064
 6171POPC   C4A77778  33.058  21.430   7.364
 6171POPC   C1B77779  33.321  21.408   6.464
 6171POPC   C2B77780  33.295  21.428   6.764
 6171POPC   C3B77781  33.230  21.412   7.064
 6171POPC   C4B77782  33.294  21.415   7.364
 6172POPC   NC377783  12.072  19.790   5.564
 6172POPC   PO477784  12.071  19.826   5.864
 6172POPC   GL177785  12.080  19.808   6.164
 6172POPC   GL277786  12.061  19.731   6.164
 6172POPC   C1A77787  12.033  19.789   6.464
 6172POPC   D2A77788  12.052  19.874   6.764
 6172POPC   C3A77789  12.072  19.879   7.064
 6172POPC   C4A77790  12.107  19.787   7.364
 6172POPC   C1B77791  12.155  19.546   6.464
 6172POPC   C2B77792  12.116  19.562   6.764
 6172POPC   C3B77793  12.085  19.550   7.064
 6172POPC   C4B77794  12.110  19.594   7.364
 6173POPC   NC377795  27.558  16.001   5.564
 6173POPC   PO477796  27.623  15.942   5.864
 6173POPC   GL177797  27.636  15.998   6.164
 6173POPC   GL277798  27.436  15.931   6.164
 6173POPC   C1A77799  27.611  15.975   6.464
 6173POPC   D2A77800  27.572  15.933   6.764
 6173POPC   C3A77801  27.619  15.917   7.064
 6173POPC   C4A77802  27.620  15.975   7.364
 6173POPC   C1B77803  27.353  15.896   6.464
 6173POPC   C2B77804  27.367  15.854   6.764
 6173POPC   C3B77805  27.384  15.864   7.064
 6173POPC   C4B77806  27.357  15.906   7.364
 6174POPC   NC377807   8.207  27.566   5.564
 6174POPC   PO477808   8.168  27.608   5.864
 6174POPC   GL177809   8.214  27.608   6.164
 6174POPC   GL277810   8.246  27.461   6.164
 6174POPC   C1A77811   8.238  27.606   6.464
 6174POPC   D2A77812   8.198  27.625   6.764
 6174POPC   C3A77813   8.210  27.565   7.064
 6174POPC   C4A77814   8.237  27.549   7.364
 6174POPC   C1B77815   8.296  27.389   6.464
 6174POPC   C2B77816   8.290  27.325   6.764
 6174POPC   C3B77817   8.325  27.380   7.064
 6174POPC   C4B77818   8.273  27.404   7.364
 6175POPC   NC377819  22.123  22.923   5.564
 6175POPC   PO477820  22.154  22.923   5.864
 6175POPC   GL177821  22.194  22.953   6.164
 6175POPC   GL277822  22.213  23.107   6.164
 6175POPC   C1A77823  22.166  22.925   6.464
 6175POPC   D2A77824  22.156  22.964   6.764
 6175POPC   C3A77825  22.161  22.968   7.064
 6175POPC   C4A77826  22.181  22.900   7.364
 6175POPC   C1B77827  22.124  23.141   6.464
 6175POPC   C2B77828  22.212  23.168   6.764
 6175POPC   C3B77829  22.202  23.195   7.064
 6175POPC   C4B77830  22.137  23.211   7.364
 6176POPC   NC377831  23.753   9.742   5.564
 6176POPC   PO477832  23.691   9.783   5.864
 6176POPC   GL177833  23.678   9.708   6.164
 6176POPC   GL277834  23.548   9.692   6.164
 6176POPC   C1A77835  23.705   9.759   6.464
 6176POPC   D2A77836  23.725   9.783   6.764
 6176POPC   C3A77837  23.664   9.704   7.064
 6176POPC   C4A77838  23.735   9.747   7.364
 6176POPC   C1B77839  23.441   9.699   6.464
 6176POPC   C2B77840  23.466   9.710   6.764
 6176POPC   C3B77841  23.450   9.697   7.064
 6176POPC   C4B77842  23.426   9.701   7.364
 6177POPC   NC377843   0.418  15.910   5.564
 6177POPC   PO477844   0.436  15.913   5.864
 6177POPC   GL177845   0.441  15.926   6.164
 6177POPC   GL277846   0.520  15.837   6.164
 6177POPC   C1A77847   0.467  15.987   6.464
 6177POPC   D2A77848   0.414  15.995   6.764
 6177POPC   C3A77849   0.409  15.928   7.064
 6177POPC   C4A77850   0.452  15.978   7.364
 6177POPC   C1B77851   0.670  15.823   6.464
 6177POPC   C2B77852   0.608  15.850   6.764
 6177POPC   C3B77853   0.686  15.809   7.064
 6177POPC   C4B77854   0.687  15.765   7.364
 6178POPC   NC377855  17.460   8.984   5.564
 6178POPC   PO477856  17.545   8.996   5.864
 6178POPC   GL177857  17.527   8.937   6.164
 6178POPC   GL277858  17.617   9.028   6.164
 6178POPC   C1A77859  17.511   8.943   6.464
 6178POPC   D2A77860  17.544   8.963   6.764
 6178POPC   C3A77861  17.556   9.003   7.064
 6178POPC   C4A77862  17.466   9.022   7.364
 6178POPC   C1B77863  17.760   9.000   6.464
 6178POPC   C2B77864  17.779   8.995   6.764
 6178POPC   C3B77865  17.800   9.040   7.064
 6178POPC   C4B77866  17.802   9.045   7.364
 6179POPC   NC377867  33.809  29.912   5.564
 6179POPC   PO477868  33.758  29.949   5.864
 6179POPC   GL177869  33.792  29.937   6.164
 6179POPC   GL277870  33.797  30.006   6.164
 6179POPC   C1A77871  33.825  29.957   6.464
 6179POPC   D2A77872  33.791  29.908   6.764
 6179POPC   C3A77873  33.755  29.916   7.064
 6179POPC   C4A77874  33.847  29.945   7.364
 6179POPC   C1B77875  33.844  30.196   6.464
 6179POPC   C2B77876  33.861  30.197   6.764
 6179POPC   C3B77877  33.867  30.183   7.064
 6179POPC   C4B77878  33.900  30.125   7.364
 6180POPC   NC377879  14.381  40.026   5.564
 6180POPC   PO477880  14.406  40.023   5.864
 6180POPC   GL177881  14.378  40.029   6.164
 6180POPC   GL277882  14.300  39.876   6.164
 6180POPC   C1A77883  14.405  39.963   6.464
 6180POPC   D2A77884  14.440  40.043   6.764
 6180POPC   C3A77885  14.393  39.976   7.064
 6180POPC   C4A77886  14.438  39.970   7.364
 6180POPC   C1B77887  14.221  39.839   6.464
 6180POPC   C2B77888  14.178  39.861   6.764
 6180POPC   C3B77889  14.267  39.810   7.064
 6180POPC   C4B77890  14.212  39.811   7.364
 6181POPC   NC377891  22.951  40.022   5.564
 6181POPC   PO477892  22.959  39.965   5.864
 6181POPC   GL177893  22.929  40.040   6.164
 6181POPC   GL277894  23.090  39.933   6.164
 6181POPC   C1A77895  22.919  40.054   6.464
 6181POPC   D2A77896  22.981  40.025   6.764
 6181POPC   C3A77897  22.931  40.056   7.064
 6181POPC   C4A77898  22.915  40.055   7.364
 6181POPC   C1B77899  23.216  39.874   6.464
 6181POPC   C2B77900  23.134  39.903   6.764
 6181POPC   C3B77901  23.167  39.900   7.064
 6181POPC   C4B77902  23.158  39.894   7.364
 6182POPC   NC377903  40.755  35.308   5.564
 6182POPC   PO477904  40.799  35.311   5.864
 6182POPC   GL177905  40.764  35.379   6.164
 6182POPC   GL277906  40.693  35.447   6.164
 6182POPC   C1A77907  40.795  35.311   6.464
 6182POPC   D2A77908  40.802  35.349   6.764
 6182POPC   C3A77909  40.807  35.332   7.064
 6182POPC   C4A77910  40.766  35.344   7.364
 6182POPC   C1B77911  40.677  35.513   6.464
 6182POPC   C2B77912  40.586  35.585   6.764
 6182POPC   C3B77913  40.629  35.509   7.064
 6182POPC   C4B77914  40.631  35.522   7.364
 6183POPC   NC377915   2.756  38.462   5.564
 6183POPC   PO477916   2.763  38.455   5.864
 6183POPC   GL177917   2.786  38.484   6.164
 6183POPC   GL277918   2.844  38.469   6.164
 6183POPC   C1A77919   2.781  38.416   6.464
 6183POPC   D2A77920   2.768  38.410   6.764
 6183POPC   C3A77921   2.751  38.428   7.064
 6183POPC   C4A77922   2.720  38.435   7.364
 6183POPC   C1B77923   2.995  38.502   6.464
 6183POPC   C2B77924   2.954  38.495   6.764
 6183POPC   C3B77925   2.991  38.531   7.064
 6183POPC   C4B77926   2.981  38.488   7.364
 6184POPC   NC377927  26.056   7.397   5.564
 6184POPC   PO477928  26.031   7.448   5.864
 6184POPC   GL177929  26.040   7.449   6.164
 6184POPC   GL277930  26.180   7.421   6.164
 6184POPC   C1A77931  26.053   7.427   6.464
 6184POPC   D2A77932  26.056   7.422   6.764
 6184POPC   C3A77933  26.052   7.400   7.064
 6184POPC   C4A77934  26.010   7.384   7.364
 6184POPC   C1B77935  26.326   7.363   6.464
 6184POPC   C2B77936  26.297   7.376   6.764
 6184POPC   C3B77937  26.268   7.423   7.064
 6184POPC   C4B77938  26.319   7.379   7.364
 6185POPC   NC377939  13.627   0.458   5.564
 6185POPC   PO477940  13.621   0.460   5.864
 6185POPC   GL177941  13.602   0.447   6.164
 6185POPC   GL277942  13.673   0.369   6.164
 6185POPC   C1A77943  13.641   0.474   6.464
 6185POPC   D2A77944  13.595   0.420   6.764
 6185POPC   C3A77945  13.593   0.411   7.064
 6185POPC   C4A77946  13.655   0.421   7.364
 6185POPC   C1B77947  13.858   0.251   6.464
 6185POPC   C2B77948  13.850   0.318   6.764
 6185POPC   C3B77949  13.836   0.303   7.064
 6185POPC   C4B77950  13.826   0.250   7.364
 6186POPC   NC377951   0.486   8.214   5.564
 6186POPC   PO477952   0.422   8.209   5.864
 6186POPC   GL177953   0.397   8.215   6.164
 6186POPC   GL277954   0.501   8.296   6.164
 6186POPC   C1A77955   0.482   8.217   6.464
 6186POPC   D2A77956   0.395   8.191   6.764
 6186POPC   C3A77957   0.390   8.239   7.064
 6186POPC   C4A77958   0.456   8.243   7.364
 6186POPC   C1B77959   0.634   8.359   6.464
 6186POPC   C2B77960   0.664   8.341   6.764
 6186POPC   C3B77961   0.680   8.360   7.064
 6186POPC   C4B77962   0.631   8.363   7.364
 6187POPC   NC377963   6.677  37.637   5.564
 6187POPC   PO477964   6.666  37.645   5.864
 6187POPC   GL177965   6.678  37.720   6.164
 6187POPC   GL277966   6.640  37.519   6.164
 6187POPC   C1A77967   6.623  37.708   6.464
 6187POPC   D2A77968   6.639  37.653   6.764
 6187POPC   C3A77969   6.650  37.699   7.064
 6187POPC   C4A77970   6.691  37.687   7.364
 6187POPC   C1B77971   6.625  37.433   6.464
 6187POPC   C2B77972   6.643  37.463   6.764
 6187POPC   C3B77973   6.626  37.423   7.064
 6187POPC   C4B77974   6.587  37.414   7.364
 6188POPC   NC377975  28.392  25.232   5.564
 6188POPC   PO477976  28.416  25.290   5.864
 6188POPC   GL177977  28.325  25.219   6.164
 6188POPC   GL277978  28.284  25.163   6.164
 6188POPC   C1A77979  28.413  25.246   6.464
 6188POPC   D2A77980  28.341  25.301   6.764
 6188POPC   C3A77981  28.337  25.296   7.064
 6188POPC   C4A77982  28.405  25.232   7.364
 6188POPC   C1B77983  28.167  25.131   6.464
 6188POPC   C2B77984  28.124  25.097   6.764
 6188POPC   C3B77985  28.188  25.107   7.064
 6188POPC   C4B77986  28.128  25.100   7.364
 6189POPC   NC377987  37.713  21.339   5.564
 6189POPC   PO477988  37.630  21.372   5.864
 6189POPC   GL177989  37.656  21.353   6.164
 6189POPC   GL277990  37.736  21.232   6.164
 6189POPC   C1A77991  37.636  21.386   6.464
 6189POPC   D2A77992  37.709  21.381   6.764
 6189POPC   C3A77993  37.728  21.426   7.064
 6189POPC   C4A77994  37.643  21.427   7.364
 6189POPC   C1B77995  37.710  21.091   6.464
 6189POPC   C2B77996  37.713  21.157   6.764
 6189POPC   C3B77997  37.648  21.182   7.064
 6189POPC   C4B77998  37.654  21.173   7.364
 6190POPC   NC377999  30.672  20.642   5.564
 6190POPC   PO478000  30.705  20.597   5.864
 6190POPC   GL178001  30.657  20.628   6.164
 6190POPC   GL278002  30.652  20.681   6.164
 6190POPC   C1A78003  30.676  20.630   6.464
 6190POPC   D2A78004  30.680  20.621   6.764
 6190POPC   C3A78005  30.674  20.585   7.064
 6190POPC   C4A78006  30.676  20.625   7.364
 6190POPC   C1B78007  30.589  20.824   6.464
 6190POPC   C2B78008  30.623  20.822   6.764
 6190POPC   C3B78009  30.584  20.877   7.064
 6190POPC   C4B78010  30.645  20.856   7.364
 6191POPC   NC378011   6.675  20.580   5.564
 6191POPC   PO478012   6.618  20.577   5.864
 6191POPC   GL178013   6.616  20.645   6.164
 6191POPC   GL278014   6.703  20.750   6.164
 6191POPC   C1A78015   6.651  20.617   6.464
 6191POPC   D2A78016   6.685  20.566   6.764
 6191POPC   C3A78017   6.679  20.635   7.064
 6191POPC   C4A78018   6.596  20.622   7.364
 6191POPC   C1B78019   6.775  20.803   6.464
 6191POPC   C2B78020   6.841  20.781   6.764
 6191POPC   C3B78021   6.760  20.849   7.064
 6191POPC   C4B78022   6.771  20.839   7.364
 6192POPC   NC378023   0.465  26.050   5.564
 6192POPC   PO478024   0.443  26.005   5.864
 6192POPC   GL178025   0.452  26.088   6.164
 6192POPC   GL278026   0.579  26.144   6.164
 6192POPC   C1A78027   0.405  26.045   6.464
 6192POPC   D2A78028   0.460  26.035   6.764
 6192POPC   C3A78029   0.407  26.076   7.064
 6192POPC   C4A78030   0.467  26.000   7.364
 6192POPC   C1B78031   0.677  26.213   6.464
 6192POPC   C2B78032   0.599  26.160   6.764
 6192POPC   C3B78033   0.669  26.206   7.064
 6192POPC   C4B78034   0.671  26.243   7.364
 6193POPC   NC378035   9.743  26.786   5.564
 6193POPC   PO478036   9.775  26.837   5.864
 6193POPC   GL178037   9.699  26.863   6.164
 6193POPC   GL278038   9.647  26.920   6.164
 6193POPC   C1A78039   9.716  26.770   6.464
 6193POPC   D2A78040   9.759  26.853   6.764
 6193POPC   C3A78041   9.746  26.841   7.064
 6193POPC   C4A78042   9.757  26.802   7.364
 6193POPC   C1B78043   9.576  27.060   6.464
 6193POPC   C2B78044   9.575  27.027   6.764
 6193POPC   C3B78045   9.609  27.065   7.064
 6193POPC   C4B78046   9.653  27.051   7.364
 6194POPC   NC378047   8.936  28.382   5.564
 6194POPC   PO478048   8.970  28.335   5.864
 6194POPC   GL178049   8.978  28.406   6.164
 6194POPC   GL278050   8.829  28.419   6.164
 6194POPC   C1A78051   8.946  28.338   6.464
 6194POPC   D2A78052   8.990  28.357   6.764
 6194POPC   C3A78053   8.978  28.360   7.064
 6194POPC   C4A78054   8.968  28.359   7.364
 6194POPC   C1B78055   8.699  28.471   6.464
 6194POPC   C2B78056   8.720  28.472   6.764
 6194POPC   C3B78057   8.788  28.489   7.064
 6194POPC   C4B78058   8.768  28.424   7.364
 6195POPC   NC378059  40.042  11.282   5.564
 6195POPC   PO478060  39.998  11.289   5.864
 6195POPC   GL178061  40.051  11.319   6.164
 6195POPC   GL278062  40.082  11.397   6.164
 6195POPC   C1A78063  40.049  11.284   6.464
 6195POPC   D2A78064  40.039  11.325   6.764
 6195POPC   C3A78065  39.958  11.292   7.064
 6195POPC   C4A78066  39.980  11.281   7.364
 6195POPC   C1B78067  40.090  11.479   6.464
 6195POPC   C2B78068  40.160  11.552   6.764
 6195POPC   C3B78069  40.121  11.476   7.064
 6195POPC   C4B78070  40.090  11.547   7.364
 6196POPC   NC378071  27.583  27.603   5.564
 6196POPC   PO478072  27.610  27.606   5.864
 6196POPC   GL178073  27.577  27.576   6.164
 6196POPC   GL278074  27.665  27.697   6.164
 6196POPC   C1A78075  27.580  27.585   6.464
 6196POPC   D2A78076  27.597  27.611   6.764
 6196POPC   C3A78077  27.643  27.561   7.064
 6196POPC   C4A78078  27.548  27.601   7.364
 6196POPC   C1B78079  27.755  27.801   6.464
 6196POPC   C2B78080  27.767  27.797   6.764
 6196POPC   C3B78081  27.767  27.824   7.064
 6196POPC   C4B78082  27.687  27.783   7.364
 6197POPC   NC378083   4.326  29.159   5.564
 6197POPC   PO478084   4.339  29.111   5.864
 6197POPC   GL178085   4.281  29.156   6.164
 6197POPC   GL278086   4.219  29.278   6.164
 6197POPC   C1A78087   4.303  29.170   6.464
 6197POPC   D2A78088   4.283  29.185   6.764
 6197POPC   C3A78089   4.319  29.183   7.064
 6197POPC   C4A78090   4.343  29.157   7.364
 6197POPC   C1B78091   4.187  29.379   6.464
 6197POPC   C2B78092   4.236  29.350   6.764
 6197POPC   C3B78093   4.236  29.321   7.064
 6197POPC   C4B78094   4.167  29.327   7.364
 6198POPC   NC378095  26.051  34.584   5.564
 6198POPC   PO478096  26.020  34.546   5.864
 6198POPC   GL178097  26.018  34.595   6.164
 6198POPC   GL278098  25.996  34.730   6.164
 6198POPC   C1A78099  26.051  34.604   6.464
 6198POPC   D2A78100  26.039  34.531   6.764
 6198POPC   C3A78101  26.037  34.617   7.064
 6198POPC   C4A78102  26.010  34.544   7.364
 6198POPC   C1B78103  25.965  34.816   6.464
 6198POPC   C2B78104  25.955  34.828   6.764
 6198POPC   C3B78105  25.920  34.760   7.064
 6198POPC   C4B78106  25.906  34.845   7.364
 6199POPC   NC378107   1.181   2.011   5.564
 6199POPC   PO478108   1.188   1.974   5.864
 6199POPC   GL178109   1.240   1.983   6.164
 6199POPC   GL278110   1.151   2.134   6.164
 6199POPC   C1A78111   1.263   1.952   6.464
 6199POPC   D2A78112   1.203   1.971   6.764
 6199POPC   C3A78113   1.208   2.019   7.064
 6199POPC   C4A78114   1.219   1.942   7.364
 6199POPC   C1B78115   1.109   2.217   6.464
 6199POPC   C2B78116   1.118   2.221   6.764
 6199POPC   C3B78117   1.171   2.223   7.064
 6199POPC   C4B78118   1.195   2.185   7.364
 6200POPC   NC378119  22.115  37.687   5.564
 6200POPC   PO478120  22.162  37.677   5.864
 6200POPC   GL178121  22.171  37.632   6.164
 6200POPC   GL278122  22.172  37.765   6.164
 6200POPC   C1A78123  22.115  37.714   6.464
 6200POPC   D2A78124  22.184  37.719   6.764
 6200POPC   C3A78125  22.185  37.654   7.064
 6200POPC   C4A78126  22.131  37.674   7.364
 6200POPC   C1B78127  22.128  37.940   6.464
 6200POPC   C2B78128  22.169  37.888   6.764
 6200POPC   C3B78129  22.132  37.904   7.064
 6200POPC   C4B78130  22.170  37.931   7.364
 6201POPC   NC378131  18.279  19.066   5.564
 6201POPC   PO478132  18.311  19.024   5.864
 6201POPC   GL178133  18.254  19.071   6.164
 6201POPC   GL278134  18.211  19.085   6.164
 6201POPC   C1A78135  18.271  19.083   6.464
 6201POPC   D2A78136  18.233  19.077   6.764
 6201POPC   C3A78137  18.284  19.108   7.064
 6201POPC   C4A78138  18.310  19.056   7.364
 6201POPC   C1B78139  18.098  19.120   6.464
 6201POPC   C2B78140  18.014  19.183   6.764
 6201POPC   C3B78141  18.037  19.134   7.064
 6201POPC   C4B78142  18.001  19.112   7.364
 6202POPC   NC378143  10.553   6.669   5.564
 6202POPC   PO478144  10.534   6.598   5.864
 6202POPC   GL178145  10.544   6.650   6.164
 6202POPC   GL278146  10.597   6.736   6.164
 6202POPC   C1A78147  10.547   6.640   6.464
 6202POPC   D2A78148  10.510   6.672   6.764
 6202POPC   C3A78149  10.548   6.674   7.064
 6202POPC   C4A78150  10.494   6.637   7.364
 6202POPC   C1B78151  10.710   6.773   6.464
 6202POPC   C2B78152  10.733   6.745   6.764
 6202POPC   C3B78153  10.714   6.707   7.064
 6202POPC   C4B78154  10.738   6.715   7.364
 6203POPC   NC378155  31.447  16.690   5.564
 6203POPC   PO478156  31.425  16.744   5.864
 6203POPC   GL178157  31.465  16.707   6.164
 6203POPC   GL278158  31.505  16.582   6.164
 6203POPC   C1A78159  31.505  16.691   6.464
 6203POPC   D2A78160  31.476  16.735   6.764
 6203POPC   C3A78161  31.456  16.735   7.064
 6203POPC   C4A78162  31.460  16.723   7.364
 6203POPC   C1B78163  31.588  16.518   6.464
 6203POPC   C2B78164  31.647  16.536   6.764
 6203POPC   C3B78165  31.569  16.547   7.064
 6203POPC   C4B78166  31.584  16.493   7.364
 6204POPC   NC378167  34.587  26.046   5.564
 6204POPC   PO478168  34.611  26.066   5.864
 6204POPC   GL178169  34.558  26.056   6.164
 6204POPC   GL278170  34.524  25.922   6.164
 6204POPC   C1A78171  34.576  26.048   6.464
 6204POPC   D2A78172  34.616  26.053   6.764
 6204POPC   C3A78173  34.600  26.006   7.064
 6204POPC   C4A78174  34.546  26.091   7.364
 6204POPC   C1B78175  34.517  25.830   6.464
 6204POPC   C2B78176  34.435  25.765   6.764
 6204POPC   C3B78177  34.462  25.789   7.064
 6204POPC   C4B78178  34.505  25.782   7.364
 6205POPC   NC378179  14.408  40.747   5.564
 6205POPC   PO478180  14.382  40.785   5.864
 6205POPC   GL178181  14.403  40.736   6.164
 6205POPC   GL278182  14.569  40.811   6.164
 6205POPC   C1A78183  14.391  40.824   6.464
 6205POPC   D2A78184  14.358  40.749   6.764
 6205POPC   C3A78185  14.371  40.800   7.064
 6205POPC   C4A78186  14.403  40.807   7.364
 6205POPC   C1B78187  14.616  40.737   6.464
 6205POPC   C2B78188  14.636  40.780   6.764
 6205POPC   C3B78189  14.637  40.797   7.064
 6205POPC   C4B78190  14.639  40.777   7.364
 6206POPC   NC378191  32.277  15.204   5.564
 6206POPC   PO478192  32.203  15.192   5.864
 6206POPC   GL178193  32.272  15.213   6.164
 6206POPC   GL278194  32.296  15.269   6.164
 6206POPC   C1A78195  32.208  15.161   6.464
 6206POPC   D2A78196  32.287  15.171   6.764
 6206POPC   C3A78197  32.212  15.168   7.064
 6206POPC   C4A78198  32.204  15.207   7.364
 6206POPC   C1B78199  32.380  15.362   6.464
 6206POPC   C2B78200  32.371  15.407   6.764
 6206POPC   C3B78201  32.331  15.357   7.064
 6206POPC   C4B78202  32.408  15.375   7.364
 6207POPC   NC378203  12.877  25.278   5.564
 6207POPC   PO478204  12.877  25.275   5.864
 6207POPC   GL178205  12.844  25.285   6.164
 6207POPC   GL278206  12.711  25.360   6.164
 6207POPC   C1A78207  12.836  25.276   6.464
 6207POPC   D2A78208  12.817  25.229   6.764
 6207POPC   C3A78209  12.892  25.307   7.064
 6207POPC   C4A78210  12.822  25.223   7.364
 6207POPC   C1B78211  12.620  25.440   6.464
 6207POPC   C2B78212  12.673  25.419   6.764
 6207POPC   C3B78213  12.640  25.455   7.064
 6207POPC   C4B78214  12.676  25.372   7.364
 6208POPC   NC378215  22.155  13.588   5.564
 6208POPC   PO478216  22.114  13.659   5.864
 6208POPC   GL178217  22.138  13.661   6.164
 6208POPC   GL278218  22.200  13.549   6.164
 6208POPC   C1A78219  22.180  13.618   6.464
 6208POPC   D2A78220  22.161  13.650   6.764
 6208POPC   C3A78221  22.126  13.657   7.064
 6208POPC   C4A78222  22.133  13.612   7.364
 6208POPC   C1B78223  22.275  13.432   6.464
 6208POPC   C2B78224  22.311  13.450   6.764
 6208POPC   C3B78225  22.315  13.397   7.064
 6208POPC   C4B78226  22.332  13.459   7.364
 6209POPC   NC378227  13.655  37.643   5.564
 6209POPC   PO478228  13.653  37.635   5.864
 6209POPC   GL178229  13.623  37.728   6.164
 6209POPC   GL278230  13.573  37.566   6.164
 6209POPC   C1A78231  13.652  37.701   6.464
 6209POPC   D2A78232  13.621  37.677   6.764
 6209POPC   C3A78233  13.582  37.721   7.064
 6209POPC   C4A78234  13.592  37.656   7.364
 6209POPC   C1B78235  13.589  37.440   6.464
 6209POPC   C2B78236  13.583  37.473   6.764
 6209POPC   C3B78237  13.656  37.476   7.064
 6209POPC   C4B78238  13.599  37.427   7.364
 6210POPC   NC378239  33.804  24.447   5.564
 6210POPC   PO478240  33.842  24.489   5.864
 6210POPC   GL178241  33.781  24.516   6.164
 6210POPC   GL278242  33.837  24.405   6.164
 6210POPC   C1A78243  33.791  24.531   6.464
 6210POPC   D2A78244  33.824  24.473   6.764
 6210POPC   C3A78245  33.826  24.513   7.064
 6210POPC   C4A78246  33.832  24.455   7.364
 6210POPC   C1B78247  33.824  24.268   6.464
 6210POPC   C2B78248  33.835  24.282   6.764
 6210POPC   C3B78249  33.886  24.287   7.064
 6210POPC   C4B78250  33.869  24.220   7.364
 6211POPC   NC378251  37.635   4.339   5.564
 6211POPC   PO478252  37.648   4.325   5.864
 6211POPC   GL178253  37.641   4.345   6.164
 6211POPC   GL278254  37.736   4.239   6.164
 6211POPC   C1A78255  37.725   4.295   6.464
 6211POPC   D2A78256  37.673   4.303   6.764
 6211POPC   C3A78257  37.719   4.270   7.064
 6211POPC   C4A78258  37.680   4.352   7.364
 6211POPC   C1B78259  37.859   4.092   6.464
 6211POPC   C2B78260  37.800   4.108   6.764
 6211POPC   C3B78261  37.819   4.151   7.064
 6211POPC   C4B78262  37.796   4.115   7.364
 6212POPC   NC378263  32.258  25.223   5.564
 6212POPC   PO478264  32.274  25.303   5.864
 6212POPC   GL178265  32.232  25.249   6.164
 6212POPC   GL278266  32.327  25.320   6.164
 6212POPC   C1A78267  32.267  25.273   6.464
 6212POPC   D2A78268  32.279  25.271   6.764
 6212POPC   C3A78269  32.298  25.283   7.064
 6212POPC   C4A78270  32.246  25.314   7.364
 6212POPC   C1B78271  32.418  25.449   6.464
 6212POPC   C2B78272  32.456  25.406   6.764
 6212POPC   C3B78273  32.401  25.436   7.064
 6212POPC   C4B78274  32.394  25.422   7.364
 6213POPC   NC378275  19.882  36.919   5.564
 6213POPC   PO478276  19.870  36.897   5.864
 6213POPC   GL178277  19.822  36.876   6.164
 6213POPC   GL278278  19.876  36.990   6.164
 6213POPC   C1A78279  19.817  36.864   6.464
 6213POPC   D2A78280  19.832  36.938   6.764
 6213POPC   C3A78281  19.882  36.894   7.064
 6213POPC   C4A78282  19.841  36.870   7.364
 6213POPC   C1B78283  19.881  37.151   6.464
 6213POPC   C2B78284  19.901  37.108   6.764
 6213POPC   C3B78285  19.913  37.113   7.064
 6213POPC   C4B78286  19.899  37.133   7.364
 6214POPC   NC378287  27.601  15.185   5.564
 6214POPC   PO478288  27.558  15.157   5.864
 6214POPC   GL178289  27.597  15.157   6.164
 6214POPC   GL278290  27.702  15.120   6.164
 6214POPC   C1A78291  27.606  15.174   6.464
 6214POPC   D2A78292  27.558  15.193   6.764
 6214POPC   C3A78293  27.601  15.135   7.064
 6214POPC   C4A78294  27.545  15.189   7.364
 6214POPC   C1B78295  27.741  14.948   6.464
 6214POPC   C2B78296  27.785  14.996   6.764
 6214POPC   C3B78297  27.794  14.959   7.064
 6214POPC   C4B78298  27.791  14.966   7.364
 6215POPC   NC378299  22.935  15.985   5.564
 6215POPC   PO478300  22.925  16.003   5.864
 6215POPC   GL178301  22.924  15.993   6.164
 6215POPC   GL278302  22.816  15.929   6.164
 6215POPC   C1A78303  22.922  15.937   6.464
 6215POPC   D2A78304  22.951  15.947   6.764
 6215POPC   C3A78305  22.891  15.917   7.064
 6215POPC   C4A78306  22.926  15.986   7.364
 6215POPC   C1B78307  22.714  15.913   6.464
 6215POPC   C2B78308  22.682  15.876   6.764
 6215POPC   C3B78309  22.718  15.953   7.064
 6215POPC   C4B78310  22.721  15.961   7.364
 6216POPC   NC378311   9.784  44.667   5.564
 6216POPC   PO478312   9.727  44.627   5.864
 6216POPC   GL178313   9.763  44.612   6.164
 6216POPC   GL278314   9.785  44.802   6.164
 6216POPC   C1A78315   9.750  44.627   6.464
 6216POPC   D2A78316   9.739  44.639   6.764
 6216POPC   C3A78317   9.796  44.686   7.064
 6216POPC   C4A78318   9.715  44.617   7.364
 6216POPC   C1B78319   9.737  44.868   6.464
 6216POPC   C2B78320   9.701  44.910   6.764
 6216POPC   C3B78321   9.789  44.871   7.064
 6216POPC   C4B78322   9.735  44.911   7.364
 6217POPC   NC378323  25.256  20.622   5.564
 6217POPC   PO478324  25.277  20.582   5.864
 6217POPC   GL178325  25.314  20.604   6.164
 6217POPC   GL278326  25.096  20.535   6.164
 6217POPC   C1A78327  25.300  20.634   6.464
 6217POPC   D2A78328  25.252  20.647   6.764
 6217POPC   C3A78329  25.247  20.643   7.064
 6217POPC   C4A78330  25.238  20.620   7.364
 6217POPC   C1B78331  25.001  20.558   6.464
 6217POPC   C2B78332  25.008  20.519   6.764
 6217POPC   C3B78333  25.058  20.533   7.064
 6217POPC   C4B78334  25.034  20.511   7.364
 6218POPC   NC378335  10.536  29.873   5.564
 6218POPC   PO478336  10.544  29.890   5.864
 6218POPC   GL178337  10.547  29.931   6.164
 6218POPC   GL278338  10.585  29.785   6.164
 6218POPC   C1A78339  10.509  29.963   6.464
 6218POPC   D2A78340  10.476  29.884   6.764
 6218POPC   C3A78341  10.562  29.965   7.064
 6218POPC   C4A78342  10.541  29.947   7.364
 6218POPC   C1B78343  10.712  29.776   6.464
 6218POPC   C2B78344  10.731  29.776   6.764
 6218POPC   C3B78345  10.651  29.686   7.064
 6218POPC   C4B78346  10.647  29.752   7.364
 6219POPC   NC378347   7.395  40.031   5.564
 6219POPC   PO478348   7.442  40.027   5.864
 6219POPC   GL178349   7.415  40.052   6.164
 6219POPC   GL278350   7.386  39.931   6.164
 6219POPC   C1A78351   7.464  39.994   6.464
 6219POPC   D2A78352   7.460  40.008   6.764
 6219POPC   C3A78353   7.460  40.048   7.064
 6219POPC   C4A78354   7.401  39.977   7.364
 6219POPC   C1B78355   7.434  39.715   6.464
 6219POPC   C2B78356   7.365  39.798   6.764
 6219POPC   C3B78357   7.453  39.762   7.064
 6219POPC   C4B78358   7.453  39.738   7.364
 6220POPC   NC378359   9.702   1.986   5.564
 6220POPC   PO478360   9.720   1.961   5.864
 6220POPC   GL178361   9.785   2.011   6.164
 6220POPC   GL278362   9.857   2.083   6.164
 6220POPC   C1A78363   9.752   1.993   6.464
 6220POPC   D2A78364   9.707   1.960   6.764
 6220POPC   C3A78365   9.730   2.013   7.064
 6220POPC   C4A78366   9.758   2.018   7.364
 6220POPC   C1B78367   9.888   2.144   6.464
 6220POPC   C2B78368   9.948   2.206   6.764
 6220POPC   C3B78369   9.958   2.220   7.064
 6220POPC   C4B78370   9.881   2.201   7.364
 6221POPC   NC378371  11.340  33.008   5.564
 6221POPC   PO478372  11.254  33.036   5.864
 6221POPC   GL178373  11.334  33.011   6.164
 6221POPC   GL278374  11.300  33.167   6.164
 6221POPC   C1A78375  11.343  33.048   6.464
 6221POPC   D2A78376  11.327  33.072   6.764
 6221POPC   C3A78377  11.308  33.016   7.064
 6221POPC   C4A78378  11.256  32.983   7.364
 6221POPC   C1B78379  11.243  33.301   6.464
 6221POPC   C2B78380  11.323  33.302   6.764
 6221POPC   C3B78381  11.240  33.247   7.064
 6221POPC   C4B78382  11.230  33.313   7.364
 6222POPC   NC378383  12.885  37.710   5.564
 6222POPC   PO478384  12.883  37.650   5.864
 6222POPC   GL178385  12.902  37.660   6.164
 6222POPC   GL278386  12.944  37.642   6.164
 6222POPC   C1A78387  12.847  37.671   6.464
 6222POPC   D2A78388  12.808  37.661   6.764
 6222POPC   C3A78389  12.808  37.658   7.064
 6222POPC   C4A78390  12.875  37.716   7.364
 6222POPC   C1B78391  13.114  37.692   6.464
 6222POPC   C2B78392  13.056  37.709   6.764
 6222POPC   C3B78393  13.054  37.678   7.064
 6222POPC   C4B78394  13.099  37.728   7.364
 6223POPC   NC378395  21.392  35.367   5.564
 6223POPC   PO478396  21.386  35.332   5.864
 6223POPC   GL178397  21.378  35.399   6.164
 6223POPC   GL278398  21.477  35.366   6.164
 6223POPC   C1A78399  21.365  35.315   6.464
 6223POPC   D2A78400  21.343  35.316   6.764
 6223POPC   C3A78401  21.420  35.303   7.064
 6223POPC   C4A78402  21.399  35.337   7.364
 6223POPC   C1B78403  21.635  35.349   6.464
 6223POPC   C2B78404  21.659  35.333   6.764
 6223POPC   C3B78405  21.682  35.375   7.064
 6223POPC   C4B78406  21.603  35.349   7.364
 6224POPC   NC378407  26.800  27.545   5.564
 6224POPC   PO478408  26.788  27.602   5.864
 6224POPC   GL178409  26.767  27.640   6.164
 6224POPC   GL278410  26.780  27.530   6.164
 6224POPC   C1A78411  26.848  27.584   6.464
 6224POPC   D2A78412  26.850  27.642   6.764
 6224POPC   C3A78413  26.784  27.593   7.064
 6224POPC   C4A78414  26.780  27.623   7.364
 6224POPC   C1B78415  26.640  27.393   6.464
 6224POPC   C2B78416  26.659  27.423   6.764
 6224POPC   C3B78417  26.666  27.407   7.064
 6224POPC   C4B78418  26.702  27.394   7.364
 6225POPC   NC378419  32.979  11.324   5.564
 6225POPC   PO478420  32.994  11.305   5.864
 6225POPC   GL178421  33.005  11.288   6.164
 6225POPC   GL278422  32.946  11.150   6.164
 6225POPC   C1A78423  33.058  11.267   6.464
 6225POPC   D2A78424  33.030  11.267   6.764
 6225POPC   C3A78425  33.045  11.303   7.064
 6225POPC   C4A78426  33.000  11.341   7.364
 6225POPC   C1B78427  32.866  11.047   6.464
 6225POPC   C2B78428  32.919  11.050   6.764
 6225POPC   C3B78429  32.914  11.044   7.064
 6225POPC   C4B78430  32.935  11.109   7.364
 6226POPC   NC378431   8.242  22.184   5.564
 6226POPC   PO478432   8.189  22.194   5.864
 6226POPC   GL178433   8.177  22.212   6.164
 6226POPC   GL278434   8.332  22.137   6.164
 6226POPC   C1A78435   8.211  22.192   6.464
 6226POPC   D2A78436   8.179  22.141   6.764
 6226POPC   C3A78437   8.240  22.190   7.064
 6226POPC   C4A78438   8.212  22.201   7.364
 6226POPC   C1B78439   8.419  22.029   6.464
 6226POPC   C2B78440   8.453  22.034   6.764
 6226POPC   C3B78441   8.410  22.017   7.064
 6226POPC   C4B78442   8.454  22.079   7.364
 6227POPC   NC378443  31.455  24.484   5.564
 6227POPC   PO478444  31.483  24.445   5.864
 6227POPC   GL178445  31.488  24.485   6.164
 6227POPC   GL278446  31.579  24.570   6.164
 6227POPC   C1A78447  31.468  24.514   6.464
 6227POPC   D2A78448  31.450  24.521   6.764
 6227POPC   C3A78449  31.425  24.451   7.064
 6227POPC   C4A78450  31.462  24.441   7.364
 6227POPC   C1B78451  31.667  24.666   6.464
 6227POPC   C2B78452  31.623  24.665   6.764
 6227POPC   C3B78453  31.635  24.696   7.064
 6227POPC   C4B78454  31.663  24.698   7.364
 6228POPC   NC378455   0.462  29.897   5.564
 6228POPC   PO478456   0.395  29.937   5.864
 6228POPC   GL178457   0.391  29.888   6.164
 6228POPC   GL278458   0.383  29.876   6.164
 6228POPC   C1A78459   0.483  29.949   6.464
 6228POPC   D2A78460   0.390  29.905   6.764
 6228POPC   C3A78461   0.454  29.929   7.064
 6228POPC   C4A78462   0.426  29.930   7.364
 6228POPC   C1B78463   0.241  29.771   6.464
 6228POPC   C2B78464   0.260  29.755   6.764
 6228POPC   C3B78465   0.275  29.818   7.064
 6228POPC   C4B78466   0.228  29.780   7.364
 6229POPC   NC378467  33.850  36.116   5.564
 6229POPC   PO478468  33.847  36.162   5.864
 6229POPC   GL178469  33.842  36.159   6.164
 6229POPC   GL278470  33.648  36.084   6.164
 6229POPC   C1A78471  33.836  36.151   6.464
 6229POPC   D2A78472  33.797  36.101   6.764
 6229POPC   C3A78473  33.804  36.159   7.064
 6229POPC   C4A78474  33.799  36.129   7.364
 6229POPC   C1B78475  33.550  36.076   6.464
 6229POPC   C2B78476  33.535  36.037   6.764
 6229POPC   C3B78477  33.534  36.040   7.064
 6229POPC   C4B78478  33.581  36.078   7.364
 6230POPC   NC378479  22.126  20.572   5.564
 6230POPC   PO478480  22.165  20.657   5.864
 6230POPC   GL178481  22.180  20.587   6.164
 6230POPC   GL278482  22.198  20.526   6.164
 6230POPC   C1A78483  22.188  20.562   6.464
 6230POPC   D2A78484  22.197  20.640   6.764
 6230POPC   C3A78485  22.132  20.651   7.064
 6230POPC   C4A78486  22.182  20.574   7.364
 6230POPC   C1B78487  22.214  20.380   6.464
 6230POPC   C2B78488  22.203  20.401   6.764
 6230POPC   C3B78489  22.178  20.315   7.064
 6230POPC   C4B78490  22.196  20.349   7.364
 6231POPC   NC378491   7.379  11.307   5.564
 6231POPC   PO478492   7.392  11.306   5.864
 6231POPC   GL178493   7.415  11.308   6.164
 6231POPC   GL278494   7.479  11.431   6.164
 6231POPC   C1A78495   7.419  11.346   6.464
 6231POPC   D2A78496   7.466  11.269   6.764
 6231POPC   C3A78497   7.451  11.328   7.064
 6231POPC   C4A78498   7.467  11.339   7.364
 6231POPC   C1B78499   7.491  11.526   6.464
 6231POPC   C2B78500   7.498  11.516   6.764
 6231POPC   C3B78501   7.466  11.590   7.064
 6231POPC   C4B78502   7.454  11.524   7.364
 6232POPC   NC378503  15.924  25.294   5.564
 6232POPC   PO478504  15.932  25.278   5.864
 6232POPC   GL178505  15.968  25.240   6.164
 6232POPC   GL278506  15.834  25.311   6.164
 6232POPC   C1A78507  15.947  25.267   6.464
 6232POPC   D2A78508  16.004  25.270   6.764
 6232POPC   C3A78509  16.003  25.281   7.064
 6232POPC   C4A78510  15.998  25.285   7.364
 6232POPC   C1B78511  15.753  25.269   6.464
 6232POPC   C2B78512  15.744  25.316   6.764
 6232POPC   C3B78513  15.719  25.271   7.064
 6232POPC   C4B78514  15.660  25.287   7.364
 6233POPC   NC378515  25.260   0.480   5.564
 6233POPC   PO478516  25.266   0.442   5.864
 6233POPC   GL178517  25.261   0.428   6.164
 6233POPC   GL278518  25.263   0.334   6.164
 6233POPC   C1A78519  25.248   0.486   6.464
 6233POPC   D2A78520  25.235   0.477   6.764
 6233POPC   C3A78521  25.225   0.472   7.064
 6233POPC   C4A78522  25.265   0.442   7.364
 6233POPC   C1B78523  25.203   0.151   6.464
 6233POPC   C2B78524  25.226   0.209   6.764
 6233POPC   C3B78525  25.272   0.229   7.064
 6233POPC   C4B78526  25.238   0.237   7.364
 6234W        W78527  27.148   0.273  12.354
 6235W        W78528  13.813  19.271   1.222
 6236W        W78529  28.140   2.937   0.902
 6237W        W78530  40.870  13.802  14.760
 6238W        W78531  22.106   2.333   5.299
 6239W        W78532  29.074   6.347  10.587
 6240W        W78533  12.748  32.391   3.226
 6241W        W78534  39.555   4.875  14.437
 6242W        W78535  43.982  36.513   9.652
 6243W        W78536  25.017  11.251   3.789
 6244W        W78537  16.810  12.260   1.750
 6245W        W78538  34.942  24.695   4.705
 6246W        W78539  35.406  15.635  14.317
 6247W        W78540  22.505  27.147   0.306
 6248W        W78541  15.275  40.403   2.266
 6249W        W78542  24.055  43.866   2.860
 6250W        W78543   3.440  21.091   1.729
 6251W        W78544  12.292  11.747   3.809
 6252W        W78545  17.211  24.623  11.451
 6253W        W78546  28.496   3.907   3.308
 6254W        W78547  22.651  44.313  12.559
 6255W        W78548  10.208  34.899  14.970
 6256W        W78549   0.911  41.010   1.835
 6257W        W78550  18.547   6.711  11.926
 6258W        W78551  40.997  38.839   0.456
 6259W        W78552   6.384  10.154   2.782
 6260W        W78553  40.326  14.278  10.559
 6261W        W78554  22.561  39.844   3.649
 6262W        W78555  22.240  34.071   3.727
 6263W        W78556  40.380   6.408  13.994
 6264W        W78557  19.694  29.952  12.343
 6265W        W78558  12.617  39.977  13.877
 6266W        W78559  39.503   5.837   1.918
 6267W        W78560  17.243  41.367  13.924
 6268W        W78561  29.657   0.960  13.469
 6269W        W78562  37.064   6.837   2.324
 6270W        W78563  44.385  11.817   3.814
 6271W        W78564  19.748   7.180  10.596
 6272W        W78565  43.995  28.070   1.294
 6273W        W78566   1.296   9.773  14.865
 6274W        W78567   5.288  27.117  13.524
 6275W        W78568  33.124   7.773  12.092
 6276W        W78569  36.527  31.533  12.922
 6277W        W78570   0.948  39.346  14.770
 6278W        W78571  41.331   6.867  10.520
 6279W        W78572   7.263  35.524   5.271
 6280W        W78573   3.812  30.944   0.329
 6281W        W78574  37.580  36.382   1.448
 6282W        W78575   9.377  42.884  10.474
 6283W        W78576  36.933  44.399  13.421
 6284W        W78577  12.762  10.658   2.286
 6285W        W78578  27.006  10.734   4.341
 6286W        W78579  33.466  32.963  12.446
 6287W        W78580  17.793  15.281   4.727
 6288W        W78581   5.880   5.703   2.691
 6289W        W78582  17.655  16.711  14.031
 6290W        W78583  24.003  38.894   2.705
 6291W        W78584   7.791  34.906   3.220
 6292W        W78585   1.373  30.610   4.240
 6293W        W78586  41.419  43.310   9.625
 6294W        W78587  36.439  33.465  13.447
 6295W        W78588  30.522  11.707   2.667
 6296W        W78589  27.046  34.428   2.806
 6297W        W78590   5.295  30.623  13.475
 6298W        W78591  27.955  11.759  14.887
 6299W        W78592  26.490  24.547   3.211
 6300W        W78593   0.350  20.686  10.955
 6301W        W78594  16.596  12.741   2.762
 6302W        W78595  10.317  21.237   9.966
 6303W        W78596   2.281   9.367   3.359
 6304W        W78597   6.773  25.985   3.729
 6305W        W78598   5.715  33.093   1.341
 6306W        W78599  28.074  21.151  12.887
 6307W        W78600  44.456  12.122  13.875
 6308W        W78601   0.298  13.272   4.237
 6309W        W78602   7.756  32.033   1.900
 6310W        W78603  24.555  25.155   4.248
 6311W        W78604  42.864  11.171  10.119
 6312W        W78605  19.151   7.303  14.886
 6313W        W78606   3.795  29.110   2.407
 6314W        W78607   7.237  31.963   4.610
 6315W        W78608   4.383  34.474  10.498
 6316W        W78609  13.315  16.152   2.358
 6317W        W78610  29.558  42.992   3.220
 6318W        W78611  16.795  31.951   0.945
 6319W        W78612   7.318  26.583   1.232
 6320W        W78613  38.368  14.205   0.419
 6321W        W78614   7.300  36.895  11.970
 6322W        W78615  12.752  17.799  11.105
 6323W        W78616   8.197  38.960  12.379
 6324W        W78617  25.206  10.338   0.966
 6325W        W78618  26.655  26.088   2.233
 6326W        W78619  14.155  18.233   2.900
 6327W        W78620  23.102  32.527  12.458
 6328W        W78621  36.841   8.819  13.870
 6329W        W78622  24.486  25.587  12.528
 6330W        W78623   1.868   9.394   3.688
 6331W        W78624  12.343  39.419   3.361
 6332W        W78625  19.089  32.961   4.813
 6333W        W78626  44.389  21.539  14.819
 6334W        W78627  38.858   2.331  14.360
 6335W        W78628  17.716  14.291   4.280
 6336W        W78629   1.260  17.193   4.340
 6337W        W78630  11.289  41.448   4.703
 6338W        W78631  26.523  17.268   3.671
 6339W        W78632  29.024  10.810  12.973
 6340W        W78633  34.508  21.517  13.029
 6341W        W78634   5.802  24.543   1.347
 6342W        W78635  29.428   5.918   3.757
 6343W        W78636  20.142  20.196  10.572
 6344W        W78637  32.481  30.098   2.297
 6345W        W78638  28.118  24.077  11.979
 6346W        W78639  31.456  33.508  13.332
 6347W        W78640  22.140   5.413  14.800
 6348W        W78641  31.039  41.863  13.839
 6349W        W78642   1.767  41.819  11.128
 6350W        W78643   4.244  42.885   3.262
 6351W        W78644  14.111  11.202   1.773
 6352W        W78645   4.441   0.880  14.501
 6353W        W78646  20.176  15.283   4.615
 6354W        W78647  19.625  23.626   2.255
 6355W        W78648  31.601  36.443   4.150
 6356W        W78649  23.163  13.325  12.035
 6357W        W78650  30.646  12.325  12.032
 6358W        W78651  31.413  11.372   0.926
 6359W        W78652   2.232  37.456  11.578
 6360W        W78653  18.654   3.259  13.931
 6361W        W78654  30.151  10.818  14.377
 6362W        W78655  39.058  33.036   2.314
 6363W        W78656  13.144  23.567  10.981
 6364W        W78657  38.400  35.994   2.376
 6365W        W78658  18.233   2.750   0.914
 6366W        W78659   4.400  11.624   4.270
 6367W        W78660  28.643  37.963  13.840
 6368W        W78661   9.765  35.486   1.849
 6369W        W78662   7.851  17.138  11.929
 6370W        W78663   5.377   8.877  14.287
 6371W        W78664  42.857  22.711   2.301
 6372W        W78665  36.072  35.467  11.087
 6373W        W78666  44.769  38.841  11.110
 6374W        W78667  24.714  30.087  10.641
 6375W        W78668  29.940  28.525  11.584
 6376W        W78669  13.633  35.416   0.482
 6377W        W78670  42.788  44.850  11.886
 6378W        W78671  20.085  20.096  11.888
 6379W        W78672   3.904  22.597  14.341
 6380W        W78673   1.411  22.609  13.521
 6381W        W78674   0.314  25.663  11.376
 6382W        W78675  24.584   0.930   3.692
 6383W        W78676  26.512   2.757  10.420
 6384W        W78677  16.661  44.805  12.409
 6385W        W78678  11.348  13.630  13.423
 6386W        W78679  27.109  39.958  12.894
 6387W        W78680  37.368  37.841   0.883
 6388W        W78681  20.585  16.207  13.005
 6389W        W78682   7.800  40.026  13.325
 6390W        W78683  12.699  35.572   2.732
 6391W        W78684   6.255  27.009  13.354
 6392W        W78685  15.310  30.620   0.410
 6393W        W78686  44.398   9.739  10.556
 6394W        W78687   1.364  35.574   2.330
 6395W        W78688  40.803  39.985  11.391
 6396W        W78689  35.531  36.951   2.780
 6397W        W78690  33.543  26.122  14.514
 6398W        W78691   4.246  39.518  11.076
 6399W        W78692  28.471  42.949   5.119
 6400W        W78693  22.134   6.294  12.492
 6401W        W78694   8.860  26.171  13.479
 6402W        W78695  19.612   0.916  13.425
 6403W        W78696  36.014  42.427   3.386
 6404W        W78697  44.962  38.453  10.478
 6405W        W78698  43.832  44.980   3.217
 6406W        W78699  12.728  21.556   1.899
 6407W        W78700  44.982  29.502  12.449
 6408W        W78701  26.528  26.588  12.396
 6409W        W78702  20.063  34.403  11.055
 6410W        W78703  44.313  30.112  12.832
 6411W        W78704   4.928   8.821  14.805
 6412W        W78705  10.820  40.428   3.732
 6413W        W78706  42.904   5.429   3.254
 6414W        W78707  18.651  22.033   3.759
 6415W        W78708  19.573  34.020   1.362
 6416W        W78709  17.228  33.898   3.818
 6417W        W78710  20.611  21.678  13.363
 6418W        W78711  28.037  39.470   2.331
 6419W        W78712  16.167  21.580  13.326
 6420W        W78713  19.088  34.971   4.222
 6421W        W78714  17.164  33.620  13.539
 6422W        W78715   9.305   8.791  10.595
 6423W        W78716   9.365  31.126   3.282
 6424W        W78717   5.319  20.148  10.963
 6425W        W78718  11.678  26.636  12.527
 6426W        W78719   8.671  23.665   4.180
 6427W        W78720  37.582  13.194   5.167
 6428W        W78721   7.908  11.689   4.794
 6429W        W78722   9.297  43.937  12.044
 6430W        W78723  34.018  16.312   3.213
 6431W        W78724  29.017  19.636  14.444
 6432W        W78725  27.168   0.319   1.718
 6433W        W78726  31.525   8.343   9.651
 6434W        W78727   4.904  36.917  12.421
 6435W        W78728  26.087  43.461   3.200
 6436W        W78729  34.404  23.006  12.527
 6437W        W78730  12.746  14.699   4.275
 6438W        W78731   2.797  39.454  14.849
 6439W        W78732   6.393  22.047   2.729
 6440W        W78733  18.729  21.591  11.989
 6441W        W78734  35.463   1.739   3.247
 6442W        W78735  22.555  18.720   3.683
 6443W        W78736  41.000   5.776   1.277
 6444W        W78737  41.038  11.716  14.881
 6445W        W78738  28.459  10.814   1.249
 6446W        W78739   5.257  33.409  10.627
 6447W        W78740  24.980  24.683  10.508
 6448W        W78741  26.585  32.488   3.246
 6449W        W78742  20.728   0.743   3.805
 6450W        W78743   2.403  42.929  14.965
 6451W        W78744  31.484  33.390   3.189
 6452W        W78745   0.854  34.959   9.936
 6453W        W78746  41.946  33.950  12.571
 6454W        W78747  21.136  13.348   1.830
 6455W        W78748  23.613  33.091   0.470
 6456W        W78749  40.051  16.702  12.969
 6457W        W78750  35.432  34.438   1.372
 6458W        W78751  24.689  41.371   0.892
 6459W        W78752  39.851  44.398   5.094
 6460W        W78753  34.912  24.036  12.888
 6461W        W78754  33.578  21.737  11.463
 6462W        W78755   2.437   5.814  13.984
 6463W        W78756  40.420  35.054  12.892
 6464W        W78757  18.250  26.683  11.428
 6465W        W78758  18.162   8.391   1.707
 6466W        W78759   2.363   4.721   0.366
 6467W        W78760  37.871  36.462   0.902
 6468W        W78761  26.466  32.049   3.312
 6469W        W78762   2.269  43.831  13.888
 6470W        W78763  44.477  24.492  10.514
 6471W        W78764  12.770  27.970   1.851
 6472W        W78765   6.346  20.214  13.887
 6473W        W78766  12.765  43.855  14.886
 6474W        W78767  13.757  23.510   1.449
 6475W        W78768  33.553  40.508  10.570
 6476W        W78769   3.460  28.987  11.596
 6477W        W78770  40.958  20.030   1.365
 6478W        W78771  34.460  39.026  13.059
 6479W        W78772   9.856  35.866   1.375
 6480W        W78773  30.575   9.173  10.454
 6481W        W78774   6.280  38.346   4.675
 6482W        W78775  16.132   2.847  13.471
 6483W        W78776  38.535  13.635   1.759
 6484W        W78777  14.768   6.326   2.819
 6485W        W78778  19.622  38.894   4.120
 6486W        W78779  36.969  38.932  14.847
 6487W        W78780  21.148   8.858  11.480
 6488W        W78781  24.150   9.792  11.862
 6489W        W78782  14.156  18.613  13.429
 6490W        W78783  29.109  30.915   4.696
 6491W        W78784  43.977  14.754   1.364
 6492W        W78785  43.393  38.934   4.827
 6493W        W78786  33.943  29.424  14.966
 6494W        W78787   0.282  39.040   4.120
 6495W        W78788  42.962  25.141  10.589
 6496W        W78789  37.367   2.467   3.663
 6497W        W78790  26.638  33.881   4.150
 6498W        W78791  42.515  29.557   1.441
 6499W        W78792   2.773  23.707   0.844
 6500W        W78793   0.773  25.586  13.373
 6501W        W78794  30.119  39.502   0.906
 6502W        W78795  43.412   7.329   1.404
 6503W        W78796  40.419  21.124   2.326
 6504W        W78797  14.236  11.172   4.820
 6505W        W78798   2.286   9.262  11.945
 6506W        W78799  23.619  11.353  14.314
 6507W        W78800  14.107  35.437  13.950
 6508W        W78801  37.531  21.641  14.353
 6509W        W78802  10.333  21.228  13.435
 6510W        W78803  21.135  44.307   0.447
 6511W        W78804  26.153  34.886   0.350
 6512W        W78805  27.024  44.815   1.702
 6513W        W78806  37.379  40.887   4.687
 6514W        W78807  14.333  33.591   2.221
 6515W        W78808  20.224   2.905  12.532
 6516W        W78809  29.113  16.635  13.793
 6517W        W78810  28.146  24.690  14.030
 6518W        W78811  33.466  36.050  14.821
 6519W        W78812  37.574  40.366   5.281
 6520W        W78813  26.519  13.206  12.970
 6521W        W78814   1.376  21.630  12.947
 6522W        W78815   2.406  38.555  12.033
 6523W        W78816  14.624  34.609  13.376
 6524W        W78817   6.755  35.964   5.153
 6525W        W78818  37.379   2.417   1.310
 6526W        W78819  27.044  24.059   5.173
 6527W        W78820  30.578  17.597   4.721
 6528W        W78821   4.297  32.037   1.748
 6529W        W78822  42.337  30.518  14.827
 6530W        W78823  18.295  19.742   1.353
 6531W        W78824   1.264  17.274  11.098
 6532W        W78825  36.512   9.329  12.936
 6533W        W78826   3.227  22.693  12.391
 6534W        W78827  27.466  29.026  14.957
 6535W        W78828  17.203  20.061   4.725
 6536W        W78829  19.207  10.710  10.894
 6537W        W78830  28.145  23.191   3.673
 6538W        W78831  38.845  12.856   4.665
 6539W        W78832  20.746   7.217   3.378
 6540W        W78833   3.313  38.871   3.763
 6541W        W78834  41.908  21.108   0.281
 6542W        W78835  27.054  32.063   9.972
 6543W        W78836  20.693  22.519   1.743
 6544W        W78837  41.036  26.083  14.889
 6545W        W78838  23.123   3.369   1.931
 6546W        W78839  20.067   3.726   2.216
 6547W        W78840  33.957  36.909   0.462
 6548W        W78841  22.188  21.023   5.143
 6549W        W78842   4.923  40.323  11.587
 6550W        W78843  42.927  16.208  13.470
 6551W        W78844   0.952  36.542   0.917
 6552W        W78845   2.229  17.240  12.096
 6553W        W78846   9.761  21.198  13.392
 6554W        W78847  24.506   9.822  12.975
 6555W        W78848  38.570  39.985   2.810
 6556W        W78849  28.961  20.575  14.869
 6557W        W78850  27.477  40.501   1.889
 6558W        W78851  34.508  37.458   3.833
 6559W        W78852  16.594  25.671   3.182
 6560W        W78853  32.938  27.076  11.937
 6561W        W78854  40.424  16.220  10.982
 6562W        W78855  34.884  44.852  14.833
 6563W        W78856  20.721  30.454  12.356
 6564W        W78857  30.597  16.166   3.190
 6565W        W78858  19.648   4.795  11.903
 6566W        W78859  25.070  27.948   2.733
 6567W        W78860  25.964  36.365   3.282
 6568W        W78861  15.603  10.230  10.640
 6569W        W78862  10.661   6.260  11.472
 6570W        W78863  14.303  12.226   4.272
 6571W        W78864  18.610   6.750   4.679
 6572W        W78865  41.842  12.145   1.330
 6573W        W78866  12.828  19.114  10.507
 6574W        W78867  26.633  34.007  12.907
 6575W        W78868  22.174  24.051   3.286
 6576W        W78869  39.860  15.681   3.206
 6577W        W78870   3.363  14.269  14.905
 6578W        W78871  36.954  28.068  11.105
 6579W        W78872   8.226  14.784   1.319
 6580W        W78873  37.961  27.510  13.396
 6581W        W78874  33.460   3.239   5.200
 6582W        W78875  19.713  38.327   0.733
 6583W        W78876  24.113  39.979  11.867
 6584W        W78877  33.382   4.747  11.869
 6585W        W78878  23.515  11.155   2.703
 6586W        W78879  19.244  29.042  14.012
 6587W        W78880  42.439   3.216   0.818
 6588W        W78881  34.490   9.889   2.750
 6589W        W78882  31.604   2.922  13.815
 6590W        W78883  32.053  43.412  13.356
 6591W        W78884  11.735   3.886  14.402
 6592W        W78885   6.318  13.747   1.327
 6593W        W78886  40.544  16.239   2.188
 6594W        W78887  35.365  44.818   4.666
 6595W        W78888  24.175   2.331  11.553
 6596W        W78889   2.440  20.124   2.205
 6597W        W78890  22.008  13.756  14.025
 6598W        W78891  12.182  25.664   4.340
 6599W        W78892  25.132  29.661  10.408
 6600W        W78893  28.623  32.997  12.085
 6601W        W78894   5.873   4.427  11.582
 6602W        W78895  40.521  14.252   0.293
 6603W        W78896  38.472  28.010   0.938
 6604W        W78897   7.767  18.295   1.767
 6605W        W78898  14.662  13.770   2.891
 6606W        W78899   1.387  37.863  10.559
 6607W        W78900  16.183   1.873  11.454
 6608W        W78901  31.991   9.212   5.276
 6609W        W78902  21.027  35.858   2.306
 6610W        W78903  40.531  17.204   3.688
 6611W        W78904  27.477  37.504   1.323
 6612W        W78905   6.789   5.863   0.421
 6613W        W78906  22.103  22.558   0.414
 6614W        W78907  36.523  37.549  14.945
 6615W        W78908   2.881  35.382   4.795
 6616W        W78909  20.604  43.921   4.146
 6617W        W78910  39.985   5.888  12.027
 6618W        W78911   0.914  41.293  11.901
 6619W        W78912  17.241   1.950   3.302
 6620W        W78913  11.763  44.893   0.877
 6621W        W78914  18.054  32.990  12.922
 6622W        W78915  26.477  23.525   4.152
 6623W        W78916  29.494  34.880  11.106
 6624W        W78917  42.300  34.562   4.173
 6625W        W78918  16.657  12.185   1.424
 6626W        W78919  39.493   5.819  10.510
 6627W        W78920  18.084  41.308  10.492
 6628W        W78921  27.982  17.304   4.158
 6629W        W78922  29.430  28.127  14.964
 6630W        W78923  22.194  12.198   0.762
 6631W        W78924  19.123  32.520  12.076
 6632W        W78925  44.891  20.566  11.857
 6633W        W78926  39.347  36.055  13.411
 6634W        W78927  42.889  15.705  13.384
 6635W        W78928  36.546  35.959   3.297
 6636W        W78929  32.531   0.746   1.822
 6637W        W78930   4.788  19.770   4.634
 6638W        W78931   8.337   1.783  13.897
 6639W        W78932  33.486  27.655   0.245
 6640W        W78933  25.572  12.225   1.804
 6641W        W78934  38.936   5.210   1.896
 6642W        W78935  36.919   4.734   0.275
 6643W        W78936   5.390  16.301   0.445
 6644W        W78937   8.744  16.734   3.231
 6645W        W78938  37.849  33.099  11.093
 6646W        W78939  17.299  44.935   0.294
 6647W        W78940  30.073  34.491   0.795
 6648W        W78941  25.572  13.274  14.997
 6649W        W78942  35.579  13.287   0.293
 6650W        W78943   4.408  30.064   3.844
 6651W        W78944  14.729  14.677   1.826
 6652W        W78945  24.060  38.336  13.885
 6653W        W78946  36.066  24.601   0.753
 6654W        W78947  39.967  26.497  11.975
 6655W        W78948  10.744  40.860   3.262
 6656W        W78949  42.948  38.440  10.564
 6657W        W78950  37.933  12.211   3.342
 6658W        W78951  13.282  15.725   4.196
 6659W        W78952  37.074   9.308  11.880
 6660W        W78953  19.610  29.541   0.905
 6661W        W78954  20.126  25.113   1.435
 6662W        W78955  25.123  38.951  10.615
 6663W        W78956  38.871  39.061   0.765
 6664W        W78957  12.841  16.287   4.319
 6665W        W78958  13.127  13.306   0.828
 6666W        W78959  26.621  17.709   1.443
 6667W        W78960   9.260  35.429  10.516
 6668W        W78961  21.154  35.990   0.426
 6669W        W78962  20.127  30.158   4.211
 6670W        W78963  30.049  40.512  13.890
 6671W        W78964  21.529  37.926   0.466
 6672W        W78965  33.097  22.250  14.943
 6673W        W78966   0.848  36.038   3.183
 6674W        W78967  36.543  26.177  10.893
 6675W        W78968   6.689  10.196   3.363
 6676W        W78969  14.235  33.948   1.882
 6677W        W78970   5.349  34.471   0.884
 6678W        W78971   7.342  19.557   2.251
 6679W        W78972   8.286  41.876  14.348
 6680W        W78973   0.394  13.217  13.873
 6681W        W78974  34.580  18.714   0.877
 6682W        W78975  26.099  12.170  13.899
 6683W        W78976   6.750   1.759  11.874
 6684W        W78977  36.902  13.837  11.008
 6685W        W78978   2.468   5.343  12.982
 6686W        W78979  11.785  31.914  12.483
 6687W        W78980  30.515  43.450  14.278
 6688W        W78981   4.925  10.783  10.065
 6689W        W78982  26.072  44.002  11.863
 6690W        W78983  36.957  43.434  10.459
 6691W        W78984  18.136   7.694  11.086
 6692W        W78985  38.877   4.423   2.346
 6693W        W78986  25.552  31.574  10.633
 6694W        W78987  42.903   0.281   1.318
 6695W        W78988   8.209   0.972   2.721
 6696W        W78989  34.871  20.710   3.720
 6697W        W78990  42.800  23.159   0.866
 6698W        W78991   3.746  36.976  14.351
 6699W        W78992   2.879  34.107  11.580
 6700W        W78993  41.912  41.012  10.938
 6701W        W78994  34.076  29.551   4.657
 6702W        W78995  37.890  12.750   1.395
 6703W        W78996  27.177  20.581  13.891
 6704W        W78997  38.461  31.080   0.369
 6705W        W78998  44.861  31.576   1.265
 6706W        W78999   5.808  14.150  14.789
 6707W        W79000  33.523  23.712   0.299
 6708W        W79001  10.774  13.834  11.870
 6709W        W79002   6.856  28.641  11.013
 6710W        W79003  26.689  41.798   0.385
 6711W        W79004  24.179   5.835   3.635
 6712W        W79005  30.472  16.737   2.260
 6713W        W79006   4.849  36.982   4.295
 6714W        W79007  17.797  42.871  11.953
 6715W        W79008  32.064   4.287   4.603
 6716W        W79009  12.124   4.880  11.128
 6717W        W79010  23.570   4.735   9.583
 6718W        W79011  11.339   0.793  12.036
 6719W        W79012  25.075  14.290  11.887
 6720W        W79013  30.568  31.115  11.476
 6721W        W79014  26.607   4.793  13.035
 6722W        W79015  15.644   0.803  10.430
 6723W        W79016  14.732  38.396   1.390
 6724W        W79017  17.152  38.469   0.366
 6725W        W79018   2.327  35.968   4.190
 6726W        W79019  20.038   0.282  14.368
 6727W        W79020   6.836  37.529   4.794
 6728W        W79021  29.633  36.420  11.423
 6729W        W79022   1.858   5.428   2.767
 6730W        W79023  32.048  21.137   0.823
 6731W        W79024  35.365  34.604   2.688
 6732W        W79025  12.729  31.109   3.287
 6733W        W79026  10.652   8.354  10.574
 6734W        W79027  37.831  43.329  10.587
 6735W        W79028  25.186  18.631   1.722
 6736W        W79029   2.467   4.790  11.087
 6737W        W79030  17.570  20.578   4.834
 6738W        W79031  12.183  38.002   3.226
 6739W        W79032  31.938  18.066   4.185
 6740W        W79033  35.916  27.091   2.345
 6741W        W79034  33.394   7.309   9.964
 6742W        W79035  29.939  37.066   3.163
 6743W        W79036  42.896  33.503   2.730
 6744W        W79037  44.825  21.746   4.793
 6745W        W79038   2.869  40.413  12.455
 6746W        W79039  25.018  39.007  13.381
 6747W        W79040  25.096  23.600   3.833
 6748W        W79041   5.340  30.110  11.932
 6749W        W79042  37.968  30.644   0.931
 6750W        W79043  43.368  31.587  12.559
 6751W        W79044  20.628  30.935   1.369
 6752W        W79045   2.905  26.645  12.067
 6753W        W79046  38.541  29.932  10.984
 6754W        W79047   5.754  26.983  12.353
 6755W        W79048  16.196   5.760   0.912
 6756W        W79049  19.085  24.060   0.900
 6757W        W79050  39.818  23.159  14.390
 6758W        W79051  20.543  27.471   2.198
 6759W        W79052  37.982   4.914  12.433
 6760W        W79053  29.505  34.614   0.387
 6761W        W79054  17.186  35.960   9.952
 6762W        W79055  23.701   1.466   5.175
 6763W        W79056  13.123  29.600   5.233
 6764W        W79057  20.540   0.424   3.337
 6765W        W79058  13.758  43.467  11.032
 6766W        W79059  18.560   4.717   3.370
 6767W        W79060  40.436  30.915  12.932
 6768W        W79061  29.046  44.874   3.364
 6769W        W79062  16.605  30.646  10.923
 6770W        W79063   1.822  41.030  10.501
 6771W        W79064   6.713  36.357   1.760
 6772W        W79065  43.828  34.564   4.811
 6773W        W79066   7.695  20.169   0.278
 6774W        W79067  17.685   8.779   2.405
 6775W        W79068  13.823  23.203   1.293
 6776W        W79069   8.315  20.649  12.959
 6777W        W79070  32.055   9.301  11.532
 6778W        W79071   0.269  35.604   1.435
 6779W        W79072  35.520  16.611   3.325
 6780W        W79073  37.390  24.998   2.766
 6781W        W79074   8.708   4.776   3.661
 6782W        W79075  40.304   0.850   3.302
 6783W        W79076  20.562  37.050   0.822
 6784W        W79077  33.478  37.552  13.315
 6785W        W79078   9.876  33.908   1.420
 6786W        W79079  35.949  19.777  12.428
 6787W        W79080  39.866  21.537   1.365
 6788W        W79081  13.311   2.349  11.956
 6789W        W79082  39.450  28.513   3.220
 6790W        W79083   5.408  26.678  11.502
 6791W        W79084  25.195  12.231  11.485
 6792W        W79085  18.272  33.076   1.258
 6793W        W79086  39.468  16.578   0.382
 6794W        W79087  24.501  21.574  14.429
 6795W        W79088  43.909  16.584  10.422
 6796W        W79089  42.006  10.207  10.097
 6797W        W79090   4.744   7.217   0.389
 6798W        W79091   1.795  33.529   1.390
 6799W        W79092  43.884  21.584   2.851
 6800W        W79093   0.749   7.888   0.935
 6801W        W79094  29.140  34.892  11.533
 6802W        W79095   9.774  35.942   5.728
 6803W        W79096  35.602  39.861   0.825
 6804W        W79097  27.618   8.397   0.331
 6805W        W79098   2.746  28.141   1.880
 6806W        W79099   2.237   3.789   2.699
 6807W        W79100  22.714  17.596  13.841
 6808W        W79101  38.845   0.416   1.366
 6809W        W79102  33.537  24.668  14.905
 6810W        W79103  30.575  42.471  10.412
 6811W        W79104  33.979  36.446   1.265
 6812W        W79105  41.458  29.653   0.469
 6813W        W79106  29.926  18.564  14.808
 6814W        W79107   1.911  41.028   0.880
 6815W        W79108  33.950  10.864  12.933
 6816W        W79109   0.856  17.153  12.447
 6817W        W79110  27.947  13.163   4.153
 6818W        W79111  31.646  34.997  11.543
 6819W        W79112   4.392  21.126   4.258
 6820W        W79113  22.062  38.052  13.388
 6821W        W79114  32.501  11.294  14.460
 6822W        W79115   4.884   7.269  14.300
 6823W        W79116   8.796  38.342  10.571
 6824W        W79117   8.861  27.081  11.393
 6825W        W79118  41.926  42.368  13.914
 6826W        W79119  27.944  37.994  13.033
 6827W        W79120   7.908  37.379   4.837
 6828W        W79121  44.884  22.156   1.430
 6829W        W79122  39.857  14.244  11.540
 6830W        W79123  16.200  23.139   2.739
 6831W        W79124   2.894  20.704  13.055
 6832W        W79125  21.520   6.909   1.310
 6833W        W79126  13.756  11.666  12.076
 6834W        W79127  38.365  41.001   4.660
 6835W        W79128  42.792  22.018  13.922
 6836W        W79129   4.847   9.202  14.357
 6837W        W79130  26.596  28.602  10.899
 6838W        W79131  19.052  15.673   0.962
 6839W        W79132  19.579  21.246  13.341
 6840W        W79133  41.824  35.110   2.311
 6841W        W79134   6.398  17.631   1.918
 6842W        W79135  30.917  37.366   1.212
 6843W        W79136   3.332  22.603   1.910
 6844W        W79137  35.915   9.741  12.490
 6845W        W79138  41.330  30.447   3.847
 6846W        W79139  39.476  21.238  11.927
 6847W        W79140  14.159  18.592   2.790
 6848W        W79141  41.811  19.590  12.405
 6849W        W79142  11.661  16.796  14.451
 6850W        W79143  37.466  16.245  10.503
 6851W        W79144   9.198  35.446  13.889
 6852W        W79145  27.945  13.337  11.400
 6853W        W79146   3.222   4.830   3.357
 6854W        W79147  19.631  34.947   0.914
 6855W        W79148  13.754   6.312   0.780
 6856W        W79149   9.666  41.884   0.362
 6857W        W79150  16.154   8.801  12.409
 6858W        W79151  44.284  37.989   0.323
 6859W        W79152  41.313  39.852   0.359
 6860W        W79153  40.419   4.355   3.274
 6861W        W79154  28.606  12.350   0.751
 6862W        W79155   4.220  28.142   1.283
 6863W        W79156  23.574  39.871  14.804
 6864W        W79157  42.460   2.328  10.507
 6865W        W79158   0.986  31.091  11.890
 6866W        W79159  31.037   5.218  13.957
 6867W        W79160   1.902   4.758   2.692
 6868W        W79161   0.388  41.350   3.326
 6869W        W79162  28.626  38.498   3.242
 6870W        W79163  24.636   1.393  13.793
 6871W        W79164   1.767   2.386   1.884
 6872W        W79165  10.340  35.456   0.257
 6873W        W79166  10.767  17.144   1.776
 6874W        W79167  43.838  21.245   3.329
 6875W        W79168   8.722  25.632  13.830
 6876W        W79169  29.963  39.371   1.291
 6877W        W79170   5.252  27.446   1.817
 6878W        W79171   1.968   1.326   3.317
 6879W        W79172   3.355  30.545   1.736
 6880W        W79173  23.629  22.619   3.325
 6881W        W79174  35.109  37.989   2.825
 6882W        W79175   8.288  14.146   4.337
 6883W        W79176  43.465  43.951  10.512
 6884W        W79177  27.670   7.210   2.399
 6885W        W79178   4.266  32.614  14.387
 6886W        W79179  12.729   4.318   5.155
 6887W        W79180  12.800  29.148  11.465
 6888W        W79181  17.259  22.633  12.445
 6889W        W79182   2.250  12.809   3.290
 6890W        W79183  13.627  29.664   0.448
 6891W        W79184  36.379   8.400  11.874
 6892W        W79185  20.239  23.044   5.270
 6893W        W79186  42.832  19.648  12.381
 6894W        W79187  17.155   3.244   0.296
 6895W        W79188  12.821  44.909   0.836
 6896W        W79189  31.617  37.342   3.364
 6897W        W79190  35.547  29.496   0.275
 6898W        W79191  41.434   4.310  11.591
 6899W        W79192  24.147  17.609   0.775
 6900W        W79193  25.014   9.215   3.804
 6901W        W79194  35.488  18.166  13.330
 6902W        W79195  35.915  12.135  11.953
 6903W        W79196  42.367  17.668  11.591
 6904W        W79197  27.165  31.466  12.418
 6905W        W79198  36.098   3.932  11.481
 6906W        W79199  40.357   0.948  12.848
 6907W        W79200  18.215   0.334   1.722
 6908W        W79201  38.449  33.411  11.011
 6909W        W79202  34.531  38.049   4.645
 6910W        W79203  29.031  30.615  11.056
 6911W        W79204  36.368  19.754  11.453
 6912W        W79205  17.296  22.540  10.635
 6913W        W79206  23.101   5.749  12.087
 6914W        W79207  15.608   6.802   2.179
 6915W        W79208  38.446   0.860   3.762
 6916W        W79209   0.267   6.378   2.783
 6917W        W79210  19.778  35.538   3.182
 6918W        W79211  42.354  33.459   1.431
 6919W        W79212  11.256  17.797  11.068
 6920W        W79213  17.787  10.376   4.824
 6921W        W79214  12.141  25.217   3.788
 6922W        W79215  42.924   5.253  11.602
 6923W        W79216  15.274  44.865   4.261
 6924W        W79217  17.732  19.606   1.346
 6925W        W79218   0.277  17.185  13.863
 6926W        W79219  29.012  29.984  10.616
 6927W        W79220  28.116  10.762   4.705
 6928W        W79221   8.248  29.974  12.510
 6929W        W79222  12.210  39.945   0.816
 6930W        W79223  16.083  28.930  11.539
 6931W        W79224   8.195  22.539   2.834
 6932W        W79225  19.118  35.939   1.395
 6933W        W79226  13.623  11.749  14.768
 6934W        W79227  44.262  24.986   3.265
 6935W        W79228  32.955  20.704  14.409
 6936W        W79229  39.914   9.850  12.942
 6937W        W79230  38.396   1.284  11.104
 6938W        W79231  34.020  43.775   0.874
 6939W        W79232  11.150  15.096   0.950
 6940W        W79233  25.475  24.041   1.233
 6941W        W79234   5.794   3.431   0.856
 6942W        W79235  44.464  16.127   2.889
 6943W        W79236  24.699  22.717   3.690
 6944W        W79237  18.701  24.202   4.195
 6945W        W79238  32.421  44.434   2.365
 6946W        W79239  38.037  40.542  13.937
 6947W        W79240   3.947  13.633   3.280
 6948W        W79241   0.983  19.579   3.179
 6949W        W79242  16.181  22.176   1.709
 6950W        W79243  29.170  36.410  13.876
 6951W        W79244   2.425  29.468   0.765
 6952W        W79245  44.470  26.198  11.597
 6953W        W79246  20.542   6.404   0.408
 6954W        W79247   3.289  34.972   4.722
 6955W        W79248  22.126  22.207  11.090
 6956W        W79249  27.111   5.321   3.229
 6957W        W79250  18.067  29.549  11.539
 6958W        W79251   4.787  44.972   0.895
 6959W        W79252  40.024  41.962   4.198
 6960W        W79253  44.888  40.382  11.959
 6961W        W79254  12.721   4.366   4.599
 6962W        W79255   0.314  16.583   2.384
 6963W        W79256  29.488  30.933   4.174
 6964W        W79257  17.559  44.262  13.514
 6965W        W79258  36.421  22.008   4.799
 6966W        W79259  36.068  42.288  11.920
 6967W        W79260  31.429  18.209   1.838
 6968W        W79261  21.744  19.626   4.289
 6969W        W79262  41.031  35.063   0.254
 6970W        W79263   4.878  30.134  11.926
 6971W        W79264  44.888   2.289   3.779
 6972W        W79265  12.356  10.809  14.759
 6973W        W79266  41.438  22.535   5.187
 6974W        W79267  10.375  17.688  11.385
 6975W        W79268   0.889  29.433  10.485
 6976W        W79269  18.649   6.857   3.245
 6977W        W79270  23.052  30.050   2.372
 6978W        W79271  39.490  11.178  11.983
 6979W        W79272  18.270  43.848   1.410
 6980W        W79273  38.471  10.186   3.163
 6981W        W79274  15.813  29.953   1.925
 6982W        W79275  42.793  14.615  14.376
 6983W        W79276   4.208  44.978   2.241
 6984W        W79277  14.337  31.546   2.410
 6985W        W79278   8.334  26.954  10.904
 6986W        W79279  43.807   5.827  13.370
 6987W        W79280  19.114  17.079  14.305
 6988W        W79281  31.978   0.973   2.778
 6989W        W79282  24.092  19.714  12.008
 6990W        W79283   0.963  36.896   3.199
 6991W        W79284   3.948  18.620   1.311
 6992W        W79285  37.082   3.287  10.941
 6993W        W79286  28.090  25.176  11.037
 6994W        W79287  35.892   7.270   1.921
 6995W        W79288  41.919  38.072  12.990
 6996W        W79289  33.415  27.053   4.676
 6997W        W79290  20.193   0.988  11.411
 6998W        W79291  40.386  20.185  10.411
 6999W        W79292  44.503   0.440   4.215
 7000W        W79293  17.263  43.803   3.250
 7001W        W79294   0.965  38.043   4.232
 7002W        W79295   5.911   2.378   0.480
 7003W        W79296  15.813   8.703  12.474
 7004W        W79297   5.308  16.074   1.908
 7005W        W79298  19.054   8.380  12.405
 7006W        W79299  38.391  39.049   1.753
 7007W        W79300  10.724  18.628   2.834
 7008W        W79301  38.437  39.937   1.376
 7009W        W79302   9.229  26.070   0.261
 7010W        W79303   7.192  15.741   2.682
 7011W        W79304  40.519   8.711  11.873
 7012W        W79305   8.693   4.393   4.717
 7013W        W79306  10.320   6.848   0.257
 7014W        W79307  17.112  16.674  12.059
 7015W        W79308  39.371  22.703   0.281
 7016W        W79309   7.877  41.472  11.084
 7017W        W79310  27.005  39.820  14.927
 7018W        W79311  27.494   0.402  12.936
 7019W        W79312  10.353  42.912   3.767
 7020W        W79313  17.775  32.006   2.269
 7021W        W79314   5.904  19.238   3.841
 7022W        W79315  30.554  42.897  14.484
 7023W        W79316  23.515   8.676  11.110
 7024W        W79317   6.241  42.370  14.299
 7025W        W79318  38.476  41.453  12.373
 7026W        W79319  13.612  24.126  13.470
 7027W        W79320   4.436  13.700  13.931
 7028W        W79321   8.786  25.470  12.349
 7029W        W79322  25.151   6.832  13.940
 7030W        W79323  11.796  23.712   1.840
 7031W        W79324  11.351  24.696  12.372
 7032W        W79325  26.667  23.657   2.350
 7033W        W79326  26.108  18.762   3.683
 7034W        W79327   3.811  17.700   3.760
 7035W        W79328  14.139  31.436  10.582
 7036W        W79329  15.805  24.492   4.787
 7037W        W79330  38.905  23.021  14.931
 7038W        W79331   9.389  12.621  11.901
 7039W        W79332  31.442  16.600   0.398
 7040W        W79333   3.433   1.806  12.998
 7041W        W79334  30.593   7.382  13.010
 7042W        W79335   3.301  14.123  13.994
 7043W        W79336   6.424  11.192  10.433
 7044W        W79337   8.736  12.131  13.328
 7045W        W79338  27.495  23.127   3.806
 7046W        W79339  31.618  14.639  12.904
 7047W        W79340  22.686  19.716   0.773
 7048W        W79341  40.363  38.555   3.261
 7049W        W79342  28.639  31.407   2.680
 7050W        W79343  35.474  44.302   0.880
 7051W        W79344  11.780  28.570   9.980
 7052W        W79345  31.631   0.334  13.955
 7053W        W79346  39.357  39.000  12.886
 7054W        W79347  35.873  10.766  14.418
 7055W        W79348   1.446  28.081   2.347
 7056W        W79349  34.005  38.375  11.038
 7057W        W79350   5.283  35.103  14.366
 7058W        W79351  43.808  29.946  12.424
 7059W        W79352   3.941  23.080   0.378
 7060W        W79353  12.736  17.752  10.463
 7061W        W79354  19.738   0.494  10.588
 7062W        W79355  34.949  19.054   1.794
 7063W        W79356  18.281  17.165  11.954
 7064W        W79357  13.287  28.055  14.409
 7065W        W79358  12.629  43.812   4.723
 7066W        W79359  31.566  39.868   1.329
 7067W        W79360  13.739  25.688  12.069
 7068W        W79361  33.435  10.382   0.933
 7069W        W79362  10.295  33.125   5.238
 7070W        W79363  12.616   3.768  10.482
 7071W        W79364  38.492   9.821   2.211
 7072W        W79365  25.039   6.710  11.003
 7073W        W79366  15.669  30.571   3.720
 7074W        W79367  15.135   4.714   1.262
 7075W        W79368  18.677   7.308  14.028
 7076W        W79369  16.135  13.150   1.916
 7077W        W79370   0.444  32.494  11.544
 7078W        W79371  18.778  29.471   1.819
 7079W        W79372  15.221   4.366   2.871
 7080W        W79373  42.522   6.308  10.443
 7081W        W79374  16.205  23.057   4.343
 7082W        W79375  22.740   2.407   3.868
 7083W        W79376   0.372   1.889  14.285
 7084W        W79377  22.616  24.670   3.264
 7085W        W79378  38.048  35.497   0.446
 7086W        W79379  14.758  42.966   2.723
 7087W        W79380  17.185  38.054  12.936
 7088W        W79381   9.354   7.819  10.963
 7089W        W79382   1.787  32.047   0.739
 7090W        W79383  39.522  23.544  13.948
 7091W        W79384   1.969   9.385   1.329
 7092W        W79385  15.625  41.808   2.886
 7093W        W79386   9.332  34.603   1.756
 7094W        W79387  15.817  30.059   0.888
 7095W        W79388  25.110  17.230   4.651
 7096W        W79389  16.744  28.575   3.193
 7097W        W79390   4.305   8.257   2.793
 7098W        W79391  28.527  19.697   2.855
 7099W        W79392   4.899   2.838  13.013
 7100W        W79393   9.864  32.414   4.143
 7101W        W79394   1.766  19.131  11.394
 7102W        W79395  23.231  25.533   4.816
 7103W        W79396  11.233  36.889  10.533
 7104W        W79397  16.681   7.769  11.418
 7105W        W79398  36.852  15.254   1.409
 7106W        W79399  18.756   4.377   3.284
 7107W        W79400  15.756  43.017  10.513
 7108W        W79401  29.437  39.342  11.978
 7109W        W79402  29.152  22.712   2.863
 7110W        W79403  18.095  11.739  10.448
 7111W        W79404  39.536  42.513   0.310
 7112W        W79405   2.273  40.407  14.276
 7113W        W79406   9.740  28.150  13.335
 7114W        W79407  16.170  39.326   4.700
 7115W        W79408  16.589  39.551  14.408
 7116W        W79409  34.097   5.274  10.902
 7117W        W79410  23.716  27.560  12.073
 7118W        W79411  37.932  16.619  13.505
 7119W        W79412  11.269   3.759   1.821
 7120W        W79413  24.680  33.593  12.881
 7121W        W79414  20.199  13.631   3.723
 7122W        W79415  20.763  15.823   4.621
 7123W        W79416  21.200   9.393   1.906
 7124W        W79417  25.501  14.289  14.430
 7125W        W79418  34.385  15.259   2.734
 7126W        W79419  20.545  43.814   0.475
 7127W        W79420  36.845  40.413  11.479
 7128W        W79421  21.161  33.392   3.263
 7129W        W79422  12.285   4.319   2.706
 7130W        W79423  32.972   0.420   3.226
 7131W        W79424  34.429  23.010  14.501
 7132W        W79425  11.760  18.711  12.924
 7133W        W79426  25.595   3.329   9.959
 7134W        W79427   1.483  20.055  11.420
 7135W        W79428  20.182  11.713  14.988
 7136W        W79429  11.683   7.215  11.940
 7137W        W79430   9.255   3.256   4.278
 7138W        W79431   5.865  11.754   0.869
 7139W        W79432  29.165  27.996  13.439
 7140W        W79433  37.399  19.600  13.976
 7141W        W79434  11.736  16.654   3.271
 7142W        W79435  41.315  42.417  12.378
 7143W        W79436  15.129   9.795   1.391
 7144W        W79437  21.707   1.337   4.746
 7145W        W79438  24.623  28.644  11.532
 7146W        W79439   6.276  21.742   4.143
 7147W        W79440  44.770  34.885   3.714
 7148W        W79441  17.760  29.116  12.471
 7149W        W79442   7.293   2.251   4.621
 7150W        W79443  32.614  13.731   3.724
 7151W        W79444  38.455  14.329   3.232
 7152W        W79445   8.718  14.615  10.463
 7153W        W79446  13.631  14.773  12.980
 7154W        W79447  40.053   1.459  12.858
 7155W        W79448  28.090  31.623  14.778
 7156W        W79449  23.602   4.369  14.516
 7157W        W79450  16.669  10.816  14.307
 7158W        W79451  35.995  35.094   2.740
 7159W        W79452  19.771  26.605   3.855
 7160W        W79453  37.920  33.973   1.787
 7161W        W79454  44.504  42.491  14.928
 7162W        W79455  32.578  30.115  10.638
 7163W        W79456  15.811  12.823   1.717
 7164W        W79457  11.635  32.102  10.603
 7165W        W79458   6.789  17.260   4.217
 7166W        W79459  41.804  23.641   4.183
 7167W        W79460  28.126  21.697  12.578
 7168W        W79461  26.661  31.917  11.431
 7169W        W79462  31.605  31.095   4.794
 7170W        W79463   8.399  25.703   3.184
 7171W        W79464  27.642  12.129  14.360
 7172W        W79465  25.060  24.478   0.850
 7173W        W79466  41.982  23.071   2.693
 7174W        W79467  24.035  42.851   2.254
 7175W        W79468  23.599   3.276  10.983
 7176W        W79469  27.540  18.289   2.293
 7177W        W79470  26.206  41.296  14.491
 7178W        W79471  44.842  16.153   0.944
 7179W        W79472  37.519  20.155  14.294
 7180W        W79473   8.716  13.259  14.782
 7181W        W79474   5.694  13.315   3.743
 7182W        W79475   0.892  15.274  13.821
 7183W        W79476   2.448  33.052  13.908
 7184W        W79477  37.444  12.135   3.776
 7185W        W79478   2.246  44.356  12.936
 7186W        W79479  43.377  20.725   0.483
 7187W        W79480  14.602   2.436   2.857
 7188W        W79481  29.027  41.474  14.354
 7189W        W79482  38.406  43.353   4.675
 7190W        W79483  32.508  43.403   3.322
 7191W        W79484  40.820  13.610   1.791
 7192W        W79485  12.306  33.886   1.301
 7193W        W79486  21.689  38.910   0.746
 7194W        W79487  30.550  20.708   2.268
 7195W        W79488   1.300  17.092  12.414
 7196W        W79489  23.645  33.435   4.651
 7197W        W79490   1.977  30.579  13.903
 7198W        W79491  43.016  17.269  10.891
 7199W        W79492  41.013   4.233   3.324
 7200W        W79493  13.755  37.468   1.864
 7201W        W79494  44.753  16.611  10.085
 7202W        W79495  37.831  20.644  13.373
 7203W        W79496  14.336   4.441  14.407
 7204W        W79497  26.017  42.808   0.905
 7205W        W79498  32.945  20.626  12.986
 7206W        W79499  41.408   8.811   3.722
 7207W        W79500  34.022  10.345   2.898
 7208W        W79501   8.389   8.813   5.239
 7209W        W79502  30.144  10.873  11.025
 7210W        W79503  27.594  37.048  13.358
 7211W        W79504  26.695  31.635  13.379
 7212W        W79505   0.970  42.899  13.857
 7213W        W79506  44.977  33.126  11.434
 7214W        W79507   4.300  17.233   3.781
 7215W        W79508  13.199   5.380   0.889
 7216W        W79509  11.195  39.508  12.862
 7217W        W79510  31.943  27.152  13.488
 7218W        W79511  11.743  38.869  13.861
 7219W        W79512   1.796  44.798   2.677
 7220W        W79513  12.675   7.737   3.148
 7221W        W79514   3.905  15.195   3.212
 7222W        W79515  34.567  30.973   3.252
 7223W        W79516  15.689   0.899  14.801
 7224W        W79517  28.646  30.547   1.245
 7225W        W79518   0.889  33.479  14.360
 7226W        W79519  23.061   6.239  10.502
 7227W        W79520  30.100   5.724   0.965
 7228W        W79521  18.206   9.714  13.385
 7229W        W79522  25.677  13.654   2.670
 7230W        W79523  36.908  23.239  14.391
 7231W        W79524  16.662  34.084   3.357
 7232W        W79525  31.029  28.131  10.070
 7233W        W79526  26.102  35.589   4.661
 7234W        W79527   6.246  26.463   0.962
 7235W        W79528  41.451  23.170  14.936
 7236W        W79529  19.704   3.398  11.606
 7237W        W79530  22.624  31.605  10.945
 7238W        W79531  37.379  23.235  13.443
 7239W        W79532  35.413  34.487   3.246
 7240W        W79533  24.013  14.612  13.365
 7241W        W79534  30.954  23.021  14.397
 7242W        W79535  26.557  31.896  13.344
 7243W        W79536   8.737  18.752   0.884
 7244W        W79537  18.589  36.015  11.961
 7245W        W79538   5.282  27.961  14.892
 7246W        W79539  36.527  10.747   3.328
 7247W        W79540  43.005  17.602   0.261
 7248W        W79541   7.868  41.039  11.981
 7249W        W79542  35.368  29.660  13.049
 7250W        W79543  38.494   9.184   2.863
 7251W        W79544  25.180  24.992   0.853
 7252W        W79545  32.031  29.938  12.955
 7253W        W79546  16.172  23.011   0.396
 7254W        W79547  15.650  10.744  14.844
 7255W        W79548  16.645  20.757   0.320
 7256W        W79549  13.823  42.941   4.290
 7257W        W79550  14.667  33.935   4.229
 7258W        W79551  33.596  28.435   2.790
 7259W        W79552  12.305   7.857  13.793
 7260W        W79553  38.469   1.401  13.013
 7261W        W79554  43.011  25.042  12.569
 7262W        W79555  11.220  27.477   1.720
 7263W        W79556   4.748  42.517   4.232
 7264W        W79557  29.047  40.325   0.740
 7265W        W79558  18.750  22.143   0.410
 7266W        W79559  17.646  12.769   3.176
 7267W        W79560  13.290  13.779   1.392
 7268W        W79561  32.025  24.113  12.561
 7269W        W79562  39.369  34.105   3.753
 7270W        W79563  25.117  24.637  10.931
 7271W        W79564  18.276  34.525  10.466
 7272W        W79565   8.861  40.832   3.292
 7273W        W79566   9.824  26.490  11.536
 7274W        W79567  31.974  23.120  12.402
 7275W        W79568  17.680   9.706  13.032
 7276W        W79569  42.401   1.430  10.429
 7277W        W79570  21.727  31.584   5.260
 7278W        W79571  10.772   9.342  14.488
 7279W        W79572  11.147  20.057  12.348
 7280W        W79573   8.722  39.030   3.678
 7281W        W79574  18.126   3.914  11.520
 7282W        W79575  13.287  11.837   1.394
 7283W        W79576  29.096  32.543  13.803
 7284W        W79577  44.293  42.826  10.470
 7285W        W79578  13.263   1.763  10.642
 7286W        W79579  44.921   5.759  13.959
 7287W        W79580  27.507   9.662  12.385
 7288W        W79581   9.668  37.508   0.359
 7289W        W79582   0.469  34.485  11.522
 7290W        W79583  20.701  24.981  13.905
 7291W        W79584  42.367   0.874   4.334
 7292W        W79585  33.089  27.449  13.014
 7293W        W79586  15.089  16.228  13.016
 7294W        W79587  10.835  29.175   2.206
 7295W        W79588  24.122   7.716  10.576
 7296W        W79589   3.403   2.837   3.215
 7297W        W79590  18.074  33.999  11.024
 7298W        W79591  17.702  37.409  11.581
 7299W        W79592   5.921   0.257   3.374
 7300W        W79593  26.199   3.346  14.815
 7301W        W79594  12.716  26.208   0.249
 7302W        W79595  34.079  22.671   1.737
 7303W        W79596  21.648  33.515   1.223
 7304W        W79597  10.260  14.607  14.310
 7305W        W79598  15.313  23.030   4.833
 7306W        W79599  16.704  23.220  14.340
 7307W        W79600   1.360  36.903  13.887
 7308W        W79601  44.448  21.678  10.574
 7309W        W79602  35.589  15.666   1.388
 7310W        W79603  41.458  38.497   0.746
 7311W        W79604  39.869  21.526  11.500
 7312W        W79605  19.751  44.500  10.555
 7313W        W79606  19.767  41.908  12.409
 7314W        W79607  27.033  22.245   2.772
 7315W        W79608  14.159  36.362   2.669
 7316W        W79609  34.535  23.206  12.952
 7317W        W79610  41.317   3.915   4.137
 7318W        W79611  15.269  44.965  13.334
 7319W        W79612  32.969  28.959  12.905
 7320W        W79613  26.542  42.333  13.850
 7321W        W79614  19.190  29.966   4.123
 7322W        W79615  33.976  12.284  12.025
 7323W        W79616  28.570  26.517   2.758
 7324W        W79617  22.588  34.991   4.689
 7325W        W79618  14.806  40.026  14.897
 7326W        W79619  19.588   6.697  10.448
 7327W        W79620   6.336  29.105   4.212
 7328W        W79621  22.092  35.456   3.263
 7329W        W79622  31.004  38.823   1.761
 7330W        W79623   1.850   0.303   1.825
 7331W        W79624  27.632  32.112   2.356
 7332W        W79625   2.424  29.169   1.230
 7333W        W79626  26.631  15.247  12.065
 7334W        W79627  38.395   8.211   3.704
 7335W        W79628  26.198  31.961   3.855
 7336W        W79629  12.818  41.006   0.296
 7337W        W79630  28.607   4.752  11.896
 7338W        W79631   4.428  22.084   4.789
 7339W        W79632  34.940   8.784   4.276
 7340W        W79633  22.521  23.119   4.805
 7341W        W79634   2.897  32.953   2.800
 7342W        W79635  26.566  29.070   2.771
 7343W        W79636  35.025  31.559   4.736
 7344W        W79637   5.739  20.244  11.602
 7345W        W79638  28.564  15.143  10.415
 7346W        W79639   0.257   3.752  13.415
 7347W        W79640  32.984  21.121   1.210
 7348W        W79641  23.729   8.758   1.262
 7349W        W79642  31.138   8.243  10.639
 7350W        W79643  21.081  19.151  14.481
 7351W        W79644  29.961  34.383   1.261
 7352W        W79645  13.286  38.354   4.737
 7353W        W79646   3.927   8.387   1.375
 7354W        W79647  35.970  22.581   0.896
 7355W        W79648  16.583  39.428   3.336
 7356W        W79649  40.327  23.640  14.419
 7357W        W79650  25.139   8.664   9.964
 7358W        W79651  25.996  21.248  14.868
 7359W        W79652  27.576  28.037  13.401
 7360W        W79653   3.416  33.379   2.832
 7361W        W79654  34.484   2.895   4.829
 7362W        W79655   4.717  28.452   4.319
 7363W        W79656  37.006  39.839   1.281
 7364W        W79657  21.701  29.622  12.382
 7365W        W79658  32.596   0.320   2.738
 7366W        W79659  41.510  33.426  13.520
 7367W        W79660   7.311  17.067   3.236
 7368W        W79661  36.096  35.939   1.407
 7369W        W79662  28.062   3.361  13.375
 7370W        W79663  10.347  34.068   5.271
 7371W        W79664  17.784   5.253   4.776
 7372W        W79665  36.465  30.652   2.822
 7373W        W79666  43.498  29.039   1.254
 7374W        W79667  30.645  36.890   2.843
 7375W        W79668  33.880  42.415  12.508
 7376W        W79669  41.413  25.611   3.734
 7377W        W79670  30.945   2.964   1.309
 7378W        W79671   5.356  26.582   3.373
 7379W        W79672   8.838  24.509   2.244
 7380W        W79673  25.656  26.463  12.356
 7381W        W79674  33.404  36.984  13.458
 7382W        W79675  44.490  17.151  10.480
 7383W        W79676  19.226  20.130  12.491
 7384W        W79677  14.763  35.917   3.241
 7385W        W79678  29.928  33.488   3.692
 7386W        W79679  32.973  39.454  11.100
 7387W        W79680  27.045   7.348   0.423
 7388W        W79681  35.930  12.326  12.997
 7389W        W79682   0.410  16.670  12.414
 7390W        W79683  41.910  14.113   1.820
 7391W        W79684   2.425  15.716   2.817
 7392W        W79685  14.129  11.211  10.059
 7393W        W79686  34.898  35.032   1.731
 7394W        W79687  39.367  10.200  13.393
 7395W        W79688  33.570   4.785   3.297
 7396W        W79689   6.371  20.669   1.836
 7397W        W79690  26.465   4.322   1.281
 7398W        W79691  33.899   0.820   3.249
 7399W        W79692   0.469  38.921   1.888
 7400W        W79693  36.936   0.260   0.359
 7401W        W79694  35.507  19.197  11.015
 7402W        W79695  36.971  28.945  13.470
 7403W        W79696  25.061   8.725   4.685
 7404W        W79697  14.658  21.518  11.531
 7405W        W79698   1.424  20.081   2.380
 7406W        W79699  21.057  43.002  13.840
 7407W        W79700   2.382   7.699   3.224
 7408W        W79701  24.597  29.449  11.856
 7409W        W79702  38.883  29.008  14.488
 7410W        W79703  26.484   1.286  11.115
 7411W        W79704  43.883  28.174   0.948
 7412W        W79705  23.585  20.038   3.809
 7413W        W79706  11.281  15.260   1.425
 7414W        W79707  42.827  16.771  12.434
 7415W        W79708  18.265  27.129  13.018
 7416W        W79709   7.701   5.431  10.517
 7417W        W79710  27.979   8.820  12.517
 7418W        W79711  21.524   1.363  11.891
 7419W        W79712  37.344  30.041  12.859
 7420W        W79713  27.133  33.444  12.919
 7421W        W79714   1.423  36.866  12.008
 7422W        W79715  33.128  18.748   2.749
 7423W        W79716  23.014  18.730   1.404
 7424W        W79717  14.225  36.480  12.869
 7425W        W79718  32.929  12.273   3.376
 7426W        W79719  13.269  18.088  11.892
 7427W        W79720  24.196   6.235   0.869
 7428W        W79721  25.050  28.467  11.900
 7429W        W79722  13.786  10.355  12.358
 7430W        W79723  11.641  28.467   3.349
 7431W        W79724  44.911  26.697  13.410
 7432W        W79725  41.808  28.142   4.613
 7433W        W79726  43.502  35.410   3.821
 7434W        W79727  42.331  44.004  13.524
 7435W        W79728  35.516  39.522   2.662
 7436W        W79729  25.607  21.034  11.867
 7437W        W79730   9.805  32.393  14.470
 7438W        W79731  11.635  37.957   2.823
 7439W        W79732  40.036  36.348   4.191
 7440W        W79733  23.697  33.938  14.969
 7441W        W79734  20.033  40.910  12.420
 7442W        W79735  36.538   7.321   3.320
 7443W        W79736  21.548  17.095  14.469
 7444W        W79737  22.229  11.240  14.882
 7445W        W79738  22.524   7.184  12.422
 7446W        W79739  43.368  30.998   4.126
 7447W        W79740  22.032  20.551   4.118
 7448W        W79741  29.059  40.999   0.458
 7449W        W79742  23.110  44.877  14.299
 7450W        W79743  29.441   9.651   5.682
 7451W        W79744  40.329  43.513   3.690
 7452W        W79745  19.644  35.438   2.326
 7453W        W79746   1.298  24.037  13.006
 7454W        W79747  23.090  29.460   4.127
 7455W        W79748   9.389  13.136   4.633
 7456W        W79749  15.266   4.863  12.456
 7457W        W79750  32.430  42.322   2.328
 7458W        W79751  18.580  28.535  14.830
 7459W        W79752  42.335   4.719   4.804
 7460W        W79753  19.228  10.197   2.804
 7461W        W79754  30.523  12.321  14.834
 7462W        W79755   3.896  26.101   2.891
 7463W        W79756  19.163   3.414   3.364
 7464W        W79757  28.069  25.670  10.967
 7465W        W79758  12.233  35.573   0.782
 7466W        W79759  30.147  23.733  12.442
 7467W        W79760  40.009  35.383  11.518
 7468W        W79761  35.094  14.223   5.137
 7469W        W79762   2.368  37.010   1.715
 7470W        W79763  26.994  26.004  12.034
 7471W        W79764   0.888   3.222   4.325
 7472W        W79765  30.159   2.408   1.739
 7473W        W79766  13.629  40.487  14.509
 7474W        W79767  15.084  28.503   3.209
 7475W        W79768  31.617  18.258   1.224
 7476W        W79769  14.239  17.066  13.468
 7477W        W79770  39.315   4.797  11.040
 7478W        W79771   5.435  29.612   2.351
 7479W        W79772  12.685  19.714  12.375
 7480W        W79773  15.722   2.307   3.728
 7481W        W79774  32.120  31.528   1.435
 7482W        W79775   3.366  16.754   4.139
 7483W        W79776  10.238   6.712   3.706
 7484W        W79777  18.727  38.997   0.727
 7485W        W79778   5.816  19.673  10.524
 7486W        W79779   6.218  35.980   0.802
 7487W        W79780  14.628   1.477   1.854
 7488W        W79781   2.863   5.908  11.116
 7489W        W79782  38.057  33.878   0.326
 7490W        W79783  26.055  10.379   4.738
 7491W        W79784  20.186   4.923  11.081
 7492W        W79785  10.369  40.928   3.630
 7493W        W79786  16.792  40.042  12.059
 7494W        W79787  28.103  17.664   4.633
 7495W        W79788  20.583  18.291   2.236
 7496W        W79789  36.522  32.558   4.158
 7497W        W79790  16.088  10.833  14.478
 7498W        W79791  12.734  38.499  13.821
 7499W        W79792   6.240  40.489  14.911
 7500W        W79793   3.835  36.444   1.889
 7501W        W79794  33.979  26.507  12.399
 7502W        W79795  42.316  41.812   0.378
 7503W        W79796  41.944  35.900   1.416
 7504W        W79797  25.014  12.645   0.768
 7505W        W79798   7.797  41.457   1.931
 7506W        W79799   3.856  43.400  14.802
 7507W        W79800  11.141  12.356  13.836
 7508W        W79801  33.015  43.322   1.276
 7509W        W79802  40.303  23.599   4.185
 7510W        W79803  14.122  11.853  13.891
 7511W        W79804  23.533  12.211  11.390
 7512W        W79805   8.229  15.719   0.459
 7513W        W79806  28.519  22.146  13.023
 7514W        W79807  37.510  22.047  14.928
 7515W        W79808  44.298  32.885   2.893
 7516W        W79809   3.309  12.746  10.972
 7517W        W79810  44.994   4.442   1.238
 7518W        W79811   2.881  41.820   0.276
 7519W        W79812   6.220   6.889   1.811
 7520W        W79813  17.697  29.083  10.927
 7521W        W79814  17.601   3.930   1.866
 7522W        W79815  39.337  22.140  12.040
 7523W        W79816  33.395  22.021  12.477
 7524W        W79817  42.358  33.096   4.709
 7525W        W79818  36.903  14.762  13.436
 7526W        W79819  14.095  43.864   1.723
 7527W        W79820   0.478  41.990   3.783
 7528W        W79821  42.491  39.928   3.328
 7529W        W79822   8.221  13.324   4.837
 7530W        W79823  27.034   4.786   0.343
 7531W        W79824  44.481  17.753  11.075
 7532W        W79825  13.623  44.760   4.224
 7533W        W79826  16.229  27.463  13.326
 7534W        W79827  22.745  39.545  11.094
 7535W        W79828  25.539  43.276   2.885
 7536W        W79829   3.398  18.593   0.726
 7537W        W79830  19.147   7.828   4.802
 7538W        W79831   3.811  44.443  14.370
 7539W        W79832   7.678  44.371  10.413
 7540W        W79833  13.630   4.284  10.070
 7541W        W79834  43.874  41.482  10.955
 7542W        W79835   9.376  18.168   4.601
 7543W        W79836  14.142  10.184   2.736
 7544W        W79837  36.446  18.706   1.301
 7545W        W79838  27.029  25.662  10.907
 7546W        W79839   4.786  44.441   1.278
 7547W        W79840  11.235   9.336   3.811
 7548W        W79841  40.927  22.663  10.509
 7549W        W79842  39.465  11.636   1.276
 7550W        W79843   4.315  18.680   0.395
 7551W        W79844  37.087  15.157   4.263
 7552W        W79845  40.377  31.434  12.024
 7553W        W79846   5.851  18.269  14.871
 7554W        W79847  10.301  15.766   1.273
 7555W        W79848  34.449  30.636   2.828
 7556W        W79849   9.270  29.502   1.415
 7557W        W79850  10.275  39.842  11.400
 7558W        W79851  25.044   4.265   2.752
 7559W        W79852   1.755  23.109  14.321
 7560W        W79853  26.966  15.795  11.112
 7561W        W79854  33.572  12.313   1.799
 7562W        W79855  29.606  14.811   2.255
 7563W        W79856  18.052  22.507   2.186
 7564W        W79857  22.662  20.545  14.296
 7565W        W79858  21.145  10.742  13.040
 7566W        W79859  11.624  40.871   0.799
 7567W        W79860  31.485  32.398  14.845
 7568W        W79861  17.151  34.493   0.872
 7569W        W79862  41.978  21.109  13.843
 7570W        W79863  40.833  36.876   0.911
 7571W        W79864   6.248  25.160  13.340
 7572W        W79865   9.709  17.584  12.383
 7573W        W79866  22.099  26.644  12.834
 7574W        W79867  25.683  41.474  13.470
 7575W        W79868  36.585  16.198   4.134
 7576W        W79869   5.391  42.979   0.308
 7577W        W79870   6.897   7.669   1.839
 7578W        W79871  13.722   9.389  10.592
 7579W        W79872  35.503  22.505  11.529
 7580W        W79873  26.985  22.658   4.266
 7581W        W79874   0.880  17.727  13.470
 7582W        W79875  32.450  32.439   2.871
 7583W        W79876  39.046  44.967   2.823
 7584W        W79877  34.485  40.418   2.750
 7585W        W79878  35.551   7.362  10.619
 7586W        W79879  11.700  17.703  10.946
 7587W        W79880  10.292  27.193  10.000
 7588W        W79881  18.768   8.858   1.809
 7589W        W79882   8.766   7.209   4.700
 7590W        W79883  11.131  21.641  12.896
 7591W        W79884  43.983   4.338   4.715
 7592W        W79885  19.106   9.197  12.527
 7593W        W79886  19.749  20.164  12.043
 7594W        W79887  18.058  39.880   0.739
 7595W        W79888  26.983  18.177   1.440
 7596W        W79889  30.014   3.755  13.374
 7597W        W79890  16.079  41.297   3.835
 7598W        W79891   0.985  30.969  12.429
 7599W        W79892  32.007  10.715  14.445
 7600W        W79893  36.363  15.262  14.883
 7601W        W79894  10.697   0.352  13.853
 7602W        W79895  10.268  37.846  11.479
 7603W        W79896  16.205   4.306   0.263
 7604W        W79897   1.441  40.880   3.665
 7605W        W79898  19.582  13.814  14.315
 7606W        W79899  25.670  32.128  13.944
 7607W        W79900  43.856  19.050   4.702
 7608W        W79901  27.560   5.240   2.398
 7609W        W79902  19.763  28.029  12.400
 7610W        W79903  14.136  34.609   0.904
 7611W        W79904  22.655  17.768   1.709
 7612W        W79905   4.405  21.108   3.843
 7613W        W79906  34.024  10.708   2.757
 7614W        W79907  25.474  27.189  13.836
 7615W        W79908  10.347  19.227   4.815
 7616W        W79909  34.876  10.380   2.221
 7617W        W79910  10.698  23.044  12.521
 7618W        W79911   3.447  34.082  11.978
 7619W        W79912   9.759  30.447  11.110
 7620W        W79913  21.740  23.054  11.995
 7621W        W79914  14.755  24.486   4.296
 7622W        W79915  33.405  41.417  14.344
 7623W        W79916   3.386  42.370  10.910
 7624W        W79917  20.605   4.440  11.594
 7625W        W79918  43.341   4.301  11.415
 7626W        W79919  29.138  36.949  11.577
 7627W        W79920  29.425  25.479  13.059
 7628W        W79921  33.590  17.643  13.483
 7629W        W79922  15.142  12.712   1.702
 7630W        W79923   0.428  23.001   4.657
 7631W        W79924  17.178  30.562   2.748
 7632W        W79925  15.185  32.985  13.490
 7633W        W79926  39.035  44.815   0.431
 7634W        W79927  22.561   2.947   2.184
 7635W        W79928  21.734  10.646   4.274
 7636W        W79929  30.467  24.185  10.935
 7637W        W79930  33.927   9.763  12.842
 7638W        W79931  36.564  31.057   4.239
 7639W        W79932  42.907  42.977  14.410
 7640W        W79933   9.740  11.759   2.337
 7641W        W79934   8.363   1.974   1.924
 7642W        W79935  42.336   2.418   1.232
 7643W        W79936  34.403  16.281  12.914
 7644W        W79937  42.305  21.094  11.609
 7645W        W79938  22.597  33.428   1.895
 7646W        W79939  23.012  21.530  12.837
 7647W        W79940  15.712  21.033   3.334
 7648W        W79941   0.832  10.212   4.626
 7649W        W79942  29.048  19.572  12.887
 7650W        W79943  21.756  41.413   0.350
 7651W        W79944   1.930   0.476  12.536
 7652W        W79945   2.759  19.056   1.397
 7653W        W79946   5.799  18.061   0.751
 7654W        W79947   0.457  14.745  12.513
 7655W        W79948  20.060  43.466  14.288
 7656W        W79949   3.713  14.646   0.807
 7657W        W79950  14.619  16.211   1.212
 7658W        W79951   2.901   2.899   4.602
 7659W        W79952  42.300  38.904   2.822
 7660W        W79953  32.968   2.835  11.512
 7661W        W79954  24.546  16.249  14.436
 7662W        W79955  43.916  18.600   2.766
 7663W        W79956  20.195  25.098  10.561
 7664W        W79957   5.848  43.398   3.183
 7665W        W79958  28.560  19.607   0.302
 7666W        W79959  10.686  29.964  12.561
 7667W        W79960  29.977  37.489   4.612
 7668W        W79961  32.610  11.741  14.001
 7669W        W79962  14.792  31.010  13.814
 7670W        W79963  16.591  15.151  11.594
 7671W        W79964   4.748   3.288  13.016
 7672W        W79965  15.772  34.399  10.600
 7673W        W79966  10.250  37.961   0.912
 7674W        W79967   9.357   9.839   3.785
 7675W        W79968  39.534  27.632  14.381
 7676W        W79969   7.783   3.721   4.674
 7677W        W79970  44.916  11.128   3.862
 7678W        W79971  42.966   0.418   0.337
 7679W        W79972   5.205   2.862  13.034
 7680W        W79973  16.214  32.483  13.548
 7681W        W79974  26.037  29.631  10.439
 7682W        W79975  30.908  17.579  11.458
 7683W        W79976  23.705  13.111  12.826
 7684W        W79977  16.215  11.740  11.423
 7685W        W79978  15.198  37.424   5.313
 7686W        W79979  27.186  18.607  12.550
 7687W        W79980   6.245  16.131  10.448
 7688W        W79981   8.290  17.173   0.851
 7689W        W79982  38.970  26.106   2.298
 7690W        W79983  13.835  21.670   4.696
 7691W        W79984  26.496  26.193  11.009
 7692W        W79985  35.855   3.337   2.299
 7693W        W79986  29.465  10.381   2.311
 7694W        W79987  33.960  10.321  13.932
 7695W        W79988  34.941  18.069   2.327
 7696W        W79989  22.545  22.690  14.412
 7697W        W79990  19.758  18.212  10.499
 7698W        W79991  34.075  33.403  13.454
 7699W        W79992  40.324  30.480  14.403
 7700W        W79993  21.064  27.502  14.276
 7701W        W79994  17.742   1.919  12.400
 7702W        W79995   5.811  38.886   0.916
 7703W        W79996  14.243  32.460   4.161
 7704W        W79997  26.049  24.603  14.989
 7705W        W79998  17.573   4.922   3.208
 7706W        W79999  38.995  14.329  10.502
 7707W        W80000  18.694  31.483   3.849
 7708W        W80001  44.939  42.014   1.409
 7709W        W80002   5.414  26.098  13.799
 7710W        W80003  11.683  29.544   4.820
 7711W        W80004  31.101   6.897   0.376
 7712W        W80005  42.353  32.066  13.023
 7713W        W80006  22.555   9.657  10.506
 7714W        W80007   9.697  27.041  13.880
 7715W        W80008  15.800  12.817  13.519
 7716W        W80009   2.460   2.469  11.560
 7717W        W80010  23.573  13.818  12.898
 7718W        W80011  37.939  38.412   0.428
 7719W        W80012  21.674  44.452  11.895
 7720W        W80013  17.157  27.555  10.143
 7721W        W80014  24.594  15.719   4.343
 7722W        W80015  44.413  35.865  13.442
 7723W        W80016  41.944  16.777  13.965
 7724W        W80017  14.743  14.193   3.275
 7725W        W80018   1.930  11.787   2.725
 7726W        W80019  42.520  16.203  12.570
 7727W        W80020   6.415  33.105  10.639
 7728W        W80021   6.816  24.096  10.614
 7729W        W80022   9.396  35.051  11.865
 7730W        W80023  10.718  16.282   0.451
 7731W        W80024  36.053  38.866   4.645
 7732W        W80025  23.616  25.169  10.598
 7733W        W80026   1.361  35.399   2.880
 7734W        W80027  20.178   1.320   1.224
 7735W        W80028  37.438  19.602  11.053
 7736W        W80029   0.775   2.462   1.730
 7737W        W80030   9.199  41.508  11.999
 7738W        W80031  17.705  39.855  12.364
 7739W        W80032   8.683   0.362   0.838
 7740W        W80033  16.072  23.641  14.470
 7741W        W80034  27.666  36.925   0.780
 7742W        W80035   6.242  31.905  12.503
 7743W        W80036  28.949   1.427  14.437
 7744W        W80037   2.376   1.473   3.809
 7745W        W80038  17.619  25.526   1.804
 7746W        W80039  40.456   9.168  12.915
 7747W        W80040  22.201   0.984   2.312
 7748W        W80041  31.929   3.313   5.259
 7749W        W80042  11.787  19.138  10.139
 7750W        W80043   4.720   2.929   3.293
 7751W        W80044  33.125  39.498  13.986
 7752W        W80045  36.047   8.388   1.714
 7753W        W80046  22.634  20.687   3.151
 7754W        W80047  29.488  22.666  10.948
 7755W        W80048  30.065   4.229   3.786
 7756W        W80049  30.576  18.197   0.838
 7757W        W80050  37.951  14.190   3.814
 7758W        W80051  29.523  18.065   0.242
 7759W        W80052  42.408  29.107   1.329
 7760W        W80053  43.433   8.781   3.241
 7761W        W80054   7.802   1.774   4.271
 7762W        W80055  35.360  44.469   1.733
 7763W        W80056   6.235  12.338  11.461
 7764W        W80057  17.263  39.519   2.680
 7765W        W80058  19.218   0.301  13.449
 7766W        W80059  13.702  29.111  13.519
 7767W        W80060   4.819   7.744   2.286
 7768W        W80061  13.153  16.155   0.443
 7769W        W80062   8.316   3.315   1.269
 7770W        W80063  35.925  10.872  12.503
 7771W        W80064   3.949  22.165  11.926
 7772W        W80065  11.321  44.365   4.778
 7773W        W80066   4.838  20.273  14.357
 7774W        W80067  33.431   8.787   0.369
 7775W        W80068  15.600  11.168  14.781
 7776W        W80069   6.837   4.377  12.461
 7777W        W80070  35.400  31.457   4.315
 7778W        W80071  11.846   8.802  13.025
 7779W        W80072   4.784  23.702  11.465
 7780W        W80073  42.305  42.886  14.450
 7781W        W80074  16.181   4.366  10.431
 7782W        W80075  27.623   5.209   2.845
 7783W        W80076  36.015  13.185   0.904
 7784W        W80077  24.997  31.148   0.426
 7785W        W80078  39.884  32.475   1.314
 7786W        W80079  36.508  42.910   0.826
 7787W        W80080  39.421  24.206  10.568
 7788W        W80081  16.160  11.650   2.225
 7789W        W80082  15.806   6.792  14.969
 7790W        W80083  15.306  39.558  14.013
 7791W        W80084  19.578  20.650  14.484
 7792W        W80085   9.152  39.406   3.236
 7793W        W80086  21.053  11.308  11.988
 7794W        W80087  16.207   3.814  10.058
 7795W        W80088  43.806  35.581   3.655
 7796W        W80089   6.204   4.335  12.856
 7797W        W80090   5.765  39.452  14.788
 7798W        W80091  12.313  32.081   1.310
 7799W        W80092  33.586  36.953   4.348
 7800W        W80093  25.572  27.550  13.022
 7801W        W80094  43.413  43.362   4.252
 7802W        W80095  13.623   8.260  12.409
 7803W        W80096   0.408  11.685   3.833
 7804W        W80097  37.453  11.768  13.455
 7805W        W80098   0.755  25.030  11.417
 7806W        W80099  24.102   3.722  12.572
 7807W        W80100   1.957   0.325  14.379
 7808W        W80101  39.448   0.960  12.361
 7809W        W80102  20.549  20.524  12.522
 7810W        W80103  31.601   5.752  11.007
 7811W        W80104  12.328  21.684  13.489
 7812W        W80105  10.234   1.256  11.555
 7813W        W80106  37.069   6.777   4.350
 7814W        W80107   7.361  18.177  12.382
 7815W        W80108  13.813  35.467  10.974
 7816W        W80109  32.140  28.020  12.970
 7817W        W80110  16.806  21.059   2.306
 7818W        W80111  43.915  43.924   9.623
 7819W        W80112   3.438   0.765  13.441
 7820W        W80113  18.713  24.630   2.397
 7821W        W80114  23.527  30.621   1.771
 7822W        W80115  38.358  36.853   0.908
 7823W        W80116  38.349  32.949   2.817
 7824W        W80117  35.094  43.948   2.710
 7825W        W80118  26.027  23.220   5.242
 7826W        W80119  42.379  10.726   3.190
 7827W        W80120   0.329   6.900   2.833
 7828W        W80121  19.089  31.635  12.478
 7829W        W80122  44.848  15.673  12.095
 7830W        W80123   8.668  26.693  14.834
 7831W        W80124   3.779  24.580   3.173
 7832W        W80125  15.212   3.246   4.163
 7833W        W80126  31.578   9.700  14.429
 7834W        W80127   6.408  23.192   1.922
 7835W        W80128   5.835  29.167   3.157
 7836W        W80129   2.895  40.516  11.874
 7837W        W80130  15.299  12.704   4.268
 7838W        W80131  17.101   3.259  12.401
 7839W        W80132   0.871  15.217   2.872
 7840W        W80133   1.304  23.544   4.836
 7841W        W80134   2.912  17.558  14.881
 7842W        W80135  36.066  17.613  13.041
 7843W        W80136  40.970   9.857  12.507
 7844W        W80137  32.439  36.898  12.093
 7845W        W80138   7.272  35.075   0.895
 7846W        W80139  32.434   8.796   3.799
 7847W        W80140  43.300  38.552  11.126
 7848W        W80141  16.805  19.601  10.927
 7849W        W80142  41.461  12.350  13.954
 7850W        W80143  35.059  36.381   2.774
 7851W        W80144  29.004   8.186   2.320
 7852W        W80145  44.491   6.736   4.772
 7853W        W80146  44.448  43.868   2.806
 7854W        W80147   1.919  25.679   3.297
 7855W        W80148  30.016  29.601   0.835
 7856W        W80149  20.237  36.384  14.412
 7857W        W80150  38.364  37.535  13.880
 7858W        W80151  44.477  11.299   1.362
 7859W        W80152  11.838  26.654   4.822
 7860W        W80153  39.060  37.484   0.343
 7861W        W80154  27.175  31.460  10.624
 7862W        W80155  27.653  40.030   0.474
 7863W        W80156  16.178  13.224  14.788
 7864W        W80157  23.017  12.180  12.837
 7865W        W80158  42.803  20.237   3.244
 7866W        W80159  36.948  32.393   4.127
 7867W        W80160   5.206   9.341  10.539
 7868W        W80161  38.933   7.904  11.416
 7869W        W80162  24.169  21.529   4.268
 7870W        W80163  44.998  22.047  14.827
 7871W        W80164  29.567  26.028  10.611
 7872W        W80165  27.052   4.249   1.383
 7873W        W80166  10.321  36.352   0.881
 7874W        W80167   9.841  13.246  14.798
 7875W        W80168  31.090  16.168   0.432
 7876W        W80169  27.653   8.828  13.338
 7877W        W80170  37.947  38.329   2.668
 7878W        W80171  23.617  43.507   0.366
 7879W        W80172   4.823  17.788  11.539
 7880W        W80173  13.691   5.321  11.450
 7881W        W80174  15.292  32.027   0.445
 7882W        W80175  22.093   8.803   3.234
 7883W        W80176  32.911  31.987   3.246
 7884W        W80177  29.104  26.480  10.526
 7885W        W80178  11.640  43.930  12.878
 7886W        W80179  18.070  43.419  11.870
 7887W        W80180  44.936  29.010   2.727
 7888W        W80181  13.207  17.575  12.407
 7889W        W80182  21.654   1.481   1.760
 7890W        W80183  43.881  28.617  11.597
 7891W        W80184  36.030  39.450   3.859
 7892W        W80185  24.181  33.078   0.786
 7893W        W80186   2.318  24.603   2.713
 7894W        W80187  18.601  13.616   1.796
 7895W        W80188  11.253  29.589  11.916
 7896W        W80189  29.978  24.096   9.931
 7897W        W80190   9.671  22.229  12.876
 7898W        W80191   0.252  14.822  11.035
 7899W        W80192  33.459  23.169   2.781
 7900W        W80193   7.254   9.369   3.344
 7901W        W80194  15.595   0.493   1.851
 7902W        W80195   4.752  43.798   4.211
 7903W        W80196   9.788  26.100  14.976
 7904W        W80197   9.830   2.464   1.351
 7905W        W80198   3.846  16.676   1.727
 7906W        W80199  13.694   3.367  10.017
 7907W        W80200   6.783  40.868  12.444
 7908W        W80201  26.107  24.066   3.651
 7909W        W80202  40.472  29.161   2.367
 7910W        W80203  42.419  17.708  10.130
 7911W        W80204  31.555  41.503  12.890
 7912W        W80205  27.172  24.715  13.442
 7913W        W80206  42.328   6.881  14.459
 7914W        W80207  31.110   8.858  12.978
 7915W        W80208  41.977   3.248   4.348
 7916W        W80209  39.322  34.608   3.801
 7917W        W80210  22.064  20.231  13.927
 7918W        W80211  28.460  22.532  12.417
 7919W        W80212  23.735  24.632  12.826
 7920W        W80213   8.350  10.810  10.928
 7921W        W80214  33.521  23.514  13.000
 7922W        W80215  30.636  15.765   0.357
 7923W        W80216   4.428  27.676   4.656
 7924W        W80217  31.540   3.729  11.488
 7925W        W80218  21.548  36.384  14.846
 7926W        W80219  22.613   7.690  12.930
 7927W        W80220  23.181  18.202  14.284
 7928W        W80221   4.301   9.380   1.429
 7929W        W80222   0.945  30.430   5.239
 7930W        W80223  25.079   4.768  13.505
 7931W        W80224  29.971  16.695  11.599
 7932W        W80225  16.240  20.769  10.601
 7933W        W80226  41.293   5.770   0.286
 7934W        W80227  42.004   7.302  10.954
 7935W        W80228   7.667   4.215   3.248
 7936W        W80229  23.226  27.622  13.876
 7937W        W80230  11.366  11.373  10.601
 7938W        W80231  16.123  16.165   0.466
 7939W        W80232  31.146  29.976   1.379
 7940W        W80233  12.268  21.635  12.938
 7941W        W80234  29.604  41.844  12.926
 7942W        W80235  37.381  14.697  14.911
 7943W        W80236   7.750  21.054  11.487
 7944W        W80237  17.722  27.490  14.494
 7945W        W80238  30.085  37.493   2.244
 7946W        W80239  33.390  33.594  12.035
 7947W        W80240  20.216  18.553  12.525
 7948W        W80241  39.860  37.442  13.365
 7949W        W80242  10.226  25.680   2.842
 7950W        W80243  20.203  28.027   1.217
 7951W        W80244   9.846  36.912  12.881
 7952W        W80245  19.079  32.434   4.254
 7953W        W80246  39.920   8.798   2.212
 7954W        W80247  14.761   4.252  12.867
 7955W        W80248  36.579   8.774   2.737
 7956W        W80249  27.968  29.662   1.322
 7957W        W80250  34.902   4.325  14.781
 7958W        W80251  26.679  43.004   0.881
 7959W        W80252  19.605  27.539   0.388
 7960W        W80253  43.358  15.186   1.837
 7961W        W80254  25.048   5.265   1.403
 7962W        W80255  25.611  40.498  10.937
 7963W        W80256  30.581  32.015   2.418
 7964W        W80257  28.125  39.486  10.986
 7965W        W80258  44.009  35.002  11.966
 7966W        W80259   8.351  18.059  13.525
 7967W        W80260   2.752  11.794   3.806
 7968W        W80261  20.158  21.575   3.319
 7969W        W80262   7.371  14.692   2.680
 7970W        W80263  25.120  11.763  13.825
 7971W        W80264  33.938  22.200  13.446
 7972W        W80265  11.643   8.228  11.858
 7973W        W80266  39.417  34.112  14.823
 7974W        W80267   8.900  15.820   3.782
 7975W        W80268  22.724  35.074  11.543
 7976W        W80269   7.897  25.078  13.903
 7977W        W80270   3.917  16.105  13.491
 7978W        W80271  19.232  15.285   3.314
 7979W        W80272  24.481  11.318   4.217
 7980W        W80273   5.786  10.801   0.270
 7981W        W80274  24.657  24.721   3.763
 7982W        W80275  43.856  30.156   3.211
 7983W        W80276  30.942  16.184  13.941
 7984W        W80277  26.579  22.605  11.909
 7985W        W80278   3.882  43.400  11.395
 7986W        W80279  33.391   6.187   1.446
 7987W        W80280  17.709  43.890  12.438
 7988W        W80281  19.082  33.903  11.064
 7989W        W80282   2.871  41.508  11.975
 7990W        W80283  42.779  10.728  11.499
 7991W        W80284  42.369   7.717   3.706
 7992W        W80285  16.103  37.366   3.654
 7993W        W80286   4.293  18.738   0.779
 7994W        W80287  13.162  17.589  13.532
 7995W        W80288  32.409   1.769  14.784
 7996W        W80289  39.828  19.716   5.221
 7997W        W80290   3.453  16.222  13.976
 7998W        W80291  39.495  39.943  12.886
 7999W        W80292  29.445  19.681  12.364
 8000W        W80293   8.727   1.764   1.245
 8001W        W80294  22.721  27.072   4.820
 8002W        W80295  31.042  37.843  14.390
 8003W        W80296  18.659  42.027   2.688
 8004W        W80297  20.175  26.003   1.833
 8005W        W80298  17.217  18.267   9.980
 8006W        W80299  16.619  41.999   2.302
 8007W        W80300   7.777  28.478  11.578
 8008W        W80301   6.372  23.115   2.335
 8009W        W80302   0.367  42.945   3.362
 8010W        W80303  42.373  33.124   0.344
 8011W        W80304   8.805  17.086   3.817
 8012W        W80305  37.939  10.747  13.471
 8013W        W80306  35.007  40.849   4.622
 8014W        W80307   9.284   7.704   3.180
 8015W        W80308  12.270  25.041   2.384
 8016W        W80309  18.604   3.372   1.697
 8017W        W80310  43.903  31.009   1.385
 8018W        W80311  28.634  14.683   3.746
 8019W        W80312  13.783   1.473  10.038
 8020W        W80313  39.811  36.482  14.904
 8021W        W80314  42.793  20.238  10.491
 8022W        W80315  26.544  37.467   2.408
 8023W        W80316   2.291  42.859  10.101
 8024W        W80317  40.016  15.247  11.606
 8025W        W80318  28.542  36.961  11.484
 8026W        W80319  35.375  33.417  11.544
 8027W        W80320  31.647   9.354   2.683
 8028W        W80321  31.017  41.358   0.327
 8029W        W80322  34.059  11.857   3.678
 8030W        W80323  29.121  29.153  13.405
 8031W        W80324  39.870  17.086   1.322
 8032W        W80325  18.698  19.658   3.211
 8033W        W80326  31.440  26.166   4.722
 8034W        W80327  30.025  14.160   1.744
 8035W        W80328   3.410  39.064  11.921
 8036W        W80329  33.079  12.322   2.855
 8037W        W80330  16.191   1.953  13.844
 8038W        W80331  14.179   0.752  12.994
 8039W        W80332   9.674   8.709  14.860
 8040W        W80333  20.105  21.053  12.572
 8041W        W80334  44.812  41.536  12.039
 8042W        W80335  15.746  14.279   0.765
 8043W        W80336  29.972  11.367  11.391
 8044W        W80337  40.871  24.173  11.487
 8045W        W80338  26.075  18.756   3.146
 8046W        W80339  43.506  10.740  13.870
 8047W        W80340  13.339  26.100  13.344
 8048W        W80341  30.586  41.461   0.480
 8049W        W80342  39.540  43.451  14.974
 8050W        W80343   4.210  17.208  11.959
 8051W        W80344  37.521   4.783   5.226
 8052W        W80345  27.976  29.626   2.417
 8053W        W80346   7.810   5.908   4.616
 8054W        W80347  31.408  28.979  10.897
 8055W        W80348  34.400   9.294  14.496
 8056W        W80349  10.654  35.485   4.246
 8057W        W80350  26.694  26.510   2.340
 8058W        W80351  35.059  12.623   3.360
 8059W        W80352   8.731  35.917   4.159
 8060W        W80353  23.029  17.109  11.528
 8061W        W80354  22.546   3.925  10.901
 8062W        W80355  44.882  25.695  12.471
 8063W        W80356  38.357  38.067  12.568
 8064W        W80357  44.926   6.860   3.675
 8065W        W80358   4.944  38.441  10.941
 8066W        W80359   4.331   9.156   4.177
 8067W        W80360  24.038   4.439  11.467
 8068W        W80361  34.015   4.273  13.957
 8069W        W80362  36.093   3.806  13.914
 8070W        W80363   7.284  10.758   4.185
 8071W        W80364  25.472  43.803  11.867
 8072W        W80365  25.143  40.461  14.024
 8073W        W80366  22.151   4.826  13.472
 8074W        W80367  34.542  24.226   3.837
 8075W        W80368  20.153  11.231  13.458
 8076W        W80369  17.561  43.896  10.453
 8077W        W80370  43.799  32.593  12.884
 8078W        W80371  20.174  39.492   2.286
 8079W        W80372   5.831  41.017   3.722
 8080W        W80373  39.036  34.613  10.908
 8081W        W80374  19.208  30.934  12.540
 8082W        W80375  20.233  20.643  13.052
 8083W        W80376  36.489   7.370   0.773
 8084W        W80377  36.404  41.859  14.972
 8085W        W80378   1.864  29.599   4.166
 8086W        W80379  26.543  17.696  12.081
 8087W        W80380  23.231   5.438   4.682
 8088W        W80381   8.365  41.310   4.329
 8089W        W80382  14.304  37.564   1.217
 8090W        W80383  34.567  33.475   0.960
 8091W        W80384  30.613  17.593   2.746
 8092W        W80385   8.696  38.544   1.763
 8093W        W80386   7.173  23.066   3.648
 8094W        W80387  31.476  18.198   2.285
 8095W        W80388  15.757  17.162   1.248
 8096W        W80389  43.334  12.681   0.469
 8097W        W80390   8.236   9.365   3.839
 8098W        W80391   8.372  13.156  11.941
 8099W        W80392  20.661  23.717   4.616
 8100W        W80393  25.601   7.278   3.269
 8101W        W80394  27.584  28.065  14.973
 8102W        W80395  13.642  17.241  13.962
 8103W        W80396  22.066  44.011   3.365
 8104W        W80397  21.521  36.574   0.759
 8105W        W80398  44.472  28.107  13.511
 8106W        W80399  35.061  15.792  10.575
 8107W        W80400  37.888   0.258   0.345
 8108W        W80401  10.698  39.438  11.944
 8109W        W80402  39.373   6.354   1.804
 8110W        W80403  27.495  17.260   1.735
 8111W        W80404  35.489  20.694   4.622
 8112W        W80405  44.314   2.313  12.569
 8113W        W80406  24.990  34.079  11.507
 8114W        W80407  22.559  12.711   4.191
 8115W        W80408  33.600  37.872   1.820
 8116W        W80409   4.350  40.303  11.439
 8117W        W80410  42.503  20.653  13.041
 8118W        W80411  11.160  13.709   2.254
 8119W        W80412  36.576  21.038  13.991
 8120W        W80413  33.040  36.952  14.828
 8121W        W80414  36.555  18.729   3.760
 8122W        W80415  34.522   1.746   0.904
 8123W        W80416  22.632  22.581  11.900
 8124W        W80417  35.385  43.324  11.924
 8125W        W80418  16.625  42.862   3.195
 8126W        W80419  38.993  15.773  11.430
 8127W        W80420  20.645  20.186   3.244
 8128W        W80421  22.694   7.711  14.474
 8129W        W80422   8.405  42.850  13.799
 8130W        W80423  18.599  35.592  10.969
 8131W        W80424  30.567  19.106   1.402
 8132W        W80425  30.517  33.110  10.902
 8133W        W80426  24.658   2.404  14.939
 8134W        W80427  39.555  36.889   1.874
 8135W        W80428  35.861   2.396  10.532
 8136W        W80429   0.896  31.416   0.886
 8137W        W80430   0.436  25.502   3.794
 8138W        W80431  24.038   0.749  11.552
 8139W        W80432  11.155  23.567   1.272
 8140W        W80433   6.828  20.643  14.869
 8141W        W80434  12.826  39.421  12.459
 8142W        W80435  43.437  43.850   0.814
 8143W        W80436  34.401  39.966  11.506
 8144W        W80437   0.887  13.671   2.352
 8145W        W80438  21.166  12.711   5.220
 8146W        W80439   9.268  33.886   0.790
 8147W        W80440  30.920  15.774  10.501
 8148W        W80441  11.176  29.596   3.803
 8149W        W80442  17.193   0.378  14.967
 8150W        W80443  40.814  26.460  13.450
 8151W        W80444  33.567   2.261  12.517
 8152W        W80445  23.074  37.012  14.979
 8153W        W80446   1.250   4.881  13.004
 8154W        W80447  19.678  42.945  11.575
 8155W        W80448  15.104  22.511   4.322
 8156W        W80449  40.464  16.301   0.473
 8157W        W80450  22.201  18.735   0.913
 8158W        W80451   1.940  25.090   2.702
 8159W        W80452  39.554  36.407   1.914
 8160W        W80453  17.690  38.509   4.770
 8161W        W80454  19.648   6.815  12.000
 8162W        W80455  44.884  12.315  14.028
 8163W        W80456  13.705   9.333  12.386
 8164W        W80457  26.187  25.558  10.432
 8165W        W80458  12.165  20.671  11.551
 8166W        W80459  15.118  35.535   4.788
 8167W        W80460  32.473  26.207   2.250
 8168W        W80461  14.790  14.706  13.026
 8169W        W80462   7.385   3.296   0.389
 8170W        W80463   6.799  37.353  13.326
 8171W        W80464  40.830  43.507   3.228
 8172W        W80465  16.785  18.069  13.366
 8173W        W80466  12.304  34.870  12.009
 8174W        W80467  14.166  25.513  11.560
 8175W        W80468  37.581  27.132  11.961
 8176W        W80469  22.597  16.226   4.174
 8177W        W80470  25.146  17.174  11.076
 8178W        W80471  44.301  37.567   1.283
 8179W        W80472  35.986  33.011  14.983
 8180W        W80473  37.539  38.454  14.825
 8181W        W80474  35.549   0.309  13.809
 8182W        W80475  18.256   7.688   4.180
 8183W        W80476  36.541  12.269  11.566
 8184W        W80477  43.339   5.892   0.900
 8185W        W80478  23.625  12.189  10.461
 8186W        W80479  31.648  12.137   1.352
 8187W        W80480  40.406  21.069   0.467
 8188W        W80481  25.592   8.385   3.378
 8189W        W80482  43.423  10.359   3.267
 8190W        W80483  18.624  28.075  12.029
 8191W        W80484  19.572   8.701   0.345
 8192W        W80485  11.354   0.366  12.477
 8193W        W80486  11.347   8.726  12.076
 8194W        W80487  20.219  21.736   1.400
 8195W        W80488  25.173  41.324  12.961
 8196W        W80489  38.514  10.870   1.881
 8197W        W80490  37.371   0.279  13.862
 8198W        W80491  14.830  23.150   4.320
 8199W        W80492  18.643  26.578   1.268
 8200W        W80493  33.956  44.777   3.245
 8201W        W80494  17.747   6.751   3.661
 8202W        W80495  33.444  11.683  13.340
 8203W        W80496  37.432  44.805   0.244
 8204W        W80497  17.283  39.852  13.034
 8205W        W80498  17.171  15.135  11.420
 8206W        W80499   6.699  18.579   0.291
 8207W        W80500  10.334  38.836  14.969
 8208W        W80501  39.416  41.352   0.399
 8209W        W80502  30.948  18.158   2.864
 8210W        W80503  23.101  24.041  14.841
 8211W        W80504   8.289  33.890   4.352
 8212W        W80505  17.170  32.484  14.278
 8213W        W80506   5.231  19.085   4.188
 8214W        W80507  34.978  28.141   3.362
 8215W        W80508  34.404  32.538   3.844
 8216W        W80509  19.064  35.445   1.738
 8217W        W80510  12.831  21.653   3.347
 8218W        W80511  35.559  15.087  12.032
 8219W        W80512   8.320  23.512  12.077
 8220W        W80513  34.101  13.622  11.112
 8221W        W80514  15.162  14.325  10.486
 8222W        W80515  28.631   5.762  13.462
 8223W        W80516  42.495  21.093  11.026
 8224W        W80517  14.772   0.439  12.849
 8225W        W80518  30.099  10.732   4.798
 8226W        W80519  16.315  27.500  13.017
 8227W        W80520  12.190  26.006   1.818
 8228W        W80521  14.266   8.826   1.283
 8229W        W80522   3.772  29.918  13.964
 8230W        W80523  11.743  16.223   1.925
 8231W        W80524  18.076  42.912  11.500
 8232W        W80525  17.741  27.126   0.346
 8233W        W80526  23.070  15.150  11.048
 8234W        W80527  32.958  29.583   4.597
 8235W        W80528  35.357   7.681   3.648
 8236W        W80529  17.595  20.092   2.717
 8237W        W80530  29.148  44.290  12.944
 8238W        W80531  32.431  32.899   1.699
 8239W        W80532  15.649  11.836  12.361
 8240W        W80533  16.776  18.566   4.707
 8241W        W80534  26.091   2.307  13.860
 8242W        W80535  30.137  12.797  12.399
 8243W        W80536  35.045   2.734  14.004
 8244W        W80537  15.234   0.280  14.999
 8245W        W80538   5.827  22.585   0.478
 8246W        W80539  41.486   2.806   4.312
 8247W        W80540  29.667  18.563   5.177
 8248W        W80541  29.654  36.844   1.792
 8249W        W80542  44.404   4.278   1.262
 8250W        W80543  37.494  24.629  14.309
 8251W        W80544  24.668  27.983  12.458
 8252W        W80545  18.265   7.412  12.049
 8253W        W80546  31.052  34.089   1.314
 8254W        W80547   1.838   4.912   4.824
 8255W        W80548   2.310  10.836   0.309
 8256W        W80549   5.786  37.348   4.643
 8257W        W80550  20.179   8.806  14.279
 8258W        W80551  19.538   4.918  12.912
 8259W        W80552  10.227   8.703   1.315
 8260W        W80553   0.947  19.188  10.899
 8261W        W80554  33.051  20.531   1.261
 8262W        W80555  19.668  30.022   2.192
 8263W        W80556  15.795  41.935  11.965
 8264W        W80557  23.082   0.871   2.663
 8265W        W80558   3.388  12.768   3.377
 8266W        W80559  38.440  41.949  11.546
 8267W        W80560  25.117  36.448   0.368
 8268W        W80561  21.172  13.184   1.422
 8269W        W80562   0.811  25.039   3.230
 8270W        W80563   8.395  34.893   0.440
 8271W        W80564  11.680  23.209  13.448
 8272W        W80565  15.722  18.167   4.231
 8273W        W80566   1.453  18.583   0.282
 8274W        W80567  15.727   0.857  12.867
 8275W        W80568  31.899   9.644  11.911
 8276W        W80569  23.998  11.369   3.744
 8277W        W80570  20.653  19.623  14.413
 8278W        W80571  24.133  14.124   3.776
 8279W        W80572  42.977  31.450   1.436
 8280W        W80573  26.124   2.843   3.329
 8281W        W80574  25.983  13.279   4.722
 8282W        W80575  15.129   8.273   3.705
 8283W        W80576  36.408  18.703  10.628
 8284W        W80577  14.720  13.298   0.344
 8285W        W80578  33.047  21.642  10.898
 8286W        W80579  42.516  30.063   0.441
 8287W        W80580  43.766  44.760  13.880
 8288W        W80581  29.477  17.248   0.339
 8289W        W80582  27.629  35.996  11.570
 8290W        W80583  34.600  32.000  14.947
 8291W        W80584  10.768  39.367   3.646
 8292W        W80585   1.389   2.766   1.738
 8293W        W80586   0.766  35.004   2.317
 8294W        W80587   6.380  16.191   3.822
 8295W        W80588  43.334  44.966   2.851
 8296W        W80589  31.940  33.588   2.675
 8297W        W80590  31.965  32.426  14.017
 8298W        W80591   7.765  17.146  13.363
 8299W        W80592   3.710  23.710  10.437
 8300W        W80593  16.716  40.494  12.927
 8301W        W80594  15.580  26.069  14.954
 8302W        W80595  10.364  14.705  11.103
 8303W        W80596  15.619   4.355   0.315
 8304W        W80597  12.336  11.638  13.520
 8305W        W80598   2.820  33.945   3.279
 8306W        W80599  25.693  14.169   0.462
 8307W        W80600  21.040  11.236  13.325
 8308W        W80601   0.839  28.042  11.893
 8309W        W80602  40.879  15.592   2.266
 8310W        W80603   1.341  34.116  14.474
 8311W        W80604  33.620  35.443   0.932
 8312W        W80605  10.773  14.816   0.315
 8313W        W80606  44.965  14.745   2.195
 8314W        W80607   5.220   8.852  13.966
 8315W        W80608  14.227  23.192  13.329
 8316W        W80609   3.913  12.765  13.350
 8317W        W80610  17.173  44.449   2.219
 8318W        W80611  18.791   4.710   3.648
 8319W        W80612  16.803  25.635  11.537
 8320W        W80613  36.904  30.553   1.395
 8321W        W80614  44.931  22.596   0.819
 8322W        W80615   1.333  35.942   3.851
 8323W        W80616  20.527   8.881   1.355
 8324W        W80617  42.469   1.796   2.706
 8325W        W80618  15.684   1.285  10.462
 8326W        W80619  22.241  10.307   1.929
 8327W        W80620  38.895  23.600  10.546
 8328W        W80621  42.403  18.123   4.152
 8329W        W80622  26.082  17.563   2.882
 8330W        W80623  17.111  10.324  13.337
 8331W        W80624  18.077  26.601  10.939
 8332W        W80625   1.458  35.438   4.724
 8333W        W80626  23.577   3.440  10.513
 8334W        W80627  44.340   4.783  11.577
 8335W        W80628  28.564  21.257   1.699
 8336W        W80629   0.766   0.386   4.668
 8337W        W80630  35.986  36.842  14.472
 8338W        W80631  17.228  37.908  11.047
 8339W        W80632  30.138   7.715  13.310
 8340W        W80633  11.358  20.751  14.764
 8341W        W80634   2.749   9.727   1.239
 8342W        W80635  12.155  40.525  13.885
 8343W        W80636   5.298   0.353   0.739
 8344W        W80637  44.262  14.689  13.059
 8345W        W80638   9.771  38.995  10.616
 8346W        W80639  14.318  10.703   2.786
 8347W        W80640  28.941  18.261   3.799
 8348W        W80641  31.437  36.567  13.497
 8349W        W80642  30.929  19.207   3.744
 8350W        W80643  15.581   9.340   3.193
 8351W        W80644   7.398  25.620  11.003
 8352W        W80645  27.058  24.072  10.631
 8353W        W80646  43.959  10.731  10.942
 8354W        W80647  35.900   5.301   3.224
 8355W        W80648  37.905  25.606  14.416
 8356W        W80649  14.226  40.835  13.889
 8357W        W80650  44.351  11.713   1.433
 8358W        W80651  21.129   6.837   4.733
 8359W        W80652  42.367  31.097   4.809
 8360W        W80653  27.540  15.237   1.275
 8361W        W80654   5.438   5.892   4.714
 8362W        W80655  36.890  38.494   3.680
 8363W        W80656  28.537  21.229   5.803
 8364W        W80657  19.779  32.610  14.462
 8365W        W80658  37.408  36.092   1.834
 8366W        W80659   0.865   3.858   0.752
 8367W        W80660  14.238  20.230   3.220
 8368W        W80661   1.392  24.101   3.337
 8369W        W80662   2.267  30.596  13.872
 8370W        W80663   4.828  33.986  13.467
 8371W        W80664  34.917  42.871   2.715
 8372W        W80665  35.074  34.030  10.538
 8373W        W80666  11.699  20.136  13.366
 8374W        W80667  29.925  29.515  10.490
 8375W        W80668  18.705  24.679  10.935
 8376W        W80669  18.213  19.654  11.552
 8377W        W80670  40.981  34.110  14.315
 8378W        W80671   0.401  39.955  13.426
 8379W        W80672  40.482  41.041  14.351
 8380W        W80673   3.762  25.982   0.258
 8381W        W80674  12.774  35.433   4.723
 8382W        W80675   3.330  24.488  12.834
 8383W        W80676  28.997  12.226  13.939
 8384W        W80677   5.900  11.314  12.019
 8385W        W80678  15.708   5.277  13.915
 8386W        W80679   8.671  36.383   2.331
 8387W        W80680  23.126  33.539  12.359
 8388W        W80681  32.463  19.766  11.011
 8389W        W80682  37.535   0.829  10.533
 8390W        W80683   9.846  31.896   2.715
 8391W        W80684  15.754   6.280  13.051
 8392W        W80685   8.181   0.897   4.670
 8393W        W80686   8.728   7.262   3.772
 8394W        W80687  14.637  21.068  11.485
 8395W        W80688   0.841  27.958  14.307
 8396W        W80689   8.267   7.411   2.699
 8397W        W80690  25.686   5.861   0.882
 8398W        W80691  15.641   4.308   3.373
 8399W        W80692   6.249  21.241   0.869
 8400W        W80693   3.846   1.410  14.771
 8401W        W80694  27.527  44.387   2.185
 8402W        W80695   2.424  28.663  12.573
 8403W        W80696  10.646   6.881  12.555
 8404W        W80697  17.561  21.644  13.881
 8405W        W80698  22.998  27.941   3.652
 8406W        W80699  43.415  41.006  13.413
 8407W        W80700  29.018  20.599   1.863
 8408W        W80701  40.525  21.544  12.906
 8409W        W80702   6.687  19.107   4.164
 8410W        W80703  22.669   8.384  13.907
 8411W        W80704  33.985  40.339  13.799
 8412W        W80705  18.553  15.706   1.370
 8413W        W80706  43.997  42.895  14.399
 8414W        W80707  12.155  42.782  11.547
 8415W        W80708   9.745  11.151  12.515
 8416W        W80709  43.370  28.519   1.923
 8417W        W80710  37.382  38.837   2.722
 8418W        W80711  38.845  15.645  10.642
 8419W        W80712  18.709  11.744  10.644
 8420W        W80713  41.478  19.693  14.302
 8421W        W80714  38.567  43.968  11.054
 8422W        W80715   0.320  37.404   0.415
 8423W        W80716  32.450  27.132   1.743
 8424W        W80717  38.962  19.644   1.810
 8425W        W80718  13.111  41.877   1.230
 8426W        W80719   1.318  29.919   2.800
 8427W        W80720  44.498   2.256  10.071
 8428W        W80721  28.103  40.012   2.790
 8429W        W80722  26.670  24.976   3.679
 8430W        W80723  37.956  12.154   0.283
 8431W        W80724   5.711  17.114   0.350
 8432W        W80725  16.579   1.394   2.192
 8433W        W80726   9.297  35.035   5.292
 8434W        W80727  40.045  42.454   2.780
 8435W        W80728  44.391  26.117  13.368
 8436W        W80729  19.679  29.067  11.077
 8437W        W80730  43.001  10.376   2.790
 8438W        W80731  25.007   5.835   0.361
 8439W        W80732  12.725  38.075  11.912
 8440W        W80733  28.027  26.570   3.367
 8441W        W80734  24.689   8.661   4.835
 8442W        W80735  39.867  22.558  10.447
 8443W        W80736   2.366  14.328  12.342
 8444W        W80737  35.400   8.671   5.189
 8445W        W80738  33.540   4.424  14.883
 8446W        W80739  11.760  25.152  10.958
 8447W        W80740   6.803  26.963  11.532
 8448W        W80741  24.546  44.331   1.353
 8449W        W80742  42.871  12.179   0.912
 8450W        W80743  43.968  13.769   4.665
 8451W        W80744  28.166   4.407   2.719
 8452W        W80745  19.641  41.333  11.025
 8453W        W80746  40.844  19.639   5.205
 8454W        W80747   1.854  41.861  14.837
 8455W        W80748  21.043  14.772  11.478
 8456W        W80749  12.358  11.224  10.474
 8457W        W80750  41.976  44.463   9.962
 8458W        W80751  32.471  12.746  14.478
 8459W        W80752  11.628   3.921   4.769
 8460W        W80753  21.595  22.513  11.032
 8461W        W80754  15.313   3.814  10.073
 8462W        W80755  44.950  19.642   0.746
 8463W        W80756   4.895  29.570  14.342
 8464W        W80757  20.719  16.255   3.270
 8465W        W80758  22.162  43.854  13.469
 8466W        W80759  38.408   4.405  14.855
 8467W        W80760  22.121  43.285   2.852
 8468W        W80761  19.269  28.463   2.796
 8469W        W80762  16.658  44.992   0.772
 8470W        W80763  27.487  21.562  12.947
 8471W        W80764   0.764  41.837   0.348
 8472W        W80765  23.716  11.794   4.674
 8473W        W80766  36.365   9.366   4.730
 8474W        W80767  29.492  44.809  10.564
 8475W        W80768  15.164  24.133  12.533
 8476W        W80769  22.142  35.506  14.940
 8477W        W80770  44.361  25.636  10.564
 8478W        W80771  34.496  11.803   0.432
 8479W        W80772  20.118  16.247  14.875
 8480W        W80773   6.379  28.571  13.893
 8481W        W80774  38.074  34.879  10.445
 8482W        W80775   2.871   2.786   0.298
 8483W        W80776  18.600  39.909   4.832
 8484W        W80777  20.063  40.536   1.332
 8485W        W80778   4.278   3.881   2.282
 8486W        W80779  27.942  34.103  13.042
 8487W        W80780   7.744  15.159   4.651
 8488W        W80781  30.020  38.565   0.312
 8489W        W80782  37.957  24.651   2.355
 8490W        W80783  19.737   0.373   1.744
 8491W        W80784  44.837  23.525  10.501
 8492W        W80785  32.060  31.136   1.906
 8493W        W80786  43.295  16.248  14.481
 8494W        W80787  23.040   8.801   1.742
 8495W        W80788  34.401  41.467  14.790
 8496W        W80789  22.185  43.838   0.803
 8497W        W80790  20.563  10.292   3.812
 8498W        W80791   4.829   1.795   4.792
 8499W        W80792  22.700  33.477  12.445
 8500W        W80793  17.223  34.019  14.918
 8501W        W80794  13.105  38.523   2.188
 8502W        W80795  13.231   8.196   0.868
 8503W        W80796  40.378  15.678  14.897
 8504W        W80797   4.409   9.306  11.088
 8505W        W80798  38.501  31.032  11.119
 8506W        W80799  32.973   1.737   0.425
 8507W        W80800  35.575  22.114   0.395
 8508W        W80801   9.256  31.075   3.652
 8509W        W80802   4.778  44.259  11.947
 8510W        W80803  11.160   4.913   1.849
 8511W        W80804   3.460  43.295   0.358
 8512W        W80805   0.926  43.296  12.974
 8513W        W80806  28.549  22.540   0.779
 8514W        W80807  37.337  24.621   0.258
 8515W        W80808  27.191  15.786   3.318
 8516W        W80809  32.577   0.835   4.826
 8517W        W80810   7.395   6.234   0.259
 8518W        W80811  24.993   0.839  11.867
 8519W        W80812   2.796   8.704  13.470
 8520W        W80813  16.757   9.876  10.497
 8521W        W80814  33.617  32.895   0.792
 8522W        W80815   0.852  36.425  10.640
 8523W        W80816  29.994   1.363   2.833
 8524W        W80817  37.385  37.083  14.021
 8525W        W80818  25.538  14.328   1.343
 8526W        W80819  28.042  29.436  11.873
 8527W        W80820  18.221  23.692  10.636
 8528W        W80821   8.901  10.152  10.970
 8529W        W80822  35.602  27.521   2.220
 8530W        W80823  17.158   3.795  10.069
 8531W        W80824   6.250  31.024  11.556
 8532W        W80825   9.772  16.315  10.499
 8533W        W80826  32.004  37.939   0.414
 8534W        W80827  36.931   2.246   2.293
 8535W        W80828   5.343  30.485  13.865
 8536W        W80829  25.697   0.365   0.462
 8537W        W80830  35.888   7.903   4.766
 8538W        W80831  18.065  28.004   2.292
 8539W        W80832  21.590   2.826   5.264
 8540W        W80833  42.474  25.473   2.701
 8541W        W80834  15.227  43.928  10.448
 8542W        W80835  27.163  43.922   4.221
 8543W        W80836  42.445   2.906   1.252
 8544W        W80837  44.002  37.998   3.637
 8545W        W80838  44.325  32.579  14.881
 8546W        W80839  32.482   2.741  12.491
 8547W        W80840  26.615  26.501   4.137
 8548W        W80841  20.190  14.306  12.476
 8549W        W80842  37.454  36.383  13.979
 8550W        W80843  35.984  31.426   4.651
 8551W        W80844  11.642  31.028  12.365
 8552W        W80845   7.795   9.675   4.192
 8553W        W80846  26.187  10.331  13.015
 8554W        W80847  29.468  42.342   3.826
 8555W        W80848  26.174   9.211  13.504
 8556W        W80849  28.616  17.601  13.440
 8557W        W80850   4.448  10.314  10.907
 8558W        W80851   4.361  24.007  14.013
 8559W        W80852   8.346  24.526   1.701
 8560W        W80853   4.880  18.749   0.379
 8561W        W80854  16.770  16.715   2.769
 8562W        W80855  37.533  43.336   0.460
 8563W        W80856  18.076  43.305   4.676
 8564W        W80857   6.781   4.741   4.767
 8565W        W80858  19.761  13.793   2.858
 8566W        W80859   0.486  33.895  10.473
 8567W        W80860  10.859  41.528   4.825
 8568W        W80861  10.197   7.352  14.927
 8569W        W80862  35.555   7.241  13.923
 8570W        W80863  33.122  34.892   0.949
 8571W        W80864  16.267   6.692   3.298
 8572W        W80865  34.516  12.204  14.419
 8573W        W80866  41.826  33.412   2.283
 8574W        W80867  40.925   6.696   4.835
 8575W        W80868  32.458  18.716   4.215
 8576W        W80869  32.397  29.109  12.051
 8577W        W80870  27.480  40.475   3.866
 8578W        W80871   8.687  38.023  11.459
 8579W        W80872  12.833  19.688  12.953
 8580W        W80873  28.657  12.350  10.956
 8581W        W80874  18.286  39.406   4.790
 8582W        W80875  37.360  29.599   3.176
 8583W        W80876  20.241  23.093  13.421
 8584W        W80877  19.756   2.813  13.061
 8585W        W80878  10.309  28.606  14.860
 8586W        W80879  28.944  13.622  12.369
 8587W        W80880  26.542  27.146  11.894
 8588W        W80881  42.028   1.861   1.850
 8589W        W80882  43.837   3.826   0.266
 8590W        W80883   4.267  23.510   4.799
 8591W        W80884  13.801  43.273   3.839
 8592W        W80885   2.861  36.924   3.208
 8593W        W80886  32.995  18.103   1.412
 8594W        W80887  42.927  17.230   0.876
 8595W        W80888  30.081  34.937  14.403
 8596W        W80889  24.724  34.013   3.343
 8597W        W80890  31.996  39.853   1.837
 8598W        W80891  35.522  16.251  14.935
 8599W        W80892  33.553  42.011  13.891
 8600W        W80893  21.605  35.923  10.409
 8601W        W80894   7.401  35.562  12.358
 8602W        W80895  38.567  20.576  13.323
 8603W        W80896  30.057  21.168  10.890
 8604W        W80897  10.157   1.746  14.333
 8605W        W80898  23.520   7.400   3.686
 8606W        W80899  20.722   1.939  14.418
 8607W        W80900  30.946  31.616   3.796
 8608W        W80901  19.537  36.947   0.835
 8609W        W80902   7.716  13.135   2.673
 8610W        W80903  38.959  43.872   0.850
 8611W        W80904  33.880   0.888   4.144
 8612W        W80905  40.046  24.644   2.801
 8613W        W80906   3.776  21.630  13.010
 8614W        W80907  38.502   0.927   3.269
 8615W        W80908  12.134  28.039   4.820
 8616W        W80909  27.515  28.674  13.529
 8617W        W80910  42.472  24.661  12.561
 8618W        W80911  34.920  17.598  14.969
 8619W        W80912  44.964  37.528   4.818
 8620W        W80913  31.421  30.594   2.785
 8621W        W80914  36.915  32.894  12.340
 8622W        W80915  15.194  18.060   4.230
 8623W        W80916  37.893  27.162   0.359
 8624W        W80917  40.348   2.440   1.870
 8625W        W80918  23.232  31.480   4.766
 8626W        W80919  15.131  12.853   3.861
 8627W        W80920  21.537  14.755  11.412
 8628W        W80921  14.302   5.760   1.932
 8629W        W80922  34.007  23.057   0.388
 8630W        W80923  25.035  31.442  14.994
 8631W        W80924  42.509  28.522   4.747
 8632W        W80925  11.800  36.012   9.955
 8633W        W80926  19.623  41.978  11.933
 8634W        W80927  21.164   1.856  10.570
 8635W        W80928  11.848  18.606   3.692
 8636W        W80929   1.465   5.811  13.795
 8637W        W80930  35.021  21.528  10.989
 8638W        W80931  28.994  18.673  11.427
 8639W        W80932  27.679  36.067  12.948
 8640W        W80933  19.102  34.528   0.745
 8641W        W80934  13.819  33.947   4.273
 8642W        W80935  27.643  21.222  12.020
 8643W        W80936  11.289  41.856   2.310
 8644W        W80937  39.816  38.005  10.547
 8645W        W80938  27.457  29.165  13.980
 8646W        W80939  38.887   4.807  13.986
 8647W        W80940  25.013   0.326   2.319
 8648W        W80941  12.357  42.422   4.811
 8649W        W80942  30.635  17.190  12.863
 8650W        W80943  14.141  13.274  12.347
 8651W        W80944   6.703  25.138   3.289
 8652W        W80945  32.557  30.548   2.705
 8653W        W80946   8.867  11.694   4.335
 8654W        W80947  44.969  40.960   0.828
 8655W        W80948  39.458  25.473   4.757
 8656W        W80949  15.144   4.820   2.819
 8657W        W80950   8.195  35.392  13.320
 8658W        W80951  31.967  38.827   3.750
 8659W        W80952  16.283   7.860   0.417
 8660W        W80953   8.755  12.248   0.905
 8661W        W80954  19.670  10.726   1.225
 8662W        W80955  16.114  36.086  10.995
 8663W        W80956  27.571  23.127   3.257
 8664W        W80957  15.648  31.487   4.191
 8665W        W80958  38.451  40.937  12.514
 8666W        W80959  34.864  13.832   1.862
 8667W        W80960  12.750  44.975  14.993
 8668W        W80961   5.861  17.088   4.271
 8669W        W80962  27.002  20.642  11.559
 8670W        W80963  10.806  24.175  10.942
 8671W        W80964   7.702  33.983  10.940
 8672W        W80965  17.642  21.593   9.980
 8673W        W80966  39.507   3.235   3.744
 8674W        W80967   2.460  34.021   2.672
 8675W        W80968   2.272  16.258  13.845
 8676W        W80969   5.285  22.709  12.073
 8677W        W80970  35.890  36.487   4.271
 8678W        W80971  33.109  18.281   1.735
 8679W        W80972   3.226  37.568   2.226
 8680W        W80973  38.819  24.187   4.289
 8681W        W80974   4.280  30.989  14.512
 8682W        W80975   5.834  20.640   2.259
 8683W        W80976  18.140   8.658   0.319
 8684W        W80977  24.722  25.561   2.261
 8685W        W80978  16.216  38.456  14.878
 8686W        W80979  36.418  32.088  14.319
 8687W        W80980  29.084  18.787   1.722
 8688W        W80981  39.479  14.278  12.929
 8689W        W80982  32.609   3.876  12.456
 8690W        W80983  37.391  14.593  12.085
 8691W        W80984  35.000  16.635  13.902
 8692W        W80985   8.341   6.743  14.938
 8693W        W80986  21.628  23.050  13.850
 8694W        W80987  32.627  31.041   0.282
 8695W        W80988  33.100  11.745   4.818
 8696W        W80989  21.750  31.020  14.427
 8697W        W80990  28.518  36.443   0.449
 8698W        W80991   3.811  39.950  13.892
 8699W        W80992  17.129  40.383   4.313
 8700W        W80993  19.749  31.545   3.333
 8701W        W80994  13.820  39.009  13.855
 8702W        W80995  16.217   5.360  12.342
 8703W        W80996   4.889  22.137  12.925
 8704W        W80997  42.491  41.408   0.752
 8705W        W80998  30.103   9.192  11.035
 8706W        W80999  43.013  21.675   2.884
 8707W        W81000  25.214  42.860   1.221
 8708W        W81001  23.066  10.198   3.225
 8709W        W81002  40.504  11.752   1.284
 8710W        W81003  10.853  27.136   4.708
 8711W        W81004  16.588   9.330  12.421
 8712W        W81005  11.856  12.666  10.441
 8713W        W81006  19.074  14.136   5.239
 8714W        W81007  12.684   0.949  10.912
 8715W        W81008  23.603  38.428   4.223
 8716W        W81009   1.307  40.995   2.184
 8717W        W81010  24.009  29.164   4.300
 8718W        W81011  42.468  23.085  10.966
 8719W        W81012   0.869   2.803  13.533
 8720W        W81013  44.896   7.707  11.988
 8721W        W81014  15.101  18.664   3.328
 8722W        W81015   2.850   3.455  14.329
 8723W        W81016  32.423   5.212  11.977
 8724W        W81017   7.178  37.857   4.309
 8725W        W81018  32.992  37.996  12.425
 8726W        W81019  41.327  19.656   3.786
 8727W        W81020  21.747  25.073  11.588
 8728W        W81021  40.541  18.715   4.196
 8729W        W81022   5.432  32.127  12.971
 8730W        W81023  21.615  21.713  11.076
 8731W        W81024  14.816  20.078   4.260
 8732W        W81025  34.028  14.762  13.883
 8733W        W81026  29.173   8.807   4.690
 8734W        W81027  16.811  32.989   0.386
 8735W        W81028  20.610   8.347  13.344
 8736W        W81029  21.675  18.664   1.738
 8737W        W81030  44.769  25.497  11.927
 8738W        W81031   6.748  19.765  13.960
 8739W        W81032  30.623  39.515  14.000
 8740W        W81033  15.155  28.024   0.900
 8741W        W81034  39.994  31.018   1.755
 8742W        W81035  21.189  43.991  11.409
 8743W        W81036  22.608  31.930  14.341
 8744W        W81037  41.314   1.897  13.503
 8745W        W81038  36.932  27.663   0.324
 8746W        W81039  12.837  28.120   1.390
 8747W        W81040  44.463  27.088   0.453
 8748W        W81041  25.171   4.733   3.686
 8749W        W81042  10.873  43.781  10.540
 8750W        W81043  22.213  36.400  11.416
 8751W        W81044  17.644  22.143   1.716
 8752W        W81045  15.815  25.595  13.816
 8753W        W81046  41.309  37.953  12.376
 8754W        W81047  28.466  39.951   2.250
 8755W        W81048  40.018  13.636   3.770
 8756W        W81049  33.054  23.587   3.687
 8757W        W81050  39.893  42.815   4.752
 8758W        W81051  12.855  38.500  12.571
 8759W        W81052   6.311  11.691  13.847
 8760W        W81053  20.128  14.217   3.671
 8761W        W81054   4.755  26.505   4.773
 8762W        W81055  39.021  35.480   1.377
 8763W        W81056  35.550  26.460   2.872
 8764W        W81057  30.972  31.902   2.778
 8765W        W81058  32.063   6.889  12.358
 8766W        W81059  10.673   5.729  12.909
 8767W        W81060  37.964  27.599  14.855
 8768W        W81061  12.850  12.252  11.942
 8769W        W81062  28.023  15.294   1.365
 8770W        W81063  42.825  19.721  12.083
 8771W        W81064  37.493  20.182  11.004
 8772W        W81065  39.434  13.255  13.501
 8773W        W81066  30.469  24.134  11.930
 8774W        W81067  23.060  30.122   0.797
 8775W        W81068  23.993   4.933   3.253
 8776W        W81069  16.082  21.163   5.131
 8777W        W81070  22.011  36.366   3.731
 8778W        W81071  11.778   3.918  14.803
 8779W        W81072   5.746  43.465  14.289
 8780W        W81073  32.459  23.192   1.236
 8781W        W81074  42.830  16.250   4.604
 8782W        W81075   9.659  17.775   1.927
 8783W        W81076  36.878   1.882   4.669
 8784W        W81077  18.181  30.511   5.082
 8785W        W81078  11.288  36.517   1.295
 8786W        W81079  35.109   6.413   4.636
 8787W        W81080   0.938  18.731   1.777
 8788W        W81081   2.299  41.465   3.251
 8789W        W81082  16.738  18.704  13.973
 8790W        W81083  15.135   6.731  13.042
 8791W        W81084  16.568   0.454   0.281
 8792W        W81085  26.541  37.877  11.018
 8793W        W81086  25.103   4.305  13.327
 8794W        W81087   1.811   3.808   3.758
 8795W        W81088  26.503  10.721  13.025
 8796W        W81089  17.215   3.709   2.843
 8797W        W81090  37.952  39.818  13.972
 8798W        W81091  38.359  43.407  10.511
 8799W        W81092  41.334   3.224  12.501
 8800W        W81093  23.218  17.701   0.908
 8801W        W81094  11.756  43.982  11.479
 8802W        W81095  28.084  25.501  12.566
 8803W        W81096  33.959  25.486   2.776
 8804W        W81097   8.692  36.380   5.081
 8805W        W81098  36.963  43.877  14.921
 8806W        W81099  15.762  27.027   2.261
 8807W        W81100  35.922  37.059   0.432
 8808W        W81101  35.461  41.306   0.328
 8809W        W81102   5.390  14.180   4.686
 8810W        W81103  13.141  33.615   1.332
 8811W        W81104  43.876  25.655  12.862
 8812W        W81105   1.309  27.033  14.377
 8813W        W81106  27.051  38.406   1.800
 8814W        W81107  35.455  32.096  10.563
 8815W        W81108  26.703   6.386  13.498
 8816W        W81109  32.422  44.992  10.938
 8817W        W81110  33.482   2.243  14.912
 8818W        W81111   0.438   5.216   0.779
 8819W        W81112  44.296  31.027   3.648
 8820W        W81113  42.990  24.079   4.167
 8821W        W81114  35.945  26.142  14.764
 8822W        W81115  21.607  28.931  14.448
 8823W        W81116  41.878  24.686   3.320
 8824W        W81117  23.039  19.681   2.411
 8825W        W81118  19.219  37.079   1.850
 8826W        W81119  32.125  19.734   9.983
 8827W        W81120  10.841  35.853  13.897
 8828W        W81121  43.478  39.323  12.953
 8829W        W81122  32.417  44.863   3.169
 8830W        W81123  11.660   3.344   0.397
 8831W        W81124  28.457  31.036   1.272
 8832W        W81125  36.487  39.383   3.161
 8833W        W81126  20.723  33.477   2.735
 8834W        W81127  14.629  43.930   0.454
 8835W        W81128  27.949  30.055   0.268
 8836W        W81129  44.782  14.830  12.858
 8837W        W81130  35.511  12.610  13.334
 8838W        W81131  19.141  25.049  14.504
 8839W        W81132  30.527   6.268  14.884
 8840W        W81133  26.029  21.702   2.841
 8841W        W81134  13.309  12.195   4.170
 8842W        W81135  44.274  42.402  12.970
 8843W        W81136  33.102  10.247  12.548
 8844W        W81137  17.697  17.685  13.794
 8845W        W81138  12.787  26.551  13.800
 8846W        W81139  39.368  43.345   2.268
 8847W        W81140  35.928  32.600  13.977
 8848W        W81141  40.932  12.662   4.242
 8849W        W81142  10.178  16.290   4.749
 8850W        W81143  19.053  22.151   0.782
 8851W        W81144  10.322  22.129  10.059
 8852W        W81145  22.608  42.448  13.394
 8853W        W81146  36.872   7.685   3.202
 8854W        W81147  24.155   9.282  14.973
 8855W        W81148  41.457   8.328  11.065
 8856W        W81149  27.544  38.996  10.463
 8857W        W81150  22.569  11.678  11.896
 8858W        W81151  33.404  26.483   4.776
 8859W        W81152  44.399  42.511  14.313
 8860W        W81153  27.194  19.232   4.768
 8861W        W81154  13.795  43.962  14.951
 8862W        W81155  37.426  37.338   3.662
 8863W        W81156   8.855  43.485   4.228
 8864W        W81157  36.858  37.459  11.468
 8865W        W81158  15.651  20.087  10.044
 8866W        W81159   1.854  22.504   3.697
 8867W        W81160   7.908   1.862   0.864
 8868W        W81161  19.617   6.307   0.863
 8869W        W81162  41.879  13.694  12.976
 8870W        W81163  38.978  22.054   4.312
 8871W        W81164  29.164  20.557   2.394
 8872W        W81165  14.669  10.252   0.950
 8873W        W81166   3.923  29.663  13.841
 8874W        W81167  40.367   0.941  10.917
 8875W        W81168  18.148  39.028  14.338
 8876W        W81169  10.758  27.012  12.842
 8877W        W81170   6.889  31.466   4.213
 8878W        W81171  15.586   2.759   0.357
 8879W        W81172  34.592  43.891  13.334
 8880W        W81173  21.751  35.028   3.180
 8881W        W81174  31.952  20.171  12.407
 8882W        W81175  44.283  14.273  11.073
 8883W        W81176   6.351   4.335   1.699
 8884W        W81177  12.776  41.982  13.905
 8885W        W81178  39.930  32.448  12.926
 8886W        W81179  13.700   1.282   3.787
 8887W        W81180  28.520  19.631  11.038
 8888W        W81181  27.075  34.032   4.207
 8889W        W81182  32.436  38.417  11.486
 8890W        W81183  39.033   8.324  11.417
 8891W        W81184   6.290  31.111   0.931
 8892W        W81185  16.615   9.811  11.596
 8893W        W81186  24.537  35.890   2.866
 8894W        W81187  41.986   7.822  12.975
 8895W        W81188  28.055   3.412   2.833
 8896W        W81189   6.692  44.762   0.366
 8897W        W81190  12.309  22.996  11.126
 8898W        W81191  25.198   8.197  13.448
 8899W        W81192  26.549  14.213   4.249
 8900W        W81193  23.155  23.033   2.883
 8901W        W81194  26.181   3.895  14.944
 8902W        W81195  37.907  11.696  10.574
 8903W        W81196   7.745  32.591  11.078
 8904W        W81197  29.059  13.319   4.197
 8905W        W81198  24.200  12.132  12.370
 8906W        W81199  24.992  24.719  13.844
 8907W        W81200  41.894  31.085   2.760
 8908W        W81201  26.572  24.712  12.875
 8909W        W81202  42.500  41.501   1.709
 8910W        W81203   8.401   2.879   0.847
 8911W        W81204  26.070  20.260   3.355
 8912W        W81205  25.112  27.458   4.151
 8913W        W81206  42.909   4.269  11.515
 8914W        W81207  19.587  28.072   1.288
 8915W        W81208  34.093  38.399   2.733
 8916W        W81209  37.888  31.914   1.932
 8917W        W81210  41.493   6.685  11.121
 8918W        W81211   8.755  33.002  14.457
 8919W        W81212  43.881  33.527  10.505
 8920W        W81213  34.402  17.674  11.861
 8921W        W81214  36.903  13.651  14.819
 8922W        W81215  13.332   7.270  10.911
 8923W        W81216  25.529  27.449  14.920
 8924W        W81217  42.312   8.853  14.957
 8925W        W81218  10.321  21.151  12.043
 8926W        W81219  20.679  15.698   1.828
 8927W        W81220  28.539  40.362   0.447
 8928W        W81221  44.339  18.759   0.938
 8929W        W81222  44.964   0.839  14.826
 8930W        W81223   0.310   4.265  13.985
 8931W        W81224  36.473  24.580   3.379
 8932W        W81225  36.916  12.722   0.336
 8933W        W81226  40.051  42.366  12.353
 8934W        W81227  29.525   9.820   0.283
 8935W        W81228  33.515   4.792   4.238
 8936W        W81229  36.900  44.803   2.861
 8937W        W81230  38.330  12.712  11.433
 8938W        W81231  16.696  38.829   0.750
 8939W        W81232  25.674  13.641   0.807
 8940W        W81233  21.576  26.570   4.676
 8941W        W81234  29.920   5.762  14.280
 8942W        W81235   4.880  23.622   1.409
 8943W        W81236  30.071  36.019   2.414
 8944W        W81237   0.847   3.944   4.652
 8945W        W81238  12.631  35.875   4.671
 8946W        W81239  44.917  30.424  11.868
 8947W        W81240  10.159  27.691   1.853
 8948W        W81241  22.577  36.558   2.709
 8949W        W81242  19.054  30.083   2.352
 8950W        W81243  39.908   7.746   4.630
 8951W        W81244  42.009   5.888  12.036
 8952W        W81245  17.149  15.219  13.350
 8953W        W81246  30.053   9.872  12.921
 8954W        W81247  41.397   0.286  13.413
 8955W        W81248  42.959  28.629  11.572
 8956W        W81249  14.170  41.369   0.405
 8957W        W81250  37.900  25.040  11.535
 8958W        W81251  24.671  40.873   0.888
 8959W        W81252   2.918   6.209   4.695
 8960W        W81253  40.872  34.090  10.473
 8961W        W81254  18.657  29.118   0.417
 8962W        W81255   2.467  20.554  13.898
 8963W        W81256  15.124   5.879  13.958
 8964W        W81257  28.035  26.561  14.862
 8965W        W81258  38.508  35.041  11.384
 8966W        W81259   8.764  19.606  10.597
 8967W        W81260  18.173  10.365  10.518
 8968W        W81261  25.112  29.123  12.896
 8969W        W81262  14.673  33.515   4.216
 8970W        W81263  17.127  19.685  11.392
 8971W        W81264  29.502   1.943   2.416
 8972W        W81265  23.039  24.052   3.767
 8973W        W81266  19.039  19.211  14.359
 8974W        W81267  18.206  42.778  11.058
 8975W        W81268   5.366  29.924  10.468
 8976W        W81269   0.338  40.472   1.211
 8977W        W81270  39.844  24.063  12.921
 8978W        W81271  11.711  11.289   1.320
 8979W        W81272  22.080  12.746  10.467
 8980W        W81273   5.701  41.943   2.759
 8981W        W81274  21.540   0.793   3.704
 8982W        W81275  33.588  17.586   3.234
 8983W        W81276   4.371  27.605  10.412
 8984W        W81277  21.251  37.424   0.737
 8985W        W81278  34.445  31.959   2.846
 8986W        W81279   3.752   2.898   4.750
 8987W        W81280  14.830  21.604   4.134
 8988W        W81281  10.815  17.070   2.710
 8989W        W81282  21.196  30.079   3.846
 8990W        W81283  26.591  32.003  12.921
 8991W        W81284   3.271  30.487  10.616
 8992W        W81285   6.260  10.362   0.828
 8993W        W81286  29.654  33.450  10.151
 8994W        W81287   2.276  14.163  12.070
 8995W        W81288  43.819   4.235   0.913
 8996W        W81289  20.212  31.900  14.805
 8997W        W81290  34.064  35.092   3.811
 8998W        W81291  27.509  44.972  12.893
 8999W        W81292  31.586   1.736   0.407
 9000W        W81293   9.193  20.619   2.303
 9001W        W81294  14.796  19.074  13.407
 9002W        W81295  28.154  11.356  13.484
 9003W        W81296  23.129  10.218   1.766
 9004W        W81297  27.646  33.576   2.690
 9005W        W81298  34.443  42.013  13.987
 9006W        W81299  44.409  21.733   9.998
 9007W        W81300  19.658  36.518   3.386
 9008W        W81301  17.579  15.283  11.511
 9009W        W81302  32.510  14.662   4.748
 9010W        W81303  25.626   5.379   2.803
 9011W        W81304  11.152  40.304  12.454
 9012W        W81305  41.470  13.654  14.903
 9013W        W81306  31.518  27.051   0.267
 9014W        W81307  13.808  21.061  10.422
 9015W        W81308   9.779   9.721   4.267
 9016W        W81309  19.135  40.052  11.915
 9017W        W81310   2.380  16.076   4.792
 9018W        W81311  40.993  20.604   0.834
 9019W        W81312  21.620   6.853   2.683
 9020W        W81313  36.454  31.449  12.391
 9021W        W81314  32.111   3.934   2.742
 9022W        W81315  28.065  20.555   2.286
 9023W        W81316  40.048  30.141   0.848
 9024W        W81317  35.897  22.032  11.372
 9025W        W81318  20.090  39.959   1.445
 9026W        W81319  16.804  43.916   0.333
 9027W        W81320  24.662   8.262   4.671
 9028W        W81321   2.816  12.830  14.324
 9029W        W81322   0.287  25.612  13.051
 9030W        W81323   0.473  25.022   4.736
 9031W        W81324  40.971  18.280  14.308
 9032W        W81325   4.281  14.140  14.776
 9033W        W81326  24.660  31.437  11.880
 9034W        W81327   2.856  16.174   3.679
 9035W        W81328  34.879  10.342  14.790
 9036W        W81329   0.758  23.169   4.141
 9037W        W81330  31.008  26.068  10.523
 9038W        W81331  29.575  34.599  14.396
 9039W        W81332  35.996   5.244   3.745
 9040W        W81333  18.087  35.424   1.310
 9041W        W81334  17.796   9.809  14.464
 9042W        W81335  19.706  38.867   2.790
 9043W        W81336  43.287  34.474  14.338
 9044W        W81337  42.890   8.721  13.927
 9045W        W81338  33.573  43.458  13.406
 9046W        W81339   8.890  19.071  14.311
 9047W        W81340   4.791  30.482  10.982
 9048W        W81341  37.932  10.218   4.748
 9049W        W81342   5.299  33.075   2.227
 9050W        W81343  43.347   3.404   5.154
 9051W        W81344  16.670  27.576  13.980
 9052W        W81345  26.075  31.513  13.546
 9053W        W81346  40.982  34.888  11.589
 9054W        W81347  15.661   5.234   4.638
 9055W        W81348  22.728  43.912  13.333
 9056W        W81349  14.276  19.662   3.750
 9057W        W81350  15.709   0.926  11.589
 9058W        W81351  17.772  11.204   1.866
 9059W        W81352  17.281  44.292  11.037
 9060W        W81353  29.447  12.324  10.562
 9061W        W81354  40.801  16.768   0.413
 9062W        W81355  35.428  14.328  13.793
 9063W        W81356  10.877   0.451  11.058
 9064W        W81357  24.126  40.853  12.893
 9065W        W81358  26.143  29.664   1.400
 9066W        W81359  24.064   2.866  14.354
 9067W        W81360  20.137  26.695   3.378
 9068W        W81361  32.503  24.500   1.757
 9069W        W81362  26.505  18.608  10.552
 9070W        W81363  14.185  32.943   1.773
 9071W        W81364  34.066  16.769   0.793
 9072W        W81365   1.928  18.100   4.250
 9073W        W81366  15.614  35.073  12.433
 9074W        W81367  44.415  35.854  12.557
 9075W        W81368   2.340  38.861  13.526
 9076W        W81369   8.388  34.597  12.564
 9077W        W81370   2.960  26.158   0.823
 9078W        W81371  32.010  32.416  13.350
 9079W        W81372  15.692   3.806   0.791
 9080W        W81373   8.712  42.024   1.890
 9081W        W81374   5.799  14.137   0.945
 9082W        W81375  11.840  29.502   1.249
 9083W        W81376  43.506  31.970   4.118
 9084W        W81377  34.883   0.828   3.727
 9085W        W81378  30.606  39.926  12.551
 9086W        W81379   9.651   2.859  11.508
 9087W        W81380   0.493  23.649   0.371
 9088W        W81381  43.401  22.122   2.285
 9089W        W81382  11.299  26.165  12.504
 9090W        W81383   1.973   4.217   2.286
 9091W        W81384  33.475  18.767  11.534
 9092W        W81385   1.762  30.478   4.598
 9093W        W81386  13.276  37.557   0.964
 9094W        W81387  41.959   8.406  10.460
 9095W        W81388  17.266  26.469  11.511
 9096W        W81389  44.494  42.003  10.938
 9097W        W81390  12.735   2.279   1.741
 9098W        W81391   5.773  42.954  11.580
 9099W        W81392   1.954  28.108  14.287
 9100W        W81393  14.218   1.913   5.647
 9101W        W81394   8.729  18.150  11.413
 9102W        W81395   8.383  24.698  14.015
 9103W        W81396  29.160  13.742  11.545
 9104W        W81397   0.939  22.043  13.897
 9105W        W81398   6.234  26.198   1.267
 9106W        W81399  15.787  27.576  13.445
 9107W        W81400  35.423  25.676   2.784
 9108W        W81401  40.491  20.249  14.782
 9109W        W81402  11.366   5.796  14.855
 9110W        W81403   0.388  38.860   0.811
 9111W        W81404  43.802   0.426   9.533
 9112W        W81405  27.185  39.538   1.928
 9113W        W81406   2.373  43.467   1.241
 9114W        W81407   1.271  13.719  11.468
 9115W        W81408  20.087   6.356  14.326
 9116W        W81409  17.721  28.473  14.430
 9117W        W81410  23.996  22.997  14.358
 9118W        W81411  24.081   7.371  12.043
 9119W        W81412   8.841  11.714  12.862
 9120W        W81413  37.927   2.455   3.636
 9121W        W81414  15.777  17.788  14.446
 9122W        W81415  16.168  27.024  11.023
 9123W        W81416  11.624  41.972   2.862
 9124W        W81417  18.264  31.527   2.317
 9125W        W81418  32.898   9.706   9.539
 9126W        W81419   4.885  43.350   0.960
 9127W        W81420  10.257  30.084  10.943
 9128W        W81421  11.139  10.309   0.887
 9129W        W81422   3.729  31.929   1.755
 9130W        W81423  35.009  24.644   2.215
 9131W        W81424   4.388  38.845   1.717
 9132W        W81425  24.555  37.485  14.844
 9133W        W81426  11.193   0.270   2.781
 9134W        W81427  17.187  27.584  11.556
 9135W        W81428  22.648   2.455  10.980
 9136W        W81429  43.916   4.729   3.151
 9137W        W81430  37.421  30.593  14.432
 9138W        W81431  34.908  15.735  14.809
 9139W        W81432  25.512   3.328   9.677
 9140W        W81433  34.384   3.312   4.759
 9141W        W81434  33.598  28.029   5.293
 9142W        W81435  19.698  16.766   2.865
 9143W        W81436  17.130  36.023   1.783
 9144W        W81437  34.979  15.211   1.276
 9145W        W81438  29.013  35.933   2.874
 9146W        W81439  32.495  30.495  12.521
 9147W        W81440  22.725  36.555   0.332
 9148W        W81441  32.494   9.292  10.624
 9149W        W81442  31.025  26.058  13.055
 9150W        W81443  43.507  35.458   2.352
 9151W        W81444   9.371  21.098   2.723
 9152W        W81445   1.242   3.453   4.247
 9153W        W81446  29.940  25.180   0.425
 9154W        W81447  36.930  40.825   3.858
 9155W        W81448  32.938  16.684  11.022
 9156W        W81449  32.403  27.473  14.503
 9157W        W81450  19.238  27.983  10.578
 9158W        W81451  14.628   2.897  13.915
 9159W        W81452   9.160  32.460  14.960
 9160W        W81453  24.653  35.405   3.782
 9161W        W81454  40.974   0.771  10.063
 9162W        W81455  25.655  33.880  13.506
 9163W        W81456   8.744  29.593  14.762
 9164W        W81457  20.151  21.701  10.441
 9165W        W81458  30.941   8.737  12.472
 9166W        W81459  17.793  35.995  13.364
 9167W        W81460   9.255  13.753  11.598
 9168W        W81461  10.844  18.551   4.663
 9169W        W81462  41.999  23.642   1.735
 9170W        W81463  22.250   7.844  14.792
 9171W        W81464  19.276  29.016   4.672
 9172W        W81465   1.320  27.992  14.387
 9173W        W81466  37.563  15.807   2.188
 9174W        W81467  42.998  25.996  12.065
 9175W        W81468   6.410   3.224   1.913
 9176W        W81469   9.337  22.041  14.364
 9177W        W81470   3.786   6.785  11.374
 9178W        W81471  38.896   1.462   4.773
 9179W        W81472  37.057  38.013   3.673
 9180W        W81473   7.406  35.107   3.757
 9181W        W81474  28.572  32.140   1.251
 9182W        W81475   8.291   4.422  12.505
 9183W        W81476   3.217   1.353   2.240
 9184W        W81477  42.471  33.888   4.836
 9185W        W81478  37.539  38.862  11.489
 9186W        W81479  10.829  25.569   3.146
 9187W        W81480  15.147  14.272  14.929
 9188W        W81481  21.753  14.790  14.390
 9189W        W81482   3.221   8.386  12.066
 9190W        W81483   6.816   4.329  12.972
 9191W        W81484  27.043  42.989   2.292
 9192W        W81485  27.023  15.321  14.331
 9193W        W81486   0.424  21.630   2.284
 9194W        W81487   9.193  26.499  12.835
 9195W        W81488  23.171  23.574  10.635
 9196W        W81489  12.203   1.369  13.410
 9197W        W81490  26.502  40.541  11.446
 9198W        W81491  24.518   6.320  12.538
 9199W        W81492  42.775   5.901  13.327
 9200W        W81493  40.502  26.027   2.198
 9201W        W81494  11.635  10.204   4.605
 9202W        W81495  14.171   3.800   4.728
 9203W        W81496  16.795  21.527   5.596
 9204W        W81497  44.942  20.183  14.785
 9205W        W81498  34.594  14.682   0.412
 9206W        W81499   7.208   4.708   3.755
 9207W        W81500   5.896   4.746  11.872
 9208W        W81501  21.021  24.052   3.263
 9209W        W81502   2.950  13.110   2.310
 9210W        W81503   0.976  24.039   4.734
 9211W        W81504   6.922  15.655  13.008
 9212W        W81505  20.224  17.791   0.792
 9213W        W81506  12.627  30.526  14.810
 9214W        W81507  10.244   3.399  14.402
 9215W        W81508  32.544  30.490   2.234
 9216W        W81509  32.047  25.154   0.949
 9217W        W81510   6.371   0.430  10.150
 9218W        W81511  16.232   6.229   2.267
 9219W        W81512  16.621   6.745  14.447
 9220W        W81513  14.600   9.832  10.891
 9221W        W81514  23.632  27.616  11.537
 9222W        W81515   8.236  42.896   3.667
 9223W        W81516   2.384  20.229  11.472
 9224W        W81517   7.209   0.275  11.061
 9225W        W81518  15.147  30.913  11.922
 9226W        W81519   1.952  29.535   3.729
 9227W        W81520  16.657  41.452   2.887
 9228W        W81521  32.496  11.360   1.815
 9229W        W81522  21.519  19.743  11.888
 9230W        W81523  15.091  30.614   3.662
 9231W        W81524   8.779  28.173   3.787
 9232W        W81525  10.722  36.994  12.949
 9233W        W81526  36.933  44.378   0.839
 9234W        W81527  22.225  36.908   3.668
 9235W        W81528  25.564  31.040  10.457
 9236W        W81529  29.531   8.727   1.265
 9237W        W81530  22.634  18.691   1.435
 9238W        W81531  25.055  35.054  14.284
 9239W        W81532  23.606  35.882  13.984
 9240W        W81533   3.737  27.521  11.988
 9241W        W81534   7.251   0.825  12.382
 9242W        W81535   1.906  33.474   0.917
 9243W        W81536  36.881   0.339   4.212
 9244W        W81537  41.839  29.962   2.284
 9245W        W81538   1.273  33.960   3.779
 9246W        W81539  10.149  15.820  11.439
 9247W        W81540  28.598   7.237  10.556
 9248W        W81541  27.490   2.728   0.898
 9249W        W81542  36.378  17.272   1.745
 9250W        W81543  28.096   4.920   2.672
 9251W        W81544  27.135  15.253   0.254
 9252W        W81545  36.082   8.714  10.942
 9253W        W81546   3.443   7.884   3.155
 9254W        W81547  36.509  15.625  13.988
 9255W        W81548  22.187   4.844   2.806
 9256W        W81549  18.654  42.021  11.490
 9257W        W81550  40.514  28.638   2.808
 9258W        W81551   2.381  29.087   3.723
 9259W        W81552  27.096   5.359   4.122
 9260W        W81553  18.194  12.760  14.486
 9261W        W81554   3.233  21.609  11.020
 9262W        W81555  31.006  35.098   2.803
 9263W        W81556  18.665   5.377   1.878
 9264W        W81557  29.153  21.515  11.979
 9265W        W81558   6.254  37.581  12.005
 9266W        W81559  31.470   8.820   0.763
 9267W        W81560   1.351  37.394  11.383
 9268W        W81561   4.749  34.534  13.336
 9269W        W81562   1.394  20.534  12.508
 9270W        W81563   9.367  26.557   0.865
 9271W        W81564  33.879  20.673   0.405
 9272W        W81565  38.440  43.331  10.945
 9273W        W81566  11.263   4.747  11.925
 9274W        W81567  26.461  17.667  11.429
 9275W        W81568  20.099  35.466  11.053
 9276W        W81569  16.187  36.037  13.974
 9277W        W81570  17.084  37.406   3.722
 9278W        W81571  10.827  42.852   3.317
 9279W        W81572  22.733  20.657   2.751
 9280W        W81573  39.033  18.684  12.356
 9281W        W81574  44.963  15.281   3.680
 9282W        W81575  24.168  33.998   3.262
 9283W        W81576   4.897  22.219  13.334
 9284W        W81577  15.191  14.680  10.909
 9285W        W81578   5.282  39.379   4.121
 9286W        W81579   8.339  12.163  14.965
 9287W        W81580  35.996  25.105   1.445
 9288W        W81581   9.738  44.499  12.466
 9289W        W81582  22.251  42.933   3.321
 9290W        W81583   5.895  21.061  11.446
 9291W        W81584  26.578  30.546  14.836
 9292W        W81585  37.986  29.444   1.331
 9293W        W81586  33.405   4.230   4.693
 9294W        W81587  26.551  20.663  13.379
 9295W        W81588  19.283  25.602   3.238
 9296W        W81589  29.136  38.953   4.638
 9297W        W81590  19.167  42.363   1.313
 9298W        W81591  43.325  26.591   2.709
 9299W        W81592  23.588  24.068   0.406
 9300W        W81593   1.782  26.117  14.862
 9301W        W81594  21.212  26.480   5.152
 9302W        W81595  32.104  33.571   4.838
 9303W        W81596  23.135  13.158   4.734
 9304W        W81597  36.881  14.296   2.361
 9305W        W81598  29.937   8.281   0.463
 9306W        W81599   9.182  19.698   1.225
 9307W        W81600  16.730  30.518   4.709
 9308W        W81601  10.654  17.729  11.520
 9309W        W81602   2.742  34.574  14.782
 9310W        W81603  44.420  25.217  11.458
 9311W        W81604   7.817  23.615  10.430
 9312W        W81605  38.874   8.303  12.474
 9313W        W81606  11.280  38.964   0.731
 9314W        W81607  43.826  34.090   3.307
 9315W        W81608  20.671  34.077   5.321
 9316W        W81609  31.905  36.498   1.922
 9317W        W81610   3.390  42.485   2.231
 9318W        W81611  38.820  33.521   2.836
 9319W        W81612  16.743  36.554  13.839
 9320W        W81613  18.133   7.750  12.506
 9321W        W81614  30.034  38.544  12.535
 9322W        W81615  25.146  41.362   2.406
 9323W        W81616   5.773  15.306  10.498
 9324W        W81617  43.946  22.087  14.337
 9325W        W81618  23.161  10.363  10.476
 9326W        W81619  21.085  43.825   3.847
 9327W        W81620  20.748   7.670   0.341
 9328W        W81621  33.410  25.491   1.716
 9329W        W81622  17.705  27.524  10.502
 9330W        W81623  33.895  29.426  11.403
 9331W        W81624  23.215  18.232   4.788
 9332W        W81625  35.546  39.380   0.290
 9333W        W81626  42.329  19.227   4.659
 9334W        W81627  36.457  29.506  11.999
 9335W        W81628   8.707  19.095  12.462
 9336W        W81629  18.255  26.097  14.905
 9337W        W81630  31.098  41.931   2.309
 9338W        W81631  40.984  11.851  14.412
 9339W        W81632  29.089  17.094  12.031
 9340W        W81633  11.764  40.950  12.851
 9341W        W81634  26.680  16.149   3.286
 9342W        W81635  16.225   4.908  12.530
 9343W        W81636  16.777  35.551   2.327
 9344W        W81637   2.920  41.041  13.048
 9345W        W81638  33.090  14.764  11.076
 9346W        W81639  23.185  33.559  14.854
 9347W        W81640  36.478  12.620  14.935
 9348W        W81641  26.670   8.882  12.541
 9349W        W81642   7.713  33.433   2.193
 9350W        W81643  41.920  31.589  11.521
 9351W        W81644  27.500   1.936  10.976
 9352W        W81645  11.776  27.114  14.380
 9353W        W81646   7.757  28.168   9.928
 9354W        W81647  34.894  44.404  10.118
 9355W        W81648   6.740   8.732  14.981
 9356W        W81649  38.508  40.423  11.050
 9357W        W81650  43.486  23.564  11.074
 9358W        W81651  26.623  12.616   0.386
 9359W        W81652  36.530  22.523   5.217
 9360W        W81653  12.737  18.093  11.858
 9361W        W81654  23.623   4.433   0.305
 9362W        W81655  28.546   2.381   2.320
 9363W        W81656  20.229  31.111   5.127
 9364W        W81657  17.801  16.173  11.516
 9365W        W81658  35.994   3.370   0.264
 9366W        W81659  42.298  26.515  13.432
 9367W        W81660  37.903  28.654   1.371
 9368W        W81661   9.207  37.378  10.508
 9369W        W81662  21.677   9.833   2.731
 9370W        W81663  42.811  43.943  13.007
 9371W        W81664   7.735  11.173   3.741
 9372W        W81665  41.795  13.806   3.173
 9373W        W81666  15.599   2.407  11.855
 9374W        W81667  26.641  29.665  13.915
 9375W        W81668  21.221   7.344  12.951
 9376W        W81669  38.328  34.504  14.805
 9377W        W81670   1.326  36.486   0.804
 9378W        W81671  29.481  44.983  12.049
 9379W        W81672   5.828  29.017   1.833
 9380W        W81673  22.530  17.745  12.423
 9381W        W81674   3.752  13.630  12.894
 9382W        W81675   7.881  40.948   3.841
 9383W        W81676  31.007  21.704   4.240
 9384W        W81677  35.555  37.945  13.513
 9385W        W81678  34.445  12.836   1.716
 9386W        W81679  43.796  44.454  14.877
 9387W        W81680   1.292  40.989   1.215
 9388W        W81681  25.170  19.748  14.946
 9389W        W81682   3.237   8.345   2.754
 9390W        W81683  36.968  40.830  10.405
 9391W        W81684   3.734  11.211   3.842
 9392W        W81685  28.131   5.891  13.009
 9393W        W81686  23.735  29.922  14.312
 9394W        W81687   1.740  13.333   2.374
 9395W        W81688  26.572  12.290  10.949
 9396W        W81689  25.160  42.892   4.706
 9397W        W81690  21.602  14.170  13.064
 9398W        W81691  43.806  19.672   3.291
 9399W        W81692  30.535  41.368  12.968
 9400W        W81693  34.387  14.659  13.363
 9401W        W81694  41.358  42.426   2.304
 9402W        W81695  33.387  39.847   2.216
 9403W        W81696  42.821  12.172   0.317
 9404W        W81697  32.630  13.184  13.032
 9405W        W81698   0.836  23.584  14.884
 9406W        W81699  32.940  44.897   2.226
 9407W        W81700  30.981   1.458  11.568
 9408W        W81701  18.144  35.601   3.281
 9409W        W81702  44.375  10.740   1.745
 9410W        W81703  40.827  35.895   2.874
 9411W        W81704  44.807  28.951  12.427
 9412W        W81705  42.873   6.419  10.550
 9413W        W81706   6.404   1.851   1.755
 9414W        W81707   3.914  12.157   1.439
 9415W        W81708  34.558  19.561   2.404
 9416W        W81709  35.006  21.524  10.416
 9417W        W81710  42.956   0.304  11.588
 9418W        W81711  43.806  29.650   3.746
 9419W        W81712   1.852  25.967  13.349
 9420W        W81713  43.771  10.669   3.695
 9421W        W81714  33.002  12.269   1.711
 9422W        W81715  39.452  15.613   0.389
 9423W        W81716  27.621   3.795  11.496
 9424W        W81717  23.140  36.945   3.799
 9425W        W81718   8.785  20.081   2.220
 9426W        W81719   6.420  40.536  13.515
 9427W        W81720   8.772  27.524   0.480
 9428W        W81721  23.172  18.231   3.209
 9429W        W81722  23.661  10.717  12.911
 9430W        W81723  37.439  13.652  12.553
 9431W        W81724  21.102   9.288   0.335
 9432W        W81725  25.524  10.864  12.066
 9433W        W81726  10.318  25.123  11.434
 9434W        W81727  20.555   6.375  12.942
 9435W        W81728  33.900  16.315  14.496
 9436W        W81729   9.365  41.875   4.643
 9437W        W81730  12.209  34.967  14.922
 9438W        W81731  10.799  32.542   2.355
 9439W        W81732  30.120  36.082  13.381
 9440W        W81733   3.304  24.577  13.887
 9441W        W81734  15.277  44.807   1.249
 9442W        W81735  18.096  39.362   2.274
 9443W        W81736  25.042  13.663  14.282
 9444W        W81737  25.126   4.363   9.940
 9445W        W81738  27.042  29.564   2.728
 9446W        W81739  12.752   9.679   3.240
 9447W        W81740  10.152  38.029  12.387
 9448W        W81741  22.052  14.699   2.214
 9449W        W81742  44.951  25.511   0.826
 9450W        W81743   6.405  18.186   2.372
 9451W        W81744  32.134  42.337   0.876
 9452W        W81745  23.627  23.571   1.432
 9453W        W81746  41.823  26.548   3.370
 9454W        W81747  29.008  24.009  12.364
 9455W        W81748  37.383   1.852   4.166
 9456W        W81749  44.996  19.274  11.995
 9457W        W81750  17.728  31.146  14.296
 9458W        W81751  17.097  18.656   1.329
 9459W        W81752  40.321  38.331  12.443
 9460W        W81753  32.576  26.131  14.943
 9461W        W81754  42.949   9.356   2.399
 9462W        W81755  37.421  41.874   0.376
 9463W        W81756  25.661  41.324  10.046
 9464W        W81757   7.806   9.317  14.312
 9465W        W81758  23.122   7.195  14.921
 9466W        W81759   0.264  10.824   2.356
 9467W        W81760  16.111  36.499   2.681
 9468W        W81761  28.053  13.348   4.639
 9469W        W81762  32.609  38.926   1.417
 9470W        W81763  20.533  32.598  10.923
 9471W        W81764  40.870  29.145   1.874
 9472W        W81765  30.413  19.552  12.473
 9473W        W81766  23.113   7.849   3.812
 9474W        W81767  30.045  28.005  13.385
 9475W        W81768  10.338   0.863   3.286
 9476W        W81769   6.302  29.622   1.815
 9477W        W81770  17.645  37.433   0.850
 9478W        W81771  19.140  15.185  13.538
 9479W        W81772  30.413  37.416  13.419
 9480W        W81773  41.512   2.246  12.929
 9481W        W81774  25.712  13.251  14.413
 9482W        W81775  27.687  29.059   2.772
 9483W        W81776   7.773  31.065   2.846
 9484W        W81777  37.400   4.247   4.113
 9485W        W81778  20.179  18.763  11.963
 9486W        W81779   2.819  34.927   0.466
 9487W        W81780  34.980  38.396  14.848
 9488W        W81781  11.730  41.444  14.423
 9489W        W81782   4.292   8.300  12.382
 9490W        W81783  25.166  17.592   2.228
 9491W        W81784   6.212  13.283  11.966
 9492W        W81785   7.873  17.155   3.659
 9493W        W81786  14.119  22.727  12.007
 9494W        W81787  41.849  30.037  12.510
 9495W        W81788   9.744  27.505   2.873
 9496W        W81789  42.825  29.493  11.907
 9497W        W81790  33.072  21.653   1.850
 9498W        W81791  25.038  40.309   0.825
 9499W        W81792  16.804  14.688  13.802
 9500W        W81793  35.447  33.534   3.219
 9501W        W81794   4.204  39.546   0.769
 9502W        W81795  32.535   8.720   2.689
 9503W        W81796   7.303  10.166  10.466
 9504W        W81797  19.285  25.582  12.915
 9505W        W81798  25.141  21.231   1.847
 9506W        W81799  32.587   4.310  12.011
 9507W        W81800  31.007   7.853  11.063
 9508W        W81801   2.836  25.153   2.236
 9509W        W81802   0.763  31.645   4.321
 9510W        W81803  27.059  12.322   1.449
 9511W        W81804  14.190  16.786  14.928
 9512W        W81805  36.541   3.917  10.993
 9513W        W81806  36.406  14.828  12.890
 9514W        W81807   6.848  13.157  14.025
 9515W        W81808   7.707  18.275   5.154
 9516W        W81809  29.001  39.952   2.186
 9517W        W81810  18.256   3.381   1.265
 9518W        W81811  43.445  37.538  14.774
 9519W        W81812   9.203   4.276  12.029
 9520W        W81813   5.837  25.152   3.256
 9521W        W81814  12.197  29.484   2.866
 9522W        W81815   8.683  13.632   0.405
 9523W        W81816  39.554   7.747  10.592
 9524W        W81817   7.706   7.787   5.218
 9525W        W81818  38.003  34.582  14.368
 9526W        W81819  15.110  40.017   0.923
 9527W        W81820  43.933  30.145  11.472
 9528W        W81821  28.983  33.092  12.535
 9529W        W81822  26.701  33.446  12.374
 9530W        W81823   2.924  44.812  14.911
 9531W        W81824  42.392   8.810  14.470
 9532W        W81825  14.777   0.950   3.700
 9533W        W81826  14.262  42.330  11.028
 9534W        W81827  25.478  29.536   2.331
 9535W        W81828  34.870  44.449   1.235
 9536W        W81829   0.813  37.395  11.862
 9537W        W81830  36.868  34.879  13.840
 9538W        W81831  17.762   3.886   3.847
 9539W        W81832  13.665  17.099   2.203
 9540W        W81833  38.000  41.004  13.064
 9541W        W81834  38.064  21.150  13.874
 9542W        W81835  27.043   6.913  11.949
 9543W        W81836  19.638  42.445   2.386
 9544W        W81837  29.582   0.286   0.280
 9545W        W81838   3.264  14.176   2.867
 9546W        W81839  40.997  10.821   0.428
 9547W        W81840  15.126  26.087  12.340
 9548W        W81841  38.375   4.249  12.373
 9549W        W81842   3.395  13.109   1.726
 9550W        W81843   1.308  40.388  12.835
 9551W        W81844   6.836   2.263  12.394
 9552W        W81845   0.488  44.391   2.180
 9553W        W81846   8.253  42.931   1.239
 9554W        W81847   9.220   8.736   3.153
 9555W        W81848  26.061   2.850   2.873
 9556W        W81849   3.803  27.548   3.342
 9557W        W81850   0.877  44.807   0.469
 9558W        W81851  37.405  38.452   0.259
 9559W        W81852  30.927  38.063  14.987
 9560W        W81853  39.545  15.113  10.923
 9561W        W81854  18.613  22.125  13.029
 9562W        W81855  17.136  27.172   0.278
 9563W        W81856  31.455  30.156   0.416
 9564W        W81857  13.281  35.404   0.400
 9565W        W81858  14.249  19.759   1.705
 9566W        W81859  39.463   6.803  10.479
 9567W        W81860  38.031  24.033  12.510
 9568W        W81861  31.454  30.083  11.507
 9569W        W81862  24.496  43.341  10.436
 9570W        W81863   8.309  18.679  10.433
 9571W        W81864  39.908  27.050   4.720
 9572W        W81865  33.894   1.757  14.880
 9573W        W81866   3.296  29.439  13.464
 9574W        W81867  19.272  28.184   2.393
 9575W        W81868   3.279  35.916  13.991
 9576W        W81869  30.059  13.607   1.383
 9577W        W81870  23.100  32.510   2.680
 9578W        W81871  34.519  19.758   1.230
 9579W        W81872   1.376  38.488  13.863
 9580W        W81873  14.201   3.320   5.136
 9581W        W81874  33.030  10.176   2.671
 9582W        W81875   5.755  27.621   2.197
 9583W        W81876  43.845  32.451  14.920
 9584W        W81877   4.356  17.612  13.493
 9585W        W81878  23.120  28.183  11.589
 9586W        W81879  23.504  31.601   2.345
 9587W        W81880  43.791  33.419  12.538
 9588W        W81881  33.421  44.490  13.905
 9589W        W81882  32.550  26.558   4.129
 9590W        W81883   8.362   8.390  11.383
 9591W        W81884  42.325   6.691   1.918
 9592W        W81885  20.251  30.452  10.011
 9593W        W81886   9.264  10.651  11.882
 9594W        W81887   2.813  29.080  11.371
 9595W        W81888  36.946  27.179   0.904
 9596W        W81889  28.449  43.416  11.432
 9597W        W81890  18.576  31.983   3.808
 9598W        W81891  24.651  13.710  13.527
 9599W        W81892   8.359  29.021  11.997
 9600W        W81893  26.609  37.429  14.469
 9601W        W81894  27.108  23.562   4.833
 9602W        W81895  12.152  18.165   0.748
 9603W        W81896   3.828  32.626  11.100
 9604W        W81897  10.633  27.544  11.377
 9605W        W81898  20.623  36.085  11.980
 9606W        W81899  28.524  21.139  13.862
 9607W        W81900  28.934  11.192   2.801
 9608W        W81901  36.985   7.226  14.818
 9609W        W81902  37.903  30.561  13.818
 9610W        W81903  12.703  12.160  10.915
 9611W        W81904  34.110   9.745   0.450
 9612W        W81905  11.713   8.816  14.833
 9613W        W81906  34.975  37.052   0.942
 9614W        W81907  22.112  44.969   3.832
 9615W        W81908  20.103  17.077   4.598
 9616W        W81909  13.800  35.086   4.120
 9617W        W81910  43.851  11.672   2.231
 9618W        W81911  29.661  38.891  14.301
 9619W        W81912  42.388  18.726   5.287
 9620W        W81913  14.126  26.075  14.776
 9621W        W81914   0.396  14.825  11.593
 9622W        W81915  17.634  21.248  10.408
 9623W        W81916   5.777  42.325   0.793
 9624W        W81917  28.480  38.379   4.727
 9625W        W81918  15.650  28.461   2.795
 9626W        W81919   2.744  34.612  13.347
 9627W        W81920  43.919  41.526  14.780
 9628W        W81921  24.069  37.963   2.400
 9629W        W81922  34.382  20.127  13.020
 9630W        W81923  19.762  41.882   4.824
 9631W        W81924  30.164   3.458  13.488
 9632W        W81925  27.597  11.224   0.288
 9633W        W81926  39.501  16.631  13.494
 9634W        W81927  25.609  24.061  13.930
 9635W        W81928  44.492  15.815   3.771
 9636W        W81929   9.678  28.609  10.428
 9637W        W81930  13.770  31.134   1.381
 9638W        W81931  10.225  40.852   1.935
 9639W        W81932  21.142   2.801  12.080
 9640W        W81933  19.586  29.557  12.378
 9641W        W81934  28.062  14.748  12.360
 9642W        W81935  35.023  28.467   4.143
 9643W        W81936   0.445   4.890  13.972
 9644W        W81937   5.909  39.412  12.993
 9645W        W81938  19.270  38.889   2.747
 9646W        W81939   1.298  15.629   1.383
 9647W        W81940   4.931   4.757  14.320
 9648W        W81941  33.575  33.548  14.003
 9649W        W81942  38.417  18.173  14.834
 9650W        W81943  35.061  19.137   2.239
 9651W        W81944  25.703  35.382  13.980
 9652W        W81945   3.303  19.215   0.259
 9653W        W81946   6.196  34.929   9.642
 9654W        W81947  27.554  31.909   1.435
 9655W        W81948  28.165  16.695  10.037
 9656W        W81949  34.902  27.999   1.244
 9657W        W81950  37.981  35.055   1.801
 9658W        W81951  30.476   8.817  10.110
 9659W        W81952  30.154   0.819   1.825
 9660W        W81953   7.258  19.171   1.269
 9661W        W81954  20.124   6.691   2.315
 9662W        W81955   3.358   4.766  10.896
 9663W        W81956   2.769  35.102   2.746
 9664W        W81957  36.496  32.069  10.918
 9665W        W81958   8.172  27.180  11.594
 9666W        W81959  29.573  35.059   4.126
 9667W        W81960  37.505   4.815   1.916
 9668W        W81961  33.123  18.184   3.214
 9669W        W81962   2.303  17.274  11.378
 9670W        W81963  38.407   4.237  13.506
 9671W        W81964  18.218  26.981  11.396
 9672W        W81965   6.275  29.084  14.506
 9673W        W81966   6.798   1.314   0.247
 9674W        W81967  31.145   6.295  11.440
 9675W        W81968   6.349  15.712   5.295
 9676W        W81969   2.856  26.002  11.542
 9677W        W81970  24.212  29.578  11.100
 9678W        W81971  32.938   7.393   4.116
 9679W        W81972  43.330  20.113   9.487
 9680W        W81973   3.246  31.492  11.379
 9681W        W81974   7.893  37.967   4.288
 9682W        W81975  22.510  29.567  10.115
 9683W        W81976  43.809  17.218  14.909
 9684W        W81977  37.494  36.054   0.919
 9685W        W81978  41.896  21.114   4.716
 9686W        W81979  42.879   0.268  10.508
 9687W        W81980  26.553  12.699   1.899
 9688W        W81981  39.485  37.538   1.788
 9689W        W81982  38.856  15.131   3.774
 9690W        W81983  37.392  10.205   4.751
 9691W        W81984  11.212  21.607  13.378
 9692W        W81985  29.505  20.169  11.580
 9693W        W81986  30.909  33.429   1.425
 9694W        W81987   7.366  15.724   3.328
 9695W        W81988  12.142  20.678  13.393
 9696W        W81989  21.034  25.478  13.818
 9697W        W81990   1.967  12.793  14.024
 9698W        W81991  10.330  40.864  12.505
 9699W        W81992  40.874   1.910  11.403
 9700W        W81993  27.161  13.692   2.219
 9701W        W81994   4.446  26.113   3.798
 9702W        W81995  14.327   5.310  14.385
 9703W        W81996   8.316  12.769   3.830
 9704W        W81997   7.391  11.856  11.479
 9705W        W81998   9.701   6.804  14.798
 9706W        W81999  27.132   3.816  13.015
 9707W        W82000  11.719  18.132  14.387
 9708W        W82001  24.647   1.869  13.064
 9709W        W82002   7.397  34.477   3.188
 9710W        W82003  14.733  22.745   2.233
 9711W        W82004  25.697  38.937  13.494
 9712W        W82005  37.881  13.798   4.270
 9713W        W82006  34.527  24.210   3.248
 9714W        W82007  27.581  23.645   5.204
 9715W        W82008  38.431  42.940  14.981
 9716W        W82009  40.976  24.117  12.009
 9717W        W82010  22.537   2.265  10.161
 9718W        W82011  20.624  11.659   4.291
 9719W        W82012  25.986  39.838   2.361
 9720W        W82013  31.439  44.349   4.609
 9721W        W82014  36.527  43.795   3.167
 9722W        W82015  19.672  25.623   4.647
 9723W        W82016  10.664  44.376  12.055
 9724W        W82017  12.844  40.043   4.606
 9725W        W82018  36.530  40.956   2.184
 9726W        W82019  36.536  26.142   1.864
 9727W        W82020  26.696  40.978  13.330
 9728W        W82021   2.409  43.958  14.965
 9729W        W82022  40.362   2.281  13.457
 9730W        W82023   7.877   9.823  13.014
 9731W        W82024   4.207   3.954  13.975
 9732W        W82025  20.731   0.778   4.633
 9733W        W82026  23.124  27.598   1.350
 9734W        W82027  28.522  16.307  11.404
 9735W        W82028  22.095   1.285  14.022
 9736W        W82029  12.288   9.672  13.045
 9737W        W82030  41.416  42.804   9.487
 9738W        W82031   3.849  34.534  10.573
 9739W        W82032  21.140   9.653  14.913
 9740W        W82033  19.566  20.242  14.031
 9741W        W82034   3.878  33.102  12.495
 9742W        W82035  17.763  24.154   4.154
 9743W        W82036  33.408  31.444   1.718
 9744W        W82037   5.909  40.980  10.411
 9745W        W82038  40.500  22.162   4.662
 9746W        W82039  26.472   2.461  12.987
 9747W        W82040  41.929   0.823   1.321
 9748W        W82041  36.071  17.717  13.379
 9749W        W82042   1.449   2.413   3.326
 9750W        W82043  25.171  18.576  13.522
 9751W        W82044  41.887  39.395  11.883
 9752W        W82045  43.289  14.653   2.220
 9753W        W82046  12.805  22.072  12.396
 9754W        W82047   2.464  38.935   0.450
 9755W        W82048  17.703  32.090  12.946
 9756W        W82049  30.948  20.252  13.905
 9757W        W82050  27.082  16.206  14.424
 9758W        W82051   9.150  17.708  14.509
 9759W        W82052  27.076  15.190  11.529
 9760W        W82053  22.109   4.370  10.036
 9761W        W82054  17.128  33.944  13.047
 9762W        W82055  36.532  32.035   4.308
 9763W        W82056   0.334   6.271  12.383
 9764W        W82057  42.357   6.236   1.255
 9765W        W82058  43.926   3.719   1.325
 9766W        W82059   0.363   3.324   4.794
 9767W        W82060   5.860  33.964  14.481
 9768W        W82061   8.704  22.250  13.798
 9769W        W82062  33.052  41.009  11.594
 9770W        W82063   9.705   4.879  13.829
 9771W        W82064   3.817  10.294  11.548
 9772W        W82065  15.607  30.073  13.996
 9773W        W82066   6.203  26.997  10.933
 9774W        W82067  25.620  25.649  13.921
 9775W        W82068   8.261  35.444   2.733
 9776W        W82069   9.275  37.997   3.718
 9777W        W82070   3.730  29.429   0.360
 9778W        W82071  24.081  41.373  14.851
 9779W        W82072  22.708  44.956   3.156
 9780W        W82073  16.648  14.125  14.956
 9781W        W82074  25.482  14.676   2.687
 9782W        W82075   0.417   6.258  12.078
 9783W        W82076  10.341  34.064   4.183
 9784W        W82077  12.230  32.899   4.681
 9785W        W82078   6.359   5.427   0.795
 9786W        W82079  43.422  24.170  13.830
 9787W        W82080  15.212   8.707  11.959
 9788W        W82081  32.512  17.557   1.406
 9789W        W82082  34.437  20.707   3.811
 9790W        W82083  13.274  23.109   3.718
 9791W        W82084  42.404  41.819   3.358
 9792W        W82085  15.723  12.822   0.385
 9793W        W82086  29.529  25.674   1.312
 9794W        W82087   8.231   1.856   2.395
 9795W        W82088  29.033  36.046   0.462
 9796W        W82089  44.452  14.336   2.334
 9797W        W82090  31.590  32.458   0.774
 9798W        W82091   4.223  14.787  13.864
 9799W        W82092  20.081  28.490   2.828
 9800W        W82093   3.442   5.423   2.899
 9801W        W82094  25.551  17.755   0.768
 9802W        W82095  29.651  21.233   1.915
 9803W        W82096  25.565  41.789  13.445
 9804W        W82097  13.683   0.949  11.922
 9805W        W82098  29.553   7.674  12.439
 9806W        W82099  39.484   7.216   0.277
 9807W        W82100  43.476  36.560  13.537
 9808W        W82101  27.597   9.644   1.344
 9809W        W82102  13.257  36.859   0.355
 9810W        W82103  43.906   0.976   5.233
 9811W        W82104  38.070  28.147  14.919
 9812W        W82105   3.780   1.798  11.949
 9813W        W82106  11.844  12.631  11.374
 9814W        W82107  31.465  27.164  10.455
 9815W        W82108   9.873  24.068   1.854
 9816W        W82109  34.494   5.396   0.357
 9817W        W82110  23.619   1.831   2.321
 9818W        W82111  40.467  10.359   3.806
 9819W        W82112  24.192  36.420   0.443
 9820W        W82113  18.131   6.922   3.658
 9821W        W82114   6.779  33.878   1.927
 9822W        W82115  29.121  23.590   3.832
 9823W        W82116   4.416  35.475   0.296
 9824W        W82117  15.105  32.119  14.848
 9825W        W82118   5.420  22.531   1.908
 9826W        W82119  33.482  43.837   3.696
 9827W        W82120  44.270  34.389   4.696
 9828W        W82121   9.662  27.976  13.841
 9829W        W82122  24.579  19.623   2.316
 9830W        W82123  33.991  31.464   0.445
 9831W        W82124  31.459  25.683   3.800
 9832W        W82125  37.062  12.240   0.351
 9833W        W82126  42.788  41.827  12.352
 9834W        W82127   6.415   1.875   9.976
 9835W        W82128   0.895  34.080  13.856
 9836W        W82129  28.498  24.206   4.307
 9837W        W82130  18.290  15.684  10.956
 9838W        W82131  24.101  43.807  11.000
 9839W        W82132  14.246  21.646  11.112
 9840W        W82133  42.310   5.283   3.767
 9841W        W82134  41.356  13.250  13.328
 9842W        W82135  10.374  35.070   1.816
 9843W        W82136  13.601   7.264  11.920
 9844W        W82137   7.863  15.275  10.993
 9845W        W82138  31.974   7.363  10.538
 9846W        W82139  37.383   7.397  10.905
 9847W        W82140   8.355   0.973  12.579
 9848W        W82141   2.369  11.300  10.952
 9849W        W82142  44.948  33.066  12.462
 9850W        W82143  18.194   7.810  13.057
 9851W        W82144  25.543  24.595   0.342
 9852W        W82145   5.696  39.538  11.078
 9853W        W82146   4.352   8.824  14.367
 9854W        W82147   7.681   8.208  12.891
 9855W        W82148  41.465   6.819   3.724
 9856W        W82149  15.130  40.025  11.055
 9857W        W82150  21.688  22.670   3.192
 9858W        W82151   1.477  30.070   4.202
 9859W        W82152  41.511  30.969  12.511
 9860W        W82153  41.835  37.062   3.344
 9861W        W82154  24.098  17.666  10.440
 9862W        W82155  36.945   8.856  13.058
 9863W        W82156   8.313  15.615  12.986
 9864W        W82157  20.136  14.617  14.342
 9865W        W82158  39.966  38.533   2.888
 9866W        W82159  22.630  43.000   3.259
 9867W        W82160  20.161  41.437  12.450
 9868W        W82161  40.918  37.836   4.788
 9869W        W82162  40.041  14.120  14.824
 9870W        W82163  41.925  40.469   2.255
 9871W        W82164  38.016  31.071   4.699
 9872W        W82165  35.892  36.987  12.507
 9873W        W82166   9.849  36.386  10.114
 9874W        W82167  11.710  31.929   3.802
 9875W        W82168  22.135  16.791  10.546
 9876W        W82169  34.413  12.194  10.613
 9877W        W82170  29.626  40.798   3.283
 9878W        W82171  39.400  20.597   4.801
 9879W        W82172  17.123  35.867  11.100
 9880W        W82173  18.251   7.334   3.332
 9881W        W82174  34.938  11.127   2.893
 9882W        W82175  13.202  20.732   2.899
 9883W        W82176  36.423  15.766  12.948
 9884W        W82177  20.571   6.192   3.789
 9885W        W82178  42.886  29.548   5.168
 9886W        W82179  37.839   5.263   1.286
 9887W        W82180  25.494  43.776  10.911
 9888W        W82181  15.162   2.237   2.260
 9889W        W82182   9.852  23.550  12.429
 9890W        W82183  21.238  27.168  11.444
 9891W        W82184   0.929  25.656  12.388
 9892W        W82185  36.998  24.573  13.339
 9893W        W82186   4.362  12.178  13.536
 9894W        W82187   0.880  23.642   1.709
 9895W        W82188  12.725   7.862   1.887
 9896W        W82189  26.467  18.560  13.415
 9897W        W82190  22.237  27.974   2.784
 9898W        W82191  13.724  37.054  10.562
 9899W        W82192  27.063  18.671  13.044
 9900W        W82193  19.096  30.036   3.857
 9901W        W82194   8.373  15.583  13.325
 9902W        W82195  20.632  33.070   2.830
 9903W        W82196  30.051  23.120   4.126
 9904W        W82197  37.579  13.606  10.523
 9905W        W82198  12.792  11.300   1.740
 9906W        W82199  20.090  39.042  11.953
 9907W        W82200  14.736  20.231  13.886
 9908W        W82201  42.997  32.954  11.574
 9909W        W82202  42.459  19.116   2.341
 9910W        W82203  31.618  36.364   3.301
 9911W        W82204  33.079  40.815  14.815
 9912W        W82205  16.791  16.240  10.433
 9913W        W82206  32.552   5.747   1.859
 9914W        W82207  34.578  31.498   0.733
 9915W        W82208  27.050  28.181   4.297
 9916W        W82209  21.091   0.268   1.821
 9917W        W82210  28.952  33.389  12.994
 9918W        W82211   1.389  20.118  10.904
 9919W        W82212  21.179  30.033  11.022
 9920W        W82213  24.004  22.693   3.271
 9921W        W82214  11.267  16.077   3.803
 9922W        W82215  18.096  41.838   2.741
 9923W        W82216  32.625  23.717  11.000
 9924W        W82217  37.565  27.944   2.361
 9925W        W82218  11.837  37.996   2.360
 9926W        W82219  26.643  19.549   9.980
 9927W        W82220  38.461  20.588   4.749
 9928W        W82221   1.922  12.676  11.603
 9929W        W82222  40.491  41.490   3.799
 9930W        W82223  30.155   4.323  12.367
 9931W        W82224  37.881   5.272   1.779
 9932W        W82225  39.874   3.881   1.414
 9933W        W82226   5.193  10.147  14.950
 9934W        W82227   1.355  37.581   4.275
 9935W        W82228   9.216  14.667  11.856
 9936W        W82229  10.642   9.234   4.727
 9937W        W82230   5.346   2.807   0.945
 9938W        W82231  35.012  29.600  14.457
 9939W        W82232  28.083  30.048  13.038
 9940W        W82233  24.551  33.986  10.504
 9941W        W82234  16.152  25.171  10.632
 9942W        W82235   5.310  15.757   0.324
 9943W        W82236  13.271   3.832   3.332
 9944W        W82237  28.601  32.456   1.773
 9945W        W82238  17.565  12.739  13.379
 9946W        W82239   4.698  30.475  12.877
 9947W        W82240   1.887  33.061  14.403
 9948W        W82241  39.545  36.464  13.396
 9949W        W82242   0.316  37.336   5.287
 9950W        W82243  21.586  30.489  13.010
 9951W        W82244   6.704  26.661   2.746
 9952W        W82245  11.792   6.316   0.847
 9953W        W82246  12.134   7.324   4.702
 9954W        W82247  14.204  21.517   1.697
 9955W        W82248  20.758  22.734  10.542
 9956W        W82249   0.296   9.258   2.881
 9957W        W82250  16.121   4.784   4.220
 9958W        W82251  26.516  41.339   4.335
 9959W        W82252  26.173  37.960  12.077
 9960W        W82253  37.931  16.128   3.164
 9961W        W82254  38.872   2.790  11.587
 9962W        W82255   8.363  15.164   4.717
 9963W        W82256  42.410  31.920   0.369
 9964W        W82257  10.243   8.358   3.218
 9965W        W82258  40.876   0.949   0.847
 9966W        W82259  24.009  17.627   1.767
 9967W        W82260  25.062  19.104  13.951
 9968W        W82261  11.830  43.874  11.082
 9969W        W82262  19.706  10.736  13.406
 9970W        W82263  26.184  43.994   1.836
 9971W        W82264  31.934   8.301   4.149
 9972W        W82265  40.982  10.726   2.408
 9973W        W82266  39.539  18.097  11.392
 9974W        W82267  26.615   8.760   3.699
 9975W        W82268  18.143  23.201  12.481
 9976W        W82269  41.023  38.844  11.916
 9977W        W82270  16.236  30.155   4.188
 9978W        W82271  40.839  30.946   1.275
 9979W        W82272  36.535  32.397   3.840
 9980W        W82273  26.577   8.179   4.665
 9981W        W82274   9.813  13.841  12.564
 9982W        W82275  34.443  30.534   4.763
 9983W        W82276  26.087  13.739  11.429
 9984W        W82277  32.119  22.052   3.314
 9985W        W82278  23.035  40.854   1.288
 9986W        W82279  25.666  11.764  13.523
 9987W        W82280   4.273  41.316   1.379
 9988W        W82281  23.518   0.444  13.422
 9989W        W82282   9.379  22.680  11.526
 9990W        W82283  35.040  30.951  11.441
 9991W        W82284  24.530  31.926  10.460
 9992W        W82285  15.606  26.521   1.889
 9993W        W82286  41.956  20.555  13.000
 9994W        W82287  31.562   6.891  12.831
 9995W        W82288  44.868  12.674   3.830
 9996W        W82289   6.738  43.919   2.304
 9997W        W82290  22.087   9.744   3.728
 9998W        W82291  12.612  10.208   1.396
 9999W        W82292  20.556  30.093  14.790
10000W        W82293   8.262  35.504  12.886
10001W        W82294   5.356  24.053   3.279
10002W        W82295   9.691  28.042  12.560
10003W        W82296  26.995  22.664   0.843
10004W        W82297  14.332  24.107  11.865
10005W        W82298  24.050  23.057  14.904
10006W        W82299  12.680  24.090  12.030
10007W        W82300  12.625  13.261  14.912
10008W        W82301  25.564   7.788   0.301
10009W        W82302  37.463  32.442   1.769
10010W        W82303  16.306  14.761   0.286
10011W        W82304  26.157  43.943   0.864
10012W        W82305  38.833   2.870   1.762
10013W        W82306  19.133  23.198   3.851
10014W        W82307  15.158  37.857  10.555
10015W        W82308   3.234  13.237   0.344
10016W        W82309  22.685  15.781   0.798
10017W        W82310   2.795   1.770  14.969
10018W        W82311  24.030  15.712  13.870
10019W        W82312  20.613   0.374   0.849
10020W        W82313  15.661  39.876   4.136
10021W        W82314  13.744  37.054  12.564
10022W        W82315  12.824  42.522  11.986
10023W        W82316  22.719  23.158   2.852
10024W        W82317  25.101  42.437  14.861
10025W        W82318   3.396  18.640   4.814
10026W        W82319  15.112   7.858   0.350
10027W        W82320  15.215  38.979   2.225
10028W        W82321   2.328  22.240  10.928
10029W        W82322  15.593  32.436  10.981
10030W        W82323  19.149  36.954  13.947
10031W        W82324  27.130  12.741   0.249
10032W        W82325  23.994  35.089   5.216
10033W        W82326   9.675  37.501  12.832
10034W        W82327  42.497  16.658   9.556
10035W        W82328   3.345  17.281  11.398
10036W        W82329  17.228  14.147  14.304
10037W        W82330  38.387  18.270   4.179
10038W        W82331  33.999  37.555  11.966
10039W        W82332  27.532  13.667  13.412
10040W        W82333  17.259  31.106  12.368
10041W        W82334  34.515  17.582   3.645
10042W        W82335  13.841   2.336  10.534
10043W        W82336  40.399   1.388  13.357
10044W        W82337  35.581   2.237   4.673
10045W        W82338  27.516  40.973   3.770
10046W        W82339   8.773  18.638   2.256
10047W        W82340  37.839  26.954  10.621
10048W        W82341  33.961  36.456   1.715
10049W        W82342  14.111  24.021   2.811
10050W        W82343  41.955  37.479   4.209
10051W        W82344   2.261  22.135  13.321
10052W        W82345   4.873   1.737  11.934
10053W        W82346  35.490  34.118   1.394
10054W        W82347  37.355   5.332  12.528
10055W        W82348  41.030  17.696   9.576
10056W        W82349  33.064  42.016   4.636
10057W        W82350  20.227  13.837   0.302
10058W        W82351  14.271  35.098  11.601
10059W        W82352  35.375  35.561   3.283
10060W        W82353  37.411  24.183   2.822
10061W        W82354  44.356  31.536  13.480
10062W        W82355  36.860  28.584   0.305
10063W        W82356  10.212   0.807  11.533
10064W        W82357  40.821  40.897  12.897
10065W        W82358  38.352  43.857   0.803
10066W        W82359  36.968  35.464  14.991
10067W        W82360   3.780  25.062  11.552
10068W        W82361  28.667  33.589  11.034
10069W        W82362  15.589  27.645  10.052
10070W        W82363  12.646   9.715  14.515
10071W        W82364   1.837  34.421   4.697
10072W        W82365  30.000  20.532  10.569
10073W        W82366  32.617   9.285  10.936
10074W        W82367  34.443  11.758  10.645
10075W        W82368  17.276  27.182   3.320
10076W        W82369  38.975  27.179  11.540
10077W        W82370   0.940  21.610  13.047
10078W        W82371  21.164   6.285  13.852
10079W        W82372  23.053   6.851  13.862
10080W        W82373  17.636  37.871  12.949
10081W        W82374  28.941  21.736  11.609
10082W        W82375  36.572  28.549   2.331
10083W        W82376  39.934  31.936   4.279
10084W        W82377  38.968  41.530   3.161
10085W        W82378  44.006  26.638   1.261
10086W        W82379  21.601  29.484  12.991
10087W        W82380  40.925  43.336   2.338
10088W        W82381   9.355  31.936  10.634
10089W        W82382  22.082  32.443  11.074
10090W        W82383  11.621  12.290  11.591
10091W        W82384  12.148  37.087   3.713
10092W        W82385  32.012  20.160  13.949
10093W        W82386  40.963  31.485   0.249
10094W        W82387  34.453  19.282  14.962
10095W        W82388   0.879  27.131   1.734
10096W        W82389  38.821  41.912   1.428
10097W        W82390  26.579  40.975  12.404
10098W        W82391  21.670  31.574  14.929
10099W        W82392  12.846  32.012  12.462
10100W        W82393  39.865   0.982  12.893
10101W        W82394  19.198  14.104  13.984
10102W        W82395  12.123  10.335   0.402
10103W        W82396  37.930  41.861   4.326
10104W        W82397  44.311   0.294  10.564
10105W        W82398  36.557  23.661  11.920
10106W        W82399  17.693   4.903  13.309
10107W        W82400  22.150  27.071  14.947
10108W        W82401   1.820  10.170   3.664
10109W        W82402  28.574  29.094  13.827
10110W        W82403  24.129  29.491   0.856
10111W        W82404  29.053  29.166  14.377
10112W        W82405  29.042  33.886   1.408
10113W        W82406  12.179  25.206  11.458
10114W        W82407  20.265  15.646   5.185
10115W        W82408  34.892   7.764  13.921
10116W        W82409  32.918   4.279  11.021
10117W        W82410  22.229  29.106   0.742
10118W        W82411  10.835  11.740  12.962
10119W        W82412  32.494  14.765  11.085
10120W        W82413  44.378  25.607  14.834
10121W        W82414   9.200  25.500  11.577
10122W        W82415  15.714   4.768  14.882
10123W        W82416  31.910  13.254  11.074
10124W        W82417  39.922   4.264   4.808
10125W        W82418   4.402  36.454  10.980
10126W        W82419  23.641   7.870   0.908
10127W        W82420  17.666   6.743  10.938
10128W        W82421  44.491  10.697   1.295
10129W        W82422  23.513  44.886  10.557
10130W        W82423  41.316  26.531  11.126
10131W        W82424  43.294   6.685   1.866
10132W        W82425  38.053   4.859  14.430
10133W        W82426  33.915   8.252  11.494
10134W        W82427  41.432  36.893  14.274
10135W        W82428  17.061  17.603   0.794
10136W        W82429  17.258   4.735   5.303
10137W        W82430   5.195  34.877   0.732
10138W        W82431  20.598  26.148  14.400
10139W        W82432  42.005  40.985   3.363
10140W        W82433  12.808  40.820   0.820
10141W        W82434  16.619  25.072  10.930
10142W        W82435  12.218  23.191  12.424
10143W        W82436  40.825  20.648   3.718
10144W        W82437  43.830   4.433   2.285
10145W        W82438   9.777  43.986  13.859
10146W        W82439  19.049  14.215  10.931
10147W        W82440  20.629   5.332  12.060
10148W        W82441   2.869  30.126   3.319
10149W        W82442  18.089  29.019   0.363
10150W        W82443  29.449  23.196   4.686
10151W        W82444  15.261  11.678   4.666
10152W        W82445   9.854   6.812   3.236
10153W        W82446  30.636  14.320  13.808
10154W        W82447   1.423   3.337  11.883
10155W        W82448  40.539   9.298  10.465
10156W        W82449   4.829  27.101   1.294
10157W        W82450  32.550  10.148  13.905
10158W        W82451  23.023  25.164  12.579
10159W        W82452   1.895  11.371   1.831
10160W        W82453  28.656  26.529   2.327
10161W        W82454  28.968  39.317  14.431
10162W        W82455  25.029  13.328  13.959
10163W        W82456  16.726  37.402  10.484
10164W        W82457  14.304  21.583   0.950
10165W        W82458  12.358  37.837  13.365
10166W        W82459  11.705  19.702   1.380
10167W        W82460   8.363   9.394   2.346
10168W        W82461  38.529  13.624   0.348
10169W        W82462   9.167  39.426   0.411
10170W        W82463  39.480  31.586  14.352
10171W        W82464  11.209  34.574  11.413
10172W        W82465  20.178  14.722   2.212
10173W        W82466  41.292  35.994   3.377
10174W        W82467  26.483  31.556  14.022
10175W        W82468  24.190  11.810  10.127
10176W        W82469  32.422  12.355   4.737
10177W        W82470  19.581  36.873   4.156
10178W        W82471   0.346  29.517   0.325
10179W        W82472   4.765  27.940   5.154
10180W        W82473  43.329  16.655   1.403
10181W        W82474  36.387  17.121   0.737
10182W        W82475   0.318   4.268  14.808
10183W        W82476  35.364  32.593  14.348
10184W        W82477  13.178  32.903   4.631
10185W        W82478   3.383  20.638   0.931
10186W        W82479  39.401  28.066   2.178
10187W        W82480  23.535  37.044  11.412
10188W        W82481  41.292   0.905   4.610
10189W        W82482   3.818  21.102   1.828
10190W        W82483  34.106   0.939   1.429
10191W        W82484  25.614  44.979   1.433
10192W        W82485  39.053  18.641   3.749
10193W        W82486  40.022   8.841   3.825
10194W        W82487  40.463  43.303   0.957
10195W        W82488  23.043  16.806  14.813
10196W        W82489  29.161  27.000   1.810
10197W        W82490  30.924   0.283  14.828
10198W        W82491   0.904   4.320  13.341
10199W        W82492  28.551  22.167   1.354
10200W        W82493  43.950  27.093   4.224
10201W        W82494   4.330   5.827  12.915
10202W        W82495  39.362   5.781  12.384
10203W        W82496  17.177  25.607  14.000
10204W        W82497  35.926  23.690  11.858
10205W        W82498  38.386  30.419   3.196
10206W        W82499   8.772  16.276   2.812
10207W        W82500  24.188  38.538   1.849
10208W        W82501  11.826   0.806  11.594
10209W        W82502  21.174  40.513   4.343
10210W        W82503  25.169  19.645   2.861
10211W        W82504  29.107   6.316   2.690
10212W        W82505  36.060  18.086  10.942
10213W        W82506  30.615   4.867   1.894
10214W        W82507  36.045  44.936  13.891
10215W        W82508  26.476   2.340   1.883
10216W        W82509  27.677  11.638  13.988
10217W        W82510  41.531  23.684   4.643
10218W        W82511  16.206  10.297  12.909
10219W        W82512  44.990  21.645   4.166
10220W        W82513   9.874  25.631  12.924
10221W        W82514  17.789  27.534   2.220
10222W        W82515  12.139  42.312   2.195
10223W        W82516  35.560  32.100  12.868
10224W        W82517  30.071   6.734   3.769
10225W        W82518   6.251  32.945   4.187
10226W        W82519  39.889  29.631   3.637
10227W        W82520  27.187  25.583  12.020
10228W        W82521   4.292   3.231  14.971
10229W        W82522  25.693   7.851   3.382
10230W        W82523  10.336  41.351   0.421
10231W        W82524  25.141  32.124  10.579
10232W        W82525  28.978  20.070  12.432
10233W        W82526  11.168  18.156   3.802
10234W        W82527  39.890  35.038   3.799
10235W        W82528  38.021   4.768   1.214
10236W        W82529   6.894  37.418  11.546
10237W        W82530  40.487  42.502  10.914
10238W        W82531  16.190   3.912   3.309
10239W        W82532  26.078  28.634  11.988
10240W        W82533  15.727  35.567  14.798
10241W        W82534  13.248   0.758  14.507
10242W        W82535  15.701  30.910   0.884
10243W        W82536  39.516  29.950   4.207
10244W        W82537  11.690  31.916   1.720
10245W        W82538  43.270  17.716   1.923
10246W        W82539  22.538  18.754   0.404
10247W        W82540  21.185  36.083   4.219
10248W        W82541   3.356  20.108   4.118
10249W        W82542  27.531  32.475  14.811
10250W        W82543   6.188  37.574   0.293
10251W        W82544  19.692  32.635  12.035
10252W        W82545  14.695  25.684   4.193
10253W        W82546  19.681  16.295   3.346
10254W        W82547  12.659  44.965   4.146
10255W        W82548   8.678  43.994  12.403
10256W        W82549  39.512   3.410   5.122
10257W        W82550   5.203  23.144  14.310
10258W        W82551   6.230  33.048   2.389
10259W        W82552  25.105  32.544   2.371
10260W        W82553  29.626  43.402  14.384
10261W        W82554  42.286   9.786   2.777
10262W        W82555   7.268   2.745   0.353
10263W        W82556  24.573  17.219  13.403
10264W        W82557  14.203  44.771  10.499
10265W        W82558  34.376   6.363  12.516
10266W        W82559   4.355  23.200   0.473
10267W        W82560   8.213  28.659  12.027
10268W        W82561  24.158  15.799  10.435
10269W        W82562   5.217  20.169  11.988
10270W        W82563   6.705  17.596   1.325
10271W        W82564  43.904  41.467  10.509
10272W        W82565   5.296  36.556  11.465
10273W        W82566  20.043   8.683   3.634
10274W        W82567  32.980  23.228   1.873
10275W        W82568  20.609  12.704  14.847
10276W        W82569  41.403   5.883   2.882
10277W        W82570  36.428  28.669   1.741
10278W        W82571  12.682  21.041   2.843
10279W        W82572   7.191  44.918   3.817
10280W        W82573   8.195  19.040  13.977
10281W        W82574  23.541  24.526   1.850
10282W        W82575  13.345  11.633   4.293
10283W        W82576  41.934  24.663   2.366
10284W        W82577  17.163  41.328  13.388
10285W        W82578  39.535  25.018   2.414
10286W        W82579  39.471  26.695  13.354
10287W        W82580  10.805  15.310   4.718
10288W        W82581  34.065   3.292  13.483
10289W        W82582  43.428  25.492  11.971
10290W        W82583  34.543  34.934   1.371
10291W        W82584  22.672  21.703  10.040
10292W        W82585   7.218  40.525  12.580
10293W        W82586  41.483   1.400   2.732
10294W        W82587  43.943   9.292  11.891
10295W        W82588   5.380  42.327   2.269
10296W        W82589   2.858   5.439  13.409
10297W        W82590  18.567  11.361  10.907
10298W        W82591  10.141  15.103   3.809
10299W        W82592  13.154  15.728   5.214
10300W        W82593  34.928   9.790  11.462
10301W        W82594  27.124  44.960   2.815
10302W        W82595  32.072  22.618   0.341
10303W        W82596  26.996  14.108  12.830
10304W        W82597  43.882  35.939  10.560
10305W        W82598  14.734  42.367   3.751
10306W        W82599  31.125  20.168   2.344
10307W        W82600  23.139  12.761   1.261
10308W        W82601  25.503  27.107   3.772
10309W        W82602  16.283  12.774  14.422
10310W        W82603   7.889  26.638  11.569
10311W        W82604  32.062  11.676  13.353
10312W        W82605  14.797  40.532  14.937
10313W        W82606  30.952   1.321  11.952
10314W        W82607  44.374  23.623   4.168
10315W        W82608   8.858  32.442   1.738
10316W        W82609  37.008  23.133  13.049
10317W        W82610   5.860  37.564   1.899
10318W        W82611  23.732  20.585  10.903
10319W        W82612  20.611  10.797   2.299
10320W        W82613  42.817  20.222   2.280
10321W        W82614  15.131  37.337  13.012
10322W        W82615  30.132  16.317  10.616
10323W        W82616   4.789  18.646   4.352
10324W        W82617  40.427  38.529  10.894
10325W        W82618  25.111  16.617   4.732
10326W        W82619  30.993   0.279   2.682
10327W        W82620   8.768  43.277  13.814
10328W        W82621  13.749  18.216  10.622
10329W        W82622  42.826  15.644  14.435
10330W        W82623  41.917   1.913   2.399
10331W        W82624   5.713  25.999   4.324
10332W        W82625  19.566  12.813  13.055
10333W        W82626  33.488  29.571   2.707
10334W        W82627  19.715  34.887   4.270
10335W        W82628  40.435  39.830   0.383
10336W        W82629   8.334  41.025  13.029
10337W        W82630  44.432  27.027  14.001
10338W        W82631  26.677  15.805  10.031
10339W        W82632  43.467  25.566  13.042
10340W        W82633  38.002  40.464   1.360
10341W        W82634  11.347   2.733   0.470
10342W        W82635  34.385  31.597  11.408
10343W        W82636  19.232  40.306  11.883
10344W        W82637  21.253   0.901  10.523
10345W        W82638  21.262   5.409  13.505
10346W        W82639  43.994   9.702   3.779
10347W        W82640  26.672  20.219  12.470
10348W        W82641   0.771  43.963   3.347
10349W        W82642  41.789   0.938   3.221
10350W        W82643  44.464  31.423  10.531
10351W        W82644  13.271  12.743   2.387
10352W        W82645  31.105  28.643   1.883
10353W        W82646  11.744   4.812  13.360
10354W        W82647  28.070   5.819  10.625
10355W        W82648  28.176  40.852  10.982
10356W        W82649  35.959   1.243  11.882
10357W        W82650  11.324  41.460   3.708
10358W        W82651  27.988  26.078  12.415
10359W        W82652   4.835  40.352  12.831
10360W        W82653   6.777  43.905  13.393
10361W        W82654  14.647  41.408   0.289
10362W        W82655  40.355  15.149   2.825
10363W        W82656  37.858   6.298  10.499
10364W        W82657  41.320   0.366   9.442
10365W        W82658  20.736   0.907  13.818
10366W        W82659  41.999  16.651  12.848
10367W        W82660   9.335  29.122  14.019
10368W        W82661  10.166  40.337   4.641
10369W        W82662  24.103   5.793  11.596
10370W        W82663  23.002  14.730  13.924
10371W        W82664  17.252  17.291   1.856
10372W        W82665  39.055  36.524   3.643
10373W        W82666  41.926   3.767  14.982
10374W        W82667  39.951   5.696  13.026
10375W        W82668  32.095  31.961   2.199
10376W        W82669  11.346  31.009  14.286
10377W        W82670  34.506  14.747  14.457
10378W        W82671  18.233   9.333   4.681
10379W        W82672  36.515   4.819   0.797
10380W        W82673  29.533  34.575   1.769
10381W        W82674  34.055  44.359   3.298
10382W        W82675  42.380   8.251   4.835
10383W        W82676   1.314  20.152   3.276
10384W        W82677   5.932  26.583  10.996
10385W        W82678   5.361  25.210   0.793
10386W        W82679  17.100  37.563  13.421
10387W        W82680  19.775  14.289   3.676
10388W        W82681  29.580  22.662  11.488
10389W        W82682  26.515  22.668  14.971
10390W        W82683  11.175   2.761  13.446
10391W        W82684  41.995  17.682   1.795
10392W        W82685  13.798  26.089  13.445
10393W        W82686   8.203   4.321  10.515
10394W        W82687  41.348  15.240  11.389
10395W        W82688  42.889  31.637  13.420
10396W        W82689   4.860  37.547  14.458
10397W        W82690  24.167  41.412  14.322
10398W        W82691   8.814  26.956  12.474
10399W        W82692  22.014  13.266  11.046
10400W        W82693   0.296   9.809   1.436
10401W        W82694  41.804  18.153   3.296
10402W        W82695  10.798  13.782   1.882
10403W        W82696  12.648  15.253   3.753
10404W        W82697  40.444  25.156   2.820
10405W        W82698  31.057   1.334  14.766
10406W        W82699  19.664   3.767  12.911
10407W        W82700  19.660  31.597  12.574
10408W        W82701   5.327  23.184  13.896
10409W        W82702   3.713  41.896   0.285
10410W        W82703  16.106   1.412  11.115
10411W        W82704  19.234  37.448  12.075
10412W        W82705   4.848  17.560   1.773
10413W        W82706  44.425   7.319   3.190
10414W        W82707  32.464  23.494   0.471
10415W        W82708  41.846  23.655  12.895
10416W        W82709  36.393  28.513   0.266
10417W        W82710  40.016  41.036  13.412
10418W        W82711  29.966   1.954  10.549
10419W        W82712  22.594  23.590   1.741
10420W        W82713  35.043  35.102   3.720
10421W        W82714   5.879  24.717   0.345
10422W        W82715  28.018  33.016  14.367
10423W        W82716  42.427  22.631  14.484
10424W        W82717  12.266  40.034   3.373
10425W        W82718  21.054  15.742  10.405
10426W        W82719  21.745  41.517  13.882
10427W        W82720   1.239  30.519   0.422
10428W        W82721   4.717  18.788   1.305
10429W        W82722  16.181  29.070   1.332
10430W        W82723  26.638   3.859  10.962
10431W        W82724  27.613  11.174  12.854
10432W        W82725   6.258  25.112  12.441
10433W        W82726  25.179  39.432   1.827
10434W        W82727   4.410  12.292  12.990
10435W        W82728  41.955   8.361  14.288
10436W        W82729  15.233  22.626   1.243
10437W        W82730  23.515   7.807   1.911
10438W        W82731  36.429  22.140   0.758
10439W        W82732  16.794  31.407  14.469
10440W        W82733  12.716  43.288   0.866
10441W        W82734   7.383   4.391  14.374
10442W        W82735  35.033  21.072  10.981
10443W        W82736  22.248   9.340   0.912
10444W        W82737  28.935  32.059   3.219
10445W        W82738  23.681  40.545  11.510
10446W        W82739   4.849  31.058  13.042
10447W        W82740  33.959  35.041  10.569
10448W        W82741  41.477  21.611  10.945
10449W        W82742   8.177   0.839  11.947
10450W        W82743  37.881  29.973   1.365
10451W        W82744  32.933  32.931  14.287
10452W        W82745  31.644  28.648  14.029
10453W        W82746  39.952  39.395  11.894
10454W        W82747   4.908  11.733   3.706
10455W        W82748  20.602   3.735   1.217
10456W        W82749   6.197  40.999   0.389
10457W        W82750  44.821  36.362   2.214
10458W        W82751  43.512   0.796  12.339
10459W        W82752  14.778  28.453  13.517
10460W        W82753  24.003   0.483   0.305
10461W        W82754  31.936  14.641   2.308
10462W        W82755  27.000  31.648  11.000
10463W        W82756  40.467  36.857  12.878
10464W        W82757   6.744  43.273  11.110
10465W        W82758   2.430  42.960   4.222
10466W        W82759  43.383   7.795   1.443
10467W        W82760  32.048  39.353   4.178
10468W        W82761  43.832  38.536   4.684
10469W        W82762  37.975   5.389  12.877
10470W        W82763  43.799  11.754  13.869
10471W        W82764  32.429   4.742  10.964
10472W        W82765  20.607  17.768   2.742
10473W        W82766   1.466   7.307   3.711
10474W        W82767  20.768  36.050  11.424
10475W        W82768  14.288  25.660  13.797
10476W        W82769   2.956  40.459   4.631
10477W        W82770  19.774   6.181  13.454
10478W        W82771   9.716   1.741   3.333
10479W        W82772  28.504  14.776   1.239
10480W        W82773  18.220  22.121   1.801
10481W        W82774  29.064  22.234  14.944
10482W        W82775  43.995  18.662   0.745
10483W        W82776  20.258  37.413  14.504
10484W        W82777  29.602  31.022   2.862
10485W        W82778  27.147  31.929   0.880
10486W        W82779  43.863  20.657   4.312
10487W        W82780  17.198  17.129   4.187
10488W        W82781  43.975  15.782   0.968
10489W        W82782  29.651   7.685   1.882
10490W        W82783  12.786   5.851  11.080
10491W        W82784   3.230  22.224  14.499
10492W        W82785   9.807   3.714   1.715
10493W        W82786  35.580  40.390   1.322
10494W        W82787  20.722  23.094   3.185
10495W        W82788  27.618  40.027  11.430
10496W        W82789  14.295  34.002  14.931
10497W        W82790  16.094  44.338   2.778
10498W        W82791  37.907   4.854   4.199
10499W        W82792   3.812  14.307   0.481
10500W        W82793  25.594  10.797  10.568
10501W        W82794  38.827  16.113  12.831
10502W        W82795  16.281  10.854  11.486
10503W        W82796  12.624  37.415   0.912
10504W        W82797   9.741   7.889  13.994
10505W        W82798  33.045  35.468  10.491
10506W        W82799  19.166  15.750  11.422
10507W        W82800  31.131   1.756   1.731
10508W        W82801  20.037  13.727   1.908
10509W        W82802  22.071  38.879  11.605
10510W        W82803  32.461  28.931  10.576
10511W        W82804  19.189   2.747   3.238
10512W        W82805  41.990   9.230  12.369
10513W        W82806  35.389  41.915  13.360
10514W        W82807   9.170  12.265  12.897
10515W        W82808  20.163  17.091   1.340
10516W        W82809   7.280  44.872  14.858
10517W        W82810  16.799  31.020  10.907
10518W        W82811  43.015  11.860  14.963
10519W        W82812  30.617  35.014  11.073
10520W        W82813  17.580   3.818   4.303
10521W        W82814  20.241   5.409  14.295
10522W        W82815   2.794  25.661  12.906
10523W        W82816   8.266  15.736   1.299
10524W        W82817   3.782  26.148  12.925
10525W        W82818  30.429  40.401  14.441
10526W        W82819  13.193   4.908  13.820
10527W        W82820  27.139  23.175  14.341
10528W        W82821  25.469  15.578  13.317
10529W        W82822  37.964   6.895   1.335
10530W        W82823  25.469  13.813   1.935
10531W        W82824  34.986  32.138  11.087
10532W        W82825  11.677   7.399   3.256
10533W        W82826   4.388   7.205   3.669
10534W        W82827  18.564  21.164  11.860
10535W        W82828  41.909  24.159  14.024
10536W        W82829  20.158   8.167   0.913
10537W        W82830  13.750   6.897  13.435
10538W        W82831  27.084  12.209  11.373
10539W        W82832  24.981  39.334  14.316
10540W        W82833  25.668   4.367   2.707
10541W        W82834  13.321   3.810  11.983
10542W        W82835  29.430  39.349  13.489
10543W        W82836  20.528  13.749  11.935
10544W        W82837   8.688  16.312  14.442
10545W        W82838   7.735  38.412  12.390
10546W        W82839  14.317  44.836  14.293
10547W        W82840  19.678  27.488  10.634
10548W        W82841  21.152  20.722   3.331
10549W        W82842   6.369  26.016  12.048
10550W        W82843  33.978   0.854   0.412
10551W        W82844  26.046  29.956   2.676
10552W        W82845  29.153  11.155  14.512
10553W        W82846  34.509   4.788  12.975
10554W        W82847  44.850  27.153   1.422
10555W        W82848  36.373   1.437  13.544
10556W        W82849  40.470  44.922   4.817
10557W        W82850   4.841  16.202  12.921
10558W        W82851  36.536  35.449   1.326
10559W        W82852  18.063  16.641  10.587
10560W        W82853  26.049   5.288   1.842
10561W        W82854  18.112  15.099   4.646
10562W        W82855   8.864   0.409  14.959
10563W        W82856  18.714  13.181  12.416
10564W        W82857  41.512   8.791  14.890
10565W        W82858  20.110  34.094   3.182
10566W        W82859  27.070   2.735  12.879
10567W        W82860  35.367   4.327  13.441
10568W        W82861  27.621   2.779  12.888
10569W        W82862  15.256  31.051   0.479
10570W        W82863  35.095  39.053   5.141
10571W        W82864  25.518  10.638   0.938
10572W        W82865  10.168  18.061   0.731
10573W        W82866  19.705   4.894   2.838
10574W        W82867  31.049   8.384   5.251
10575W        W82868  35.550  20.683  12.356
10576W        W82869  31.519  23.671   3.280
10577W        W82870  12.792   5.299   0.312
10578W        W82871  26.190  24.001  14.004
10579W        W82872  15.671   0.342  11.961
10580W        W82873  44.978  18.147   9.930
10581W        W82874  33.500  31.634  12.961
10582W        W82875  38.515  28.600   0.912
10583W        W82876  28.150  41.844  13.864
10584W        W82877  36.084  14.116   1.933
10585W        W82878  20.062  22.143  13.961
10586W        W82879  39.955  44.481   4.234
10587W        W82880  44.476  19.085  12.054
10588W        W82881  19.233  34.603  10.003
10589W        W82882   3.305  25.677   1.796
10590W        W82883  35.421  29.957   4.685
10591W        W82884  38.870  38.873   1.429
10592W        W82885  28.504   6.418   2.373
10593W        W82886  10.274  16.600  10.988
10594W        W82887  40.519  23.152  10.495
10595W        W82888  44.311   8.382  12.917
10596W        W82889   2.949  37.944  11.592
10597W        W82890  41.809   5.926   0.825
10598W        W82891  31.420  36.439   4.631
10599W        W82892  22.677  27.588   1.913
10600W        W82893  24.078  31.564  14.769
10601W        W82894   3.879   3.918  12.925
10602W        W82895  37.576  35.441  11.585
10603W        W82896   8.189  10.795   3.755
10604W        W82897  36.072  43.955  12.461
10605W        W82898   8.366  14.320  12.835
10606W        W82899  35.572  23.675   0.833
10607W        W82900  43.475  11.730   0.321
10608W        W82901  10.380  38.409  12.563
10609W        W82902  32.483   2.387  10.463
10610W        W82903   7.749  34.478  13.064
10611W        W82904  37.524  26.577  10.524
10612W        W82905   3.731  39.041   0.884
10613W        W82906  42.373  10.743  12.933
10614W        W82907   4.829  41.920  10.479
10615W        W82908  29.662  13.329  10.925
10616W        W82909  12.200   2.732  11.509
10617W        W82910  41.012  32.951   4.663
10618W        W82911   1.799  42.965  11.997
10619W        W82912  39.866  24.618   1.778
10620W        W82913  35.492  30.948   3.699
10621W        W82914  44.789   7.180   2.403
10622W        W82915  34.017  38.830   4.752
10623W        W82916  13.743  43.932  12.844
10624W        W82917  26.014  26.619   4.173
10625W        W82918  40.322  11.729   9.940
10626W        W82919  42.302  40.834  14.402
10627W        W82920  21.634  22.065   2.194
10628W        W82921  34.428  34.007   4.806
10629W        W82922  17.663  10.215   0.471
10630W        W82923  34.105  38.532  13.407
10631W        W82924  20.134  31.914  13.531
10632W        W82925  16.167  23.104  10.896
10633W        W82926  20.173  16.310   0.877
10634W        W82927   3.929  34.541   0.422
10635W        W82928   5.292   5.768  13.336
10636W        W82929  24.027  17.092   1.359
10637W        W82930  36.020  22.563  11.060
10638W        W82931  24.561   4.877  10.570
10639W        W82932  22.547  22.625  11.493
10640W        W82933  33.883  34.877   9.964
10641W        W82934  35.577  18.205   3.726
10642W        W82935  37.910   1.386   3.332
10643W        W82936  31.977  32.460   4.637
10644W        W82937   6.208  33.880  11.465
10645W        W82938  30.596  44.976   4.622
10646W        W82939  20.043  13.762  12.476
10647W        W82940  22.099  40.358  14.935
10648W        W82941  26.165  44.805  11.972
10649W        W82942  37.974  35.077   0.392
10650W        W82943   3.312  34.897   3.749
10651W        W82944  12.231   8.258  12.957
10652W        W82945  41.857  17.177   1.349
10653W        W82946   2.794  22.200   0.400
10654W        W82947  13.798   2.855   1.411
10655W        W82948  19.760  26.672   1.867
10656W        W82949   9.383   7.409  13.053
10657W        W82950  38.917  44.798  13.957
10658W        W82951  37.582  22.548   0.420
10659W        W82952  31.490  16.255  12.883
10660W        W82953  21.066  10.376   0.325
10661W        W82954  29.604   1.472   4.295
10662W        W82955  19.672   6.808   3.251
10663W        W82956  24.488   3.382   3.790
10664W        W82957  18.104  17.642   2.191
10665W        W82958  35.990   4.860   0.791
10666W        W82959  38.068  32.896  11.996
10667W        W82960  15.583   1.960   5.115
10668W        W82961  30.507  44.278  14.014
10669W        W82962  20.102  38.383  14.383
10670W        W82963  42.880   0.422  10.155
10671W        W82964  15.246   3.924   0.738
10672W        W82965  14.249  17.783   4.798
10673W        W82966  25.553   1.835   3.651
10674W        W82967  10.143  18.204  13.345
10675W        W82968  23.726  42.496   0.758
10676W        W82969  27.989  24.113   1.786
10677W        W82970  19.212  10.634   4.152
10678W        W82971  21.619  29.122   1.268
10679W        W82972  40.908  23.687   0.779
10680W        W82973  33.521  37.851   0.261
10681W        W82974   4.877  14.610  14.299
10682W        W82975  24.092  42.980  12.003
10683W        W82976  17.290  33.061   9.920
10684W        W82977  10.239  38.929   3.722
10685W        W82978  15.318  41.043   3.633
10686W        W82979   6.289   8.850  10.463
10687W        W82980  43.413  25.143  12.370
10688W        W82981  29.517  39.421   4.743
10689W        W82982   4.720  44.943  11.943
10690W        W82983   3.821  12.212   4.633
10691W        W82984  43.305   6.393   2.726
10692W        W82985  15.627  10.836   0.928
10693W        W82986   7.728  30.937   0.789
10694W        W82987   9.836  28.485   2.746
10695W        W82988  24.103  13.225   5.235
10696W        W82989  15.188  28.170   2.417
10697W        W82990  39.027  30.053  11.119
10698W        W82991  28.103  31.637  12.933
10699W        W82992  30.635   4.304  10.419
10700W        W82993  17.607  19.050  11.889
10701W        W82994  17.578  41.292   2.863
10702W        W82995   1.439   8.309   4.116
10703W        W82996  32.565  26.103  13.484
10704W        W82997  35.088  17.216  12.426
10705W        W82998   8.307  44.991  11.865
10706W        W82999  11.663  39.458  14.924
10707W        W83000  40.347  40.996   1.916
10708W        W83001  20.629  42.949   0.243
10709W        W83002  12.296   5.242   2.679
10710W        W83003  19.773  35.950   4.269
10711W        W83004  10.643  40.468  12.412
10712W        W83005  21.565   8.800  12.423
10713W        W83006   4.808  41.836   0.962
10714W        W83007  11.227  19.186   2.380
10715W        W83008  41.423   9.215  11.473
10716W        W83009  41.348  32.554  10.586
10717W        W83010  30.042  12.718  10.926
10718W        W83011  24.511  41.941  10.893
10719W        W83012  40.372  36.438   3.175
10720W        W83013  30.626   6.382   4.141
10721W        W83014  33.544   2.953   2.209
10722W        W83015  27.455   0.421   4.310
10723W        W83016  13.631  21.153   1.933
10724W        W83017  39.896  15.803   2.419
10725W        W83018  38.408  10.707   0.835
10726W        W83019  43.361   9.185   0.916
10727W        W83020   5.846  31.569  13.489
10728W        W83021  38.959  44.785   1.770
10729W        W83022  36.577   5.371  10.908
10730W        W83023   0.433  27.534   0.955
10731W        W83024  27.454  17.176  13.048
10732W        W83025  29.529  25.541  12.364
10733W        W83026  28.594  31.539   3.170
10734W        W83027  12.204  12.227  11.536
10735W        W83028  35.926  28.457   4.294
10736W        W83029  37.390  24.012   2.231
10737W        W83030  42.498  25.132   3.826
10738W        W83031  12.843   9.307  12.041
10739W        W83032  30.074  17.258   2.741
10740W        W83033  28.996  32.904   3.355
10741W        W83034   6.239  33.534   1.833
10742W        W83035  26.642  25.967  13.800
10743W        W83036  12.360  23.582  13.934
10744W        W83037  27.665  19.134   4.263
10745W        W83038  14.246  17.127   1.417
10746W        W83039  28.137  14.313  14.358
10747W        W83040  26.605  32.083   4.744
10748W        W83041   2.365  38.955  11.604
10749W        W83042  26.084  27.451   0.291
10750W        W83043  25.972  38.487   1.428
10751W        W83044  42.364   3.313  10.415
10752W        W83045  22.170  17.759   0.468
10753W        W83046  19.641  34.535  14.322
10754W        W83047  38.421  29.460  11.006
10755W        W83048   8.270  14.702   3.277
10756W        W83049  18.169  43.813   3.729
10757W        W83050  40.977  39.870   3.749
10758W        W83051  21.190  15.579   1.433
10759W        W83052  35.362  23.608  13.876
10760W        W83053   4.220  35.547   3.318
10761W        W83054  10.298  14.660   0.269
10762W        W83055  32.056  24.029  10.410
10763W        W83056  26.982  36.909   4.748
10764W        W83057   2.852  18.094  13.798
10765W        W83058  11.321  31.569   1.321
10766W        W83059  28.480  14.261   1.918
10767W        W83060   0.850   0.764   4.236
10768W        W83061  27.058  27.463  13.975
10769W        W83062  33.083  16.711   3.745
10770W        W83063   4.240  12.124   1.278
10771W        W83064  31.408  26.634  14.464
10772W        W83065  35.097  14.748  12.479
10773W        W83066  34.907  44.875   0.265
10774W        W83067  23.193  40.844  12.988
10775W        W83068  43.468  41.913  11.472
10776W        W83069  13.845   9.217  11.611
10777W        W83070  19.061  23.092  14.448
10778W        W83071  18.238  21.236   5.103
10779W        W83072   1.451  11.359  10.585
10780W        W83073   3.280  25.656  14.336
10781W        W83074  30.068  39.403   0.250
10782W        W83075  41.928  35.964   2.771
10783W        W83076   7.776  41.844   4.113
10784W        W83077  11.303  15.232   1.794
10785W        W83078  27.187  32.089  12.869
10786W        W83079  40.891  36.523   4.320
10787W        W83080   9.352  11.670   3.338
10788W        W83081  27.485  11.141   2.749
10789W        W83082   9.378  42.853   3.666
10790W        W83083  13.683   3.730   4.277
10791W        W83084  40.327  37.910  14.391
10792W        W83085  35.371  13.806  10.638
10793W        W83086  18.760   9.850  13.814
10794W        W83087  24.511  42.491   1.831
10795W        W83088   9.200  24.222  12.035
10796W        W83089  37.062  37.951  13.913
10797W        W83090  41.362  23.701   4.169
10798W        W83091  39.817  35.399   3.743
10799W        W83092  22.557  37.940   4.199
10800W        W83093  40.892  29.601   4.801
10801W        W83094  17.159  35.944  13.541
10802W        W83095  37.454  38.571   3.379
10803W        W83096  34.995  20.217  12.063
10804W        W83097  38.534   8.392   3.173
10805W        W83098  28.495   4.444  13.518
10806W        W83099  10.793   2.352  13.907
10807W        W83100  43.959   0.812   0.266
10808W        W83101   2.961  23.494   3.339
10809W        W83102  32.080  10.373   0.340
10810W        W83103  29.108   1.774   4.273
10811W        W83104  34.072  31.005   1.815
10812W        W83105   5.768  23.624   4.790
10813W        W83106  11.666  40.877   2.221
10814W        W83107  29.071  34.017   4.826
10815W        W83108  36.052  34.910  13.383
10816W        W83109  28.589  40.979   1.434
10817W        W83110  14.259   4.432  13.420
10818W        W83111  23.717  29.484  13.409
10819W        W83112  22.624  40.822   1.351
10820W        W83113   2.245   0.386   2.754
10821W        W83114  28.053  37.393  12.563
10822W        W83115  39.458  22.539   3.764
10823W        W83116   9.768   5.250   4.182
10824W        W83117  37.531   1.797  12.492
10825W        W83118   0.758  27.171  14.348
10826W        W83119  10.754  33.018   0.303
10827W        W83120  13.604   6.199  10.612
10828W        W83121   2.412  37.440  12.831
10829W        W83122  13.157  33.604   1.850
10830W        W83123   8.405  28.446  14.855
10831W        W83124  28.524   2.368  11.405
10832W        W83125  39.993   2.443  12.971
10833W        W83126   3.736  31.526  11.601
10834W        W83127  10.836  30.059   4.292
10835W        W83128  18.580  38.533  12.414
10836W        W83129  20.578   8.828   3.285
10837W        W83130   6.911  38.033  10.442
10838W        W83131  15.160  35.992  14.956
10839W        W83132  33.010  34.897  11.071
10840W        W83133  17.262  42.867  10.124
10841W        W83134  16.696  27.980   2.689
10842W        W83135  22.623  25.562   4.121
10843W        W83136  25.587  41.419  11.449
10844W        W83137   6.202  19.760   0.813
10845W        W83138  32.045  42.443   4.623
10846W        W83139   7.672  23.543   0.810
10847W        W83140  23.106   6.283  13.819
10848W        W83141   9.794  24.981  14.325
10849W        W83142  25.980  36.093  12.830
10850W        W83143   0.419  25.544  14.865
10851W        W83144   4.227   9.289  12.061
10852W        W83145  35.584   8.829   0.262
10853W        W83146  24.164  19.758  14.335
10854W        W83147   2.295   8.334   0.736
10855W        W83148  18.743   0.942  10.507
10856W        W83149  44.987   4.757  11.503
10857W        W83150   0.412  35.517  11.533
10858W        W83151  13.771   7.179   0.334
10859W        W83152  17.133   6.754   3.225
10860W        W83153  21.242   8.708   2.185
10861W        W83154  17.294   6.277   4.222
10862W        W83155  38.966  27.949   4.693
10863W        W83156  22.621  31.916   1.746
10864W        W83157  28.150  39.394   3.252
10865W        W83158  16.300  15.195  11.457
10866W        W83159  31.124  17.696  13.845
10867W        W83160  39.329  24.123   3.381
10868W        W83161  33.127  24.724   3.680
10869W        W83162  25.612  33.060   1.239
10870W        W83163  15.757  14.722   0.870
10871W        W83164   2.924   9.834  11.068
10872W        W83165   7.261  42.802   0.352
10873W        W83166   3.773  28.639  14.001
10874W        W83167  11.704  28.946  12.013
10875W        W83168  36.863  39.336  13.360
10876W        W83169  19.158  34.511   4.771
10877W        W83170   2.344   3.717  11.108
10878W        W83171   8.790  11.342  13.456
10879W        W83172  27.955  40.871  13.801
10880W        W83173  40.303  32.073   2.726
10881W        W83174   1.962  30.108   3.253
10882W        W83175  27.059  20.701   0.841
10883W        W83176  13.216  19.220   4.663
10884W        W83177  34.435  29.937  12.463
10885W        W83178  19.626   8.887   3.767
10886W        W83179  13.178  36.006  14.476
10887W        W83180  18.232  31.587  12.346
10888W        W83181   4.767  30.075  12.913
10889W        W83182  43.803  26.604  13.024
10890W        W83183   2.796  19.095  11.028
10891W        W83184   1.834  21.091   2.377
10892W        W83185  39.444  35.008   2.287
10893W        W83186  11.632   0.901  14.342
10894W        W83187   1.428   7.799   1.861
10895W        W83188  33.999   8.401  13.845
10896W        W83189  41.015   0.378   9.592
10897W        W83190   4.800  33.948   1.342
10898W        W83191  42.833  25.707  11.433
10899W        W83192  22.710  11.262  12.410
10900W        W83193  18.060   4.214   1.430
10901W        W83194   0.816   2.956  13.960
10902W        W83195  36.459  12.729   2.244
10903W        W83196  34.111   0.977   2.856
10904W        W83197  13.640  18.647   0.824
10905W        W83198  21.222  22.738  13.995
10906W        W83199  42.436  26.140  12.387
10907W        W83200  11.317  42.391   2.842
10908W        W83201   2.272  31.642   2.689
10909W        W83202  44.946  15.735   3.177
10910W        W83203  20.736   2.379   0.409
10911W        W83204  33.397  33.523  14.944
10912W        W83205  43.964  31.020  11.555
10913W        W83206   7.248  42.794   3.209
10914W        W83207  41.923  25.036  10.492
10915W        W83208  33.527  12.639  12.525
10916W        W83209  44.481  23.660   0.484
10917W        W83210  14.106  20.190  11.532
10918W        W83211  43.497  25.047  11.577
10919W        W83212   1.867  20.615  11.429
10920W        W83213   0.973  44.970   1.910
10921W        W83214   8.189  32.429   1.817
10922W        W83215  17.571  22.136   5.253
10923W        W83216   3.769  33.451  10.960
10924W        W83217  30.472   1.379   4.797
10925W        W83218   3.361  33.954   2.284
10926W        W83219   6.897  30.988   2.839
10927W        W83220  14.225  16.571  14.509
10928W        W83221  34.412   0.861   1.805
10929W        W83222  30.633  10.825   4.754
10930W        W83223  24.686  16.232  14.893
10931W        W83224   9.193   4.209  13.923
10932W        W83225   0.476   1.453  12.374
10933W        W83226  38.944  12.762  14.504
10934W        W83227  26.585  33.010   4.833
10935W        W83228  11.709   7.333  12.909
10936W        W83229  18.674  28.549  12.996
10937W        W83230   7.682  16.627  14.899
10938W        W83231  35.411  27.593  11.382
10939W        W83232  28.438  23.532  11.962
10940W        W83233   4.753  23.633   4.723
10941W        W83234   8.694  21.667   4.772
10942W        W83235  41.854  43.824  10.119
10943W        W83236  21.178  14.811   0.252
10944W        W83237  27.459  10.646   4.317
10945W        W83238  18.192  16.608  11.577
10946W        W83239  15.625  40.015  13.314
10947W        W83240   0.912  42.975   0.459
10948W        W83241  31.079  16.261   4.208
10949W        W83242  23.653  21.031   1.743
10950W        W83243  42.371  26.650  14.990
10951W        W83244  20.082  42.410   4.334
10952W        W83245  32.487  12.201  11.541
10953W        W83246  35.100  38.330   0.339
10954W        W83247  41.794  22.551  13.337
10955W        W83248  29.954  42.432  14.488
10956W        W83249  30.977   3.734  13.034
10957W        W83250   8.743  30.460   3.842
10958W        W83251  15.745  33.456  14.333
10959W        W83252  19.227  13.658   1.378
10960W        W83253  19.653  22.581   5.621
10961W        W83254  34.537   5.285  14.443
10962W        W83255  25.133  44.340   0.931
10963W        W83256   9.214  39.983  11.460
10964W        W83257  28.083  28.128  13.940
10965W        W83258   6.371   2.744  12.444
10966W        W83259   3.809   8.320  13.449
10967W        W83260  43.887   3.458   0.727
10968W        W83261   2.384   8.829  12.896
10969W        W83262   6.711   7.366  13.818
10970W        W83263  15.816  22.171  12.074
10971W        W83264  25.616   0.478  13.398
10972W        W83265  32.083  15.312  13.031
10973W        W83266   2.419  32.021  10.584
10974W        W83267   6.341  37.519   5.200
10975W        W83268  34.095  32.923   0.878
10976W        W83269  21.613  26.954  11.413
10977W        W83270  30.990  30.450  14.435
10978W        W83271  17.083   7.368   1.823
10979W        W83272  24.040  25.174  14.915
10980W        W83273  15.306  39.473  10.590
10981W        W83274  40.375  38.850   0.369
10982W        W83275  28.025  10.195  12.537
10983W        W83276  33.982  22.530   3.197
10984W        W83277  26.974   3.787  11.956
10985W        W83278  18.081  37.843   4.242
10986W        W83279   8.264  11.708   4.687
10987W        W83280   0.338   1.480  12.824
10988W        W83281  11.633   4.754   0.323
10989W        W83282  16.688  21.523  11.402
10990W        W83283  28.533  10.634  11.547
10991W        W83284   0.922   6.222  11.379
10992W        W83285  22.239   1.475  10.617
10993W        W83286  25.187  29.547  12.492
10994W        W83287   2.766  37.007   1.754
10995W        W83288  32.473  38.906  10.558
10996W        W83289  25.701  43.456   2.365
10997W        W83290  17.716  14.652  14.899
10998W        W83291  22.105   5.403   3.783
10999W        W83292   5.363  40.493   4.830
11000W        W83293  39.493   5.794  12.995
11001W        W83294  10.302  15.588   3.381
11002W        W83295   5.415  20.187  13.943
11003W        W83296  11.344   5.691  13.375
11004W        W83297   5.827   5.915   2.246
11005W        W83298  29.128  31.001   3.747
11006W        W83299   4.729   4.854  13.479
11007W        W83300   3.301  19.088   3.728
11008W        W83301  32.416  36.892  13.896
11009W        W83302  28.986  33.925  10.422
11010W        W83303   2.259  39.002  13.808
11011W        W83304   4.240  10.273  12.990
11012W        W83305  11.365  11.303  12.021
11013W        W83306  32.625  22.640   0.734
11014W        W83307  22.083  44.395   1.363
11015W        W83308   8.279  36.391  10.141
11016W        W83309  14.255  29.023   3.630
11017W        W83310  30.427  21.718  12.352
11018W        W83311  37.851  23.088  10.916
11019W        W83312  33.469  22.043   2.690
11020W        W83313  10.815  44.804  12.859
11021W        W83314  40.335   1.316   4.276
11022W        W83315  36.856  33.046   2.355
11023W        W83316  26.160  36.045  12.033
11024W        W83317  29.943  43.902  13.981
11025W        W83318  29.981  23.138  13.535
11026W        W83319  21.649  38.831  10.122
11027W        W83320   9.375   9.802  14.433
11028W        W83321  42.971  39.996   1.284
11029W        W83322  10.347  12.795   0.876
11030W        W83323   7.387   4.318  13.863
11031W        W83324   8.375  34.040   2.370
11032W        W83325  18.755  18.256  12.024
11033W        W83326  37.052  27.692   2.231
11034W        W83327  30.497  33.540   1.881
11035W        W83328  43.319  10.641   3.670
11036W        W83329  23.704   7.813   2.773
11037W        W83330  27.610  35.358  14.460
11038W        W83331   0.443  15.818   1.352
11039W        W83332   0.302  13.615  13.000
11040W        W83333  35.897  39.341  10.959
11041W        W83334  39.048  32.628   2.256
11042W        W83335  22.627  16.252   1.696
11043W        W83336   6.354  39.448  10.452
11044W        W83337   5.435  16.304   2.393
11045W        W83338  38.903  11.709   2.186
11046W        W83339   8.744  40.518  12.889
11047W        W83340  39.011   5.753   0.898
11048W        W83341  42.402  11.258  13.908
11049W        W83342  42.986  23.582  13.467
11050W        W83343  24.974   7.220   0.272
11051W        W83344  22.094  32.885  13.837
11052W        W83345  42.024   8.826  10.512
11053W        W83346  19.157  39.965  13.994
11054W        W83347  21.582  21.585   4.306
11055W        W83348  20.230  20.183  14.835
11056W        W83349  18.273   8.808   2.901
11057W        W83350  14.796  16.311   2.414
11058W        W83351  25.706   3.399  14.023
11059W        W83352   8.313  25.202  11.939
11060W        W83353   4.368  15.627  10.101
11061W        W83354  43.398  16.590  14.877
11062W        W83355  33.401   5.690  12.930
11063W        W83356  33.957  29.494  14.341
11064W        W83357  30.435  19.701   3.195
11065W        W83358  27.556  37.527   4.630
11066W        W83359  34.961  41.364   3.366
11067W        W83360   1.849  37.982   2.861
11068W        W83361   7.758   9.325  12.483
11069W        W83362  26.652  29.021   2.181
11070W        W83363  19.103   9.814   3.651
11071W        W83364  37.444  28.490  13.839
11072W        W83365   0.894  13.350  14.027
11073W        W83366  11.365  25.491   3.843
11074W        W83367  40.939  36.508  13.921
11075W        W83368  35.936  19.633  13.470
11076W        W83369   9.327  23.091  13.903
11077W        W83370  27.474  36.003  12.074
11078W        W83371  32.121  34.598  11.046
11079W        W83372  32.919  23.532   2.230
11080W        W83373  16.749   7.666   0.898
11081W        W83374  33.570  21.156  12.387
11082W        W83375  33.129  31.034  10.499
11083W        W83376  17.285  25.712  11.985
11084W        W83377   5.414  40.437   0.827
11085W        W83378  17.099   1.897   4.331
11086W        W83379   2.788  32.901   4.131
11087W        W83380   1.773  24.102  11.479
11088W        W83381  27.074  31.061   0.290
11089W        W83382  34.527  43.327   0.773
11090W        W83383   4.716  24.566   2.320
11091W        W83384  15.097  38.847  14.790
11092W        W83385  36.878  40.040   0.244
11093W        W83386  19.074  29.477  12.869
11094W        W83387  29.601  44.795  14.921
11095W        W83388  37.350  10.780   4.646
11096W        W83389   8.858  26.680  14.006
11097W        W83390  14.163  29.501  11.981
11098W        W83391  14.591  10.811   2.890
11099W        W83392   4.939  15.819   0.334
11100W        W83393   7.204  27.003  14.301
11101W        W83394  35.577   3.851  13.458
11102W        W83395  16.236  20.661   4.339
11103W        W83396  28.638  44.000   3.332
11104W        W83397  16.286  24.039   1.912
11105W        W83398  16.124  21.530   1.237
11106W        W83399  21.102  39.494   0.839
11107W        W83400  15.090   0.948   4.630
11108W        W83401  29.101  19.181  10.539
11109W        W83402   8.739   4.712  11.595
11110W        W83403  23.648  20.264   3.246
11111W        W83404  23.012  36.944  11.039
11112W        W83405  17.083  23.649   4.144
11113W        W83406  30.505  13.747  12.497
11114W        W83407  34.401  33.597   3.753
11115W        W83408  20.608   5.333  11.606
11116W        W83409   6.202  15.741   3.677
11117W        W83410  11.224  30.005  11.606
11118W        W83411   0.278   5.743   3.382
11119W        W83412  38.460  16.575  14.028
11120W        W83413  26.634   8.875   2.880
11121W        W83414  21.607   2.355   2.724
11122W        W83415  37.034  17.661   1.281
11123W        W83416  16.276  15.788   1.722
11124W        W83417  33.934   9.699   2.399
11125W        W83418   6.256  35.467   0.873
11126W        W83419  11.621   5.286   3.773
11127W        W83420  18.667  43.830   3.198
11128W        W83421   8.330   8.848   2.371
11129W        W83422   9.327  33.549   3.731
11130W        W83423  40.459  15.732  10.134
11131W        W83424  31.492  36.401  14.394
11132W        W83425  27.519  37.506  12.564
11133W        W83426   8.326  40.381  13.809
11134W        W83427  13.762  41.029   0.753
11135W        W83428   3.459   4.745   2.225
11136W        W83429  28.659  32.073  13.377
11137W        W83430  32.100  35.583   2.196
11138W        W83431  26.534   2.928  12.419
11139W        W83432  44.826  16.810   4.134
11140W        W83433   0.270   5.241  13.394
11141W        W83434  31.108  43.961  12.542
11142W        W83435  30.107  32.610  14.496
11143W        W83436  42.987   2.784  12.449
11144W        W83437  39.836  42.799   0.839
11145W        W83438  36.560  32.128  10.557
11146W        W83439   3.250  29.135   2.684
11147W        W83440   7.380  13.264  12.971
11148W        W83441  15.757  40.512   5.174
11149W        W83442  25.509   0.308  11.518
11150W        W83443  16.210  34.424   0.385
11151W        W83444  14.599   5.378  13.338
11152W        W83445  41.293  16.601  14.439
11153W        W83446  23.005  10.705  13.053
11154W        W83447   4.714   6.915  14.354
11155W        W83448  13.271  14.182   5.237
11156W        W83449  20.764   0.355  13.432
11157W        W83450   8.655  33.527   4.698
11158W        W83451  17.651  10.344  14.015
11159W        W83452   7.754  26.035   1.933
11160W        W83453  21.024  18.186  12.364
11161W        W83454  29.542  20.547  13.061
11162W        W83455  42.326  19.629   5.779
11163W        W83456  14.627  17.632   1.827
11164W        W83457  40.337  34.990   0.319
11165W        W83458  26.498  37.939  11.479
11166W        W83459  18.687   3.891  10.926
11167W        W83460   1.938  31.420  13.354
11168W        W83461   0.439  13.779  10.909
11169W        W83462  21.588  12.211  12.531
11170W        W83463  26.689   0.337  13.030
11171W        W83464  25.629  44.808   2.260
11172W        W83465  39.066  19.174   4.671
11173W        W83466  16.218  24.195  10.126
11174W        W83467  29.025  40.912  13.974
11175W        W83468  26.497  35.881   0.852
11176W        W83469   9.736  11.854  12.429
11177W        W83470   1.883  22.180  12.413
11178W        W83471   2.943  42.994  14.504
11179W        W83472  22.204  20.755  13.896
11180W        W83473  43.997  24.620  13.411
11181W        W83474  30.530   3.421   2.210
11182W        W83475  33.126  37.420   3.302
11183W        W83476  36.878  37.422   4.294
11184W        W83477  19.255   3.758   4.311
11185W        W83478  10.652   2.362  14.986
11186W        W83479  29.173  43.435  14.894
11187W        W83480  17.227  16.664   3.256
11188W        W83481   0.935  35.420  14.396
11189W        W83482   9.833  41.860  11.508
11190W        W83483  30.128  18.699  13.316
11191W        W83484  14.325  24.033  12.359
11192W        W83485  38.349  31.581   4.792
11193W        W83486  39.472  13.206   4.137
11194W        W83487   1.864  11.671  10.517
11195W        W83488   3.439   7.320   0.250
11196W        W83489  29.055   7.861   0.347
11197W        W83490  25.035  39.487  10.606
11198W        W83491   9.874   7.898  14.934
11199W        W83492  15.823   2.274   1.354
11200W        W83493  17.236  33.113   4.324
11201W        W83494  37.849  16.101  13.475
11202W        W83495   2.817  19.277   3.367
11203W        W83496  25.575  36.446   1.236
11204W        W83497  35.883   0.759   5.199
11205W        W83498  27.532  39.385   1.448
11206W        W83499  16.240  42.381  11.943
11207W        W83500  31.506  13.317  11.451
11208W        W83501  36.585  32.507  10.935
11209W        W83502  32.954  33.960  11.397
11210W        W83503   1.768  37.396   2.703
11211W        W83504  28.167  12.715   4.777
11212W        W83505  41.292  14.161   2.396
11213W        W83506  18.150  20.180  13.471
11214W        W83507  25.674  43.901   2.700
11215W        W83508  40.832   3.836   4.183
11216W        W83509  28.672  22.515   1.392
11217W        W83510  11.232  36.538  11.558
11218W        W83511  14.286  36.523  11.587
11219W        W83512  30.025  40.831  14.903
11220W        W83513  17.201  25.674   2.698
11221W        W83514  16.319   9.767  12.085
11222W        W83515  33.386  26.523   1.373
11223W        W83516  33.054   9.796  10.128
11224W        W83517  23.032  17.283   3.706
11225W        W83518  10.327   8.231  13.402
11226W        W83519  29.029  32.442  14.954
11227W        W83520  10.771  32.970  10.630
11228W        W83521  19.577   3.815   0.843
11229W        W83522  17.588   2.354   3.644
11230W        W83523  37.858   0.901  11.465
11231W        W83524  21.642  38.850   4.321
11232W        W83525  42.300   5.894   1.332
11233W        W83526  43.764  17.201   4.187
11234W        W83527  15.707  35.913   4.707
11235W        W83528  26.566  30.090   4.647
11236W        W83529  26.032   0.328   0.746
11237W        W83530  44.957  43.359   4.167
11238W        W83531  11.754  41.445  12.557
11239W        W83532  17.300  44.423   5.159
11240W        W83533  12.648   0.493  10.555
11241W        W83534  13.129  15.231  13.388
11242W        W83535  31.440   3.880  14.032
11243W        W83536   3.858  21.710   4.713
11244W        W83537  21.587   9.150  11.886
11245W        W83538  32.982   8.748   4.128
11246W        W83539  42.968   1.357   3.303
11247W        W83540  19.611  26.605  13.980
11248W        W83541  33.421  23.199   0.459
11249W        W83542  33.449  41.847  11.947
11250W        W83543  11.665  42.376   3.808
11251W        W83544  12.693  35.916   3.768
11252W        W83545  15.170  39.907   3.822
11253W        W83546  35.019   2.854  14.383
11254W        W83547  38.874  21.614  12.063
11255W        W83548  28.088  27.084   0.450
11256W        W83549  44.495  32.087   0.947
11257W        W83550  28.166  12.218  14.781
11258W        W83551  25.093  12.278  12.003
11259W        W83552  13.222  36.523  13.398
11260W        W83553  14.710  17.150   2.266
11261W        W83554  41.427  35.561   3.848
11262W        W83555  25.069  44.354  11.459
11263W        W83556  26.175  16.120   2.387
11264W        W83557  27.013  41.028   1.258
11265W        W83558  42.478  38.888  11.920
11266W        W83559  19.238  22.510  14.281
11267W        W83560  16.622   7.222   3.319
11268W        W83561  10.849  20.221  11.068
11269W        W83562  27.075   8.201   0.882
11270W        W83563  14.773   1.756  13.504
11271W        W83564  27.530  18.246  11.376
11272W        W83565  29.151  11.798   2.188
11273W        W83566  16.293  16.257   2.721
11274W        W83567  16.657  38.546  13.987
11275W        W83568  37.886  43.969  11.954
11276W        W83569   8.764  10.835   2.413
11277W        W83570  27.601  35.880  12.525
11278W        W83571  19.690  21.082  11.118
11279W        W83572  19.173  28.647  12.968
11280W        W83573  26.027   5.300  13.992
11281W        W83574   7.223  28.502   1.272
11282W        W83575  30.594  39.003  14.309
11283W        W83576  29.496  26.671   1.233
11284W        W83577  10.313  19.731   3.262
11285W        W83578  44.395   6.271  13.899
11286W        W83579  16.810  36.355  14.491
11287W        W83580  12.707  38.971  11.874
11288W        W83581  14.322  36.908   0.947
11289W        W83582  36.022  32.975  13.832
11290W        W83583  28.572   7.315  14.881
11291W        W83584  35.991  17.099   1.348
11292W        W83585  41.534  33.554   2.851
11293W        W83586   1.462  22.618   3.196
11294W        W83587  20.268  34.522   3.834
11295W        W83588  40.511  27.645   3.227
11296W        W83589  43.305  12.657   2.842
11297W        W83590   5.343  26.641  10.437
11298W        W83591  34.548   7.768   3.724
11299W        W83592  36.517  34.512   1.279
11300W        W83593  27.072  18.190  12.411
11301W        W83594  37.477  26.700   1.252
11302W        W83595  23.072   1.942   2.666
11303W        W83596  12.848   4.229   9.997
11304W        W83597  12.734   8.338   2.302
11305W        W83598  33.962  22.659   4.613
11306W        W83599   4.426  38.379  12.988
11307W        W83600  15.641  20.646  12.027
11308W        W83601   5.391  31.453  10.920
11309W        W83602  32.071  43.012  11.566
11310W        W83603  30.089  42.403  12.352
11311W        W83604  37.521  31.130   4.251
11312W        W83605  28.011  12.188  13.014
11313W        W83606  34.893   4.783  12.536
11314W        W83607  34.880  36.981  14.356
11315W        W83608  41.812  35.989   4.191
11316W        W83609  12.756  32.535  14.989
11317W        W83610   8.822  25.126  12.420
11318W        W83611  29.026  17.231  11.434
11319W        W83612  35.475  33.423  13.440
11320W        W83613  25.501  39.496  13.017
11321W        W83614  12.188  18.142  12.453
11322W        W83615  38.342  15.306  11.889
11323W        W83616   2.792   3.883   0.783
11324W        W83617  43.980  36.957  10.615
11325W        W83618   8.658  19.043  10.912
11326W        W83619   4.723   9.694   4.651
11327W        W83620  41.988  32.969  10.988
11328W        W83621   2.405  32.045  14.966
11329W        W83622   3.798  23.135   0.859
11330W        W83623  38.382  42.884   5.280
11331W        W83624  15.135   1.304   3.753
11332W        W83625  17.161  41.901   1.828
11333W        W83626  20.271  19.728   9.934
11334W        W83627  27.611  43.956  12.355
11335W        W83628  44.285  21.167   2.194
11336W        W83629  18.190   7.243   4.650
11337W        W83630  42.462  36.995  10.422
11338W        W83631  35.366  38.348   1.287
11339W        W83632  40.387   1.927  12.837
11340W        W83633  35.890  21.598   2.712
11341W        W83634  13.188   0.813   4.297
11342W        W83635  35.529  21.094  14.468
11343W        W83636  33.049  25.063   0.939
11344W        W83637  13.334  41.424  12.842
11345W        W83638  35.448  41.502   2.712
11346W        W83639   4.272   7.306  13.534
11347W        W83640  44.813  34.373   2.234
11348W        W83641  23.036   0.281   3.223
11349W        W83642  12.723  41.369   4.638
11350W        W83643  13.318  17.211  10.046
11351W        W83644  23.093  22.204   4.796
11352W        W83645  40.474  44.419  14.394
11353W        W83646  23.036  24.162  12.359
11354W        W83647   6.336  44.473  11.927
11355W        W83648  10.164  36.542  13.945
11356W        W83649  12.342  28.091   4.268
11357W        W83650  18.262  38.847  11.525
11358W        W83651  43.788   6.187  12.492
11359W        W83652  15.314  12.346  10.418
11360W        W83653   1.284  34.590   1.905
11361W        W83654  31.606  35.901   3.728
11362W        W83655  32.931  20.725   0.360
11363W        W83656  43.358  36.853   0.790
11364W        W83657  33.053  11.801   0.473
11365W        W83658  12.615  42.878  10.488
11366W        W83659  25.985  16.713   3.317
11367W        W83660  21.179  32.605  10.473
11368W        W83661  14.711   1.243  10.039
11369W        W83662   3.309  33.005   1.423
11370W        W83663  27.185  15.730  11.416
11371W        W83664  43.781  26.481   0.441
11372W        W83665   8.392  12.779  14.958
11373W        W83666   5.258  21.069   2.665
11374W        W83667   8.773  13.106  14.437
11375W        W83668   4.843  25.652   1.844
11376W        W83669   0.984   3.892   3.697
11377W        W83670  23.527  22.150   2.419
11378W        W83671  27.034  12.200   3.303
11379W        W83672  35.103  27.985   5.163
11380W        W83673  26.623  20.100  14.761
11381W        W83674   7.747  38.969   3.765
11382W        W83675  40.528  38.367   1.242
11383W        W83676  20.083  44.008   2.268
11384W        W83677   9.262  44.263   2.808
11385W        W83678  42.399  42.866   1.214
11386W        W83679   5.248  42.987   1.345
11387W        W83680  12.688  26.108   3.812
11388W        W83681  38.909  26.043  14.898
11389W        W83682   0.349  42.405   4.315
11390W        W83683   2.722   3.954  14.294
11391W        W83684  30.424  36.996   2.225
11392W        W83685  17.256  30.489  12.529
11393W        W83686  11.286  10.321  12.398
11394W        W83687  30.656  12.658   4.748
11395W        W83688  26.470  26.472  13.945
11396W        W83689   4.334   9.689  14.019
11397W        W83690  35.957  29.984  13.991
11398W        W83691  19.117  18.111   0.920
11399W        W83692  14.653  14.824  12.394
11400W        W83693  37.907  14.286  11.404
11401W        W83694   8.380  42.033   3.759
11402W        W83695  31.020  44.319  12.466
11403W        W83696  23.494  15.604   3.694
11404W        W83697   7.385  24.699  13.032
11405W        W83698  12.319   6.338  14.410
11406W        W83699   0.815  17.677   1.408
11407W        W83700  35.921  11.184   4.769
11408W        W83701  21.234  18.657   4.145
11409W        W83702   9.762   7.803  12.959
11410W        W83703   6.697  36.444  11.560
11411W        W83704  16.177  34.594  10.433
11412W        W83705  37.022  32.887  14.456
11413W        W83706   0.337  17.567   4.220
11414W        W83707  20.687  11.240   4.784
11415W        W83708   6.185  15.210  13.056
11416W        W83709   8.751   1.820  13.359
11417W        W83710  17.632  28.494  13.413
11418W        W83711   4.287  27.958  13.844
11419W        W83712  13.708  28.966   2.394
11420W        W83713   4.925  15.231   3.651
11421W        W83714  29.535   6.819   2.853
11422W        W83715  34.882   8.804   0.453
11423W        W83716  30.959  40.518  14.977
11424W        W83717   6.881  29.473   3.290
11425W        W83718  13.277  34.055  13.326
11426W        W83719  17.134  40.948  13.036
11427W        W83720  11.796   9.743  12.872
11428W        W83721  29.534  39.846   0.946
11429W        W83722   8.877  38.491  13.051
11430W        W83723  28.493  36.525  12.012
11431W        W83724  38.837  31.129  11.406
11432W        W83725  37.570  15.687   2.869
11433W        W83726  21.565  36.567   1.434
11434W        W83727  16.128  23.631  13.482
11435W        W83728   0.850   3.258   3.213
11436W        W83729  36.048  27.509  10.414
11437W        W83730  27.047  26.038  12.486
11438W        W83731  37.903  34.050  14.506
11439W        W83732  24.542  30.508  13.454
11440W        W83733  40.842   0.285  12.050
11441W        W83734   9.306  38.925   4.226
11442W        W83735  19.549  12.826   1.356
11443W        W83736   6.893  13.664  10.997
11444W        W83737  40.825  20.189  10.529
11445W        W83738  11.838  36.061   0.401
11446W        W83739  29.951  36.350  13.379
11447W        W83740   2.958  18.707   2.893
11448W        W83741  37.556   7.718   4.264
11449W        W83742   2.732   9.393  13.412
11450W        W83743  18.633  31.466   1.770
11451W        W83744  39.374  39.936  13.907
11452W        W83745  29.505  36.371  12.935
11453W        W83746   9.866  15.801   1.830
11454W        W83747   9.193  35.408   1.400
11455W        W83748   2.362  15.818  14.823
11456W        W83749  44.900   9.699   2.902
11457W        W83750  22.130  37.496  10.491
11458W        W83751   0.361   3.313  12.013
11459W        W83752  18.128  32.437   4.662
11460W        W83753  38.941  23.567  13.396
11461W        W83754   4.332  43.766  11.952
11462W        W83755  41.794   0.250   1.394
11463W        W83756  36.381  36.384  14.943
11464W        W83757  41.359  26.025  13.851
11465W        W83758  15.230  14.829  12.449
11466W        W83759   1.818  11.786  14.315
11467W        W83760  14.684  20.184  13.448
11468W        W83761   8.889  40.944   2.303
11469W        W83762  36.876  31.074  13.397
11470W        W83763   1.856  11.713   1.764
11471W        W83764   7.211   3.221   0.731
11472W        W83765  38.829  36.019  10.146
11473W        W83766   4.885  29.064  13.039
11474W        W83767  40.889  21.164  10.569
11475W        W83768  26.988   0.453   4.603
11476W        W83769  20.565  10.835   1.298
11477W        W83770  19.212   7.843  13.330
11478W        W83771  20.212  21.655   0.458
11479W        W83772  15.100  11.650  12.517
11480W        W83773  38.944  19.671  14.284
11481W        W83774  32.391  30.511  14.432
11482W        W83775   3.334   3.282  12.552
11483W        W83776  26.967  20.692   0.253
11484W        W83777   9.763   5.921   3.800
11485W        W83778  27.955  20.236  11.989
11486W        W83779  36.522  20.728  12.566
11487W        W83780  25.033  14.313  12.412
11488W        W83781  19.283  40.380   4.667
11489W        W83782  10.159  38.909   1.800
11490W        W83783   4.424  29.655   1.894
11491W        W83784  40.861   0.360  11.465
11492W        W83785  44.753  39.461   3.377
11493W        W83786  40.501  36.975   4.649
11494W        W83787   0.869   6.302  14.849
11495W        W83788  21.633  33.540  14.286
11496W        W83789  33.009   9.174   3.343
11497W        W83790   2.958   0.766  12.081
11498W        W83791  38.363  35.981   4.684
11499W        W83792   4.775   4.931   1.366
11500W        W83793   9.754  22.227   4.751
11501W        W83794   3.772  22.213   3.849
11502W        W83795   6.428  39.398  12.005
11503W        W83796  38.059  23.148   0.331
11504W        W83797  39.454  13.351   1.856
11505W        W83798  16.286  28.451   3.352
11506W        W83799   3.321  30.535   0.874
11507W        W83800  20.164  17.278   9.993
11508W        W83801  39.006  33.470  12.016
11509W        W83802  27.135  15.280   3.755
11510W        W83803  37.954   4.282   3.721
11511W        W83804  13.673  25.604  13.430
11512W        W83805   4.741  13.250   0.255
11513W        W83806  11.656  33.447   0.734
11514W        W83807   9.670  41.811   4.769
11515W        W83808  33.889  13.722   1.749
11516W        W83809  20.226  31.948  10.599
11517W        W83810  20.247  38.524   1.922
11518W        W83811  19.617   5.863   3.197
11519W        W83812  10.293   2.229   5.242
11520W        W83813  32.586  20.172   0.397
11521W        W83814  29.537  29.037   4.193
11522W        W83815   7.818   5.363   0.762
11523W        W83816  23.666   6.315  14.910
11524W        W83817  24.495   5.218   3.242
11525W        W83818  21.228  32.627   4.265
11526W        W83819  22.171  35.452  13.006
11527W        W83820  39.966  12.702   4.182
11528W        W83821  15.222  16.662   0.912
11529W        W83822  19.156   6.910  13.855
11530W        W83823   4.251  35.366  12.567
11531W        W83824  10.194  14.230   3.856
11532W        W83825  16.222  25.118   2.369
11533W        W83826  29.119  22.996   0.261
11534W        W83827  26.129  22.713  13.024
11535W        W83828  37.339   9.659   1.433
11536W        W83829  26.644   0.484   3.767
11537W        W83830  43.495  29.495  13.326
11538W        W83831  29.562  42.986   1.855
11539W        W83832  21.571  11.224   0.357
11540W        W83833   7.820  25.002  14.993
11541W        W83834  28.118   7.680  14.769
11542W        W83835  44.809  23.145   1.742
11543W        W83836  38.405  24.570   1.365
11544W        W83837  40.522   3.254   5.287
11545W        W83838  29.659   0.939   3.706
11546W        W83839  30.591   3.436  14.450
11547W        W83840  20.115   1.479   2.740
11548W        W83841  36.408   1.776  11.028
11549W        W83842  15.263  33.984   3.173
11550W        W83843  31.000  19.636   5.120
11551W        W83844  18.195  13.274  11.971
11552W        W83845  14.184  24.128  14.029
11553W        W83846  41.841  42.930  12.055
11554W        W83847  20.230  25.564   3.253
11555W        W83848  27.555  42.822  11.540
11556W        W83849   6.840  36.558  13.010
11557W        W83850  13.217  18.704   3.752
11558W        W83851  16.588  40.880  13.509
11559W        W83852  25.586  36.025  12.364
11560W        W83853  18.562   0.902   3.159
11561W        W83854  35.913   9.724  11.985
11562W        W83855  24.111   7.408   3.692
11563W        W83856  36.480   7.866  14.433
11564W        W83857  25.034  42.342  13.420
11565W        W83858  14.263  39.931   3.655
11566W        W83859   4.794   5.350   3.259
11567W        W83860  14.223  32.562  10.929
11568W        W83861  16.701  26.550   1.846
11569W        W83862  44.913   9.384   1.846
11570W        W83863   3.428  19.727   3.384
11571W        W83864  31.594  38.546  14.995
11572W        W83865  13.188  24.112  13.863
11573W        W83866  40.303  29.446   0.245
11574W        W83867   6.834   9.827  12.067
11575W        W83868  29.922   6.263  12.083
11576W        W83869  21.140  15.672  14.373
11577W        W83870  11.664  35.429   1.720
11578W        W83871   0.843   7.803  11.898
11579W        W83872  43.463  37.501   2.701
11580W        W83873  23.560  23.990  11.049
11581W        W83874  22.642   0.984   3.746
11582W        W83875  22.248  10.259   3.857
11583W        W83876  26.107   7.319   1.452
11584W        W83877   7.340  41.396   3.719
11585W        W83878   8.370  19.129  11.977
11586W        W83879  13.653  41.392  11.586
11587W        W83880   1.454   5.370  14.863
11588W        W83881  14.298  30.646  13.400
11589W        W83882   5.806  34.081  11.000
11590W        W83883  20.212  16.665  13.463
11591W        W83884  21.200  35.866  14.350
11592W        W83885  34.453   5.198  13.929
11593W        W83886  20.571  10.228  11.383
11594W        W83887   3.884  23.579   1.285
11595W        W83888  11.273  34.481  14.932
11596W        W83889   3.293  22.060  10.492
11597W        W83890  11.631  39.985  12.361
11598W        W83891  31.539  23.161   4.677
11599W        W83892   7.328   3.384   1.907
11600W        W83893   2.854  31.522   2.300
11601W        W83894   6.392  17.220  12.054
11602W        W83895  19.568  38.426  14.442
11603W        W83896   6.789   3.845   3.194
11604W        W83897  29.549  17.284   1.365
11605W        W83898  19.714  13.266  10.926
11606W        W83899  13.152  16.796   3.750
11607W        W83900  29.450  21.587   4.136
11608W        W83901  37.581   7.305   2.812
11609W        W83902  10.686  20.106  11.520
11610W        W83903  37.841  23.651  13.969
11611W        W83904  38.063  43.382   0.423
11612W        W83905   0.961  16.302   2.309
11613W        W83906   0.983  14.744  10.643
11614W        W83907   0.419  44.455   2.868
11615W        W83908   9.645  35.043   9.541
11616W        W83909   5.821   9.212   1.709
11617W        W83910  15.082  16.100   3.276
11618W        W83911   3.893  14.771   1.784
11619W        W83912  28.003  41.877   2.192
11620W        W83913  38.850  28.155  11.541
11621W        W83914  41.403   1.481  13.802
11622W        W83915  41.498  31.015  10.517
11623W        W83916  19.267  14.224   3.352
11624W        W83917   7.354  27.953   4.337
11625W        W83918   4.802  27.139   0.408
11626W        W83919  42.379  16.737  10.563
11627W        W83920  20.162  23.228   1.764
11628W        W83921  17.619  29.465   1.263
11629W        W83922  20.589   8.313   0.789
11630W        W83923  23.128  39.852  12.968
11631W        W83924  13.163   7.738   1.826
11632W        W83925   4.444  38.867   3.740
11633W        W83926   3.846  12.340  11.378
11634W        W83927  18.737  15.093   0.275
11635W        W83928  11.846  33.619  14.410
11636W        W83929  10.288  13.763   4.714
11637W        W83930  10.799   6.890   0.945
11638W        W83931  17.239  11.777   3.194
11639W        W83932   0.795  10.207   1.242
11640W        W83933  10.274  24.629   3.645
11641W        W83934   9.290  19.075  13.038
11642W        W83935  13.339  27.125  12.426
11643W        W83936  28.934  12.800   4.259
11644W        W83937  43.435  35.479   2.827
11645W        W83938  39.994  29.061  11.904
11646W        W83939  43.332   7.827   3.278
11647W        W83940  31.445  34.019   0.335
11648W        W83941  22.702   3.870   3.631
11649W        W83942  24.645  12.808  14.893
11650W        W83943  43.845  12.147   4.137
11651W        W83944   9.874  22.093  12.573
11652W        W83945   9.805  20.552  14.277
11653W        W83946   0.906   7.879  13.966
11654W        W83947   7.890   8.197   0.381
11655W        W83948  13.648   6.697   2.235
11656W        W83949   3.452  15.630  11.971
11657W        W83950  24.051  19.658   4.715
11658W        W83951   3.326  13.785  11.095
11659W        W83952  42.971  11.167   0.794
11660W        W83953   1.345  21.756  11.089
11661W        W83954  30.426  36.084  10.986
11662W        W83955  42.873  23.661   1.875
11663W        W83956  14.160  36.577   5.280
11664W        W83957   7.689   5.879  10.589
11665W        W83958  30.004  37.052  11.471
11666W        W83959  25.687  16.802  10.530
11667W        W83960  32.617  28.529  11.593
11668W        W83961  26.193   0.382  10.976
11669W        W83962  44.500  40.954  13.963
11670W        W83963  34.453  26.032   4.316
11671W        W83964   8.668  17.078  14.380
11672W        W83965  10.708   0.841   2.806
11673W        W83966  17.555  40.435   0.470
11674W        W83967  29.564  28.077   5.191
11675W        W83968  20.718  38.389  12.021
11676W        W83969  41.473   5.352   1.437
11677W        W83970  14.244  29.656   4.325
11678W        W83971  16.200  33.907  11.523
11679W        W83972  15.092  26.961  12.515
11680W        W83973  18.687  25.595   1.249
11681W        W83974   2.391  32.575  13.547
11682W        W83975   4.213  35.033   1.219
11683W        W83976  34.911  17.184  10.561
11684W        W83977  27.670   2.902  13.817
11685W        W83978  30.922  35.559   0.735
11686W        W83979  17.720  27.575  11.574
11687W        W83980  10.373  25.102  10.967
11688W        W83981  35.378  19.652   0.815
11689W        W83982  14.771  31.494   4.180
11690W        W83983  21.039  18.746   3.213
11691W        W83984  18.099   9.293   1.787
11692W        W83985  21.518  28.105   1.434
11693W        W83986   3.760  30.500   4.342
11694W        W83987  38.418  10.203  12.999
11695W        W83988   1.390  41.994   1.749
11696W        W83989  40.938  27.673   4.826
11697W        W83990   4.230   4.891   0.959
11698W        W83991  35.068  22.032   2.225
11699W        W83992   4.939  44.300   2.237
11700W        W83993  25.540  30.457  14.436
11701W        W83994  27.959  44.856  13.909
11702W        W83995  28.648  23.216   0.851
11703W        W83996   9.699   9.234  12.899
11704W        W83997   7.839  14.201  10.101
11705W        W83998   1.777  44.869   3.739
11706W        W83999  37.998  14.302  10.943
11707W        W84000   3.871  34.579   0.790
11708W        W84001  26.002  44.284  11.487
11709W        W84002   0.318  29.536  10.587
11710W        W84003  17.668  30.630   3.369
11711W        W84004  22.718  35.007   2.272
11712W        W84005   7.367  34.391  13.911
11713W        W84006  31.947  39.998   9.964
11714W        W84007  11.734  31.519   2.717
11715W        W84008  28.935  10.807   2.827
11716W        W84009  24.074  22.606  10.553
11717W        W84010   1.838   1.246   1.422
11718W        W84011  28.996  10.797  14.994
11719W        W84012  16.159  44.853  14.975
11720W        W84013  32.059  30.158  11.868
11721W        W84014  39.057  34.507  13.523
11722W        W84015  22.230  43.329  11.057
11723W        W84016  39.524  44.774  13.841
11724W        W84017  24.654  12.194  10.498
11725W        W84018  12.846  29.067  14.873
11726W        W84019  14.681  41.881   2.220
11727W        W84020   1.941  25.658   2.329
11728W        W84021  11.276  30.546   2.301
11729W        W84022   7.718   1.827   1.697
11730W        W84023  15.238  37.484   3.822
11731W        W84024  22.064  13.154  10.608
11732W        W84025   4.840  19.603  10.490
11733W        W84026   7.822  14.656  10.574
11734W        W84027  27.087  14.246   5.216
11735W        W84028  12.273  16.249  14.305
11736W        W84029  34.608  25.689  10.589
11737W        W84030  41.824  33.942  11.469
11738W        W84031  16.086  31.124  11.871
11739W        W84032  30.531  10.811  13.022
11740W        W84033   3.421  38.376   4.666
11741W        W84034  35.476  22.094   1.249
11742W        W84035  32.578  27.573   0.771
11743W        W84036  32.624   8.706   2.313
11744W        W84037  22.174   4.887  13.931
11745W        W84038  14.127  44.431  11.566
11746W        W84039   9.757  22.030  11.578
11747W        W84040  23.653  30.484  12.415
11748W        W84041   4.315   7.193   1.340
11749W        W84042  13.127  35.028   5.297
11750W        W84043  40.854  35.418   1.725
11751W        W84044  14.677  44.884  12.400
11752W        W84045  12.225  22.720  11.572
11753W        W84046  17.793  33.913  12.480
11754W        W84047  32.606  14.166  11.920
11755W        W84048  20.182   7.904   2.370
11756W        W84049   2.332  42.353  14.416
11757W        W84050  43.404  18.062  13.831
11758W        W84051  23.533  36.074  14.809
11759W        W84052  32.611  44.377  12.539
11760W        W84053  32.625   1.432   0.411
11761W        W84054  42.432  18.154   3.657
11762W        W84055  12.746  24.564   3.217
11763W        W84056  12.710   4.935  11.443
11764W        W84057   1.444  19.579  12.500
11765W        W84058  33.477   5.259  10.410
11766W        W84059   8.196  15.680   4.163
11767W        W84060  36.861  27.049  11.518
11768W        W84061   1.949  13.709   2.290
11769W        W84062   8.337  43.822  13.399
11770W        W84063  33.966  10.371  10.011
11771W        W84064  27.661  13.131   1.386
11772W        W84065  14.259   4.856   0.848
11773W        W84066  23.054  29.140   1.728
11774W        W84067  23.155  16.609   1.814
11775W        W84068  21.160  25.595   2.252
11776W        W84069  40.456  37.016   3.193
11777W        W84070  18.641  30.919   4.742
11778W        W84071   8.722  32.606   4.193
11779W        W84072  38.068  22.207  10.449
11780W        W84073  28.569   9.663   0.318
11781W        W84074   2.940  28.635   2.710
11782W        W84075   9.203  23.667   2.799
11783W        W84076  24.623  27.949  12.987
11784W        W84077  39.947  17.766   4.189
11785W        W84078  42.829  21.232  13.939
11786W        W84079  25.528  11.147  14.840
11787W        W84080  28.145  17.741   3.375
11788W        W84081  20.624  44.436   1.903
11789W        W84082   5.731  38.372  13.834
11790W        W84083   3.225   2.415   3.199
11791W        W84084   5.320   1.295   1.860
11792W        W84085  26.061  23.987  12.972
11793W        W84086  24.209  28.118   4.791
11794W        W84087  38.482  28.171  14.010
11795W        W84088  22.645   1.374   4.300
11796W        W84089  20.098  27.488  14.337
11797W        W84090   7.861  27.959  14.321
11798W        W84091   2.261   8.863   2.707
11799W        W84092  15.084  26.046   4.755
11800W        W84093  27.658  16.624  13.966
11801W        W84094  31.609   5.265   2.315
11802W        W84095   9.821  40.041  12.989
11803W        W84096   9.867  15.799   3.814
11804W        W84097  36.881  25.145   1.380
11805W        W84098  28.996  43.879   1.417
11806W        W84099  10.204  21.723   1.278
11807W        W84100   3.298  29.498   2.365
11808W        W84101  12.816   6.359   2.187
11809W        W84102  16.109   3.717  13.011
11810W        W84103  19.546  11.190   2.807
11811W        W84104  34.043  40.819   4.759
11812W        W84105  11.771  23.120   1.796
11813W        W84106  24.596  15.308   2.835
11814W        W84107  42.524  39.811  14.819
11815W        W84108  18.567  36.850  12.556
11816W        W84109  25.109  40.455   2.844
11817W        W84110  41.805   6.759  13.996
11818W        W84111   2.906  12.169   3.344
11819W        W84112  37.966  41.877  10.889
11820W        W84113  38.979  12.123  10.576
11821W        W84114  21.538   1.451   1.241
11822W        W84115  17.220   6.402   3.709
11823W        W84116  31.408  18.171  14.912
11824W        W84117  37.580   2.767  10.951
11825W        W84118  43.401  20.712  14.456
11826W        W84119  44.899  31.424  12.449
11827W        W84120   7.380  42.970  14.846
11828W        W84121  34.090  40.320  14.921
11829W        W84122  32.408  35.082   4.294
11830W        W84123  38.361  41.531   0.333
11831W        W84124  27.658  30.459   4.732
11832W        W84125   8.247  34.056  14.936
11833W        W84126  20.575  35.486  10.598
11834W        W84127  16.099   7.352   4.823
11835W        W84128   2.731  35.917  12.894
11836W        W84129  24.684   1.741  12.457
11837W        W84130  15.316  33.089  14.987
11838W        W84131  38.416  28.127  13.359
11839W        W84132  22.203   9.709   1.827
11840W        W84133  33.081  24.705   2.347
11841W        W84134  35.077  15.589   0.363
11842W        W84135  17.777  41.965   3.827
11843W        W84136  22.223  35.920  12.883
11844W        W84137   4.931  35.880  13.479
11845W        W84138   9.789  30.611   2.345
11846W        W84139  25.571  35.886  10.016
11847W        W84140  44.379  19.665   4.158
11848W        W84141  40.503  26.076   0.950
11849W        W84142  28.629   0.355   3.354
11850W        W84143   2.853   1.864   0.453
11851W        W84144   3.913  22.703   4.117
11852W        W84145  35.043  39.486   0.300
11853W        W84146  28.004   3.323  13.939
11854W        W84147  37.550  39.810  12.893
11855W        W84148  25.160   8.298  12.551
11856W        W84149  38.858  39.053  12.992
11857W        W84150  29.433   6.756   2.308
11858W        W84151  41.359  29.449   4.339
11859W        W84152  21.752  29.638   0.304
11860W        W84153   5.377  25.010   2.782
11861W        W84154  12.282   5.704  11.407
11862W        W84155   3.352  22.129  13.979
11863W        W84156  33.434  34.519   9.952
11864W        W84157  28.971   6.753  12.984
11865W        W84158  33.988  18.173   1.336
11866W        W84159  33.392   3.284   1.241
11867W        W84160   4.781  42.867  11.382
11868W        W84161  22.705  36.489   1.299
11869W        W84162  36.036  22.176  10.638
11870W        W84163  31.933  10.361   3.837
11871W        W84164  31.450  13.845  14.982
11872W        W84165  16.782  15.700  10.404
11873W        W84166   1.914  17.254   3.266
11874W        W84167  31.637   7.740   3.817
11875W        W84168  34.613  23.033  13.320
11876W        W84169  10.287  44.934   1.893
11877W        W84170  29.165  34.456   0.301
11878W        W84171  43.444  33.448  12.837
11879W        W84172  37.471   0.978   0.879
11880W        W84173  23.590  40.496   3.182
11881W        W84174  35.599   0.800   0.417
11882W        W84175  25.210  37.989   0.756
11883W        W84176  26.996  31.495   3.704
11884W        W84177  25.676  19.553  14.432
11885W        W84178  19.683  16.246   0.480
11886W        W84179  40.344  23.158  13.917
11887W        W84180  15.617  32.001   3.803
11888W        W84181  43.964   3.325  10.943
11889W        W84182  20.053  25.074   5.171
11890W        W84183  13.139  42.979   5.213
11891W        W84184   6.913   5.243   2.190
11892W        W84185  44.367  34.485   0.257
11893W        W84186   5.280  30.535   3.676
11894W        W84187  34.461  19.219   2.865
11895W        W84188  25.002  10.867  14.327
11896W        W84189  11.364   9.341   1.818
11897W        W84190  19.772   5.347  10.953
11898W        W84191   9.233  40.523   3.344
11899W        W84192   5.352   8.256   1.397
11900W        W84193  25.714  41.997   3.293
11901W        W84194  34.874  17.735   2.412
11902W        W84195  23.106  20.177  13.537
11903W        W84196  14.098  18.079   1.391
11904W        W84197  37.074   8.884  10.510
11905W        W84198  25.014  38.486  14.850
11906W        W84199  40.358  24.677   0.804
11907W        W84200  15.596  29.548   3.794
11908W        W84201  10.863  40.374   0.787
11909W        W84202  20.079  37.995   2.720
11910W        W84203   5.436  37.073   0.422
11911W        W84204  13.257   9.163   0.464
11912W        W84205  39.336   3.886  13.025
11913W        W84206  34.594  25.175  13.925
11914W        W84207  29.444  11.726  12.411
11915W        W84208  34.056  20.576   1.382
11916W        W84209  33.597  31.512   4.171
11917W        W84210  15.117  18.709   2.398
11918W        W84211  35.095  36.022   2.736
11919W        W84212   7.240   0.472  14.385
11920W        W84213  16.767  27.521   3.273
11921W        W84214   5.196  32.564  12.069
11922W        W84215   7.338  39.894   0.413
11923W        W84216   9.327  11.861   0.864
11924W        W84217  42.935  15.232   1.716
11925W        W84218  34.980  29.982   4.332
11926W        W84219  35.062  26.005  13.876
11927W        W84220  27.473  31.481   3.289
11928W        W84221   7.710   0.359   0.373
11929W        W84222  19.756  31.079  11.078
11930W        W84223  34.485  37.337  14.817
11931W        W84224   6.756  32.036   4.147
11932W        W84225  27.528  29.653   1.855
11933W        W84226  33.596  39.844   1.292
11934W        W84227  34.891  35.394   4.318
11935W        W84228  22.219  42.955   5.289
11936W        W84229  22.068  29.527  12.893
11937W        W84230  33.471  43.781   4.191
11938W        W84231  21.165  16.079  11.116
11939W        W84232  22.628  32.060   3.206
11940W        W84233  19.123  41.861   1.235
11941W        W84234  25.135  40.545   4.175
11942W        W84235  14.743   2.760  11.483
11943W        W84236  26.956   1.816   3.359
11944W        W84237   2.335  39.017  14.467
11945W        W84238  14.780  39.952   0.757
11946W        W84239  30.011  12.144   1.364
11947W        W84240   0.461  18.225  14.943
11948W        W84241  26.056  15.806  14.939
11949W        W84242  41.513  28.550   1.816
11950W        W84243  22.189   5.810   1.889
11951W        W84244  14.590  16.234  10.556
11952W        W84245  39.543  37.894  12.962
11953W        W84246   0.284  19.632  10.949
11954W        W84247  35.379  29.440  11.938
11955W        W84248  30.630  29.449  13.327
11956W        W84249  29.972  17.184  11.592
11957W        W84250  35.553  28.508   4.775
11958W        W84251  34.079  21.181  12.530
11959W        W84252  10.741  39.382  14.397
11960W        W84253  42.526  21.078  10.506
11961W        W84254  22.618  27.186  14.829
11962W        W84255   8.357  29.051  12.944
11963W        W84256  34.034  44.415   1.816
11964W        W84257   4.793  13.632  13.448
11965W        W84258  13.734  32.100  11.420
11966W        W84259   7.789  26.028  14.485
11967W        W84260  31.414   7.775   4.342
11968W        W84261   4.407  25.013  10.469
11969W        W84262  35.380  21.608  14.936
11970W        W84263  21.693  22.181  11.862
11971W        W84264  22.010   8.658  12.883
11972W        W84265  37.571  22.015   4.302
11973W        W84266  35.915  40.492  14.964
11974W        W84267  27.941  20.083   1.778
11975W        W84268   6.356  16.714  12.418
11976W        W84269   4.918  32.110   5.093
11977W        W84270  35.531  26.462  12.962
11978W        W84271  28.602   1.820   0.815
11979W        W84272   4.703  13.342  12.058
11980W        W84273   8.869  39.524   2.781
11981W        W84274  24.187  25.045  12.020
11982W        W84275  43.432   9.672  14.483
11983W        W84276  43.871  26.668  10.956
11984W        W84277   4.758  12.714   1.870
11985W        W84278   3.330  23.190   2.758
11986W        W84279  35.535   7.235   4.330
11987W        W84280  37.952  13.259   2.759
11988W        W84281  13.108  16.273  13.528
11989W        W84282  24.604  10.774  10.555
11990W        W84283  17.156  17.659  12.557
11991W        W84284   8.166  40.303   3.361
11992W        W84285  10.243  38.938  12.465
11993W        W84286  31.485  30.428  11.026
11994W        W84287  11.221   2.471  14.839
11995W        W84288  40.971   7.249  10.555
11996W        W84289  23.020  28.666  14.422
11997W        W84290  39.543  29.170  13.002
11998W        W84291  13.159  22.718   2.682
11999W        W84292   7.321  24.069   0.767
12000W        W84293  44.946   1.332  12.067
12001W        W84294  16.681   8.764   3.855
12002W        W84295  15.176  35.402  14.013
12003W        W84296  22.578  10.690   4.789
12004W        W84297  38.999   4.292   1.719
12005W        W84298   5.291  25.215   3.164
12006W        W84299  25.067  16.259  11.953
12007W        W84300  36.585  23.588   4.598
12008W        W84301  43.864  36.091   3.357
12009W        W84302  32.571  24.149  12.419
12010W        W84303  31.411  11.345   3.706
12011W        W84304  12.318  11.366  10.918
12012W        W84305  39.026  25.173   4.128
12013W        W84306  24.717  16.590   2.667
12014W        W84307  34.580  29.025  10.449
12015W        W84308   6.392  37.380   4.672
12016W        W84309  23.992   6.903   1.249
12017W        W84310   5.803  16.609  14.469
12018W        W84311   3.261  44.801   1.907
12019W        W84312   4.802   8.356   1.782
12020W        W84313  38.906  18.255  14.909
12021W        W84314  26.697  24.982   2.725
12022W        W84315   1.836  24.564  13.386
12023W        W84316  30.624  39.515  11.119
12024W        W84317  10.686   9.193  14.774
12025W        W84318  41.901  25.155   3.641
12026W        W84319  35.954  21.652   1.326
12027W        W84320  37.021   6.755   3.198
12028W        W84321  30.657  32.472   1.718
12029W        W84322  36.010  30.426  11.057
12030W        W84323  26.609  40.547   1.832
12031W        W84324  33.932  30.647  14.783
12032W        W84325  37.984  22.663  13.370
12033W        W84326   5.856  26.693  11.435
12034W        W84327  27.610  17.565   0.934
12035W        W84328  26.674  28.569   2.314
12036W        W84329   8.309   9.879   3.700
12037W        W84330  35.883  14.181  14.475
12038W        W84331  42.833  21.692   2.184
12039W        W84332   6.789  26.521   4.297
12040W        W84333  43.008  33.117  10.128
12041W        W84334  38.424  31.141  13.331
12042W        W84335  41.536  13.812  11.442
12043W        W84336   0.785  39.389   3.867
12044W        W84337  43.966  32.616  12.543
12045W        W84338  32.127   8.256  13.051
12046W        W84339  26.488  29.618  13.343
12047W        W84340  18.128  19.061   0.457
12048W        W84341  32.624  11.657  12.393
12049W        W84342  29.494  27.661  11.027
12050W        W84343  24.068  26.018   2.221
12051W        W84344   9.378  39.866  14.029
12052W        W84345  32.519  29.008   0.799
12053W        W84346   9.237  21.563   4.136
12054W        W84347  26.469  26.171   2.716
12055W        W84348  27.124  36.562  12.994
12056W        W84349  25.065   7.789  12.458
12057W        W84350  33.494  40.453   1.923
12058W        W84351  11.341  27.519   4.231
12059W        W84352  14.799  28.463   2.791
12060W        W84353  41.345   5.208  10.576
12061W        W84354  23.010  24.694  14.922
12062W        W84355   9.649   1.260  11.107
12063W        W84356  16.764  23.689  12.030
12064W        W84357  33.422   6.746   0.330
12065W        W84358  27.661  21.562  14.454
12066W        W84359  27.952  38.380  11.109
12067W        W84360  16.794  41.356  11.113
12068W        W84361  12.253  21.657   4.167
12069W        W84362  27.671  37.422   2.244
12070W        W84363  21.651  38.903   0.429
12071W        W84364   4.902  39.909  13.963
12072W        W84365  41.466  18.631  10.045
12073W        W84366  35.022  37.050   3.755
12074W        W84367  42.387  38.863  14.842
12075W        W84368  36.078  15.752  14.472
12076W        W84369  43.911   1.266   0.335
12077W        W84370   1.290   1.927  11.976
12078W        W84371   3.752  17.690  13.793
12079W        W84372  27.011  14.221  14.028
12080W        W84373  22.744  20.270  13.547
12081W        W84374  26.180  27.601  10.475
12082W        W84375   4.419   4.854  10.888
12083W        W84376  13.319   9.220  14.856
12084W        W84377  11.788  34.987   3.662
12085W        W84378  18.702  31.108   9.582
12086W        W84379   5.880  40.349   3.657
12087W        W84380   2.281   2.299  11.109
12088W        W84381  23.197   4.751  11.600
12089W        W84382  14.829  31.599  13.311
12090W        W84383  21.737  25.574  12.044
12091W        W84384   3.780   6.222   4.771
12092W        W84385  21.022   4.429  10.902
12093W        W84386  43.964  31.536  11.565
12094W        W84387  15.768  28.625   1.407
12095W        W84388  18.696  36.555  11.997
12096W        W84389  28.537   3.857   0.965
12097W        W84390  40.999   0.972   4.785
12098W        W84391   3.821  32.581   4.614
12099W        W84392  31.080  15.178   1.767
12100W        W84393  34.415  15.732  11.589
12101W        W84394   4.915  30.519   4.221
12102W        W84395  18.153  19.191   3.294
12103W        W84396  32.960   6.238   4.650
12104W        W84397   0.892   0.905   1.242
12105W        W84398  35.914  34.095  13.516
12106W        W84399  36.982  32.452  13.870
12107W        W84400  39.548  19.159  14.938
12108W        W84401  31.414  39.847   4.725
12109W        W84402  41.820  36.501   3.173
12110W        W84403  30.425  10.351   4.637
12111W        W84404   9.786  23.613  12.041
12112W        W84405  17.218  25.543  14.503
12113W        W84406  27.170   5.881   4.333
12114W        W84407   7.800  21.238   1.283
12115W        W84408  30.025   1.767  13.878
12116W        W84409  20.701   3.799  14.337
12117W        W84410  27.490  21.048  14.512
12118W        W84411   5.352  23.707   1.736
12119W        W84412   0.885  40.353   1.760
12120W        W84413   6.224   9.341  10.509
12121W        W84414  29.101  19.643  10.505
12122W        W84415  22.674  28.066   2.255
12123W        W84416  20.765  27.673  12.054
12124W        W84417  31.409  10.297  10.417
12125W        W84418  17.084   5.718  13.053
12126W        W84419  41.889   0.427   0.840
12127W        W84420   2.888  13.195  10.540
12128W        W84421  27.191  28.979   3.317
12129W        W84422  17.297  17.305  12.833
12130W        W84423   4.740  22.546  11.905
12131W        W84424  44.366   6.781  14.760
12132W        W84425  41.310  20.679   1.838
12133W        W84426  29.634   1.820   3.702
12134W        W84427  21.071  29.449   1.288
12135W        W84428  33.988  39.961  14.281
12136W        W84429  25.115   1.271   4.221
12137W        W84430  29.951  17.112  13.989
12138W        W84431  16.165   7.358   4.304
12139W        W84432  19.591  13.664   1.416
12140W        W84433  25.476  11.705   1.334
12141W        W84434   6.322  16.315   2.347
12142W        W84435  36.066  15.705  14.885
12143W        W84436  23.123  42.417   3.768
12144W        W84437  23.009  12.737   4.820
12145W        W84438  10.331  41.423   3.734
12146W        W84439  26.036  29.066   3.739
12147W        W84440   6.901  27.672  11.010
12148W        W84441  39.494   6.721  11.564
12149W        W84442  44.417  17.149   9.991
12150W        W84443  18.553  32.955   3.262
12151W        W84444  14.205   8.345  12.046
12152W        W84445  20.209  42.490   2.815
12153W        W84446  32.053  29.621  10.577
12154W        W84447  10.798  16.166   1.276
12155W        W84448   4.766  19.633   9.925
12156W        W84449   8.671  20.255   3.250
12157W        W84450  30.074  18.584   3.380
12158W        W84451  27.636  34.446   2.361
12159W        W84452  29.629   2.724   0.758
12160W        W84453  33.503  11.275  12.357
12161W        W84454   9.358  15.804   3.677
12162W        W84455  44.350  21.541   0.859
12163W        W84456  33.883  31.922  11.055
12164W        W84457   4.294  13.779  11.938
12165W        W84458  13.789   1.819  10.890
12166W        W84459  36.389  21.097  11.867
12167W        W84460  30.649   2.235  14.420
12168W        W84461  16.265  15.286  11.052
12169W        W84462  14.591   2.421  12.049
12170W        W84463   1.938  32.576   1.247
12171W        W84464   9.703  30.426   1.860
12172W        W84465  24.978  16.597   3.321
12173W        W84466  36.463  19.123   3.697
12174W        W84467  18.111  19.696   0.360
12175W        W84468  39.957  40.932  14.005
12176W        W84469   8.323  23.075  12.035
12177W        W84470  25.649  24.612  10.941
12178W        W84471  42.344  37.838  13.481
12179W        W84472  29.017  12.658   4.639
12180W        W84473   7.779   2.837  12.356
12181W        W84474  26.059  43.335   1.347
12182W        W84475  34.937  19.099  10.560
12183W        W84476  16.248  17.216   1.273
12184W        W84477  22.128  26.133  12.946
12185W        W84478  37.340  20.139   2.199
12186W        W84479   4.275  35.960   1.873
12187W        W84480   5.902  36.588   3.274
12188W        W84481  28.114  12.809   5.321
12189W        W84482  44.271   3.812  11.126
12190W        W84483   5.693  26.635   4.257
12191W        W84484   9.686  20.086   2.700
12192W        W84485  37.996  30.135   4.609
12193W        W84486   6.893  22.630  13.955
12194W        W84487   1.394  21.096   2.298
12195W        W84488   5.696  25.189   2.716
12196W        W84489   6.249   0.966  13.012
12197W        W84490  39.545  25.684  13.022
12198W        W84491  20.694  10.791  10.453
12199W        W84492   5.835  34.931   1.231
12200W        W84493  18.625  24.647   9.941
12201W        W84494  36.932  27.466  12.840
12202W        W84495  21.547  40.497  13.875
12203W        W84496   6.268  29.165   2.863
12204W        W84497  39.330  42.486  10.889
12205W        W84498   0.847   0.872   2.883
12206W        W84499  39.364  21.754   4.272
12207W        W84500  11.663  43.365  13.897
12208W        W84501  15.664  28.174  13.424
12209W        W84502   6.298  14.766  10.600
12210W        W84503   1.826  33.950   3.385
12211W        W84504   1.418  31.559  11.116
12212W        W84505   2.341  19.182   0.822
12213W        W84506  38.932  14.754   0.477
12214W        W84507  27.143   3.877  12.350
12215W        W84508  13.702  18.600   0.297
12216W        W84509   9.814   9.279  12.045
12217W        W84510  17.239  11.669   2.400
12218W        W84511  20.647  32.637   4.195
12219W        W84512  19.706  42.807   3.741
12220W        W84513  44.766  29.073  11.591
12221W        W84514  16.082  43.419  14.507
12222W        W84515  30.553  44.267  12.568
12223W        W84516  41.951  42.023  13.885
12224W        W84517   8.752  33.403  11.037
12225W        W84518   4.379  18.251   3.214
12226W        W84519   3.415  34.038   1.923
12227W        W84520  41.919  33.967   4.626
12228W        W84521  31.116  21.232  11.862
12229W        W84522  17.183  26.482  12.861
12230W        W84523  23.682  16.251  11.079
12231W        W84524  44.298  35.855   1.822
12232W        W84525  19.663   9.754   2.393
12233W        W84526  20.033  39.026  14.920
12234W        W84527  32.999  25.022   4.645
12235W        W84528  25.644   4.280  12.522
12236W        W84529  18.247  22.565   1.300
12237W        W84530  32.936  36.081  11.918
12238W        W84531  13.266  31.454  12.888
12239W        W84532  44.993  43.005  13.508
12240W        W84533   6.285   8.215  13.505
12241W        W84534  40.521  22.043  10.890
12242W        W84535  24.580  18.179  14.837
12243W        W84536  43.302  17.640  12.427
12244W        W84537  23.034  39.362   2.236
12245W        W84538  40.380  20.646   3.735
12246W        W84539  36.371  37.039  12.065
12247W        W84540  33.028  27.161  14.365
12248W        W84541  33.426  10.269  13.003
12249W        W84542  19.774  16.755  12.947
12250W        W84543  26.513  34.935   2.663
12251W        W84544  22.183   5.214   4.185
12252W        W84545  10.829  27.504   4.659
12253W        W84546  20.185  31.075  13.821
12254W        W84547  42.395  10.691  10.532
12255W        W84548  33.401  14.679  14.003
12256W        W84549  13.771  11.779  11.424
12257W        W84550   3.926  16.797  11.906
12258W        W84551   7.359  26.513   2.338
12259W        W84552  25.504  33.613  12.007
12260W        W84553  37.837  24.204  10.545
12261W        W84554  43.329  20.219  14.970
12262W        W84555  21.628  12.221  14.759
12263W        W84556   4.845  20.702  14.297
12264W        W84557   5.726  15.247   0.889
12265W        W84558  11.668  24.197  11.043
12266W        W84559  15.149  11.314   3.656
12267W        W84560   0.928  11.343   9.921
12268W        W84561  25.094  20.643  13.389
12269W        W84562  24.153  30.055  11.129
12270W        W84563  35.917  24.625  13.962
12271W        W84564  41.958  31.466  12.440
12272W        W84565  36.476  41.499   1.329
12273W        W84566  13.638  44.829   4.783
12274W        W84567  37.057  29.009  12.919
12275W        W84568  20.646  12.630   4.122
12276W        W84569  39.894  20.690   1.268
12277W        W84570  15.771  12.694   4.118
12278W        W84571  17.652  43.353   4.160
12279W        W84572  31.636  27.675   1.887
12280W        W84573  38.539  16.606   1.930
12281W        W84574  16.139  14.760  14.959
12282W        W84575  17.248   8.180  12.920
12283W        W84576  21.740  24.218  12.832
12284W        W84577  32.931  39.548   3.190
12285W        W84578  31.900  12.169   1.316
12286W        W84579  13.606  34.582  11.428
12287W        W84580  24.639  10.663   1.794
12288W        W84581  42.790  41.528  14.856
12289W        W84582   6.251  15.650   0.790
12290W        W84583  42.338  26.529   4.152
12291W        W84584  11.242  32.491   3.685
12292W        W84585  19.089  18.096  10.969
12293W        W84586  33.969  44.006  14.455
12294W        W84587   1.739  27.523   0.754
12295W        W84588  31.621  33.885   0.842
12296W        W84589  38.378   5.747  14.946
12297W        W84590  43.796  44.844   1.916
12298W        W84591  39.537  44.383  10.636
12299W        W84592   3.295   7.275   4.336
12300W        W84593  13.274   4.705  14.464
12301W        W84594  29.579  44.499  14.352
12302W        W84595  24.485  38.015   3.273
12303W        W84596  36.463  12.155  14.903
12304W        W84597  15.681  34.036   5.119
12305W        W84598  19.763  15.151  13.500
12306W        W84599  20.165  27.622   2.210
12307W        W84600   9.299  23.679   3.678
12308W        W84601  29.939  32.516  12.930
12309W        W84602  37.521  21.112  13.928
12310W        W84603  38.485  28.969   4.601
12311W        W84604  13.111  30.544   2.712
12312W        W84605  21.095   6.768   3.690
12313W        W84606  25.188  32.478   1.212
12314W        W84607  14.142  43.411  14.762
12315W        W84608  41.846  24.602   2.743
12316W        W84609  31.450  20.690   3.679
12317W        W84610  36.847   8.287  12.054
12318W        W84611  37.981  27.628  13.055
12319W        W84612  27.163  34.555  12.568
12320W        W84613  16.705  39.919  14.801
12321W        W84614  16.257  20.624  12.397
12322W        W84615  17.780  42.017  14.492
12323W        W84616  16.270  21.573  11.480
12324W        W84617  20.068  18.705   0.906
12325W        W84618  24.522  33.588   1.339
12326W        W84619   2.882  20.225  14.399
12327W        W84620  24.043   2.897   0.875
12328W        W84621  14.328  27.690  14.767
12329W        W84622   4.297  11.730   4.618
12330W        W84623   1.440  32.397  13.027
12331W        W84624  20.256  36.450   4.349
12332W        W84625  43.493  30.142  13.043
12333W        W84626  38.473   9.187  14.831
12334W        W84627  20.255   3.938  14.805
12335W        W84628  39.981   3.878   0.324
12336W        W84629   8.327  27.650   2.371
12337W        W84630  16.666  12.129  11.520
12338W        W84631  44.898  34.436   1.906
12339W        W84632  18.673  36.912  10.476
12340W        W84633  11.724  40.976  12.022
12341W        W84634  29.582  34.514  11.950
12342W        W84635  31.066   5.735   3.155
12343W        W84636   5.911  17.195  12.374
12344W        W84637  25.190  19.755  12.399
12345W        W84638  33.111  11.304  14.775
12346W        W84639  17.703  27.117  11.081
12347W        W84640  32.483   6.191   1.377
12348W        W84641   3.342  18.755   3.664
12349W        W84642  37.853  37.071   4.599
12350W        W84643  44.791   4.425  14.895
12351W        W84644  14.139  29.662  14.462
12352W        W84645   9.331  17.240   3.672
12353W        W84646   7.322  14.253  10.510
12354W        W84647  25.686   2.942  11.607
12355W        W84648  27.546  36.350   4.783
12356W        W84649  15.271  31.572   0.866
12357W        W84650  21.657   3.269   2.419
12358W        W84651   2.897  40.428  12.909
12359W        W84652   1.351  13.619   4.685
12360W        W84653  32.497  28.949   2.232
12361W        W84654   8.260  10.793   2.372
12362W        W84655  14.095  41.912   0.274
12363W        W84656   4.312  40.836   1.919
12364W        W84657   1.734   7.320  12.927
12365W        W84658  28.159  19.062   3.775
12366W        W84659  12.812  16.570  14.410
12367W        W84660   7.866  43.391  10.947
12368W        W84661  15.091  43.366   2.284
12369W        W84662  37.998  42.514  13.018
12370W        W84663  37.512  22.530  13.333
12371W        W84664   2.291  41.373   1.865
12372W        W84665  38.027  27.043  12.450
12373W        W84666  18.722  36.534  12.469
12374W        W84667  20.119  33.429  10.066
12375W        W84668  24.221  42.340  14.337
12376W        W84669  15.280   7.912   3.694
12377W        W84670  39.868  14.615  13.903
12378W        W84671  13.747  20.622  12.398
12379W        W84672   0.853  13.169   0.791
12380W        W84673  19.140  29.669   0.279
12381W        W84674  15.584  30.474   4.305
12382W        W84675  17.701  17.746   1.717
12383W        W84676  43.414  29.471   0.870
12384W        W84677   9.717  13.173  12.077
12385W        W84678  33.922   5.288   1.223
12386W        W84679  23.668  43.357   2.325
12387W        W84680  15.672  22.059   9.961
12388W        W84681  17.683  38.823   4.729
12389W        W84682  17.102  43.975   1.315
12390W        W84683  33.485   7.213   3.819
12391W        W84684   3.341  20.743  12.551
12392W        W84685  28.057  34.895   4.625
12393W        W84686  39.047  30.080  10.590
12394W        W84687   1.933  37.945   3.838
12395W        W84688  31.019   9.374  12.041
12396W        W84689  11.270  17.165  10.893
12397W        W84690  31.112  14.633  13.022
12398W        W84691  43.845  21.051   1.302
12399W        W84692   4.706  41.423  12.996
12400W        W84693  16.154  43.846  11.462
12401W        W84694   6.770  33.977   4.261
12402W        W84695   5.411   9.705  12.036
12403W        W84696  25.144  13.213   1.316
12404W        W84697  24.648  25.549   4.624
12405W        W84698  10.281  37.538  12.548
12406W        W84699   4.244  26.972   3.260
12407W        W84700  26.686  20.549   3.732
12408W        W84701  32.090  15.150   2.722
12409W        W84702  22.233  36.032   0.379
12410W        W84703  20.074  15.143  13.344
12411W        W84704   0.318  25.561   4.736
12412W        W84705  30.981   5.255   0.476
12413W        W84706  44.394  21.095  10.971
12414W        W84707  39.865   6.266   3.357
12415W        W84708   0.320  44.303   1.783
12416W        W84709  24.666   6.379   4.153
12417W        W84710  18.238  40.039  12.057
12418W        W84711  33.885  27.082  13.997
12419W        W84712  21.219  17.557   4.799
12420W        W84713  41.422  36.497   4.302
12421W        W84714  33.999  22.668   3.859
12422W        W84715  41.028  44.793  13.948
12423W        W84716   4.755  11.644   2.888
12424W        W84717  19.569  35.063   1.865
12425W        W84718  22.208   2.306   3.236
12426W        W84719  27.614   9.365   3.366
12427W        W84720  39.425  11.864   3.162
12428W        W84721  23.208  37.932   1.333
12429W        W84722  36.015   2.919  13.325
12430W        W84723   7.181  13.718  11.976
12431W        W84724  12.210   2.408  14.021
12432W        W84725  40.359  26.459  11.010
12433W        W84726  12.852  37.055  11.903
12434W        W84727  19.732  27.945  10.438
12435W        W84728  41.817  32.005  10.416
12436W        W84729  23.621  39.010   0.856
12437W        W84730  14.145  33.573  14.463
12438W        W84731  27.099   2.922  12.061
12439W        W84732  41.969   8.807   4.761
12440W        W84733   2.841  43.278  11.114
12441W        W84734  17.118  27.196  11.027
12442W        W84735  42.425  28.497   4.353
12443W        W84736  28.000  28.551  10.480
12444W        W84737  29.057  22.120  10.145
12445W        W84738  38.988  37.451   2.364
12446W        W84739   0.424  43.880   4.778
12447W        W84740  23.661  28.023   1.411
12448W        W84741  15.730  11.679   2.188
12449W        W84742  37.361  14.110   2.808
12450W        W84743  41.316   6.809  12.952
12451W        W84744  25.506  25.132   5.134
12452W        W84745  44.310   2.768   3.156
12453W        W84746  35.548  31.118  14.394
12454W        W84747   6.187  18.187  14.887
12455W        W84748   7.911  10.750  12.492
12456W        W84749  35.448  17.573  12.062
12457W        W84750  28.542  12.775   0.292
12458W        W84751  39.475  17.751  13.427
12459W        W84752  39.885   7.219   3.773
12460W        W84753   1.238  27.964   0.859
12461W        W84754   9.326   6.200   5.184
12462W        W84755  15.223   8.740   1.403
12463W        W84756  20.118  21.592   9.960
12464W        W84757  25.215  39.050   0.922
12465W        W84758  17.752  13.663   1.322
12466W        W84759  41.475   2.911  12.871
12467W        W84760  12.229  28.472   0.411
12468W        W84761  38.985  21.719  12.832
12469W        W84762   7.274  20.037  11.439
12470W        W84763  13.264  11.210   3.645
12471W        W84764  38.948  19.282  10.454
12472W        W84765  30.021  16.668  14.493
12473W        W84766  39.869  24.691  10.473
12474W        W84767  21.139  31.639  11.913
12475W        W84768  20.167  44.870  11.087
12476W        W84769  20.567  44.800  11.429
12477W        W84770  25.714  11.286  11.593
12478W        W84771  28.617  27.471  12.514
12479W        W84772  10.870  30.140  13.854
12480W        W84773  19.689   2.333  12.440
12481W        W84774   7.698  35.408   3.702
12482W        W84775  14.687  30.157   2.684
12483W        W84776  20.109  16.246   4.664
12484W        W84777  24.012  24.484   1.265
12485W        W84778  36.349  36.507   0.442
12486W        W84779   2.416  41.791   4.757
12487W        W84780  27.462  31.610   0.892
12488W        W84781  25.201  44.911   4.230
12489W        W84782  26.116  39.480  13.870
12490W        W84783  43.975  10.219   3.213
12491W        W84784   3.800   2.830   4.269
12492W        W84785   1.916  34.556  13.523
12493W        W84786   0.773  18.692   2.836
12494W        W84787   5.770  15.711  11.068
12495W        W84788  12.359  23.054  11.471
12496W        W84789  19.139  13.724  11.909
12497W        W84790  40.960  25.579  12.523
12498W        W84791  44.924  20.031   0.849
12499W        W84792  14.835   9.174  10.955
12500W        W84793  30.453  18.774  13.465
12501W        W84794  27.089  41.320   0.941
12502W        W84795  26.555  32.055   2.228
12503W        W84796  16.180  30.594   1.843
12504W        W84797  17.196   2.848   4.288
12505W        W84798  19.637  22.246   3.836
12506W        W84799  11.769  32.102  14.796
12507W        W84800  44.433  19.569   0.367
12508W        W84801   9.799   9.725  12.439
12509W        W84802   8.383  40.365   2.389
12510W        W84803   3.801  33.604   2.712
12511W        W84804  13.215  39.932  13.370
12512W        W84805   9.858  36.914  10.595
12513W        W84806  16.757  27.642  12.967
12514W        W84807  15.711  44.871   3.836
12515W        W84808  19.146  13.300  12.490
12516W        W84809   4.352  39.369  13.370
12517W        W84810  33.069  32.067   3.683
12518W        W84811  26.559  23.236   9.616
12519W        W84812  10.640  11.805   4.304
12520W        W84813  13.247  23.133  14.345
12521W        W84814  14.188  41.009   2.321
12522W        W84815  23.574  30.121  14.979
12523W        W84816  12.317  33.482  10.459
12524W        W84817  34.114  30.986   0.770
12525W        W84818   0.465  41.950   4.129
12526W        W84819  43.472  18.051  12.523
12527W        W84820   4.269  14.801  12.504
12528W        W84821  10.833  21.641  12.869
12529W        W84822  16.613   1.785   3.668
12530W        W84823  44.768  19.548   2.783
12531W        W84824  14.144  37.358   2.346
12532W        W84825  18.201  31.961   3.795
12533W        W84826  25.117  22.566  11.949
12534W        W84827  35.949  32.456  11.542
12535W        W84828  20.033  14.668   2.825
12536W        W84829  29.552   0.752   3.364
12537W        W84830  42.509   7.807   1.762
12538W        W84831   3.275  13.819  12.998
12539W        W84832  41.013   7.320   0.350
12540W        W84833  25.044  42.893   0.388
12541W        W84834   5.730  41.515   0.947
12542W        W84835   4.808  40.829  11.524
12543W        W84836   1.260  11.775   0.808
12544W        W84837  43.291   8.334  11.886
12545W        W84838  15.211  19.186  10.523
12546W        W84839   6.301   5.857  14.298
12547W        W84840  28.041  19.620  14.438
12548W        W84841  41.853  30.615   1.731
12549W        W84842  40.972  39.031   2.216
12550W        W84843   7.382  11.332   3.712
12551W        W84844  41.957   5.356   0.366
12552W        W84845  40.443  35.391  13.516
12553W        W84846  40.436  24.994  14.359
12554W        W84847  21.560  33.008  13.801
12555W        W84848  39.948   9.270   2.259
12556W        W84849  34.486  41.317  11.424
12557W        W84850   8.351  26.688   3.761
12558W        W84851  37.385  38.888   4.143
12559W        W84852  24.167  35.578  12.087
12560W        W84853  26.583   1.253   4.187
12561W        W84854  32.030  14.113   4.316
12562W        W84855  39.854  31.543  12.020
12563W        W84856  34.019   6.724   4.282
12564W        W84857   8.219  28.136   4.148
12565W        W84858  38.046  16.279  12.347
12566W        W84859  21.747   8.794   0.941
12567W        W84860  24.123  18.244  14.352
12568W        W84861  24.027  44.495  10.490
12569W        W84862   8.389   6.359  12.482
12570W        W84863  19.237   8.709   1.210
12571W        W84864  18.279   8.214   4.776
12572W        W84865  29.487  43.476  13.543
12573W        W84866   4.811   9.739  13.855
12574W        W84867   9.820  39.060   3.288
12575W        W84868  15.168  20.107   2.812
12576W        W84869  30.579  23.144  14.381
12577W        W84870  17.755  12.337  13.819
12578W        W84871  36.533  28.028   2.290
12579W        W84872  44.960  21.168   1.314
12580W        W84873  38.409  11.849   2.209
12581W        W84874  28.463  35.933  10.912
12582W        W84875  37.384  19.763  11.380
12583W        W84876  37.501  12.659  12.039
12584W        W84877   8.235  10.860  10.629
12585W        W84878  43.968   0.482   0.288
12586W        W84879  39.029  23.220   5.216
12587W        W84880  33.384   8.705  10.515
12588W        W84881  22.575  31.480  12.845
12589W        W84882  11.342  36.845   0.852
12590W        W84883  33.607   2.721  13.876
12591W        W84884  15.305  21.236  12.865
12592W        W84885   4.772  33.476   4.828
12593W        W84886  13.230  38.514   0.831
12594W        W84887   2.957   8.825   3.271
12595W        W84888  27.173  41.982  14.861
12596W        W84889  42.345  34.520   9.441
12597W        W84890  37.038  35.011   2.742
12598W        W84891   1.396  43.301  12.053
12599W        W84892  14.128  41.885  13.497
12600W        W84893  34.590   7.769  13.533
12601W        W84894  28.078  23.121   4.302
12602W        W84895  37.086   9.336  10.576
12603W        W84896  16.627   0.806   1.432
12604W        W84897  11.216  24.593   2.297
12605W        W84898  11.235  41.002   2.886
12606W        W84899  28.945  38.885  11.047
12607W        W84900   1.838  10.853   2.178
12608W        W84901  16.081  22.198   2.846
12609W        W84902  20.048  28.983   1.391
12610W        W84903  28.074  16.754   5.284
12611W        W84904   6.717  16.132   4.308
12612W        W84905  38.838  33.007  10.501
12613W        W84906  28.987  22.578  11.613
12614W        W84907   1.920  19.236   0.332
12615W        W84908   7.869   0.918  11.993
12616W        W84909  13.697   5.241  14.764
12617W        W84910   0.762  24.188  14.932
12618W        W84911  15.108  23.582   1.399
12619W        W84912  29.108  17.572   3.832
12620W        W84913   0.250  13.713   0.798
12621W        W84914  41.481   9.184   1.744
12622W        W84915  16.668  30.131   1.272
12623W        W84916  22.536  23.586   3.284
12624W        W84917  39.473  11.856  12.556
12625W        W84918  17.078  24.524   2.779
12626W        W84919  40.983  33.959   3.682
12627W        W84920   9.787  21.598   2.378
12628W        W84921  21.633  36.360  13.971
12629W        W84922  43.514  23.501   4.113
12630W        W84923   0.271  38.366   2.874
12631W        W84924  40.929  35.963  10.986
12632W        W84925  18.716  33.894  13.325
12633W        W84926   4.325  40.912   1.372
12634W        W84927  39.988  29.464  13.354
12635W        W84928   6.880  34.372  13.843
12636W        W84929  43.467   3.391  10.602
12637W        W84930   8.874  40.806  14.312
12638W        W84931   4.837  44.879   4.278
12639W        W84932  39.975  26.616   3.364
12640W        W84933  20.195  32.117   4.126
12641W        W84934  17.707  12.296   4.139
12642W        W84935   8.815  27.638   4.804
12643W        W84936  37.924  15.270   3.374
12644W        W84937   5.272   1.839  13.051
12645W        W84938  44.821  20.615  12.853
12646W        W84939  24.141  24.668   3.647
12647W        W84940  32.407  14.596   0.767
12648W        W84941  39.551   2.825  14.351
12649W        W84942   5.802  33.385   0.288
12650W        W84943  24.496   6.244  10.551
12651W        W84944  44.475   0.873   0.729
12652W        W84945  14.287  24.186  14.904
12653W        W84946   7.384  25.988   2.771
12654W        W84947  10.294  21.555  11.938
12655W        W84948  12.663   9.824  13.062
12656W        W84949  29.985  12.852  14.307
12657W        W84950   9.860  40.026  13.528
12658W        W84951  10.845  29.957   2.291
12659W        W84952  28.998  10.194   2.812
12660W        W84953  41.901  27.669  12.533
12661W        W84954  25.072  41.023  13.950
12662W        W84955  17.587  31.457  12.832
12663W        W84956   5.909  34.468  14.901
12664W        W84957  19.041  38.488   2.290
12665W        W84958  10.700  38.332  13.331
12666W        W84959  11.367  18.757  10.559
12667W        W84960  19.054  23.150   2.722
12668W        W84961   5.904  22.523  15.000
12669W        W84962  20.038  18.267   3.248
12670W        W84963  29.120  22.619  13.797
12671W        W84964  27.953   4.698   3.791
12672W        W84965  20.602  37.534  13.912
12673W        W84966  32.498   1.813  11.529
12674W        W84967  16.573  34.576   4.119
12675W        W84968   3.798  17.663   3.212
12676W        W84969  34.464   9.192   1.292
12677W        W84970  21.072  27.574   2.775
12678W        W84971  14.127  30.618  14.843
12679W        W84972  37.448  33.059   0.339
12680W        W84973  29.464  43.008   1.313
12681W        W84974   0.367  15.763   4.234
12682W        W84975  15.231  31.477  12.057
12683W        W84976  11.768  20.141   4.657
12684W        W84977  21.621   2.752   0.890
12685W        W84978   2.451  33.586   4.256
12686W        W84979  34.010  36.070   1.757
12687W        W84980  42.966   2.945  14.417
12688W        W84981  41.032  41.965  14.438
12689W        W84982  10.214  38.515   9.939
12690W        W84983  39.410  31.507   3.786
12691W        W84984  40.401  15.777  12.841
12692W        W84985   3.329  26.606  14.808
12693W        W84986  14.625  24.140  12.894
12694W        W84987   0.476   7.210   4.314
12695W        W84988  33.520  31.503  11.525
12696W        W84989  19.535   0.809   4.184
12697W        W84990  19.080  20.060   3.673
12698W        W84991   2.808  23.502  13.511
12699W        W84992  29.533  44.001  13.326
12700W        W84993  36.430   5.717  14.891
12701W        W84994   7.209  44.351   3.689
12702W        W84995  40.936  20.647   3.379
12703W        W84996  42.948  25.059   2.721
12704W        W84997  40.908  10.857   3.772
12705W        W84998  34.076  24.482   3.264
12706W        W84999  19.079  42.957   1.723
12707W        W85000   6.257  42.880   1.763
12708W        W85001   8.304  40.454  11.609
12709W        W85002   5.916   5.384  10.439
12710W        W85003  35.486  15.249  13.446
12711W        W85004  26.017  29.131  14.315
12712W        W85005  13.287  23.614   3.293
12713W        W85006  26.602  20.743   4.325
12714W        W85007  31.411  44.862   2.206
12715W        W85008  33.988  11.148  13.513
12716W        W85009  23.731  25.217  11.118
12717W        W85010   0.961  28.071   4.830
12718W        W85011   2.906  22.541  10.563
12719W        W85012   9.830  14.311   1.244
12720W        W85013   6.204  11.249  13.323
12721W        W85014  39.320   9.731  12.378
12722W        W85015   9.658   1.894  11.443
12723W        W85016  34.900  33.113  10.635
12724W        W85017   9.390   1.330  14.304
12725W        W85018  29.483   8.716   0.297
12726W        W85019  44.861   2.924  13.903
12727W        W85020  43.913   4.303   1.730
12728W        W85021  27.150  38.433  11.969
12729W        W85022  26.508  13.805  11.469
12730W        W85023  29.446   8.213   3.152
12731W        W85024   8.406  21.713   3.160
12732W        W85025  43.864  29.171  11.077
12733W        W85026  30.014  36.051   4.203
12734W        W85027  42.360  19.098   3.227
12735W        W85028  13.132   3.229   1.324
12736W        W85029  14.285  44.489   1.286
12737W        W85030   5.868  29.023  13.968
12738W        W85031  39.818   7.716   3.808
12739W        W85032  31.913   6.295  13.487
12740W        W85033  14.246  23.156  14.968
12741W        W85034  28.148   6.801  10.561
12742W        W85035  14.633  42.882   0.431
12743W        W85036  34.087  33.972  10.467
12744W        W85037  25.050   3.341  14.018
12745W        W85038   6.315  23.640  14.863
12746W        W85039   5.759   7.270  12.481
12747W        W85040  26.036  10.724   3.817
12748W        W85041  20.720  18.271   3.661
12749W        W85042  35.529  25.530   4.746
12750W        W85043  36.431  18.250  10.509
12751W        W85044  43.478  36.488   1.778
12752W        W85045  16.111  27.595   0.405
12753W        W85046  16.693  28.117  10.638
12754W        W85047   2.232  29.571   2.365
12755W        W85048  28.635  13.104  10.462
12756W        W85049  21.631  27.051  13.431
12757W        W85050  33.951  21.252   2.360
12758W        W85051  18.090  31.926   5.232
12759W        W85052   7.712  39.904  11.577
12760W        W85053  20.648  26.643   4.604
12761W        W85054  26.564  36.516   0.384
12762W        W85055  33.400  37.002   0.266
12763W        W85056  19.124   9.183  10.990
12764W        W85057  19.074  22.146  13.440
12765W        W85058  38.548   2.273   1.734
12766W        W85059   9.698  27.015  12.562
12767W        W85060  20.669  28.520   0.782
12768W        W85061  31.904  43.968   1.279
12769W        W85062  10.263  29.528   2.690
12770W        W85063  30.126   3.955   0.928
12771W        W85064  24.661   9.779  13.356
12772W        W85065   1.415  29.111  13.433
12773W        W85066  18.673  43.959   0.362
12774W        W85067  22.133  37.906   2.217
12775W        W85068  21.661   5.225   1.805
12776W        W85069   1.777  20.252  14.506
12777W        W85070  39.448   3.955   0.916
12778W        W85071  26.955  44.877  13.848
12779W        W85072  30.106  32.121   2.725
12780W        W85073  38.501  42.795   0.915
12781W        W85074  41.521  41.884  11.084
12782W        W85075   8.174  14.279   2.677
12783W        W85076  43.968  19.257   5.775
12784W        W85077  28.116   9.714   2.709
12785W        W85078   9.686   2.967   1.909
12786W        W85079  13.208  17.705   3.710
12787W        W85080  10.250  44.881  10.541
12788W        W85081  44.890  31.442   3.869
12789W        W85082  38.527  16.789   0.901
12790W        W85083   8.322   2.265  13.917
12791W        W85084  28.969   5.718   2.849
12792W        W85085  12.311  15.268  12.993
12793W        W85086   5.334  40.355   1.711
12794W        W85087   7.848  38.865  13.062
12795W        W85088  35.015  10.364  12.547
12796W        W85089  19.232   4.233   3.822
12797W        W85090  10.253  32.898  12.936
12798W        W85091  43.479   5.254  12.032
12799W        W85092  10.298  32.490   0.918
12800W        W85093   1.906  25.198  13.821
12801W        W85094  33.556  17.226   3.854
12802W        W85095   6.294  38.433   1.850
12803W        W85096  27.578   9.793  11.380
12804W        W85097   4.217   0.255   4.674
12805W        W85098  29.657  25.048   0.364
12806W        W85099   1.744  34.916   0.401
12807W        W85100  28.575  26.987  12.346
12808W        W85101  13.640  42.432   3.364
12809W        W85102  27.097  43.832   2.737
12810W        W85103   1.870  24.021  14.499
12811W        W85104  43.447   0.949   3.783
12812W        W85105  22.580   6.385   0.967
12813W        W85106   0.985  39.846   0.467
12814W        W85107  20.203  16.812   1.694
12815W        W85108  23.233  35.106   2.708
12816W        W85109  44.892  35.910  11.554
12817W        W85110  25.625  31.977   1.740
12818W        W85111  41.363  12.785   4.162
12819W        W85112   6.700  21.098  11.905
12820W        W85113  23.538  23.639  13.964
12821W        W85114  25.668   8.709   1.291
12822W        W85115   4.244  16.692   2.812
12823W        W85116  25.505  12.204   3.196
12824W        W85117  37.565  30.530  10.502
12825W        W85118   7.836   1.459  13.868
12826W        W85119  11.735  44.298   4.771
12827W        W85120  44.955   4.360   0.753
12828W        W85121  28.022   4.334   2.355
12829W        W85122  11.223  15.656  14.484
12830W        W85123  26.612  37.376   4.149
12831W        W85124  11.862  42.856  11.505
12832W        W85125  11.796  35.556  14.017
12833W        W85126  42.289  23.516   0.462
12834W        W85127  31.067  26.593  10.582
12835W        W85128  33.495  23.579  12.553
12836W        W85129  38.902  36.844  12.881
12837W        W85130   5.811  34.046   3.856
12838W        W85131  19.118  41.408   1.266
12839W        W85132  14.242  22.550  14.964
12840W        W85133  13.275  22.501   3.273
12841W        W85134  39.029  17.182  10.994
12842W        W85135  33.384  41.800  11.460
12843W        W85136  13.825  32.532  10.899
12844W        W85137  29.972   8.763  10.414
12845W        W85138   3.819  39.470  14.896
12846W        W85139  26.151  17.081  13.952
12847W        W85140  25.977   3.943   0.730
12848W        W85141  24.139  38.962   5.262
12849W        W85142  30.158  19.691  14.934
12850W        W85143  43.357   5.216   3.299
12851W        W85144  10.264  37.013  11.889
12852W        W85145  44.373  36.002   4.621
12853W        W85146   6.247  25.593  14.015
12854W        W85147   4.897   2.754  10.917
12855W        W85148   1.457  23.226   4.808
12856W        W85149   1.873  29.500   3.369
12857W        W85150  33.470   9.775  12.496
12858W        W85151  14.171   1.340  10.926
12859W        W85152  18.258   5.340   2.720
12860W        W85153  28.007   7.904  10.605
12861W        W85154   1.402  19.778   4.702
12862W        W85155  41.956  43.888  11.432
12863W        W85156   7.715  28.999   0.302
12864W        W85157   0.803  15.134  12.878
12865W        W85158  40.916  41.368   3.745
12866W        W85159  19.193  12.335  14.349
12867W        W85160  32.983  19.695   3.687
12868W        W85161  31.494  10.354  12.385
12869W        W85162   5.829  36.581   0.254
12870W        W85163  28.519  40.402   2.220
12871W        W85164  39.537  32.954  11.890
12872W        W85165   5.338  38.533   0.789
12873W        W85166  26.970  33.883  14.846
12874W        W85167  23.033   9.344   4.647
12875W        W85168  37.988  42.969   1.420
12876W        W85169  38.857  32.492   4.208
12877W        W85170  16.083  32.970   0.364
12878W        W85171  44.274  15.129  14.919
12879W        W85172  37.973  39.550  14.285
12880W        W85173  19.601  43.347  12.489
12881W        W85174  23.215   0.947  12.541
12882W        W85175  30.043  30.093   4.116
12883W        W85176   9.253   1.760  12.420
12884W        W85177  41.459  17.152  11.115
12885W        W85178   5.417  17.220   1.768
12886W        W85179  21.158  25.054   0.735
12887W        W85180  19.236   5.245   4.776
12888W        W85181  40.536  13.121  14.461
12889W        W85182  26.073  16.650   3.829
12890W        W85183  20.545  24.668   4.218
12891W        W85184  25.040   3.229   1.437
12892W        W85185  18.630   3.417   2.202
12893W        W85186  36.075  34.068  12.856
12894W        W85187  22.037   2.932  10.065
12895W        W85188   6.377  19.735  10.993
12896W        W85189  32.061  26.674   3.758
12897W        W85190  40.415  23.688  11.430
12898W        W85191  14.289   8.350   4.147
12899W        W85192   1.895  32.885  12.385
12900W        W85193  27.494  38.951  13.810
12901W        W85194  41.361  16.589  14.950
12902W        W85195  16.112   7.272   5.179
12903W        W85196   2.292  43.270   0.769
12904W        W85197  34.108  44.809  10.920
12905W        W85198  27.551  17.289  12.080
12906W        W85199  23.553  15.609  13.475
12907W        W85200  40.870  23.193  11.574
12908W        W85201  14.161   6.841   0.825
12909W        W85202  28.944   3.361   3.228
12910W        W85203  14.722   3.429  10.608
12911W        W85204   9.153  32.499   2.244
12912W        W85205  14.212  42.883  14.977
12913W        W85206  24.226  43.271   1.756
12914W        W85207  16.750  33.381   0.919
12915W        W85208  27.944  40.008   3.845
12916W        W85209  21.511  22.123  10.932
12917W        W85210  13.141  33.904  12.032
12918W        W85211  20.533  26.976  12.833
12919W        W85212  34.532  29.564   0.943
12920W        W85213   7.710  41.902  11.468
12921W        W85214  35.417  23.549   4.773
12922W        W85215  16.164  15.222   3.849
12923W        W85216  42.028  31.912  14.461
12924W        W85217   7.360  41.414  14.852
12925W        W85218  42.922  40.867   3.703
12926W        W85219  29.571  32.017  11.539
12927W        W85220  18.760   2.308   0.381
12928W        W85221  39.883  32.979   0.939
12929W        W85222  13.776  39.014  13.375
12930W        W85223  20.115   9.822  11.086
12931W        W85224  19.111  32.907   1.333
12932W        W85225  44.491  36.587  10.544
12933W        W85226  30.060  33.993  13.364
12934W        W85227  12.314  27.050   0.791
12935W        W85228   7.716  34.551   1.819
12936W        W85229   9.177  14.273   3.344
12937W        W85230  15.173  25.040   4.688
12938W        W85231  14.626  32.133   1.374
12939W        W85232   9.341  27.950  13.948
12940W        W85233  15.684  43.406  13.045
12941W        W85234   8.728  36.508  14.484
12942W        W85235  24.157   0.951   2.715
12943W        W85236   4.771  15.767  13.009
12944W        W85237   6.292   2.843   4.158
12945W        W85238  30.529  37.879   5.085
12946W        W85239  29.105  32.507   2.682
12947W        W85240  28.168  41.894  10.041
12948W        W85241  23.735   2.321   2.384
12949W        W85242   1.929  14.727  11.058
12950W        W85243  38.332  17.182  12.406
12951W        W85244   6.426   0.337  13.928
12952W        W85245  44.884   7.720   1.220
12953W        W85246   6.890   4.837  11.453
12954W        W85247  13.122  30.464  11.576
12955W        W85248  34.396  22.120  14.932
12956W        W85249  38.909  13.248  10.414
12957W        W85250  16.105  17.207  10.408
12958W        W85251   9.882  43.838   4.164
12959W        W85252  28.140   6.909  13.383
12960W        W85253   5.196  37.383  14.861
12961W        W85254  31.605  18.646   4.686
12962W        W85255  34.918   9.362   4.134
12963W        W85256  24.555   8.702  14.407
12964W        W85257  28.104  44.469  14.924
12965W        W85258   9.696  23.644  13.312
12966W        W85259  33.995   2.353   0.357
12967W        W85260  44.471  25.187  12.980
12968W        W85261  21.726  22.219   4.199
12969W        W85262   2.946  11.224   3.785
12970W        W85263  28.002  21.086   2.672
12971W        W85264  33.985  44.779   0.400
12972W        W85265  34.569  22.656  12.057
12973W        W85266   8.867  31.467  11.513
12974W        W85267  36.579  33.623   3.811
12975W        W85268  19.280  18.058   2.776
12976W        W85269  12.791  12.210  14.870
12977W        W85270  17.149  19.694  13.986
12978W        W85271  26.040  10.642   0.737
12979W        W85272  33.423  33.936  12.854
12980W        W85273  16.760  15.110   1.213
12981W        W85274   4.266  12.762  12.064
12982W        W85275  21.560  10.848   3.254
12983W        W85276   7.305  42.810   1.409
12984W        W85277  44.389  14.282   0.323
12985W        W85278  40.480  29.620   3.832
12986W        W85279  25.646  31.523  12.864
12987W        W85280   9.285   2.403   1.234
12988W        W85281  27.484   9.656  11.884
12989W        W85282  37.372   0.259  14.965
12990W        W85283  41.911   3.442  11.516
12991W        W85284  19.701  13.786  13.838
12992W        W85285  24.635   8.326  13.010
12993W        W85286  25.545  18.686   2.316
12994W        W85287   1.477   6.246   2.698
12995W        W85288  11.758  19.572  10.104
12996W        W85289  32.904  14.669   4.128
12997W        W85290   3.823  13.843  14.404
12998W        W85291   3.320  26.508  11.976
12999W        W85292  38.364   1.312  11.412
13000W        W85293   6.799  43.358  14.924
13001W        W85294  42.944  38.933  11.388
13002W        W85295   6.771   4.832  12.826
13003W        W85296  28.555  28.439  14.910
13004W        W85297  43.375  34.427  12.411
13005W        W85298  12.341  36.450  13.870
13006W        W85299  35.383  22.669  10.472
13007W        W85300   2.762   6.269   3.867
13008W        W85301  44.331   6.250  13.518
13009W        W85302  41.020  26.000  10.477
13010W        W85303  28.977  26.063  10.999
13011W        W85304   7.741  24.144  12.835
13012W        W85305  28.578  33.446  14.826
13013W        W85306  36.998  12.672  14.775
13014W        W85307  21.065  18.264  11.554
13015W        W85308   4.724  24.691  10.018
13016W        W85309  29.442  34.037   0.451
13017W        W85310  44.482  19.660   0.779
13018W        W85311   5.836  42.862   4.647
13019W        W85312  11.741  44.469   2.358
13020W        W85313  37.339  10.792   0.789
13021W        W85314  25.699  31.599   4.143
13022W        W85315  10.640  43.977   2.361
13023W        W85316  38.874  19.061   2.198
13024W        W85317  37.052  40.955   4.723
13025W        W85318   5.330  22.018   1.801
13026W        W85319  20.138   9.811   0.375
13027W        W85320   3.776   3.761   2.383
13028W        W85321   5.368  35.421   4.825
13029W        W85322   7.746  12.236  13.881
13030W        W85323  19.595   4.293   2.408
13031W        W85324  37.059  40.855  14.386
13032W        W85325  15.260  42.925   1.366
13033W        W85326  17.177  18.135   0.915
13034W        W85327  37.982  15.799  14.926
13035W        W85328   1.311  10.797  12.440
13036W        W85329  11.140   0.771  13.870
13037W        W85330  23.030  14.153   2.299
13038W        W85331  39.913  18.777   2.206
13039W        W85332  37.368  20.573  14.320
13040W        W85333  33.946  11.659  12.975
13041W        W85334   0.463  25.484  10.548
13042W        W85335   6.420  35.362   4.145
13043W        W85336  28.586  40.517  12.367
13044W        W85337  17.100  16.080   3.223
13045W        W85338  26.616  28.105   5.106
13046W        W85339  38.533  40.391   2.841
13047W        W85340   6.854  25.542  10.475
13048W        W85341   7.710  15.295  14.343
13049W        W85342  30.657   4.409  13.042
13050W        W85343  33.084   6.379   0.730
13051W        W85344   2.225  19.192  12.060
13052W        W85345   2.321   9.655  11.035
13053W        W85346  24.107  29.127  14.286
13054W        W85347  37.423  27.690   0.948
13055W        W85348  32.001   2.291   0.299
13056W        W85349  23.720  32.056  14.951
13057W        W85350   7.736  28.971  10.135
13058W        W85351  39.041  35.501  10.422
13059W        W85352  30.060   4.402   4.315
13060W        W85353  10.807  17.144   4.746
13061W        W85354  37.356  21.603  14.026
13062W        W85355  38.839  42.374  14.302
13063W        W85356  36.013  40.990   1.428
13064W        W85357  35.028  18.712  14.993
13065W        W85358   1.792  21.588  12.536
13066W        W85359  29.427  31.498   0.256
13067W        W85360   2.910   4.268  11.906
13068W        W85361  39.369  37.358   0.898
13069W        W85362   9.651   1.911   4.234
13070W        W85363  41.862  39.512   3.661
13071W        W85364  34.550  14.830  11.454
13072W        W85365  27.154   5.213   0.444
13073W        W85366  40.548  40.962  11.488
13074W        W85367  25.138  44.804  13.931
13075W        W85368  23.647  37.075   4.602
13076W        W85369   2.946  42.942  14.001
13077W        W85370   2.363  11.629   2.243
13078W        W85371  11.310   6.224  12.369
13079W        W85372   7.281  21.740  12.908
13080W        W85373  12.124  20.716  12.483
13081W        W85374  24.709  31.004   2.746
13082W        W85375  26.088  36.052  14.371
13083W        W85376  29.505  22.130   0.739
13084W        W85377  42.813  39.488  11.540
13085W        W85378  11.806  22.729   3.207
13086W        W85379  18.064   3.798  14.017
13087W        W85380  34.026  36.914  14.794
13088W        W85381   6.786  24.068  11.967
13089W        W85382   7.867  22.231   3.677
13090W        W85383  20.040  43.499   1.317
13091W        W85384  39.406  38.833   4.767
13092W        W85385  23.040  25.663   4.200
13093W        W85386  33.120  33.952  10.597
13094W        W85387  35.914  41.348  13.507
13095W        W85388   3.355  31.914   2.223
13096W        W85389  23.046  36.509   2.802
13097W        W85390  14.309  22.107  13.450
13098W        W85391  25.025  21.607   0.413
13099W        W85392  24.610  29.085  13.449
13100W        W85393  28.179  37.406  14.458
13101W        W85394   5.354  16.159   3.167
13102W        W85395  36.413  25.130  12.571
13103W        W85396  37.020   4.400  10.430
13104W        W85397  40.004  41.518  14.827
13105W        W85398   8.205  10.185  11.510
13106W        W85399   9.840  12.740   0.864
13107W        W85400   1.466  40.527  14.458
13108W        W85401  43.933  38.922  11.094
13109W        W85402  19.120  17.084   4.829
13110W        W85403  28.990  31.998   4.638
13111W        W85404   3.779  11.365   0.418
13112W        W85405  35.922  38.071  13.055
13113W        W85406   5.744  19.539   4.729
13114W        W85407  21.113   5.839   1.434
13115W        W85408  29.986  13.806  10.924
13116W        W85409  16.754   4.416   3.862
13117W        W85410  19.071   3.779   1.749
13118W        W85411   2.852   4.920  11.600
13119W        W85412  40.509  44.863  14.402
13120W        W85413  15.639  38.550   3.157
13121W        W85414  29.040  36.370   4.220
13122W        W85415   4.280  18.176  11.585
13123W        W85416   0.947  38.994  11.905
13124W        W85417   9.319   6.355   9.928
13125W        W85418  40.472  41.475  14.861
13126W        W85419  11.635  25.160   9.952
13127W        W85420  15.589  31.461  13.910
13128W        W85421  30.436  13.823  10.488
13129W        W85422  34.022  10.147   0.348
13130W        W85423  41.015  20.641  11.052
13131W        W85424  31.922  21.228   2.730
13132W        W85425  13.779  29.625   0.928
13133W        W85426  42.782  24.123  10.606
13134W        W85427  34.506  40.019   0.884
13135W        W85428  25.570  12.319  14.915
13136W        W85429  38.049  24.146   4.145
13137W        W85430  17.800  29.542   4.266
13138W        W85431  27.017  40.960  12.578
13139W        W85432  40.973   8.219  11.919
13140W        W85433  10.204  28.645   1.385
13141W        W85434  29.478   4.214  14.772
13142W        W85435  27.481  19.728   0.822
13143W        W85436   1.736  13.232  13.927
13144W        W85437  42.027   6.356   1.347
13145W        W85438  41.870  33.618  12.388
13146W        W85439  28.150  14.222   4.615
13147W        W85440   6.702  11.713   4.688
13148W        W85441  17.702  32.010   3.682
13149W        W85442  22.128  35.435  11.035
13150W        W85443  28.081  29.999  13.929
13151W        W85444  28.499   9.801   4.664
13152W        W85445  43.890  19.651   2.333
13153W        W85446  14.321  31.938   2.401
13154W        W85447  11.644  39.357   0.385
13155W        W85448  41.965  42.937  13.931
13156W        W85449  38.821   4.358  13.424
13157W        W85450  25.545   8.375   3.706
13158W        W85451  27.612  21.666   4.656
13159W        W85452  30.561   5.781  11.412
13160W        W85453  38.066  14.322   2.715
13161W        W85454   0.843  28.932   1.250
13162W        W85455  24.013   3.796   1.332
13163W        W85456  24.585  26.993   3.313
13164W        W85457  11.752  34.887  12.848
13165W        W85458  15.228   6.226   4.812
13166W        W85459  25.569  29.482   3.696
13167W        W85460  23.231  32.536   3.271
13168W        W85461  18.745  30.491  14.761
13169W        W85462   6.779  24.713   0.809
13170W        W85463  17.163  27.026   2.252
13171W        W85464  11.820  18.162  13.355
13172W        W85465  30.570  22.745  12.574
13173W        W85466  17.630  21.515   2.328
13174W        W85467  12.627   8.875   0.330
13175W        W85468  19.251  39.039  14.003
13176W        W85469  27.136  18.775  12.048
13177W        W85470   6.869  19.555   3.200
13178W        W85471  28.997   0.808  12.872
13179W        W85472  26.176   6.181  11.887
13180W        W85473  25.640   4.903  12.382
13181W        W85474   8.656  11.756  14.960
13182W        W85475  41.317  11.845   3.824
13183W        W85476  17.731   6.723  12.888
13184W        W85477  19.701  14.126  11.392
13185W        W85478  12.676  30.590   3.182
13186W        W85479  21.240  41.341  14.927
13187W        W85480   3.351  10.873  12.062
13188W        W85481  25.000   6.840  13.049
13189W        W85482  29.599  29.945   3.322
13190W        W85483  32.572   7.711  14.885
13191W        W85484  42.413  18.225  11.404
13192W        W85485  36.509  38.511   4.786
13193W        W85486  26.477   6.260   5.322
13194W        W85487  37.557  17.778  14.281
13195W        W85488  15.116   5.262  12.961
13196W        W85489   3.778  43.420  14.335
13197W        W85490  20.665   8.200   2.673
13198W        W85491  44.928  36.359  14.287
13199W        W85492  33.991  44.423   0.418
13200W        W85493  23.163  18.602  12.367
13201W        W85494  30.493  37.889   1.718
13202W        W85495  10.790  10.848   2.685
13203W        W85496  14.821  27.055   3.708
13204W        W85497   2.244  18.294  10.951
13205W        W85498   2.334  44.904  11.584
13206W        W85499   5.324  24.095  10.028
13207W        W85500   1.412  40.827  10.632
13208W        W85501  35.980  27.508   0.389
13209W        W85502  33.953  20.219  11.484
13210W        W85503  41.503  41.020  13.043
13211W        W85504  13.737  26.982  14.004
13212W        W85505  16.278  35.919  11.573
13213W        W85506   5.364  39.045  13.492
13214W        W85507  24.229  44.824  12.030
13215W        W85508   7.384  23.128  14.767
13216W        W85509   0.879   6.427   3.663
13217W        W85510  39.033   9.217  10.497
13218W        W85511  21.755  15.123   3.707
13219W        W85512  18.573  32.635   3.283
13220W        W85513   0.290  36.490   2.401
13221W        W85514   3.910  42.024  12.934
13222W        W85515  37.026  41.009   0.840
13223W        W85516  32.510  41.382  10.956
13224W        W85517  42.933  17.764  12.853
13225W        W85518  36.577  13.203  10.963
13226W        W85519  39.332  21.715   1.777
13227W        W85520  30.908  24.626   4.153
13228W        W85521   4.777   0.335   3.736
13229W        W85522   3.274  26.994  14.890
13230W        W85523  19.718   2.871  11.038
13231W        W85524  44.868  37.045  13.365
13232W        W85525  24.657  22.132   1.733
13233W        W85526  23.126  37.432   2.288
13234W        W85527  11.225   2.311   3.656
13235W        W85528  14.666  30.546   3.644
13236W        W85529  36.507  42.019  12.461
13237W        W85530  42.971  36.926  14.914
13238W        W85531  12.834   2.933   0.962
13239W        W85532  43.821  28.628   4.269
13240W        W85533  30.130   7.708   4.173
13241W        W85534  37.350  32.519  12.047
13242W        W85535  40.841  43.867  12.376
13243W        W85536  34.453  15.610  10.456
13244W        W85537  31.637  19.646  12.521
13245W        W85538   4.343  43.968  14.291
13246W        W85539  24.672  15.304   0.794
13247W        W85540  44.800  10.212  12.868
13248W        W85541  39.952  11.286   2.199
13249W        W85542  26.626  44.277  11.072
13250W        W85543  43.804  17.187   2.276
13251W        W85544  25.974  23.040   1.214
13252W        W85545   5.255  43.293   3.654
13253W        W85546  43.305  27.603  12.070
13254W        W85547  13.143   6.253  12.518
13255W        W85548  11.745  31.926   0.920
13256W        W85549  19.280  24.563   2.817
13257W        W85550  29.063  15.642  13.809
13258W        W85551  34.025   3.941  14.944
13259W        W85552  33.914  13.693  11.401
13260W        W85553  11.657   9.811   2.829
13261W        W85554  41.991  18.614  11.970
13262W        W85555  12.127  15.112   1.368
13263W        W85556  15.697  31.904   4.241
13264W        W85557  26.114  42.470  11.929
13265W        W85558   8.879  33.505   3.275
13266W        W85559  34.111  14.824  14.451
13267W        W85560  27.567  31.635  12.082
13268W        W85561   8.752  34.392   1.371
13269W        W85562  14.238  28.000  11.494
13270W        W85563  39.846   6.811  13.884
13271W        W85564  37.458  16.751   3.832
13272W        W85565  25.565  44.415  11.520
13273W        W85566   7.888  22.624  12.871
13274W        W85567  10.205   5.254  12.517
13275W        W85568  40.349  31.524  10.587
13276W        W85569  37.400  34.408  13.450
13277W        W85570   0.751  27.548   4.771
13278W        W85571   5.902   1.384  12.064
13279W        W85572  28.446   8.341   3.758
13280W        W85573  24.695  28.677   3.728
13281W        W85574  38.040  23.544   1.871
13282W        W85575  42.455  12.629  10.419
13283W        W85576  39.929  27.523   1.770
13284W        W85577   5.888  10.682  11.944
13285W        W85578  18.120  33.935   3.362
13286W        W85579  24.654  19.073   4.830
13287W        W85580  18.674  26.507  11.000
13288W        W85581   6.254  42.994   2.792
13289W        W85582  17.121   0.265  12.341
13290W        W85583  25.059  18.777   3.192
13291W        W85584  10.764  22.653  14.386
13292W        W85585  40.532  40.823   0.908
13293W        W85586  12.170  39.833   4.260
13294W        W85587  17.584  29.463   0.920
13295W        W85588  21.720  38.447  11.118
13296W        W85589  26.468   1.766   0.749
13297W        W85590  10.648  17.719   2.378
13298W        W85591  35.371  12.847   1.743
13299W        W85592   0.833   4.408  13.954
13300W        W85593  31.115  16.800   2.675
13301W        W85594  22.244  16.108  12.506
13302W        W85595  15.783  17.062   1.721
13303W        W85596  34.512  30.994   3.701
13304W        W85597  10.180  24.083  11.953
13305W        W85598  29.563   4.894  13.851
13306W        W85599  38.037  18.572  11.418
13307W        W85600   5.260   0.966   0.312
13308W        W85601  42.023  20.131   4.189
13309W        W85602   3.315  26.168   1.885
13310W        W85603  14.334  43.401   0.303
13311W        W85604  14.706  40.040   1.834
13312W        W85605  36.929  15.163   2.717
13313W        W85606  40.830  41.966   2.737
13314W        W85607  24.512  39.963   3.263
13315W        W85608  34.549  14.142  12.513
13316W        W85609   1.735  32.889   4.199
13317W        W85610  28.655   4.209   4.327
13318W        W85611  32.635  13.763  12.936
13319W        W85612  39.323  31.560  11.083
13320W        W85613  44.788  28.934  12.001
13321W        W85614  23.097  13.618  13.800
13322W        W85615   1.817  43.396  12.094
13323W        W85616  24.994  17.619  12.513
13324W        W85617  42.453  15.127   2.816
13325W        W85618  11.297  38.052   1.777
13326W        W85619  31.117  40.839  11.543
13327W        W85620  42.843  22.540  11.033
13328W        W85621  33.046  23.556   1.354
13329W        W85622  29.511   5.906  12.514
13330W        W85623   1.808  43.313   2.828
13331W        W85624  13.105  16.757  14.385
13332W        W85625   5.928  35.532   3.635
13333W        W85626  24.973   4.706  10.626
13334W        W85627  29.561  25.521  11.024
13335W        W85628  36.941  40.042  14.407
13336W        W85629  39.834  25.121   0.350
13337W        W85630  42.458  13.114  13.827
13338W        W85631   6.400  44.293  10.625
13339W        W85632   2.957  39.977   2.382
13340W        W85633  28.058  16.722  11.551
13341W        W85634   1.265  14.315   4.202
13342W        W85635  28.511  24.600   9.570
13343W        W85636   2.341  41.837  11.992
13344W        W85637  29.961  28.094   3.798
13345W        W85638  37.342  24.055   0.765
13346W        W85639  39.365   6.843   1.859
13347W        W85640  33.061  30.601  14.869
13348W        W85641   3.317  15.090   4.334
13349W        W85642  36.930  39.373  12.067
13350W        W85643  20.684  25.972   3.849
13351W        W85644  32.029  28.523   1.308
13352W        W85645  31.950  10.700   3.327
13353W        W85646  40.353   5.773   3.800
13354W        W85647  23.204  10.336   0.470
13355W        W85648  40.032  21.727   0.465
13356W        W85649  16.675   2.366  13.485
13357W        W85650  10.851  27.990   4.818
13358W        W85651  26.697  40.979   0.251
13359W        W85652  17.725  34.477  12.537
13360W        W85653   7.794  33.486   5.698
13361W        W85654   9.735   5.921   4.213
13362W        W85655  20.088  10.266   4.648
13363W        W85656  10.805  27.627   3.723
13364W        W85657  11.643  22.568   2.358
13365W        W85658  21.030  11.696  12.993
13366W        W85659  28.027  43.402   1.354
13367W        W85660  40.948   5.756  12.017
13368W        W85661  11.717  13.830   1.336
13369W        W85662  40.331  15.824   4.746
13370W        W85663   1.779  22.108   0.255
13371W        W85664  17.073   0.326  11.859
13372W        W85665   3.424  22.996  10.455
13373W        W85666   6.906  15.719  11.856
13374W        W85667   2.244  39.417   0.259
13375W        W85668  32.626  14.270   0.393
13376W        W85669  24.558  43.976  14.376
13377W        W85670   3.913  40.379   2.776
13378W        W85671  16.088  28.183  13.443
13379W        W85672  30.983  43.445   4.699
13380W        W85673  39.821  44.396   1.930
13381W        W85674   6.389  12.634   1.918
13382W        W85675  19.158   4.839  14.317
13383W        W85676  38.854  27.686  12.520
13384W        W85677  20.762  34.442   2.273
13385W        W85678  43.306  41.855  12.011
13386W        W85679   0.780  30.546  12.081
13387W        W85680  36.576  29.111  11.039
13388W        W85681  36.074  22.107  14.990
13389W        W85682   3.931  36.477   3.861
13390W        W85683   1.462   4.388  11.075
13391W        W85684  28.172  40.929  14.361
13392W        W85685   2.434   2.365  13.322
13393W        W85686  42.487  12.298  14.316
13394W        W85687  18.179   3.430  14.959
13395W        W85688  42.789  35.518  11.888
13396W        W85689   8.824   7.699   2.402
13397W        W85690  22.227  44.866  11.006
13398W        W85691  34.497  43.376   4.743
13399W        W85692  41.418  34.970   4.695
13400W        W85693   4.805  25.978  11.575
13401W        W85694  11.768  38.562  10.633
13402W        W85695  33.964   2.324   1.876
13403W        W85696  36.872   3.438  14.325
13404W        W85697   2.798   7.385   3.824
13405W        W85698  19.159  20.182   0.344
13406W        W85699  39.541  35.963  12.364
13407W        W85700  17.065   8.760   4.786
13408W        W85701  19.048  15.693   4.268
13409W        W85702  30.616  29.016  13.326
13410W        W85703  33.946  34.978   1.754
13411W        W85704  33.563  28.967   1.414
13412W        W85705  32.616   5.323   2.814
13413W        W85706  31.618  26.594   4.280
13414W        W85707   6.702   9.183  14.294
13415W        W85708  17.641  41.941  12.527
13416W        W85709  38.513  39.326  13.791
13417W        W85710  13.203  11.174   2.799
13418W        W85711  37.350  28.971  11.466
13419W        W85712  25.181  32.512  12.848
13420W        W85713  11.364  39.013   0.374
13421W        W85714  29.447  19.217   3.208
13422W        W85715  30.470  21.184  13.892
13423W        W85716   0.318  34.391   2.711
13424W        W85717   1.348  21.229   4.335
13425W        W85718  24.559  30.058   4.250
13426W        W85719  34.543  19.735   4.335
13427W        W85720  11.667   6.187   1.799
13428W        W85721  32.555  28.116  10.606
13429W        W85722   1.385  25.652  11.925
13430W        W85723  31.116  15.595   5.309
13431W        W85724   5.802  12.159  13.870
13432W        W85725  34.441  22.634  14.926
13433W        W85726  37.059  26.650  11.097
13434W        W85727  34.609  25.587  11.036
13435W        W85728  15.172  34.397  11.034
13436W        W85729  31.528  14.713   0.741
13437W        W85730  39.411   9.311   3.856
13438W        W85731  32.012   8.337  13.858
13439W        W85732  29.580  17.205  11.981
13440W        W85733  10.648  11.658   3.254
13441W        W85734  28.947  29.638  10.502
13442W        W85735  40.391  11.845  13.357
13443W        W85736  14.121  17.298  11.026
13444W        W85737  24.089  11.207  13.020
13445W        W85738  29.478  26.491  13.917
13446W        W85739  31.648  40.425  12.344
13447W        W85740  29.116  42.454   1.718
13448W        W85741  11.663  35.566  12.959
13449W        W85742  13.673  22.506  13.898
13450W        W85743  10.205   3.864  14.912
13451W        W85744  17.143  38.391  11.942
13452W        W85745   0.842  42.853  13.059
13453W        W85746  39.521  25.683   1.353
13454W        W85747   8.767  19.539   1.265
13455W        W85748   0.445  15.159   0.348
13456W        W85749  30.984  30.638   2.365
13457W        W85750   5.432  35.984  14.299
13458W        W85751   8.743  29.423   2.801
13459W        W85752  16.277  18.574  14.873
13460W        W85753  30.479  13.208  13.856
13461W        W85754   0.865  34.000  11.535
13462W        W85755  24.133  21.730   1.304
13463W        W85756  35.995   6.775  14.984
13464W        W85757  24.088  30.926   0.736
13465W        W85758   6.414  31.084   1.751
13466W        W85759  36.095  27.532   0.862
13467W        W85760  19.622  44.415  12.026
13468W        W85761  20.122  15.160   1.921
13469W        W85762   5.905  21.584   3.206
13470W        W85763  23.041  12.827  10.487
13471W        W85764  31.103  10.154   3.732
13472W        W85765  40.409  29.950  10.894
13473W        W85766  40.413  24.073   0.787
13474W        W85767  21.518  29.951   3.267
13475W        W85768   4.743   5.437  12.424
13476W        W85769  39.538  36.553   4.727
13477W        W85770   2.440  32.971   3.846
13478W        W85771  39.026  40.543  11.577
13479W        W85772   5.781  12.661   4.763
13480W        W85773  41.804  33.948   3.837
13481W        W85774  32.000  18.677  12.027
13482W        W85775  33.932   4.387  10.926
13483W        W85776  11.245   8.794  12.395
13484W        W85777   7.903  28.627  12.928
13485W        W85778   4.877   8.813   4.172
13486W        W85779  38.880  12.172  13.814
13487W        W85780   5.774  13.240  14.341
13488W        W85781  35.506  28.453   2.216
13489W        W85782   6.745  11.666   2.327
13490W        W85783  26.699   6.214  13.817
13491W        W85784  18.682  30.919  13.886
13492W        W85785  32.119  34.609   3.843
13493W        W85786  14.270  28.018  13.039
13494W        W85787   9.803  22.582  12.575
13495W        W85788  39.037  19.684   4.716
13496W        W85789  38.974  22.517  11.126
13497W        W85790  16.688  21.580  14.492
13498W        W85791  33.580  36.964  11.501
13499W        W85792  38.451  32.117  13.530
13500W        W85793  28.568  35.051   4.743
13501W        W85794  28.004  26.689  13.387
13502W        W85795  14.726  38.363   4.792
13503W        W85796  13.214   7.289   1.349
13504W        W85797   2.248  14.644  14.484
13505W        W85798  34.035  13.674   3.154
13506W        W85799   7.710  11.138   1.365
13507W        W85800   5.349  18.623  14.318
13508W        W85801  27.613   1.883   0.267
13509W        W85802  42.479   6.855   0.744
13510W        W85803  16.773  29.115   0.261
13511W        W85804  34.373   7.666  11.422
13512W        W85805   0.987  20.641  10.536
13513W        W85806  30.632  19.273  14.405
13514W        W85807   3.819  39.320   0.243
13515W        W85808  38.892   0.476   4.134
13516W        W85809  32.629  35.951   1.923
13517W        W85810   6.790  37.403  12.523
13518W        W85811  15.663   1.892   0.388
13519W        W85812   7.676  42.864  13.451
13520W        W85813   9.700   6.808   4.639
13521W        W85814  36.545  25.565   0.790
13522W        W85815  10.314  34.603   5.242
13523W        W85816  25.106  38.907  14.285
13524W        W85817  39.455  20.540   0.354
13525W        W85818  38.517  11.643  12.914
13526W        W85819  39.810   7.774  11.976
13527W        W85820   2.763   5.243   3.705
13528W        W85821  29.990   3.895  11.011
13529W        W85822   1.299  16.092   1.418
13530W        W85823  17.137  36.551  10.979
13531W        W85824  40.345  21.649   0.822
13532W        W85825  15.088   3.394  12.869
13533W        W85826  38.447  26.489   2.333
13534W        W85827  27.020  19.276   2.301
13535W        W85828  27.558  43.022   1.388
13536W        W85829  10.700   6.733   3.679
13537W        W85830  42.944   6.692  10.550
13538W        W85831  23.108   8.278  10.613
13539W        W85832  32.498  21.216  12.509
13540W        W85833  30.152  27.682  13.365
13541W        W85834   9.750   1.352   1.768
13542W        W85835  14.772  22.715  14.875
13543W        W85836  39.338  37.370  14.913
13544W        W85837  33.991  32.428   2.667
13545W        W85838  31.921   4.765   2.727
13546W        W85839  27.685  41.963  11.465
13547W        W85840  15.190  39.503   2.705
13548W        W85841  23.220  33.094  10.535
13549W        W85842   2.248  14.247  14.899
13550W        W85843  22.656   8.715   0.834
13551W        W85844  12.777  32.952   2.337
13552W        W85845  33.534  36.351   2.340
13553W        W85846  28.507  36.541   0.741
13554W        W85847  15.596  20.088   1.225
13555W        W85848  29.130  43.427  11.013
13556W        W85849  28.565   3.445  12.021
13557W        W85850  28.045  33.579  14.320
13558W        W85851  16.751  25.709  13.872
13559W        W85852  24.019  19.594  11.089
13560W        W85853  27.565   7.363  12.394
13561W        W85854   1.902  33.475  10.442
13562W        W85855   7.214  13.347   3.730
13563W        W85856  36.883  43.346  13.506
13564W        W85857  13.220  31.046   1.846
13565W        W85858  33.547  18.633   1.383
13566W        W85859  27.580   0.747   0.362
13567W        W85860  34.496  38.411  12.918
13568W        W85861   9.363   7.822   1.878
13569W        W85862  44.946  11.826   4.238
13570W        W85863  18.069   6.274  11.434
13571W        W85864  17.680  16.129   1.431
13572W        W85865  10.873  27.122   0.397
13573W        W85866  21.035   7.855  11.997
13574W        W85867   6.801  32.057  13.856
13575W        W85868  31.982   3.271   2.816
13576W        W85869  17.763  33.087  13.335
13577W        W85870  15.097   4.261  10.114
13578W        W85871  23.655  32.047   5.207
13579W        W85872  43.777  26.186   1.695
13580W        W85873  27.148  38.848  11.504
13581W        W85874  36.407  21.099   1.784
13582W        W85875  34.115  29.521   1.728
13583W        W85876  22.528   1.899  11.410
13584W        W85877  37.984  36.499  14.826
13585W        W85878  28.588   6.366  12.363
13586W        W85879  34.037   6.911  10.583
13587W        W85880   4.217  44.417  12.495
13588W        W85881  17.124  13.722   4.156
13589W        W85882  26.132  40.909   0.282
13590W        W85883   7.306  41.026  12.071
13591W        W85884  37.379  28.677  11.480
13592W        W85885  31.974   0.368  12.870
13593W        W85886  23.643   5.291   1.753
13594W        W85887  15.240  19.068  14.894
13595W        W85888   0.792  44.349   3.238
13596W        W85889   9.381  10.198   1.375
13597W        W85890   7.321  21.733  14.813
13598W        W85891  40.850  32.616  13.322
13599W        W85892  15.638  31.050   3.779
13600W        W85893  27.141  37.891  12.410
13601W        W85894  27.034  16.689  11.588
13602W        W85895  28.125  16.310  10.409
13603W        W85896  41.405  28.045   1.311
13604W        W85897  38.072   9.289  10.976
13605W        W85898   1.263   8.310   0.275
13606W        W85899   3.717  36.885  13.893
13607W        W85900  27.079  21.051  12.945
13608W        W85901  15.327  17.288   4.123
13609W        W85902  18.750  35.560   4.312
13610W        W85903  12.309  39.010   1.235
13611W        W85904   0.968   8.744  14.031
13612W        W85905  39.440   8.818   4.127
13613W        W85906  15.586  13.118   3.309
13614W        W85907  42.473  24.047  14.965
13615W        W85908  20.147  29.102  11.042
13616W        W85909   4.289   6.277  11.047
13617W        W85910  15.227  43.358   1.259
13618W        W85911  36.583  15.202  12.930
13619W        W85912  26.548  24.512   5.277
13620W        W85913  30.140  43.349  12.532
13621W        W85914   7.356   3.775   3.385
13622W        W85915  41.800  32.082  12.943
13623W        W85916  43.352  37.436   3.678
13624W        W85917  16.237  29.962  13.804
13625W        W85918   9.382  15.325  14.371
13626W        W85919   1.927  22.104  12.004
13627W        W85920  32.506  38.414  12.020
13628W        W85921  14.654  29.453  13.004
13629W        W85922  39.957  38.915   0.318
13630W        W85923  27.460  12.234  13.900
13631W        W85924  14.667  21.576   1.421
13632W        W85925   1.966  23.682  12.926
13633W        W85926   6.307  41.530  11.951
13634W        W85927  16.617  21.530   1.451
13635W        W85928  38.906  13.744   4.752
13636W        W85929  20.559  27.570   3.229
13637W        W85930  16.723  33.524  13.519
13638W        W85931   6.782   9.885  14.026
13639W        W85932  44.471  19.724  12.531
13640W        W85933   1.799  30.027   1.265
13641W        W85934  33.886  43.935  12.862
13642W        W85935  44.281   5.723  14.810
13643W        W85936  42.847  29.039   0.411
13644W        W85937  40.382  18.166  13.380
13645W        W85938  27.461  35.056   3.302
13646W        W85939  27.542  17.126   4.207
13647W        W85940  18.206  29.131  11.510
13648W        W85941  18.600   6.917   1.272
13649W        W85942  21.520  25.537   2.878
13650W        W85943  16.751  38.870  11.960
13651W        W85944  22.700   1.350   3.652
13652W        W85945  17.221  20.601  14.835
13653W        W85946  34.111  27.575  14.863
13654W        W85947  17.767   8.351   0.754
13655W        W85948  32.519  19.678   4.819
13656W        W85949  11.823  14.220   2.334
13657W        W85950  25.972  11.795   4.743
13658W        W85951   6.373  37.002  12.995
13659W        W85952  41.827  37.055   1.422
13660W        W85953  24.132  36.360   4.308
13661W        W85954  10.338  25.181  10.028
13662W        W85955  32.103  20.527   2.398
13663W        W85956   2.428  43.993  11.932
13664W        W85957  26.474   7.820  11.417
13665W        W85958   7.880  23.103  13.435
13666W        W85959  32.424  13.112   0.422
13667W        W85960  40.959  44.432   4.707
13668W        W85961  32.972  18.760   3.763
13669W        W85962  11.127   6.705  13.858
13670W        W85963  27.046   7.195   1.842
13671W        W85964  22.236  12.133  11.900
13672W        W85965  12.632   5.222  14.508
13673W        W85966  14.830   9.307  13.842
13674W        W85967  30.640   4.703   4.662
13675W        W85968  34.865  13.788  12.020
13676W        W85969  16.647  12.200  14.822
13677W        W85970   2.382  24.150   4.772
13678W        W85971  32.928  24.638  10.929
13679W        W85972  22.084   1.372  13.498
13680W        W85973   0.491  28.961  11.892
13681W        W85974   3.736  26.497  14.493
13682W        W85975  34.041  18.203   3.181
13683W        W85976  32.550  13.738  13.445
13684W        W85977  41.510  41.496  11.100
13685W        W85978   0.308   3.825   4.779
13686W        W85979   5.729  20.749  12.906
13687W        W85980   4.723  39.906  10.096
13688W        W85981  42.526   9.373   3.345
13689W        W85982  44.432  22.668   3.383
13690W        W85983   1.385  32.429  11.954
13691W        W85984  24.675   3.296  10.602
13692W        W85985  31.457  31.120   2.701
13693W        W85986  10.750  19.735  13.911
13694W        W85987   3.263  25.135  14.821
13695W        W85988   4.753   6.266  14.817
13696W        W85989  42.995  30.513   0.824
13697W        W85990   2.461  32.412  12.539
13698W        W85991  39.886  11.782  12.846
13699W        W85992  15.182   3.860   5.223
13700W        W85993   3.710  28.649   1.807
13701W        W85994  18.554  22.549  14.872
13702W        W85995  14.773  23.693   4.335
13703W        W85996  26.049  11.777   1.725
13704W        W85997   8.217  41.376   3.806
13705W        W85998  16.188  24.498  13.791
13706W        W85999  26.469   0.358  12.531
13707W        W86000  17.685  41.300   4.724
13708W        W86001  29.503  25.089   3.828
13709W        W86002   4.777  11.820   4.611
13710W        W86003  40.442  43.771  12.956
13711W        W86004  34.946  43.974   3.793
13712W        W86005  19.743  25.535  13.455
13713W        W86006  22.029   6.805  13.461
13714W        W86007  11.853  40.852  12.448
13715W        W86008  18.760  27.192  12.380
13716W        W86009  27.555  32.896   1.332
13717W        W86010  31.412  11.162  10.456
13718W        W86011  40.809  22.554   4.154
13719W        W86012   2.842  33.015  10.603
13720W        W86013  28.094  20.561   1.860
13721W        W86014   9.190  21.101   2.287
13722W        W86015  35.953   4.760  11.511
13723W        W86016  26.087   3.222   3.376
13724W        W86017  35.970  37.392  14.929
13725W        W86018   7.225  24.532   0.768
13726W        W86019   2.242  14.295   3.374
13727W        W86020  24.022  21.087   1.404
13728W        W86021  35.577  38.999   0.752
13729W        W86022  19.618  34.037  12.887
13730W        W86023  19.688  33.997  12.414
13731W        W86024  24.705   3.728  10.454
13732W        W86025  38.530   3.229   1.426
13733W        W86026  36.404  41.497   3.337
13734W        W86027  13.695  33.538  12.358
13735W        W86028  10.646  44.995  12.020
13736W        W86029  16.236   2.292  10.929
13737W        W86030  30.421  45.000  13.413
13738W        W86031  43.003  17.260   4.676
13739W        W86032  40.845   8.208   3.746
13740W        W86033  20.239  25.558   4.239
13741W        W86034  33.897  43.424  10.509
13742W        W86035  15.173  12.785  11.933
13743W        W86036  37.505  27.602  14.289
13744W        W86037  32.130   8.884   0.430
13745W        W86038  14.189   7.696  13.398
13746W        W86039  10.713  22.099  13.398
13747W        W86040   8.737  15.751   4.777
13748W        W86041  18.228  15.675   0.276
13749W        W86042  11.280  13.665  11.945
13750W        W86043  33.027  31.904   4.301
13751W        W86044  43.930  22.531  12.350
13752W        W86045  34.421  33.393  14.028
13753W        W86046  37.471   1.291   3.293
13754W        W86047  33.583  30.075   1.247
13755W        W86048   9.783  26.157   0.452
13756W        W86049  19.753  27.142  13.428
13757W        W86050  12.261   9.309   2.693
13758W        W86051  31.914   7.281   2.711
13759W        W86052   3.767  22.205  10.140
13760W        W86053  18.581   3.806   3.713
13761W        W86054  23.719  44.317   3.353
13762W        W86055  11.179   2.809  13.896
13763W        W86056  32.072  36.948  11.075
13764W        W86057  23.215  20.556   0.382
13765W        W86058  36.584  38.373   1.411
13766W        W86059  26.673  35.438  12.938
13767W        W86060  29.670   2.938   4.353
13768W        W86061  16.702   9.224   4.322
13769W        W86062  10.344   6.190   1.245
13770W        W86063  18.785  40.906  14.299
13771W        W86064  18.621  31.128   1.799
13772W        W86065  15.651  11.254   4.125
13773W        W86066  35.853  10.793  11.563
13774W        W86067   3.402   9.250  13.938
13775W        W86068  31.648  42.896   1.306
13776W        W86069  20.192  20.066   2.758
13777W        W86070  10.202  22.088   3.312
13778W        W86071  14.179   1.773   4.302
13779W        W86072  22.521  21.652   0.812
13780W        W86073  37.391  31.437   2.801
13781W        W86074  12.667  44.934   3.146
13782W        W86075   4.783  36.467  14.019
13783W        W86076  35.531   1.360  12.432
13784W        W86077   2.796   7.220  11.467
13785W        W86078  20.526  31.562  13.874
13786W        W86079  28.156  27.511  13.947
13787W        W86080  30.465  14.222  14.390
13788W        W86081  27.034   0.346  14.992
13789W        W86082  28.597  36.848  12.552
13790W        W86083   4.718  10.274   4.176
13791W        W86084  22.108  12.778   1.367
13792W        W86085  10.378  24.228  13.955
13793W        W86086  39.050   0.301  14.983
13794W        W86087  41.388  29.451  12.924
13795W        W86088  27.613   3.267  10.934
13796W        W86089  23.557  10.258  14.892
13797W        W86090  39.913   3.841  12.077
13798W        W86091  41.788  14.808  14.950
13799W        W86092  34.419  39.828   2.682
13800W        W86093  17.236  25.963   4.251
13801W        W86094  31.561  22.039  13.497
13802W        W86095  21.581   2.387  13.006
13803W        W86096  40.929   7.298   1.916
13804W        W86097  40.335   7.278  12.835
13805W        W86098  23.699  38.965  13.050
13806W        W86099  12.202  20.716   4.184
13807W        W86100  22.727  21.033   3.861
13808W        W86101   4.322  17.697  12.070
13809W        W86102  32.578  37.933   1.870
13810W        W86103  29.461  28.473  11.526
13811W        W86104  34.921   3.775  12.503
13812W        W86105   0.972   9.890  14.883
13813W        W86106  21.075  13.749   4.239
13814W        W86107  33.899   5.438  13.543
13815W        W86108  20.084   2.284   4.215
13816W        W86109  16.307  38.333   2.295
13817W        W86110  44.371  33.418  13.410
13818W        W86111  10.148  33.447   0.312
13819W        W86112  41.322  17.121   5.284
13820W        W86113  22.070  34.562  11.397
13821W        W86114  10.289  25.140  13.523
13822W        W86115   6.854   4.781  11.033
13823W        W86116  16.644  27.952  10.925
13824W        W86117  43.861  40.870   3.835
13825W        W86118  13.813  31.475   0.300
13826W        W86119  24.504  42.291   3.719
13827W        W86120  28.025  40.317   3.688
13828W        W86121  40.006  43.323   0.360
13829W        W86122  34.566   4.934  11.019
13830W        W86123  40.358   7.832  12.863
13831W        W86124  32.888  19.099   1.276
13832W        W86125   1.306  25.671  13.404
13833W        W86126  30.435  43.431  14.010
13834W        W86127  28.649   6.261  14.026
13835W        W86128   4.913  32.096   4.326
13836W        W86129  22.663  38.833  11.522
13837W        W86130  30.591  29.153  14.282
13838W        W86131  17.737  12.686   4.698
13839W        W86132  16.638  32.404  13.475
13840W        W86133   8.740  11.664   2.252
13841W        W86134  19.234   2.944   0.943
13842W        W86135  34.914  14.649   3.855
13843W        W86136  39.842  43.281  10.542
13844W        W86137   5.829  17.771   2.854
13845W        W86138  13.335  37.400  10.583
13846W        W86139   8.763   8.771  11.594
13847W        W86140  19.162  27.170   1.439
13848W        W86141   9.239  26.492   1.794
13849W        W86142  15.143  22.574  13.346
13850W        W86143  34.391  30.417  14.370
13851W        W86144  29.669  15.236  14.863
13852W        W86145  32.138  34.040  12.548
13853W        W86146   1.797  40.840  11.027
13854W        W86147   0.959  33.011   2.405
13855W        W86148   9.677  23.151   3.744
13856W        W86149   7.861  22.598  14.482
13857W        W86150  15.163  39.462  11.394
13858W        W86151  25.599  41.366   3.153
13859W        W86152  22.703  30.539   1.865
13860W        W86153  35.398  14.336   4.303
13861W        W86154  32.115   5.810   3.364
13862W        W86155  12.696  39.033   1.333
13863W        W86156  38.970  35.433   3.225
13864W        W86157   5.298  23.092  13.460
13865W        W86158  27.449   6.334  13.862
13866W        W86159  29.638  38.047  10.520
13867W        W86160  12.354  30.052  13.812
13868W        W86161  20.049  38.455   3.220
13869W        W86162  41.970  44.445   0.327
13870W        W86163  15.727   8.735   5.229
13871W        W86164  28.499  41.857  14.948
13872W        W86165  16.797  24.522   1.815
13873W        W86166   2.395  18.221   3.213
13874W        W86167   6.856  39.317   0.759
13875W        W86168  22.722  25.041   1.328
13876W        W86169  19.086  20.254  11.018
13877W        W86170  16.318   9.163  14.862
13878W        W86171   6.849  17.214   3.203
13879W        W86172   4.742  33.021  13.394
13880W        W86173  39.986   1.451  14.335
13881W        W86174  35.043  44.927   1.338
13882W        W86175  20.150  42.425  10.612
13883W        W86176  41.345  43.987   1.447
13884W        W86177  29.464  37.499   5.149
13885W        W86178  13.342  23.519  11.463
13886W        W86179   0.966  40.848   2.838
13887W        W86180  37.071   4.806   1.327
13888W        W86181   1.799   6.756  11.035
13889W        W86182  30.489  41.937  13.797
13890W        W86183  13.184  44.968  12.489
13891W        W86184   8.825  30.609  12.471
13892W        W86185  11.756  27.966   3.840
13893W        W86186   4.749   7.814   0.432
13894W        W86187  35.083   0.976   5.119
13895W        W86188  16.292  16.687  12.031
13896W        W86189  30.612  42.795  11.076
13897W        W86190  37.507   2.851   4.613
13898W        W86191  11.830  19.112   0.934
13899W        W86192  12.658  41.934  12.491
13900W        W86193  43.975  38.873  12.541
13901W        W86194  27.086   3.238  12.383
13902W        W86195  14.154   8.231  12.388
13903W        W86196  30.417  38.435   0.423
13904W        W86197   1.820   4.759   0.837
13905W        W86198  26.083  20.539  12.931
13906W        W86199  19.043  40.512   3.692
13907W        W86200  16.700  43.364  14.854
13908W        W86201  26.673  32.447  11.950
13909W        W86202  11.311   7.748   0.844
13910W        W86203  41.413  14.680   0.350
13911W        W86204  34.868  30.951   4.752
13912W        W86205  24.162  21.516   0.407
13913W        W86206  12.361  38.904  12.914
13914W        W86207  35.590  26.133   3.755
13915W        W86208   7.278   6.345   4.698
13916W        W86209  24.976  22.999  11.487
13917W        W86210   5.402   9.362   4.175
13918W        W86211  12.664  23.120   0.785
13919W        W86212  26.005   5.266   4.705
13920W        W86213  28.627  16.680   1.449
13921W        W86214  19.640  21.255   1.389
13922W        W86215  27.547  14.796   3.324
13923W        W86216  41.312  40.411  11.561
13924W        W86217  26.192  43.338  12.373
13925W        W86218  37.569  22.023  14.001
13926W        W86219  35.080  44.438   0.328
13927W        W86220  15.210   1.327  12.016
13928W        W86221  16.267  34.925  11.377
13929W        W86222  40.017  15.319  14.473
13930W        W86223  37.856  43.516  11.883
13931W        W86224  37.994  20.073   1.901
13932W        W86225   0.266  38.420   0.908
13933W        W86226  42.792  40.491   1.300
13934W        W86227  18.721  20.558   3.360
13935W        W86228  32.616  32.529   2.206
13936W        W86229  13.700   5.392   4.613
13937W        W86230  37.984   9.370  14.457
13938W        W86231  36.959  39.531  11.541
13939W        W86232  15.254  16.119  14.986
13940W        W86233  19.280  34.409  11.004
13941W        W86234  19.627  36.376   3.711
13942W        W86235  38.432   0.316   1.723
13943W        W86236  15.293   8.343  11.465
13944W        W86237   3.456  14.695   1.328
13945W        W86238  37.955  36.430  12.552
13946W        W86239  32.096  18.745   0.406
13947W        W86240   1.317  18.079  11.955
13948W        W86241   7.712  19.589  10.403
13949W        W86242  27.521  32.951   2.277
13950W        W86243   6.686  23.539   4.653
13951W        W86244  13.609  31.002  14.876
13952W        W86245   2.943   0.807   2.713
13953W        W86246  43.896   2.958   2.409
13954W        W86247  30.005  12.777   4.641
13955W        W86248  13.130  29.075   0.424
13956W        W86249   6.225   7.670   2.777
13957W        W86250  43.275  35.981  10.598
13958W        W86251  37.986   2.310  14.994
13959W        W86252  20.591   6.423  14.896
13960W        W86253  11.170  34.566   4.268
13961W        W86254  37.859  25.175   2.352
13962W        W86255  20.059  31.459  13.818
13963W        W86256  12.266  23.109  13.323
13964W        W86257   6.709   4.732   2.327
13965W        W86258   9.690  34.559   4.772
13966W        W86259  27.511  39.058   4.257
13967W        W86260  30.572  11.251   2.697
13968W        W86261   2.942  27.056   4.775
13969W        W86262  41.003  23.496   1.400
13970W        W86263  24.639   1.429   1.895
13971W        W86264  25.663  15.730   2.894
13972W        W86265  43.867  15.175   0.434
13973W        W86266  11.287  13.671  11.515
13974W        W86267   2.298  12.314   4.640
13975W        W86268  39.519   8.654  13.987
13976W        W86269   0.805  16.280   1.858
13977W        W86270  28.944  31.946  11.556
13978W        W86271   1.791  25.637  10.544
13979W        W86272   4.241  43.443   4.247
13980W        W86273  39.493   1.880   4.233
13981W        W86274  10.266  17.247   0.439
13982W        W86275   3.244  26.093   2.224
13983W        W86276  43.963  30.647  13.521
13984W        W86277  44.946   2.908   0.402
13985W        W86278   1.767   1.731  13.336
13986W        W86279  44.948  33.130  10.889
13987W        W86280  10.652  23.680  11.892
13988W        W86281  35.387   7.699  14.781
13989W        W86282  24.065  37.899  14.793
13990W        W86283  11.735   6.876  10.552
13991W        W86284  34.942   3.892   0.461
13992W        W86285  17.212  42.812   1.311
13993W        W86286  40.868  20.215   4.222
13994W        W86287  10.648  23.711  14.027
13995W        W86288  16.617   9.292   2.752
13996W        W86289  24.641  41.823  14.934
13997W        W86290  14.802  24.160   2.327
13998W        W86291  16.731  24.022   3.211
13999W        W86292  39.914  38.965  14.764
14000W        W86293  43.422  31.409   4.190
14001W        W86294  32.936  39.971  13.992
14002W        W86295  34.068  13.749  14.372
14003W        W86296  42.425   7.236  11.566
14004W        W86297   8.820  39.322   0.864
14005W        W86298   5.284  44.851   1.288
14006W        W86299   4.343  18.222   4.729
14007W        W86300  16.783  13.789  13.403
14008W        W86301  31.436  21.212  14.910
14009W        W86302   3.727  36.593   4.626
14010W        W86303  25.020  15.282   3.185
14011W        W86304  24.153  28.126  13.539
14012W        W86305  21.586  15.293  14.794
14013W        W86306  10.238  12.830   0.296
14014W        W86307   2.426  23.158   0.293
14015W        W86308  41.039  27.978   0.734
14016W        W86309  19.566  40.875   2.668
14017W        W86310  15.693  18.099   1.719
14018W        W86311   2.870  34.929   4.818
14019W        W86312  19.217   4.771   2.677
14020W        W86313   8.850  31.469   3.299
14021W        W86314  26.459  21.585  12.503
14022W        W86315  24.539  11.138  11.126
14023W        W86316  38.849  25.057  11.105
14024W        W86317   0.432  15.814   0.819
14025W        W86318  35.910  19.729  10.537
14026W        W86319   5.804  44.878  10.892
14027W        W86320  44.353  25.709   0.742
14028W        W86321  25.694   7.718   0.785
14029W        W86322  28.602  22.520   0.371
14030W        W86323   4.732  43.301   2.196
14031W        W86324  22.142  40.980   1.926
14032W        W86325  35.476   6.731  11.061
14033W        W86326  43.492   4.771   2.795
14034W        W86327  35.032  43.480   0.853
14035W        W86328  32.457   2.293  10.902
14036W        W86329   5.227  41.342   0.932
14037W        W86330  16.652  31.624   1.434
14038W        W86331   1.919   5.709  11.119
14039W        W86332  38.972  11.671   0.333
14040W        W86333   6.351  33.914   4.255
14041W        W86334  14.775  33.448  13.905
14042W        W86335   0.441  26.180  12.986
14043W        W86336   0.493  26.037   1.906
14044W        W86337  42.459  10.242   1.275
14045W        W86338  26.574   3.397   0.257
14046W        W86339  30.064   7.309  14.418
14047W        W86340  30.655  29.514  12.474
14048W        W86341   8.286   7.242  14.780
14049W        W86342   3.874  24.077   1.826
14050W        W86343   9.390  10.674   1.394
14051W        W86344  37.853  19.592   1.731
14052W        W86345  32.465  36.542  14.856
14053W        W86346  40.912   7.412   4.646
14054W        W86347   4.888  42.494   2.671
14055W        W86348  40.806  12.354   3.649
14056W        W86349  19.753  40.828   3.152
14057W        W86350  13.628   9.859   1.738
14058W        W86351   5.235  12.125  13.907
14059W        W86352  22.160   1.743   1.808
14060W        W86353  10.383  35.518  12.958
14061W        W86354   9.177  31.572   2.778
14062W        W86355  23.551   0.812  13.355
14063W        W86356  37.874  31.601   1.754
14064W        W86357   9.866  30.142   2.746
14065W        W86358   1.961  11.844   0.748
14066W        W86359   1.426  15.103   2.776
14067W        W86360   9.836  17.743  12.038
14068W        W86361  34.479  33.997   4.167
14069W        W86362   9.887  15.131  11.954
14070W        W86363  10.207  23.596  12.574
14071W        W86364  41.925  40.883   4.641
14072W        W86365  37.440   4.860   4.623
14073W        W86366  26.001  34.987  13.477
14074W        W86367  27.630  42.441  12.419
14075W        W86368  43.952  13.225   4.240
14076W        W86369  30.601   1.892  11.037
14077W        W86370  33.591  43.920   5.285
14078W        W86371  20.751   9.809   3.172
14079W        W86372  25.005  40.439  10.481
14080W        W86373  16.177  28.444  12.912
14081W        W86374  21.715  14.157  10.102
14082W        W86375  44.922  37.073   2.331
14083W        W86376  32.534  43.477  14.401
14084W        W86377  21.546  14.275  11.570
14085W        W86378   8.311  34.068  13.397
14086W        W86379  38.950  38.391  11.514
14087W        W86380  13.114  26.039  11.106
14088W        W86381  34.371  36.471   2.788
14089W        W86382  21.180  23.640   1.342
14090W        W86383  23.685  19.659  13.046
14091W        W86384  15.658  41.439  14.466
14092W        W86385   7.236  17.685   3.223
14093W        W86386  37.555  20.584  10.452
14094W        W86387  44.358  24.648  12.425
14095W        W86388  24.120   5.795  14.983
14096W        W86389  23.620  16.298   2.664
14097W        W86390  27.032  26.969   4.260
14098W        W86391  41.879  43.960   2.778
14099W        W86392  41.485  30.163   1.858
14100W        W86393   0.962   3.920   4.268
14101W        W86394  32.991   4.306  14.902
14102W        W86395  41.812  24.059  12.856
14103W        W86396   8.709   7.884   0.812
14104W        W86397  30.546  34.068   0.809
14105W        W86398  36.377  26.961   3.706
14106W        W86399  13.158  13.654   2.231
14107W        W86400  20.530   9.878   4.817
14108W        W86401  36.353   3.884   1.823
14109W        W86402  10.642  25.480   4.355
14110W        W86403  28.973  20.264  14.350
14111W        W86404  21.689  26.980   3.825
14112W        W86405   0.979  43.816   3.781
14113W        W86406  34.410  22.030  12.350
14114W        W86407   4.747  10.313  14.283
14115W        W86408  39.350  40.029   4.154
14116W        W86409  18.780  30.540  12.385
14117W        W86410   5.414  11.637   1.724
14118W        W86411  10.346   3.332  10.963
14119W        W86412  31.599  25.685   0.823
14120W        W86413  38.917  36.868   0.765
14121W        W86414   0.973  34.576  12.976
14122W        W86415  37.357   7.281  14.479
14123W        W86416  14.251  44.753  13.389
14124W        W86417  12.161  35.393   2.722
14125W        W86418   3.854  12.307  10.532
14126W        W86419   7.316   5.912  11.562
14127W        W86420  39.365  24.566   2.732
14128W        W86421  22.245   9.675  11.590
14129W        W86422  43.921  33.070  14.292
14130W        W86423  44.758  36.890  12.971
14131W        W86424   4.438  17.671   1.850
14132W        W86425  42.475  41.491   1.329
14133W        W86426   8.392  40.417  13.488
14134W        W86427  15.119   1.359  14.340
14135W        W86428  38.831  32.939   0.406
14136W        W86429  29.492  39.908   1.917
14137W        W86430   5.384  25.620   2.246
14138W        W86431  35.572  13.196   1.354
14139W        W86432  30.950  28.015  14.938
14140W        W86433  44.867  20.767   0.753
14141W        W86434  18.755   9.732   2.407
14142W        W86435   6.676  18.573  13.506
14143W        W86436  23.176  25.661   3.640
14144W        W86437  11.175   1.315  11.981
14145W        W86438  37.508  38.982   0.931
14146W        W86439  25.970   8.687  12.415
14147W        W86440   6.251  21.553  13.004
14148W        W86441   9.845  24.053   0.276
14149W        W86442  28.997  43.851  13.867
14150W        W86443   7.269   1.345   1.323
14151W        W86444  19.256  14.105   4.134
14152W        W86445  31.480  38.440   3.780
14153W        W86446   4.871  26.051  14.918
14154W        W86447  34.473  22.101  10.436
14155W        W86448  20.030  38.398   1.341
14156W        W86449   6.213  18.216  11.593
14157W        W86450  34.940  20.180  14.818
14158W        W86451  42.517   4.763   1.898
14159W        W86452  19.562  25.617   3.149
14160W        W86453  22.583  20.082  10.985
14161W        W86454  26.459  42.368   4.196
14162W        W86455   5.913  40.860  14.336
14163W        W86456  29.508  11.860   5.220
14164W        W86457  31.600  10.711   9.947
14165W        W86458   5.376   9.195  13.939
14166W        W86459   0.345  33.049   2.307
14167W        W86460   8.784  39.892   0.740
14168W        W86461  43.852  29.027   3.257
14169W        W86462  36.358   2.785  14.379
14170W        W86463  39.876  19.585  14.364
14171W        W86464  13.786  11.217  14.286
14172W        W86465  22.612  19.606  10.944
14173W        W86466  29.117  14.246  11.501
14174W        W86467   7.817   5.350  11.941
14175W        W86468  13.622  29.551  11.911
14176W        W86469  43.328  37.507   2.320
14177W        W86470  35.046  32.069  14.393
14178W        W86471  29.051  28.662   0.923
14179W        W86472  25.023  35.962   4.718
14180W        W86473   3.807  42.999   0.246
14181W        W86474   7.216  33.927  13.876
14182W        W86475  22.708  36.547  10.495
14183W        W86476  10.751  18.090  11.866
14184W        W86477  41.355  26.685  12.075
14185W        W86478   1.886  43.287  12.857
14186W        W86479   8.812  21.144   1.424
14187W        W86480   2.882  39.512  12.866
14188W        W86481  31.085  32.027   0.269
14189W        W86482   3.775   9.297   0.742
14190W        W86483  16.160  15.609   4.259
14191W        W86484  21.585  21.213  13.000
14192W        W86485  30.022  17.754   2.408
14193W        W86486  24.996  17.091  13.352
14194W        W86487   5.752  12.754   4.144
14195W        W86488  11.149   2.790   3.295
14196W        W86489  25.601   3.824  12.926
14197W        W86490  43.894   1.267   1.736
14198W        W86491  41.869  39.537   1.734
14199W        W86492  31.438  10.831  13.946
14200W        W86493  28.175  14.283   0.400
14201W        W86494   9.765  26.020  14.338
14202W        W86495  11.283  43.797   4.236
14203W        W86496  32.429  33.979   4.208
14204W        W86497  16.142  35.482  12.045
14205W        W86498   5.788  31.152   1.228
14206W        W86499  34.103   3.896  11.570
14207W        W86500  36.560  25.146  12.898
14208W        W86501  20.730  21.719   5.288
14209W        W86502   1.920   3.235   3.310
14210W        W86503   3.949  16.730  11.447
14211W        W86504  20.666  20.226  10.536
14212W        W86505   7.309   4.732  11.461
14213W        W86506  35.544  38.948  14.768
14214W        W86507  38.553  37.851  12.859
14215W        W86508   0.828  22.650  12.355
14216W        W86509  24.149  17.260  12.472
14217W        W86510  39.522  13.145  12.419
14218W        W86511  39.345  37.831   2.903
14219W        W86512  30.147  15.115   0.915
14220W        W86513  29.617  23.237  12.080
14221W        W86514   8.784  44.817  12.559
14222W        W86515  18.628   8.185   0.364
14223W        W86516  20.524  18.782  11.068
14224W        W86517  15.141   8.355   0.848
14225W        W86518  13.617  41.472  10.464
14226W        W86519  11.344  23.662   4.186
14227W        W86520  41.805  11.864  13.961
14228W        W86521  38.829   9.653  11.382
14229W        W86522  34.057  29.548   2.311
14230W        W86523  42.002  42.831  10.557
14231W        W86524   4.793  40.944  14.873
14232W        W86525   6.228  13.805   3.265
14233W        W86526  17.153  11.632  14.837
14234W        W86527  20.267  25.154  10.927
14235W        W86528   8.358  23.239   3.367
14236W        W86529  20.035  39.012   4.195
14237W        W86530  25.200   6.752   1.736
14238W        W86531  40.916  22.565   1.299
14239W        W86532  37.984   9.847  11.003
14240W        W86533  32.006  12.666  11.102
14241W        W86534  38.075  39.486   1.235
14242W        W86535  21.526  17.131   3.699
14243W        W86536  16.193  40.048  12.854
14244W        W86537   6.219  22.590   4.128
14245W        W86538   6.678  18.149   0.917
14246W        W86539  13.171  27.457  14.478
14247W        W86540  23.078   7.303  10.498
14248W        W86541   5.708  25.682  13.330
14249W        W86542  30.547  27.071  13.987
14250W        W86543  11.843  22.590   4.248
14251W        W86544  38.478  40.410   3.249
14252W        W86545  43.871  12.755   1.426
14253W        W86546   2.312   2.426   0.747
14254W        W86547  33.492  38.547   2.754
14255W        W86548   5.386  25.117   1.856
14256W        W86549  34.890  11.308   2.321
14257W        W86550  31.538  36.355   1.726
14258W        W86551  39.913  36.519  13.825
14259W        W86552  15.115   5.744   1.703
14260W        W86553  32.023  14.753  12.926
14261W        W86554   2.839  16.685  13.365
14262W        W86555  17.067   1.396  10.992
14263W        W86556  35.876   9.228   1.265
14264W        W86557  43.443  23.511  13.904
14265W        W86558  25.058  18.746   2.237
14266W        W86559   9.159  39.870   0.827
14267W        W86560  28.484  21.681   5.123
14268W        W86561  41.840  25.041  12.034
14269W        W86562   7.706  25.994  13.002
14270W        W86563  44.267  36.365   3.208
14271W        W86564  31.647   5.841   4.694
14272W        W86565   7.207  40.899  11.488
14273W        W86566  20.555  30.163  14.356
14274W        W86567  26.032  32.131   2.869
14275W        W86568   2.783  17.776  14.465
14276W        W86569  23.729  21.263  11.879
14277W        W86570  33.621  17.300  13.946
14278W        W86571  21.101  12.750  12.067
14279W        W86572  40.404  38.998  11.528
14280W        W86573  34.899  13.803  13.365
14281W        W86574  14.764  44.996   2.849
14282W        W86575  37.476  43.987  14.429
14283W        W86576   4.207   9.719  11.077
14284W        W86577  26.574  28.621  12.891
14285W        W86578  26.143  41.369   0.262
14286W        W86579  33.418  43.511  13.900
14287W        W86580  28.003   8.170   4.247
14288W        W86581   7.292  40.917  12.988
14289W        W86582  18.065   3.810   3.238
14290W        W86583  14.245  30.041   4.598
14291W        W86584   0.354  12.836  12.927
14292W        W86585  23.728  35.083  13.862
14293W        W86586  35.417  38.906   3.295
14294W        W86587  27.670   1.382  13.886
14295W        W86588  43.781  43.405  14.394
14296W        W86589  33.052  32.053  12.928
14297W        W86590  34.075  12.215   3.248
14298W        W86591  21.039  37.429  10.442
14299W        W86592  44.312  34.003   4.795
14300W        W86593  11.842   0.931   1.437
14301W        W86594   1.875  35.393   3.190
14302W        W86595   5.425  39.039   2.843
14303W        W86596  17.709  28.089   1.448
14304W        W86597  44.806  32.997  14.841
14305W        W86598  43.803  28.640   0.813
14306W        W86599  43.903  16.776  13.310
14307W        W86600   3.788   3.879   4.170
14308W        W86601  31.616  33.564   4.221
14309W        W86602   6.286  31.092  13.401
14310W        W86603  14.336  20.057   2.708
14311W        W86604   7.312  14.190   4.712
14312W        W86605  27.674   8.172   3.777
14313W        W86606  36.430   9.853  10.448
14314W        W86607  16.606  44.784  14.840
14315W        W86608   7.299  14.263  14.337
14316W        W86609  37.026  24.485  13.850
14317W        W86610  10.868  44.449  11.027
14318W        W86611  27.634  25.217   0.786
14319W        W86612   3.824  16.227   2.221
14320W        W86613  38.958  33.498  13.020
14321W        W86614  10.700  29.951  10.507
14322W        W86615  40.461  42.943  10.054
14323W        W86616  37.085   0.796  11.583
14324W        W86617  44.435  44.886   4.764
14325W        W86618  10.755  28.136  10.960
14326W        W86619  43.478  28.618  10.560
14327W        W86620  13.123  21.669  12.555
14328W        W86621  12.771  32.996   0.758
14329W        W86622  18.186  32.500  10.548
14330W        W86623  13.183  10.683   4.116
14331W        W86624  40.419  17.154  10.557
14332W        W86625  12.339  30.158   3.715
14333W        W86626   9.387  32.563   3.819
14334W        W86627  18.706  41.470   9.980
14335W        W86628  13.226  23.614   1.308
14336W        W86629  40.007  33.384   2.286
14337W        W86630  17.061  15.173  12.348
14338W        W86631  23.026  20.111   0.746
14339W        W86632  19.628  15.609   1.333
14340W        W86633  13.173  23.538   0.933
14341W        W86634   2.785  27.149  10.983
14342W        W86635   6.285  35.917   2.382
14343W        W86636  21.697   7.739  13.321
14344W        W86637  40.927   5.739  12.374
14345W        W86638  29.454  16.769  10.619
14346W        W86639  32.140  29.018  13.378
14347W        W86640  11.622  17.715   4.283
14348W        W86641  19.730  29.027   0.462
14349W        W86642  31.503   8.258  13.890
14350W        W86643   2.926  28.018   1.288
14351W        W86644  44.439  22.725   1.372
14352W        W86645  24.492  25.514   3.367
14353W        W86646   7.895  20.084  13.869
14354W        W86647  27.958  13.124   3.324
14355W        W86648  33.575  12.319  14.006
14356W        W86649  38.346  20.214   2.795
14357W        W86650  34.991  17.662   4.198
14358W        W86651  17.611  42.494   4.778
14359W        W86652  33.575  27.052  12.882
14360W        W86653   3.357  35.489  13.804
14361W        W86654   7.184   7.290  14.439
14362W        W86655  34.960  39.909   4.649
14363W        W86656  24.538  32.051  12.079
14364W        W86657  34.866   5.880   3.790
14365W        W86658  13.808  22.576   0.729
14366W        W86659  33.012  32.633  14.453
14367W        W86660  23.713   6.679  10.424
14368W        W86661  41.003  21.256  13.483
14369W        W86662  27.457  42.917  13.471
14370W        W86663  37.363  27.524  13.354
14371W        W86664  17.634   5.322  13.470
14372W        W86665  25.118  27.661   0.888
14373W        W86666  20.245  13.681  14.363
14374W        W86667   0.842  43.447   1.406
14375W        W86668   6.414  31.097  13.064
14376W        W86669  30.143  24.637   2.900
14377W        W86670  22.189   9.172  11.931
14378W        W86671  32.078  33.962   3.656
14379W        W86672  11.702  41.475  14.991
14380W        W86673  35.376  34.579  10.947
14381W        W86674   2.726  16.712  10.573
14382W        W86675  27.637  39.944   1.908
14383W        W86676  23.609  38.838  10.418
14384W        W86677   9.742  35.052   0.871
14385W        W86678  25.581  14.114  10.121
14386W        W86679  31.475  15.818  12.476
14387W        W86680   1.790  29.477  11.599
14388W        W86681  12.809  44.844  11.927
14389W        W86682  22.518  19.241  13.804
14390W        W86683  39.959  17.611  13.424
14391W        W86684  23.661  33.879  13.039
14392W        W86685  30.938  16.270  12.934
14393W        W86686  40.980  20.531   1.710
14394W        W86687  35.477  44.913  13.483
14395W        W86688  43.998  35.930  13.406
14396W        W86689   0.906   2.294   4.701
14397W        W86690   1.785  28.126   2.248
14398W        W86691   1.275  22.170  13.354
14399W        W86692   4.354   1.405   1.868
14400W        W86693  42.810   4.210   0.755
14401W        W86694  29.053   8.884  13.520
14402W        W86695   4.290   4.896   4.796
14403W        W86696  28.115  42.462   4.147
14404W        W86697  18.599  42.385  14.394
14405W        W86698  37.040  43.406   1.851
14406W        W86699   2.770  10.176   4.680
14407W        W86700   0.778  17.687   4.342
14408W        W86701   7.217  35.410  11.487
14409W        W86702  19.116   6.822   1.232
14410W        W86703  10.342  37.424   2.266
14411W        W86704  44.476  38.999   0.465
14412W        W86705   8.672  44.758   1.357
14413W        W86706  17.278  35.014  12.048
14414W        W86707  44.001   1.370   1.237
14415W        W86708  23.514  13.195  12.462
14416W        W86709   3.941  18.283  14.504
14417W        W86710  43.407  21.713   1.411
14418W        W86711  32.045  34.075   2.315
14419W        W86712   7.233  24.715  13.457
14420W        W86713   9.817  17.186   0.903
14421W        W86714  28.182  19.629   4.667
14422W        W86715  36.993  34.380   2.361
14423W        W86716  22.599   0.747  12.840
14424W        W86717   6.394  18.253   2.847
14425W        W86718  31.996  16.738  13.987
14426W        W86719  41.436  25.491  13.057
14427W        W86720  42.775  19.585   3.183
14428W        W86721  39.953  14.589  10.929
14429W        W86722  12.738  10.265  14.301
14430W        W86723  22.117   8.760   1.372
14431W        W86724  32.117  37.385   0.754
14432W        W86725   2.322  19.175   3.752
14433W        W86726  36.959  35.872   2.242
14434W        W86727  25.527  22.715   4.171
14435W        W86728  42.030  25.172   3.226
14436W        W86729  31.904   0.305  14.506
14437W        W86730  39.873  29.488   2.828
14438W        W86731   1.456  40.457  12.090
14439W        W86732  39.525   8.887  12.408
14440W        W86733  33.933   9.677   0.902
14441W        W86734  30.426  35.989  12.863
14442W        W86735  34.894   9.325  12.982
14443W        W86736  39.494  18.767   3.770
14444W        W86737   3.795  26.539  11.421
14445W        W86738  10.658  12.295  13.902
14446W        W86739  34.946   5.877  10.421
14447W        W86740   1.351  16.239   3.808
14448W        W86741  15.821   4.348   1.296
14449W        W86742  15.124  11.355   0.810
14450W        W86743  41.906   8.195  11.422
14451W        W86744  24.667  23.163  13.828
14452W        W86745  17.694  34.476  13.353
14453W        W86746  17.719  12.718   1.717
14454W        W86747  31.447  38.966  13.060
14455W        W86748  22.233  10.696  13.945
14456W        W86749   2.394  39.525  13.974
14457W        W86750  23.988  19.165   3.790
14458W        W86751   6.335  43.000   0.897
14459W        W86752  40.409  35.381  13.050
14460W        W86753  43.471  38.034  12.908
14461W        W86754  39.913  32.443  10.485
14462W        W86755  29.632   0.845   0.312
14463W        W86756  34.038  27.685  13.860
14464W        W86757  29.991  38.370  14.776
14465W        W86758  20.763  19.157  14.821
14466W        W86759  12.622   9.152  14.494
14467W        W86760  43.421   4.805  12.977
14468W        W86761  14.290  44.818   1.402
14469W        W86762   3.727  30.599   2.226
14470W        W86763  22.673  27.556   2.205
14471W        W86764  16.293  16.627   1.219
14472W        W86765  42.438  33.456  14.374
14473W        W86766  29.634  37.899   4.759
14474W        W86767  32.926  27.190  11.596
14475W        W86768   4.836   6.390   4.298
14476W        W86769  34.934  18.641   2.380
14477W        W86770  19.111  18.109   3.386
14478W        W86771  31.401   5.383  14.311
14479W        W86772  33.600   5.756  14.491
14480W        W86773  27.636   2.887  14.320
14481W        W86774  28.994   1.923  13.312
14482W        W86775  15.269  34.070  10.603
14483W        W86776  11.262  20.169  13.793
14484W        W86777   7.408  28.595  10.596
14485W        W86778  11.738  44.808   0.284
14486W        W86779  34.583  21.156  11.883
14487W        W86780   0.466  23.070   3.152
14488W        W86781  16.151   0.986   0.751
14489W        W86782  35.030  14.833  14.425
14490W        W86783  20.225  31.911   2.355
14491W        W86784  10.656  25.026  13.845
14492W        W86785  19.069  19.184   0.350
14493W        W86786   8.200  22.679  13.536
14494W        W86787  36.042   0.302  11.374
14495W        W86788   8.165   0.871   1.716
14496W        W86789  18.691  39.523  10.962
14497W        W86790  20.613  39.959   1.414
14498W        W86791  18.154  43.819  11.097
14499W        W86792  11.200  33.520  10.607
14500W        W86793  18.230  39.972   3.681
14501W        W86794  33.999  24.652   0.252
14502W        W86795  39.887  28.585   0.331
14503W        W86796  14.265  13.340   5.322
14504W        W86797  13.814  22.182  13.054
14505W        W86798  33.949   0.470   1.336
14506W        W86799   1.799  27.046   2.763
14507W        W86800  32.511  42.385  11.076
14508W        W86801  10.344   4.449   4.758
14509W        W86802   5.882  44.781   4.605
14510W        W86803  39.871  20.252  14.864
14511W        W86804  37.847   0.911  12.353
14512W        W86805  22.160  23.171   2.768
14513W        W86806  23.523  18.687  13.351
14514W        W86807   4.716  33.106   1.234
14515W        W86808  37.867  43.463  14.954
14516W        W86809  26.975  42.306  11.484
14517W        W86810  15.230   3.942   4.621
14518W        W86811  13.781  23.135  10.462
14519W        W86812  29.480  27.496   2.852
14520W        W86813  43.008  11.728   4.193
14521W        W86814   0.337   3.256   0.370
14522W        W86815  44.303  42.999   3.239
14523W        W86816   4.345  18.781  11.490
14524W        W86817  20.651   4.239   3.865
14525W        W86818  11.301  34.003  12.905
14526W        W86819   3.718  44.455  11.525
14527W        W86820  19.065  30.427   5.098
14528W        W86821  11.655  22.512   2.856
14529W        W86822  27.583  16.573   0.744
14530W        W86823  20.063  43.432  14.905
14531W        W86824  39.994  42.941  11.862
14532W        W86825  37.872   2.754  12.009
14533W        W86826  20.677  29.666   3.672
14534W        W86827  44.997  18.610   3.702
14535W        W86828  33.577  15.220   4.837
14536W        W86829  14.604   5.709   2.403
14537W        W86830  18.069  11.319  14.307
14538W        W86831  27.655  34.378   3.280
14539W        W86832  44.840  30.961   0.920
14540W        W86833  30.040  22.652   9.471
14541W        W86834  36.373  31.514  11.520
14542W        W86835   5.275  28.479   0.781
14543W        W86836  16.777  34.028  14.339
14544W        W86837  18.215   1.285  13.964
14545W        W86838  20.640  41.533  13.513
14546W        W86839   6.428  10.677  12.476
14547W        W86840  23.711  22.041   0.962
14548W        W86841  18.623  18.756   2.695
14549W        W86842  35.554   5.384  14.495
14550W        W86843  22.516  27.513   1.445
14551W        W86844  30.644  35.589   1.801
14552W        W86845  19.173  36.368  11.988
14553W        W86846   6.270  31.542  12.951
14554W        W86847  40.927  18.175   1.218
14555W        W86848   1.762   2.365   3.279
14556W        W86849   2.320   7.267  14.310
14557W        W86850  27.990  20.525  12.921
14558W        W86851  14.805  25.495  14.377
14559W        W86852   3.802   5.352   4.615
14560W        W86853  44.486   1.927  14.394
14561W        W86854  19.044   6.428  12.055
14562W        W86855  42.336   6.801  11.611
14563W        W86856  26.592  38.406   1.723
14564W        W86857  38.032  13.618  10.902
14565W        W86858   3.358  41.991   0.876
14566W        W86859   8.866  17.654   2.740
14567W        W86860   7.683  29.426   4.673
14568W        W86861  42.517   3.723  11.426
14569W        W86862   0.807  29.586   3.836
14570W        W86863  11.656  37.990   0.366
14571W        W86864   5.795  23.118   3.859
14572W        W86865  10.326   6.358   4.181
14573W        W86866  29.138  18.257   1.877
14574W        W86867  20.097  23.731   3.657
14575W        W86868  16.764   2.342   0.296
14576W        W86869  17.747  18.550  13.025
14577W        W86870   3.909  22.717   1.323
14578W        W86871  29.580  33.610   4.225
14579W        W86872  42.338   2.801  14.407
14580W        W86873   5.231   8.742   4.696
14581W        W86874  43.352  14.330  13.964
14582W        W86875   7.843  33.107  13.974
14583W        W86876  29.036   0.848  14.005
14584W        W86877  28.491   7.214   3.189
14585W        W86878  28.081   7.349  11.094
14586W        W86879  42.453  30.085  12.863
14587W        W86880  20.661   9.715   4.328
14588W        W86881   8.240  41.308   2.330
14589W        W86882  20.561   8.856   1.914
14590W        W86883   0.482  14.618   4.796
14591W        W86884   6.298   2.901   3.236
14592W        W86885  16.140  40.424  13.308
14593W        W86886  12.669  12.294   2.705
14594W        W86887  34.913  20.065   1.298
14595W        W86888  35.453   5.238   2.353
14596W        W86889  26.208   1.937  10.481
14597W        W86890  20.594  35.578   4.778
14598W        W86891   9.737  14.788   1.409
14599W        W86892   4.249  23.036  10.890
14600W        W86893  10.344  18.757   4.700
14601W        W86894  23.537  23.170   0.298
14602W        W86895   2.471  31.644  13.998
14603W        W86896  32.070  28.464   4.659
14604W        W86897   5.922  32.072   1.360
14605W        W86898   7.815  30.504  14.926
14606W        W86899   9.867  35.886   2.309
14607W        W86900  40.967  14.238  13.490
14608W        W86901   6.218  16.571   4.623
14609W        W86902  20.570  10.281   5.160
14610W        W86903  13.767  30.952   1.926
14611W        W86904  12.143   3.793  14.762
14612W        W86905  33.964  33.068   3.222
14613W        W86906  40.393  43.346   2.202
14614W        W86907  34.586  38.373   4.227
14615W        W86908   2.834   9.647   4.667
14616W        W86909  38.957  14.278   0.262
14617W        W86910   4.742   0.340   1.255
14618W        W86911  41.369   2.434   0.394
14619W        W86912  20.191   5.401   3.757
14620W        W86913  18.164  38.971   0.317
14621W        W86914   0.920  13.805   2.696
14622W        W86915  13.841  41.006   2.856
14623W        W86916   1.760  20.108  12.969
14624W        W86917   1.259  41.858   2.297
14625W        W86918  33.998   0.284   1.825
14626W        W86919  38.557   1.737  11.459
14627W        W86920  13.727  39.968  11.862
14628W        W86921  33.034  15.628   1.255
14629W        W86922  28.534  10.638  12.885
14630W        W86923  10.149  37.833   1.723
14631W        W86924  43.874  36.429   5.298
14632W        W86925   8.238  26.029   4.736
14633W        W86926   1.798  15.086   1.802
14634W        W86927   8.727  35.526  10.134
14635W        W86928   6.423  35.516   9.510
14636W        W86929  37.015  33.443  10.465
14637W        W86930  43.799  24.107   4.705
14638W        W86931   4.715   7.236  10.035
14639W        W86932   0.764  12.670  12.960
14640W        W86933  37.069   3.875  14.296
14641W        W86934   9.268   9.305  14.959
14642W        W86935  40.845  41.362   1.767
14643W        W86936  23.996  21.232   4.723
14644W        W86937  24.595  18.133  12.913
14645W        W86938  23.532   5.697  13.842
14646W        W86939  19.088  28.494  14.785
14647W        W86940  33.545  30.605   4.230
14648W        W86941  29.497  38.481   4.632
14649W        W86942  36.940  14.202  11.118
14650W        W86943  36.463  19.179  14.440
14651W        W86944  26.952  18.180  11.997
14652W        W86945  25.072  15.183   3.667
14653W        W86946  30.490  37.891   2.739
14654W        W86947  13.827  33.516  10.491
14655W        W86948  15.690  35.484  13.984
14656W        W86949  44.005  32.083  11.965
14657W        W86950  19.564  37.023  11.041
14658W        W86951   6.216  30.479   3.369
14659W        W86952   9.644  37.903   1.916
14660W        W86953  18.731  43.403   0.365
14661W        W86954   5.408  16.669   4.204
14662W        W86955  36.852  31.441  12.077
14663W        W86956   7.752  21.148  11.990
14664W        W86957  39.054   3.343   3.664
14665W        W86958  41.817  21.053  12.561
14666W        W86959  36.891  42.313   0.947
14667W        W86960  44.927  44.479  12.386
14668W        W86961   6.307   3.331   0.267
14669W        W86962   2.381  15.600   2.224
14670W        W86963  18.582  37.366  14.311
14671W        W86964  11.200  30.999  14.866
14672W        W86965  13.792  30.154   4.665
14673W        W86966   7.285   5.344   2.179
14674W        W86967  39.366   7.172  14.823
14675W        W86968  22.010  10.876  10.509
14676W        W86969  10.249  27.186   1.868
14677W        W86970  28.055  17.783   1.352
14678W        W86971  18.218   2.939  12.509
14679W        W86972  22.141  11.754  13.000
14680W        W86973   5.923   2.946   4.661
14681W        W86974  13.614  23.207   0.478
14682W        W86975  34.931  15.670   1.916
14683W        W86976  21.215  22.020   0.330
14684W        W86977  14.694   2.268  12.577
14685W        W86978  17.202  30.959  13.421
14686W        W86979  24.081  38.982  12.450
14687W        W86980  25.027  15.728   2.389
14688W        W86981  22.143  15.733  12.446
14689W        W86982   6.863   7.812  11.898
14690W        W86983   4.928  43.839   4.739
14691W        W86984  25.054  20.213  11.470
14692W        W86985  16.201  40.468  10.422
14693W        W86986  38.870  39.895   3.371
14694W        W86987  34.610  17.274  11.395
14695W        W86988  36.880  16.738   1.778
14696W        W86989  30.017  41.891  14.275
14697W        W86990  15.102  29.009   3.696
14698W        W86991  17.667  40.536  13.944
14699W        W86992  42.951   2.324  14.817
14700W        W86993  40.853  27.091   4.114
14701W        W86994  19.711  10.210   2.696
14702W        W86995  22.243  42.380   0.768
14703W        W86996   1.386  10.165  14.922
14704W        W86997  24.613  34.403   0.269
14705W        W86998  33.533  15.823   1.221
14706W        W86999  32.020  24.596  14.759
14707W        W87000  14.118  39.027   1.823
14708W        W87001  23.553  21.207   4.671
14709W        W87002  28.625   3.437  13.830
14710W        W87003  10.804  38.938  13.326
14711W        W87004  10.674   2.899   3.730
14712W        W87005   0.784  32.063  11.030
14713W        W87006  14.815  36.906   0.888
14714W        W87007  16.080   7.172  11.078
14715W        W87008  41.896   8.737   2.248
14716W        W87009  43.443  18.245   4.650
14717W        W87010   9.646  24.601   3.333
14718W        W87011  16.812  41.452  12.399
14719W        W87012  40.387  35.414   1.351
14720W        W87013   9.212  33.024  12.918
14721W        W87014  40.953  14.667   4.829
14722W        W87015   6.307  32.079   0.313
14723W        W87016  34.045   6.826   2.768
14724W        W87017  21.240  24.703   3.224
14725W        W87018   1.371   7.789  12.873
14726W        W87019  26.042  27.165   4.712
14727W        W87020  38.435   2.771   2.750
14728W        W87021  37.053  24.017   2.850
14729W        W87022  11.344  21.154   0.867
14730W        W87023  22.697  10.246  12.492
14731W        W87024  26.542  30.029   2.337
14732W        W87025   5.365  31.008  12.560
14733W        W87026  27.010  40.396   2.293
14734W        W87027  12.155  34.376  13.447
14735W        W87028  38.018  31.023  10.631
14736W        W87029  11.243  44.851  13.532
14737W        W87030   5.720  35.567  14.877
14738W        W87031  21.165  24.201  12.539
14739W        W87032  10.207  26.070  10.949
14740W        W87033  11.784   1.814  11.073
14741W        W87034  22.617  19.672   5.139
14742W        W87035  28.558  35.022  13.898
14743W        W87036   7.792  20.167  12.980
14744W        W87037  35.522  20.529  13.366
14745W        W87038  35.399  41.935   2.257
14746W        W87039  19.085  14.825  14.388
14747W        W87040  13.318  29.144  10.616
14748W        W87041  43.311  11.823   4.638
14749W        W87042   9.219  16.175  11.071
14750W        W87043  41.532  35.379   0.366
14751W        W87044   9.363  16.104   0.351
14752W        W87045  17.296  28.127   0.787
14753W        W87046   0.840   8.684   2.405
14754W        W87047   9.169  13.816  13.028
14755W        W87048  18.263  28.636   2.301
14756W        W87049  11.180  35.083  12.502
14757W        W87050  12.129  19.651  13.421
14758W        W87051  24.155  41.458   2.838
14759W        W87052  37.480  10.186  11.956
14760W        W87053  38.519  35.917  14.377
14761W        W87054  25.035  33.607   3.299
14762W        W87055  36.986  41.992   4.740
14763W        W87056  41.800   2.298  12.558
14764W        W87057  27.598  27.050  11.500
14765W        W87058   9.173  13.180  13.519
14766W        W87059  19.734  14.122   0.823
14767W        W87060  11.805   9.242   0.732
14768W        W87061  18.581  23.004   0.327
14769W        W87062  38.898  31.620   0.738
14770W        W87063  13.707  16.647  13.967
14771W        W87064  11.767   7.720  10.538
14772W        W87065   5.861  37.869   3.795
14773W        W87066  23.634   4.761   3.251
14774W        W87067   7.250  24.977   2.670
14775W        W87068  31.053  20.627  13.990
14776W        W87069  17.665  26.205  10.577
14777W        W87070  34.511  39.385   4.781
14778W        W87071  36.534  19.648  10.645
14779W        W87072  32.421  11.629  12.024
14780W        W87073  34.959   4.383  10.561
14781W        W87074   0.437  26.468   3.294
14782W        W87075  33.060  17.778   0.922
14783W        W87076  34.424  43.835  14.831
14784W        W87077  18.678  33.989   0.804
14785W        W87078   8.713   9.377  10.982
14786W        W87079  41.497  24.082   0.347
14787W        W87080   0.775   4.861  14.792
14788W        W87081   6.697  22.617  11.995
14789W        W87082  35.591  20.700  12.010
14790W        W87083  27.159  40.955   2.770
14791W        W87084   0.789  13.846   1.290
14792W        W87085  26.967  40.941  12.009
14793W        W87086  37.496  25.167   1.446
14794W        W87087  13.834   5.229  14.002
14795W        W87088  28.468  42.980   4.813
14796W        W87089  30.995  23.733   1.888
14797W        W87090  44.375  28.144   0.794
14798W        W87091   5.383   3.730   3.643
14799W        W87092  32.435  33.584  12.999
14800W        W87093   6.734   5.420  11.106
14801W        W87094  28.078  37.972  11.530
14802W        W87095   0.902  44.802   3.163
14803W        W87096  30.630  18.156  14.794
14804W        W87097  30.564  42.324   4.644
14805W        W87098   1.751  27.990  13.060
14806W        W87099  24.107  25.970   1.258
14807W        W87100  30.119  41.980  13.335
14808W        W87101  35.994   1.738  12.425
14809W        W87102  32.127  30.484   0.315
14810W        W87103  22.567   5.207   3.368
14811W        W87104  15.727  34.393  12.375
14812W        W87105  12.666  25.049  11.516
14813W        W87106  20.636  26.634  11.094
14814W        W87107  37.860  25.137   0.817
14815W        W87108  38.550   2.374  11.526
14816W        W87109  40.403  42.496  13.327
14817W        W87110  39.012  41.435  11.918
14818W        W87111   9.241  41.803  13.842
14819W        W87112  13.703   7.707  11.027
14820W        W87113  18.672  13.776  12.359
14821W        W87114  27.484  27.953  12.467
14822W        W87115  33.599  11.290   3.756
14823W        W87116   3.830   3.745  11.898
14824W        W87117  36.411  37.966  12.040
14825W        W87118  43.416   6.265   0.266
14826W        W87119  33.625   8.238  14.492
14827W        W87120  27.993  16.081  14.785
14828W        W87121  38.017  20.168  13.506
14829W        W87122  27.182  22.086   3.671
14830W        W87123  42.910  44.433   2.215
14831W        W87124   4.414  34.874  14.901
14832W        W87125   2.364  43.856   4.205
14833W        W87126   2.268  19.562  10.488
14834W        W87127  17.285  38.917   0.790
14835W        W87128   3.299  31.516   3.182
14836W        W87129  10.715  35.600   4.637
14837W        W87130  15.706   5.272  13.027
14838W        W87131   9.379  34.060   5.749
14839W        W87132  32.136  38.888   4.139
14840W        W87133   1.328  21.189   1.697
14841W        W87134  37.555   0.864  13.821
14842W        W87135   9.209   8.305  14.499
14843W        W87136  28.523  31.450   1.700
14844W        W87137  28.449  38.349  11.505
14845W        W87138   3.258   0.804   5.159
14846W        W87139  43.941  16.627   3.853
14847W        W87140  30.644  35.065   0.827
14848W        W87141  11.291   6.414  14.919
14849W        W87142  35.930  25.556  12.989
14850W        W87143  16.287  44.281   1.377
14851W        W87144  26.014  19.586  11.063
14852W        W87145  27.008  24.557   2.251
14853W        W87146   2.415  25.007  12.580
14854W        W87147  43.322  15.752   2.859
14855W        W87148  13.687  16.280  12.842
14856W        W87149   0.313   3.370  10.956
14857W        W87150  24.663  19.632   4.699
14858W        W87151  15.616   6.419   4.279
14859W        W87152  36.428  16.799   4.722
14860W        W87153  19.214  33.589   3.808
14861W        W87154   2.798   4.398  11.124
14862W        W87155  31.569   5.211   0.946
14863W        W87156  16.571  35.528  13.908
14864W        W87157  24.070   7.416  11.004
14865W        W87158   6.286  13.609   4.619
14866W        W87159  30.519  22.699   0.891
14867W        W87160   8.179   6.395  13.924
14868W        W87161  34.546  39.376   0.936
14869W        W87162  23.547  20.205  11.480
14870W        W87163  20.739  23.125  13.944
14871W        W87164  24.487   8.222   0.290
14872W        W87165   3.456   2.306   4.268
14873W        W87166  42.520   5.398   1.803
14874W        W87167  35.003  20.523  11.039
14875W        W87168   0.836  13.321   2.365
14876W        W87169   8.395   2.799  13.800
14877W        W87170   1.803  19.063   4.218
14878W        W87171   7.717  43.995  11.516
14879W        W87172   9.203   3.426  10.619
14880W        W87173  35.438   0.795  12.865
14881W        W87174  40.849  41.493   4.833
14882W        W87175  30.036   4.322  10.454
14883W        W87176  28.052  10.877   4.162
14884W        W87177  42.416  25.574   2.254
14885W        W87178  25.649  23.133   0.381
14886W        W87179   5.370   4.332  11.067
14887W        W87180  34.975  27.147  12.528
14888W        W87181  32.130  10.788  10.083
14889W        W87182  40.981  43.012   4.312
14890W        W87183  36.409  14.735  14.950
14891W        W87184  11.752  22.033   4.791
14892W        W87185  24.211  37.956   4.828
14893W        W87186  22.105  33.572   0.925
14894W        W87187  17.074   8.404   3.187
14895W        W87188  23.103  38.465   3.764
14896W        W87189  34.954  33.510   0.851
14897W        W87190  44.885  28.522  13.857
14898W        W87191  21.063  31.434   5.754
14899W        W87192   2.734  21.555   3.212
14900W        W87193  43.005   2.738  13.922
14901W        W87194  23.642  42.489   2.288
14902W        W87195  37.945  12.691  11.515
14903W        W87196  19.269  37.415  10.581
14904W        W87197   0.898  34.556   1.724
14905W        W87198  38.937  43.001  12.925
14906W        W87199   0.841  16.169  14.951
14907W        W87200  28.635  31.975  13.870
14908W        W87201   1.891  26.194   4.246
14909W        W87202  44.815  34.972  12.366
14910W        W87203  10.227  36.374   4.259
14911W        W87204  21.598  16.568   3.198
14912W        W87205  34.955   3.880  10.552
14913W        W87206  36.017  18.760  12.933
14914W        W87207   2.934  22.015   3.178
14915W        W87208   6.810  38.383  13.389
14916W        W87209  21.557  33.986  11.379
14917W        W87210   9.752  44.367   2.361
14918W        W87211  29.046  14.263   4.680
14919W        W87212  22.017  12.226  12.957
14920W        W87213   9.661  44.961  12.477
14921W        W87214  15.324  37.066   1.421
14922W        W87215   6.210  35.101   5.250
14923W        W87216  30.910  44.931   3.713
14924W        W87217  43.819  29.096   1.739
14925W        W87218  41.001  33.970   4.232
14926W        W87219  19.249  12.705   3.708
14927W        W87220  35.460   2.300  11.880
14928W        W87221   9.260  14.269  12.579
14929W        W87222   3.807   2.383   3.344
14930W        W87223  40.366  38.342   4.680
14931W        W87224  18.204  20.214  12.962
14932W        W87225  15.305  27.537  14.376
14933W        W87226  35.526   0.436   1.234
14934W        W87227  21.690   7.898   1.723
14935W        W87228  13.123  38.866   0.806
14936W        W87229  13.736  11.251   3.290
14937W        W87230  21.512  18.755   0.451
14938W        W87231  39.831  25.013  11.993
14939W        W87232  24.578  11.827  11.871
14940W        W87233  26.070  18.227  11.390
14941W        W87234   7.687   0.465   5.196
14942W        W87235  21.592  44.813  13.530
14943W        W87236   8.225  23.657  11.100
14944W        W87237  34.877  17.301  14.917
14945W        W87238  33.977   6.299  10.454
14946W        W87239  40.395  13.228   3.869
14947W        W87240  43.888  28.503   1.844
14948W        W87241  30.967  25.023  12.351
14949W        W87242  44.955  39.389  12.572
14950W        W87243  19.226  26.139   1.447
14951W        W87244  15.225  41.838  14.945
14952W        W87245  24.180  19.092   1.839
14953W        W87246  39.318   8.403   0.459
14954W        W87247   2.390   0.435  11.526
14955W        W87248  31.971   2.444  10.961
14956W        W87249  42.948  43.391  11.040
14957W        W87250  32.490  24.013   0.947
14958W        W87251  34.925  14.804   4.757
14959W        W87252  40.958  18.723   3.207
14960W        W87253  34.873  37.423  12.081
14961W        W87254  32.434  12.196   1.304
14962W        W87255  16.590  24.080  14.455
14963W        W87256  40.457   5.261  10.453
14964W        W87257  41.879   8.861  13.847
14965W        W87258  26.626  43.821  10.099
14966W        W87259  35.995  27.020  14.945
14967W        W87260  30.421  28.042  13.387
14968W        W87261  11.357  30.432   0.733
14969W        W87262   9.873  26.953   1.290
14970W        W87263  37.950  36.498  13.822
14971W        W87264  10.163  31.100  11.466
14972W        W87265  16.304  35.069   1.769
14973W        W87266  28.576  19.129   3.870
14974W        W87267  29.498   1.373  12.424
14975W        W87268  41.044  14.171  11.955
14976W        W87269  36.905   3.891  12.057
14977W        W87270   9.716  26.498   2.674
14978W        W87271  36.922  32.949   0.786
14979W        W87272  37.049  25.999  11.924
14980W        W87273  38.404  16.214  11.479
14981W        W87274   9.876  34.019  14.014
14982W        W87275   2.731  11.249  12.924
14983W        W87276  26.687  23.015  11.540
14984W        W87277  10.275  26.660  10.446
14985W        W87278  33.425  21.236   4.833
14986W        W87279  15.783  42.912  14.299
14987W        W87280  31.979   5.730   1.283
14988W        W87281  25.026  21.548   2.403
14989W        W87282  18.118   9.192   5.089
14990W        W87283  27.184  26.176   3.171
14991W        W87284  37.983  24.706   0.451
14992W        W87285  21.686  23.554  14.408
14993W        W87286  13.111   8.745   4.633
14994W        W87287  24.111  39.501   4.626
14995W        W87288  17.200  39.560  11.029
14996W        W87289  29.969  12.751   1.447
14997W        W87290  33.899  39.001  11.032
14998W        W87291   9.871   6.249   0.807
14999W        W87292  11.851  20.685   4.348
15000W        W87293  16.162  27.607   1.244
15001W        W87294  21.259  12.680   3.360
15002W        W87295  30.451  17.195   4.263
15003W        W87296  18.708  23.544   2.312
15004W        W87297  36.485   4.872   1.224
15005W        W87298  12.720  35.432  11.093
15006W        W87299  42.967  16.145  14.394
15007W        W87300   0.264  35.490   2.238
15008W        W87301   3.318  31.457  12.347
15009W        W87302   8.814  18.668   3.753
15010W        W87303  34.939  41.929  10.567
15011W        W87304  43.985  19.653  13.794
15012W        W87305  19.102  39.321  12.859
15013W        W87306   3.308   3.425  10.586
15014W        W87307  44.277  43.489   0.813
15015W        W87308  14.664  40.403  10.117
15016W        W87309  41.396  28.614  13.392
15017W        W87310  35.035  44.430   4.735
15018W        W87311  30.560  41.382  12.560
15019W        W87312  23.708  26.169   3.713
15020W        W87313  39.350  44.794  14.949
15021W        W87314  36.093  30.630  14.898
15022W        W87315  17.190  30.570  11.950
15023W        W87316  33.881  11.750  11.395
15024W        W87317  11.225  39.421   1.242
15025W        W87318  29.458  21.079   3.704
15026W        W87319   3.277  35.947  12.477
15027W        W87320  39.935  17.694  14.006
15028W        W87321   7.372  39.440   3.854
15029W        W87322  42.366  22.252  13.547
15030W        W87323   5.263  28.469   2.407
15031W        W87324   5.751   4.364  14.882
15032W        W87325  15.808  33.974   3.330
15033W        W87326  43.271  21.522   3.338
15034W        W87327  20.039  19.269   4.146
15035W        W87328  25.182   8.379   1.724
15036W        W87329  35.883  30.431   3.213
15037W        W87330  10.138  41.843  13.863
15038W        W87331  42.394  11.284  11.584
15039W        W87332  11.356  24.667  11.048
15040W        W87333  18.253  21.595  10.463
15041W        W87334   5.783  15.619   3.340
15042W        W87335  10.755  17.068   4.181
15043W        W87336   5.357  14.828  14.346
15044W        W87337  23.160  23.021  14.430
15045W        W87338  42.993  20.731   3.294
15046W        W87339   5.226  24.051  11.000
15047W        W87340  33.046  20.167  12.955
15048W        W87341  20.263  29.545  14.312
15049W        W87342  31.069  29.598   3.868
15050W        W87343  12.161  29.093   0.364
15051W        W87344   1.822  30.142  10.574
15052W        W87345   9.889  11.693  13.008
15053W        W87346  21.131  33.529   1.786
15054W        W87347  13.293   2.332   5.713
15055W        W87348  36.505  16.204  14.809
15056W        W87349  20.567   8.739   3.743
15057W        W87350  20.767  40.880   3.820
15058W        W87351  11.755  21.530  11.992
15059W        W87352  37.902  31.084   1.761
15060W        W87353  28.052  24.574  11.042
15061W        W87354   6.774  17.076  11.411
15062W        W87355  22.557  35.977   4.178
15063W        W87356  37.967  11.799  12.885
15064W        W87357  25.087  41.869   0.310
15065W        W87358  22.589  23.117  10.066
15066W        W87359  17.122   0.270  11.527
15067W        W87360  35.444  27.542  14.923
15068W        W87361  39.375  16.224  10.929
15069W        W87362  16.655  10.242   2.242
15070W        W87363   5.374  31.120  13.805
15071W        W87364  19.069   4.299  13.918
15072W        W87365  37.505  25.609  13.358
15073W        W87366  14.233  23.588   3.631
15074W        W87367   3.935  13.699   0.455
15075W        W87368  10.367  14.655   1.410
15076W        W87369  12.241  41.023   4.259
15077W        W87370  29.935  17.666   4.680
15078W        W87371  35.507   8.885  12.094
15079W        W87372  11.784  35.940   0.729
15080W        W87373  28.656  10.682  10.471
15081W        W87374  29.986  39.323   1.790
15082W        W87375   2.834   2.237   2.701
15083W        W87376  28.969  32.618   3.358
15084W        W87377  21.199  43.982   4.611
15085W        W87378   0.418  12.675  14.418
15086W        W87379  19.568  20.215  14.414
15087W        W87380  36.845  13.300   2.876
15088W        W87381  44.781   9.358  10.573
15089W        W87382  22.507  18.662  12.571
15090W        W87383  10.712  30.098   0.282
15091W        W87384   0.745  42.295  13.372
15092W        W87385  39.989  14.276   3.181
15093W        W87386  15.120   4.374  12.852
15094W        W87387  40.903  38.058  10.432
15095W        W87388  33.476  38.398  13.889
15096W        W87389  19.106  36.516  11.439
15097W        W87390  20.743  25.013   3.794
15098W        W87391   5.383  40.824  14.406
15099W        W87392  20.618  36.893   2.774
15100W        W87393  20.253  32.401  10.558
15101W        W87394   3.942  26.120   2.369
15102W        W87395  33.379  31.566  12.352
15103W        W87396  26.635  35.914   3.340
15104W        W87397  30.048  26.703   3.248
15105W        W87398  39.916  34.917  12.001
15106W        W87399  33.451   1.885   4.832
15107W        W87400   4.357   9.735   2.379
15108W        W87401   4.865   4.347   3.814
15109W        W87402  15.620  13.304  12.902
15110W        W87403   1.477  40.817  14.881
15111W        W87404  36.436  33.972  10.488
15112W        W87405   9.377  28.462  13.060
15113W        W87406   2.426  27.996  13.043
15114W        W87407  42.477  32.452   2.414
15115W        W87408   2.336  31.117   1.828
15116W        W87409   6.219  32.096   2.829
15117W        W87410   7.369   0.974   2.779
15118W        W87411  34.516  17.728  14.849
15119W        W87412   9.875  19.233  14.891
15120W        W87413  21.258  29.603   4.600
15121W        W87414  24.557  35.061  14.493
15122W        W87415  18.185  38.989   3.242
15123W        W87416  16.304  33.579  12.376
15124W        W87417  39.051  41.993  14.832
15125W        W87418  41.915  30.949  11.025
15126W        W87419  33.886  15.592   2.244
15127W        W87420  17.130   3.318  14.905
15128W        W87421   1.943  32.561  13.990
15129W        W87422  39.858  33.014  11.046
15130W        W87423  21.627  38.033   1.279
15131W        W87424  11.190  13.702   1.709
15132W        W87425  13.276  16.290  12.494
15133W        W87426  27.089  42.449   1.377
15134W        W87427  32.946  37.998  11.938
15135W        W87428  37.052  18.253  13.988
15136W        W87429  27.142  13.795  10.593
15137W        W87430   4.931  37.397  11.485
15138W        W87431  13.285   6.680  14.489
15139W        W87432  34.398  33.513   1.923
15140W        W87433  25.506  15.715   2.414
15141W        W87434  36.921  36.520  14.325
15142W        W87435   2.787   3.264  12.092
15143W        W87436  36.928   8.719   0.872
15144W        W87437  31.598  10.765  12.397
15145W        W87438  18.169   2.234  13.958
15146W        W87439  24.700   5.908   4.816
15147W        W87440  11.787  42.002  10.416
15148W        W87441  16.268  17.757   2.802
15149W        W87442  28.060  35.951   9.998
15150W        W87443   8.774  40.357   4.310
15151W        W87444   7.750  11.649  11.547
15152W        W87445   9.369  33.554   0.296
15153W        W87446  40.037  32.557  13.794
15154W        W87447  43.364  11.263  12.025
15155W        W87448  40.798  42.925  10.110
15156W        W87449  14.180  22.732  13.839
15157W        W87450   6.888   4.437   0.300
15158W        W87451  38.830  13.195  11.596
15159W        W87452  12.291  34.870   3.380
15160W        W87453  36.534  10.825  14.922
15161W        W87454   8.693  31.932   0.818
15162W        W87455   5.205  16.262  13.803
15163W        W87456  30.057   6.421  14.811
15164W        W87457   9.785   5.406   3.633
15165W        W87458  43.790   6.333   1.934
15166W        W87459  22.223   4.859  14.764
15167W        W87460   9.198   4.766  11.484
15168W        W87461  39.370   1.475  14.763
15169W        W87462  25.602  35.376  11.390
15170W        W87463  21.588  40.920  12.525
15171W        W87464  30.088   9.218   1.265
15172W        W87465  37.423  17.594  11.900
15173W        W87466  24.715  33.512  10.464
15174W        W87467   8.360  42.391  14.460
15175W        W87468  11.200  22.204  10.404
15176W        W87469  30.148  36.545   4.820
15177W        W87470   4.775  14.727   2.327
15178W        W87471  40.967  36.995  11.552
15179W        W87472  43.997  14.622   3.702
15180W        W87473  12.665  26.624   2.693
15181W        W87474  13.339   1.277   0.322
15182W        W87475  36.993  12.628  13.388
15183W        W87476  38.895  28.149  12.025
15184W        W87477   9.793  26.052   3.309
15185W        W87478  31.102  16.195  14.277
15186W        W87479  14.731  25.637   0.334
15187W        W87480  31.576  31.563   4.672
15188W        W87481  39.332  27.460   0.752
15189W        W87482  27.992  21.543   9.919
15190W        W87483  14.305  35.534   2.751
15191W        W87484   5.387  23.502   0.756
15192W        W87485   2.450  16.169  11.930
15193W        W87486  25.081  31.422  12.059
15194W        W87487   0.327  38.918  12.046
15195W        W87488   2.375  23.220  14.822
15196W        W87489  14.776  16.259  11.047
15197W        W87490  43.892  37.459  14.323
15198W        W87491  24.671   0.323  10.589
15199W        W87492  35.860   3.379  12.068
15200W        W87493  26.530   6.855  10.893
15201W        W87494  19.074  16.092  11.005
15202W        W87495  29.444  21.158   3.316
15203W        W87496  16.750   0.902  13.004
15204W        W87497  27.495  28.156   4.284
15205W        W87498  18.711  24.043  14.022
15206W        W87499  40.540   4.364   4.289
15207W        W87500  14.799  28.502  10.900
15208W        W87501   5.917   1.357  14.850
15209W        W87502  22.738  29.544  14.791
15210W        W87503  12.214  16.695   0.912
15211W        W87504  38.507  29.113   2.696
15212W        W87505  23.644  29.169  12.962
15213W        W87506  13.301  43.017  13.795
15214W        W87507  21.586  38.838  11.954
15215W        W87508  27.952  32.425   2.218
15216W        W87509  19.095  43.961  13.952
15217W        W87510  40.311   1.808   1.780
15218W        W87511  24.992  23.045  13.458
15219W        W87512  11.793  19.162   3.332
15220W        W87513  43.500  23.008   1.796
15221W        W87514  38.515  28.097  14.458
15222W        W87515  33.448   0.796  13.824
15223W        W87516  23.144   3.939   4.713
15224W        W87517  37.992  19.215  14.022
15225W        W87518   4.347  39.845   2.669
15226W        W87519  10.357  10.172  11.947
15227W        W87520   6.855   3.311  12.091
15228W        W87521  42.436  35.103   2.208
15229W        W87522  23.065  29.615  10.408
15230W        W87523  25.712  22.138  12.345
15231W        W87524  27.015  10.357  11.397
15232W        W87525  21.134   2.738  11.548
15233W        W87526   5.733  10.795   3.324
15234W        W87527  18.619  16.158  13.858
15235W        W87528  21.104  25.677   4.759
15236W        W87529  33.608  17.570  13.841
15237W        W87530  12.152  11.802  12.077
15238W        W87531  37.434   5.420   0.281
15239W        W87532  28.504  13.154  14.888
15240W        W87533  28.184  17.121   3.721
15241W        W87534  43.991  41.347   2.869
15242W        W87535  29.491  31.146   4.707
15243W        W87536   9.314  27.591  11.416
15244W        W87537  11.847  38.893  14.858
15245W        W87538  28.037  30.619   2.378
15246W        W87539  33.529  24.711   0.274
15247W        W87540  39.016  23.122   0.305
15248W        W87541   5.431  31.584   3.257
15249W        W87542  19.614  18.151   1.741
15250W        W87543  29.478  28.635  12.910
15251W        W87544  26.457  38.514  12.926
15252W        W87545   4.332  27.665   0.360
15253W        W87546  32.125  34.982   4.353
15254W        W87547  40.961   9.726   1.368
15255W        W87548  15.287  21.639   0.942
15256W        W87549  43.970   9.704   1.886
15257W        W87550  37.084  11.351  11.110
15258W        W87551  40.532  22.502   3.147
15259W        W87552  41.332  27.542  12.977
15260W        W87553   8.287  17.802  14.895
15261W        W87554  12.199  34.922  13.986
15262W        W87555  40.919   6.832   2.252
15263W        W87556  18.069  36.408   0.871
15264W        W87557  26.661   6.697  12.858
15265W        W87558   1.928  12.257  13.910
15266W        W87559   5.213   8.867  11.111
15267W        W87560  24.081   5.934  10.553
15268W        W87561  32.931   8.210   1.895
15269W        W87562   5.706  28.612   3.342
15270W        W87563  10.649  32.108   1.243
15271W        W87564   1.247  15.810   4.714
15272W        W87565   5.828  41.428   3.766
15273W        W87566  17.179  12.799  14.430
15274W        W87567  16.769   0.953   0.952
15275W        W87568   1.426   5.239   3.185
15276W        W87569  44.426  40.855  10.458
15277W        W87570  35.092  36.449   0.435
15278W        W87571   9.859  41.964  11.106
15279W        W87572  44.947  22.118   0.856
15280W        W87573  33.448  31.008   1.934
15281W        W87574  41.321  26.533  13.036
15282W        W87575  10.834  32.072  12.080
15283W        W87576  43.376  34.549   5.245
15284W        W87577  33.094  36.965  12.092
15285W        W87578  17.794  41.322   1.259
15286W        W87579  39.921   8.782   1.334
15287W        W87580  10.737  30.639   2.343
15288W        W87581  14.271  14.819   3.803
15289W        W87582  32.526  37.075  12.884
15290W        W87583  29.478  24.017   1.863
15291W        W87584  36.055  22.606  10.489
15292W        W87585  26.587  14.731   4.827
15293W        W87586  16.125  36.435  12.457
15294W        W87587  27.652  38.520   1.301
15295W        W87588   8.309  37.030  13.528
15296W        W87589  15.287   8.659  13.991
15297W        W87590  19.683  30.649  12.838
15298W        W87591  37.470  30.522   4.301
15299W        W87592  27.521  11.222   0.736
15300W        W87593   0.844  37.029  13.391
15301W        W87594  14.619  25.133  11.105
15302W        W87595   3.743  25.162  10.614
15303W        W87596   1.929  38.870   1.778
15304W        W87597   6.288  15.152   1.902
15305W        W87598  34.894  10.360   5.151
15306W        W87599  10.648  39.415   0.256
15307W        W87600  40.415  41.925   1.407
15308W        W87601  39.442  14.095  11.532
15309W        W87602  36.046  32.010  10.908
15310W        W87603  19.261   4.710  14.819
15311W        W87604  27.977  44.417  13.315
15312W        W87605  29.930  23.160   3.721
15313W        W87606  14.588  22.142  12.380
15314W        W87607   8.815  13.193  12.465
15315W        W87608   6.903  32.593  12.842
15316W        W87609  34.905  16.572   0.830
15317W        W87610  43.309  23.072   4.834
15318W        W87611  35.016  11.291  14.797
15319W        W87612   6.196  22.576   1.933
15320W        W87613  17.211  22.208   0.733
15321W        W87614   3.867   8.837  13.504
15322W        W87615  34.971  31.062   2.248
15323W        W87616  44.392   1.951   5.090
15324W        W87617  31.424  35.537   0.274
15325W        W87618   4.317  19.132   2.271
15326W        W87619  28.949   1.932  11.587
15327W        W87620  23.069  43.780   0.296
15328W        W87621  24.586  22.744  11.087
15329W        W87622  25.113  21.589   1.933
15330W        W87623  30.942  40.310  12.827
15331W        W87624  26.951  35.885   5.259
15332W        W87625   0.349  22.153   3.290
15333W        W87626   8.877  20.589   0.424
15334W        W87627  39.867  17.696   1.837
15335W        W87628  15.591  37.441   3.150
15336W        W87629  17.797  29.949   4.128
15337W        W87630  28.489   1.846  14.407
15338W        W87631  32.906  33.890   3.380
15339W        W87632   1.802   1.790  11.485
15340W        W87633  20.761   1.936   2.819
15341W        W87634  11.275  38.960  14.462
15342W        W87635  19.622  14.763  13.476
15343W        W87636  34.987  27.965  11.121
15344W        W87637  27.509  27.010   4.716
15345W        W87638  37.446  44.455   0.457
15346W        W87639  16.683  37.045   4.723
15347W        W87640  20.059   2.348   1.815
15348W        W87641   0.264  13.194  14.781
15349W        W87642  40.444  28.587  10.974
15350W        W87643  26.677  26.190  12.082
15351W        W87644  26.001  12.790  11.930
15352W        W87645  13.622  29.991   2.805
15353W        W87646  25.658  16.601   0.343
15354W        W87647  38.987  24.518   1.311
15355W        W87648  33.478   0.977  12.545
15356W        W87649  10.751  29.618   0.844
15357W        W87650  15.240   0.844  14.850
15358W        W87651  16.284  38.518  10.905
15359W        W87652  21.712  27.568   1.935
15360W        W87653   9.826  23.545   1.819
15361W        W87654  27.633   5.386   1.828
15362W        W87655  33.481  14.598   3.311
15363W        W87656  16.724  15.228   2.745
15364W        W87657  15.150  11.292  14.377
15365W        W87658  38.059  33.505  12.484
15366W        W87659  16.121  38.344  14.324
15367W        W87660   8.830  10.265   4.124
15368W        W87661  13.235  35.371  12.075
15369W        W87662   8.865  12.834  12.830
15370W        W87663  43.483  35.920   0.946
15371W        W87664  43.003  25.204  10.047
15372W        W87665   6.208  40.536   1.333
15373W        W87666  33.575  12.302   0.757
15374W        W87667  15.255  36.858   4.159
15375W        W87668  39.981  22.573   0.282
15376W        W87669  38.886  21.226  10.477
15377W        W87670   3.226   6.861  14.416
15378W        W87671  15.680  32.952   3.732
15379W        W87672  36.016  14.652  12.507
15380W        W87673  31.432  43.296  10.893
15381W        W87674  15.313   8.851  10.919
15382W        W87675  16.696  15.624  12.435
15383W        W87676  37.966  16.112   2.880
15384W        W87677   6.214  19.549  12.081
15385W        W87678  33.448   2.303  10.477
15386W        W87679  36.492  18.753   0.263
15387W        W87680   2.806  35.384   2.769
15388W        W87681  44.869  18.053   3.677
15389W        W87682  25.595  42.912  12.427
15390W        W87683  42.971   1.335  11.087
15391W        W87684  20.546  23.104   5.297
15392W        W87685  21.065   7.703   2.831
15393W        W87686  24.053   3.830   0.408
15394W        W87687  11.197  44.369   1.299
15395W        W87688  40.986  34.574   1.410
15396W        W87689  14.111   5.701  13.026
15397W        W87690  14.782  17.712  14.995
15398W        W87691  20.755  24.139  11.385
15399W        W87692  41.493  17.687   4.661
15400W        W87693   4.849  21.017  11.521
15401W        W87694   9.294  35.423  12.971
15402W        W87695   0.370  15.669   3.202
15403W        W87696  34.943  35.861   5.115
15404W        W87697   6.302   0.743   0.437
15405W        W87698  44.460  31.101  13.511
15406W        W87699  31.503   5.714   1.404
15407W        W87700   9.727  44.387   0.467
15408W        W87701  19.076  22.092  14.488
15409W        W87702  21.603  31.950  10.608
15410W        W87703  32.956  43.350  14.301
15411W        W87704  33.430   1.846   5.255
15412W        W87705  12.271   7.255   1.425
15413W        W87706   4.774  15.220  10.543
15414W        W87707  32.407  31.609   4.170
15415W        W87708   6.826  34.458   2.327
15416W        W87709   2.754   5.227  12.495
15417W        W87710  16.788  13.786   2.411
15418W        W87711  44.831   2.418  11.065
15419W        W87712  15.656  32.466  14.364
15420W        W87713  35.109  18.168  11.380
15421W        W87714  43.809  12.257  13.037
15422W        W87715   8.281  23.614   1.427
15423W        W87716  10.757  14.666   3.693
15424W        W87717  39.903  22.520  11.584
15425W        W87718   7.832   3.942   0.474
15426W        W87719  29.551  35.475  14.768
15427W        W87720  44.843  19.192  12.418
15428W        W87721  24.717  11.768   3.675
15429W        W87722   7.705  18.212  12.526
15430W        W87723  31.945  19.209   2.327
15431W        W87724   6.875  11.696  14.475
15432W        W87725  38.875  43.284   0.410
15433W        W87726  19.553  40.992  11.610
15434W        W87727  20.684   7.289  10.947
15435W        W87728   7.376  39.440   1.403
15436W        W87729  44.385  20.065  11.526
15437W        W87730  18.066  30.908  12.410
15438W        W87731  32.471  24.212  14.370
15439W        W87732  19.663  43.444   1.227
15440W        W87733  23.558  44.919  14.824
15441W        W87734  36.057  11.249  10.621
15442W        W87735  41.508  21.137   4.273
15443W        W87736  22.237  25.217   4.320
15444W        W87737  11.303   2.281  13.370
15445W        W87738  40.313   0.407  11.972
15446W        W87739  30.929  12.766   1.225
15447W        W87740  33.985  10.300   3.207
15448W        W87741  41.959  37.380  14.004
15449W        W87742  39.525  15.623  11.553
15450W        W87743   9.387  28.447   0.358
15451W        W87744  30.626   1.759   2.708
15452W        W87745  12.684  16.575   0.920
15453W        W87746  26.101  42.930  10.610
15454W        W87747  32.487   9.650  13.919
15455W        W87748  35.362   0.397   1.805
15456W        W87749  29.128  26.523  14.856
15457W        W87750  39.542  17.267   2.397
15458W        W87751   3.295   5.858   9.973
15459W        W87752  10.821  19.622  11.486
15460W        W87753   4.942   6.287  11.043
15461W        W87754  20.573  38.981   1.346
15462W        W87755  40.051  42.795  10.416
15463W        W87756  34.418  18.254  12.868
15464W        W87757  31.120  23.592  14.286
15465W        W87758   6.276  18.655  10.469
15466W        W87759   5.254  16.195   1.407
15467W        W87760   2.816  15.631   1.301
15468W        W87761  40.818  43.358  11.532
15469W        W87762  44.370  42.361  12.519
15470W        W87763   2.248   3.378  10.494
15471W        W87764  32.977  30.598  14.004
15472W        W87765  44.812  20.677   2.389
15473W        W87766   3.775  18.180   2.270
15474W        W87767  13.173  18.644  13.372
15475W        W87768  14.219  27.147  12.004
15476W        W87769  16.724  32.495   0.914
15477W        W87770   5.924  17.713   4.605
15478W        W87771  21.120  14.316   4.210
15479W        W87772  31.935  42.952  14.822
15480W        W87773   7.256   4.241   0.917
15481W        W87774  14.634   9.847  13.825
15482W        W87775  41.477  18.709  13.361
15483W        W87776  17.131  41.035   2.680
15484W        W87777  28.025   3.882   1.761
15485W        W87778  30.632   4.426   1.858
15486W        W87779  18.122  22.634   1.855
15487W        W87780  16.697  18.777   2.901
15488W        W87781   3.845  20.258   0.836
15489W        W87782  31.519  19.692   0.948
15490W        W87783  22.034  27.546   3.808
15491W        W87784  17.087   4.720  11.579
15492W        W87785  38.466  13.303   2.874
15493W        W87786  40.492  24.622  10.978
15494W        W87787  43.433   5.913  10.895
15495W        W87788  12.270  32.600  13.335
15496W        W87789  38.944   8.821  13.512
15497W        W87790  12.689  42.934   4.263
15498W        W87791   5.859  14.604   4.255
15499W        W87792  11.828  15.189   1.931
15500W        W87793  10.649   1.336  11.612
15501W        W87794   1.410  25.039   3.756
15502W        W87795  17.241  39.511   3.669
15503W        W87796   8.244  33.121   5.635
15504W        W87797   5.733   6.692  14.828
15505W        W87798  11.853  35.420   4.601
15506W        W87799  32.605  19.550  13.980
15507W        W87800  40.352  13.672  14.461
15508W        W87801   7.290  19.590  14.283
15509W        W87802  14.659  25.155   4.709
15510W        W87803  35.444  21.610   1.737
15511W        W87804  34.121  15.301  13.847
15512W        W87805  10.822   0.936   0.823
15513W        W87806  38.521  17.069  11.057
15514W        W87807  43.969  26.985  13.994
15515W        W87808   8.780  22.595   4.215
15516W        W87809  27.533   3.757  13.856
15517W        W87810  27.451   0.841   4.346
15518W        W87811  39.015   2.228  12.024
15519W        W87812  42.878  44.372   1.251
15520W        W87813  43.463   2.293  14.978
15521W        W87814   7.372  34.028   9.668
15522W        W87815  23.033  12.651   2.384
15523W        W87816  37.460  44.369   3.704
15524W        W87817  40.324   7.316   2.260
15525W        W87818  26.623  20.169  14.462
15526W        W87819  27.969  19.215   1.921
15527W        W87820   9.364  29.002   1.836
15528W        W87821  19.661  36.455   0.351
15529W        W87822  36.091   1.956   0.941
15530W        W87823  26.481  42.845  10.462
15531W        W87824  30.050  10.729   3.243
15532W        W87825   2.734  11.805   2.290
15533W        W87826  27.559  18.176  11.872
15534W        W87827   9.269  22.683  10.142
15535W        W87828  38.023  36.455  13.463
15536W        W87829  42.816  32.524   0.272
15537W        W87830  26.959  38.462   2.830
15538W        W87831  30.017  34.117  12.831
15539W        W87832  36.490  39.547  13.856
15540W        W87833   6.279  33.590   2.817
15541W        W87834   2.898  31.969   1.855
15542W        W87835   5.902  30.928  12.446
15543W        W87836  38.059  14.833  13.793
15544W        W87837   6.282  29.946   2.380
15545W        W87838  23.084  28.953  12.959
15546W        W87839  43.898  19.674   0.409
15547W        W87840  26.549   1.263   1.704
15548W        W87841  40.350  31.408   3.711
15549W        W87842  30.971  16.102  11.559
15550W        W87843  24.144  21.514   2.211
15551W        W87844  41.440  35.400  11.422
15552W        W87845   6.703  38.828   3.204
15553W        W87846  43.893  11.143  11.412
15554W        W87847  26.124   2.721  10.574
15555W        W87848  21.744  23.018   2.827
15556W        W87849  33.093   5.848   2.719
15557W        W87850  15.818  39.818  14.289
15558W        W87851  15.110  40.522   0.872
15559W        W87852  13.195  15.665  14.784
15560W        W87853   2.841   5.241   1.259
15561W        W87854  20.617  17.283  14.762
15562W        W87855   8.226   5.920  14.808
15563W        W87856  41.499  17.707   2.313
15564W        W87857  36.404   5.770   4.759
15565W        W87858  27.056  27.534   4.830
15566W        W87859  21.093  19.656   2.743
15567W        W87860  27.493  32.460   1.750
15568W        W87861   6.404   4.279   4.121
15569W        W87862  37.860  34.523  11.558
15570W        W87863  32.485  43.920   4.337
15571W        W87864  33.108  17.224   3.316
15572W        W87865  44.329  42.928  10.888
15573W        W87866   3.807  39.035   1.886
15574W        W87867   5.281  35.589  14.884
15575W        W87868  38.895  38.935  14.393
15576W        W87869  44.917  17.298   2.365
15577W        W87870  29.533  28.982   4.599
15578W        W87871   1.921  30.503  14.925
15579W        W87872  39.467  15.654  13.869
15580W        W87873  35.955  37.918  10.555
15581W        W87874  13.628  33.999   0.833
15582W        W87875   4.288  18.243  10.990
15583W        W87876  20.045  30.610   4.804
15584W        W87877  25.077  15.587   0.344
15585W        W87878  29.943  11.138   3.657
15586W        W87879   9.664  41.883  11.910
15587W        W87880   9.287  34.922  13.875
15588W        W87881   3.342  43.902   2.793
15589W        W87882  34.888   5.753  13.535
15590W        W87883   4.417   7.375   0.729
15591W        W87884   0.923  36.397  10.924
15592W        W87885  29.000  31.061  13.331
15593W        W87886  11.637  43.854  14.309
15594W        W87887  29.542   1.458  13.022
15595W        W87888   7.276  22.118   0.269
15596W        W87889  11.301   4.895   2.788
15597W        W87890   6.338   6.342  13.457
15598W        W87891  38.865  42.447   4.826
15599W        W87892  28.167   9.206  11.426
15600W        W87893  21.703  14.121   2.821
15601W        W87894  20.072  29.556   2.337
15602W        W87895  26.101  30.428   1.264
15603W        W87896  19.535  21.705   1.905
15604W        W87897  36.390   9.341  10.987
15605W        W87898  38.495  14.726   2.229
15606W        W87899  17.771  35.058  11.123
15607W        W87900  41.024   7.804  13.796
15608W        W87901  29.125  11.322   0.812
15609W        W87902   9.788  42.832   2.705
15610W        W87903  37.496   2.401   3.361
15611W        W87904  44.849  30.519  11.549
15612W        W87905  11.137  28.505   1.715
15613W        W87906  29.160  28.481  11.542
15614W        W87907  10.310  22.710  13.870
15615W        W87908   7.822   7.868  12.388
15616W        W87909   6.197  31.556  11.900
15617W        W87910  27.992  21.691   2.765
15618W        W87911  38.912  35.502   2.706
15619W        W87912  13.605   3.950   1.282
15620W        W87913  32.959  17.156  13.942
15621W        W87914  32.436  36.850   0.290
15622W        W87915  28.169   1.950   0.455
15623W        W87916  15.658  38.954  11.107
15624W        W87917  21.112   3.900  14.862
15625W        W87918   9.659  23.651   2.817
15626W        W87919  22.559  16.606  11.578
15627W        W87920  41.515  41.023   0.291
15628W        W87921  19.264  24.530   2.375
15629W        W87922   6.199  34.120   0.374
15630W        W87923  13.781   4.291  13.307
15631W        W87924  16.247  40.453  12.342
15632W        W87925  24.563   7.388   4.333
15633W        W87926  39.913  40.909  10.560
15634W        W87927  34.395  11.845   0.773
15635W        W87928   6.893  21.604   2.276
15636W        W87929  16.135  43.958   0.795
15637W        W87930  35.060  36.012  14.324
15638W        W87931  29.108  31.074   4.281
15639W        W87932   6.790   5.819  12.891
15640W        W87933  30.553  40.913   3.730
15641W        W87934  35.899  25.563  10.464
15642W        W87935   3.336  19.083  14.471
15643W        W87936  30.521  38.843  12.447
15644W        W87937  33.022  20.102   0.305
15645W        W87938  34.071  30.930  11.108
15646W        W87939   9.683  27.556  11.888
15647W        W87940  23.189  13.212   0.418
15648W        W87941  20.611  18.215   4.624
15649W        W87942  43.920  30.580  10.505
15650W        W87943  16.123  13.675  14.395
15651W        W87944  36.944  38.559   4.697
15652W        W87945  28.600  17.086   1.381
15653W        W87946  23.226  19.094   3.835
15654W        W87947   6.882  20.151  11.908
15655W        W87948  38.897  27.667   2.741
15656W        W87949  20.599   8.363   2.296
15657W        W87950  25.522  32.120   3.687
15658W        W87951  27.691  35.899   2.867
15659W        W87952  17.129  11.743  12.452
15660W        W87953   5.427  42.460   3.658
15661W        W87954  30.587   4.894   2.863
15662W        W87955  32.510  31.635   3.265
15663W        W87956  35.418  34.471   3.652
15664W        W87957  36.904  21.039  13.321
15665W        W87958   3.851   8.706   0.341
15666W        W87959   2.250  44.464  10.022
15667W        W87960  38.999  19.125   4.210
15668W        W87961   4.869  14.305   4.832
15669W        W87962   1.321  21.135   4.794
15670W        W87963  29.513  27.669  11.543
15671W        W87964  34.977  16.591  10.905
15672W        W87965  35.446  40.840   0.388
15673W        W87966  18.077  30.043  10.606
15674W        W87967  19.218  21.547  11.526
15675W        W87968  19.201   9.203   4.204
15676W        W87969  20.745   4.864  11.989
15677W        W87970  39.918  42.448  11.033
15678W        W87971   9.856  14.781  11.398
15679W        W87972  18.204  13.121   0.874
15680W        W87973   5.226   9.285   0.951
15681W        W87974  23.524  22.095  11.424
15682W        W87975  44.916  34.410   9.997
15683W        W87976  19.273  43.397   1.344
15684W        W87977  43.995  26.522   1.902
15685W        W87978  26.990  37.535   3.796
15686W        W87979  14.594  14.118   0.438
15687W        W87980  31.529   4.227   4.831
15688W        W87981  31.947  26.644  14.428
15689W        W87982  32.927  19.282   0.412
15690W        W87983  30.533  23.001  12.951
15691W        W87984  18.269  33.942  13.842
15692W        W87985  43.924  41.441   2.178
15693W        W87986  34.454  28.160  11.110
15694W        W87987   9.204  22.222  12.975
15695W        W87988  25.514  27.518  14.480
15696W        W87989  33.132   6.810  12.438
15697W        W87990  21.574  27.627  11.487
15698W        W87991  18.233  26.999   1.894
15699W        W87992  24.113  10.799   4.168
15700W        W87993   0.747  23.044  14.802
15701W        W87994   3.223  21.523  14.807
15702W        W87995  38.924  15.186  12.096
15703W        W87996   0.804  31.541  12.890
15704W        W87997   1.798  41.425   2.313
15705W        W87998  24.199  11.687   2.363
15706W        W87999   8.793  29.527  11.039
15707W        W88000  16.190   0.405   0.892
15708W        W88001  21.637   6.201  10.142
15709W        W88002  31.631  43.910  13.318
15710W        W88003  37.978  41.340   1.346
15711W        W88004  15.792  10.287   4.222
15712W        W88005   0.758  10.764  14.018
15713W        W88006   7.197   6.345  13.438
15714W        W88007  30.030  35.538   3.164
15715W        W88008  23.621  40.977  13.921
15716W        W88009  43.280   4.447  10.474
15717W        W88010  21.055  38.036   1.444
15718W        W88011  32.572  25.564   1.745
15719W        W88012  21.195  36.545   5.160
15720W        W88013  27.154  26.047  14.287
15721W        W88014  17.186  29.526  14.395
15722W        W88015  34.522  38.484  11.092
15723W        W88016  19.254   7.760  13.888
15724W        W88017  25.015  11.285   1.307
15725W        W88018  28.165   7.267   5.137
15726W        W88019  14.827  27.638   0.262
15727W        W88020  39.328   1.969  10.939
15728W        W88021  13.155  17.701  11.113
15729W        W88022  14.101  37.416   0.397
15730W        W88023  22.140  10.222  12.409
15731W        W88024   6.245  24.106  14.818
15732W        W88025  18.224  11.832   0.243
15733W        W88026  32.110  14.295   0.793
15734W        W88027  10.206  14.239  11.558
15735W        W88028  30.632  15.798   2.663
15736W        W88029  42.859   2.879   2.294
15737W        W88030  41.399  38.930  10.622
15738W        W88031   9.249  23.620  11.394
15739W        W88032  12.853   6.207   2.732
15740W        W88033  39.995  37.836   1.824
15741W        W88034  28.495   1.378  10.475
15742W        W88035  24.042  42.344  12.382
15743W        W88036  20.611  13.637  14.981
15744W        W88037  40.888   6.339   2.252
15745W        W88038  35.933  36.482  14.339
15746W        W88039  11.673   1.291  10.485
15747W        W88040   9.215  43.412  13.364
15748W        W88041  30.907  13.652  12.889
15749W        W88042  35.915   4.746  14.821
15750W        W88043   7.838  22.657  13.992
15751W        W88044  41.442  14.833  12.878
15752W        W88045  10.352  32.051   5.265
15753W        W88046  10.643   1.924   0.351
15754W        W88047   0.333  10.701   0.362
15755W        W88048  44.904  25.111  14.369
15756W        W88049  28.493  35.500  13.904
15757W        W88050  17.755  11.291   2.212
15758W        W88051  16.187  11.317   2.194
15759W        W88052  27.047  43.371  10.947
15760W        W88053  11.861  30.933  10.622
15761W        W88054  30.428  11.279  12.416
15762W        W88055   7.904  36.061   2.234
15763W        W88056  13.131  16.142  11.127
15764W        W88057   1.275   5.811   0.356
15765W        W88058   9.791  11.809   4.774
15766W        W88059  43.284   9.669  11.931
15767W        W88060   6.365  20.134   2.680
15768W        W88061  23.153  25.137   3.170
15769W        W88062  30.624   9.768   2.735
15770W        W88063  17.149  25.198  13.032
15771W        W88064  13.273  35.052  14.002
15772W        W88065  33.953  30.472  13.795
15773W        W88066  35.568  44.339  11.116
15774W        W88067   1.881   8.316   2.719
15775W        W88068  12.265  39.418  14.431
15776W        W88069  29.980  19.181   2.756
15777W        W88070   4.938   3.931  11.064
15778W        W88071   0.866  32.980  13.398
15779W        W88072   9.299  21.052  13.902
15780W        W88073  28.543  23.080   4.296
15781W        W88074  18.684  26.475  14.416
15782W        W88075  33.412   9.255   2.294
15783W        W88076  39.062  18.250  10.525
15784W        W88077  38.013  14.117   1.315
15785W        W88078  25.627   8.160   0.312
15786W        W88079  16.772  33.935  13.401
15787W        W88080  41.868  22.551   3.267
15788W        W88081   7.304   1.246  14.014
15789W        W88082  12.151  41.006   0.955
15790W        W88083  26.140  18.069   0.734
15791W        W88084   0.418  40.012  14.316
15792W        W88085  11.775  20.029   1.915
15793W        W88086  32.069  36.054  13.476
15794W        W88087   5.194   1.920   4.251
15795W        W88088  38.029  15.703   2.723
15796W        W88089  39.332  34.970  11.447
15797W        W88090  39.520   5.285   2.374
15798W        W88091  29.943  38.985   1.729
15799W        W88092  20.160  15.694   4.613
15800W        W88093  16.271  29.056  10.421
15801W        W88094  14.247  43.986   3.288
15802W        W88095   6.185  22.026  11.917
15803W        W88096  24.155   9.152  12.065
15804W        W88097  27.952  40.881   4.694
15805W        W88098  31.974   6.858   0.306
15806W        W88099   5.887   6.707   4.782
15807W        W88100   8.719  27.114   4.597
15808W        W88101  39.971  27.480   3.283
15809W        W88102  28.073  41.826   3.654
15810W        W88103  36.498  13.249  12.850
15811W        W88104  18.765  37.072  13.957
15812W        W88105  11.185   9.392   0.400
15813W        W88106   4.731  31.106  10.956
15814W        W88107  12.771  29.439   3.714
15815W        W88108  18.089  21.219   4.254
15816W        W88109  40.351  36.076  10.967
15817W        W88110  22.613   8.171   1.270
15818W        W88111  26.054  28.668  10.466
15819W        W88112   4.269   1.389   3.195
15820W        W88113  15.180   5.332  11.857
15821W        W88114  38.428  28.053  11.031
15822W        W88115  43.486  17.217  13.830
15823W        W88116  30.073  28.506   3.233
15824W        W88117  22.682   6.341  12.048
15825W        W88118  25.161  30.027  14.314
15826W        W88119  43.922  14.315  11.388
15827W        W88120  38.022  10.778   0.791
15828W        W88121  43.491  15.823   3.765
15829W        W88122  44.005  14.666   1.717
15830W        W88123  43.300  39.032   2.794
15831W        W88124  21.645  26.530  12.366
15832W        W88125  15.143  43.782  11.587
15833W        W88126   5.761   0.312  14.812
15834W        W88127   6.308  17.610  11.490
15835W        W88128  27.981  22.221   4.178
15836W        W88129  35.392  10.156  12.967
15837W        W88130  33.517   6.414   0.781
15838W        W88131  12.176  19.692  14.371
15839W        W88132  28.456  10.337  13.510
15840W        W88133   0.873  15.626  13.930
15841W        W88134  13.299   7.824  11.056
15842W        W88135  31.126   4.847   4.796
15843W        W88136  25.013  40.955   0.242
15844W        W88137  36.959  10.679   3.218
15845W        W88138  38.562  17.791   2.850
15846W        W88139  37.930   3.447   3.333
15847W        W88140   8.400  38.450  13.545
15848W        W88141  36.381  42.499  13.970
15849W        W88142  18.567  28.045   9.993
15850W        W88143  26.056  31.897   3.296
15851W        W88144  43.285  26.512   9.933
15852W        W88145  29.491  10.871   1.813
15853W        W88146   6.690  20.749  13.334
15854W        W88147   9.329  19.178  14.482
15855W        W88148  25.539   2.801   4.156
15856W        W88149   1.881  18.142   1.778
15857W        W88150   0.306   8.342  13.496
15858W        W88151  32.082  38.382  12.014
15859W        W88152  14.294  38.537   2.367
15860W        W88153  38.872   5.378  10.626
15861W        W88154  27.165  22.065   4.627
15862W        W88155  19.112  14.607  11.522
15863W        W88156  10.288  24.059   4.742
15864W        W88157  33.940   4.854   2.819
15865W        W88158  43.931  31.088  11.898
15866W        W88159  36.348  39.013  13.891
15867W        W88160  36.576  12.220   0.242
15868W        W88161  23.728  11.207  11.432
15869W        W88162  42.516   4.390   3.369
15870W        W88163   3.442   9.373   2.215
15871W        W88164  13.110  40.316   2.892
15872W        W88165  28.505   5.734   2.403
15873W        W88166  30.018   5.753  13.897
15874W        W88167  39.943  36.552   0.912
15875W        W88168   3.256  34.510  11.968
15876W        W88169  33.429  34.006  12.344
15877W        W88170  39.873  22.113   0.904
15878W        W88171   6.313  26.172   4.598
15879W        W88172   5.296  44.283   1.312
15880W        W88173  35.945  26.609   2.365
15881W        W88174   6.901  38.992   2.665
15882W        W88175  25.684  28.102   2.755
15883W        W88176  35.015  28.970   4.791
15884W        W88177  34.516  13.171  10.490
15885W        W88178  34.024  12.692  12.043
15886W        W88179  16.129  14.598   2.405
15887W        W88180  25.006   3.347   3.724
15888W        W88181  32.128  44.344  13.989
15889W        W88182  35.457  29.133   2.718
15890W        W88183  17.694  13.191   2.252
15891W        W88184  16.757   0.301   1.444
15892W        W88185  40.319  13.827   3.249
15893W        W88186  14.624  43.391   0.338
15894W        W88187  13.334   8.783  14.944
15895W        W88188  21.620  31.552   1.798
15896W        W88189  36.038   1.391  13.794
15897W        W88190  37.859  24.712  10.411
15898W        W88191  44.895  14.139  10.531
15899W        W88192   5.786  11.816  13.854
15900W        W88193   0.492  42.360  11.434
15901W        W88194  14.729  18.159   0.847
15902W        W88195  29.024   8.740  14.380
15903W        W88196  18.256  30.919  12.825
15904W        W88197  27.026   5.904   3.361
15905W        W88198  36.935  27.026  11.046
15906W        W88199   5.363  41.962   1.846
15907W        W88200  10.685  38.366  11.593
15908W        W88201  34.430  18.689   0.304
15909W        W88202  22.126   0.946  10.941
15910W        W88203  26.980  30.606   0.389
15911W        W88204  14.243  41.489   3.277
15912W        W88205  23.568  22.670  14.947
15913W        W88206  32.508  37.383   0.348
15914W        W88207  17.593  35.485   3.863
15915W        W88208  25.167   2.877  12.345
15916W        W88209   2.922  17.681   2.842
15917W        W88210  30.536   8.827   1.821
15918W        W88211  20.553  10.318  12.477
15919W        W88212   0.946  44.381  13.450
15920W        W88213  21.550  32.989   2.381
15921W        W88214  15.683  27.994   3.147
15922W        W88215  36.039   7.768   0.887
15923W        W88216  20.627  13.700   3.208
15924W        W88217  27.633  34.010   0.438
15925W        W88218  39.469   9.391   0.334
15926W        W88219  23.088  23.573  11.603
15927W        W88220  22.544  42.431  14.496
15928W        W88221  32.632  27.127  10.519
15929W        W88222   0.850  19.533   4.792
15930W        W88223  16.270  34.589  14.865
15931W        W88224   2.805  41.041   4.336
15932W        W88225  37.951  35.524  11.888
15933W        W88226  39.868  26.010   1.785
15934W        W88227  34.463  39.927   3.663
15935W        W88228   1.843  32.999  13.330
15936W        W88229  22.247  23.130   3.664
15937W        W88230  13.697  29.109   4.348
15938W        W88231  34.984  22.188  11.962
15939W        W88232  18.562  33.984   0.340
15940W        W88233  25.026   1.976   3.231
15941W        W88234  25.594   3.731   3.168
15942W        W88235  43.942  42.401  11.565
15943W        W88236  40.931  16.742   2.277
15944W        W88237  39.950  39.943  11.088
15945W        W88238   7.714   7.720  11.118
15946W        W88239  15.766  24.537   2.675
15947W        W88240  14.182   4.790  10.640
15948W        W88241  27.590  12.647   1.259
15949W        W88242  12.839  32.436  11.007
15950W        W88243   1.380   7.750  11.944
15951W        W88244  40.971  14.335  11.415
15952W        W88245  17.758  43.470   2.741
15953W        W88246  44.983   9.222  12.369
15954W        W88247  26.481  19.726  10.963
15955W        W88248  15.659  32.938  14.889
15956W        W88249   2.805  24.720  12.936
15957W        W88250  39.355  27.494   1.407
15958W        W88251   9.164  35.068   9.954
15959W        W88252  36.913   6.767   3.687
15960W        W88253  30.063  28.624   2.294
15961W        W88254  12.737  20.057   0.745
15962W        W88255  16.271  29.125   4.164
15963W        W88256   5.316  17.132  14.796
15964W        W88257  28.678  35.470  12.888
15965W        W88258  32.108  22.575  12.082
15966W        W88259  44.964  35.055  14.853
15967W        W88260  20.707  23.534   4.301
15968W        W88261   9.671  31.578  13.948
15969W        W88262  30.056   7.346  13.489
15970W        W88263  32.928  24.047   0.934
15971W        W88264  28.652  42.481  10.515
15972W        W88265   4.746  13.133   1.368
15973W        W88266   5.710  27.552   3.802
15974W        W88267   5.268  27.614  10.937
15975W        W88268  39.916  32.591   0.746
15976W        W88269  41.518  20.105  13.308
15977W        W88270  30.483  22.223  14.332
15978W        W88271  24.979   3.771   2.755
15979W        W88272   1.378  43.362  13.409
15980W        W88273  27.004  37.550   2.778
15981W        W88274  12.270   0.357   0.927
15982W        W88275   4.769  38.352  14.978
15983W        W88276   1.768   9.275   2.878
15984W        W88277   1.425  16.749   1.791
15985W        W88278  43.984  25.130   2.831
15986W        W88279  28.576  29.654   4.619
15987W        W88280  24.203   1.861  11.561
15988W        W88281   9.322  31.627  13.520
15989W        W88282  40.422  23.219   1.392
15990W        W88283  22.102   0.399  11.400
15991W        W88284  13.282  32.047  10.152
15992W        W88285  23.697  13.816   0.397
15993W        W88286  26.623  16.607   4.794
15994W        W88287   2.865  28.644   1.373
15995W        W88288  27.074  13.800   1.830
15996W        W88289   2.404  35.071  12.398
15997W        W88290   3.366  43.897  14.982
15998W        W88291  10.344  39.023   4.233
15999W        W88292   2.743  30.968  12.386
16000W        W88293  19.139   7.880  10.973
16001W        W88294  38.929  43.837   2.792
16002W        W88295  30.105   3.387   4.156
16003W        W88296  11.763  33.035   1.443
16004W        W88297   2.244  16.783   2.902
16005W        W88298  43.811  33.589  14.904
16006W        W88299  36.583   1.440  13.041
16007W        W88300  25.553  35.092  12.423
16008W        W88301  32.421   0.930  13.411
16009W        W88302  12.207  34.074  14.446
16010W        W88303   5.720  38.064  12.092
16011W        W88304  44.756  29.596  14.512
16012W        W88305  11.130  33.933   2.194
16013W        W88306  31.015  29.590  12.453
16014W        W88307  14.096  24.481  10.462
16015W        W88308   6.838   2.738  14.894
16016W        W88309   9.153  10.863  12.877
16017W        W88310  15.302  30.074  14.308
16018W        W88311  30.640  38.569  14.959
16019W        W88312  36.855  25.214  14.872
16020W        W88313   7.362  40.395   3.188
16021W        W88314   6.358  13.149  13.443
16022W        W88315   6.912  12.162   4.768
16023W        W88316  33.503   7.688  12.878
16024W        W88317  31.951  42.408   3.805
16025W        W88318   2.282   7.846   2.326
16026W        W88319  18.768  28.076   1.812
16027W        W88320  34.552  13.239  11.514
16028W        W88321  29.084  40.325  10.991
16029W        W88322   4.888  29.569   1.362
16030W        W88323  11.749  10.758   3.632
16031W        W88324   9.345  28.932   3.836
16032W        W88325  14.793  17.737  10.510
16033W        W88326  43.283   5.333  11.014
16034W        W88327   5.235  19.694  13.548
16035W        W88328   1.952  14.650  13.325
16036W        W88329  24.480  38.051   2.208
16037W        W88330  40.447  23.113   0.801
16038W        W88331   2.929  40.438  13.907
16039W        W88332  11.719   7.368   1.788
16040W        W88333   8.316  12.807   0.449
16041W        W88334  27.619   8.747   4.206
16042W        W88335  23.146  40.982  10.929
16043W        W88336   2.251  10.846  11.385
16044W        W88337  19.598   5.363   1.342
16045W        W88338  18.230  18.694  14.971
16046W        W88339  11.358  16.191   2.358
16047W        W88340   9.212   8.716  12.474
16048W        W88341  24.610  28.935   0.267
16049W        W88342  35.397  32.630   3.842
16050W        W88343  22.054  11.314   1.812
16051W        W88344  34.059  35.011   1.418
16052W        W88345  22.226  12.653  12.948
16053W        W88346   2.226  31.111  10.595
16054W        W88347  35.404   2.797  14.973
16055W        W88348  42.852  35.070  14.783
16056W        W88349  41.506  33.475   4.156
16057W        W88350  40.030  15.168   4.684
16058W        W88351  31.084  10.674   0.290
16059W        W88352  32.617   0.274   4.249
16060W        W88353  22.241  13.288   4.620
16061W        W88354  26.124  20.226   0.855
16062W        W88355  35.402   4.263  12.466
16063W        W88356   9.649  10.369   4.145
16064W        W88357  29.441  18.549  14.341
16065W        W88358  42.295  30.452  13.883
16066W        W88359  13.718  29.095  10.452
16067W        W88360   8.760  43.942  13.955
16068W        W88361  26.120  28.476   1.366
16069W        W88362  41.311  42.303   4.129
16070W        W88363  13.245  34.608   2.732
16071W        W88364  15.820  25.150   0.746
16072W        W88365   0.768  30.072  10.585
16073W        W88366  11.196  11.274  12.840
16074W        W88367  33.034  30.163  12.852
16075W        W88368  14.121  21.247  14.022
16076W        W88369  26.606  35.370  14.374
16077W        W88370  10.645  16.576   4.270
16078W        W88371  43.931  22.181   0.789
16079W        W88372  10.213  21.518   4.766
16080W        W88373  33.077  43.951  10.579
16081W        W88374  15.665  12.808   1.399
16082W        W88375  27.950  15.215  12.973
16083W        W88376   8.376  12.154   1.448
16084W        W88377  35.444  32.946   4.333
16085W        W88378  22.075  43.909  11.993
16086W        W88379  26.648  36.879  10.918
16087W        W88380  27.198  27.606   0.337
16088W        W88381  31.547  32.045   3.745
16089W        W88382  25.574  24.690   1.433
16090W        W88383  30.148  23.713   4.128
16091W        W88384  34.896  35.930  10.913
16092W        W88385  22.251  22.165   4.785
16093W        W88386  15.775  39.846  13.905
16094W        W88387  11.253   1.952  14.429
16095W        W88388  35.027  44.824  13.412
16096W        W88389   3.737  42.993   4.727
16097W        W88390  40.928   9.280  13.852
16098W        W88391   8.882  39.863   2.393
16099W        W88392  30.446   5.287  13.336
16100W        W88393  20.186  41.490   5.123
16101W        W88394  20.028  21.253   3.750
16102W        W88395  42.447   7.693  12.883
16103W        W88396   6.683  33.486  11.608
16104W        W88397  31.432  26.664  11.075
16105W        W88398  24.998  35.946  11.096
16106W        W88399  43.405   4.350  12.362
16107W        W88400  12.705   3.239   4.206
16108W        W88401  40.902  22.080   0.861
16109W        W88402   3.238  30.640  12.381
16110W        W88403  10.310  36.418   2.884
16111W        W88404  41.404   0.458  12.063
16112W        W88405  16.568  31.634   2.892
16113W        W88406   6.849  42.820  13.523
16114W        W88407  44.416  32.128  12.548
16115W        W88408   5.717   6.414  11.419
16116W        W88409  27.653  37.509  13.875
16117W        W88410   6.344  26.538  10.062
16118W        W88411  17.157  39.447   2.305
16119W        W88412   4.247  35.876  12.486
16120W        W88413  29.515  40.357  10.504
16121W        W88414  16.724  25.101  12.428
16122W        W88415  29.474   8.329   4.344
16123W        W88416  15.741  26.701   2.684
16124W        W88417  19.192  22.100   4.636
16125W        W88418   6.754  12.776   4.119
16126W        W88419  10.339  35.903  12.343
16127W        W88420  31.450   7.789   3.298
16128W        W88421  27.111  12.728  13.415
16129W        W88422   3.933  35.358  10.947
16130W        W88423  21.217  37.441   2.808
16131W        W88424  38.065  12.120  11.598
16132W        W88425   2.777  31.068  11.554
16133W        W88426  32.619  13.319  14.960
16134W        W88427   2.813  11.858   0.449
16135W        W88428  16.740  10.307   4.652
16136W        W88429   6.778  35.953   0.728
16137W        W88430  32.391  33.881  13.907
16138W        W88431  16.196  28.446  11.083
16139W        W88432  35.890   3.385  14.919
16140W        W88433  31.604   4.908  10.994
16141W        W88434  44.476  36.374   5.693
16142W        W88435  42.360   3.271   1.410
16143W        W88436  12.686  34.978   1.776
16144W        W88437  10.263  29.475  13.868
16145W        W88438   8.327  32.103  14.923
16146W        W88439  13.778   0.965   1.227
16147W        W88440  21.230  13.274  11.492
16148W        W88441  30.472   1.286   3.236
16149W        W88442  25.622  14.179  10.468
16150W        W88443  30.156  43.840   3.255
16151W        W88444   7.254  35.911   2.191
16152W        W88445  43.459  38.413  10.583
16153W        W88446  21.590  41.014   4.679
16154W        W88447  10.269   1.265  10.041
16155W        W88448  36.585   3.308   4.598
16156W        W88449  10.762  33.973  11.481
16157W        W88450  12.637  15.275   4.650
16158W        W88451  19.051  23.711  13.991
16159W        W88452  16.212   2.299   1.747
16160W        W88453  15.141   1.266  13.332
16161W        W88454  19.622  44.808   3.747
16162W        W88455  26.062  19.748   2.190
16163W        W88456  36.027  23.066   3.163
16164W        W88457  30.561  24.188   2.859
16165W        W88458  42.018  44.789  10.027
16166W        W88459  14.205   8.773  12.008
16167W        W88460   8.688  41.811  11.112
16168W        W88461  35.933   6.311  14.967
16169W        W88462   3.350  12.293  13.374
16170W        W88463  12.301   8.709  14.497
16171W        W88464   6.250  38.068  13.830
16172W        W88465  42.372  40.995   3.705
16173W        W88466  34.113  32.015   3.719
16174W        W88467  17.163   8.832   3.297
16175W        W88468   6.775  26.620  13.012
16176W        W88469  11.678  36.552   4.838
16177W        W88470  10.372  28.583   4.731
16178W        W88471  33.901  16.624   2.729
16179W        W88472   6.250  24.640   3.703
16180W        W88473  27.994  33.488   4.692
16181W        W88474   6.379  15.686  14.787
16182W        W88475  10.794  34.021  12.373
16183W        W88476  28.018  37.523   2.870
16184W        W88477  18.255  24.586   3.802
16185W        W88478  32.604  35.543  14.398
16186W        W88479   8.900  10.707   0.255
16187W        W88480  41.001  40.450  14.375
16188W        W88481  25.580   6.224  13.388
16189W        W88482  41.478  41.893  11.556
16190W        W88483   5.694  22.529   4.820
16191W        W88484   2.836  12.287   1.733
16192W        W88485   8.782  12.199   4.599
16193W        W88486  30.590   7.840  10.135
16194W        W88487   9.653  21.218  10.584
16195W        W88488  36.865  36.069   0.423
16196W        W88489  33.908  16.626   0.479
16197W        W88490  34.500   7.707  14.387
16198W        W88491  42.002   4.719   3.666
16199W        W88492  23.639  39.027   1.793
16200W        W88493  35.108  42.828  13.422
16201W        W88494  18.084   1.895  12.410
16202W        W88495  27.191  32.983  12.945
16203W        W88496  17.275  42.982  14.380
16204W        W88497  38.423  40.837  13.519
16205W        W88498  11.281  26.029  13.848
16206W        W88499  26.100  42.013   4.744
16207W        W88500  43.285  14.290   2.377
16208W        W88501  40.897  41.852  10.597
16209W        W88502  29.575  22.174  10.602
16210W        W88503  16.665  19.070  11.972
16211W        W88504   9.707   1.880   2.370
16212W        W88505  17.646  21.744  11.481
16213W        W88506   3.714  21.043   3.644
16214W        W88507   0.381  14.618   0.908
16215W        W88508  40.539   2.902   0.727
16216W        W88509   5.902  44.423   1.921
16217W        W88510  38.453   6.746  14.401
16218W        W88511  31.642  34.004  13.505
16219W        W88512  43.407   3.901   3.804
16220W        W88513  15.276  26.998   0.967
16221W        W88514  13.240  32.110   0.792
16222W        W88515  22.215  44.817   1.881
16223W        W88516   4.889   3.392   0.787
16224W        W88517  43.405   6.413  13.026
16225W        W88518   0.329  26.154   2.268
16226W        W88519  28.511  16.272   2.885
16227W        W88520  27.453   9.724  10.528
16228W        W88521  22.053  25.598   2.840
16229W        W88522  19.119  24.533  12.440
16230W        W88523  43.482   4.219   0.338
16231W        W88524   1.890  27.132   3.797
16232W        W88525  34.875  44.387  11.013
16233W        W88526  30.954  19.662   1.231
16234W        W88527  40.546  14.728   3.359
16235W        W88528  14.599  15.582   1.839
16236W        W88529  32.469  34.465   1.321
16237W        W88530  20.107  21.213  12.984
16238W        W88531   6.331  37.447   0.812
16239W        W88532  20.235   9.176   2.793
16240W        W88533  37.057  34.910  14.987
16241W        W88534  43.465  29.504  11.891
16242W        W88535  21.111   8.340  13.912
16243W        W88536  27.963  21.703  11.553
16244W        W88537  21.739  27.516   3.354
16245W        W88538  33.537   1.880  11.550
16246W        W88539  29.462  39.539   1.288
16247W        W88540  11.371   0.382   3.332
16248W        W88541   3.271   9.747   4.709
16249W        W88542   8.194  22.125  11.591
16250W        W88543  13.605   1.415  11.050
16251W        W88544  38.965  22.242  14.288
16252W        W88545  18.214  17.178   2.187
16253W        W88546   8.867  34.399   3.179
16254W        W88547  31.898   8.231  10.539
16255W        W88548  43.411  28.074  12.565
16256W        W88549  35.460  42.893   4.156
16257W        W88550  42.378   2.772   4.787
16258W        W88551   2.360   6.352   3.375
16259W        W88552  17.770  34.530   2.350
16260W        W88553  29.115  11.821  13.402
16261W        W88554   6.886  40.330  14.476
16262W        W88555   1.458  12.615  12.886
16263W        W88556  36.552   3.245  11.920
16264W        W88557  37.349  18.624  14.447
16265W        W88558   3.359   2.944  11.004
16266W        W88559   5.698  41.357  13.884
16267W        W88560   8.714  23.228  13.906
16268W        W88561  34.896  22.504   0.929
16269W        W88562  24.582  34.379   1.770
16270W        W88563   0.898  43.816   0.733
16271W        W88564  14.192   5.422  13.799
16272W        W88565   5.843  10.747  11.470
16273W        W88566  39.557  17.248  14.981
16274W        W88567  40.834  44.965  13.383
16275W        W88568  34.946  21.148   5.312
16276W        W88569   0.285   6.222  14.434
16277W        W88570  32.532  42.409   3.285
16278W        W88571  41.415  34.544  12.887
16279W        W88572  35.049  15.226   1.882
16280W        W88573  27.108  39.517  14.504
16281W        W88574   1.450  38.837  11.576
16282W        W88575  24.578  43.440  14.348
16283W        W88576  16.609  17.110   4.744
16284W        W88577  24.622  11.207  11.943
16285W        W88578  41.792  41.521   0.818
16286W        W88579  20.691  44.890  14.805
16287W        W88580   3.902  38.368  13.375
16288W        W88581  25.607  40.867  10.416
16289W        W88582  43.924  29.592   0.436
16290W        W88583  14.818   8.170   3.768
16291W        W88584  28.456  16.589  12.912
16292W        W88585  23.562  38.846   3.309
16293W        W88586  19.249   2.764  12.482
16294W        W88587  22.545  38.010  12.342
16295W        W88588  38.525  30.425   2.667
16296W        W88589  10.344  16.079  13.832
16297W        W88590  32.117  31.087  12.883
16298W        W88591  31.609  28.615   0.461
16299W        W88592  28.968  32.540  14.434
16300W        W88593  29.935  15.242   2.691
16301W        W88594   3.900  16.774   0.384
16302W        W88595  23.202  23.984  10.417
16303W        W88596  19.268  25.057   1.782
16304W        W88597  23.511  20.199  10.939
16305W        W88598  14.590  14.750  11.939
16306W        W88599   0.886  19.055  10.568
16307W        W88600   2.289   0.777  12.092
16308W        W88601   1.289  25.080   2.263
16309W        W88602  20.620  44.903  12.481
16310W        W88603  19.742   1.266   0.913
16311W        W88604   1.465   8.704  13.898
16312W        W88605  38.465   3.282  14.817
16313W        W88606  19.677  29.645   0.314
16314W        W88607  40.021  13.220   2.330
16315W        W88608  22.062  31.137   3.658
16316W        W88609   9.172  19.152   2.254
16317W        W88610  44.329  14.679  14.858
16318W        W88611  35.917  14.607   0.840
16319W        W88612  44.788  16.598   2.405
16320W        W88613  25.134  34.075  14.787
16321W        W88614   8.861  44.835   4.123
16322W        W88615  28.596  21.137  10.420
16323W        W88616  15.728   2.775   4.334
16324W        W88617   0.938   1.420  11.512
16325W        W88618   1.439  42.438   3.374
16326W        W88619  24.020  39.509   2.399
16327W        W88620   5.337  29.931  11.127
16328W        W88621  17.255   4.429  14.930
16329W        W88622  43.471   2.757  12.934
16330W        W88623  40.845  11.746  13.882
16331W        W88624  25.033  33.077  13.051
16332W        W88625  23.108  33.538   0.792
16333W        W88626  26.974  19.678   4.648
16334W        W88627  11.680  33.095   4.171
16335W        W88628  21.740  20.047  11.914
16336W        W88629   2.408  11.743  11.900
16337W        W88630   6.242  44.351   3.703
16338W        W88631  42.293  19.665  11.538
16339W        W88632  20.722  44.847   4.782
16340W        W88633   5.372   7.781   0.934
16341W        W88634  44.413  21.154   1.391
16342W        W88635  27.662  27.041   1.832
16343W        W88636  35.882  35.071   1.783
16344W        W88637  29.072  21.224  10.892
16345W        W88638  43.275  37.839  10.640
16346W        W88639   3.303  18.137   0.808
16347W        W88640  39.824   7.353  11.921
16348W        W88641  26.033  30.949   1.439
16349W        W88642  44.971  40.474  13.408
16350W        W88643   6.813  29.089   1.711
16351W        W88644  14.295  10.857   1.220
16352W        W88645  28.946  40.937  11.574
16353W        W88646  40.451  28.518  13.883
16354W        W88647  12.745  18.078   2.297
16355W        W88648  31.055  23.679   9.932
16356W        W88649  40.546  18.094  12.046
16357W        W88650   2.321  36.084   5.086
16358W        W88651  23.718  11.847   2.665
16359W        W88652  34.930   2.459  13.943
16360W        W88653  10.364  36.035  10.639
16361W        W88654  44.436  24.995   0.321
16362W        W88655   8.743  19.050  11.860
16363W        W88656  35.995   1.839  13.880
16364W        W88657  10.712  36.387  13.995
16365W        W88658  43.515  30.547  14.939
16366W        W88659   6.745  32.979  12.001
16367W        W88660  30.442   9.647  13.934
16368W        W88661  44.441  17.637   5.249
16369W        W88662  40.322  34.572   3.662
16370W        W88663  12.338  41.425  13.003
16371W        W88664  21.071  43.998  10.462
16372W        W88665   8.364  17.651  10.471
16373W        W88666  17.302  21.207  14.926
16374W        W88667  18.735  19.747  14.897
16375W        W88668  37.423  39.457   4.265
16376W        W88669  34.532  32.033  10.640
16377W        W88670  13.296  35.096   9.987
16378W        W88671  25.669  30.933   1.881
16379W        W88672  12.719   2.363  13.468
16380W        W88673   6.385  36.003  13.308
16381W        W88674   9.166  12.780  11.608
16382W        W88675  10.362  22.509  11.948
16383W        W88676  41.819   9.735   4.747
16384W        W88677   6.821  17.086  10.918
16385W        W88678  10.140   0.983  14.347
16386W        W88679  29.921   6.801   1.215
16387W        W88680   1.365  43.498  14.282
16388W        W88681  43.377  44.867   0.850
16389W        W88682  17.145  25.058   5.095
16390W        W88683  26.096   1.732  12.890
16391W        W88684  10.820  22.513   1.262
16392W        W88685  24.678  37.041   1.905
16393W        W88686  34.579  33.406   3.186
16394W        W88687  15.805  24.052   3.746
16395W        W88688  37.879   8.741  14.828
16396W        W88689  43.970   7.821   4.235
16397W        W88690  23.178  38.881   2.778
16398W        W88691  35.997   2.289   2.706
16399W        W88692   8.315  43.872  12.020
16400W        W88693  15.161  11.858   0.390
16401W        W88694  22.658  33.119  12.527
16402W        W88695  18.594   1.257  12.512
16403W        W88696  24.593   3.865   3.719
16404W        W88697   5.423  37.058  11.967
16405W        W88698  21.600  18.182  11.374
16406W        W88699  19.631  19.758   3.786
16407W        W88700  16.757  16.081   2.183
16408W        W88701  26.525  33.002   1.353
16409W        W88702  31.986  29.571  14.320
16410W        W88703  36.069  18.760   1.407
16411W        W88704  21.120  34.992   2.839
16412W        W88705   7.832   6.814   2.415
16413W        W88706  28.116  15.744  13.824
16414W        W88707  40.033  30.036   4.214
16415W        W88708  15.791   5.258   2.280
16416W        W88709  35.865  38.822  14.491
16417W        W88710  43.459   4.776   2.198
16418W        W88711  34.042  12.684  11.376
16419W        W88712  38.997   5.221  14.426
16420W        W88713  23.081  30.942   4.171
16421W        W88714  19.653   7.670  12.872
16422W        W88715  25.211  17.623   4.173
16423W        W88716  37.834  27.140   1.886
16424W        W88717   5.859  39.876   3.367
16425W        W88718  41.517  12.849  12.878
16426W        W88719  28.454  34.526  12.876
16427W        W88720   0.399  37.064  12.557
16428W        W88721  15.647   9.299   0.746
16429W        W88722   8.328   6.277   4.804
16430W        W88723   6.312  25.986  14.993
16431W        W88724  10.345  14.162  14.949
16432W        W88725   0.749  23.181  12.529
16433W        W88726   8.279  13.626   2.285
16434W        W88727  18.226  42.916   2.800
16435W        W88728  12.264  28.533  12.473
16436W        W88729  13.243   5.434   2.321
16437W        W88730  32.467  44.952   0.343
16438W        W88731  34.613  35.559  12.382
16439W        W88732  42.400  17.152   4.802
16440W        W88733  10.172  32.533   3.231
16441W        W88734  36.929  35.461   2.669
16442W        W88735  33.112  43.978   0.764
16443W        W88736  27.501   3.940  10.610
16444W        W88737  38.915  28.654  10.897
16445W        W88738  42.955   4.804   3.161
16446W        W88739  38.901  11.655  11.424
16447W        W88740  14.626  29.562   0.854
16448W        W88741  24.118   7.376  14.313
16449W        W88742  34.886  14.166  14.775
16450W        W88743  27.129   0.898   4.676
16451W        W88744  17.793  19.124   3.243
16452W        W88745  37.023   3.322  14.987
16453W        W88746   2.817  23.241   3.302
16454W        W88747   0.775  20.097  10.447
16455W        W88748   2.725  39.358   4.185
16456W        W88749  29.036  17.683  12.906
16457W        W88750  16.654   8.822  12.877
16458W        W88751  33.050   6.368   2.188
16459W        W88752  21.178   2.235   2.396
16460W        W88753   8.251  20.094  12.015
16461W        W88754  19.135  17.634  10.905
16462W        W88755  28.148   2.868  12.047
16463W        W88756   8.321  14.649  12.556
16464W        W88757  11.629  23.529  14.294
16465W        W88758  21.212  15.266   4.680
16466W        W88759  14.313  27.018   1.301
16467W        W88760  28.937  36.466   1.243
16468W        W88761  41.914   4.376   1.700
16469W        W88762  34.076   3.330   1.333
16470W        W88763  17.715  15.679  13.989
16471W        W88764  34.428   2.945   2.229
16472W        W88765  44.914  15.805   3.866
16473W        W88766  26.203  30.531   3.733
16474W        W88767  10.281  24.988   1.357
16475W        W88768   6.851   2.860   3.249
16476W        W88769  17.231   3.256   1.763
16477W        W88770   8.856  35.107   2.323
16478W        W88771  43.459  12.285  13.391
16479W        W88772  24.508   6.770   2.262
16480W        W88773  42.954   2.948   0.277
16481W        W88774   0.832  27.552  12.023
16482W        W88775   9.723   3.311   2.284
16483W        W88776  12.845  13.114  14.450
16484W        W88777  34.113  40.800   3.793
16485W        W88778   1.433  39.965  13.384
16486W        W88779  37.002  15.748  11.013
16487W        W88780  35.080  10.860  10.415
16488W        W88781  34.962  35.417   2.355
16489W        W88782   8.369  31.537   2.731
16490W        W88783  35.528  23.615  14.379
16491W        W88784  26.501  23.491   1.229
16492W        W88785  35.868   8.201  14.370
16493W        W88786  42.860  22.239   3.259
16494W        W88787  44.325   8.266   3.320
16495W        W88788  13.306  18.663  12.087
16496W        W88789  43.387  25.021   2.669
16497W        W88790  25.192  31.953   1.816
16498W        W88791  27.996  12.259  14.345
16499W        W88792  22.619  31.002   1.434
16500W        W88793   3.947   2.728   2.809
16501W        W88794   8.369  25.530   1.219
16502W        W88795  41.876  34.522   0.795
16503W        W88796  23.158  17.757   2.375
16504W        W88797  40.446  12.759   4.291
16505W        W88798  43.790  29.011  10.491
16506W        W88799  24.027  28.156  14.380
16507W        W88800  18.619  15.115  11.087
16508W        W88801   0.967  43.983  13.935
16509W        W88802  36.955  37.920  11.491
16510W        W88803  17.765   4.731   0.363
16511W        W88804  30.977  42.954  11.919
16512W        W88805   7.197  24.658   1.451
16513W        W88806   5.929  32.514   3.323
16514W        W88807  28.147  39.380  13.387
16515W        W88808   8.391  38.474   0.954
16516W        W88809  19.120  33.452   4.114
16517W        W88810  36.508  34.043   2.305
16518W        W88811  13.137  24.697   3.150
16519W        W88812  30.498  37.418   3.726
16520W        W88813  33.938   1.327   1.234
16521W        W88814   9.705   4.413   2.268
16522W        W88815  22.236  41.317   3.759
16523W        W88816  32.023  35.494   4.784
16524W        W88817   1.795  32.426   3.822
16525W        W88818  37.051   6.210  12.351
16526W        W88819  28.162  18.184  10.962
16527W        W88820  35.004  26.136  13.484
16528W        W88821  17.221  37.032   2.239
16529W        W88822  41.862  10.843   1.404
16530W        W88823  14.792   4.400  11.541
16531W        W88824  12.731   0.876  11.443
16532W        W88825  20.616  11.792  12.466
16533W        W88826  20.630  11.632  12.000
16534W        W88827  10.328  22.155   2.181
16535W        W88828   0.846  29.655  12.856
16536W        W88829  21.029  36.548  14.389
16537W        W88830  44.352  29.954  13.957
16538W        W88831  13.176  39.019   4.716
16539W        W88832  32.904  33.583   0.726
16540W        W88833  43.867  26.561   0.828
16541W        W88834  13.713   8.690  11.893
16542W        W88835  18.669  32.023  10.918
16543W        W88836   1.754  27.588  13.381
16544W        W88837  36.036  18.192   2.874
16545W        W88838  41.410  13.197  10.591
16546W        W88839  12.206  38.506  14.019
16547W        W88840  29.626  32.022   1.418
16548W        W88841   1.762  20.714   2.823
16549W        W88842   1.778  25.597   1.786
16550W        W88843  38.045  27.658  10.601
16551W        W88844  14.759  21.231  14.498
16552W        W88845   5.274  23.612   1.414
16553W        W88846   1.949  18.099  14.923
16554W        W88847  27.549  24.062  10.988
16555W        W88848  33.608  13.333   2.329
16556W        W88849   1.904  11.683   1.396
16557W        W88850  25.964  35.448  13.497
16558W        W88851  36.380  11.623  12.972
16559W        W88852  41.464  12.309  12.470
16560W        W88853  29.918   6.762  11.497
16561W        W88854  23.030   5.690   2.685
16562W        W88855  12.358  43.858   0.426
16563W        W88856  27.592  38.943   0.739
16564W        W88857  36.380  29.995   3.661
16565W        W88858  11.344  35.932   4.165
16566W        W88859  30.131  31.518  13.431
16567W        W88860  33.481  27.007  14.376
16568W        W88861  24.980   0.455  12.504
16569W        W88862   1.896  24.524  14.775
16570W        W88863  17.662   1.917   3.655
16571W        W88864  44.887  25.131   0.389
16572W        W88865  25.969  36.887   4.708
16573W        W88866   6.280  21.569  10.466
16574W        W88867  34.964  37.552   1.297
16575W        W88868  18.159  18.174   3.294
16576W        W88869   6.761   1.970   4.146
16577W        W88870  31.022   1.462   4.312
16578W        W88871   6.325  12.312  14.465
16579W        W88872   8.845   8.370  12.908
16580W        W88873  22.541  24.989   3.333
16581W        W88874  19.241  22.239  10.507
16582W        W88875   9.319  34.579  11.549
16583W        W88876  12.126  43.478   2.778
16584W        W88877  41.929  43.988  14.462
16585W        W88878  24.683  18.775  10.639
16586W        W88879  35.565   5.207   2.681
16587W        W88880   2.441  18.207   1.721
16588W        W88881  11.309  15.233   4.243
16589W        W88882  33.897  22.135  12.944
16590W        W88883  35.936  28.614  14.411
16591W        W88884   7.846   9.353  12.847
16592W        W88885  42.355  32.625   4.766
16593W        W88886  19.202  17.120   0.450
16594W        W88887   9.266  14.184  14.330
16595W        W88888   3.836  42.513   4.721
16596W        W88889   3.881   7.692  10.423
16597W        W88890  29.077   9.844   1.783
16598W        W88891  43.886  15.783  10.889
16599W        W88892  34.534   4.336  12.350
16600W        W88893  15.584  32.044  13.457
16601W        W88894   9.680   8.820  11.391
16602W        W88895  24.167  38.381   2.214
16603W        W88896  15.810  17.562  13.335
16604W        W88897  37.073  39.505   2.688
16605W        W88898   6.856   3.256  13.381
16606W        W88899  31.477  28.491  10.484
16607W        W88900   9.356  35.367  13.451
16608W        W88901  26.685  27.596   1.319
16609W        W88902  20.644  27.628   2.758
16610W        W88903  20.732  33.999   0.847
16611W        W88904   6.773   4.277  10.602
16612W        W88905  10.649  38.513   1.759
16613W        W88906  13.613  38.451   0.867
16614W        W88907   9.849  20.548   2.773
16615W        W88908  33.423  40.463  13.485
16616W        W88909  34.113  28.015  12.981
16617W        W88910   9.694  35.881  12.974
16618W        W88911  16.204   0.981   1.418
16619W        W88912   8.843  18.234  14.396
16620W        W88913  30.610  40.909  13.437
16621W        W88914  37.836  31.414   4.834
16622W        W88915   6.734  27.654   3.379
16623W        W88916  14.802  19.267   2.291
16624W        W88917  13.245   7.256  12.521
16625W        W88918  22.159  36.519   0.809
16626W        W88919  21.650  29.079  11.864
16627W        W88920   1.431  41.307  13.853
16628W        W88921  14.297  42.024  13.874
16629W        W88922  21.530   4.213  12.564
16630W        W88923  23.531  17.556  13.407
16631W        W88924   1.372  12.311   1.800
16632W        W88925   4.720  28.184   4.612
16633W        W88926  41.847  26.618  13.489
16634W        W88927   2.256  31.088   3.252
16635W        W88928  24.987  42.014   3.331
16636W        W88929  11.290  18.248   0.900
16637W        W88930  34.544   5.880   4.294
16638W        W88931   2.408   4.342  14.891
16639W        W88932   4.439  14.096   0.726
16640W        W88933  19.712   2.307  14.839
16641W        W88934  37.060  42.383   4.181
16642W        W88935   4.340  38.968  11.069
16643W        W88936  13.736  11.825   3.223
16644W        W88937  29.595  22.692   3.316
16645W        W88938   1.461  10.357   4.712
16646W        W88939   7.689   5.834  11.925
16647W        W88940  18.126   8.803  11.083
16648W        W88941  35.523  12.196   4.338
16649W        W88942  42.922  26.134  11.508
16650W        W88943   6.264  10.305   9.949
16651W        W88944   9.158   9.888   4.136
16652W        W88945   8.787  38.467  11.592
16653W        W88946   6.704  41.429  13.826
16654W        W88947  36.419  19.104   1.253
16655W        W88948  37.477  28.185   0.876
16656W        W88949  12.147  15.612  11.413
16657W        W88950  16.318  36.007   4.164
16658W        W88951   3.362  17.273   4.157
16659W        W88952  33.544   2.378   1.245
16660W        W88953   2.963  26.505   0.809
16661W        W88954  39.360  29.540   4.733
16662W        W88955  27.024  16.778   2.233
16663W        W88956  43.830  18.249   2.304
16664W        W88957  29.083  42.320   0.740
16665W        W88958  12.722   8.223  12.837
16666W        W88959   0.957   6.385  10.055
16667W        W88960  28.006  32.429  11.078
16668W        W88961  35.370   1.321  13.531
16669W        W88962  17.285   4.736   4.181
16670W        W88963  20.540  15.711   3.167
16671W        W88964   0.486  30.994  14.509
16672W        W88965  38.855  16.214  14.851
16673W        W88966  33.896  21.563  13.807
16674W        W88967  42.385  26.117  13.994
16675W        W88968   4.298  37.510  14.353
16676W        W88969  44.009  16.149  14.957
16677W        W88970   4.754  33.380  11.973
16678W        W88971   8.194  20.544  12.486
16679W        W88972   2.257  19.633  12.482
16680W        W88973  43.909  34.415  14.284
16681W        W88974  27.546   6.726  13.016
16682W        W88975  40.851  15.100  13.481
16683W        W88976  43.485  38.448   0.752
16684W        W88977  28.514  28.017   0.846
16685W        W88978   6.314   9.740   0.418
16686W        W88979  24.570  27.038  13.457
16687W        W88980  39.560  10.733   4.137
16688W        W88981  10.835  32.428   4.295
16689W        W88982   5.836  36.380   2.695
16690W        W88983  32.007  29.436   4.259
16691W        W88984  12.743   8.825  13.482
16692W        W88985  44.756   5.867   2.379
16693W        W88986  29.173  29.026   1.446
16694W        W88987   0.343   2.442   2.307
16695W        W88988  43.825   2.321   2.394
16696W        W88989  14.799  34.059   3.351
16697W        W88990  29.424  39.821  14.900
16698W        W88991  16.764  32.885   1.432
16699W        W88992  36.967  43.428   0.455
16700W        W88993  30.911   7.174   1.770
16701W        W88994   0.914  28.564   2.676
16702W        W88995  14.260  26.181   4.838
16703W        W88996   6.321  22.593  12.907
16704W        W88997  43.497  43.481  14.501
16705W        W88998  10.672  27.978   1.798
16706W        W88999  33.556  35.909   2.868
16707W        W89000   9.690  36.898  14.873
16708W        W89001  42.812  29.657  11.020
16709W        W89002   8.400  36.944  11.422
16710W        W89003  19.070  33.530  14.902
16711W        W89004  43.904  11.154   0.464
16712W        W89005  26.031  20.593   1.703
16713W        W89006  44.405  36.973   3.242
16714W        W89007  23.003  14.706   4.675
16715W        W89008   1.424   5.770   3.153
16716W        W89009  18.108  41.005   4.764
16717W        W89010   4.721  40.038  13.405
16718W        W89011   0.413   2.443  12.400
16719W        W89012   4.223  44.295   4.335
16720W        W89013  31.981  15.763  13.410
16721W        W89014  36.483  30.063  14.277
16722W        W89015  13.809  17.699  10.940
16723W        W89016  13.675  43.516   3.235
16724W        W89017  35.102  30.571   4.599
16725W        W89018   5.350  26.700   1.409
16726W        W89019   8.170  24.067  10.567
16727W        W89020  39.853  21.690  14.997
16728W        W89021   1.889  39.990  10.958
16729W        W89022   7.823  38.355   2.687
16730W        W89023  33.419   2.308  13.399
16731W        W89024   3.894  41.811   4.300
16732W        W89025  14.604  32.021   9.962
16733W        W89026  42.876  25.491  12.474
16734W        W89027   5.819   0.374   1.308
16735W        W89028  22.138  34.973   0.786
16736W        W89029  21.201  18.233   4.218
16737W        W89030  18.789  15.286  14.993
16738W        W89031  19.056   4.941  13.979
16739W        W89032  24.683  36.484   4.354
16740W        W89033  39.539  35.406   4.265
16741W        W89034  28.459  35.895   3.220
16742W        W89035   4.414  35.066   3.758
16743W        W89036  38.918   5.869  12.826
16744W        W89037  22.027  35.008   4.709
16745W        W89038  22.202   0.412  14.392
16746W        W89039  15.286  12.789  14.779
16747W        W89040  33.451  19.560   5.237
16748W        W89041  20.083   8.750  12.372
16749W        W89042  38.025   5.749  14.323
16750W        W89043   2.245   8.729  13.851
16751W        W89044  33.383   8.857  13.886
16752W        W89045  22.691  21.628  11.973
16753W        W89046  15.776  27.010   1.869
16754W        W89047  33.077  41.311   4.335
16755W        W89048   6.914   7.271  13.443
16756W        W89049  15.102  26.578   1.860
16757W        W89050  41.798  36.040   0.314
16758W        W89051  10.292   4.370  12.539
16759W        W89052  24.593  14.739   4.248
16760W        W89053   6.824  32.065  14.927
16761W        W89054  32.064  29.464   2.196
16762W        W89055  12.743  43.887  13.480
16763W        W89056   9.787  32.618  14.764
16764W        W89057  32.047  32.925   4.719
16765W        W89058  15.188  26.621  14.834
16766W        W89059   3.308   7.679  12.374
16767W        W89060   4.813  40.547   1.883
16768W        W89061  38.865  32.490  10.544
16769W        W89062  26.162   2.931  11.975
16770W        W89063  44.479  33.899  14.465
16771W        W89064   8.224   2.273  14.892
16772W        W89065  38.933  20.560  10.033
16773W        W89066  19.141  18.766  11.921
16774W        W89067  16.162   8.895   0.738
16775W        W89068  39.393  18.771   3.244
16776W        W89069  27.129   2.817   0.909
16777W        W89070  29.952  12.731  12.829
16778W        W89071  26.057   3.774   1.246
16779W        W89072  19.645  22.523  10.127
16780W        W89073  42.410  13.787  12.864
16781W        W89074   5.694  10.156  10.951
16782W        W89075   8.701  35.859   3.822
16783W        W89076  13.196  25.644   2.239
16784W        W89077   8.695  37.832   2.407
16785W        W89078  43.847  13.826  14.769
16786W        W89079  33.056  25.512   3.202
16787W        W89080  36.484  33.899   0.866
16788W        W89081  29.666  32.914   2.797
16789W        W89082  33.453   3.718   0.319
16790W        W89083  20.183  10.377  12.028
16791W        W89084  18.738   3.392  13.346
16792W        W89085   6.805  26.105  13.823
16793W        W89086  44.422   4.940  13.888
16794W        W89087  44.779  40.900   1.444
16795W        W89088  41.475  30.117  11.406
16796W        W89089   2.882  40.514  14.277
16797W        W89090   0.266  37.072  11.450
16798W        W89091  43.860  42.389  13.880
16799W        W89092  20.735  14.591   0.331
16800W        W89093  25.558   5.812   3.158
16801W        W89094  21.527  35.482  11.511
16802W        W89095  15.787  25.074   3.292
16803W        W89096  13.648  33.003   0.829
16804W        W89097  43.831  30.649  11.502
16805W        W89098  38.000  22.100  12.478
16806W        W89099  38.051   9.253  10.640
16807W        W89100  39.329  15.714   3.277
16808W        W89101  34.579  20.620   3.328
16809W        W89102  37.864  21.259   4.772
16810W        W89103  16.146  17.795   4.201
16811W        W89104  11.698  39.945  14.365
16812W        W89105   1.747  44.786   3.382
16813W        W89106   7.668   4.936  13.021
16814W        W89107   5.422  13.812  11.550
16815W        W89108  19.228  40.008   2.246
16816W        W89109  29.638   9.707  13.420
16817W        W89110  16.657   4.307   4.828
16818W        W89111  38.952   8.724  14.774
16819W        W89112  22.217  38.411   2.298
16820W        W89113  33.107  33.046  11.100
16821W        W89114  36.022  20.265  10.456
16822W        W89115  39.535  12.223  12.985
16823W        W89116  25.552  11.761   2.391
16824W        W89117  35.516   9.665  11.568
16825W        W89118  19.774  15.099   3.788
16826W        W89119  35.562  39.439   0.787
16827W        W89120  14.123  15.175  13.055
16828W        W89121  44.296  44.499  13.352
16829W        W89122  34.921  23.586   4.274
16830W        W89123  42.281  26.996  12.410
16831W        W89124  40.383  23.032   1.898
16832W        W89125   3.792  29.438  10.900
16833W        W89126  11.701  27.999  13.397
16834W        W89127  22.524  42.898  11.044
16835W        W89128  31.941   0.874   0.870
16836W        W89129  13.318  26.604  14.450
16837W        W89130  42.363   8.188   4.189
16838W        W89131  22.621  35.492   4.634
16839W        W89132   7.687  29.009  10.623
16840W        W89133  10.698   4.229  12.912
16841W        W89134   5.930  27.031  10.633
16842W        W89135  15.256  34.404  14.969
16843W        W89136  32.991  37.902  10.922
16844W        W89137  43.278   4.907  10.458
16845W        W89138  44.437   0.964  11.960
16846W        W89139  28.545   1.746  13.420
16847W        W89140  10.777  35.372  10.645
16848W        W89141  23.095  36.988   2.200
16849W        W89142  11.318   5.892   1.798
16850W        W89143  28.161  24.018  10.534
16851W        W89144  41.446  13.748   4.198
16852W        W89145  16.721  16.125   0.802
16853W        W89146  35.927  38.853  10.919
16854W        W89147  24.556  43.495   3.272
16855W        W89148  32.118  17.285  13.849
16856W        W89149  38.406  36.537   4.761
16857W        W89150  29.069  22.222  13.917
16858W        W89151  43.377   5.242   0.384
16859W        W89152   1.962   3.759   2.302
16860W        W89153  43.448  37.085   0.295
16861W        W89154  31.137   0.800   4.667
16862W        W89155  12.208  18.560   4.175
16863W        W89156  42.314  37.429  10.911
16864W        W89157  18.724  26.461   4.680
16865W        W89158  13.279  24.557   2.842
16866W        W89159  41.423  42.971  10.888
16867W        W89160   6.204  23.031  13.330
16868W        W89161  16.567  11.844  12.854
16869W        W89162  13.789  34.580   0.824
16870W        W89163   7.887   3.453   5.177
16871W        W89164  36.010   1.449  14.328
16872W        W89165   1.393   5.861  11.986
16873W        W89166  23.497  33.588   9.975
16874W        W89167  24.508  38.950  13.344
16875W        W89168  24.497  32.996   0.913
16876W        W89169   7.196  37.987  13.469
16877W        W89170  24.070  31.900   3.164
16878W        W89171  28.963  36.882  13.984
16879W        W89172  31.034  19.160   0.361
16880W        W89173  31.989   8.297  13.466
16881W        W89174  23.571  17.722   3.252
16882W        W89175  23.722   5.819   1.912
16883W        W89176  15.240  14.119  12.417
16884W        W89177  18.111  36.547  12.876
16885W        W89178  28.123  41.345   0.423
16886W        W89179  11.271  24.564   2.715
16887W        W89180  35.920  24.589   2.862
16888W        W89181  16.626  29.039  12.934
16889W        W89182  33.416  44.770  13.448
16890W        W89183   8.248  15.104   4.140
16891W        W89184   3.902  29.057   1.352
16892W        W89185  29.088  34.097  13.909
16893W        W89186  19.191  16.772  13.478
16894W        W89187   7.905  16.602  13.947
16895W        W89188  23.689   0.435   4.666
16896W        W89189   1.959  20.678  14.888
16897W        W89190  11.796  11.788   0.290
16898W        W89191  29.666  38.009   0.260
16899W        W89192  41.007  26.054  13.482
16900W        W89193  22.070  40.341   0.344
16901W        W89194  37.438  41.923  11.418
16902W        W89195   4.861  11.313  11.054
16903W        W89196  37.401  42.995  12.967
16904W        W89197  33.471  13.671   0.857
16905W        W89198  12.645  20.720  13.451
16906W        W89199  13.776  24.535   0.396
16907W        W89200  22.100  24.027   1.260
16908W        W89201  22.073   6.213  14.508
16909W        W89202  15.622  40.318   1.733
16910W        W89203   4.740   8.301  13.941
16911W        W89204  20.035  11.826   0.462
16912W        W89205  43.877  20.062  10.896
16913W        W89206  40.887   8.703  12.865
16914W        W89207  15.623  40.377  14.405
16915W        W89208  14.794  16.760  13.437
16916W        W89209  43.289  35.530  10.531
16917W        W89210  37.952  11.745  14.504
16918W        W89211  32.444   2.230   1.337
16919W        W89212  20.617  43.308  13.481
16920W        W89213   7.215  26.972   4.338
16921W        W89214  30.509   3.875  12.046
16922W        W89215  25.697  12.246   4.688
16923W        W89216  14.287  10.177   0.373
16924W        W89217  33.505  31.055   1.235
16925W        W89218   6.339  12.707  11.496
16926W        W89219  41.477  27.558  13.995
16927W        W89220  37.994  17.208  13.325
16928W        W89221   3.719   0.426   2.318
16929W        W89222  19.631   5.858  12.903
16930W        W89223  23.731  32.901   0.776
16931W        W89224  44.841  34.614   3.230
16932W        W89225   0.985  40.827  13.489
16933W        W89226  39.397  42.289   0.848
16934W        W89227   5.308  15.781  10.464
16935W        W89228  24.016  17.657   4.658
16936W        W89229  36.470  36.382  13.057
16937W        W89230  24.976   5.889   3.707
16938W        W89231  13.193  29.550  13.344
16939W        W89232  39.012  33.950  10.449
16940W        W89233  19.266  19.622  14.959
16941W        W89234  43.832  23.007  12.048
16942W        W89235  15.694  40.006  14.775
16943W        W89236  39.858  31.948   3.811
16944W        W89237  35.401  44.764  10.446
16945W        W89238   5.197  35.525  12.096
16946W        W89239   2.902  35.502  12.843
16947W        W89240  24.707  21.605   0.373
16948W        W89241   9.858  38.341   2.894
16949W        W89242  15.121  24.680   4.668
16950W        W89243  35.916   6.214   3.274
16951W        W89244  14.792  10.786  12.434
16952W        W89245  24.688   3.325  11.375
16953W        W89246  36.085  12.820   1.406
16954W        W89247  27.086  12.265  13.837
16955W        W89248  29.667   4.918   0.330
16956W        W89249  26.510  14.734  14.384
16957W        W89250   6.882  29.079  14.319
16958W        W89251  34.953  26.207   3.641
16959W        W89252  11.301  30.446  14.767
16960W        W89253  20.037  35.462  11.466
16961W        W89254  42.945  32.004   1.408
16962W        W89255  27.663  40.542   2.254
16963W        W89256  30.504   8.700   0.937
16964W        W89257  10.154   1.878  10.519
16965W        W89258   3.440   7.860   2.781
16966W        W89259  17.762   0.803  12.420
16967W        W89260  36.408   7.832   1.837
16968W        W89261   5.761  43.999  11.118
16969W        W89262   5.389  43.846  13.923
16970W        W89263  34.966  44.423  14.812
16971W        W89264  29.517  32.504   4.190
16972W        W89265  35.367  17.644  12.512
16973W        W89266  10.877  40.004   0.775
16974W        W89267  14.180   6.684  13.476
16975W        W89268   8.816  29.587  12.366
16976W        W89269  22.639  43.003  14.856
16977W        W89270  42.031  16.290   4.124
16978W        W89271  17.100  21.638   2.381
16979W        W89272  21.741  37.494  10.457
16980W        W89273  35.080  29.160  14.496
16981W        W89274  38.545   9.294  13.956
16982W        W89275  16.250  35.956   0.801
16983W        W89276  25.540  36.084   1.216
16984W        W89277  29.668  28.651   0.774
16985W        W89278   1.938   6.739   3.171
16986W        W89279  22.717   4.271   2.311
16987W        W89280  35.028  10.736  13.524
16988W        W89281  21.127  44.304  12.030
16989W        W89282  33.944  13.230  12.826
16990W        W89283   9.188  40.323   0.940
16991W        W89284  22.042  21.246   3.763
16992W        W89285  36.447   0.804  14.508
16993W        W89286   6.378  39.379  13.911
16994W        W89287  32.614  40.974   0.954
16995W        W89288  24.070  20.141   2.289
16996W        W89289  31.147  15.799   9.941
16997W        W89290  40.881   3.348  10.099
16998W        W89291  17.276  15.622   1.731
16999W        W89292  26.012  22.523   9.943
17000W        W89293  11.133   7.830   1.740
17001W        W89294  19.137  38.030  10.558
17002W        W89295  33.411  21.748  13.996
17003W        W89296  28.006  20.236  11.416
17004W        W89297  28.178  41.345  10.429
17005W        W89298  11.819  29.632  10.104
17006W        W89299  27.134  19.243   2.674
17007W        W89300   1.853  12.272   4.331
17008W        W89301   8.301  33.101   3.815
17009W        W89302   8.846  17.278  10.607
17010W        W89303   8.239  14.684  14.806
17011W        W89304  18.686  30.986  14.847
17012W        W89305  17.210  42.327   4.733
17013W        W89306  42.838   1.282   3.786
17014W        W89307  25.043   3.235  10.569
17015W        W89308  29.039  22.060   1.416
17016W        W89309  18.128  38.403   0.956
17017W        W89310  41.315  17.148   0.374
17018W        W89311  19.647   2.869   3.204
17019W        W89312  31.590  43.969  11.909
17020W        W89313  21.526  39.411  10.525
17021W        W89314  29.156  30.911   1.358
17022W        W89315  10.153  11.627   3.235
17023W        W89316  27.452  18.602   0.256
17024W        W89317  27.522  15.261  13.364
17025W        W89318  34.071  37.406  13.948
17026W        W89319  20.132  16.581   3.247
17027W        W89320   8.247  33.521   0.431
17028W        W89321   6.734  12.797  12.928
17029W        W89322   7.222  24.569   2.232
17030W        W89323  20.034  10.229  12.434
17031W        W89324  30.966  10.314  12.513
17032W        W89325  33.925  40.923  12.417
17033W        W89326  36.427   0.759   0.904
17034W        W89327  26.497  14.318   3.710
17035W        W89328  44.905  27.662  11.460
17036W        W89329  43.290   0.465  12.489
17037W        W89330  40.889  24.149  10.959
17038W        W89331  29.436  37.036   0.413
17039W        W89332   2.945   2.790  10.544
17040W        W89333   2.803  17.614   3.337
17041W        W89334   7.379  33.935  14.842
17042W        W89335  36.373  33.087   0.255
17043W        W89336  31.980  18.737   1.836
17044W        W89337  28.942  43.357   1.297
17045W        W89338  24.668  21.611  11.974
17046W        W89339  19.257  14.827   3.856
17047W        W89340  19.178  37.005   0.781
17048W        W89341  44.974   3.870  11.888
17049W        W89342   1.360  27.526   2.665
17050W        W89343   3.909  18.628  11.013
17051W        W89344  17.238  21.743   9.927
17052W        W89345  14.682  37.552   2.302
17053W        W89346   9.204  44.466  14.367
17054W        W89347  38.844   0.931  11.408
17055W        W89348   5.874   0.303  13.402
17056W        W89349  19.214   0.771   2.393
17057W        W89350  10.763  33.464   3.282
17058W        W89351  18.589  40.512   5.188
17059W        W89352  10.668  12.349  14.410
17060W        W89353  37.024   4.323   2.726
17061W        W89354  26.142  21.643   4.651
17062W        W89355  33.467  29.120   1.807
17063W        W89356  22.209  40.481  12.935
17064W        W89357  44.787  19.071   3.661
17065W        W89358  32.905   3.379   0.338
17066W        W89359  43.800  17.165  13.048
17067W        W89360  15.133  29.426  10.977
17068W        W89361  13.690   3.864   0.415
17069W        W89362   1.329  41.476   4.770
17070W        W89363  21.086  21.603   3.650
17071W        W89364  36.532  38.919  14.816
17072W        W89365   7.692  33.489   9.972
17073W        W89366  36.079  43.372   1.272
17074W        W89367  13.723  17.659   2.834
17075W        W89368  38.053  13.162  13.461
17076W        W89369   8.799   3.273  13.497
17077W        W89370  36.579  31.115  10.961
17078W        W89371  35.559  43.392   3.356
17079W        W89372  42.448   1.882  11.457
17080W        W89373  41.041  34.501  11.051
17081W        W89374  38.370  43.815   2.387
17082W        W89375  26.643  12.261   0.925
17083W        W89376  29.607  30.595   3.237
17084W        W89377  26.977   0.957  14.473
17085W        W89378  38.397   0.360   0.880
17086W        W89379   7.184   7.859   4.172
17087W        W89380  15.814   9.688   3.319
17088W        W89381  44.347  16.307  13.316
17089W        W89382  25.502  38.040   2.346
17090W        W89383  15.301   2.782   0.337
17091W        W89384  13.303  32.122   3.769
17092W        W89385  13.288   2.888  11.938
17093W        W89386  38.069   0.879   4.823
17094W        W89387  27.045  33.455   0.290
17095W        W89388   3.410   9.861   2.362
17096W        W89389   2.889   0.347  12.358
17097W        W89390  37.023  18.744   3.152
17098W        W89391   0.456  42.285  14.957
17099W        W89392  26.061  11.222  10.445
17100W        W89393   5.770  28.593  11.006
17101W        W89394  33.594  43.946   1.225
17102W        W89395  18.730   7.303  10.070
17103W        W89396  26.522  18.124  12.831
17104W        W89397  17.561  33.595   2.677
17105W        W89398  13.710  36.977   3.206
17106W        W89399  28.656  36.931   0.458
17107W        W89400  34.433  42.851  10.495
17108W        W89401  20.125  25.642  10.925
17109W        W89402  25.175  24.109  12.567
17110W        W89403  30.551  23.626  14.370
17111W        W89404  34.387  16.691  11.111
17112W        W89405  19.656   8.252  11.057
17113W        W89406  44.007  38.031  13.396
17114W        W89407   9.166  15.298  14.791
17115W        W89408  30.429  44.883  11.504
17116W        W89409  15.242  16.681   1.732
17117W        W89410  38.843  10.246   1.412
17118W        W89411  15.326   2.323   2.871
17119W        W89412  11.631   9.843   3.294
17120W        W89413  39.863  43.416  12.405
17121W        W89414  33.082  33.033  13.506
17122W        W89415  40.429  41.526  14.358
17123W        W89416  24.108  38.562   0.414
17124W        W89417  43.015   1.757   9.972
17125W        W89418   4.381  23.673  11.423
17126W        W89419  14.756  21.737   3.161
17127W        W89420   2.967  22.026  11.000
17128W        W89421  21.248  33.020  14.957
17129W        W89422  38.062  25.652  13.794
17130W        W89423  37.081   6.804  13.034
17131W        W89424  33.423  27.493  10.917
17132W        W89425  34.957  28.434  13.392
17133W        W89426  32.905  25.702   1.925
17134W        W89427  44.366  27.149   2.671
17135W        W89428  44.305  41.014  14.439
17136W        W89429  13.634  20.535   4.235
17137W        W89430   0.780   8.899  11.873
17138W        W89431  18.754   6.699   4.242
17139W        W89432  14.237   1.390  14.372
17140W        W89433  25.708   8.261   1.266
17141W        W89434  43.346   6.764  13.970
17142W        W89435  37.080  36.349   1.856
17143W        W89436  17.801   8.830   3.739
17144W        W89437  31.919   6.896  10.589
17145W        W89438  17.732   7.343   0.316
17146W        W89439  13.330  44.832   1.298
17147W        W89440  21.050  32.559  11.883
17148W        W89441  19.655  29.120  12.996
17149W        W89442   4.754   3.417  11.999
17150W        W89443  18.721   5.805   3.277
17151W        W89444  11.742  27.976  11.066
17152W        W89445  37.482  36.034  10.502
17153W        W89446  42.416  34.054   0.754
17154W        W89447  15.786  15.312  13.453
17155W        W89448   7.853  20.130   1.909
17156W        W89449   3.741  36.863  11.551
17157W        W89450   4.740   4.256  10.136
17158W        W89451   1.931  24.536   3.207
17159W        W89452  10.729   9.835   1.841
17160W        W89453  41.967  14.719  12.429
17161W        W89454  29.123  36.993   1.844
17162W        W89455  41.883   6.709   3.820
17163W        W89456  15.326  11.321   2.385
17164W        W89457  44.275  32.431  13.948
17165W        W89458  21.747   1.942  14.404
17166W        W89459  41.417  17.588   5.663
17167W        W89460   2.948  42.471   1.342
17168W        W89461  18.230  25.471  14.377
17169W        W89462  16.139   3.245  14.330
17170W        W89463  44.815  40.512  11.371
17171W        W89464  26.141  32.625   3.632
17172W        W89465  44.784  28.575  13.062
17173W        W89466  14.331  27.579  14.468
17174W        W89467  15.665   4.721   4.273
17175W        W89468  10.718  13.628  13.454
17176W        W89469  25.502  27.042   2.784
17177W        W89470  11.310  42.013   1.334
17178W        W89471   0.981   9.276  12.439
17179W        W89472  15.226  29.633  14.869
17180W        W89473  34.018  11.258  11.912
17181W        W89474   2.471  18.607   5.204
17182W        W89475  13.289  22.621   1.368
17183W        W89476  44.931  13.808   0.476
17184W        W89477   9.199   4.441  11.417
17185W        W89478  25.489  16.123   2.750
17186W        W89479   6.727  38.554   4.303
17187W        W89480  36.472   0.479  12.093
17188W        W89481  28.561  29.006  12.927
17189W        W89482   7.772   0.805   3.671
17190W        W89483  24.066   5.725   4.252
17191W        W89484   8.718  10.876   0.853
17192W        W89485  32.951  34.878  13.043
17193W        W89486  33.616   3.264  10.056
17194W        W89487   9.735  28.931   4.754
17195W        W89488   3.456  16.745  11.985
17196W        W89489  18.119  30.918  10.606
17197W        W89490  28.090  15.654   2.226
17198W        W89491  30.958  16.791   3.265
17199W        W89492  42.516  28.058  10.613
17200W        W89493   3.421   7.694  13.016
17201W        W89494  36.988  43.301  12.572
17202W        W89495  21.612  44.472  13.486
17203W        W89496   5.216  25.650   4.219
17204W        W89497  24.200  20.529  10.927
17205W        W89498  44.786   1.242   4.649
17206W        W89499   9.356  16.143  12.999
17207W        W89500   9.169   4.251   1.739
17208W        W89501   5.749  41.343  11.861
17209W        W89502  31.523  11.243  14.008
17210W        W89503  28.620   5.385  12.901
17211W        W89504   7.361  16.686   2.312
17212W        W89505   8.755  16.141  10.556
17213W        W89506  38.562   0.964   1.708
17214W        W89507  18.118  39.862  11.033
17215W        W89508  28.554   8.796   2.215
17216W        W89509  30.618  40.898  14.397
17217W        W89510  31.565  36.391   1.260
17218W        W89511  34.573  15.689   2.381
17219W        W89512  33.905  22.158  11.929
17220W        W89513   1.840  44.439  13.923
17221W        W89514  30.045  33.584   0.931
17222W        W89515  19.580  14.746   3.167
17223W        W89516  22.688  42.841   3.847
17224W        W89517  41.416  32.948   4.643
17225W        W89518  29.569  16.183   1.770
17226W        W89519  26.648   1.874  10.512
17227W        W89520   0.986   1.420  10.462
17228W        W89521  42.360  30.975   3.748
17229W        W89522  18.109   6.874  12.401
17230W        W89523  24.556  34.463   4.682
17231W        W89524  21.754  27.992   0.953
17232W        W89525  40.382  35.976  10.546
17233W        W89526  36.568  31.951  13.489
17234W        W89527  34.053  39.016  14.782
17235W        W89528  14.723  33.464   4.632
17236W        W89529   4.442  32.960   4.139
17237W        W89530  27.599   9.857   2.836
17238W        W89531  25.050  20.188   4.214
17239W        W89532  29.630  34.566  11.092
17240W        W89533  25.705  19.748   1.368
17241W        W89534   4.336  41.444   0.299
17242W        W89535  25.967  38.350   0.472
17243W        W89536  18.128   0.797   2.883
17244W        W89537  42.818   1.907   4.208
17245W        W89538  42.309  38.511   0.451
17246W        W89539  17.565  10.671  13.813
17247W        W89540  10.215  34.918   4.680
17248W        W89541  25.499  16.257  11.117
17249W        W89542   5.703  23.089  12.383
17250W        W89543  32.632  17.701   3.810
17251W        W89544  43.864  14.228   4.676
17252W        W89545  35.574  21.093   3.199
17253W        W89546  24.009  15.101  14.011
17254W        W89547  12.254   0.333  13.468
17255W        W89548  31.403  10.634   2.188
17256W        W89549  14.191  23.095   1.266
17257W        W89550  35.482  20.582   0.742
17258W        W89551   4.339  15.309  11.925
17259W        W89552  24.681  22.153  12.947
17260W        W89553  13.679  36.414  13.418
17261W        W89554   5.344  36.499   0.768
17262W        W89555  39.472  25.068  12.498
17263W        W89556   7.814  24.188   0.281
17264W        W89557  13.808  11.322  10.522
17265W        W89558  39.843  44.358  11.930
17266W        W89559   7.723  14.760  11.069
17267W        W89560   1.757  41.384   0.766
17268W        W89561   7.671  20.726   2.247
17269W        W89562   3.834   1.834   0.300
17270W        W89563  24.606  11.371  14.803
17271W        W89564  30.016  27.024   2.252
17272W        W89565  42.440   9.168  13.976
17273W        W89566  26.203  41.394   2.811
17274W        W89567  29.619  23.013   4.203
17275W        W89568  23.241  13.240  12.544
17276W        W89569   3.797  18.592   0.473
17277W        W89570  24.625  31.907   4.325
17278W        W89571  16.705  29.511  14.378
17279W        W89572  39.938  17.760  10.892
17280W        W89573  12.253  16.219   2.372
17281W        W89574  24.985   7.880   3.711
17282W        W89575  42.396  24.119   2.222
17283W        W89576  20.649  26.180  12.835
17284W        W89577  43.274  16.211  14.794
17285W        W89578   0.395  37.831  12.499
17286W        W89579   2.818  38.951  11.988
17287W        W89580  31.485   1.450  11.373
17288W        W89581   9.353  19.646   4.637
17289W        W89582  14.809  17.084  14.019
17290W        W89583  44.376  13.798  12.407
17291W        W89584  39.362  33.003   0.741
17292W        W89585   2.333   6.729  13.982
17293W        W89586  17.195  18.722   3.368
17294W        W89587  30.599  43.914   3.387
17295W        W89588   4.926  34.926   3.351
17296W        W89589  34.598  44.883   1.414
17297W        W89590   2.893   8.831   4.174
17298W        W89591  29.482  15.110   1.423
17299W        W89592   9.711   3.836   4.283
17300W        W89593  15.087   2.814   5.175
17301W        W89594  23.667  32.392  12.462
17302W        W89595  28.438   4.392   4.687
17303W        W89596   2.325   7.701   0.919
17304W        W89597  17.097  17.158   0.803
17305W        W89598   5.812  38.389  14.938
17306W        W89599  10.746   0.398   0.805
17307W        W89600  25.523  36.479   4.657
17308W        W89601  26.491  24.980  11.500
17309W        W89602  40.446  21.591   1.791
17310W        W89603  37.988  31.610   1.432
17311W        W89604  24.546  25.970  11.388
17312W        W89605  40.894   0.362   5.768
17313W        W89606  29.662  34.093  11.479
17314W        W89607  14.670  26.073   0.304
17315W        W89608  24.701  21.128  10.982
17316W        W89609  44.973  34.430  14.914
17317W        W89610  40.352   6.857  11.866
17318W        W89611  28.501   8.244  11.089
17319W        W89612   5.762  13.249  10.462
17320W        W89613  31.108  24.643   4.703
17321W        W89614   7.370  24.019  14.867
17322W        W89615  20.252  28.088   5.267
17323W        W89616  31.923   7.391  14.864
17324W        W89617  22.671   0.371   2.876
17325W        W89618   2.729  44.839  14.479
17326W        W89619  28.971  21.544  13.386
17327W        W89620   2.384  38.014  11.582
17328W        W89621  40.926  38.496   1.723
17329W        W89622  29.630  42.509   4.271
17330W        W89623   0.864  23.731   4.236
17331W        W89624  41.338  44.274  13.395
17332W        W89625  38.526   9.837   1.868
17333W        W89626   2.322  39.047   3.383
17334W        W89627   1.358  33.391  14.837
17335W        W89628   3.278   7.811  12.017
17336W        W89629  39.971   8.214   2.384
17337W        W89630  21.678  17.782  12.580
17338W        W89631  39.908  37.893  10.924
17339W        W89632  20.711   8.759  12.380
17340W        W89633  43.872  34.915   4.226
17341W        W89634  21.605  43.873   4.338
17342W        W89635  33.416  20.174   1.444
17343W        W89636  10.793  41.889  10.523
17344W        W89637  11.717   5.239  13.999
17345W        W89638  42.799  30.106   2.401
17346W        W89639  24.143  32.529  12.499
17347W        W89640  11.291   5.696   3.629
17348W        W89641   7.675   5.251  12.522
17349W        W89642   3.937  11.299   1.386
17350W        W89643   4.898  23.676  14.010
17351W        W89644  17.741  39.054   2.204
17352W        W89645  10.686   3.843  11.486
17353W        W89646   1.745  43.510   1.766
17354W        W89647  14.665  14.590  10.467
17355W        W89648  26.696  13.204   5.182
17356W        W89649   9.779  41.348   4.641
17357W        W89650  22.063  13.613  14.352
17358W        W89651  41.517  22.662  14.023
17359W        W89652  37.861  14.764   4.161
17360W        W89653  23.563  43.787  14.376
17361W        W89654  16.716  10.280  12.052
17362W        W89655   6.219  33.544   0.394
17363W        W89656   6.190   2.422  12.034
17364W        W89657  37.942   3.949  11.495
17365W        W89658   3.879  19.736  11.600
17366W        W89659  17.782   5.215   3.779
17367W        W89660  23.627  19.051   2.238
17368W        W89661   1.947  13.816   2.896
17369W        W89662  16.643  24.557   2.778
17370W        W89663  35.883  17.749   3.154
17371W        W89664   0.394  34.953   1.823
17372W        W89665  22.247  38.380   4.598
17373W        W89666  39.519  25.048  10.482
17374W        W89667  27.102  24.012  14.961
17375W        W89668  41.985  25.502   1.776
17376W        W89669  18.250  14.697  11.893
17377W        W89670  34.428  14.120  14.283
17378W        W89671  25.019  29.541  11.944
17379W        W89672   0.981  17.701  14.012
17380W        W89673   6.899   0.885  13.959
17381W        W89674  27.002   1.801   4.223
17382W        W89675  24.540  34.525   3.773
17383W        W89676  26.124  36.948   1.813
17384W        W89677  19.228  13.748  14.021
17385W        W89678   0.816  37.432  14.778
17386W        W89679  33.004  24.509   2.829
17387W        W89680  44.313  22.592  13.386
17388W        W89681  38.372   9.391   3.383
17389W        W89682  22.599  15.677  11.031
17390W        W89683  31.524  36.097  11.129
17391W        W89684  36.565   9.720  11.517
17392W        W89685   4.726  29.168   3.180
17393W        W89686  14.246  41.851   0.745
17394W        W89687  36.528  35.887   2.293
17395W        W89688  20.735  44.350  12.880
17396W        W89689   8.749   1.914  13.801
17397W        W89690  30.003   5.411  14.279
17398W        W89691   8.770  23.001  14.950
17399W        W89692   2.775  36.429  11.947
17400W        W89693  23.521  39.899   1.838
17401W        W89694  24.648  36.375   0.802
17402W        W89695  42.883  27.167   2.178
17403W        W89696  28.042  18.072  14.891
17404W        W89697   9.733  33.095   2.867
17405W        W89698  40.038  16.227   3.363
17406W        W89699   5.879   0.830  10.890
17407W        W89700  40.981  11.213  13.368
17408W        W89701   1.886  29.126   4.753
17409W        W89702  26.578  24.669  13.390
17410W        W89703  26.084  18.282   3.664
17411W        W89704   6.779  31.031   4.340
17412W        W89705   4.377  13.833   0.289
17413W        W89706  36.406  33.090  12.832
17414W        W89707  43.382  31.985  11.997
17415W        W89708  14.735  12.719   0.464
17416W        W89709  22.236   9.775   3.318
17417W        W89710  34.525  36.551   0.853
17418W        W89711  23.065  16.221  10.424
17419W        W89712  31.982  31.600   4.206
17420W        W89713  28.451  34.986   4.274
17421W        W89714  18.687  32.007   2.839
17422W        W89715  43.856  34.480   0.382
17423W        W89716  33.105  22.234   0.835
17424W        W89717  31.584  34.052   4.738
17425W        W89718  19.146   1.962  14.355
17426W        W89719  29.095  15.600   3.695
17427W        W89720  11.198   5.805  10.481
17428W        W89721  40.888   1.890  10.572
17429W        W89722   8.270  28.587   3.372
17430W        W89723   3.357   0.376   0.271
17431W        W89724  27.587  39.459   3.798
17432W        W89725  35.873  22.607   4.609
17433W        W89726  39.369  24.223  10.899
17434W        W89727  36.893  28.156   2.800
17435W        W89728  35.392  21.259  12.512
17436W        W89729   7.409  43.863  12.051
17437W        W89730  25.525  17.664  11.926
17438W        W89731  19.704  22.662   3.689
17439W        W89732  21.017  10.227   1.281
17440W        W89733   0.817  27.639  13.544
17441W        W89734  11.753  44.898  10.977
17442W        W89735  30.652   7.858   2.407
17443W        W89736  44.482   0.261  11.525
17444W        W89737  22.571  41.808   0.466
17445W        W89738  29.089  44.938   1.412
17446W        W89739   1.356  25.176   2.670
17447W        W89740   1.392  24.605  12.832
17448W        W89741  13.785  26.155   4.753
17449W        W89742  21.522  38.383   4.341
17450W        W89743  11.779   2.355   0.849
17451W        W89744  19.719  43.362  10.981
17452W        W89745   0.887  29.523  11.382
17453W        W89746  39.558  28.646   3.738
17454W        W89747  12.728   9.835   1.694
17455W        W89748   2.273  13.147   2.713
17456W        W89749  43.768   8.209   4.211
17457W        W89750  25.589  44.797  14.989
17458W        W89751  43.452  14.303  11.597
17459W        W89752  34.463  37.914   1.276
17460W        W89753  12.274  13.330   2.221
17461W        W89754  37.569  11.161   0.911
17462W        W89755   8.232  35.886  11.896
17463W        W89756  15.615  42.017   0.427
17464W        W89757  35.399   0.761  11.124
17465W        W89758  34.461  42.990  14.398
17466W        W89759  10.377  18.716   2.306
17467W        W89760  44.854  10.691   4.781
17468W        W89761   6.883  25.676  11.074
17469W        W89762  41.302  16.201   3.835
17470W        W89763  26.067  29.583   1.845
17471W        W89764  11.832  35.080  10.497
17472W        W89765  11.264  17.234  11.403
17473W        W89766  30.624  22.613   4.155
17474W        W89767  17.205  11.785   3.825
17475W        W89768  44.757  35.425   2.264
17476W        W89769  35.967  42.792   4.289
17477W        W89770  39.549  22.010  12.875
17478W        W89771  43.876  21.616  12.023
17479W        W89772  38.992   2.797  14.920
17480W        W89773  16.618  21.529   0.790
17481W        W89774  29.627  18.140  13.315
17482W        W89775  24.667  38.910  10.917
17483W        W89776  44.803   9.770   3.846
17484W        W89777  35.946  26.533  11.379
17485W        W89778  22.547  18.249   4.267
17486W        W89779  36.027  31.015   2.842
17487W        W89780   1.840   4.418  14.942
17488W        W89781  14.739  33.547  11.482
17489W        W89782  27.635  28.161   3.681
17490W        W89783  40.528   0.437  10.519
17491W        W89784  38.912  32.970  14.810
17492W        W89785  13.630  35.557  13.427
17493W        W89786  41.927  37.921   4.272
17494W        W89787  31.135  15.137   1.261
17495W        W89788  42.007  21.543   1.356
17496W        W89789  12.303  12.269  12.973
17497W        W89790  28.982  21.573   4.302
17498W        W89791  21.708   0.384   0.343
17499W        W89792  42.996  44.863   3.658
17500W        W89793  20.071  40.373  13.940
17501W        W89794  27.562  22.115   1.788
17502W        W89795  14.273  39.003  14.908
17503W        W89796  25.173   7.310   0.795
17504W        W89797  38.831  42.849   5.163
17505W        W89798   0.887   1.360  12.364
17506W        W89799  19.700  33.532  12.852
17507W        W89800  25.982   4.873  14.846
17508W        W89801  22.183  44.342  14.321
17509W        W89802  29.135  23.216  10.586
17510W        W89803  27.534  14.827  11.434
17511W        W89804  39.014  44.826  12.982
17512W        W89805  22.555  34.991  14.800
17513W        W89806  18.645  33.065   1.846
17514W        W89807   6.744  11.644   1.895
17515W        W89808  10.803  36.859   0.816
17516W        W89809  29.481  16.271  11.444
17517W        W89810   2.311  37.373   3.323
17518W        W89811  44.346   5.875   4.190
17519W        W89812  27.087   8.658  10.500
17520W        W89813  32.025  13.186  12.527
17521W        W89814  33.626   8.273   1.701
17522W        W89815  25.517  44.363   0.331
17523W        W89816   1.751  14.679   2.231
17524W        W89817  44.485  25.526  13.536
17525W        W89818  23.225  19.569   3.644
17526W        W89819  28.944  14.284   2.818
17527W        W89820  40.519  25.059  12.416
17528W        W89821   3.826  34.905   2.892
17529W        W89822   1.793   7.377   0.299
17530W        W89823  44.999  28.992  13.796
17531W        W89824   4.260  35.403  12.972
17532W        W89825  42.469  36.850   2.766
17533W        W89826  18.690   5.385  14.495
17534W        W89827  25.501  18.642   2.903
17535W        W89828  20.571  39.929   4.196
17536W        W89829  42.431  31.482  14.857
17537W        W89830  30.493  22.535   0.422
17538W        W89831  23.222  40.463  11.128
17539W        W89832   2.750   8.727   3.818
17540W        W89833  17.084  30.129   2.256
17541W        W89834  27.143  39.979   0.754
17542W        W89835  18.095  39.894   4.761
17543W        W89836  25.110  35.420   1.241
17544W        W89837  34.067   2.964   2.269
17545W        W89838  10.259   7.341  11.382
17546W        W89839  39.469  40.014   0.931
17547W        W89840   6.337  12.717  10.926
17548W        W89841  12.623  14.687  14.373
17549W        W89842   9.385   8.788   0.342
17550W        W89843   0.861  23.707   2.264
17551W        W89844  32.954  29.586   1.347
17552W        W89845  18.060  27.045  13.908
17553W        W89846  17.083  23.671   0.316
17554W        W89847  11.631   9.316  14.515
17555W        W89848  31.436   3.417  11.589
17556W        W89849  44.982  33.009   1.805
17557W        W89850  22.080  13.207   3.800
17558W        W89851  21.575   8.283   3.673
17559W        W89852   2.411  22.062  13.051
17560W        W89853  36.985  33.015   4.644
17561W        W89854  22.030  20.225   4.646
17562W        W89855  12.716  23.673   4.626
17563W        W89856   4.344  16.702   0.339
17564W        W89857   6.223  13.773   4.249
17565W        W89858  43.955  35.424   0.399
17566W        W89859   2.296  25.037  13.911
17567W        W89860   5.276   1.821   0.824
17568W        W89861  28.007   6.760   1.741
17569W        W89862  10.673  20.527   3.816
17570W        W89863  29.592   3.839  13.831
17571W        W89864  25.115  23.137   3.751
17572W        W89865   6.719  26.125   4.262
17573W        W89866  34.901  30.413  13.482
17574W        W89867  34.004  10.284  13.359
17575W        W89868  12.344  43.418  10.532
17576W        W89869  13.108  36.512  13.018
17577W        W89870  13.612  32.952   3.799
17578W        W89871  21.641  27.994   1.901
17579W        W89872  42.924  17.205  12.876
17580W        W89873  37.068  10.672  14.339
17581W        W89874  43.845  38.423   2.338
17582W        W89875  22.591   5.346   0.382
17583W        W89876  17.232  40.448   3.240
17584W        W89877  25.485  11.861  13.907
17585W        W89878   8.277   3.925  13.435
17586W        W89879  29.562  21.743   0.436
17587W        W89880   1.239  37.059   2.732
17588W        W89881  18.747   3.364   9.999
17589W        W89882  38.478  25.497  11.591
17590W        W89883  38.047  43.349   1.413
17591W        W89884   8.882   2.409  12.901
17592W        W89885  21.679  15.614  10.594
17593W        W89886  18.613  43.450   4.242
17594W        W89887  36.380  29.590   4.768
17595W        W89888  23.083  21.113  11.920
17596W        W89889  11.246  40.425   1.435
17597W        W89890  22.165  32.937  13.539
17598W        W89891  30.497   8.773   2.397
17599W        W89892  18.750  41.017   3.324
17600W        W89893  17.115  13.118  14.477
17601W        W89894  40.430  19.561  11.999
17602W        W89895   9.335   1.740   4.273
17603W        W89896  40.898  44.490   2.349
17604W        W89897  12.351  13.820  14.320
17605W        W89898   4.797  21.055   2.732
17606W        W89899  34.603   2.769   2.822
17607W        W89900  44.783  33.927   2.183
17608W        W89901   4.872  24.514  14.401
17609W        W89902  11.162   2.434   0.375
17610W        W89903  12.119  26.549  10.050
17611W        W89904  24.229  37.521  14.928
17612W        W89905  39.395  44.011  12.831
17613W        W89906  13.627   8.188  13.893
17614W        W89907   7.835   7.369  10.620
17615W        W89908  11.680  39.419  14.383
17616W        W89909  18.113   8.706  12.997
17617W        W89910   0.420   6.249  14.028
17618W        W89911   3.447  21.250  11.057
17619W        W89912  17.293  14.827  13.841
17620W        W89913  37.565  33.072  14.421
17621W        W89914  28.056  23.726   1.834
17622W        W89915  19.120  35.577  11.590
17623W        W89916  17.623  13.783  13.056
17624W        W89917  43.411  17.152  11.564
17625W        W89918  44.996  34.411   3.645
17626W        W89919  31.019  29.010  13.430
17627W        W89920  21.097  37.555   5.124
17628W        W89921  20.029  26.123   0.338
17629W        W89922  12.162   3.287   0.770
17630W        W89923  21.018  21.111   0.304
17631W        W89924  19.131  15.297  12.493
17632W        W89925  41.365  15.091   4.276
17633W        W89926  26.647  43.300  12.939
17634W        W89927  17.703  22.041  14.852
17635W        W89928  32.570   0.898  12.571
17636W        W89929  14.176  32.050  13.337
17637W        W89930   6.197  20.628  11.990
17638W        W89931  41.864  25.634  12.449
17639W        W89932  38.902  40.500   1.903
17640W        W89933  15.152  40.468   2.697
17641W        W89934  34.583  15.242   4.274
17642W        W89935  42.522  10.877  14.381
17643W        W89936  21.213   2.776  13.980
17644W        W89937   5.426   4.286  11.985
17645W        W89938  43.334  35.372   4.167
17646W        W89939  15.140  34.905   4.639
17647W        W89940  26.692  19.196  12.537
17648W        W89941  28.632  34.034  12.398
17649W        W89942  32.001  21.544   1.373
17650W        W89943   1.946  14.670  14.359
17651W        W89944  31.107  17.591   4.317
17652W        W89945  10.658  26.052  12.486
17653W        W89946  23.695   4.717   0.872
17654W        W89947  22.124  30.164  13.842
17655W        W89948   1.344   5.904   1.256
17656W        W89949  28.655  29.595   1.753
17657W        W89950  37.838  42.501  10.989
17658W        W89951  32.526  10.745  10.904
17659W        W89952   5.698  39.385  13.339
17660W        W89953  20.724   7.211  13.357
17661W        W89954  31.569  34.389  14.967
17662W        W89955   4.795  29.104  11.121
17663W        W89956   7.376  34.985  14.801
17664W        W89957  32.908  41.417  11.606
17665W        W89958  21.043  14.832  11.040
17666W        W89959  16.109  18.593  13.004
17667W        W89960   6.299  37.376  13.844
17668W        W89961  32.059  41.302   1.298
17669W        W89962  21.261  12.259  14.513
17670W        W89963   1.444  37.943   4.704
17671W        W89964  23.715  25.974   3.252
17672W        W89965   6.389  24.691   1.809
17673W        W89966   6.747  37.406   1.788
17674W        W89967  16.201  20.056  14.959
17675W        W89968   3.770  38.555  11.603
17676W        W89969   4.319  20.202   1.246
17677W        W89970  28.137  25.065   4.663
17678W        W89971  29.586  32.499   3.808
17679W        W89972  36.552  37.835  14.809
17680W        W89973  36.495  21.113   3.315
17681W        W89974  43.319  15.746  10.922
17682W        W89975  10.182  34.558   1.445
17683W        W89976  39.405  38.885  14.009
17684W        W89977  29.439  10.662   1.218
17685W        W89978  11.129   1.429  10.940
17686W        W89979   2.401  27.679   0.277
17687W        W89980  43.320  37.516   4.319
17688W        W89981   4.331  31.574  12.979
17689W        W89982  44.433  10.658  11.067
17690W        W89983  24.680  32.952  11.551
17691W        W89984  28.652  24.151  13.425
17692W        W89985  28.602   2.415   0.741
17693W        W89986  33.025  30.154   4.308
17694W        W89987  32.011  22.600   0.924
17695W        W89988  39.980  39.404  14.447
17696W        W89989  19.619  30.035  11.502
17697W        W89990   4.230   6.771  11.870
17698W        W89991  27.445  27.499   4.178
17699W        W89992   8.810  41.924  12.918
17700W        W89993  38.396  40.998  14.918
17701W        W89994   2.810  38.406  10.607
17702W        W89995  23.225  11.820  10.464
17703W        W89996   1.765  35.022   1.795
17704W        W89997  33.027  34.996  11.385
17705W        W89998  42.497   1.748  12.515
17706W        W89999  20.216   0.430  12.871
17707W        W90000  16.808  21.213   2.799
17708W        W90001  38.961   6.302   5.281
17709W        W90002   5.908  13.174  12.840
17710W        W90003   4.216   8.849   1.297
17711W        W90004   5.690  18.105  14.412
17712W        W90005  25.198  40.408   3.858
17713W        W90006  14.831  11.851  11.473
17714W        W90007  26.701  37.933   3.712
17715W        W90008   3.890   6.207   9.927
17716W        W90009  40.959  29.597  12.988
17717W        W90010  25.480   5.716  13.328
17718W        W90011  32.967  20.640  13.894
17719W        W90012  28.612  35.480  12.497
17720W        W90013  15.719   8.376  13.396
17721W        W90014  36.991  12.178   2.274
17722W        W90015  40.517   3.310   3.705
17723W        W90016   8.281   6.407   2.242
17724W        W90017  17.118  43.478   4.738
17725W        W90018  31.990  17.118   0.469
17726W        W90019  10.188  34.054  13.436
17727W        W90020   0.391  14.116  10.463
17728W        W90021  12.147  11.729   4.711
17729W        W90022  16.604   6.223  13.517
17730W        W90023  18.558  35.585   0.468
17731W        W90024  26.962  19.285  14.935
17732W        W90025  16.779  43.270   2.779
17733W        W90026  18.207  28.016   2.779
17734W        W90027  37.363  20.542  12.535
17735W        W90028  32.546   5.338   0.892
17736W        W90029  24.699  41.316  10.889
17737W        W90030  32.118  40.391  13.993
17738W        W90031  15.814  18.276  14.312
17739W        W90032  36.454  13.834   3.251
17740W        W90033  40.902  35.968   1.731
17741W        W90034  31.468  35.521  12.527
17742W        W90035  41.495  36.936  12.006
17743W        W90036  32.498  15.247   2.268
17744W        W90037  35.976  24.220  13.414
17745W        W90038  20.087  19.650  14.915
17746W        W90039  41.787  24.512  10.463
17747W        W90040  12.799  31.465  10.940
17748W        W90041   1.267  44.796  14.290
17749W        W90042  41.371  35.966   4.180
17750W        W90043  15.247  44.437   1.829
17751W        W90044  30.010   6.765  13.859
17752W        W90045  11.651  27.029   0.481
17753W        W90046  39.460  28.942  11.426
17754W        W90047  25.138   7.745  12.088
17755W        W90048  12.739  25.481   1.260
17756W        W90049  38.953  37.014   1.700
17757W        W90050  23.697  44.756  10.926
17758W        W90051  41.826  17.766  10.465
17759W        W90052  16.236  13.740   1.372
17760W        W90053   0.400  21.162  13.986
17761W        W90054  30.128  14.305   4.323
17762W        W90055  16.152   1.445   3.659
17763W        W90056  12.195  14.275  10.931
17764W        W90057  25.646  33.490  14.957
17765W        W90058  12.180   1.975  14.022
17766W        W90059  40.346  32.930   3.192
17767W        W90060  44.432   6.908   3.275
17768W        W90061  37.453  35.919  11.034
17769W        W90062  11.762  15.168  14.420
17770W        W90063  18.239  10.196  14.501
17771W        W90064  10.764  34.446   1.909
17772W        W90065  11.236  39.015   4.255
17773W        W90066  22.506   3.338  14.374
17774W        W90067  38.979   0.758  12.342
17775W        W90068   2.442   9.650   0.316
17776W        W90069  36.962  37.367  12.389
17777W        W90070  13.198  44.974  14.373
17778W        W90071  36.007  40.356  14.368
17779W        W90072   1.350  25.625   4.636
17780W        W90073  17.556  25.142   5.208
17781W        W90074  40.473  20.577  12.009
17782W        W90075  13.238  17.083   3.639
17783W        W90076  42.362  37.459   3.241
17784W        W90077  43.962  11.187   4.144
17785W        W90078   1.420  31.432   0.315
17786W        W90079  29.617  23.508   2.246
17787W        W90080   0.796  38.027   1.278
17788W        W90081  40.858  28.118  11.379
17789W        W90082  19.646  43.358  11.506
17790W        W90083  29.611   1.302  11.488
17791W        W90084  28.940  38.970  14.926
17792W        W90085   3.922  40.326   3.831
17793W        W90086  13.190  33.108   3.309
17794W        W90087  32.952  41.896   4.227
17795W        W90088  41.027  23.580   2.703
17796W        W90089  41.395  37.017  13.424
17797W        W90090  11.334  16.704   0.882
17798W        W90091  42.463  20.670   3.651
17799W        W90092  12.635  20.218  12.392
17800W        W90093  40.515  10.825   4.352
17801W        W90094  23.495  41.000  14.967
17802W        W90095  21.198  28.109   4.286
17803W        W90096  11.228  14.679   4.268
17804W        W90097  30.067  15.644   0.465
17805W        W90098   5.260  31.462   4.269
17806W        W90099  11.341  14.314  11.872
17807W        W90100  17.188  30.969  11.996
17808W        W90101  11.696  22.097   0.910
17809W        W90102  41.909  25.151   0.958
17810W        W90103  30.618  29.103  10.992
17811W        W90104  31.995  34.116  13.337
17812W        W90105  39.517  25.028   0.278
17813W        W90106  10.817  26.673  10.970
17814W        W90107  42.525  15.751  12.484
17815W        W90108  26.691  12.275  12.393
17816W        W90109   3.240  40.359  12.081
17817W        W90110  25.038  13.811   3.241
17818W        W90111  26.996   2.303   3.285
17819W        W90112  34.600  17.137  14.279
17820W        W90113   3.242   0.919  13.998
17821W        W90114  36.860  35.879  11.098
17822W        W90115  30.457  22.128   0.805
17823W        W90116   0.250  41.006  10.515
17824W        W90117  14.733  22.613  14.439
17825W        W90118  22.100   5.326  11.964
17826W        W90119  34.424  11.145   4.283
17827W        W90120  26.699  20.718   0.395
17828W        W90121  32.055  26.204   3.653
17829W        W90122  24.553  41.814   0.785
17830W        W90123  31.534  39.062   2.793
17831W        W90124  38.049  42.878  10.514
17832W        W90125   9.301  34.392   2.363
17833W        W90126  29.983   2.809   0.817
17834W        W90127  23.514   9.196   4.161
17835W        W90128  37.528  19.091  14.305
17836W        W90129  29.643   4.762  10.488
17837W        W90130  33.916   8.304   0.777
17838W        W90131  15.123  33.886  12.889
17839W        W90132  23.039   2.805  11.123
17840W        W90133  37.516  20.672  13.800
17841W        W90134  24.573  36.063   0.765
17842W        W90135  23.580  34.482   3.686
17843W        W90136  28.181  30.637   1.363
17844W        W90137  38.927  23.127   4.612
17845W        W90138  23.017   4.801   0.752
17846W        W90139  40.851  30.050  13.961
17847W        W90140  12.335   7.840   1.916
17848W        W90141  29.943   4.838   2.874
17849W        W90142  12.770  17.248   2.199
17850W        W90143  34.971   0.333   4.603
17851W        W90144  18.753  21.042  10.999
17852W        W90145  24.169  26.978  12.441
17853W        W90146  16.624  33.079   4.723
17854W        W90147  44.874  20.116  14.407
17855W        W90148  14.822  40.342   4.179
17856W        W90149  19.056  42.858  12.405
17857W        W90150  27.087  34.601   1.916
17858W        W90151  38.913  17.203  14.314
17859W        W90152  12.631  33.093  12.560
17860W        W90153  34.554   3.795   4.284
17861W        W90154   6.395   3.247  14.891
17862W        W90155  12.738  35.014  13.055
17863W        W90156  35.912   9.223  11.113
17864W        W90157  21.622  13.128  10.901
17865W        W90158   5.696  20.207  14.779
17866W        W90159  28.474   3.915   1.248
17867W        W90160  20.078  33.124   2.334
17868W        W90161  42.375  21.242  13.341
17869W        W90162  43.841  25.081  11.094
17870W        W90163  16.671  27.072  13.546
17871W        W90164  31.017  26.465  13.518
17872W        W90165  40.362   5.353   0.781
17873W        W90166  27.020  22.585  10.998
17874W        W90167   1.933  33.128  11.591
17875W        W90168  28.010  12.626   3.239
17876W        W90169  20.631  33.989  13.471
17877W        W90170  40.824  44.361   0.841
17878W        W90171  29.507  36.981  13.064
17879W        W90172  12.277  33.911   4.775
17880W        W90173  13.171   8.398  13.397
17881W        W90174  16.248   7.891  13.839
17882W        W90175  11.625  31.900  11.535
17883W        W90176  23.692  23.197  13.513
17884W        W90177  12.734  33.402  10.536
17885W        W90178  38.854  22.222   1.919
17886W        W90179  23.024  16.127   3.738
17887W        W90180  21.216  16.186   0.472
17888W        W90181  39.505  14.339   2.831
17889W        W90182  30.994  23.231  10.429
17890W        W90183  25.974  14.180   0.411
17891W        W90184  22.544  36.904  10.474
17892W        W90185  13.288  37.374  12.363
17893W        W90186  30.583  25.095   2.341
17894W        W90187  42.969   9.850  14.397
17895W        W90188   8.724  32.097  12.389
17896W        W90189  41.438  11.341  11.373
17897W        W90190  29.966  32.952   2.411
17898W        W90191  11.808   5.389  11.445
17899W        W90192  22.683   3.912  10.404
17900W        W90193  29.084   2.902   4.227
17901W        W90194   7.886  30.429  12.994
17902W        W90195  15.699  29.094  12.455
17903W        W90196  13.134  36.948   2.896
17904W        W90197  33.617  16.198  13.402
17905W        W90198  42.876   7.264   4.803
17906W        W90199   4.906  11.622  13.325
17907W        W90200  22.647  36.892  14.860
17908W        W90201   2.339  30.019  13.342
17909W        W90202  44.278   9.381   0.735
17910W        W90203  12.265  27.040  14.463
17911W        W90204  32.416  44.448   0.813
17912W        W90205  19.703   5.828   0.247
17913W        W90206  30.064  31.959   3.149
17914W        W90207   8.341  34.450   3.248
17915W        W90208   9.659  42.319  10.528
17916W        W90209  14.201  34.519  11.997
17917W        W90210   5.918  35.932  11.007
17918W        W90211  37.910  16.676   3.786
17919W        W90212  31.565  13.177   0.405
17920W        W90213   9.300  22.590  14.286
17921W        W90214  36.515  13.224   2.361
17922W        W90215  24.667  22.050   0.264
17923W        W90216   1.893  27.104   0.320
17924W        W90217  27.546  10.168   1.346
17925W        W90218  15.098  26.134  13.872
17926W        W90219  42.929   6.856   3.205
17927W        W90220   8.768  15.631   1.732
17928W        W90221   0.765  18.612   0.740
17929W        W90222  38.041  27.477   1.710
17930W        W90223  34.039  12.255   3.839
17931W        W90224  36.987  36.582   0.932
17932W        W90225  26.146  31.059   2.784
17933W        W90226   8.260  20.169  10.424
17934W        W90227  39.923  41.366   3.245
17935W        W90228  41.502  27.468  11.459
17936W        W90229  44.954  32.061   0.286
17937W        W90230  42.376  42.436   4.227
17938W        W90231  40.832  18.239   4.664
17939W        W90232  24.496  30.120  11.440
17940W        W90233  10.214  25.550   5.106
17941W        W90234  21.517  34.023  13.935
17942W        W90235  24.167   4.792   0.878
17943W        W90236  23.515  23.530  13.376
17944W        W90237  34.867  17.062  14.380
17945W        W90238   4.374  18.676  14.779
17946W        W90239  32.548  10.673   2.800
17947W        W90240  44.457  25.516   4.147
17948W        W90241  12.273  42.921   0.925
17949W        W90242  41.802  16.086  11.494
17950W        W90243  31.093  23.145  13.811
17951W        W90244  12.631  14.733  10.639
17952W        W90245  31.614  15.771   1.324
17953W        W90246  29.570  23.584   5.706
17954W        W90247  10.384  35.492  11.081
17955W        W90248  20.538  14.314  13.337
17956W        W90249   4.720  20.086  11.091
17957W        W90250   0.456   6.204  11.541
17958W        W90251  34.027  36.531  12.457
17959W        W90252  26.141  30.622  14.007
17960W        W90253  33.580  25.069  13.799
17961W        W90254  25.549   8.273  11.604
17962W        W90255  44.913   6.713  12.516
17963W        W90256  32.104  34.382  10.540
17964W        W90257  25.639  15.168  10.506
17965W        W90258  14.177  40.976   0.846
17966W        W90259   0.388  37.948  13.035
17967W        W90260  34.033  38.845   3.372
17968W        W90261  23.528  26.167   1.262
17969W        W90262  43.481   2.744   2.190
17970W        W90263  31.001  19.273  14.808
17971W        W90264  17.701  27.952   9.979
17972W        W90265   9.371   5.800   2.406
17973W        W90266  12.296   6.705  13.978
17974W        W90267   6.839  44.322  13.964
17975W        W90268   3.755  17.220   0.807
17976W        W90269  44.953  41.039   2.804
17977W        W90270   8.301  18.658  10.937
17978W        W90271  34.553  40.472   1.218
17979W        W90272  19.681  40.406   0.330
17980W        W90273   2.906  16.245   4.684
17981W        W90274  22.192   0.898   4.256
17982W        W90275   6.835  43.968  14.368
17983W        W90276   1.896   6.693  12.496
17984W        W90277  34.471  16.630   3.689
17985W        W90278  14.615  31.536   3.693
17986W        W90279  44.279  19.050  11.090
17987W        W90280  29.107   7.756   4.680
17988W        W90281  34.009  32.562  12.869
17989W        W90282  19.712  30.048  14.023
17990W        W90283  14.285  28.648   4.694
17991W        W90284  37.490   8.347   3.281
17992W        W90285  29.981  29.006  13.347
17993W        W90286   1.828  19.119   4.652
17994W        W90287  12.733   8.730   1.820
17995W        W90288  39.460  27.094  14.949
17996W        W90289  44.460  44.300   1.754
17997W        W90290  30.151  25.704   1.311
17998W        W90291  33.989  15.130   0.373
17999W        W90292  36.968  21.519   3.283
18000W        W90293  18.051  42.442   2.184
18001W        W90294  19.163   7.218  13.518
18002W        W90295   6.706  26.520   3.652
18003W        W90296   0.849  11.331   3.834
18004W        W90297  36.406  13.824   0.252
18005W        W90298   7.824  35.081   4.217
18006W        W90299   4.439   1.426  11.426
18007W        W90300  24.515   9.324  14.890
18008W        W90301  34.455   3.406   4.336
18009W        W90302  22.511  35.428   1.702
18010W        W90303   2.874  20.570  10.562
18011W        W90304  28.106  29.571   1.747
18012W        W90305  18.208  10.755   4.176
18013W        W90306  34.549  20.686   2.353
18014W        W90307  39.553  32.953   1.863
18015W        W90308  13.717   0.856   4.834
18016W        W90309   7.738   7.245   0.817
18017W        W90310  10.215  24.708   0.895
18018W        W90311  42.410  41.425  14.783
18019W        W90312  40.935  18.051   3.154
18020W        W90313  38.065  13.113  11.479
18021W        W90314  36.888   5.864  14.303
18022W        W90315  12.667  16.142  10.594
18023W        W90316  25.613   7.367   2.893
18024W        W90317   6.391  43.952  10.538
18025W        W90318  13.130  31.418  12.399
18026W        W90319  15.581   4.216   1.694
18027W        W90320  14.775  24.625  10.412
18028W        W90321   8.371  38.072  12.480
18029W        W90322  33.108  12.249   1.309
18030W        W90323  35.940   4.446  13.874
18031W        W90324   5.217  26.069   0.415
18032W        W90325  19.222   4.444  12.515
18033W        W90326  25.174  15.132   4.126
18034W        W90327  25.709  11.695   9.970
18035W        W90328  39.386   6.402  11.490
18036W        W90329  10.277  21.033  14.510
18037W        W90330  28.534   3.395   2.902
18038W        W90331  16.611  43.494  11.018
18039W        W90332  38.908  25.484  14.927
18040W        W90333  19.241  34.030   3.365
18041W        W90334  42.869  23.110  14.966
18042W        W90335  12.164   2.900   3.152
18043W        W90336  10.716   8.815  14.283
18044W        W90337  41.924  27.666   3.740
18045W        W90338  14.248  14.241  11.971
18046W        W90339  31.496  41.538   0.372
18047W        W90340  31.097   2.362   2.252
18048W        W90341   3.774  42.783  13.929
18049W        W90342   8.870  14.304  11.903
18050W        W90343  41.321  37.050   4.206
18051W        W90344  28.438  25.552   2.241
18052W        W90345  27.053   3.918   0.369
18053W        W90346  20.624   4.374  14.864
18054W        W90347   7.718   1.833   3.652
18055W        W90348   3.403  41.790  12.514
18056W        W90349  25.208  22.689  14.949
18057W        W90350  29.492   7.837   5.301
18058W        W90351  21.190  40.892  10.537
18059W        W90352  44.267  10.271  13.952
18060W        W90353  31.907  33.564  11.126
18061W        W90354   6.356  16.309  11.041
18062W        W90355  17.262   9.840   2.706
18063W        W90356  24.711  30.987   3.717
18064W        W90357   8.729   5.230   0.258
18065W        W90358  38.975  41.038  11.058
18066W        W90359  43.857  33.976  13.894
18067W        W90360   7.856  25.163  11.104
18068W        W90361  17.266  18.586  13.432
18069W        W90362  11.320   3.319   5.088
18070W        W90363  38.934   9.291   1.886
18071W        W90364   2.236   8.857  10.133
18072W        W90365   5.703  29.002  12.520
18073W        W90366   3.334   6.705  12.349
18074W        W90367  41.366  31.135  11.902
18075W        W90368  39.426  43.928   4.284
18076W        W90369  11.677  30.432  13.025
18077W        W90370  24.030  42.310  13.353
18078W        W90371  34.110  36.458   0.856
18079W        W90372   5.888  20.042  13.496
18080W        W90373   9.739  32.522   1.935
18081W        W90374  43.965  40.870   0.942
18082W        W90375  35.505  25.167   4.139
18083W        W90376  33.908   0.783  13.544
18084W        W90377  35.915  28.956  12.038
18085W        W90378  22.242  24.210  11.551
18086W        W90379  31.527   9.737   1.435
18087W        W90380   6.423  28.669   2.262
18088W        W90381  12.141  20.652   0.262
18089W        W90382  33.462  43.328   0.728
18090W        W90383  27.484  44.904   4.794
18091W        W90384   4.906   2.354   4.833
18092W        W90385  21.558  18.635  10.424
18093W        W90386  31.082  13.268  11.060
18094W        W90387  11.686  24.165  14.791
18095W        W90388  43.358  23.137  13.996
18096W        W90389  31.412  15.607  14.991
18097W        W90390   0.293  28.148  13.049
18098W        W90391   5.227  44.302  12.057
18099W        W90392  29.460   4.439   4.694
18100W        W90393   4.244  37.999   4.333
18101W        W90394  11.357  13.131   4.150
18102W        W90395  21.237  24.187  14.286
18103W        W90396   8.272  17.790   3.776
18104W        W90397  28.166  26.694  11.438
18105W        W90398   5.865  27.196   2.767
18106W        W90399   4.786   4.437   2.662
18107W        W90400  29.539  22.529   5.168
18108W        W90401  29.567  34.409   3.303
18109W        W90402  28.151  41.858   4.325
18110W        W90403  14.735  42.336  12.010
18111W        W90404  32.014   4.256  11.032
18112W        W90405  21.083   0.784  13.971
18113W        W90406  11.285  36.479  10.896
18114W        W90407  39.053  42.781   4.822
18115W        W90408  15.798  14.215  11.529
18116W        W90409  15.136  25.024   3.386
18117W        W90410  44.363   2.732  13.913
18118W        W90411  33.007   0.433  13.466
18119W        W90412  22.048   8.786  10.595
18120W        W90413  18.195  20.524  11.008
18121W        W90414  36.517   0.921  12.557
18122W        W90415  28.615  11.813  11.486
18123W        W90416   7.785  10.847   0.753
18124W        W90417  41.354  12.194  11.007
18125W        W90418  34.893  44.375   3.632
18126W        W90419   5.312  15.673   2.732
18127W        W90420  10.794  24.008  10.498
18128W        W90421  22.618  19.723   1.724
18129W        W90422   2.426  29.114  12.457
18130W        W90423   6.400  10.213   3.741
18131W        W90424  10.832   2.928   4.782
18132W        W90425   0.262  40.343   2.782
18133W        W90426  24.179  32.115   3.760
18134W        W90427  19.185  16.738   0.845
18135W        W90428  27.597  30.430  10.604
18136W        W90429  23.648  28.143  10.891
18137W        W90430   1.441  36.939  13.061
18138W        W90431  35.419  27.653   0.418
18139W        W90432  37.955   5.731   0.790
18140W        W90433  12.752  32.954   4.298
18141W        W90434  34.086   7.791   3.255
18142W        W90435  11.311  16.627   2.418
18143W        W90436  12.831  23.514  13.974
18144W        W90437  20.735   6.677   3.665
18145W        W90438  37.491  15.653  14.999
18146W        W90439   9.350  13.166   0.397
18147W        W90440  43.867  19.764  12.439
18148W        W90441   2.435  17.228   4.625
18149W        W90442  11.141  16.702  11.508
18150W        W90443  10.317  19.224   3.261
18151W        W90444  26.515  23.053  13.957
18152W        W90445  36.897  15.327  10.534
18153W        W90446  17.561  23.556  14.393
18154W        W90447   2.261  13.152  12.571
18155W        W90448  18.594  25.118   2.295
18156W        W90449  24.190  35.974   3.315
18157W        W90450  39.545   3.257  12.360
18158W        W90451  28.141  22.133   5.294
18159W        W90452  18.287  26.021  13.476
18160W        W90453  38.538  14.278   3.755
18161W        W90454  13.676  20.138   3.169
18162W        W90455  26.484  26.052  14.901
18163W        W90456  23.644  14.174  11.601
18164W        W90457  36.008  27.607   3.785
18165W        W90458  38.990  36.052  14.907
18166W        W90459  18.134  16.080  13.819
18167W        W90460  41.805   0.353  12.370
18168W        W90461  36.376  21.574  11.413
18169W        W90462  21.698  35.905  14.341
18170W        W90463   3.756  13.321   4.248
18171W        W90464  26.697  24.056  11.884
18172W        W90465  37.974   5.267  14.969
18173W        W90466   2.257  13.136   4.742
18174W        W90467  24.126  26.098  13.360
18175W        W90468  28.995   2.826  14.770
18176W        W90469   2.773   1.308  11.564
18177W        W90470  15.219  38.058  12.092
18178W        W90471  40.864   0.439  13.430
18179W        W90472  28.648  41.469   4.140
18180W        W90473  27.461   0.277  11.391
18181W        W90474  40.900  35.583   4.129
18182W        W90475  13.162  13.829   4.746
18183W        W90476  14.174  33.584   1.278
18184W        W90477  33.916  17.672  12.954
18185W        W90478  15.238  17.217  14.893
18186W        W90479  14.305  16.601   1.909
18187W        W90480  22.098  34.498  14.458
18188W        W90481  15.234  22.133  11.097
18189W        W90482  16.609  32.969   4.153
18190W        W90483  15.805  27.049  14.484
18191W        W90484  19.255  30.413  11.538
18192W        W90485  14.115  25.031   0.766
18193W        W90486  41.941  29.936   4.266
18194W        W90487  16.669  18.137  14.876
18195W        W90488  18.777  35.006  10.414
18196W        W90489   8.866  24.640  13.851
18197W        W90490  44.466   7.395  13.884
18198W        W90491  27.970  25.474   3.193
18199W        W90492  33.524  21.168  13.981
18200W        W90493  19.540  30.636  10.617
18201W        W90494  26.639  16.620   3.780
18202W        W90495   4.900  16.663  11.602
18203W        W90496  33.064  26.583  10.412
18204W        W90497  43.428  27.113   4.610
18205W        W90498  22.651  39.865  11.374
18206W        W90499  10.144  21.038   4.780
18207W        W90500  37.079  42.437  13.955
18208W        W90501  36.017  18.235   4.222
18209W        W90502  19.610   3.853   1.417
18210W        W90503  35.395  10.719  14.378
18211W        W90504  28.572   4.855  13.886
18212W        W90505  11.251   4.390  10.416
18213W        W90506  18.183  17.574   4.244
18214W        W90507  13.600  16.289  10.936
18215W        W90508   9.262  22.998  12.549
18216W        W90509  35.878  28.047   0.265
18217W        W90510  39.833  13.686   1.418
18218W        W90511   0.433  21.649   1.252
18219W        W90512  44.331   4.941   1.835
18220W        W90513  29.536  24.717   4.601
18221W        W90514  10.766  10.197   4.821
18222W        W90515  41.504  43.270  11.042
18223W        W90516  30.414   0.401   4.701
18224W        W90517  11.138   9.649  14.929
18225W        W90518  31.142  18.086   3.192
18226W        W90519  32.067   2.288  12.994
18227W        W90520  30.588  29.434   3.804
18228W        W90521   3.379  32.001   1.360
18229W        W90522  35.603  33.898   2.285
18230W        W90523   7.207  43.308   0.439
18231W        W90524  33.126  31.023   2.304
18232W        W90525  27.185   8.754  10.936
18233W        W90526  35.949  32.905   3.840
18234W        W90527  34.023  36.398   3.765
18235W        W90528  12.748  22.152   0.757
18236W        W90529  35.397  18.758  12.427
18237W        W90530  19.111  19.739  10.466
18238W        W90531  12.697  38.506   2.366
18239W        W90532  41.510  35.865   0.482
18240W        W90533  21.178   1.888  12.865
18241W        W90534   2.412   3.883  12.494
18242W        W90535   9.787  27.572   3.758
18243W        W90536  35.416   4.699   3.363
18244W        W90537   8.654  14.787   2.330
18245W        W90538  33.422  28.610  13.376
18246W        W90539  43.890  24.044   3.236
18247W        W90540  42.851  38.342  10.942
18248W        W90541  17.591  38.436  12.916
18249W        W90542  29.605  34.066  14.359
18250W        W90543  42.891  24.164   3.772
18251W        W90544  25.109   1.440   2.210
18252W        W90545  19.711  26.515  11.503
18253W        W90546  14.272  14.285  13.481
18254W        W90547  43.445  28.040   1.733
18255W        W90548  35.473  13.632   3.810
18256W        W90549  32.559  13.705  10.615
18257W        W90550   9.676  35.555   4.251
18258W        W90551   4.731  22.563   4.617
18259W        W90552  11.831  35.001  13.338
18260W        W90553  13.814   6.347   3.821
18261W        W90554  28.473   4.893  12.350
18262W        W90555  25.562  34.119  13.036
18263W        W90556   6.194  26.101   4.266
18264W        W90557   8.170  36.489   9.459
18265W        W90558  18.097  27.577  11.959
18266W        W90559  10.257  19.174   0.343
18267W        W90560  25.606  22.532  10.445
18268W        W90561  35.087   1.770   1.362
18269W        W90562  38.925  32.919  13.817
18270W        W90563  10.222  42.989   3.219
18271W        W90564  23.082  19.581  12.462
18272W        W90565  22.520  17.147   3.200
18273W        W90566  12.340  37.419  11.457
18274W        W90567  29.657   0.928  10.574
18275W        W90568   9.784  27.179   0.420
18276W        W90569   1.939   1.785  12.477
18277W        W90570  26.165  31.068   0.726
18278W        W90571  37.474  24.607   1.306
18279W        W90572  20.188  30.541   2.376
18280W        W90573  31.986  26.650   0.387
18281W        W90574   7.188  44.392  12.912
18282W        W90575  32.617   6.692  12.501
18283W        W90576  17.581  17.675  10.490
18284W        W90577  14.779  11.703   3.845
18285W        W90578  26.692  17.261  13.957
18286W        W90579  38.536  25.643  12.858
18287W        W90580  25.488  16.669   3.228
18288W        W90581  32.590  21.584   2.309
18289W        W90582  38.984  16.196   3.743
18290W        W90583  22.014  36.390  13.799
18291W        W90584  10.798  27.678  12.051
18292W        W90585  38.399  21.136  13.832
18293W        W90586   9.392   1.870   4.805
18294W        W90587  35.092  34.535   3.369
18295W        W90588  21.706  17.221  14.958
18296W        W90589  29.958   5.763   4.614
18297W        W90590  41.036  22.688  14.956
18298W        W90591  28.553  17.092   0.861
18299W        W90592  30.452  22.098   2.224
18300W        W90593   1.246  24.067   2.323
18301W        W90594  21.109  31.971   5.319
18302W        W90595  36.977  25.704  11.611
18303W        W90596  23.215   6.339   1.708
18304W        W90597  18.192  37.891  12.470
18305W        W90598   0.943  17.272   1.804
18306W        W90599  23.023  15.755   4.800
18307W        W90600  22.097   4.272   0.844
18308W        W90601  36.354   6.887   3.785
18309W        W90602  23.607  22.058  12.864
18310W        W90603  35.048   5.389   2.240
18311W        W90604  32.981  18.295  11.512
18312W        W90605   3.792   6.366  11.371
18313W        W90606  27.112  44.477  12.960
18314W        W90607   7.254  29.584  11.497
18315W        W90608  41.898  34.997  10.926
18316W        W90609  24.053  22.586  13.029
18317W        W90610  42.878  17.104   3.850
18318W        W90611  17.558  10.678  14.893
18319W        W90612  22.073  29.960  12.055
18320W        W90613  10.836  16.621  11.474
18321W        W90614   6.296  35.883  14.388
18322W        W90615  22.746  14.229  14.022
18323W        W90616  33.482   4.377  14.294
18324W        W90617  24.702   7.696   2.839
18325W        W90618  39.883  35.916   2.849
18326W        W90619  36.482  39.413   4.711
18327W        W90620  37.528  16.625  10.088
18328W        W90621   1.295   6.829   3.232
18329W        W90622   0.478  23.551  12.906
18330W        W90623  18.111  34.013   2.365
18331W        W90624  13.268  40.877   0.256
18332W        W90625   1.415   6.384   2.217
18333W        W90626  16.600  21.255   4.784
18334W        W90627   5.407  34.447   1.373
18335W        W90628   0.963  11.332   0.864
18336W        W90629  16.698  11.232  12.502
18337W        W90630  23.162  18.057  11.875
18338W        W90631  20.760  30.455  14.385
18339W        W90632  19.054  44.985  11.881
18340W        W90633   6.202  44.340   4.343
18341W        W90634  34.982   4.728  14.347
18342W        W90635  42.823  18.561   4.206
18343W        W90636  25.198   4.267   4.747
18344W        W90637  14.128  11.284  10.571
18345W        W90638  24.483  11.764  14.993
18346W        W90639  39.997  36.403   3.374
18347W        W90640  30.525  14.217  13.439
18348W        W90641   7.727   2.258   4.668
18349W        W90642  18.068  28.018  10.413
18350W        W90643  19.682   4.808  11.496
18351W        W90644  35.464  27.472   4.661
18352W        W90645  10.210  34.439   9.954
18353W        W90646  41.855  10.819  11.008
18354W        W90647   5.841  10.738   4.306
18355W        W90648   1.390  23.638  14.995
18356W        W90649  21.082  30.161  13.843
18357W        W90650  27.657   2.287   1.402
18358W        W90651  23.490  42.870   1.252
18359W        W90652  37.976  24.034   0.393
18360W        W90653  33.565   4.271  11.114
18361W        W90654  13.716   3.732  12.029
18362W        W90655  12.342  21.658   1.762
18363W        W90656  10.286  19.260  10.988
18364W        W90657  21.737  21.647  10.431
18365W        W90658  10.216   4.417   0.272
18366W        W90659  29.136  42.846  13.346
18367W        W90660  23.995   0.894   3.280
18368W        W90661  17.762  24.993  14.005
18369W        W90662   8.781  32.069   1.721
18370W        W90663   5.908  12.735  13.486
18371W        W90664  37.426  11.823   5.097
18372W        W90665  11.129  20.528   1.739
18373W        W90666  30.990  42.895   2.317
18374W        W90667  15.244  28.455  14.395
18375W        W90668  28.086  35.004   1.239
18376W        W90669   5.756  22.202   4.332
18377W        W90670  21.213   9.720  11.084
18378W        W90671  43.317   7.409  12.993
18379W        W90672  11.172  24.502  12.845
18380W        W90673  37.900  30.574  10.935
18381W        W90674  16.234  42.847  13.046
18382W        W90675  23.614  32.885   3.328
18383W        W90676  44.318  19.642   1.299
18384W        W90677  14.253  24.608   2.251
18385W        W90678  41.942   7.861   1.412
18386W        W90679  29.148  29.114  11.090
18387W        W90680  40.522  12.360   3.344
18388W        W90681  24.687  34.980  10.447
18389W        W90682  41.825   9.675  13.927
18390W        W90683  20.111  13.190   3.386
18391W        W90684  10.689  20.090  14.355
18392W        W90685  18.718   1.479  13.822
18393W        W90686  35.533  19.081  14.769
18394W        W90687   2.301  19.230   4.219
18395W        W90688  33.129  27.997  12.445
18396W        W90689   8.287   5.247   1.712
18397W        W90690  18.617  39.968  11.045
18398W        W90691  16.774  43.863  12.849
18399W        W90692  11.242  10.677  13.543
18400W        W90693  37.529  21.221  10.583
18401W        W90694  38.422  29.547   4.126
18402W        W90695  18.064  25.586   3.644
18403W        W90696  30.597  10.743   9.674
18404W        W90697  19.666   9.302  10.557
18405W        W90698  18.067  29.158   1.899
18406W        W90699   8.881  12.334  11.050
18407W        W90700  30.477  34.590  10.545
18408W        W90701  28.450  10.217  11.908
18409W        W90702   3.869   1.258   4.779
18410W        W90703  15.585   5.864  13.016
18411W        W90704  24.028  44.867   2.903
18412W        W90705  41.308  27.145   4.784
18413W        W90706  25.143  30.417  13.978
18414W        W90707  32.556  14.698  11.400
18415W        W90708   2.770  44.006  14.988
18416W        W90709  15.310  26.062   2.831
18417W        W90710   7.198   4.850   4.666
18418W        W90711  29.922  11.246   0.773
18419W        W90712   1.268  29.466  10.618
18420W        W90713  44.953  35.094   2.246
18421W        W90714  28.001  15.585   0.856
18422W        W90715   0.812   7.243  14.897
18423W        W90716  18.140  28.149  10.924
18424W        W90717   9.319  15.809  14.513
18425W        W90718  39.344   2.807   4.707
18426W        W90719  28.456  24.044  11.917
18427W        W90720  39.426  40.897   0.329
18428W        W90721   1.318  27.539   3.150
18429W        W90722  34.902  21.181  10.059
18430W        W90723  13.767  29.952  14.291
18431W        W90724   7.705  39.852  14.794
18432W        W90725  37.875  37.925   3.238
18433W        W90726  32.017  29.578  12.368
18434W        W90727  17.586  34.407   0.922
18435W        W90728  20.272   3.372   3.374
18436W        W90729  28.036  26.137  10.583
18437W        W90730  31.520   0.966  12.553
18438W        W90731   0.264  23.620   2.738
18439W        W90732  24.075  11.690  11.459
18440W        W90733  11.359  30.456   3.332
18441W        W90734  35.423  10.332   0.307
18442W        W90735  10.712  38.919  13.947
18443W        W90736  28.561  25.975   0.887
18444W        W90737  44.488   9.804  14.483
18445W        W90738  37.553  10.372   2.220
18446W        W90739  29.654   5.806   1.351
18447W        W90740  41.803  23.651  11.381
18448W        W90741  40.304  26.067  14.835
18449W        W90742  36.862  19.042   1.330
18450W        W90743   8.745  20.066   0.381
18451W        W90744  42.923   1.878  10.522
18452W        W90745  37.071   8.197  12.941
18453W        W90746  34.889  20.160   1.706
18454W        W90747  19.040  29.607   3.205
18455W        W90748  14.819   3.754  12.861
18456W        W90749  30.634  17.115   1.382
18457W        W90750   3.324   4.306   4.170
18458W        W90751  39.529  41.043  11.429
18459W        W90752  25.676  29.460   1.733
18460W        W90753  39.950  37.472   2.199
18461W        W90754  40.980   7.787  14.851
18462W        W90755   5.933  28.640   0.901
18463W        W90756   6.734  15.196  12.874
18464W        W90757  41.030  39.337  13.841
18465W        W90758  20.752   2.883  11.067
18466W        W90759   4.273  27.141  12.503
18467W        W90760   0.267  40.807  12.355
18468W        W90761   6.715   8.231  13.906
18469W        W90762  27.654  20.723   1.231
18470W        W90763  40.021  34.970  11.053
18471W        W90764  33.875  28.937   0.744
18472W        W90765  12.338  16.268   3.642
18473W        W90766   6.302  36.533  10.958
18474W        W90767  43.892   6.221   4.718
18475W        W90768  10.774  14.648  10.456
18476W        W90769  16.720  30.487  14.829
18477W        W90770  30.460  20.662   0.362
18478W        W90771   6.697  25.613   3.155
18479W        W90772  35.109  22.631   1.885
18480W        W90773  20.116  17.213  13.835
18481W        W90774  40.322  32.988   1.861
18482W        W90775  12.759  11.189  12.839
18483W        W90776  13.677   0.982   3.322
18484W        W90777  38.554  21.616   1.919
18485W        W90778  20.598  20.073  14.293
18486W        W90779  36.435  15.306  14.344
18487W        W90780  37.944  37.956  12.036
18488W        W90781   7.911  35.553   2.708
18489W        W90782  15.268   4.326   3.286
18490W        W90783   2.879  44.480  11.588
18491W        W90784   0.326  22.715  10.892
18492W        W90785  16.188  12.352   1.781
18493W        W90786  24.516  37.558   1.347
18494W        W90787  20.066  21.720   4.636
18495W        W90788  10.263   6.374   3.828
18496W        W90789  18.279  28.001   3.852
18497W        W90790   8.246  42.021  10.968
18498W        W90791   2.940  32.482  11.868
18499W        W90792  16.260  27.455   3.358
18500W        W90793  26.987  40.471  10.993
18501W        W90794  36.587  11.190   3.735
18502W        W90795   3.903   6.780   3.223
18503W        W90796   7.864   8.669  12.422
18504W        W90797  18.211   0.937  13.833
18505W        W90798  31.151   3.760   0.434
18506W        W90799  20.069   8.302   4.150
18507W        W90800  24.611  34.893   3.199
18508W        W90801  36.348  13.288   1.900
18509W        W90802  44.923  36.955   4.247
18510W        W90803  13.280   9.196  11.871
18511W        W90804  31.403  40.017  12.017
18512W        W90805   2.443  14.168  13.884
18513W        W90806  27.495  43.907   2.670
18514W        W90807   3.713  25.158   2.318
18515W        W90808  11.189  21.558  12.391
18516W        W90809  10.297  23.533   2.392
18517W        W90810  18.575  32.093   1.248
18518W        W90811  26.083   0.287   3.782
18519W        W90812  13.225   7.815   2.180
18520W        W90813  11.146  37.958   4.820
18521W        W90814  26.466  28.476   4.761
18522W        W90815  30.064  34.420   0.460
18523W        W90816   1.443  34.526   4.318
18524W        W90817  13.126  27.162   2.710
18525W        W90818  40.473   9.215   4.266
18526W        W90819   3.390  12.160  11.916
18527W        W90820  39.330  15.243  11.536
18528W        W90821  22.638  19.074   2.269
18529W        W90822  17.609  32.930   3.336
18530W        W90823  37.360  43.783  10.499
18531W        W90824  35.029   1.324   2.322
18532W        W90825  15.740  19.243   4.284
18533W        W90826  16.305  43.819  10.531
18534W        W90827  19.627  15.701  14.284
18535W        W90828  22.705  25.198  14.941
18536W        W90829   3.285  35.453  12.396
18537W        W90830  34.915  25.691  10.944
18538W        W90831  20.607   8.761  10.493
18539W        W90832  22.688  40.007   2.245
18540W        W90833  30.982  31.523   2.353
18541W        W90834  32.886  38.840  12.516
18542W        W90835   5.924  38.850  10.636
18543W        W90836  19.103  28.123   0.463
18544W        W90837  23.217  26.097  13.428
18545W        W90838   5.855  17.131  10.979
18546W        W90839  10.786  42.483  11.002
18547W        W90840  35.966  33.506  14.466
18548W        W90841  11.704  10.791   1.820
18549W        W90842  37.019  38.933   2.393
18550W        W90843   8.764  23.133   0.292
18551W        W90844  13.775  32.590  10.428
18552W        W90845  41.939  27.470  10.532
18553W        W90846  33.383   8.334   0.433
18554W        W90847  14.720  21.153   0.942
18555W        W90848   1.311   4.791  13.803
18556W        W90849   0.339  39.841   1.220
18557W        W90850   7.248  14.799  13.507
18558W        W90851   0.357  10.268  10.010
18559W        W90852  17.106  20.210   3.318
18560W        W90853  29.113  42.877   0.901
18561W        W90854   3.436  34.499   2.396
18562W        W90855  21.145  43.900  14.001
18563W        W90856  40.320  21.022  14.914
18564W        W90857  28.078  37.552   1.422
18565W        W90858  38.918  18.167  13.404
18566W        W90859  21.084  27.549  10.121
18567W        W90860  30.119  20.645   3.370
18568W        W90861  18.647   8.764   3.345
18569W        W90862  14.154  14.098  11.542
18570W        W90863  44.369  34.915  12.383
18571W        W90864  26.124   2.314  14.472
18572W        W90865  35.970  38.034   1.753
18573W        W90866   7.300  12.135   1.780
18574W        W90867   4.932  42.467   1.776
18575W        W90868  35.890  39.914   0.408
18576W        W90869  26.110  27.982   2.900
18577W        W90870  23.704  21.565   4.800
18578W        W90871  15.780  10.681  12.371
18579W        W90872  29.640  21.539  13.995
18580W        W90873  27.540  32.100   4.214
18581W        W90874  22.542   3.334   2.880
18582W        W90875  10.160   9.333   3.189
18583W        W90876  37.951  32.952   2.403
18584W        W90877   8.175   3.734   1.375
18585W        W90878  41.463  11.291  11.081
18586W        W90879  36.844  28.952   1.426
18587W        W90880  23.170   1.857   1.298
18588W        W90881  21.572  29.526  14.882
18589W        W90882  10.788  37.466  13.483
18590W        W90883   2.865   1.778   1.838
18591W        W90884  22.592  28.554  11.899
18592W        W90885  24.012  20.542  13.999
18593W        W90886  22.698  12.256   4.769
18594W        W90887  13.705  44.319   0.954
18595W        W90888  34.952  27.496  10.930
18596W        W90889  29.947  27.626   2.715
18597W        W90890  27.665  41.821  10.960
18598W        W90891  20.644   0.841   0.332
18599W        W90892   8.702  20.714   4.829
18600W        W90893   5.828  19.044   1.781
18601W        W90894  30.444  26.599  10.568
18602W        W90895  37.454  18.085   4.736
18603W        W90896  22.518   0.743   5.115
18604W        W90897  31.908  19.597  14.020
18605W        W90898  17.720  33.474   3.791
18606W        W90899  34.956  29.942  13.910
18607W        W90900  38.447  17.253   1.216
18608W        W90901  36.899  41.880  11.536
18609W        W90902  43.494  16.161  13.036
18610W        W90903  41.490  23.094  14.416
18611W        W90904  12.804  41.496  12.374
18612W        W90905  15.623  25.991  14.360
18613W        W90906  13.705   4.371   5.123
18614W        W90907  37.360  42.840   2.220
18615W        W90908  21.675  25.184   3.376
18616W        W90909   7.749  21.165   2.846
18617W        W90910  18.581  22.547  11.873
18618W        W90911  21.737  22.640  10.570
18619W        W90912   5.242  33.430   2.219
18620W        W90913  37.873  19.129   2.361
18621W        W90914  21.019   5.426   4.835
18622W        W90915  26.114  16.229  11.581
18623W        W90916  27.685  11.768   4.169
18624W        W90917   6.794  23.235  10.450
18625W        W90918   5.740  10.752  12.893
18626W        W90919  38.974  36.535  14.979
18627W        W90920  18.158  19.221  13.359
18628W        W90921   6.259   6.804   1.295
18629W        W90922   5.706  41.345  10.541
18630W        W90923  20.190  28.183  12.004
18631W        W90924  18.763  13.148  12.969
18632W        W90925   6.318  29.159  11.091
18633W        W90926   9.687  44.873   0.359
18634W        W90927  33.947  34.500  10.592
18635W        W90928  16.632  16.249   0.366
18636W        W90929  13.804  28.134   3.230
18637W        W90930  20.137  37.570   9.942
18638W        W90931   7.672  14.127   1.402
18639W        W90932  17.149  24.570  14.852
18640W        W90933   2.957   6.701   1.723
18641W        W90934  44.401  14.289   5.204
18642W        W90935  34.565   3.796  13.405
18643W        W90936  16.159  35.481   4.764
18644W        W90937  25.685  44.415  12.568
18645W        W90938  44.309   4.703  14.365
18646W        W90939  24.633  29.595   4.743
18647W        W90940   6.881   8.871   2.733
18648W        W90941  33.061  14.181   2.305
18649W        W90942  27.079  23.133   5.082
18650W        W90943  42.487  35.994   4.773
18651W        W90944  39.418  23.692   4.324
18652W        W90945  17.243  18.639  13.906
18653W        W90946  24.493  36.892   2.327
18654W        W90947   7.222   3.937  10.910
18655W        W90948  40.992  16.311  13.902
18656W        W90949  19.122   3.331   4.173
18657W        W90950  32.399  32.915  10.633
18658W        W90951  22.143  30.536   0.243
18659W        W90952   5.821  24.653  12.897
18660W        W90953  43.803   2.726  13.912
18661W        W90954  36.554  40.915   3.638
18662W        W90955  30.935  11.284  11.939
18663W        W90956   7.774   5.695  14.503
18664W        W90957  33.108   9.296   9.926
18665W        W90958   3.799  23.120   1.306
18666W        W90959  42.829  11.724   1.445
18667W        W90960   1.444  27.055   2.373
18668W        W90961  28.945  24.170   9.997
18669W        W90962  18.610  14.729  12.350
18670W        W90963  40.021  35.524  14.801
18671W        W90964  18.257   0.851   0.461
18672W        W90965  20.523  11.171  13.851
18673W        W90966  30.011   3.880   0.366
18674W        W90967  33.117  39.875  12.012
18675W        W90968  39.412  31.431   1.271
18676W        W90969   0.423  14.283   3.702
18677W        W90970  28.090  16.115   0.729
18678W        W90971  27.488  24.494  13.026
18679W        W90972  28.135  39.010   1.306
18680W        W90973  28.030  11.858  10.539
18681W        W90974  29.123  38.397   2.297
18682W        W90975  15.226  30.598   4.347
18683W        W90976  35.974  26.593   1.266
18684W        W90977   1.949  29.575  12.375
18685W        W90978  38.992  40.464   3.824
18686W        W90979  12.821  13.792  10.530
18687W        W90980  37.348   8.186  14.486
18688W        W90981  27.120  14.789  12.876
18689W        W90982  35.560   2.755   1.774
18690W        W90983  14.642  12.349   2.785
18691W        W90984  43.295  14.264  12.447
18692W        W90985  16.585  39.556   3.666
18693W        W90986  21.108  15.635   3.635
18694W        W90987  29.988   3.807  13.972
18695W        W90988  33.435   0.277  14.032
18696W        W90989   5.743  42.288  12.365
18697W        W90990  13.289  33.033  10.438
18698W        W90991  29.446  19.752   0.860
18699W        W90992  32.539  15.288  11.042
18700W        W90993  37.364  15.287   4.223
18701W        W90994  26.494   4.761  10.925
18702W        W90995  39.882  32.434  10.895
18703W        W90996  20.643  35.573   3.769
18704W        W90997   6.860  19.621  13.019
18705W        W90998  28.994  41.481   0.926
18706W        W90999  32.984  37.999   2.314
18707W        W91000   1.804  24.627   4.212
18708W        W91001  14.600  19.626  13.428
18709W        W91002   4.878  26.051  12.506
18710W        W91003   9.386  27.583   1.934
18711W        W91004   6.216  33.590  11.887
18712W        W91005  20.720  14.176  12.449
18713W        W91006  30.073  28.659  12.497
18714W        W91007  17.734  20.670  12.016
18715W        W91008  14.287  15.254   1.782
18716W        W91009  38.376  38.551   4.608
18717W        W91010  37.086  19.573  13.375
18718W        W91011   0.424  27.024   0.740
18719W        W91012  22.229  12.761  10.952
18720W        W91013   9.229   1.781  13.501
18721W        W91014  21.566  25.104   0.748
18722W        W91015  44.876   4.726   4.735
18723W        W91016  22.607  11.168   1.418
18724W        W91017  34.384  16.166  14.323
18725W        W91018  14.191  25.566   0.462
18726W        W91019  34.431  42.433   1.435
18727W        W91020  30.127  37.944  14.760
18728W        W91021  13.192   1.275  12.539
18729W        W91022  39.407   1.962  13.877
18730W        W91023  30.474  12.787  11.005
18731W        W91024  29.659  29.430  13.390
18732W        W91025  27.146  23.501  12.858
18733W        W91026  12.270  15.314  12.397
18734W        W91027  15.128  11.802  14.992
18735W        W91028  37.954   4.242   0.316
18736W        W91029  34.029  32.401  13.459
18737W        W91030  25.493   2.244  14.354
18738W        W91031  27.456  27.063   3.684
18739W        W91032  34.488  28.967  14.932
18740W        W91033  30.971  37.581   3.754
18741W        W91034  23.701  11.849  13.930
18742W        W91035  14.308  15.199   0.398
18743W        W91036  24.990  32.095   0.755
18744W        W91037  22.009  22.658  10.579
18745W        W91038   5.279  16.567  11.530
18746W        W91039  28.441  32.081   2.734
18747W        W91040   3.758  43.400   3.375
18748W        W91041  35.951   3.453  13.536
18749W        W91042  32.587  21.151  14.349
18750W        W91043  38.518  25.641  10.506
18751W        W91044   3.916   4.342  12.531
18752W        W91045  44.959  35.964   0.825
18753W        W91046  43.839   1.901  11.028
18754W        W91047  21.056  25.149  12.867
18755W        W91048  40.436   9.683   3.377
18756W        W91049  19.185  38.821   2.333
18757W        W91050  37.844  26.003   1.826
18758W        W91051  27.988  37.068  10.532
18759W        W91052   8.259  17.197   2.291
18760W        W91053  25.576  10.753  13.804
18761W        W91054  41.526  43.276   3.278
18762W        W91055  31.494  13.229   1.814
18763W        W91056   4.899  24.636   0.805
18764W        W91057  32.041  43.494   1.894
18765W        W91058  23.501  38.551   3.172
18766W        W91059  13.610   7.215  13.891
18767W        W91060  32.441  31.126  11.511
18768W        W91061  30.486  27.159  12.421
18769W        W91062  20.666  23.003  11.454
18770W        W91063  17.630  11.790   1.833
18771W        W91064  39.403   7.747  14.331
18772W        W91065   0.956  35.375   5.114
18773W        W91066  28.526  20.625   3.681
18774W        W91067   1.300  32.425  14.834
18775W        W91068  30.973  38.346  13.419
18776W        W91069   8.655  13.293   2.209
18777W        W91070   5.790  36.503   2.405
18778W        W91071  40.538   3.393   2.803
18779W        W91072  20.066  29.460  13.924
18780W        W91073  27.448   2.375   1.769
18781W        W91074  25.202  20.537  14.503
18782W        W91075   2.909  31.413   3.705
18783W        W91076   4.878   2.419  13.461
18784W        W91077   3.358  36.926   0.355
18785W        W91078   5.222  20.150  14.759
18786W        W91079  22.178  11.130   3.207
18787W        W91080  26.968   8.405  14.283
18788W        W91081   3.297  38.953  11.566
18789W        W91082  24.997  30.038   2.245
18790W        W91083   6.737  31.628   2.729
18791W        W91084  20.714  24.719  12.501
18792W        W91085   1.951  21.535   0.964
18793W        W91086  12.686  14.778  11.039
18794W        W91087  14.266   9.882  14.849
18795W        W91088  26.524  36.902   0.952
18796W        W91089   7.748  22.061   2.316
18797W        W91090   1.431   1.965  13.461
18798W        W91091  33.615  12.755  12.881
18799W        W91092  37.934  28.669   1.725
18800W        W91093  19.644  26.995  13.990
18801W        W91094  13.723  22.092   2.307
18802W        W91095  31.568   8.364   0.785
18803W        W91096   9.214  24.509  10.612
18804W        W91097  42.483  26.967   3.668
18805W        W91098  44.425  20.655  10.425
18806W        W91099  13.732  38.996   0.761
18807W        W91100  30.144  28.022  14.976
18808W        W91101   0.271   6.782   4.282
18809W        W91102   7.819  26.209   3.697
18810W        W91103  11.310  33.623   3.156
18811W        W91104   0.827  43.366   2.791
18812W        W91105  34.060  24.231   2.841
18813W        W91106   5.833  38.821  12.472
18814W        W91107   7.690   7.252   0.337
18815W        W91108  16.781  32.583  10.430
18816W        W91109  26.205  11.686   0.296
18817W        W91110   9.773  36.535  14.814
18818W        W91111  31.096  12.735   2.323
18819W        W91112  27.671   3.297   3.217
18820W        W91113  10.749  19.261  12.561
18821W        W91114  17.132   5.350   3.822
18822W        W91115  18.735  38.041  10.974
18823W        W91116  16.261  38.962  13.892
18824W        W91117  27.998  35.898  13.434
18825W        W91118  19.072  15.271  11.899
18826W        W91119  18.653   1.423  14.357
18827W        W91120  13.728   5.738  14.896
18828W        W91121  22.218  32.602   1.712
18829W        W91122  43.498  14.305   1.848
18830W        W91123   1.818  12.662   1.857
18831W        W91124  15.703  22.560   1.759
18832W        W91125  20.690  40.394   1.314
18833W        W91126  35.064  18.710  12.059
18834W        W91127  20.685  32.903   3.713
18835W        W91128  25.999  23.154   3.332
18836W        W91129  11.701  35.030   4.779
18837W        W91130  26.181  31.007   4.789
18838W        W91131  41.951   8.692   3.712
18839W        W91132  18.704  41.798  14.908
18840W        W91133  14.152   6.711   4.114
18841W        W91134  41.491  44.279   1.895
18842W        W91135  34.912  14.169   1.359
18843W        W91136  27.456   2.361  13.338
18844W        W91137  16.212  16.247   1.858
18845W        W91138   1.477  22.075   0.369
18846W        W91139  27.998   8.275  12.559
18847W        W91140  39.899  29.486   0.250
18848W        W91141  41.833   7.336  10.498
18849W        W91142   8.735   1.795  11.073
18850W        W91143  38.474  40.889  11.951
18851W        W91144  41.396  16.072  14.885
18852W        W91145  37.068  29.666  13.832
18853W        W91146  19.265  17.757  12.418
18854W        W91147  43.435   9.308   1.297
18855W        W91148  13.130  38.349  11.472
18856W        W91149   7.898  14.317   1.854
18857W        W91150  44.878   3.834   1.868
18858W        W91151   2.935   1.337   3.839
18859W        W91152  24.167  14.660  11.581
18860W        W91153  25.027  11.729   2.209
18861W        W91154  17.133   4.724   0.480
18862W        W91155   7.802  28.512   4.262
18863W        W91156  41.362  13.275  11.454
18864W        W91157  24.682  10.184   3.852
18865W        W91158  11.637  12.284   3.649
18866W        W91159  18.598  17.700  14.811
18867W        W91160  13.718  15.614  13.333
18868W        W91161  36.035  35.574  12.879
18869W        W91162   2.862  40.908   1.369
18870W        W91163  20.159   7.807   3.859
18871W        W91164  33.526  43.840  12.023
18872W        W91165  42.967  13.216   3.158
18873W        W91166   4.217   9.729  11.515
18874W        W91167  43.926  11.137  13.351
18875W        W91168  14.135  20.216   4.750
18876W        W91169  28.125  11.743  14.275
18877W        W91170  31.022  30.638  14.953
18878W        W91171  37.563   8.772   2.320
18879W        W91172  42.447   3.302  14.026
18880W        W91173  37.935  28.143  10.988
18881W        W91174  18.686  15.800  12.876
18882W        W91175   9.305  11.663   2.397
18883W        W91176  22.013  13.244  12.417
18884W        W91177   9.781  14.244  13.984
18885W        W91178   7.388  20.079   0.437
18886W        W91179   5.778  38.433   2.245
18887W        W91180  40.378  22.234   3.203
18888W        W91181  12.207  25.487  10.582
18889W        W91182  23.654  42.798  14.492
18890W        W91183  41.355  26.525   1.375
18891W        W91184  32.016  40.459   1.721
18892W        W91185  44.307  10.186   1.864
18893W        W91186  43.474  10.332   0.841
18894W        W91187   2.317  18.061   1.437
18895W        W91188  38.401   9.256   1.273
18896W        W91189  39.866  34.011  14.429
18897W        W91190  19.266  27.519   1.336
18898W        W91191  32.630  13.753  10.979
18899W        W91192  42.509  24.692  14.457
18900W        W91193  11.845   0.809  14.759
18901W        W91194  19.635  25.109   1.707
18902W        W91195  15.103   2.397  11.003
18903W        W91196  10.315   9.365  11.556
18904W        W91197  13.228  13.119  13.530
18905W        W91198   6.285  35.540   1.718
18906W        W91199  30.637  19.536  11.859
18907W        W91200  16.632  22.514  13.335
18908W        W91201  16.271  43.769   4.620
18909W        W91202  23.129  15.586   3.241
18910W        W91203  15.217  15.318   3.205
18911W        W91204  12.770  38.014   2.217
18912W        W91205  40.337  20.035  12.527
18913W        W91206  34.928  20.715  13.002
18914W        W91207  24.516  14.332  12.076
18915W        W91208   2.965  42.371   3.370
18916W        W91209  21.092  16.803  10.492
18917W        W91210  32.588  22.617   3.186
18918W        W91211   8.209   1.468   2.287
18919W        W91212  37.831  25.547   3.667
18920W        W91213  23.519  18.159  12.890
18921W        W91214  44.332  14.289  13.481
18922W        W91215  21.524  10.682   1.410
18923W        W91216  39.390   0.743  10.476
18924W        W91217   4.440  19.663   3.835
18925W        W91218  32.446  34.592   4.619
18926W        W91219  35.419  18.650  10.585
18927W        W91220   8.364   1.296  10.421
18928W        W91221  36.986  14.750   0.884
18929W        W91222  22.215  37.439   1.726
18930W        W91223  44.369  31.959  14.919
18931W        W91224  43.467  42.856  12.549
18932W        W91225  25.077  24.543   0.426
18933W        W91226   8.705  44.263   0.850
18934W        W91227  15.147  36.063   4.296
18935W        W91228   1.320  22.225   3.784
18936W        W91229  32.069   5.904  12.546
18937W        W91230  28.618  40.797   2.178
18938W        W91231   3.712   0.298  13.537
18939W        W91232  14.176  18.588   3.356
18940W        W91233  21.710  44.789   2.209
18941W        W91234  24.180  36.937  14.467
18942W        W91235  21.237  18.157  13.876
18943W        W91236  11.739   9.274   4.308
18944W        W91237  35.044   1.252   1.736
18945W        W91238  10.307  34.918  13.920
18946W        W91239  25.180  12.308   2.361
18947W        W91240   3.251  43.887  11.381
18948W        W91241   3.349  18.779  12.827
18949W        W91242   5.877  23.993  14.373
18950W        W91243  12.158  36.080  12.001
18951W        W91244  12.729  41.340   2.217
18952W        W91245  19.155  33.549  10.144
18953W        W91246  44.754  21.623   0.864
18954W        W91247  25.557  22.059  11.900
18955W        W91248   0.327  29.925  14.470
18956W        W91249   7.828  23.012   4.632
18957W        W91250  26.058  28.664  11.413
18958W        W91251  28.558  38.357   2.700
18959W        W91252  43.452  39.328  10.951
18960W        W91253   8.737  15.589   0.249
18961W        W91254  22.539  28.084   3.187
18962W        W91255  44.278  34.875  14.775
18963W        W91256   8.285  23.088   3.785
18964W        W91257  31.010  44.467  11.505
18965W        W91258  19.085  43.843   4.227
18966W        W91259  28.619  32.551  11.565
18967W        W91260  41.458  43.485  12.520
18968W        W91261  18.142  10.766  12.002
18969W        W91262  14.669  28.055  13.512
18970W        W91263  28.979  11.329   4.226
18971W        W91264  35.524  11.795   2.762
18972W        W91265  11.199  37.023  11.501
18973W        W91266  10.215   2.944   3.206
18974W        W91267  13.728  14.265   4.790
18975W        W91268  26.488  13.649  10.407
18976W        W91269  19.591  36.985  11.606
18977W        W91270  16.767  40.317   1.732
18978W        W91271  18.675  23.592  13.353
18979W        W91272  19.539  43.785   1.302
18980W        W91273  10.664  40.902  12.847
18981W        W91274  42.459  34.091   2.762
18982W        W91275  26.670  19.113   3.336
18983W        W91276   8.896   5.802  14.777
18984W        W91277   7.874  16.677   4.210
18985W        W91278  26.070  40.538  14.366
18986W        W91279  42.480  17.228   0.856
18987W        W91280  34.051   8.892   3.812
18988W        W91281   2.393  37.953  14.808
18989W        W91282  32.621  17.711  13.384
18990W        W91283  24.654   9.731   1.421
18991W        W91284  15.264   4.273   4.704
18992W        W91285  22.604  29.448   0.846
18993W        W91286   2.345  44.768   0.357
18994W        W91287  21.668  32.038  14.969
18995W        W91288  37.562  20.564  12.963
18996W        W91289   0.828  12.235  13.994
18997W        W91290  17.712   2.269  12.914
18998W        W91291  42.352  40.527  11.931
18999W        W91292  20.174   7.770  10.979
19000W        W91293  42.866  43.975   2.212
19001W        W91294  34.015  38.468   2.387
19002W        W91295  21.126  15.313  14.465
19003W        W91296  43.838  32.539   0.327
19004W        W91297  30.521  31.996   0.457
19005W        W91298  31.069  24.551   1.846
19006W        W91299   3.374   8.794  13.904
19007W        W91300  38.824  25.637  11.506
19008W        W91301  18.724  32.545  11.017
19009W        W91302  23.574  24.638   0.332
19010W        W91303  20.704  42.518  12.347
19011W        W91304  33.026  35.495  10.892
19012W        W91305   8.886  34.096  12.059
19013W        W91306  43.491  44.767  10.584
19014W        W91307   2.898  11.789  11.504
19015W        W91308  32.909  31.952  10.456
19016W        W91309   2.877  38.831  11.123
19017W        W91310  23.712  22.546   0.817
19018W        W91311   2.802  16.696  11.891
19019W        W91312  18.707  17.290   3.725
19020W        W91313   5.706  22.221   1.816
19021W        W91314  40.325  12.748   1.324
19022W        W91315  27.618  44.945   2.288
19023W        W91316  20.112  42.347  11.106
19024W        W91317  17.669  11.701  11.558
19025W        W91318  15.722  33.600   0.825
19026W        W91319  20.122  36.413  12.951
19027W        W91320  36.542  21.633   4.782
19028W        W91321  37.472   9.743  12.369
19029W        W91322   1.862   8.775   5.102
19030W        W91323   0.402   9.216  13.901
19031W        W91324  40.043   9.200   0.284
19032W        W91325  25.103  21.673   0.888
19033W        W91326  18.575  42.809   4.745
19034W        W91327  36.972  16.072   2.342
19035W        W91328  13.637   4.945   1.733
19036W        W91329  14.760   0.302   0.369
19037W        W91330  22.129   0.345  12.834
19038W        W91331   6.346  12.282   4.259
19039W        W91332  18.678  36.873   2.359
19040W        W91333  33.529   8.705  13.345
19041W        W91334  20.127   1.731  14.290
19042W        W91335   7.732   2.840   4.660
19043W        W91336  15.293  42.402  11.375
19044W        W91337   6.222  36.908  12.071
19045W        W91338  21.585   1.963  13.433
19046W        W91339  39.903   2.891  13.904
19047W        W91340   6.294  40.463   4.669
19048W        W91341   5.255  35.900   3.694
19049W        W91342   9.707  33.440   3.770
19050W        W91343  15.601   7.692  12.453
19051W        W91344  21.684   1.891  13.880
19052W        W91345  28.016  21.720  12.899
19053W        W91346  39.434   8.313  14.788
19054W        W91347   8.824  12.729   3.739
19055W        W91348  29.436  19.600   1.297
19056W        W91349  18.213  38.925  14.857
19057W        W91350  14.788  40.372   1.895
19058W        W91351  43.895   8.236  12.538
19059W        W91352  17.648  41.845   3.372
19060W        W91353  28.590  23.492   3.767
19061W        W91354  34.916  39.915  10.895
19062W        W91355  28.668   8.349  12.873
19063W        W91356   9.776  40.924   2.849
19064W        W91357   8.249  18.198  14.373
19065W        W91358   2.438  14.730  12.032
19066W        W91359  10.281   7.217  13.477
19067W        W91360  13.656   7.367   3.651
19068W        W91361   7.239  15.328   1.811
19069W        W91362  43.495  16.297  11.090
19070W        W91363  39.809   2.355  11.419
19071W        W91364  28.582  38.830  12.393
19072W        W91365   8.790  36.010  14.028
19073W        W91366  32.571  20.604   4.334
19074W        W91367  19.211   1.364   3.261
19075W        W91368  37.469  13.720  13.802
19076W        W91369   7.759   5.432   2.301
19077W        W91370   6.343  33.995   5.711
19078W        W91371  39.843  36.374  10.902
19079W        W91372  24.155  20.626  14.490
19080W        W91373   5.429  26.557  14.478
19081W        W91374  29.582  16.696  13.453
19082W        W91375  42.776  11.788   3.371
19083W        W91376  26.488  40.885   2.793
19084W        W91377  34.000   2.936   4.345
19085W        W91378  22.143   7.378   2.403
19086W        W91379  29.935  25.105  13.909
19087W        W91380   6.915  13.219  13.414
19088W        W91381   3.862  28.949   4.804
19089W        W91382  19.269  43.448   4.189
19090W        W91383   3.947   4.228  11.082
19091W        W91384  10.642  44.400   2.723
19092W        W91385  10.207  37.950   2.225
19093W        W91386  17.108   3.766  14.377
19094W        W91387   8.695  24.625   1.915
19095W        W91388  42.941  41.812  14.875
19096W        W91389  42.518  17.679  14.374
19097W        W91390  44.428  15.094   3.741
19098W        W91391  19.616  44.276  12.339
19099W        W91392  13.221  44.825   1.874
19100W        W91393  40.393  10.685   1.296
19101W        W91394  21.175  33.508   4.146
19102W        W91395  20.195  25.572   2.689
19103W        W91396  30.150  19.740  10.920
19104W        W91397  20.086   3.305  14.443
19105W        W91398  42.968  10.246   4.801
19106W        W91399  41.898  42.781   9.983
19107W        W91400  10.322   0.443   3.367
19108W        W91401  35.370  27.602   1.354
19109W        W91402  12.649  22.171  10.990
19110W        W91403  21.563  22.718  11.955
19111W        W91404   5.402  37.521   1.877
19112W        W91405   8.390  22.061   1.927
19113W        W91406  38.461  30.641   1.244
19114W        W91407  34.953  14.598   1.360
19115W        W91408  12.304  21.207   4.310
19116W        W91409   0.458  12.317  11.522
19117W        W91410  23.140   2.403  14.323
19118W        W91411  13.719  21.580   0.894
19119W        W91412  17.113  17.564  10.014
19120W        W91413  19.633  27.977   0.456
19121W        W91414  29.546  11.315   3.660
19122W        W91415  31.955  34.087  14.361
19123W        W91416  42.297  24.524  13.840
19124W        W91417  11.659  32.434  12.894
19125W        W91418  42.320  40.547  13.793
19126W        W91419  25.135  18.169   0.418
19127W        W91420  11.257  33.913   4.310
19128W        W91421  10.325  22.684  14.851
19129W        W91422  24.215  37.841   3.208
19130W        W91423  30.449  20.610   2.847
19131W        W91424  34.120  11.168  13.956
19132W        W91425  34.495  38.984  11.393
19133W        W91426   9.849  28.113   2.417
19134W        W91427  44.367  43.495  14.840
19135W        W91428  19.699  18.609   1.358
19136W        W91429   4.260   7.380   4.279
19137W        W91430  14.616  24.564   2.352
19138W        W91431  35.021  11.859   5.297
19139W        W91432  10.720  22.105   1.908
19140W        W91433   9.189  24.703  10.926
19141W        W91434  40.000   8.204   1.446
19142W        W91435  35.945  27.063   4.329
19143W        W91436   9.206  36.016   4.823
19144W        W91437  29.094  22.623   0.355
19145W        W91438  13.285  30.490   4.688
19146W        W91439   8.709   7.813  12.945
19147W        W91440   0.299  24.661  10.491
19148W        W91441  32.140  18.130   3.376
19149W        W91442   6.705  44.826  14.906
19150W        W91443  18.296  24.992  13.373
19151W        W91444  17.698   4.203  12.070
19152W        W91445   3.813  26.579  12.993
19153W        W91446  42.333  10.851   0.424
19154W        W91447   7.237  36.448   3.695
19155W        W91448  31.915   9.685   4.673
19156W        W91449  37.985  44.996  14.366
19157W        W91450  26.073  39.859  13.357
19158W        W91451  23.236  25.707  14.307
19159W        W91452  32.122  23.553   0.892
19160W        W91453  29.134  38.402   1.337
19161W        W91454  11.838  19.712   0.734
19162W        W91455   0.805  43.859   2.698
19163W        W91456  31.956  24.222   0.384
19164W        W91457  38.566  30.161  11.574
19165W        W91458  43.944   2.423  14.504
19166W        W91459  13.267  35.474   2.692
19167W        W91460   6.413  17.752  11.978
19168W        W91461   9.729   5.704   0.897
19169W        W91462  24.488  15.176   4.663
19170W        W91463  20.736  17.154  12.823
19171W        W91464   6.331  44.289  11.112
19172W        W91465   5.726   2.363  13.514
19173W        W91466  35.965  44.885  11.966
19174W        W91467  33.969   1.400   0.391
19175W        W91468  22.091   0.985   4.738
19176W        W91469  29.140  34.427  13.009
19177W        W91470   2.236  41.039  10.456
19178W        W91471  10.716  27.594   1.426
19179W        W91472  21.598  15.656   2.288
19180W        W91473   9.843   8.657   1.420
19181W        W91474  32.477   5.330  14.014
19182W        W91475  31.975  14.098   1.843
19183W        W91476  27.499   4.773  14.300
19184W        W91477  18.586  39.441  14.854
19185W        W91478  36.084  36.569   0.424
19186W        W91479   9.388  34.918  10.532
19187W        W91480   6.227   3.775   1.325
19188W        W91481  10.635   4.206   4.660
19189W        W91482  18.668  24.079   0.381
19190W        W91483  38.351  15.174  12.550
19191W        W91484   1.258  39.054  12.578
19192W        W91485  29.569  26.201  11.542
19193W        W91486  20.072  37.453   0.437
19194W        W91487  38.442  37.526  12.917
19195W        W91488  36.483  18.089  14.417
19196W        W91489  40.947  15.236  14.334
19197W        W91490   0.844  10.847  12.858
19198W        W91491  33.934  25.154   4.210
19199W        W91492  19.200  17.593  13.828
19200W        W91493  38.971  16.296   5.112
19201W        W91494   2.849  36.945   4.834
19202W        W91495  29.980   7.803  11.570
19203W        W91496   1.417   9.877   4.695
19204W        W91497  18.051  32.957   3.859
19205W        W91498  18.167  44.430   3.790
19206W        W91499  12.661   3.883   4.193
19207W        W91500  10.224  42.329  11.479
19208W        W91501  11.841   4.880   2.396
19209W        W91502  31.948   4.910   1.437
19210W        W91503  40.957  24.556   4.824
19211W        W91504  17.082  33.053   2.865
19212W        W91505  20.751  35.403  13.389
19213W        W91506  25.490  37.404  10.625
19214W        W91507  24.988  38.001  11.406
19215W        W91508  20.526  10.226  13.057
19216W        W91509   7.699  32.979   1.739
19217W        W91510  12.783   2.372  10.096
19218W        W91511  17.235  39.460   4.206
19219W        W91512  30.061  42.882  13.991
19220W        W91513  28.512  27.541   2.386
19221W        W91514  35.580  41.997  11.907
19222W        W91515   4.345  42.796   3.860
19223W        W91516  28.522  43.799   3.688
19224W        W91517   3.723  32.043  13.034
19225W        W91518   8.872  30.124  14.760
19226W        W91519  31.986  42.379  13.477
19227W        W91520  25.058  38.029   4.779
19228W        W91521  35.989  21.215  10.910
19229W        W91522   9.676  40.861  12.898
19230W        W91523  44.001  26.575  13.818
19231W        W91524  34.120  14.667   3.209
19232W        W91525  12.300  38.024   2.273
19233W        W91526   0.326  32.094   1.347
19234W        W91527  27.967  16.078  10.970
19235W        W91528  31.947  17.276  10.579
19236W        W91529   1.353  22.184   2.819
19237W        W91530  44.493  17.788   3.755
19238W        W91531  40.848   7.847   4.172
19239W        W91532  22.588  34.540   1.748
19240W        W91533  29.103  34.535  13.459
19241W        W91534  38.379  27.650  13.386
19242W        W91535  43.851  24.086  14.806
19243W        W91536  22.102  25.121  11.383
19244W        W91537  15.729  38.415   9.997
19245W        W91538  42.957  39.548  12.486
19246W        W91539  34.590   3.801  13.802
19247W        W91540  33.392  37.075   2.186
19248W        W91541  11.718  39.873  13.342
19249W        W91542  18.588   0.805   2.259
19250W        W91543  40.811  40.458  13.958
19251W        W91544  17.066  13.686  12.489
19252W        W91545  14.602  18.638  12.920
19253W        W91546   3.840  40.898  13.880
19254W        W91547  25.702   0.805   2.335
19255W        W91548  36.545  27.681  10.512
19256W        W91549  15.271   1.389   4.736
19257W        W91550  20.082   2.839  10.992
19258W        W91551  42.892  24.575   3.682
19259W        W91552  22.171   7.399   4.770
19260W        W91553   3.257  11.276   1.222
19261W        W91554   0.323   2.834  10.572
19262W        W91555  42.927  25.535   0.885
19263W        W91556  25.570  29.062   0.260
19264W        W91557  40.478  26.563  12.097
19265W        W91558  24.712  17.153   4.278
19266W        W91559   1.378  24.016  12.060
19267W        W91560   0.939  21.140   2.371
19268W        W91561  39.416   6.207  10.539
19269W        W91562  41.849  28.552   2.406
19270W        W91563  17.741  12.695   2.662
19271W        W91564  22.747   9.801  11.978
19272W        W91565  42.798  19.059   0.343
19273W        W91566   7.290  42.976   3.844
19274W        W91567   2.791  15.106  12.877
19275W        W91568   0.331  24.668  11.954
19276W        W91569  39.883  17.129  11.871
19277W        W91570   9.725  36.587   3.343
19278W        W91571  26.703  34.447   1.695
19279W        W91572   2.947  30.061  12.981
19280W        W91573   5.824  29.594   0.386
19281W        W91574  10.802  28.670  12.464
19282W        W91575   8.170  33.385  14.976
19283W        W91576  28.113  11.632  11.603
19284W        W91577  31.425   3.448  14.777
19285W        W91578  34.046  42.284  14.409
19286W        W91579  11.225  11.260   0.411
19287W        W91580  10.166  19.235   4.121
19288W        W91581  19.601  22.513  12.367
19289W        W91582  33.022  14.215  14.434
19290W        W91583   4.362   1.744  11.390
19291W        W91584  24.600  43.445   2.778
19292W        W91585  10.783  13.105   4.664
19293W        W91586  23.231   8.756   3.689
19294W        W91587  36.362  19.156   2.683
19295W        W91588  27.050   3.242   2.254
19296W        W91589  25.991   4.229  10.495
19297W        W91590  29.087  27.167   1.405
19298W        W91591  36.940  10.761   3.631
19299W        W91592  34.986  38.954   9.990
19300W        W91593  21.758  19.164   3.202
19301W        W91594  43.823   9.664   0.366
19302W        W91595  42.998  42.354   4.174
19303W        W91596  43.433  33.407   2.261
19304W        W91597   9.232   7.816   4.147
19305W        W91598  29.555  22.710   3.863
19306W        W91599  28.037  36.879   2.816
19307W        W91600   7.264  37.398  12.854
19308W        W91601  17.144   9.882  11.410
19309W        W91602  24.183  13.333   1.913
19310W        W91603  36.348  20.736  14.828
19311W        W91604  30.154  39.964  12.059
19312W        W91605  30.564  38.369   1.858
19313W        W91606  15.597  43.485   5.240
19314W        W91607  33.904  25.037   0.845
19315W        W91608  40.325  17.675   2.855
19316W        W91609  26.655  20.720  11.079
19317W        W91610  14.813  44.286  14.004
19318W        W91611  41.924  25.055  12.969
19319W        W91612  27.035  33.901  12.877
19320W        W91613  21.026   0.876   1.744
19321W        W91614  26.525  34.109  12.516
19322W        W91615   1.914  13.821   0.352
19323W        W91616  15.757  11.858  11.918
19324W        W91617  11.307   2.307   2.352
19325W        W91618  28.549  38.047  11.919
19326W        W91619   4.240  11.788   0.735
19327W        W91620  18.548  13.710  14.775
19328W        W91621  43.765  39.050   1.258
19329W        W91622   7.726   2.453   3.372
19330W        W91623  25.086   1.752  12.040
19331W        W91624  31.580  33.084  13.062
19332W        W91625  17.708  22.145   1.278
19333W        W91626  23.005   8.860  12.531
19334W        W91627   8.224  21.578  14.007
19335W        W91628  15.177   7.798   4.820
19336W        W91629   6.795  19.667   4.705
19337W        W91630  15.602   4.282  14.283
19338W        W91631  25.000  42.465   0.322
19339W        W91632  25.474  28.484  13.401
19340W        W91633  11.277  43.375   0.274
19341W        W91634  22.020  40.327  13.943
19342W        W91635  12.191  11.697   1.876
19343W        W91636   2.885   5.707  14.462
19344W        W91637  17.184  29.100   1.236
19345W        W91638   9.273  18.655   0.742
19346W        W91639  14.298  20.769   0.853
19347W        W91640   9.198   3.776   2.317
19348W        W91641  27.063   6.703   4.654
19349W        W91642  37.030   4.743   1.726
19350W        W91643  39.503  23.209  11.965
19351W        W91644  18.697  39.054   2.834
19352W        W91645   4.214  21.083  10.892
19353W        W91646   5.787  33.097   3.721
19354W        W91647   8.679  32.980  12.823
19355W        W91648  26.586  27.620  11.458
19356W        W91649  39.867  27.672  12.369
19357W        W91650  38.989  39.524   3.868
19358W        W91651  29.492   0.787  10.071
19359W        W91652  24.541   2.938  12.983
19360W        W91653   2.336  26.501   4.188
19361W        W91654   6.259  38.391   0.265
19362W        W91655  38.879  41.968   0.376
19363W        W91656  13.146   8.843   0.332
19364W        W91657   6.190  26.517  14.348
19365W        W91658  26.050   9.886  13.851
19366W        W91659  42.906  23.581   0.267
19367W        W91660  14.178   1.352   4.122
19368W        W91661   6.701  27.550  13.041
19369W        W91662  31.070  31.956  12.009
19370W        W91663  16.812   1.264  13.977
19371W        W91664   7.222  10.238  13.358
19372W        W91665  18.050   8.875  14.290
19373W        W91666  27.023   3.336  14.007
19374W        W91667  33.487   9.693   4.799
19375W        W91668  22.537  24.511  12.417
19376W        W91669  38.481  33.049  11.960
19377W        W91670  37.056   2.258   3.704
19378W        W91671  33.874  25.681   2.230
19379W        W91672  16.271  17.583  13.901
19380W        W91673  38.356  31.552  12.521
19381W        W91674  28.132  22.555   3.187
19382W        W91675  17.639  11.858  14.431
19383W        W91676   6.371  39.031  13.945
19384W        W91677  14.207  40.841  14.334
19385W        W91678  21.110  43.358  12.981
19386W        W91679  31.576  14.165   1.717
19387W        W91680  29.062   1.848  13.821
19388W        W91681  43.383   8.830  13.364
19389W        W91682   6.247   6.835  13.955
19390W        W91683   4.213  20.760  11.869
19391W        W91684  36.383   5.710  11.893
19392W        W91685   0.742  13.812  12.525
19393W        W91686  10.234  42.305  13.983
19394W        W91687  36.041  31.037   4.680
19395W        W91688  42.905  32.561  13.945
19396W        W91689  12.288  17.196  13.910
19397W        W91690   6.316  15.713   1.924
19398W        W91691  29.618   6.271  13.335
19399W        W91692  25.684  39.983  13.389
19400W        W91693  27.561  22.008  10.145
19401W        W91694  18.073  15.212  11.964
19402W        W91695   8.248  27.953  14.334
19403W        W91696  44.754   6.419  14.818
19404W        W91697  33.470  35.374   2.360
19405W        W91698   8.283  42.823  14.429
19406W        W91699  17.135  42.009   4.260
19407W        W91700  12.246  44.819   2.743
19408W        W91701   8.666  29.626   0.902
19409W        W91702  37.367  35.372  14.509
19410W        W91703   5.395  29.921  14.840
19411W        W91704  12.690   3.362   0.443
19412W        W91705  18.198   4.738  12.526
19413W        W91706  23.984   4.371   3.647
19414W        W91707  26.517  21.149   5.222
19415W        W91708  11.161  40.428  14.288
19416W        W91709  40.345  29.122   4.183
19417W        W91710  35.514  41.453   4.738
19418W        W91711  41.335  38.050   4.193
19419W        W91712  23.175  13.263  12.950
19420W        W91713  43.398  35.588  14.313
19421W        W91714  11.790  36.064   1.906
19422W        W91715  26.627   0.405  14.777
19423W        W91716   4.296  24.628   2.253
19424W        W91717  27.162  35.958   4.199
19425W        W91718  35.038  24.569   1.746
19426W        W91719  35.054  34.093  14.376
19427W        W91720  31.071   9.710  11.417
19428W        W91721  41.367  41.884  12.003
19429W        W91722  35.062  44.273  12.001
19430W        W91723  25.670  38.418   3.789
19431W        W91724  10.715  18.219  12.846
19432W        W91725  35.454   4.860  11.977
19433W        W91726  43.475   1.890  13.063
19434W        W91727  36.851  17.142   3.793
19435W        W91728  41.506  10.775  13.980
19436W        W91729  19.146  17.195   0.731
19437W        W91730   2.877   6.739   4.168
19438W        W91731  13.188  27.646  13.500
19439W        W91732  29.454   1.917   1.324
19440W        W91733  28.045   8.726   1.881
19441W        W91734  14.761  33.026   0.935
19442W        W91735  42.526  35.091   0.270
19443W        W91736  26.157   2.464   4.258
19444W        W91737  35.482  10.267   3.640
19445W        W91738  33.037   7.823  13.951
19446W        W91739  21.748  34.560   0.302
19447W        W91740  33.592  28.138  12.903
19448W        W91741  30.480  35.104  13.457
19449W        W91742  28.987  33.571  11.442
19450W        W91743  36.863  10.671   1.356
19451W        W91744  13.130  17.268  14.911
19452W        W91745  15.739  33.935   2.784
19453W        W91746   5.805   3.948   2.875
19454W        W91747   4.339  13.712   3.821
19455W        W91748   1.270  29.119   1.808
19456W        W91749   0.492   2.739  11.890
19457W        W91750   7.416  41.379  10.406
19458W        W91751  25.974   3.722   3.160
19459W        W91752  18.240   1.877  13.347
19460W        W91753  25.136  29.456   1.359
19461W        W91754  34.885   0.416  12.561
19462W        W91755  41.416  19.188   3.696
19463W        W91756  28.644  25.673   0.903
19464W        W91757   5.911  22.747   0.836
19465W        W91758  20.709  20.181   3.851
19466W        W91759  26.579   3.714  10.503
19467W        W91760  10.161  16.243   0.255
19468W        W91761  29.167  26.198   0.421
19469W        W91762  42.459  32.920   1.391
19470W        W91763  28.678   0.918  13.039
19471W        W91764  23.160  14.241   3.152
19472W        W91765  35.990  41.442  11.085
19473W        W91766  18.605  36.929  13.401
19474W        W91767   6.864  17.081   3.666
19475W        W91768  36.584  10.224  10.488
19476W        W91769  28.980   3.432  11.419
19477W        W91770  27.052  38.919  14.297
19478W        W91771  29.459  17.744   3.257
19479W        W91772  44.824  17.590  14.287
19480W        W91773  30.115  17.791  13.036
19481W        W91774  16.702  15.086  11.860
19482W        W91775   0.280  34.435   3.372
19483W        W91776  18.064  33.521  14.841
19484W        W91777  12.790   8.893  14.908
19485W        W91778  19.693  36.384   5.178
19486W        W91779  16.721  23.162   5.101
19487W        W91780  28.523  21.647   1.763
19488W        W91781  20.060  12.633   1.849
19489W        W91782  39.486   9.730   4.188
19490W        W91783   9.252  17.281   1.930
19491W        W91784  14.332  27.505  11.390
19492W        W91785  32.919  21.629   1.380
19493W        W91786   9.664  36.396  14.428
19494W        W91787  10.779  26.080  14.978
19495W        W91788  26.662  20.659   3.281
19496W        W91789  35.855  25.209  11.869
19497W        W91790  44.771   5.346  14.980
19498W        W91791  31.128  20.076   1.392
19499W        W91792   8.353  28.500   1.761
19500W        W91793  10.635   1.840  11.579
19501W        W91794  30.082   6.238   2.685
19502W        W91795  26.688  22.033   9.650
19503W        W91796  10.641  34.986  12.480
19504W        W91797   6.315  29.154  13.018
19505W        W91798  19.573   9.205   4.185
19506W        W91799  22.169   4.327   3.352
19507W        W91800  32.059  44.301  10.596
19508W        W91801  16.223  34.391  12.910
19509W        W91802  27.546  26.608   0.955
19510W        W91803   1.389  18.172  13.914
19511W        W91804   7.307   4.255   3.673
19512W        W91805  13.196  23.510  14.851
19513W        W91806  16.227  19.284  12.920
19514W        W91807  33.089  12.744   0.727
19515W        W91808   1.847  17.674  13.853
19516W        W91809   3.239  39.403  13.386
19517W        W91810  42.027  29.096  13.852
19518W        W91811  42.316  17.192  10.452
19519W        W91812  38.539   2.315  10.476
19520W        W91813  31.950  40.351   4.789
19521W        W91814  44.403  43.001  10.032
19522W        W91815  40.048  32.014  13.040
19523W        W91816   6.780   5.913   4.228
19524W        W91817  34.552  31.080  12.578
19525W        W91818  37.845  43.876  13.873
19526W        W91819  32.952   4.777  14.479
19527W        W91820  15.265  29.469   1.288
19528W        W91821   1.334  10.683   0.258
19529W        W91822  20.179   5.690   1.840
19530W        W91823  38.829  41.906  12.944
19531W        W91824  16.205  19.228   3.318
19532W        W91825  22.589  23.156  12.540
19533W        W91826  26.168   8.764   0.777
19534W        W91827  42.485  42.909  10.939
19535W        W91828  43.812  41.305  13.804
19536W        W91829   9.697  36.536   1.281
19537W        W91830   1.873  38.073   4.185
19538W        W91831  22.214  26.556   2.863
19539W        W91832  18.750  11.267   3.770
19540W        W91833  15.226  22.709   2.747
19541W        W91834  27.539  19.223  12.438
19542W        W91835  31.463   3.298  12.906
19543W        W91836  35.005  27.581  13.027
19544W        W91837   8.687  35.523  13.401
19545W        W91838  36.025  39.434   0.334
19546W        W91839  42.012  27.015  14.450
19547W        W91840  27.108  21.699   5.626
19548W        W91841  23.616   5.786   4.632
19549W        W91842  20.082  21.065   9.949
19550W        W91843  37.407  29.535   1.718
19551W        W91844   1.933   1.879  13.001
19552W        W91845  24.563   4.755  14.012
19553W        W91846  17.785  40.381   3.831
19554W        W91847  28.497  42.362  12.345
19555W        W91848  36.903   6.328  12.888
19556W        W91849  12.145  23.022   3.759
19557W        W91850  19.682  29.139  11.455
19558W        W91851  21.082   1.478  11.499
19559W        W91852  15.178  43.434  12.449
19560W        W91853   4.273  37.534  12.062
19561W        W91854  36.072   7.748  14.938
19562W        W91855  19.777  32.942   1.756
19563W        W91856  32.565   4.922  12.932
19564W        W91857  13.750  23.061   3.168
19565W        W91858  15.629  39.950   0.425
19566W        W91859  31.632  27.122  10.893
19567W        W91860  24.704  44.289  10.956
19568W        W91861  37.877  12.280   4.286
19569W        W91862  11.129   1.332   3.370
19570W        W91863  34.073  17.711  13.896
19571W        W91864  25.473  24.569   0.871
19572W        W91865   0.885  41.440   5.120
19573W        W91866  42.432  14.213  13.022
19574W        W91867  39.363  29.595  12.385
19575W        W91868  27.664  40.923   0.886
19576W        W91869   9.808   1.309   2.397
19577W        W91870  32.982  14.795   0.755
19578W        W91871  43.399  19.695   0.306
19579W        W91872   5.327   5.753   1.891
19580W        W91873   1.752  36.510  12.975
19581W        W91874  30.922  14.327  13.459
19582W        W91875  33.075   0.283   0.459
19583W        W91876  40.405  39.515   4.191
19584W        W91877  32.571  33.078  14.493
19585W        W91878  37.351  19.708   0.419
19586W        W91879  35.902  15.149  11.015
19587W        W91880  29.521   2.792  12.577
19588W        W91881  39.859  43.475   4.689
19589W        W91882  24.540  28.681   1.826
19590W        W91883   9.754  13.781   4.756
19591W        W91884  28.084  19.609  10.152
19592W        W91885   3.247   6.371   2.351
19593W        W91886   3.756   2.270  13.908
19594W        W91887  38.925  19.058  13.990
19595W        W91888  22.661  30.456  14.357
19596W        W91889  25.105   2.939   1.392
19597W        W91890  40.964  41.942  14.805
19598W        W91891   3.752  10.192   1.818
19599W        W91892  16.617  35.013  11.042
19600W        W91893  11.646  39.463  11.372
19601W        W91894  39.366  10.243   4.817
19602W        W91895   3.800  39.546   2.368
19603W        W91896   9.161  37.861   4.810
19604W        W91897  14.137  20.201   1.754
19605W        W91898   8.203  25.529   4.726
19606W        W91899  36.525  15.096   3.213
19607W        W91900  19.136  17.746  12.979
19608W        W91901  10.684  35.093   0.305
19609W        W91902  39.919  33.624  14.968
19610W        W91903   0.318  29.615   1.755
19611W        W91904  35.401  28.026   3.856
19612W        W91905  18.236   2.802   3.279
19613W        W91906  44.276  36.511  14.472
19614W        W91907  17.288  28.119  12.345
19615W        W91908   5.292  13.217  10.577
19616W        W91909   6.278  38.477  12.071
19617W        W91910  37.857  23.493  10.581
19618W        W91911  41.398  11.768  12.572
19619W        W91912  22.661  27.642  14.313
19620W        W91913  15.288  16.772  12.910
19621W        W91914   9.205   0.313   1.905
19622W        W91915  27.178  33.051   0.827
19623W        W91916  40.842  25.101  14.904
19624W        W91917  30.415   7.241  14.454
19625W        W91918  13.301  32.543  10.643
19626W        W91919  14.305  21.673  13.511
19627W        W91920  30.141  19.084  13.794
19628W        W91921  17.642  27.671  13.923
19629W        W91922  41.346   2.250  10.899
19630W        W91923  43.914  35.986  11.124
19631W        W91924  42.373  41.492   3.355
19632W        W91925  31.034   7.720   0.796
19633W        W91926  35.893  11.684   5.203
19634W        W91927  26.537  15.206   4.698
19635W        W91928   3.759  14.201   5.115
19636W        W91929  34.495  41.025   3.644
19637W        W91930  26.658   9.733  10.990
19638W        W91931   5.764   2.898  13.055
19639W        W91932  28.980  36.593  12.945
19640W        W91933   5.795  30.507   1.294
19641W        W91934   6.271  24.056  10.428
19642W        W91935  20.212  23.074  14.359
19643W        W91936   1.777  26.501   1.762
19644W        W91937   0.291  27.630  14.372
19645W        W91938  12.301  43.862  12.942
19646W        W91939   2.951   2.277  13.368
19647W        W91940  40.374  35.032   5.139
19648W        W91941  34.906   4.925  11.460
19649W        W91942   2.734  38.883   0.388
19650W        W91943   6.186  40.338  11.571
19651W        W91944  39.410  22.032  10.489
19652W        W91945  12.253   5.812   0.334
19653W        W91946  40.920  22.214  12.340
19654W        W91947  36.516   1.734  10.112
19655W        W91948  28.098   6.334   1.448
19656W        W91949  43.951  32.128   1.213
19657W        W91950  21.705   8.200   2.281
19658W        W91951  10.299  39.387  11.109
19659W        W91952  34.482   6.408   1.903
19660W        W91953  29.082  23.720   4.810
19661W        W91954   6.240  10.224   4.803
19662W        W91955  30.495  25.627  14.380
19663W        W91956  27.445  16.594  10.449
19664W        W91957  10.709  24.704   1.426
19665W        W91958  24.604  32.594   3.701
19666W        W91959   8.878  36.017  10.972
19667W        W91960  35.983  16.679   3.193
19668W        W91961  11.656  33.488   1.718
19669W        W91962  42.839  39.834  13.015
19670W        W91963  27.484  38.940   2.801
19671W        W91964  15.721   8.381  12.023
19672W        W91965  34.094  12.664   1.338
19673W        W91966  37.443  23.093   4.333
19674W        W91967   7.878  10.771   1.248
19675W        W91968  37.356  30.161  14.410
19676W        W91969   6.318  32.399   3.746
19677W        W91970  36.040  11.362   1.273
19678W        W91971  26.208  41.797  11.127
19679W        W91972  26.585   1.933  12.930
19680W        W91973  13.800   6.250   0.476
19681W        W91974  27.617   7.239  12.985
19682W        W91975  25.482  21.660   1.442
19683W        W91976  35.893  37.544   1.431
19684W        W91977  41.375  16.572   0.432
19685W        W91978  15.248  22.676   3.189
19686W        W91979  32.401   6.229   0.339
19687W        W91980  31.038  25.991  14.337
19688W        W91981  20.170   5.386  13.413
19689W        W91982  25.652  23.496   0.926
19690W        W91983  38.457  11.138   1.275
19691W        W91984   5.414  18.168   0.328
19692W        W91985  11.136  35.519   0.895
19693W        W91986  12.614  22.512  11.588
19694W        W91987   7.724  21.570  11.936
19695W        W91988   5.270   6.739  10.518
19696W        W91989  16.569  23.990   0.263
19697W        W91990  18.171   4.365   4.223
19698W        W91991  17.276  32.926  11.970
19699W        W91992  33.907  25.016  11.995
19700W        W91993   0.405   8.395  13.931
19701W        W91994  24.171  40.049  12.488
19702W        W91995   9.810  13.235  10.970
19703W        W91996   3.294  35.015  13.512
19704W        W91997  16.700   3.833   4.807
19705W        W91998  18.085  33.431  12.502
19706W        W91999   6.768   0.467  14.879
19707W        W92000  33.410  27.672  13.324
19708W        W92001  18.625  27.575   4.277
19709W        W92002  13.281   0.477  10.538
19710W        W92003  14.749  36.474   4.199
19711W        W92004  25.651  42.460  11.930
19712W        W92005  29.546   9.186   3.737
19713W        W92006  22.078  33.398  11.414
19714W        W92007   9.821  23.992  11.570
19715W        W92008  29.637  41.359   2.771
19716W        W92009  30.018  23.542   5.124
19717W        W92010   6.901   8.322   4.115
19718W        W92011   9.291  30.651   2.310
19719W        W92012  17.166   9.771  13.308
19720W        W92013  40.999  16.694   2.868
19721W        W92014  17.109  23.681  13.901
19722W        W92015  23.226  20.039   2.785
19723W        W92016  13.311  21.131   4.765
19724W        W92017  28.528  15.716  10.155
19725W        W92018   0.305  40.032  12.340
19726W        W92019  15.597  18.279  14.983
19727W        W92020  37.491   1.410   4.744
19728W        W92021   8.884  42.381   0.771
19729W        W92022  33.541   1.412  13.462
19730W        W92023  42.914   6.337   1.850
19731W        W92024  15.692   8.334   4.660
19732W        W92025  13.156   6.691  14.980
19733W        W92026  19.548   1.828  13.490
19734W        W92027   7.238  36.865   1.708
19735W        W92028  19.669  19.139  14.782
19736W        W92029  40.451  35.942   9.946
19737W        W92030  10.746  44.505   4.295
19738W        W92031   4.403  15.694   3.364
19739W        W92032  33.521  25.104   4.756
19740W        W92033  43.878   3.855  12.870
19741W        W92034  28.624  15.177   4.678
19742W        W92035  15.112  18.199   1.364
19743W        W92036   3.218   3.446   2.719
19744W        W92037  37.002   1.907   0.469
19745W        W92038  26.686  34.468   3.781
19746W        W92039   3.715  30.119  11.504
19747W        W92040  25.117   5.287  13.418
19748W        W92041   3.784  32.129   4.306
19749W        W92042  44.289  30.967  11.552
19750W        W92043   6.766  35.939   2.806
19751W        W92044  26.636  31.916  14.416
19752W        W92045  26.974   6.752  14.372
19753W        W92046  10.838  18.671   1.332
19754W        W92047  41.945  29.550   1.382
19755W        W92048  26.041  42.310  10.578
19756W        W92049  20.118  39.960  10.959
19757W        W92050  21.137  31.097   2.359
19758W        W92051  33.604  38.015  14.912
19759W        W92052   7.911  28.675  12.350
19760W        W92053   2.853  18.631  14.949
19761W        W92054   7.808  26.965   1.414
19762W        W92055  39.487   2.725   1.825
19763W        W92056   8.757  35.394  14.946
19764W        W92057  32.057  20.061  11.074
19765W        W92058  39.540  25.135   4.744
19766W        W92059  19.762   9.172   3.681
19767W        W92060  44.965   0.331   4.824
19768W        W92061  11.754  31.006   3.804
19769W        W92062  33.591   5.235  13.358
19770W        W92063  23.138  17.707  11.070
19771W        W92064  17.209  37.076  11.996
19772W        W92065  26.499   6.275  10.920
19773W        W92066  24.697  16.261   4.124
19774W        W92067  15.317  19.570  12.977
19775W        W92068  44.985   8.886  11.469
19776W        W92069  16.602  35.405  14.516
19777W        W92070  17.200  17.666   3.377
19778W        W92071  42.956  11.866   2.868
19779W        W92072  13.783   1.307   2.846
19780W        W92073   3.456  19.278   4.649
19781W        W92074   4.380  27.483  14.403
19782W        W92075  42.905  43.314  12.050
19783W        W92076  32.426   7.202   4.601
19784W        W92077   2.845  33.463   1.724
19785W        W92078   5.724  18.738   4.283
19786W        W92079  37.418  43.854   3.664
19787W        W92080  18.684  26.985   4.668
19788W        W92081   1.389  33.116   3.858
19789W        W92082  35.430  29.923  12.085
19790W        W92083  42.970  35.888  14.360
19791W        W92084  35.532   3.256   4.798
19792W        W92085  21.146  36.526  11.376
19793W        W92086  40.852  31.560   2.416
19794W        W92087  31.114  25.009  13.974
19795W        W92088  25.042   3.877   9.934
19796W        W92089  12.625   0.829   0.901
19797W        W92090  27.143   2.426  14.911
19798W        W92091  28.670  33.590   3.343
19799W        W92092   8.244   4.867  10.984
19800W        W92093  43.842  27.956   3.184
19801W        W92094  19.285  27.049   1.817
19802W        W92095  15.136   6.818   4.709
19803W        W92096   9.315  36.048  14.960
19804W        W92097   5.194   7.320  11.575
19805W        W92098  20.178  11.285  14.869
19806W        W92099  24.504  18.737  13.978
19807W        W92100  18.722  10.861  14.762
19808W        W92101  30.071  41.445  11.937
19809W        W92102   9.323  13.833  14.903
19810W        W92103  23.674  28.545  10.614
19811W        W92104  26.969  22.740  11.531
19812W        W92105  14.340  22.154  10.900
19813W        W92106   2.323  24.016   2.241
19814W        W92107  34.865  37.526  10.012
19815W        W92108  15.133  33.963   1.890
19816W        W92109  17.209  20.066   0.819
19817W        W92110  16.744  42.020   0.823
19818W        W92111  28.096  39.002   3.247
19819W        W92112  13.264  15.264   4.172
19820W        W92113   7.366  31.065  10.600
19821W        W92114  30.609  16.587  14.350
19822W        W92115  16.262  17.164   3.341
19823W        W92116  27.945  12.188   4.673
19824W        W92117  16.707  33.391   0.300
19825W        W92118  34.089  42.870   3.846
19826W        W92119   5.212  12.809  12.390
19827W        W92120  36.471  36.447  11.880
19828W        W92121  23.147  35.498  14.808
19829W        W92122  41.913  17.692  12.928
19830W        W92123  20.736  22.176   3.353
19831W        W92124  30.561  33.422  14.435
19832W        W92125  18.266  16.093  12.985
19833W        W92126  15.239  34.585   1.862
19834W        W92127   2.314  12.328   1.346
19835W        W92128  40.321  18.786  10.160
19836W        W92129  35.905  22.538  12.500
19837W        W92130  36.456  25.657   1.745
19838W        W92131  41.969  32.062   1.310
19839W        W92132  20.149  34.593  12.977
19840W        W92133   9.233  18.174  12.081
19841W        W92134  11.711  15.729   3.842
19842W        W92135   7.868  20.601  12.992
19843W        W92136   9.280  44.323  10.032
19844W        W92137  23.114  11.764  11.392
19845W        W92138  17.190  23.665  13.411
19846W        W92139  33.092  27.585  11.101
19847W        W92140   4.273   1.283   4.654
19848W        W92141  37.079  18.126  12.838
19849W        W92142  29.438  31.151   1.829
19850W        W92143  41.025  36.489  10.625
19851W        W92144  34.376  35.480  13.983
19852W        W92145  37.030   8.206  10.964
19853W        W92146  14.612   0.891   4.623
19854W        W92147   9.352  15.144  13.989
19855W        W92148  16.313   1.732   3.728
19856W        W92149  20.543  13.732   4.719
19857W        W92150  13.774  42.815  11.039
19858W        W92151  39.839  19.091  12.047
19859W        W92152  18.553  13.146  11.101
19860W        W92153  41.872  17.790  12.528
19861W        W92154  35.948  31.969   0.281
19862W        W92155  40.817  32.122  12.540
19863W        W92156  44.296  18.592  13.477
19864W        W92157   1.797  22.667  11.020
19865W        W92158  36.906  43.792  12.978
19866W        W92159  21.757  37.851   1.793
19867W        W92160  16.096  20.661   0.880
19868W        W92161  19.279  34.914   0.458
19869W        W92162   4.326  24.640  12.078
19870W        W92163  44.874  13.216  13.901
19871W        W92164  41.962  28.489  12.406
19872W        W92165  23.735  29.145   3.293
19873W        W92166  24.128  11.329   4.767
19874W        W92167  27.486   1.732  14.788
19875W        W92168  40.519  15.665  12.072
19876W        W92169  31.905  31.426  11.569
19877W        W92170  22.231   6.677  14.989
19878W        W92171  20.068  39.976   2.852
19879W        W92172  44.859  15.798  13.834
19880W        W92173   2.904  31.490   4.827
19881W        W92174   9.153   0.840  11.006
19882W        W92175  27.059  36.057  13.315
19883W        W92176   8.325  30.531  14.324
19884W        W92177   8.838   6.677  12.946
19885W        W92178  34.512   6.195  14.442
19886W        W92179  30.641  40.361   3.229
19887W        W92180  27.054   7.790   1.366
19888W        W92181  35.942   9.166   4.804
19889W        W92182  16.106  28.617  12.498
19890W        W92183  37.864   1.934  13.469
19891W        W92184   7.669  29.112  12.364
19892W        W92185  14.688   2.324  13.448
19893W        W92186  13.148  37.995  11.004
19894W        W92187  15.288  26.177   3.314
19895W        W92188  44.430  17.169   4.742
19896W        W92189   6.375  27.564  10.961
19897W        W92190  10.807  38.072  10.899
19898W        W92191  14.682  23.734  11.919
19899W        W92192  15.211  31.121  11.473
19900W        W92193  41.341  41.880  14.511
19901W        W92194  33.005  41.443   0.311
19902W        W92195  18.625  14.110   0.325
19903W        W92196   5.235  29.004   4.789
19904W        W92197   9.218  33.569  10.626
19905W        W92198   2.325  15.811  10.978
19906W        W92199  16.102  15.110   2.227
19907W        W92200  27.120  18.609  10.408
19908W        W92201  21.679  15.126   4.218
19909W        W92202  29.057  19.732   3.233
19910W        W92203  14.242  31.130  12.847
19911W        W92204  18.584  43.927  12.488
19912W        W92205  33.929  14.193  14.505
19913W        W92206  17.787  20.665   4.326
19914W        W92207  18.289   6.344   0.808
19915W        W92208  21.251  16.100   2.334
19916W        W92209  27.131  27.107   1.390
19917W        W92210  18.208  32.591   3.735
19918W        W92211  27.058  26.571  10.492
19919W        W92212  41.985  15.312   1.294
19920W        W92213  18.140  30.981   3.255
19921W        W92214  18.261  26.598   0.460
19922W        W92215  34.571  10.330   3.300
19923W        W92216  39.061   4.857   4.145
19924W        W92217  34.048  29.426  10.552
19925W        W92218  20.533  28.092   2.380
19926W        W92219  25.496  37.367  12.858
19927W        W92220  34.048   8.375   2.376
19928W        W92221  38.828  12.194  11.488
19929W        W92222  15.755  28.938  14.403
19930W        W92223  44.879  29.538   3.190
19931W        W92224   3.315  29.546   3.224
19932W        W92225   8.699   3.914  12.474
19933W        W92226  34.581   3.327   3.386
19934W        W92227  35.360   2.892  11.880
19935W        W92228   1.457  33.576   1.764
19936W        W92229  19.101  29.108  14.365
19937W        W92230  16.080   6.420  14.908
19938W        W92231  40.477  39.521   4.744
19939W        W92232  28.569   2.819  10.558
19940W        W92233  30.123  23.708   3.782
19941W        W92234  13.114  34.560  12.375
19942W        W92235  36.935   8.178   4.783
19943W        W92236  19.573  27.569   4.744
19944W        W92237  11.641  30.437  12.009
19945W        W92238  43.965  40.825  13.008
19946W        W92239   9.224  23.596  10.915
19947W        W92240   3.887   5.750  14.486
19948W        W92241   0.969  14.143  13.799
19949W        W92242  43.999  26.024  14.786
19950W        W92243  15.246   6.361   1.360
19951W        W92244  39.065  25.064   3.250
19952W        W92245   8.294  31.596  14.369
19953W        W92246  15.663   1.272  11.540
19954W        W92247   9.829  31.598   4.167
19955W        W92248  18.604  18.145  12.931
19956W        W92249  10.276  26.668   1.291
19957W        W92250  35.037  25.684   3.379
19958W        W92251  23.066  31.137  11.599
19959W        W92252   7.235  33.531  13.498
19960W        W92253  22.622  43.415  10.109
19961W        W92254  40.002   2.895  11.504
19962W        W92255  24.025  30.601   2.205
19963W        W92256  18.615  13.608   0.827
19964W        W92257  24.182  16.318   1.889
19965W        W92258  28.643  33.618   4.699
19966W        W92259  42.832  19.678  14.966
19967W        W92260  38.876  11.204   2.672
19968W        W92261  22.076  24.226  13.401
19969W        W92262  30.443  39.460   4.632
19970W        W92263  44.452  36.462   1.266
19971W        W92264  10.188  18.104   4.763
19972W        W92265  32.966  11.684   2.871
19973W        W92266  14.273  26.500  13.451
19974W        W92267  18.707  24.525  13.821
19975W        W92268  19.610  33.439  14.008
19976W        W92269  17.661  29.038   4.798
19977W        W92270  40.904   1.455   1.871
19978W        W92271  21.076  41.379   0.379
19979W        W92272  43.461  24.069   3.382
19980W        W92273  40.389  37.993  11.442
19981W        W92274  17.639  44.794   1.330
19982W        W92275  33.404  33.980   2.323
19983W        W92276   2.326  11.353   3.723
19984W        W92277  14.633  24.696  12.973
19985W        W92278  36.542  34.585   1.734
19986W        W92279  42.924  25.608   3.351
19987W        W92280   7.298  28.064  10.540
19988W        W92281  39.375  15.092  14.310
19989W        W92282  16.627  21.097   1.259
19990W        W92283  36.425  34.940  11.067
19991W        W92284  13.845  12.163   1.694
19992W        W92285  19.195  22.740  13.427
19993W        W92286  35.052  14.695  12.003
19994W        W92287   2.354  39.028  12.466
19995W        W92288  16.669  26.607  14.434
19996W        W92289  33.128   2.308  10.469
19997W        W92290   2.817   7.327   0.747
19998W        W92291  17.223  39.406   0.357
19999W        W92292   5.772  10.202  14.510
20000W        W92293  23.021  13.130   1.433
20001W        W92294  36.072  34.599   2.810
20002W        W92295  37.904  24.522  13.035
20003W        W92296  44.471   9.307   2.740
20004W        W92297  23.687  43.485   4.740
20005W        W92298  18.632  43.971  11.412
20006W        W92299  30.125   4.885   0.733
20007W        W92300  26.584   0.780   0.331
20008W        W92301  10.682  42.030   3.675
20009W        W92302  23.238  30.438   1.915
20010W        W92303   4.924  42.496   3.182
20011W        W92304  33.912  37.041   1.262
20012W        W92305  20.626  42.859  13.510
20013W        W92306  16.084  29.070   3.275
20014W        W92307  21.542  36.558  12.567
20015W        W92308  35.027  28.944   1.928
20016W        W92309  22.153  33.422  12.923
20017W        W92310   7.226  40.937  10.919
20018W        W92311  17.736  24.151   4.838
20019W        W92312  37.525  39.869   1.919
20020W        W92313  44.334  35.449  13.001
20021W        W92314  10.377   3.719  14.324
20022W        W92315  23.130   0.785   1.242
20023W        W92316  27.032  35.372   0.899
20024W        W92317  23.611  24.168   3.655
20025W        W92318  16.228  42.913   3.303
20026W        W92319  24.096  28.963  13.938
20027W        W92320  28.069  29.639  14.289
20028W        W92321   1.287  10.754   3.833
20029W        W92322  14.283  24.993   3.304
20030W        W92323   7.804  39.553  14.946
20031W        W92324  12.315  36.054   1.724
20032W        W92325  43.345   4.731  14.508
20033W        W92326  34.578  36.084  11.605
20034W        W92327   0.292  42.979   0.849
20035W        W92328   7.342  12.768   2.691
20036W        W92329  30.987   0.838   1.273
20037W        W92330  23.122  23.164   3.647
20038W        W92331  42.791  20.656   4.823
20039W        W92332  33.568  13.184   3.198
20040W        W92333   8.191  29.948   3.706
20041W        W92334  44.485   9.233   4.799
20042W        W92335  21.615  19.711   0.434
20043W        W92336  37.553  11.635   3.868
20044W        W92337  19.590  12.245   1.805
20045W        W92338  36.458  36.487  13.919
20046W        W92339  21.214   0.834   1.356
20047W        W92340  21.121  42.502  12.032
20048W        W92341  18.143  35.418  13.996
20049W        W92342  40.389   9.649  14.472
20050W        W92343  41.385   2.751   1.860
20051W        W92344   5.244  26.649   2.190
20052W        W92345  17.670  32.982   0.861
20053W        W92346  28.938   5.387  12.022
20054W        W92347   0.814  30.134  11.535
20055W        W92348   8.234   7.347   3.387
20056W        W92349  10.365  16.223   2.738
20057W        W92350  15.174   1.840  11.933
20058W        W92351  13.251  13.238  11.976
20059W        W92352  15.584  44.874  13.958
20060W        W92353  10.383  37.507   2.707
20061W        W92354  14.339  14.593   1.849
20062W        W92355  16.281  15.631   3.785
20063W        W92356  16.191  21.259   0.911
20064W        W92357  42.792  17.724   2.226
20065W        W92358   2.743   1.330   1.360
20066W        W92359  32.534   8.793  10.417
20067W        W92360  20.613  33.419  10.942
20068W        W92361  35.501  29.004  11.968
20069W        W92362  36.564  37.890   2.665
20070W        W92363  12.241   7.793  11.588
20071W        W92364  22.538   5.266   0.938
20072W        W92365  33.880   0.260  12.853
20073W        W92366  36.087   5.914   3.846
20074W        W92367  27.561  17.283  13.869
20075W        W92368  20.666  15.322  13.048
20076W        W92369  34.402  44.880   1.926
20077W        W92370  31.478  38.075   2.299
20078W        W92371  36.015  44.907   2.243
20079W        W92372  27.547  15.717  11.125
20080W        W92373   6.794  20.661   1.400
20081W        W92374  29.941   1.786  13.409
20082W        W92375  27.991  34.555   3.710
20083W        W92376   8.264   6.218  11.043
20084W        W92377  43.427  38.969  10.643
20085W        W92378  39.511  44.431  13.465
20086W        W92379   4.936  10.342   1.382
20087W        W92380  22.706  21.077   5.183
20088W        W92381  30.972  36.879   4.134
20089W        W92382   4.746  17.069  13.519
20090W        W92383  42.951   8.382  13.012
20091W        W92384  24.035  31.107  13.891
20092W        W92385  38.009  29.454   4.319
20093W        W92386  36.045  29.455   4.259
20094W        W92387  19.250  38.522   3.834
20095W        W92388  20.549  23.007   2.792
20096W        W92389  30.008   7.414   3.729
20097W        W92390  26.135  13.699  12.473
20098W        W92391  20.180  22.205   9.988
20099W        W92392  23.164  14.640   1.225
20100W        W92393  29.476  42.953   5.265
20101W        W92394  20.077  15.672  11.377
20102W        W92395  27.060  32.395   3.200
20103W        W92396  19.165  23.149   5.669
20104W        W92397  31.612   7.784   0.388
20105W        W92398  44.285  38.387  12.857
20106W        W92399  40.419  15.619  12.527
20107W        W92400  17.192  17.618  10.931
20108W        W92401   5.695   9.248  11.092
20109W        W92402  14.634  20.640  12.401
20110W        W92403   6.919  21.124   3.640
20111W        W92404  36.847   2.285  12.524
20112W        W92405  22.178   4.363   4.303
20113W        W92406  14.111  38.976  10.552
20114W        W92407  24.045  41.359   3.246
20115W        W92408   3.827  39.315   3.222
20116W        W92409  10.639  12.216  10.617
20117W        W92410  28.499   7.263   1.909
20118W        W92411  25.672  14.134  13.470
20119W        W92412  42.796  18.233   4.216
20120W        W92413  13.121  13.131   1.227
20121W        W92414  43.451  29.982   1.406
20122W        W92415  14.678  34.398  10.963
20123W        W92416  22.628  43.001  13.863
20124W        W92417   9.324  43.788   3.275
20125W        W92418  10.361  30.555  11.605
20126W        W92419  24.039  29.665  13.532
20127W        W92420  14.112  43.775   3.837
20128W        W92421  33.586  28.094  13.412
20129W        W92422  43.925  21.746   4.303
20130W        W92423  32.063   3.882  14.994
20131W        W92424  35.985  40.991   4.295
20132W        W92425  33.021  20.139  14.817
20133W        W92426  30.127  29.048   3.715
20134W        W92427   8.281  29.651   3.320
20135W        W92428  31.488  25.072  13.416
20136W        W92429  41.846  36.064  11.572
20137W        W92430  42.352   9.650   4.802
20138W        W92431  33.580  28.024   4.292
20139W        W92432  26.623  10.157   9.967
20140W        W92433   9.767  27.660   1.426
20141W        W92434   1.764   3.338  14.794
20142W        W92435  16.086   7.404   1.850
20143W        W92436  10.217   2.408  13.049
20144W        W92437  44.355   3.864   0.856
20145W        W92438  42.896   3.800   1.271
20146W        W92439  26.198  35.419  10.593
20147W        W92440  31.595  31.604  10.438
20148W        W92441  21.572  32.519   0.448
20149W        W92442  26.542   4.785  14.313
20150W        W92443  13.674  24.093   3.187
20151W        W92444  24.534  25.621  13.835
20152W        W92445  13.343  25.099  14.506
20153W        W92446  33.077  19.772   0.777
20154W        W92447  41.805   4.311   0.314
20155W        W92448   8.317   3.313   0.957
20156W        W92449  36.999  15.803   4.607
20157W        W92450  20.665  11.640   0.392
20158W        W92451  19.045   7.811   0.480
20159W        W92452   8.796  34.900  12.450
20160W        W92453  14.105  13.262  11.094
20161W        W92454  19.128  31.638   2.867
20162W        W92455  30.569  35.374   0.825
20163W        W92456  26.503   3.306   1.751
20164W        W92457  16.216  18.134  11.948
20165W        W92458  16.787  40.854  13.857
20166W        W92459  44.952   2.288  14.805
20167W        W92460  42.981   3.254   4.623
20168W        W92461  42.476  44.867  11.050
20169W        W92462  43.371  16.095   1.839
20170W        W92463  39.061  41.842   4.613
20171W        W92464  42.339  17.702   2.257
20172W        W92465  32.616   7.408  12.088
20173W        W92466   8.179  40.428  12.410
20174W        W92467  19.102  14.719   2.244
20175W        W92468   8.767  23.046   4.300
20176W        W92469  36.079  44.418   3.785
20177W        W92470  36.346  30.085   1.890
20178W        W92471  14.709   7.278   0.315
20179W        W92472   5.800  16.316   1.294
20180W        W92473  31.426  43.344   3.247
20181W        W92474  24.547  33.450  11.568
20182W        W92475   5.750  25.058   0.422
20183W        W92476  42.511   4.301  11.902
20184W        W92477  18.093   3.432  10.063
20185W        W92478  11.297  37.928  13.989
20186W        W92479  35.400   1.853  12.826
20187W        W92480  43.833  35.992  13.952
20188W        W92481  39.013  42.301   1.414
20189W        W92482  35.003  25.972   2.233
20190W        W92483   8.299  27.082  14.361
20191W        W92484  42.943  38.399   4.234
20192W        W92485  38.339   6.214   0.824
20193W        W92486  13.653  29.023  13.888
20194W        W92487  14.828   5.835  14.906
20195W        W92488  37.834  36.409   4.263
20196W        W92489  10.363   0.267   1.424
20197W        W92490   0.759  32.949  12.056
20198W        W92491  13.277   6.789   4.135
20199W        W92492  32.536  32.547   0.788
20200W        W92493  37.951   8.812  12.407
20201W        W92494  37.506   5.781  12.536
20202W        W92495  20.235  30.589   3.290
20203W        W92496   5.270  38.909  12.433
20204W        W92497  35.932  35.501  14.297
20205W        W92498  14.109  35.034   0.798
20206W        W92499  41.867  18.757   0.464
20207W        W92500  32.105  22.007   5.294
20208W        W92501   4.376   0.845   3.363
20209W        W92502  10.257  36.396   0.373
20210W        W92503  43.868  14.280  11.870
20211W        W92504  31.039  27.497  11.472
20212W        W92505   6.750  18.597  14.792
20213W        W92506  24.665  29.023  12.507
20214W        W92507   8.878  11.128   2.880
20215W        W92508   8.835  25.069   4.275
20216W        W92509  27.512  37.558   0.914
20217W        W92510  24.197  17.206   4.740
20218W        W92511  20.632  34.084  10.464
20219W        W92512   2.817  12.826   0.263
20220W        W92513   1.743  40.355   4.170
20221W        W92514   5.689  42.384   3.654
20222W        W92515  33.388   8.826   1.916
20223W        W92516  24.017  44.927   0.376
20224W        W92517  12.253  15.298   3.155
20225W        W92518   3.289  29.115   3.747
20226W        W92519  23.225   1.368  13.882
20227W        W92520  11.159   9.878   1.236
20228W        W92521  42.933  27.002   3.776
20229W        W92522  22.624  29.608  13.875
20230W        W92523   0.371   1.854  14.965
20231W        W92524  23.615   6.858  12.006
20232W        W92525  31.080  21.130   3.335
20233W        W92526  23.726  37.401   2.730
20234W        W92527  29.127  18.217  12.018
20235W        W92528  41.018  15.799   2.772
20236W        W92529  39.892   6.358  13.533
20237W        W92530  11.249  29.468  13.476
20238W        W92531  17.715  20.682  11.492
20239W        W92532  31.469  30.617   3.277
20240W        W92533  38.482   1.887   3.645
20241W        W92534  38.467   9.790  12.007
20242W        W92535  25.187  40.846   0.855
20243W        W92536   8.366   4.817  11.396
20244W        W92537  41.894  21.199   3.238
20245W        W92538  33.610  23.125  10.889
20246W        W92539  23.674  42.021  14.013
20247W        W92540  34.429  24.051  14.457
20248W        W92541  36.903  40.422   3.300
20249W        W92542   7.304  13.786   2.742
20250W        W92543  22.040   4.338  14.935
20251W        W92544   0.946  26.694  11.578
20252W        W92545  17.647  36.589  11.943
20253W        W92546  40.464  22.575   3.688
20254W        W92547  43.981  35.432  12.365
20255W        W92548  24.696  22.163   2.330
20256W        W92549  23.598  27.549  12.569
20257W        W92550  33.419  34.526   1.890
20258W        W92551  27.979  15.665  14.878
20259W        W92552  41.869  17.188   4.312
20260W        W92553  41.866  14.799  14.300
20261W        W92554  18.547   2.260   1.297
20262W        W92555  17.221  13.252   0.841
20263W        W92556  35.091   5.738  13.999
20264W        W92557  30.430  30.042  10.644
20265W        W92558  28.516  30.610   0.418
20266W        W92559  15.786  44.002  12.988
20267W        W92560  41.872  33.595   9.942
20268W        W92561  17.631  16.610  14.349
20269W        W92562  42.980  33.942  10.546
20270W        W92563  31.105  38.038   0.294
20271W        W92564   9.375  25.083   1.745
20272W        W92565  27.660  11.819   3.153
20273W        W92566   0.399   7.185  11.927
20274W        W92567  43.940  28.965  13.393
20275W        W92568   6.809   3.882  12.519
20276W        W92569  31.561  41.862  13.810
20277W        W92570  33.045   1.962  11.101
20278W        W92571  39.881  11.864   2.852
20279W        W92572  24.075   8.747   0.410
20280W        W92573  10.375  32.049  10.448
20281W        W92574  22.102  33.440   0.448
20282W        W92575  16.714  38.925   2.755
20283W        W92576   1.280  44.296   2.360
20284W        W92577  36.481  35.865   2.721
20285W        W92578  37.058  20.209  11.482
20286W        W92579   0.289  33.466   1.425
20287W        W92580   5.821  19.262  12.883
20288W        W92581  24.222  39.867   3.793
20289W        W92582  36.005   6.399  11.571
20290W        W92583  21.634  38.484  12.825
20291W        W92584  22.222  32.056   3.789
20292W        W92585  26.461  27.049  14.997
20293W        W92586  42.887  33.581   4.791
20294W        W92587   7.743  27.957   0.483
20295W        W92588   1.807  13.221  10.595
20296W        W92589  41.455  21.024   4.838
20297W        W92590   3.915  18.657  14.390
20298W        W92591  32.001  25.606  14.015
20299W        W92592  24.041  39.019  11.581
20300W        W92593  25.977  19.686  12.346
20301W        W92594  42.847  26.511   4.309
20302W        W92595   3.431  40.976   4.796
20303W        W92596  27.525  19.749   3.688
20304W        W92597  35.855   7.763   5.209
20305W        W92598  23.596   7.255   0.335
20306W        W92599   5.751  37.894   4.706
20307W        W92600  35.470  42.817  13.861
20308W        W92601   6.878  19.076  10.487
20309W        W92602  31.975  15.742  10.588
20310W        W92603   1.906  42.466   4.301
20311W        W92604  11.242  27.153  11.922
20312W        W92605  18.294  39.320  14.786
20313W        W92606  33.096  19.220  11.095
20314W        W92607  38.332  27.504  11.372
20315W        W92608  41.498  35.574  10.960
20316W        W92609   6.405  22.096  14.322
20317W        W92610  17.067  40.944   0.369
20318W        W92611   8.359   1.319  14.447
20319W        W92612   0.469  27.946  14.479
20320W        W92613   9.888  41.500   1.932
20321W        W92614  32.971  23.029  13.927
20322W        W92615   9.827  16.734   4.697
20323W        W92616  18.176  43.337   2.253
20324W        W92617  23.611   8.197  12.567
20325W        W92618  26.539  31.515  14.331
20326W        W92619  14.138   5.400   1.845
20327W        W92620  39.032  35.433   0.246
20328W        W92621  28.585  37.075   3.740
20329W        W92622   3.716  27.055  14.763
20330W        W92623  42.944  43.812  11.928
20331W        W92624  34.396  18.178   0.467
20332W        W92625   9.198   0.968  11.951
20333W        W92626  31.006  44.347   2.734
20334W        W92627   3.422   5.836  11.525
20335W        W92628   6.318  28.612   0.461
20336W        W92629  23.504  24.665   2.776
20337W        W92630  11.756  19.270   3.827
20338W        W92631  13.201  37.549   2.294
20339W        W92632  24.062  22.208  10.483
20340W        W92633  14.200   8.818   3.234
20341W        W92634  37.535  22.187  11.441
20342W        W92635   1.417  15.665  10.622
20343W        W92636  21.130   8.764   4.821
20344W        W92637   5.847  29.933   0.781
20345W        W92638   9.205   7.667  12.503
20346W        W92639   6.881   4.735   3.323
20347W        W92640  34.915  13.774   3.368
20348W        W92641  36.064  37.364  13.882
20349W        W92642  43.012  23.221  11.935
20350W        W92643  10.336  26.554   0.895
20351W        W92644  17.277  23.060   5.577
20352W        W92645   9.775  38.898  11.546
20353W        W92646  10.796   7.805   1.752
20354W        W92647  23.504  26.107   4.620
20355W        W92648  11.681  13.758   0.453
20356W        W92649  12.137   5.773  14.837
20357W        W92650  19.258  22.596   1.256
20358W        W92651   5.393  27.052  12.350
20359W        W92652   9.257   4.745  12.904
20360W        W92653  21.200   5.812  12.044
20361W        W92654  22.109  22.164  12.451
20362W        W92655  18.625   4.889   5.118
20363W        W92656   3.398  32.513   2.228
20364W        W92657  26.528  12.338   2.868
20365W        W92658   1.446  32.443   1.251
20366W        W92659  16.786  21.072  12.916
20367W        W92660  18.244  13.168   2.416
20368W        W92661   4.255  42.371   2.301
20369W        W92662  30.020  19.245   1.413
20370W        W92663   1.302  18.781   2.771
20371W        W92664  16.744  29.983   0.730
20372W        W92665  37.931  35.020  13.396
20373W        W92666  13.270  36.926  14.926
20374W        W92667  35.029  42.369   3.658
20375W        W92668   3.777  39.374  13.031
20376W        W92669   8.263   2.851  14.358
20377W        W92670   4.414   5.302   2.240
20378W        W92671   2.356  26.514  10.146
20379W        W92672  41.413  30.938  14.998
20380W        W92673  32.893   8.706  10.138
20381W        W92674   7.772  18.247  10.924
20382W        W92675  41.007  28.087   1.778
20383W        W92676  12.686   0.899   1.247
20384W        W92677  43.278  29.026  11.054
20385W        W92678  40.877  23.555  10.543
20386W        W92679  21.219   4.711  14.389
20387W        W92680  35.945   6.712  10.573
20388W        W92681  10.672  40.797   1.315
20389W        W92682  34.093  15.578   3.247
20390W        W92683   1.760  12.301   0.824
20391W        W92684  19.064   9.712  11.023
20392W        W92685   1.927  29.964   3.719
20393W        W92686   4.363   8.205  10.978
20394W        W92687  30.068   0.266   3.239
20395W        W92688  24.129  41.980  14.840
20396W        W92689  12.342  35.857  11.565
20397W        W92690   6.298  17.295   3.762
20398W        W92691  26.154  38.384  13.335
20399W        W92692  40.455   1.270  14.836
20400W        W92693  27.563  14.201  13.918
20401W        W92694  14.661   3.840   3.765
20402W        W92695  19.677  44.279  10.893
20403W        W92696  15.160  15.243  13.919
20404W        W92697  17.790   3.248  11.096
20405W        W92698  16.217  12.296   4.123
20406W        W92699  17.676  31.587  10.523
20407W        W92700   7.328   6.313  10.618
20408W        W92701  27.958  13.704  10.622
20409W        W92702  18.194  33.485   5.209
20410W        W92703  33.061   3.224   4.810
20411W        W92704  20.211   2.799   1.903
20412W        W92705  19.070  11.802   2.670
20413W        W92706  14.687  13.632   1.292
20414W        W92707  18.700  23.664   0.941
20415W        W92708  42.879  42.788  12.363
20416W        W92709  29.928  21.545  14.344
20417W        W92710  19.163   4.848   0.814
20418W        W92711  42.449  39.360   3.735
20419W        W92712  17.245  38.069   3.233
20420W        W92713  20.055  33.402  14.856
20421W        W92714  23.708  28.570   0.836
20422W        W92715   6.201  20.679  13.349
20423W        W92716  31.984  11.183   2.823
20424W        W92717   2.366  37.048   3.843
20425W        W92718  44.756  24.501  12.988
20426W        W92719   8.811  31.072   3.830
20427W        W92720  13.256  27.073   3.357
20428W        W92721  31.062   1.396   1.777
20429W        W92722   6.707   0.411  10.920
20430W        W92723  11.645  18.779  13.434
20431W        W92724   0.474  30.910   3.768
20432W        W92725  23.594  39.433  13.852
20433W        W92726  34.511  11.265   0.392
20434W        W92727  17.252   8.728  12.928
20435W        W92728  42.975   3.717  11.412
20436W        W92729  12.122  23.632  12.965
20437W        W92730   1.917  40.464   0.732
20438W        W92731  15.155  24.489   0.379
20439W        W92732  42.803  39.449  14.383
20440W        W92733   1.937  39.427  11.057
20441W        W92734   6.918  32.440   0.755
20442W        W92735  35.519  25.536  12.905
20443W        W92736  41.818  15.142   1.861
20444W        W92737   0.931  10.325   2.783
20445W        W92738   0.455   5.870  13.915
20446W        W92739  22.623   4.710  10.135
20447W        W92740  22.672  29.639   1.424
20448W        W92741   9.250  25.184  12.865
20449W        W92742  31.494   0.856  11.009
20450W        W92743  24.034   5.228   5.150
20451W        W92744  42.777  29.104   1.698
20452W        W92745  18.263   7.804  13.797
20453W        W92746   6.702  34.468  10.929
20454W        W92747  20.546  25.540   1.271
20455W        W92748  24.561  23.151  14.916
20456W        W92749  14.267   6.772   1.344
20457W        W92750  11.735  21.029   0.393
20458W        W92751  43.923  43.780   4.169
20459W        W92752  40.894  16.778  11.444
20460W        W92753  43.945  15.805   3.378
20461W        W92754  38.451  17.598  13.907
20462W        W92755  23.207  23.023   1.396
20463W        W92756   3.292  30.517   3.714
20464W        W92757  38.534  44.766   4.692
20465W        W92758  25.508  21.121  14.866
20466W        W92759  14.263  32.928   2.902
20467W        W92760  29.919  17.776   3.286
20468W        W92761  14.676   1.944  12.910
20469W        W92762  37.379   7.403  13.025
20470W        W92763  40.816  36.377  14.379
20471W        W92764  15.648   4.929   0.876
20472W        W92765  14.287  25.645   0.787
20473W        W92766  19.172  15.295  14.968
20474W        W92767  14.161  19.737  12.921
20475W        W92768  24.038  26.677   2.181
20476W        W92769  32.078   9.340   0.729
20477W        W92770  29.476   6.824   3.838
20478W        W92771  14.310   4.310  14.812
20479W        W92772  21.219  34.110  13.827
20480W        W92773  31.911  38.971   1.419
20481W        W92774  41.856  18.297   3.663
20482W        W92775  35.383  32.084  12.555
20483W        W92776  18.667  24.048  14.787
20484W        W92777  28.456  21.741   2.816
20485W        W92778   5.415  17.799   2.847
20486W        W92779  27.550  15.129   2.770
20487W        W92780  32.899  36.085   0.882
20488W        W92781  25.547  23.129   3.772
20489W        W92782   7.265  31.451   2.418
20490W        W92783  21.057  22.096  13.546
20491W        W92784   0.416  18.664  11.444
20492W        W92785  32.551  36.860   4.203
20493W        W92786  18.742  10.211  12.395
20494W        W92787  40.829   8.747  12.532
20495W        W92788   1.922  17.726  14.880
20496W        W92789  30.527  44.401  12.091
20497W        W92790  28.020  19.078  14.377
20498W        W92791  39.384  26.995   2.367
20499W        W92792  32.125  26.985  14.366
20500W        W92793  33.531  12.745  11.508
20501W        W92794  33.960   0.901  14.506
20502W        W92795  38.512  30.623  13.900
20503W        W92796  42.380  21.684  11.522
20504W        W92797  19.614   7.688  12.416
20505W        W92798  21.199  43.807  14.826
20506W        W92799   4.281   0.969   1.403
20507W        W92800  33.006  19.742   4.121
20508W        W92801  26.593  26.551  11.080
20509W        W92802  11.342  38.000  13.377
20510W        W92803  13.177  30.998   0.338
20511W        W92804   0.346  25.603   2.704
20512W        W92805  42.808  43.351  13.796
20513W        W92806  10.661  38.003   1.405
20514W        W92807  28.453  43.982   2.859
20515W        W92808   9.672   7.707   0.246
20516W        W92809  44.954   4.227   4.794
20517W        W92810   3.274  17.650   0.797
20518W        W92811  19.697  33.605   0.743
20519W        W92812   3.225  16.772   3.700
20520W        W92813  29.010  44.360   1.436
20521W        W92814  15.227  20.645  12.355
20522W        W92815   9.322  28.173  11.128
20523W        W92816  42.467   9.304   2.392
20524W        W92817  11.650  29.171   4.654
20525W        W92818  30.052  21.187   9.969
20526W        W92819  24.576  10.697  11.873
20527W        W92820  28.976  23.986   1.855
20528W        W92821  36.582  16.784   2.255
20529W        W92822  11.197   2.958   1.271
20530W        W92823  37.944  42.427  12.483
20531W        W92824  13.139  34.936   2.838
20532W        W92825  22.570  34.371   2.316
20533W        W92826  25.634  40.025   0.305
20534W        W92827   9.300   7.732  12.963
20535W        W92828  18.571  41.991  14.450
20536W        W92829   3.942  38.467  13.845
20537W        W92830   0.855   3.366  11.954
20538W        W92831  13.769  23.621   0.275
20539W        W92832  15.155  10.862  11.077
20540W        W92833   9.657   4.935  11.008
20541W        W92834  29.453  40.464   4.760
20542W        W92835  23.553  43.276  11.488
20543W        W92836  44.476  22.508  11.050
20544W        W92837   3.946   2.448   0.919
20545W        W92838  41.795  32.468  12.073
20546W        W92839  40.044  18.749  11.041
20547W        W92840  37.441  14.642   0.359
20548W        W92841   4.292  37.370   2.264
20549W        W92842  40.988  40.461   0.766
20550W        W92843   0.927  26.621  14.368
20551W        W92844   9.744  44.381   3.303
20552W        W92845  35.012  26.655  12.078
20553W        W92846  30.628   9.744  14.953
20554W        W92847  37.358  12.764   4.319
20555W        W92848   7.194  36.527   4.833
20556W        W92849  38.466  33.964  14.903
20557W        W92850  25.581  25.191   2.845
20558W        W92851  21.073  31.470   3.657
20559W        W92852  40.869  20.193  11.945
20560W        W92853  25.714   9.294   1.914
20561W        W92854  20.586  42.381  14.283
20562W        W92855  15.089  27.549   0.941
20563W        W92856  10.224  17.664  13.006
20564W        W92857  34.041  11.693   4.656
20565W        W92858   3.842  22.041   3.251
20566W        W92859  16.123   4.305  14.396
20567W        W92860  36.080  32.140   5.196
20568W        W92861   8.287  21.164  12.093
20569W        W92862  43.473  32.030   0.256
20570W        W92863  31.574   7.201  12.515
20571W        W92864  18.163  34.544  14.331
20572W        W92865   2.906  39.539  12.556
20573W        W92866  28.497  39.419  12.062
20574W        W92867  16.232   4.900  13.913
20575W        W92868  38.326   5.706  10.483
20576W        W92869  25.154   0.965  10.519
20577W        W92870  12.328  44.301   3.383
20578W        W92871  44.400  36.566  10.127
20579W        W92872  38.335  15.188   3.787
20580W        W92873  30.014   3.837  10.410
20581W        W92874   6.397  38.897  10.017
20582W        W92875  18.745  27.954  13.376
20583W        W92876  13.338  34.385  14.457
20584W        W92877  19.259  36.060   3.230
20585W        W92878  31.604  42.299   2.709
20586W        W92879  31.483  41.527   4.628
20587W        W92880  18.057  34.041  13.043
20588W        W92881  41.361   8.359   3.242
20589W        W92882  38.868  21.543   0.826
20590W        W92883  21.663  11.832   4.716
20591W        W92884  22.154  21.728   2.666
20592W        W92885  39.539  24.086  11.391
20593W        W92886   5.425  20.144  10.627
20594W        W92887  15.621   1.370  13.839
20595W        W92888  42.391  40.466   0.781
20596W        W92889  23.622  11.190  13.369
20597W        W92890   9.647   1.921  14.926
20598W        W92891   6.282  37.561  11.119
20599W        W92892  12.625  23.494   0.305
20600W        W92893   3.365  18.101   4.147
20601W        W92894  25.066  43.301  14.477
20602W        W92895   4.781   1.362   1.848
20603W        W92896   0.785  30.078   0.835
20604W        W92897   3.416  26.698  12.896
20605W        W92898   1.463   7.367  11.113
20606W        W92899  39.858  37.336   0.885
20607W        W92900  43.364  13.663  13.836
20608W        W92901  40.458  37.959   3.792
20609W        W92902   3.952   4.260   2.887
20610W        W92903   6.256  23.130  11.444
20611W        W92904  38.865  34.065  12.505
20612W        W92905  38.475  29.034  11.023
20613W        W92906   1.836   6.279  12.974
20614W        W92907  32.447  35.942  10.989
20615W        W92908  30.005  21.075  13.063
20616W        W92909  40.891  33.441   4.209
20617W        W92910   9.156  44.804  13.798
20618W        W92911  33.072   8.670  13.330
20619W        W92912  31.075   1.904  13.309
20620W        W92913  34.952   3.413  12.828
20621W        W92914  32.612  18.257   3.850
20622W        W92915  29.428  22.140  14.403
20623W        W92916   4.332   4.230   2.297
20624W        W92917  42.896  13.165   5.135
20625W        W92918  11.797  28.024  11.461
20626W        W92919  15.282  13.603   4.613
20627W        W92920  27.582   6.333  14.767
20628W        W92921   1.478  26.088  13.334
20629W        W92922  42.817   3.771   1.731
20630W        W92923   8.739  34.531  14.341
20631W        W92924  12.264  10.144  13.505
20632W        W92925  32.622  35.077   1.403
20633W        W92926  12.776  33.411  11.474
20634W        W92927  30.123   7.782  13.945
20635W        W92928  42.901  21.163   3.280
20636W        W92929  12.330  43.395   0.400
20637W        W92930  26.189  15.267  14.345
20638W        W92931  24.224  32.128   5.144
20639W        W92932  42.802  41.960   3.379
20640W        W92933  35.446   8.820   4.672
20641W        W92934   6.368  23.551  12.559
20642W        W92935   2.342   1.951  14.281
20643W        W92936  31.120  23.112  12.891
20644W        W92937  33.503  36.357   0.398
20645W        W92938  35.567  19.641  12.519
20646W        W92939  27.535  13.214  13.343
20647W        W92940  29.055  37.046   1.407
20648W        W92941   7.704  13.781   2.302
20649W        W92942  33.585  38.991  12.824
20650W        W92943  33.419   0.350  13.466
20651W        W92944  36.873   2.794   2.822
20652W        W92945   7.911  33.929  12.030
20653W        W92946  38.857  42.869   2.314
20654W        W92947  39.427  41.924   0.245
20655W        W92948   8.393  20.592  13.483
20656W        W92949  14.197   6.426  11.438
20657W        W92950  21.040  42.430  10.993
20658W        W92951  14.615  24.701  11.398
20659W        W92952  14.704  22.722  12.978
20660W        W92953  16.105   5.287  13.805
20661W        W92954  27.538  13.735   3.275
20662W        W92955  25.704   0.880  12.013
20663W        W92956  27.943  30.158   4.627
20664W        W92957  21.738  23.526   2.863
20665W        W92958   0.359  14.806   1.895
20666W        W92959  32.509   2.411   2.188
20667W        W92960  13.796  21.702  10.419
20668W        W92961   6.421   6.333   2.242
20669W        W92962  21.173  20.569   2.902
20670W        W92963  11.337  44.766  12.032
20671W        W92964  29.659  16.298  14.424
20672W        W92965  14.097  38.348  13.826
20673W        W92966   7.360  31.639  10.947
20674W        W92967  11.342  10.277  10.920
20675W        W92968  23.644  44.990  11.580
20676W        W92969  15.716  26.514  10.988
20677W        W92970  34.498  30.116  10.907
20678W        W92971  34.872  39.995  13.826
20679W        W92972  44.891  44.800  10.463
20680W        W92973  39.951  37.044  14.928
20681W        W92974   1.955  22.548   1.779
20682W        W92975  20.263  12.615  12.045
20683W        W92976   6.787  40.484   0.839
20684W        W92977   6.285  38.076  12.396
20685W        W92978   4.332  40.416  13.439
20686W        W92979  11.728  42.973   1.321
20687W        W92980  13.212  28.591  12.023
20688W        W92981  30.962  12.315   0.726
20689W        W92982  25.604  40.971   3.658
20690W        W92983  43.494  18.145   1.905
20691W        W92984  14.695   5.289   0.732
20692W        W92985  35.488   4.391   3.225
20693W        W92986  15.110  16.269   3.793
20694W        W92987  38.515  33.590   4.725
20695W        W92988  39.888  43.968   3.190
20696W        W92989  38.446  13.680  11.122
20697W        W92990  36.030  19.736   4.246
20698W        W92991  30.148  22.598  14.473
20699W        W92992  24.624  42.284   1.328
20700W        W92993  32.069   0.367   0.758
20701W        W92994  32.126  42.355  13.833
20702W        W92995  44.274   9.849  14.890
20703W        W92996  14.281  34.879  11.954
20704W        W92997  22.615   0.798   4.733
20705W        W92998  31.105  32.972  10.541
20706W        W92999  18.086   2.376  14.850
20707W        W93000  26.131  24.623   0.454
20708W        W93001  29.571  14.315   2.877
20709W        W93002  22.131  23.184   0.423
20710W        W93003  36.477  13.113   0.333
20711W        W93004  24.719  33.912  13.010
20712W        W93005  10.196  41.481  13.837
20713W        W93006   1.435  34.518  14.417
20714W        W93007   2.392  36.862   2.336
20715W        W93008  40.988  27.661   2.889
20716W        W93009  13.113  31.098   3.283
20717W        W93010  19.716   4.901  14.940
20718W        W93011  13.608   3.353  12.467
20719W        W93012  35.934  12.757  13.008
20720W        W93013  12.176  31.983  14.419
20721W        W93014  13.230  32.514  11.597
20722W        W93015  41.827  39.328   1.283
20723W        W93016  11.347  18.271   0.459
20724W        W93017  43.944   0.343  11.440
20725W        W93018  23.081  14.752   0.259
20726W        W93019  24.542   3.710  11.916
20727W        W93020  22.540  11.173  10.463
20728W        W93021  35.386  42.013  12.833
20729W        W93022  29.006  24.588   3.235
20730W        W93023   5.428   5.278   2.415
20731W        W93024  26.162  28.504   3.341
20732W        W93025  44.882   7.752  10.922
20733W        W93026  40.983   3.941   3.242
20734W        W93027   2.321  19.720  11.111
20735W        W93028  37.975  11.148   0.906
20736W        W93029  27.115  36.859  11.123
20737W        W93030  39.531  13.269   0.347
20738W        W93031  29.506   3.927   0.941
20739W        W93032   0.380  10.230   0.801
20740W        W93033  16.164  15.195   1.240
20741W        W93034  43.816   7.260   3.852
20742W        W93035  13.188  41.787   3.319
20743W        W93036  29.001   0.843  11.899
20744W        W93037  21.528  10.649  14.390
20745W        W93038  23.510  24.102  12.011
20746W        W93039   2.462  15.753   4.746
20747W        W93040  30.656  16.756   4.139
20748W        W93041  19.069  16.202   0.348
20749W        W93042  37.373   7.293  13.540
20750W        W93043  37.878  38.567   1.914
20751W        W93044  29.963  14.621   0.336
20752W        W93045  44.490  18.284   2.370
20753W        W93046  30.465   5.802  12.567
20754W        W93047  18.696  27.132   2.378
20755W        W93048  42.000  25.156   5.225
20756W        W93049  22.599  28.973   4.309
20757W        W93050  22.140  10.205   4.674
20758W        W93051   7.831  36.949   9.659
20759W        W93052  17.569  39.415   1.423
20760W        W93053  38.912  13.639  10.968
20761W        W93054   8.175  33.403   9.597
20762W        W93055  16.657   0.461  14.906
20763W        W93056  35.897   2.880  10.405
20764W        W93057  19.238  15.119  10.630
20765W        W93058  40.474  34.416  14.971
20766W        W93059  37.422  19.169   3.831
20767W        W93060  32.396   1.919  13.518
20768W        W93061  18.060  33.524   5.572
20769W        W93062   0.472  16.150   0.394
20770W        W93063  28.069   5.796  11.522
20771W        W93064  32.538  43.009  12.893
20772W        W93065  44.859  29.458   4.649
20773W        W93066   6.823  29.457   2.770
20774W        W93067  15.610  34.064   4.213
20775W        W93068  11.325  14.603  11.451
20776W        W93069  35.487  31.066   2.840
20777W        W93070  18.183  17.627   2.810
20778W        W93071   8.304   1.411   4.812
20779W        W93072  14.738   9.702  10.476
20780W        W93073   4.720  39.950   2.881
20781W        W93074  27.153   7.693   0.281
20782W        W93075  34.954  33.072  12.380
20783W        W93076  14.227  16.783  10.472
20784W        W93077  11.704  16.205   4.677
20785W        W93078   8.166  26.615  13.825
20786W        W93079  23.661  33.399  11.907
20787W        W93080  41.488  30.999  11.543
20788W        W93081  41.361  29.983  14.788
20789W        W93082   4.387   4.715   1.802
20790W        W93083  26.497  36.530  12.951
20791W        W93084  26.457   5.283   0.728
20792W        W93085  16.265  27.055  14.294
20793W        W93086   2.380  39.559   2.706
20794W        W93087  31.018  30.457   2.878
20795W        W93088   0.303  35.977   3.807
20796W        W93089   2.237  27.118   1.712
20797W        W93090  34.544  17.265   2.341
20798W        W93091   4.742  42.876  13.961
20799W        W93092   2.759  43.985   0.959
20800W        W93093  25.188  31.420  10.530
20801W        W93094  15.749   1.833   4.792
20802W        W93095  12.328   9.856  12.477
20803W        W93096  17.238  40.029   4.733
20804W        W93097   0.744   4.358   0.968
20805W        W93098  29.047  35.870   2.229
20806W        W93099   4.916  41.377   3.662
20807W        W93100  18.066   5.214   1.885
20808W        W93101  36.005  38.955   2.779
20809W        W93102   7.237  44.433   4.637
20810W        W93103   9.192   2.779   2.366
20811W        W93104   5.901  31.436  12.380
20812W        W93105  20.262   4.896   4.819
20813W        W93106  11.348   1.397   4.176
20814W        W93107  33.015  34.469  12.864
20815W        W93108  37.540  31.487  11.126
20816W        W93109  10.374  24.479  11.893
20817W        W93110  14.636  38.404   2.769
20818W        W93111  39.950  20.046  10.497
20819W        W93112   6.687  13.142  11.964
20820W        W93113  37.014  21.186   1.908
20821W        W93114  44.902  14.687  13.329
20822W        W93115  38.870  33.056  12.897
20823W        W93116  44.877  29.156   1.321
20824W        W93117  39.455  15.619  13.048
20825W        W93118  25.478  36.876   0.267
20826W        W93119  20.250  24.570  13.433
20827W        W93120  28.574   3.293  13.482
20828W        W93121  12.336  32.949  13.805
20829W        W93122  20.140   6.914   1.874
20830W        W93123  28.092  28.511  13.541
20831W        W93124  35.061  29.521   1.363
20832W        W93125  40.838  26.066   3.236
20833W        W93126  20.105  21.609   2.275
20834W        W93127  15.277  22.509   2.406
20835W        W93128  17.723  12.257   3.751
20836W        W93129  17.711  38.452   1.312
20837W        W93130   2.424  13.120  12.888
20838W        W93131  36.074  28.032   2.326
20839W        W93132  37.500  31.918  10.447
20840W        W93133  38.903   0.448  10.440
20841W        W93134   0.986  24.675  12.019
20842W        W93135  26.110  29.175  13.488
20843W        W93136  42.520  30.533  10.942
20844W        W93137  37.062  12.231   2.758
20845W        W93138  29.625  28.013  11.973
20846W        W93139  22.218   1.735  11.082
20847W        W93140   6.304  31.470   2.202
20848W        W93141  31.574  24.708  13.031
20849W        W93142  41.944  21.657  12.073
20850W        W93143  35.539  24.142  12.425
20851W        W93144  23.073  17.557   0.354
20852W        W93145   1.886  16.658  10.638
20853W        W93146  20.261   9.876  10.521
20854W        W93147  27.995  36.549  10.950
20855W        W93148   1.822  15.720   1.901
20856W        W93149  20.595  20.141  12.490
20857W        W93150  33.989  40.990  11.971
20858W        W93151   4.449  35.381  14.901
20859W        W93152  28.088  35.945   2.890
20860W        W93153  12.251  44.269   0.364
20861W        W93154  34.072  35.476   0.475
20862W        W93155  17.785   3.314  14.514
20863W        W93156  23.122  16.244  14.840
20864W        W93157  33.570  29.936  10.936
20865W        W93158  26.152   8.343   0.433
20866W        W93159  10.851  43.790   2.706
20867W        W93160  21.186  27.188  14.446
20868W        W93161  34.547  42.999   1.394
20869W        W93162   3.216  35.973  14.290
20870W        W93163   6.799  20.046  13.489
20871W        W93164  21.511   6.812  12.981
20872W        W93165  43.399  18.728   1.896
20873W        W93166  15.316  42.791  13.046
20874W        W93167   5.347  11.143  12.382
20875W        W93168  32.455  43.967  11.035
20876W        W93169  23.124  20.535  13.884
20877W        W93170   1.307  16.202   0.457
20878W        W93171  14.749  11.804  13.883
20879W        W93172  15.741   4.415  11.450
20880W        W93173  19.673  12.166   0.835
20881W        W93174  41.889   4.259  12.825
20882W        W93175   0.346  11.685   4.727
20883W        W93176  18.263  14.725  14.027
20884W        W93177  18.726  23.615   9.970
20885W        W93178  33.896  36.390  12.969
20886W        W93179  27.549  14.671  12.884
20887W        W93180  39.436  36.045   0.436
20888W        W93181  32.476  15.147   0.967
20889W        W93182  10.727   4.427  10.465
20890W        W93183  35.378  10.700  10.928
20891W        W93184   3.898  37.526   2.333
20892W        W93185  11.639   4.737   0.934
20893W        W93186  17.288  17.108  12.420
20894W        W93187  43.876   9.778   2.398
20895W        W93188  27.019   4.776   2.804
20896W        W93189  16.711   9.163   2.383
20897W        W93190  29.443  29.534   2.212
20898W        W93191  28.050   9.848   3.852
20899W        W93192  42.330   0.861   5.704
20900W        W93193  20.531  36.495  11.492
20901W        W93194   2.265  44.886   0.748
20902W        W93195  37.379  26.958  10.538
20903W        W93196  40.535   1.267  10.598
20904W        W93197  15.177  40.897   1.377
20905W        W93198  22.149  21.572   3.775
20906W        W93199  41.367  32.975  10.891
20907W        W93200  18.648   1.249   0.945
20908W        W93201  44.439  17.576   4.250
20909W        W93202  23.012  10.230   2.180
20910W        W93203  43.441  31.103   2.411
20911W        W93204  35.089  44.816  12.392
20912W        W93205  32.126  37.487   0.285
20913W        W93206   0.795  35.571  13.548
20914W        W93207  43.288  15.215   1.443
20915W        W93208  10.331  25.491  11.518
20916W        W93209  38.494  25.986  12.567
20917W        W93210  13.195  29.926  13.503
20918W        W93211   8.239  24.198  12.460
20919W        W93212  25.703  35.446  13.436
20920W        W93213  23.659  22.658  12.880
20921W        W93214  30.503  16.629  13.517
20922W        W93215  26.567  12.243   4.647
20923W        W93216  22.665  24.676  12.998
20924W        W93217  37.002   9.868   2.245
20925W        W93218   9.283   7.338  12.354
20926W        W93219  26.679  18.242  10.082
20927W        W93220  27.580  27.004  14.408
20928W        W93221   7.886  10.371   3.161
20929W        W93222  41.388   6.677  13.469
20930W        W93223  16.081  30.596  13.424
20931W        W93224   4.335  19.745   1.347
20932W        W93225  33.533  15.704   2.761
20933W        W93226  37.883  23.730   3.716
20934W        W93227  11.802  14.105   1.430
20935W        W93228  15.698  30.536   4.769
20936W        W93229  39.975  34.094   3.310
20937W        W93230   0.357   7.806  10.986
20938W        W93231  38.339   2.419  13.358
20939W        W93232  44.959   9.858   1.843
20940W        W93233  24.049   2.395   9.490
20941W        W93234   2.433  27.663   2.278
20942W        W93235  12.857  18.263   4.218
20943W        W93236  17.586  19.111  14.955
20944W        W93237  34.378  24.150  12.832
20945W        W93238   1.761  37.949  11.058
20946W        W93239   9.226   4.751   4.798
20947W        W93240   1.891  36.991   0.803
20948W        W93241  11.712  28.092   4.197
20949W        W93242  32.495  29.148  14.316
20950W        W93243  26.467   5.233  13.952
20951W        W93244  31.525  40.884   0.396
20952W        W93245   3.931   3.277  11.518
20953W        W93246  33.394  17.066   4.809
20954W        W93247  28.973  21.068   4.340
20955W        W93248  18.170  12.640  13.815
20956W        W93249  30.444  23.700  12.475
20957W        W93250  25.114  44.868   1.281
20958W        W93251  32.404  42.812   0.762
20959W        W93252  27.642  44.471  10.487
20960W        W93253  42.834  10.351   0.779
20961W        W93254  41.829   3.858  12.835
20962W        W93255  36.502  36.512  10.595
20963W        W93256  22.686  27.494  10.039
20964W        W93257  11.767  30.568  13.973
20965W        W93258   1.923  30.157   2.202
20966W        W93259  23.491  36.073   3.339
20967W        W93260  20.703  19.609   4.291
20968W        W93261  12.320  26.663   0.863
20969W        W93262  35.942  39.431  10.620
20970W        W93263  15.817  22.570   4.301
20971W        W93264  16.141  41.299   1.313
20972W        W93265  40.924  24.705  12.052
20973W        W93266  14.613  17.573  14.284
20974W        W93267  11.231  39.332   0.850
20975W        W93268   2.226  24.166   3.683
20976W        W93269  15.746  31.471   1.270
20977W        W93270   4.204  10.792   2.192
20978W        W93271  31.012  33.430   2.277
20979W        W93272  17.222   8.241  12.567
20980W        W93273  15.642  42.309  11.404
20981W        W93274  14.669  27.625  12.036
20982W        W93275  33.417  35.980  11.510
20983W        W93276  22.711  33.385   2.397
20984W        W93277  42.512  18.777   4.161
20985W        W93278  14.747   4.330   4.686
20986W        W93279  14.667  42.519  14.454
20987W        W93280  22.577  41.913   2.817
20988W        W93281   9.860  31.436  13.353
20989W        W93282   5.414   5.367   0.372
20990W        W93283  31.030   9.252  14.932
20991W        W93284  21.621  42.946   5.185
20992W        W93285  34.547  32.602   1.891
20993W        W93286  16.267  39.063   2.669
20994W        W93287   8.223   2.451  10.581
20995W        W93288  14.731  27.604   4.225
20996W        W93289  18.152  12.213   4.806
20997W        W93290  26.072   1.365  14.311
20998W        W93291  44.362  32.921   3.338
20999W        W93292  10.697  41.356  10.466
21000W        W93293  26.005  14.635   1.698
21001W        W93294  12.292  30.151  12.985
21002W        W93295  13.104   9.771   4.803
21003W        W93296  23.224  24.230   1.337
21004W        W93297  30.481  25.205  12.441
21005W        W93298   1.970  32.916   0.823
21006W        W93299  35.499   3.315  12.032
21007W        W93300  22.226  39.975  11.584
21008W        W93301  40.347  22.532   0.965
21009W        W93302  12.819  24.677   2.358
21010W        W93303   8.658  33.447  10.524
21011W        W93304  32.514  25.125  10.964
21012W        W93305   8.712   6.386  10.415
21013W        W93306  37.562  38.017   1.229
21014W        W93307  15.122  27.099  11.566
21015W        W93308  40.330  29.430   2.887
21016W        W93309  14.655   7.274  10.951
21017W        W93310   8.234  33.625  10.932
21018W        W93311   8.189   7.763   1.215
21019W        W93312  13.802  16.233   4.635
21020W        W93313  17.285  29.145   3.716
21021W        W93314  15.772   9.166  11.546
21022W        W93315  25.690  41.978   0.795
21023W        W93316  33.419  43.420  13.015
21024W        W93317  38.389  38.539   3.771
21025W        W93318  22.599  34.499   4.348
21026W        W93319  26.473  25.691   1.282
21027W        W93320  43.806  44.496   2.763
21028W        W93321  35.551   9.656   1.805
21029W        W93322  38.501  44.778   3.799
21030W        W93323  35.378  28.540  11.985
21031W        W93324  33.602   9.376   2.901
21032W        W93325  40.471  33.386  10.048
21033W        W93326   7.698  36.561   3.180
21034W        W93327  13.156  28.160  13.914
21035W        W93328  40.941  17.259   0.943
21036W        W93329  11.628  38.526   0.878
21037W        W93330  43.484   9.167  12.902
21038W        W93331  21.593  27.089  10.983
21039W        W93332  31.915   4.425  13.871
21040W        W93333  18.176  35.026   4.618
21041W        W93334  15.251  16.115  13.867
21042W        W93335   6.775  10.651  13.874
21043W        W93336   2.332  20.109  10.415
21044W        W93337  43.463   0.812  11.475
21045W        W93338  33.435  23.015  14.327
21046W        W93339  36.044  23.009  13.517
21047W        W93340  22.215  18.655  14.834
21048W        W93341  27.553  15.088  13.842
21049W        W93342  18.649  27.979  12.452
21050W        W93343  34.055   8.353  12.361
21051W        W93344  42.904  31.549   3.646
21052W        W93345  15.723   7.404  12.494
21053W        W93346   4.411  43.918  14.856
21054W        W93347  22.208  27.629  14.957
21055W        W93348  18.762  16.571  14.894
21056W        W93349  36.368  16.135  12.995
21057W        W93350  38.401  11.250  10.454
21058W        W93351  15.603  27.052   2.682
21059W        W93352  30.100  21.098   1.254
21060W        W93353   0.269  33.017   2.855
21061W        W93354  37.968  11.295   1.221
21062W        W93355  10.760   0.275  14.301
21063W        W93356  18.590   1.449  10.913
21064W        W93357  28.503  14.598  13.937
21065W        W93358   0.976  28.977   2.241
21066W        W93359  28.650  43.764  14.939
21067W        W93360  25.171  11.240  13.368
21068W        W93361  30.911  26.575   1.885
21069W        W93362   7.689  15.122  14.783
21070W        W93363  33.072  36.433  11.399
21071W        W93364  27.986  18.565  13.809
21072W        W93365  33.419  22.170  14.982
21073W        W93366  33.561  35.555  14.452
21074W        W93367  33.419   4.411  12.948
21075W        W93368   5.224  42.314  14.403
21076W        W93369  43.440  24.559  11.944
21077W        W93370  34.593  38.500   1.392
21078W        W93371  37.525  44.753  14.980
21079W        W93372   1.291  23.685  11.870
21080W        W93373  42.909  31.999  14.914
21081W        W93374  43.301  13.325   3.691
21082W        W93375  24.184  39.854   2.898
21083W        W93376  20.269   0.310   2.251
21084W        W93377  22.530  15.274   1.232
21085W        W93378  35.557  23.705  14.775
21086W        W93379  17.275  22.168  10.067
21087W        W93380  13.286  29.122  14.375
21088W        W93381  35.043  32.941   1.925
21089W        W93382   0.352   4.917   4.715
21090W        W93383  41.338  34.465  11.081
21091W        W93384  30.498   2.446   5.111
21092W        W93385  12.149  37.889   1.707
21093W        W93386  44.908   4.317   0.418
21094W        W93387   0.318   7.845  11.909
21095W        W93388  18.726   1.748  13.473
21096W        W93389   6.213  37.021  13.436
21097W        W93390  23.728   1.325   4.197
21098W        W93391  42.408   5.313   0.928
21099W        W93392  41.380  29.630  10.448
21100W        W93393   5.260  26.951  13.875
21101W        W93394  19.115   9.335  14.342
21102W        W93395   4.362   0.424  14.306
21103W        W93396  42.452  14.737  12.940
21104W        W93397  42.838  35.053   4.650
21105W        W93398  40.997  44.910   4.739
21106W        W93399  24.149  32.436   4.295
21107W        W93400  36.096   7.246  11.432
21108W        W93401   8.869  39.032  13.530
21109W        W93402  17.169   4.301   4.136
21110W        W93403  12.644   1.354   2.725
21111W        W93404  24.523   4.287   0.779
21112W        W93405  43.442   3.733  14.504
21113W        W93406  37.409   0.277  11.040
21114W        W93407   7.302  39.558   4.654
21115W        W93408  43.786  33.600   0.278
21116W        W93409  42.886  31.580  11.485
21117W        W93410   7.243  18.765   0.244
21118W        W93411   0.958  15.593   3.749
21119W        W93412  43.449  26.980   3.754
21120W        W93413   1.940  41.356   2.724
21121W        W93414  24.981  14.746   0.856
21122W        W93415  12.789   4.298  13.524
21123W        W93416  21.170  29.149  14.359
21124W        W93417   9.217  44.295   4.193
21125W        W93418  33.954  18.133   3.758
21126W        W93419  12.242  10.378   4.136
21127W        W93420   7.339  27.038  13.412
21128W        W93421   9.871  26.490  12.443
21129W        W93422  30.509  19.050   1.909
21130W        W93423  20.678   7.691   2.772
21131W        W93424  32.622  27.031   4.705
21132W        W93425   2.353   0.887  10.610
21133W        W93426  24.529  30.114   3.718
21134W        W93427   0.922  34.058   0.916
21135W        W93428  30.071  36.083  12.422
21136W        W93429   1.379  31.909   0.812
21137W        W93430  12.177   7.264  11.089
21138W        W93431  38.413   9.393   0.415
21139W        W93432  31.929  21.699   4.328
21140W        W93433  41.000  27.944   4.287
21141W        W93434  31.575  10.189   3.637
21142W        W93435   0.988  33.587   3.256
21143W        W93436  43.284  42.841   2.315
21144W        W93437  38.378  35.387   2.825
21145W        W93438  19.249  44.504  10.571
21146W        W93439  22.629  20.074   4.117
21147W        W93440  26.969  24.054   1.787
21148W        W93441   6.229  42.338  11.870
21149W        W93442   2.398  36.004   9.929
21150W        W93443  30.142  16.174  13.332
21151W        W93444  14.210  27.007   2.196
21152W        W93445   8.891   3.216  14.910
21153W        W93446  35.036  11.199  11.867
21154W        W93447  12.338  24.560   2.313
21155W        W93448  16.748  38.467   4.186
21156W        W93449  38.515   6.198  14.911
21157W        W93450  31.033  35.955   1.239
21158W        W93451  28.470  18.781   3.659
21159W        W93452  30.617  32.955   1.874
21160W        W93453  37.966  18.599  12.406
21161W        W93454   5.773  23.537   3.835
21162W        W93455  24.100   5.712  14.370
21163W        W93456  22.218  28.576  11.113
21164W        W93457  25.162  41.342  14.021
21165W        W93458   1.863  16.686  14.505
21166W        W93459  23.019   1.957  13.918
21167W        W93460  19.588   5.740  13.792
21168W        W93461  42.829  14.340   1.929
21169W        W93462  28.961   5.285   0.259
21170W        W93463  21.645   4.384   2.855
21171W        W93464  41.470   6.247  12.350
21172W        W93465  22.588  14.734   1.342
21173W        W93466  30.923   6.356   0.889
21174W        W93467  24.507  32.053   2.858
21175W        W93468  18.768  15.171   3.284
21176W        W93469  35.865  32.999  11.897
21177W        W93470  17.094  10.140   5.316
21178W        W93471  27.474  17.715  14.446
21179W        W93472  23.054   9.388   1.931
21180W        W93473  42.500  27.634  14.379
21181W        W93474  15.321   4.358  11.545
21182W        W93475  28.169  11.827   3.669
21183W        W93476   6.680   9.155   3.741
21184W        W93477   0.481  28.130  13.916
21185W        W93478  26.039  19.661   3.320
21186W        W93479  31.009  15.191  10.581
21187W        W93480  15.312  28.664   2.718
21188W        W93481  28.985  27.983  10.628
21189W        W93482  34.594  15.683   3.325
21190W        W93483  26.466  35.007   0.451
21191W        W93484  34.527   6.873  14.445
21192W        W93485  24.999  35.854   1.334
21193W        W93486  26.571  13.706   4.836
21194W        W93487  23.149   5.784  11.468
21195W        W93488  35.073  18.211   0.271
21196W        W93489   0.837  36.574   1.819
21197W        W93490  28.647  32.494  12.480
21198W        W93491   2.883   6.249  13.916
21199W        W93492  29.467   5.820  13.832
21200W        W93493   3.305   5.889   2.671
21201W        W93494  15.607  13.122  14.912
21202W        W93495  41.299  31.418   0.758
21203W        W93496  43.794  23.494  10.984
21204W        W93497  37.519  24.684   0.968
21205W        W93498   6.918  13.708   3.672
21206W        W93499  27.976  18.295  13.507
21207W        W93500  36.485  13.322   0.913
21208W        W93501  24.589  14.095  12.390
21209W        W93502  33.452  30.637   3.254
21210W        W93503  16.134  42.976  12.342
21211W        W93504  44.422   0.269  12.346
21212W        W93505  14.779  27.527  14.506
21213W        W93506  15.203  33.017  14.509
21214W        W93507  21.066  26.073  12.414
21215W        W93508   7.238  31.470   0.817
21216W        W93509  16.635  42.850   0.448
21217W        W93510  36.909  39.421  12.530
21218W        W93511  23.193  18.075   0.759
21219W        W93512  39.970   7.775  12.511
21220W        W93513  38.009   4.807   3.849
21221W        W93514   3.736  42.448   4.289
21222W        W93515  35.603   5.772   1.883
21223W        W93516  12.732  16.280   0.864
21224W        W93517  25.650  20.548   3.188
21225W        W93518   4.903  17.130   4.732
21226W        W93519  17.731  15.605   3.719
21227W        W93520  22.221  42.488  11.398
21228W        W93521  30.911  31.491   1.382
21229W        W93522  37.562  34.937   1.796
21230W        W93523  25.702   4.797  14.801
21231W        W93524   8.736  14.165  12.949
21232W        W93525  28.445  32.405  13.890
21233W        W93526  23.002  15.093  14.836
21234W        W93527  22.639  19.682  11.454
21235W        W93528  27.504  42.404   0.799
21236W        W93529  16.166  25.601  12.344
21237W        W93530  13.832  11.318   0.256
21238W        W93531   7.699   7.809   2.258
21239W        W93532  37.084  41.973   0.787
21240W        W93533  24.017  24.522  11.021
21241W        W93534  38.074   1.924   3.708
21242W        W93535  24.522  31.133  12.344
21243W        W93536  29.569   9.749   3.806
21244W        W93537  27.141  14.185  13.449
21245W        W93538   9.377  37.973  14.515
21246W        W93539  13.684  29.112  14.994
21247W        W93540  12.678  35.041  13.507
21248W        W93541   8.698  32.429  12.557
21249W        W93542  20.732  32.451   4.713
21250W        W93543  44.433  13.643  11.107
21251W        W93544  30.054   3.413  12.424
21252W        W93545   1.348  42.513  13.935
21253W        W93546  39.462  30.144  13.336
21254W        W93547  14.125   7.372   3.645
21255W        W93548   3.280  35.054  11.610
21256W        W93549  12.158  33.948  10.466
21257W        W93550  28.609   2.952  11.975
21258W        W93551  37.554   4.802  11.569
21259W        W93552  36.555   8.896  10.582
21260W        W93553   1.267  25.071  12.533
21261W        W93554   0.813  30.610  10.057
21262W        W93555  20.187  28.950   0.325
21263W        W93556  40.889   2.339   4.315
21264W        W93557  40.371  16.109  14.406
21265W        W93558   9.209   5.430   1.255
21266W        W93559  18.085  37.520  12.832
21267W        W93560   9.869  43.472  14.018
21268W        W93561  20.739  19.178   4.707
21269W        W93562  42.979  10.875  14.328
21270W        W93563  29.503  25.995  13.832
21271W        W93564  23.135  18.646  14.326
21272W        W93565  16.285  13.823   2.200
21273W        W93566  42.936  35.535   2.404
21274W        W93567  24.142   5.844  13.416
21275W        W93568  16.599  42.316  14.467
21276W        W93569  17.706   6.344   1.768
21277W        W93570  15.316  31.943  12.911
21278W        W93571   8.697  35.900   0.412
21279W        W93572  15.265  27.465   2.189
21280W        W93573  28.626  37.041   3.299
21281W        W93574  23.549   6.735   2.857
21282W        W93575  25.053  35.358  13.964
21283W        W93576  14.212  28.945   4.330
21284W        W93577  35.007  41.342   3.716
21285W        W93578  40.489  36.552  12.405
21286W        W93579  42.005  21.671   2.283
21287W        W93580  10.320  36.995  13.968
21288W        W93581   2.950  20.099   1.828
21289W        W93582  38.460   3.328   2.229
21290W        W93583  24.562  22.087   4.819
21291W        W93584  22.689  41.302   9.969
21292W        W93585  42.285  29.009   0.425
21293W        W93586  10.370   1.426   2.418
21294W        W93587  22.058  41.355   1.349
21295W        W93588  11.705  22.243  13.992
21296W        W93589   2.880  16.696  10.972
21297W        W93590   5.929  15.814   0.310
21298W        W93591  35.984  37.416   2.807
21299W        W93592  36.460  16.775  12.963
21300W        W93593  29.667   1.959  10.997
21301W        W93594  40.036  44.497  12.933
21302W        W93595  11.661  24.577   3.865
21303W        W93596  39.877   3.778  10.570
21304W        W93597  23.693  13.648  11.979
21305W        W93598   4.806  18.705   1.927
21306W        W93599  14.614  44.504   3.815
21307W        W93600   1.355  24.062   4.611
21308W        W93601  13.792   3.373   3.165
21309W        W93602  21.758  10.146   0.350
21310W        W93603  14.636   8.280  13.033
21311W        W93604  44.780   1.782  10.479
21312W        W93605  43.485  11.847   2.300
21313W        W93606   9.882  17.692   4.670
21314W        W93607  12.169  37.860  14.986
21315W        W93608  40.012  30.454  11.081
21316W        W93609  36.920  10.244  12.443
21317W        W93610  23.240  31.448   4.341
21318W        W93611  19.248  23.557   4.628
21319W        W93612  25.655  17.253   1.295
21320W        W93613  23.643  25.592   3.859
21321W        W93614   8.345  16.659   2.791
21322W        W93615  39.967   6.814   2.384
21323W        W93616   7.326  31.404   1.261
21324W        W93617  21.039  22.176  10.568
21325W        W93618  10.850   6.300  14.962
21326W        W93619  41.498  18.725   0.850
21327W        W93620   7.799   7.188   2.371
21328W        W93621  37.514  19.045   2.693
21329W        W93622  27.572   0.393  10.596
21330W        W93623  13.129  16.072   3.188
21331W        W93624  26.016  43.853  14.297
21332W        W93625  10.272  42.848   0.413
21333W        W93626  13.812  13.776  11.407
21334W        W93627  34.525  19.100  14.397
21335W        W93628  36.030  23.690  13.873
21336W        W93629  12.665  38.542   0.393
21337W        W93630  23.013   7.897   2.332
21338W        W93631  26.575  13.223   3.695
21339W        W93632  11.643  20.202  14.823
21340W        W93633  15.760  12.183  10.536
21341W        W93634  19.648  15.284  11.915
21342W        W93635  21.050  13.640   2.265
21343W        W93636  18.704  43.864  10.962
21344W        W93637  11.331  25.128   0.857
21345W        W93638  24.614  19.536  14.941
21346W        W93639  39.064   0.989  10.451
21347W        W93640  33.610  34.900  13.974
21348W        W93641   1.464  26.648  11.477
21349W        W93642  35.389   1.345  13.836
21350W        W93643  34.882   1.765   3.203
21351W        W93644  14.699  35.408  11.500
21352W        W93645  18.764  28.045   4.778
21353W        W93646  36.972  22.214   0.778
21354W        W93647  38.463  30.075  13.939
21355W        W93648   5.282   9.375  13.429
21356W        W93649  40.896  40.513   2.668
21357W        W93650  18.123  25.014  11.504
21358W        W93651  17.289  37.954   2.199
21359W        W93652  35.891  13.663  10.574
21360W        W93653  33.933  25.077  11.544
21361W        W93654  43.936  37.387   1.368
21362W        W93655  12.330  31.045   0.730
21363W        W93656   6.853  31.645  13.378
21364W        W93657  44.450  26.603   1.906
21365W        W93658  17.305  36.499   1.706
21366W        W93659  15.703  43.892  14.948
21367W        W93660  33.961  34.550   1.818
21368W        W93661  27.655   4.413  13.816
21369W        W93662  16.157  11.652  14.862
21370W        W93663  14.642   7.357  13.952
21371W        W93664  17.147   0.810   0.946
21372W        W93665  17.106  12.617   0.470
21373W        W93666   1.422  38.542  10.567
21374W        W93667   1.824  31.134  12.870
21375W        W93668  27.113  27.538  12.870
21376W        W93669  10.252  33.382   3.720
21377W        W93670  35.548  44.977   2.705
21378W        W93671  35.056  37.470   3.721
21379W        W93672   1.242  39.465   2.346
21380W        W93673  20.053  44.838  14.765
21381W        W93674   1.860  16.297  10.977
21382W        W93675  41.994  27.119   2.310
21383W        W93676  40.943  26.591  12.482
21384W        W93677  17.213  44.845   2.255
21385W        W93678  23.621   3.880  14.408
21386W        W93679  26.667   4.294   1.706
21387W        W93680  39.423  17.097  10.428
21388W        W93681   2.862  26.566  14.834
21389W        W93682   8.673  15.111   4.280
21390W        W93683  11.781  22.168  12.012
21391W        W93684  10.828  26.133  14.020
21392W        W93685  32.594  22.703   4.669
21393W        W93686  38.852  10.225   4.837
21394W        W93687  11.690  28.528  10.502
21395W        W93688  30.003   8.684   3.291
21396W        W93689  32.590  26.688  14.808
21397W        W93690  27.120  42.515   1.778
21398W        W93691  30.554  10.302   3.818
21399W        W93692  43.412  37.958  12.538
21400W        W93693   3.874   2.444  11.489
21401W        W93694  18.609  37.492  12.044
21402W        W93695   7.304  23.190  14.415
21403W        W93696   3.924   3.405  12.885
21404W        W93697  10.828  36.393   3.664
21405W        W93698  43.860  18.590  10.547
21406W        W93699  13.350  19.542   0.941
21407W        W93700  27.517  39.968  11.943
21408W        W93701  20.134  19.674  13.854
21409W        W93702  30.640  39.852  11.939
21410W        W93703  23.575  14.688  11.083
21411W        W93704  22.657   5.850   2.883
21412W        W93705  31.600  36.485   2.393
21413W        W93706  42.893  22.607  14.442
21414W        W93707  13.830   9.344  14.280
21415W        W93708  14.640   7.212  12.339
21416W        W93709  13.209  41.993   3.630
21417W        W93710   7.823  14.612  13.996
21418W        W93711   8.296  37.983  14.446
21419W        W93712  18.614  22.741  13.401
21420W        W93713   5.239  37.084   0.765
21421W        W93714  30.025  33.486  11.091
21422W        W93715  24.018   9.200   0.301
21423W        W93716  44.968  27.166  11.433
21424W        W93717  36.363   8.334  12.438
21425W        W93718  38.842  31.629  11.885
21426W        W93719   8.352  27.474   0.738
21427W        W93720   5.433   0.349  14.467
21428W        W93721  23.531  12.771  12.090
21429W        W93722  36.979  19.250  13.389
21430W        W93723  15.270  18.278  11.429
21431W        W93724  31.425  38.946  14.480
21432W        W93725  14.275  34.889  14.927
21433W        W93726  23.593  44.443   0.478
21434W        W93727  11.273  15.640   1.726
21435W        W93728  42.855   7.202   0.358
21436W        W93729  25.997  23.223  13.954
21437W        W93730  19.644  21.609  12.926
21438W        W93731  34.566  41.312   2.818
21439W        W93732  40.477  34.070  13.968
21440W        W93733  17.190  19.630  14.398
21441W        W93734  26.150  18.272  13.319
21442W        W93735  19.141  37.363   5.191
21443W        W93736  13.778  18.644  12.963
21444W        W93737  25.197  27.495   4.698
21445W        W93738  39.454  14.668   4.813
21446W        W93739  25.107  44.776  10.973
21447W        W93740  14.604  26.033  13.371
21448W        W93741  24.649   1.350   1.391
21449W        W93742  38.849  17.144  11.582
21450W        W93743  33.430  39.877   1.726
21451W        W93744  23.192  42.803  14.982
21452W        W93745  33.944  42.029  12.940
21453W        W93746  30.987  39.855   4.208
21454W        W93747  30.470  42.847   2.399
21455W        W93748  26.675  33.979  13.499
21456W        W93749  41.930  43.516   9.622
21457W        W93750  25.215  28.506   4.647
21458W        W93751   5.288  15.686   4.320
21459W        W93752  19.157   7.357   1.349
21460W        W93753   9.194  13.157  12.368
21461W        W93754  14.127  28.664  11.528
21462W        W93755  40.005  41.944  10.892
21463W        W93756   9.200  39.511   2.789
21464W        W93757  32.463  41.293  11.430
21465W        W93758  39.918  31.049   3.849
21466W        W93759   8.389   6.740   2.731
21467W        W93760   6.237  11.156   1.213
21468W        W93761  11.299   3.875  13.392
21469W        W93762  41.451  28.038  12.077
21470W        W93763   7.376  39.460  10.561
21471W        W93764  28.493  39.363   1.810
21472W        W93765  36.494  22.044   4.186
21473W        W93766   8.658  35.504   4.613
21474W        W93767  23.692   5.268   3.706
21475W        W93768  13.249  33.920   2.798
21476W        W93769  11.177   5.763  13.792
21477W        W93770  31.426  28.063   4.266
21478W        W93771  39.492  38.517   3.829
21479W        W93772  13.326   4.232  11.979
21480W        W93773  15.654  37.364   0.958
21481W        W93774  43.869  19.237  13.824
21482W        W93775   7.681  38.950  10.546
21483W        W93776  28.503  39.339   0.277
21484W        W93777  35.528  30.126  10.535
21485W        W93778  43.423   9.783  14.959
21486W        W93779  39.950  10.214   3.726
21487W        W93780   4.419   2.784  14.985
21488W        W93781  44.481   2.902  12.403
21489W        W93782  42.975   7.182  12.950
21490W        W93783  16.809   5.820   2.784
21491W        W93784  32.499  42.005   3.226
21492W        W93785  10.815  23.096  12.918
21493W        W93786  41.822   1.279   5.100
21494W        W93787   3.734  13.677   1.254
21495W        W93788  37.441  23.551  11.525
21496W        W93789  34.091  24.215  11.001
21497W        W93790  14.652  37.890  11.987
21498W        W93791  28.943  39.979  14.888
21499W        W93792  15.201  23.603  14.291
21500W        W93793   8.872  32.062   1.226
21501W        W93794  15.172  38.545  13.052
21502W        W93795  11.746  40.491   3.382
21503W        W93796  36.867  33.973  14.513
21504W        W93797   6.203   7.267  10.152
21505W        W93798  41.936  10.780  10.451
21506W        W93799  41.347  15.284   0.285
21507W        W93800  30.998  10.632  10.517
21508W        W93801   9.298  28.634  11.868
21509W        W93802   7.395  30.473   3.641
21510W        W93803  31.124   9.210  13.797
21511W        W93804  13.835  30.647   0.308
21512W        W93805   6.182  41.305   3.856
21513W        W93806   6.840  40.871   3.793
21514W        W93807   7.779  29.590  12.393
21515W        W93808  38.428  24.585  13.825
21516W        W93809  43.295  33.392  12.424
21517W        W93810  28.622   5.216  12.020
21518W        W93811  41.415  10.751   4.286
21519W        W93812  12.658  28.650  13.391
21520W        W93813   0.784  20.067  12.379
21521W        W93814  41.814  20.644  12.563
21522W        W93815   3.948  20.251  12.835
21523W        W93816   8.209   3.229  11.541
21524W        W93817  30.033   2.425  13.417
21525W        W93818   1.786   9.855   2.209
21526W        W93819  16.184   7.693   1.252
21527W        W93820  10.721  10.700   3.349
21528W        W93821   1.809   8.327   1.305
21529W        W93822   1.951  27.507   0.424
21530W        W93823   8.686  23.025   2.817
21531W        W93824  21.020  38.007  14.276
21532W        W93825  28.022  31.489  11.445
21533W        W93826  36.497   1.823   1.785
21534W        W93827  26.479  16.701   3.243
21535W        W93828   6.922   9.246  13.474
21536W        W93829  25.162  15.222  12.425
21537W        W93830  20.636  34.379  12.504
21538W        W93831  32.935  36.486  13.814
21539W        W93832   7.812   9.317  12.079
21540W        W93833  18.750   0.251  12.884
21541W        W93834  18.698  20.099  10.119
21542W        W93835  31.100  33.072   4.146
21543W        W93836  40.346  10.844   4.826
21544W        W93837  40.463  18.571   1.873
21545W        W93838  37.408  23.699   1.351
21546W        W93839  31.645  29.569  12.428
21547W        W93840  35.027   9.295  12.483
21548W        W93841  22.640   2.771   5.241
21549W        W93842  38.965   3.860   4.177
21550W        W93843  19.545  16.573  11.015
21551W        W93844  23.238  40.051  13.405
21552W        W93845   8.791  38.919   0.420
21553W        W93846  33.546   9.816   4.156
21554W        W93847  30.646  24.479  11.460
21555W        W93848  32.124  43.836  10.977
21556W        W93849  24.006  20.172   0.784
21557W        W93850   9.340  28.944  11.966
21558W        W93851  26.205   2.723  14.303
21559W        W93852  19.122  30.143   2.852
21560W        W93853  18.701  11.622   4.119
21561W        W93854  27.023  40.397   9.981
21562W        W93855   7.223  26.193   0.863
21563W        W93856  26.044  11.716  10.950
21564W        W93857  14.304  14.147   0.294
21565W        W93858  41.320  15.657   4.193
21566W        W93859  38.418  28.973   1.779
21567W        W93860  10.674  30.103  13.035
21568W        W93861  41.466  28.954   1.248
21569W        W93862   1.797  19.721   4.773
21570W        W93863   7.219  44.839   0.344
21571W        W93864   0.827  27.476   1.748
21572W        W93865  35.460  42.010  14.298
21573W        W93866  41.518  22.248  10.474
21574W        W93867  36.849   0.434  13.855
21575W        W93868  16.105   6.859   1.369
21576W        W93869   6.199  37.421   3.735
21577W        W93870  29.931   9.698   3.819
21578W        W93871  26.040  34.404   4.275
21579W        W93872  17.723   3.907  14.959
21580W        W93873  34.932  42.459   1.925
21581W        W93874   7.381  15.678  12.996
21582W        W93875   1.328  34.120   4.800
21583W        W93876  32.901  24.132  12.356
21584W        W93877  33.503  23.535   4.698
21585W        W93878  33.986  23.213  12.943
21586W        W93879  37.470   7.756   0.850
21587W        W93880  42.490  37.936   2.187
21588W        W93881  21.725  20.741  10.556
21589W        W93882  11.700  41.954  13.416
21590W        W93883   9.206  19.675  11.004
21591W        W93884  21.568  37.465  12.450
21592W        W93885   2.314  21.549  10.980
21593W        W93886  30.481  44.775  11.013
21594W        W93887  40.460  28.470   4.673
21595W        W93888  37.016  37.437  12.939
21596W        W93889  44.924  13.262   3.810
21597W        W93890  17.127   4.874   4.645
21598W        W93891  20.221  39.858   2.349
21599W        W93892  20.541  39.898  13.014
21600W        W93893  35.405  17.743  14.761
21601W        W93894  12.616  29.582   1.238
21602W        W93895  10.866  33.924  10.608
21603W        W93896  37.552   9.821  13.426
21604W        W93897  25.191  26.170  13.468
21605W        W93898  28.062  15.154   4.719
21606W        W93899   3.906   3.742   1.802
21607W        W93900  33.083  27.564   0.342
21608W        W93901   1.830   6.683   1.868
21609W        W93902  43.496  14.319   0.889
21610W        W93903  15.215  15.621   4.783
21611W        W93904  29.137  35.041   3.695
21612W        W93905  32.117  11.368  11.929
21613W        W93906  35.875   5.768  13.944
21614W        W93907  27.560  33.913   4.727
21615W        W93908  37.504  35.974   4.162
21616W        W93909  17.577  22.084  13.500
21617W        W93910  37.432  43.460  13.962
21618W        W93911  18.296  32.045  13.993
21619W        W93912  41.787   7.841   3.317
21620W        W93913  14.338  36.960   1.435
21621W        W93914  16.568  19.651   0.315
21622W        W93915  32.606  39.471  10.546
21623W        W93916   9.880  20.253  13.001
21624W        W93917   2.794  43.308  11.488
21625W        W93918  20.137  44.007  11.915
21626W        W93919  32.129  21.644  10.449
21627W        W93920  14.633  28.146   2.377
21628W        W93921  31.061  22.206   1.365
21629W        W93922   0.867  31.490   0.383
21630W        W93923  26.170  14.820  14.370
21631W        W93924  39.382  36.930  12.566
21632W        W93925  24.646  32.944   1.224
21633W        W93926   9.288  25.984  10.473
21634W        W93927  41.960  38.498  14.381
21635W        W93928  35.597  22.673  14.852
21636W        W93929  44.339  34.524  14.868
21637W        W93930   6.408  12.790   0.848
21638W        W93931  38.992  41.938  11.117
21639W        W93932  38.959  23.718   1.378
21640W        W93933  40.856  18.068  10.474
21641W        W93934  39.050   5.225  12.555
21642W        W93935  35.029  24.616   4.261
21643W        W93936  44.362   2.728   2.902
21644W        W93937  35.386  12.621  10.622
21645W        W93938  39.508  37.582   2.791
21646W        W93939   4.897  28.526  10.064
21647W        W93940  17.707  29.958  13.437
21648W        W93941  26.049   5.340   0.411
21649W        W93942   6.893  15.681   4.189
21650W        W93943  10.140  39.981   3.296
21651W        W93944  33.580  14.788   4.809
21652W        W93945  25.129  18.750   3.664
21653W        W93946  21.662   5.900  14.444
21654W        W93947   6.364  41.373   1.449
21655W        W93948  37.434   1.951  13.816
21656W        W93949  36.033  31.038   0.919
21657W        W93950   1.424  23.201  14.461
21658W        W93951  16.637   6.207  13.031
21659W        W93952  21.187  33.554   5.205
21660W        W93953  34.480   9.784   4.618
21661W        W93954  27.480  31.916  14.769
21662W        W93955  34.564  39.885   3.333
21663W        W93956  43.370  14.774   2.682
21664W        W93957  24.195  30.488   2.778
21665W        W93958  42.930  19.179   3.176
21666W        W93959  12.677   1.898   2.702
21667W        W93960  21.587  32.045  10.067
21668W        W93961  39.996  32.522  13.478
21669W        W93962  12.718  23.643   1.391
21670W        W93963  35.959  34.507  10.959
21671W        W93964  25.044  37.893  14.794
21672W        W93965  17.143  10.765  13.928
21673W        W93966   7.336  34.965   3.293
21674W        W93967  13.718  10.347  14.319
21675W        W93968   3.955  40.913  10.432
21676W        W93969  13.758  17.795   4.203
21677W        W93970  28.559  33.094  14.833
21678W        W93971  20.570  22.069   1.399
21679W        W93972  43.487  13.123  14.023
21680W        W93973  42.466  18.784  14.031
21681W        W93974  26.460  35.599   1.345
21682W        W93975  26.175   4.885  10.509
21683W        W93976  36.968  34.966  14.290
21684W        W93977  37.473  13.734   3.266
21685W        W93978   2.883  12.197  13.833
21686W        W93979  43.803   7.250   4.599
21687W        W93980  16.811  39.927   2.207
21688W        W93981  21.072  34.474   4.255
21689W        W93982  42.299  30.482  12.396
21690W        W93983  27.025   6.275   1.859
21691W        W93984  20.700  44.458  13.459
21692W        W93985  22.044  12.278  11.017
21693W        W93986  23.523  41.321   2.355
21694W        W93987   7.264  25.606   0.314
21695W        W93988  42.816  35.555   0.740
21696W        W93989  37.437  11.859  10.602
21697W        W93990  15.683  30.514  14.494
21698W        W93991  43.793  21.231   1.775
21699W        W93992  18.615  26.700   4.326
21700W        W93993   8.736  40.470   1.772
21701W        W93994  42.498  44.432  11.510
21702W        W93995   8.359  35.430   1.753
21703W        W93996   4.357  34.009   4.183
21704W        W93997   7.182  32.960   5.254
21705W        W93998  20.530  13.621   0.257
21706W        W93999   5.366  43.467  11.077
21707W        W94000  26.572   2.956   0.460
21708W        W94001  15.607   0.302   3.679
21709W        W94002  34.411  17.073   1.309
21710W        W94003  28.170  35.497   3.290
21711W        W94004   7.191   6.360   3.272
21712W        W94005  33.967  33.575   3.631
21713W        W94006   8.833  13.170   0.911
21714W        W94007  35.476  34.479  10.587
21715W        W94008   3.368  43.767  11.860
21716W        W94009  39.322  28.641  12.893
21717W        W94010  44.783  43.917  13.005
21718W        W94011  11.307  28.565   4.687
21719W        W94012  25.606  29.459   1.388
21720W        W94013  44.472  36.991   2.333
21721W        W94014  33.902  25.476  10.627
21722W        W94015  34.989  26.138   4.344
21723W        W94016  37.572  43.879   1.777
21724W        W94017  43.859  40.309   1.246
21725W        W94018  37.372  12.290   4.736
21726W        W94019  28.653  34.903   3.669
21727W        W94020  26.066  26.030  12.377
21728W        W94021  28.035  32.393   3.723
21729W        W94022  14.771  24.498  13.830
21730W        W94023   1.921  40.968  13.805
21731W        W94024  36.931  26.171   3.312
21732W        W94025  30.969  14.331   2.746
21733W        W94026  37.950  37.989   4.741
21734W        W94027  19.140  43.363   4.823
21735W        W94028  14.790  24.083   0.451
21736W        W94029   9.286  19.760   9.998
21737W        W94030  19.571  22.712  13.465
21738W        W94031  18.082   5.197   3.863
21739W        W94032  21.158   6.197  14.778
21740W        W94033  33.477  33.014   0.360
21741W        W94034   9.210  33.888   3.634
21742W        W94035   6.283  19.622   3.266
21743W        W94036  34.524  28.451   3.360
21744W        W94037  17.153   1.482   1.782
21745W        W94038  12.265  36.483  11.110
21746W        W94039   0.414  35.942  13.872
21747W        W94040  20.553   7.277   2.761
21748W        W94041  19.246  25.118  10.455
21749W        W94042  42.907  23.194   2.349
21750W        W94043  10.693   8.740   1.390
21751W        W94044   7.407  23.240   1.909
21752W        W94045  31.960  37.566  10.015
21753W        W94046  15.189   2.931   4.763
21754W        W94047   4.874  41.797  14.372
21755W        W94048  20.735  16.196   1.825
21756W        W94049  39.951  25.473   3.285
21757W        W94050   7.224  37.035   0.302
21758W        W94051  14.768  19.129   1.779
21759W        W94052  37.932   9.273   0.438
21760W        W94053   9.682  37.986  13.377
21761W        W94054  18.151   2.377  11.913
21762W        W94055  11.299  42.830   2.686
21763W        W94056   5.428  24.658   3.212
21764W        W94057  33.579  30.446   0.430
21765W        W94058  15.633  16.739  12.480
21766W        W94059  16.294   2.895  10.063
21767W        W94060  44.455  39.839   2.882
21768W        W94061   5.334  16.711   1.808
21769W        W94062  18.116  22.230   0.351
21770W        W94063  36.577  41.815  10.472
21771W        W94064   1.828  40.491   3.654
21772W        W94065  12.617  22.706   1.341
21773W        W94066  39.439   7.199   1.754
21774W        W94067  31.921  21.105   3.319
21775W        W94068  29.485  44.326   4.129
21776W        W94069  37.357  22.226   0.463
21777W        W94070  11.716  15.207  10.972
21778W        W94071  15.172  24.580  13.830
21779W        W94072   7.807   4.216  12.537
21780W        W94073  11.295  36.020   4.604
21781W        W94074  36.891  11.189  10.497
21782W        W94075  37.077   2.775   3.299
21783W        W94076  33.601   7.178  11.892
21784W        W94077  33.528  33.058   3.346
21785W        W94078  25.006  19.621  14.414
21786W        W94079  38.423  32.430  10.491
21787W        W94080  23.616  12.244   4.114
21788W        W94081   9.740  14.121  14.377
21789W        W94082  22.571  16.227  10.927
21790W        W94083  35.452   7.780  11.553
21791W        W94084  19.223   9.217   2.315
21792W        W94085  34.009  32.419  13.901
21793W        W94086   3.427  33.041  10.629
21794W        W94087  14.653  33.431  11.060
21795W        W94088  42.793  31.009   2.841
21796W        W94089   5.876  17.695   0.389
21797W        W94090  28.468  43.805  11.917
21798W        W94091  34.513  41.020  13.535
21799W        W94092  29.438  12.847   5.200
21800W        W94093   7.230  13.215   2.685
21801W        W94094  30.518  31.446   1.290
21802W        W94095  43.915  30.584  14.336
21803W        W94096  42.878   6.248   0.831
21804W        W94097  36.881  11.203   1.246
21805W        W94098   4.295  12.786  12.891
21806W        W94099  36.003  16.266  10.541
21807W        W94100   5.206  33.942   2.413
21808W        W94101  31.567   4.757  13.924
21809W        W94102  41.495  10.241   0.273
21810W        W94103   3.248  29.651  12.027
21811W        W94104  29.548  37.502  10.956
21812W        W94105  37.566  41.819  12.074
21813W        W94106  43.884  36.873   0.439
21814W        W94107   4.767  44.950  13.026
21815W        W94108   9.166  31.523   0.784
21816W        W94109  21.069  28.503  13.328
21817W        W94110  23.562  22.189  14.805
21818W        W94111  12.150   2.410   5.719
21819W        W94112   3.907  39.970   3.297
21820W        W94113   9.387  24.490  11.388
21821W        W94114  16.303  20.271  10.534
21822W        W94115  24.217   3.906   3.280
21823W        W94116  39.362  15.585  14.882
21824W        W94117  40.030  40.823  12.459
21825W        W94118   6.826  16.785  10.613
21826W        W94119  11.176  43.510  14.782
21827W        W94120   6.715  10.657   0.901
21828W        W94121   1.754  39.498  12.487
21829W        W94122   6.864  16.188  11.074
21830W        W94123  22.043   6.856   3.300
21831W        W94124  14.593   5.924  11.462
21832W        W94125   7.861   8.701   3.785
21833W        W94126  10.791  23.593   3.752
21834W        W94127   2.453  29.055   4.812
21835W        W94128   0.856  28.480  14.919
21836W        W94129  24.045  16.725  13.498
21837W        W94130  32.413  14.248  11.499
21838W        W94131  32.143  39.347  11.931
21839W        W94132  44.443   6.908   1.852
21840W        W94133   6.398   9.737   2.205
21841W        W94134  24.606  22.087  13.523
21842W        W94135  17.121  21.193   4.768
21843W        W94136  38.962  28.141  14.378
21844W        W94137  13.143   6.916   2.744
21845W        W94138  11.664  16.575  11.008
21846W        W94139  31.608  29.919  12.392
21847W        W94140  29.980  44.326  11.104
21848W        W94141   9.170  17.608  12.831
21849W        W94142  22.566  15.173  12.866
21850W        W94143  40.461  42.818  11.910
21851W        W94144  24.672  26.677  14.437
21852W        W94145  14.796  12.156  12.422
21853W        W94146  19.754  24.036   1.292
21854W        W94147  32.502  25.681   4.177
21855W        W94148  40.898  28.147   2.862
21856W        W94149  23.043  42.344   4.354
21857W        W94150  32.930  17.628   3.180
21858W        W94151  39.053  37.446  14.296
21859W        W94152  44.970  22.123  13.903
21860W        W94153  26.476   2.746   0.875
21861W        W94154  11.192  32.410  14.965
21862W        W94155   9.709   6.760  13.365
21863W        W94156  22.220  34.466   4.644
21864W        W94157   5.240   7.813  11.451
21865W        W94158  20.029   1.277   4.797
21866W        W94159   6.393  43.991  13.326
21867W        W94160  14.651  35.973  11.113
21868W        W94161   5.406   1.322   1.429
21869W        W94162  22.634  43.284  10.496
21870W        W94163  29.987  32.581   4.732
21871W        W94164  28.470  41.324   0.352
21872W        W94165   0.257  35.543   2.790
21873W        W94166  33.528  15.724  13.036
21874W        W94167  42.933  30.414  11.440
21875W        W94168   4.798  32.432  14.849
21876W        W94169  28.662  44.339   4.719
21877W        W94170  28.958  20.654  12.540
21878W        W94171  41.011  12.153   4.162
21879W        W94172  15.127  42.021  13.364
21880W        W94173   4.745  36.979  14.768
21881W        W94174  30.021  21.086  13.320
21882W        W94175  17.786  36.928   2.754
21883W        W94176   4.374  27.075  14.508
21884W        W94177   6.896  19.088   1.915
21885W        W94178  17.687   5.433   0.771
21886W        W94179  34.581  41.362  12.502
21887W        W94180  23.599   4.940  14.856
21888W        W94181   5.398  34.489   3.853
21889W        W94182  43.940  15.182   1.777
21890W        W94183  14.782   6.191   2.405
21891W        W94184  39.000  27.165   3.215
21892W        W94185   3.751  27.516  11.589
21893W        W94186  37.836  12.225  10.994
21894W        W94187   1.347  15.765  13.838
21895W        W94188  18.551  38.038   3.856
21896W        W94189  12.652  42.786   3.813
21897W        W94190   9.324  33.927  11.382
21898W        W94191   8.312  36.936  14.941
21899W        W94192   0.872  41.535   4.259
21900W        W94193   0.483  35.864  11.425
21901W        W94194  24.181   2.876   3.865
21902W        W94195   0.871  38.958   0.313
21903W        W94196  21.209   4.720   4.697
21904W        W94197   4.247   3.363   1.399
21905W        W94198  19.264  41.879   4.668
21906W        W94199  25.069   0.820   5.162
21907W        W94200  22.097  32.083  12.926
21908W        W94201   8.337  29.462   0.355
21909W        W94202  21.672  10.217  12.939
21910W        W94203  44.262  11.207  11.589
21911W        W94204  34.868  41.796   1.870
21912W        W94205  26.667  32.588  12.877
21913W        W94206  42.419  16.265   0.345
21914W        W94207   0.928  10.755   0.846
21915W        W94208  11.780  16.701   0.452
21916W        W94209  36.968  43.825   0.393
21917W        W94210  23.704   6.298  10.940
21918W        W94211  18.787  20.523  12.435
21919W        W94212  35.464  42.457   3.288
21920W        W94213  24.503  44.921  11.911
21921W        W94214   1.916  23.687  11.000
21922W        W94215  42.318   0.299   3.798
21923W        W94216  36.362  16.702   2.787
21924W        W94217   5.816  23.016   1.801
21925W        W94218  28.982  27.174   3.337
21926W        W94219  22.059  17.219  13.806
21927W        W94220  25.985  11.129  11.105
21928W        W94221  21.132   3.721  11.962
21929W        W94222  33.448   3.324  11.497
21930W        W94223  31.085  21.689  13.910
21931W        W94224  34.050  13.314   0.426
21932W        W94225   5.204  12.127   1.285
21933W        W94226   0.782  44.305   0.454
21934W        W94227  25.616  19.661  10.546
21935W        W94228  29.469  22.601  13.845
21936W        W94229  44.392   1.796   4.683
21937W        W94230  22.025  18.256  14.430
21938W        W94231  31.497  26.547   2.901
21939W        W94232   6.858  39.495  14.767
21940W        W94233  22.747  17.757   4.690
21941W        W94234  18.636   7.379   1.921
21942W        W94235  21.577  34.898   2.775
21943W        W94236  18.270  11.262   0.774
21944W        W94237   0.290   2.864  11.542
21945W        W94238  10.871  42.017   2.770
21946W        W94239  20.558   1.449  13.376
21947W        W94240  34.368  19.751  14.991
21948W        W94241  33.097   8.378   0.331
21949W        W94242  22.091  40.503   4.234
21950W        W94243  43.976  41.806   3.839
21951W        W94244   7.889  24.636  13.016
21952W        W94245  38.548  32.539   4.765
21953W        W94246  11.661  38.519  14.299
21954W        W94247  23.647   9.805  12.508
21955W        W94248  12.696  17.098   4.725
21956W        W94249  17.640  19.230   0.811
21957W        W94250  30.978  30.645   4.834
21958W        W94251  10.220  29.030   4.754
21959W        W94252  42.358  31.983  10.058
21960W        W94253  25.219  32.563  14.917
21961W        W94254  12.665  21.241  10.476
21962W        W94255  35.857  19.091   3.211
21963W        W94256   3.432  43.799   0.408
21964W        W94257  21.184  18.752  13.825
21965W        W94258  32.140   0.404  11.956
21966W        W94259   4.235  24.227   0.296
21967W        W94260  31.131  31.145  10.509
21968W        W94261   9.820   7.673   1.757
21969W        W94262   0.332  24.114   3.702
21970W        W94263  14.725  28.626   1.931
21971W        W94264  28.933  27.197   3.689
21972W        W94265  35.472  16.176   1.295
21973W        W94266  24.082   0.923   3.743
21974W        W94267  43.022   3.395  10.429
21975W        W94268  13.732  38.534  10.905
21976W        W94269  26.602   3.800  13.395
21977W        W94270  29.083  24.570  11.522
21978W        W94271  19.170  23.586   4.235
21979W        W94272  32.582  38.031   4.203
21980W        W94273  18.760   4.816  14.314
21981W        W94274  13.735  38.855  12.843
21982W        W94275  14.302  43.849  13.963
21983W        W94276  34.896  40.369   1.355
21984W        W94277  26.595  21.527   0.822
21985W        W94278  20.143  29.979   9.992
21986W        W94279  14.684  44.345  11.611
21987W        W94280   2.849   1.743  14.452
21988W        W94281  28.085  15.249   3.268
21989W        W94282  20.534  13.638   4.285
21990W        W94283   2.762  31.405  11.935
21991W        W94284  27.069   6.679   2.342
21992W        W94285  12.653  14.808  14.892
21993W        W94286  23.641   2.442  10.417
21994W        W94287  33.600   4.367  10.000
21995W        W94288  43.485  40.455   4.338
21996W        W94289  41.811  28.084  13.402
21997W        W94290   0.961  41.802   4.768
21998W        W94291  44.974  23.614   2.885
21999W        W94292  13.227  13.298  11.438
22000W        W94293  12.205   1.289  11.565
22001W        W94294  35.397   4.244   4.318
22002W        W94295  24.705  34.005   2.808
22003W        W94296  23.068  27.953  12.463
22004W        W94297  32.468  20.764  13.922
22005W        W94298  24.053  44.831   3.235
22006W        W94299  25.179  22.523  13.008
22007W        W94300  25.507  24.999  10.500
22008W        W94301  25.555  10.294  10.574
22009W        W94302  14.126   8.354   4.773
22010W        W94303  13.751   4.341  11.546
22011W        W94304   2.888  29.519  13.949
22012W        W94305  15.251   6.205  14.444
22013W        W94306  43.308  26.108   1.776
22014W        W94307  33.550   5.789   4.145
22015W        W94308  39.004  30.015   4.334
22016W        W94309  38.479  18.106  14.423
22017W        W94310  23.058  39.031  13.500
22018W        W94311  43.784  27.956  12.020
22019W        W94312   2.725  43.420   0.398
22020W        W94313  21.619   2.306  14.303
22021W        W94314  18.244  17.672  14.844
22022W        W94315  27.589  34.558  13.336
22023W        W94316   7.302  34.899   0.367
22024W        W94317  35.938   4.781   0.367
22025W        W94318  16.614  27.112  10.513
22026W        W94319  23.592   6.869   3.810
22027W        W94320  28.496  28.537  14.374
22028W        W94321  23.236   6.388  14.823
22029W        W94322  11.271  22.665   1.862
22030W        W94323  43.460  10.294  13.916
22031W        W94324  34.609  11.287  11.954
22032W        W94325  34.404  36.096  14.370
22033W        W94326   1.793  36.891   1.273
22034W        W94327  24.002  15.251   3.683
22035W        W94328  29.472  35.554   3.656
22036W        W94329  44.385  15.231   2.350
22037W        W94330  25.037  35.548  12.340
22038W        W94331   7.673  38.856   5.101
22039W        W94332   6.222  25.496   2.664
22040W        W94333  35.104  40.438  13.862
22041W        W94334  11.192   1.755  13.812
22042W        W94335  25.533  42.334  13.809
22043W        W94336  19.285  24.987  11.469
22044W        W94337  13.149  26.656   1.803
22045W        W94338  38.545  24.001   2.715
22046W        W94339  25.170   1.403  11.119
22047W        W94340  43.925  30.418   4.223
22048W        W94341  24.605  29.466   3.637
22049W        W94342  17.796   3.352   4.721
22050W        W94343  13.151  16.248   2.839
22051W        W94344  17.281  20.525   1.849
22052W        W94345  40.381   2.372  14.842
22053W        W94346  39.357  35.977  10.512
22054W        W94347  35.880  19.222   2.239
22055W        W94348  35.390   6.701  11.549
22056W        W94349  27.126  13.180  12.890
22057W        W94350   1.890   7.336  10.420
22058W        W94351  41.389  25.094  10.917
22059W        W94352  12.124  29.009   3.778
22060W        W94353  30.974  33.625   1.862
22061W        W94354  32.610  40.385  10.612
22062W        W94355  12.132  16.780   2.699
22063W        W94356  11.813  33.904  10.486
22064W        W94357  40.418  42.336   4.696
22065W        W94358  23.191  31.450   1.701
22066W        W94359  14.826  10.241  13.506
22067W        W94360  30.930   4.770  11.498
22068W        W94361  42.482  42.486  11.404
22069W        W94362   8.313  10.248   1.361
22070W        W94363   0.922   0.969   0.271
22071W        W94364  14.133  35.860  13.504
22072W        W94365  10.249  27.028  13.307
22073W        W94366  14.715  36.446   1.336
22074W        W94367  40.364   2.892  13.973
22075W        W94368  31.965  28.660  11.997
22076W        W94369  33.060  36.393   2.724
22077W        W94370  11.233  34.020   1.902
22078W        W94371  33.109  33.034   1.869
22079W        W94372   4.386  43.803  13.846
22080W        W94373  15.654  28.117   2.874
22081W        W94374   7.265  39.002  11.562
22082W        W94375  36.573  30.971   2.204
22083W        W94376  35.385  42.456   3.693
22084W        W94377   2.392  25.142   2.314
22085W        W94378  29.065  35.108   0.878
22086W        W94379   0.355  11.166   0.349
22087W        W94380  34.908  25.698  14.791
22088W        W94381  44.825  19.171  14.944
22089W        W94382  12.624  40.957  12.969
22090W        W94383   6.710  34.920  12.823
22091W        W94384  23.061  43.800  12.487
22092W        W94385  17.604  13.713  14.925
22093W        W94386  38.509  20.666  10.897
22094W        W94387  44.997  41.401  14.977
22095W        W94388  12.275  37.354  14.372
22096W        W94389  36.028  11.199   2.258
22097W        W94390  27.012  19.126  13.446
22098W        W94391  29.641   9.282  13.421
22099W        W94392  24.184  40.443  13.004
22100W        W94393  37.945   0.804   3.722
22101W        W94394  41.953  36.058   5.201
22102W        W94395  40.495  41.516  10.967
22103W        W94396  39.862  39.320   1.411
22104W        W94397   5.813   0.322  11.379
22105W        W94398  24.015  32.091  10.039
22106W        W94399  44.479   2.821  12.056
22107W        W94400  43.972  11.812  12.567
22108W        W94401   5.896   5.361   4.205
22109W        W94402  42.522  25.579  10.461
22110W        W94403  23.984  12.164   1.230
22111W        W94404  29.483  23.136  14.814
22112W        W94405  25.983  21.060  13.840
22113W        W94406  31.499  24.168  12.932
22114W        W94407  21.173  34.456  11.570
22115W        W94408  19.202  33.567  13.511
22116W        W94409  27.003   0.763   0.400
22117W        W94410  44.839  16.699   3.706
22118W        W94411  43.495  34.015   5.129
22119W        W94412  40.374  39.926  13.457
22120W        W94413  30.148  28.479   3.795
22121W        W94414  18.657  38.041   4.796
22122W        W94415  27.564  24.530   1.875
22123W        W94416   3.364  27.588  11.865
22124W        W94417   3.456  11.770   2.741
22125W        W94418  42.887  21.221   2.392
22126W        W94419   1.450  42.978  14.906
22127W        W94420  11.835  26.162   3.356
22128W        W94421  25.986  36.004  14.891
22129W        W94422  30.093  10.333   3.742
22130W        W94423  42.323  40.010   0.417
22131W        W94424   3.382   1.464  14.356
22132W        W94425  26.979  35.442  10.420
22133W        W94426  41.405  26.067   0.431
22134W        W94427  39.847  12.155   3.835
22135W        W94428  20.691  16.306   1.368
22136W        W94429  13.763  40.495   2.418
22137W        W94430  30.090   5.721  11.065
22138W        W94431  25.470   7.762   4.224
22139W        W94432  20.186  33.907   1.745
22140W        W94433  38.413  16.608   4.707
22141W        W94434  40.990  30.997   2.195
22142W        W94435   0.870  19.671  11.028
22143W        W94436  29.058  41.975  10.640
22144W        W94437  36.567  34.497  11.474
22145W        W94438  44.865   7.194  12.340
22146W        W94439   7.704  36.490  12.861
22147W        W94440  19.041  16.115   2.762
22148W        W94441  12.771   4.747  13.346
22149W        W94442  15.577  33.456   0.359
22150W        W94443  43.815  28.575   3.214
22151W        W94444  41.909  22.738   4.116
22152W        W94445  21.084  24.121   0.857
22153W        W94446  32.483  30.009   0.445
22154W        W94447  31.087  31.057  11.988
22155W        W94448  21.023   8.733  14.313
22156W        W94449  31.639  21.160   2.727
22157W        W94450  20.672  16.263  14.339
22158W        W94451  42.322  12.260  13.512
22159W        W94452  17.603  39.364   4.292
22160W        W94453  41.963   4.908  14.451
22161W        W94454  29.599  12.297  14.771
22162W        W94455  24.153  28.524   0.419
22163W        W94456  33.036  27.116   1.769
22164W        W94457  19.225  34.502  11.474
22165W        W94458  20.607  39.837   2.691
22166W        W94459   6.898  38.555   2.670
22167W        W94460  40.383  36.854   4.235
22168W        W94461  23.238  20.202   1.302
22169W        W94462   7.265  41.809   4.217
22170W        W94463   0.460  40.318   2.368
22171W        W94464  22.175  31.911   1.362
22172W        W94465  33.591  21.060   3.700
22173W        W94466  11.317  39.941  11.027
22174W        W94467  34.370   5.840   2.296
22175W        W94468  16.695   9.643  12.372
22176W        W94469  34.978  35.911   3.366
22177W        W94470  20.540  25.526   4.661
22178W        W94471  18.776  28.654  13.428
22179W        W94472  28.011  38.539   4.774
22180W        W94473  31.547  22.582   1.790
22181W        W94474  40.895  23.175  10.555
22182W        W94475  26.481   0.973   1.435
22183W        W94476  31.491  44.491   2.298
22184W        W94477  20.745   1.806   1.882
22185W        W94478  26.150  36.382  14.298
22186W        W94479  41.378  16.582   2.362
22187W        W94480  35.524  36.096  12.971
22188W        W94481  27.505  41.032   4.702
22189W        W94482  32.952  39.558  10.482
22190W        W94483  23.630   1.355  12.912
22191W        W94484  43.488  25.119   2.288
22192W        W94485  44.841   4.405  10.482
22193W        W94486  14.654  26.518   2.247
22194W        W94487   5.234  38.960  10.932
22195W        W94488  38.926  26.953   1.803
22196W        W94489  13.643  28.504   3.741
22197W        W94490  34.460  15.272   2.216
22198W        W94491  35.970  19.142  12.559
22199W        W94492  33.112  19.085  13.323
22200W        W94493   1.876  24.112  13.016
22201W        W94494   1.389  40.937  13.348
22202W        W94495   5.689  24.041   0.320
22203W        W94496   8.698  10.309   0.912
22204W        W94497   4.793  19.539   2.179
22205W        W94498   4.871  43.001  13.024
22206W        W94499  36.947  42.878  14.336
22207W        W94500  30.585   0.421   0.797
22208W        W94501   8.888   7.301  12.895
22209W        W94502  25.597  21.114   0.414
22210W        W94503  35.394  40.504  14.352
22211W        W94504   2.306  14.137   4.704
22212W        W94505  30.457  17.753   3.648
22213W        W94506  25.562  22.080   3.161
22214W        W94507   9.768  15.776  14.345
22215W        W94508  33.495   1.432  11.610
22216W        W94509  26.034  21.530  12.864
22217W        W94510  42.287  18.118  11.019
22218W        W94511  41.467  35.857  13.310
22219W        W94512  11.864  33.388   4.234
22220W        W94513   3.850  19.065  12.062
22221W        W94514  26.580  38.524  13.931
22222W        W94515  19.039   2.884   0.450
22223W        W94516  42.464  10.310   4.256
22224W        W94517  23.045  13.686  13.344
22225W        W94518  14.765  32.952  14.337
22226W        W94519   1.447   9.152   0.266
22227W        W94520  36.475  24.218  14.853
22228W        W94521  22.605  44.784   9.932
22229W        W94522  40.886   3.326  14.951
22230W        W94523  13.320  11.675  14.998
22231W        W94524   3.842   1.763   3.250
22232W        W94525  42.022   0.269  14.361
22233W        W94526  11.128  41.994  14.832
22234W        W94527  21.159  23.011  13.962
22235W        W94528  12.357  40.885  14.368
22236W        W94529   0.817  41.788  13.451
22237W        W94530  44.947  18.245  14.444
22238W        W94531  25.471   6.301   3.710
22239W        W94532  39.492   3.269   2.863
22240W        W94533   0.862  24.002  11.557
22241W        W94534  21.565  10.666   0.759
22242W        W94535  17.200  31.927  11.535
22243W        W94536  20.711  20.684   2.373
22244W        W94537  16.304  18.612  10.553
22245W        W94538   8.818   9.327   1.450
22246W        W94539   6.784  38.946  12.034
22247W        W94540  40.324  32.005   1.788
22248W        W94541  43.401  29.070   0.816
22249W        W94542  27.128  33.025   3.242
22250W        W94543  34.448  39.395   1.326
22251W        W94544  33.581   5.294  11.453
22252W        W94545  34.088   5.904  10.946
22253W        W94546  18.689  25.022  12.876
22254W        W94547   9.271  31.950  13.363
22255W        W94548   2.764  43.960  12.516
22256W        W94549  41.338  44.879  11.550
22257W        W94550  23.495  22.241   3.224
22258W        W94551  31.539   3.750   1.328
22259W        W94552   6.257   2.300   2.750
22260W        W94553   2.410   4.707   4.725
22261W        W94554  41.893  43.972   0.772
22262W        W94555  34.489  27.138   2.230
22263W        W94556   7.246   3.249  14.366
22264W        W94557  42.438  16.102  13.916
22265W        W94558  31.460  43.469   4.280
22266W        W94559  17.289   4.333   3.807
22267W        W94560  32.939  21.037  14.340
22268W        W94561  12.203  31.645  12.830
22269W        W94562  36.508   2.313  10.917
22270W        W94563  33.401  16.796   3.191
22271W        W94564  35.921  27.983   3.218
22272W        W94565  19.550  38.511   3.364
22273W        W94566  15.675  21.172   4.763
22274W        W94567  22.171  37.862   3.208
22275W        W94568  15.303  19.072   1.300
22276W        W94569   8.253  17.612  13.542
22277W        W94570  15.088  12.245   1.829
22278W        W94571  34.942  11.657  14.316
22279W        W94572  41.026  18.746   4.293
22280W        W94573  40.975  44.366  12.093
22281W        W94574   2.855  12.216   1.218
22282W        W94575  36.483  32.488  14.362
22283W        W94576   1.247  26.474   1.423
22284W        W94577  43.493  30.494   2.681
22285W        W94578  21.239  26.117   2.662
22286W        W94579  41.432  28.501   3.281
22287W        W94580  23.219  39.026  12.381
22288W        W94581  36.847  17.598   4.607
22289W        W94582  10.329  19.285   1.211
22290W        W94583  27.113  15.651  13.388
22291W        W94584  39.014  17.140  12.339
22292W        W94585  25.052  17.752   0.482
22293W        W94586  20.685  20.062  13.367
22294W        W94587  13.767  41.355   2.815
22295W        W94588   6.749   2.229  10.505
22296W        W94589  26.567  34.024  11.422
22297W        W94590  31.422  31.632   3.358
22298W        W94591   2.763  42.871   1.744
22299W        W94592   0.258  14.785   3.280
22300W        W94593   3.920  33.052  14.492
22301W        W94594  12.139  20.244  14.954
22302W        W94595   6.240  14.309  14.388
22303W        W94596  41.020  19.150   2.401
22304W        W94597  34.908  36.029  14.019
22305W        W94598  11.355  41.042   2.366
22306W        W94599   3.436  34.516   9.992
22307W        W94600  16.684  20.099  11.389
22308W        W94601  31.088   1.967  10.128
22309W        W94602   4.338  36.430  13.489
22310W        W94603  24.722  38.844   2.258
22311W        W94604   1.258  34.084  13.018
22312W        W94605   8.338  41.404  12.569
22313W        W94606  17.614  24.613   4.609
22314W        W94607  44.348  25.577  12.080
22315W        W94608  17.688   5.798   4.343
22316W        W94609  33.883   1.743  14.492
22317W        W94610  23.511  17.681   4.806
22318W        W94611  17.572   5.924  13.800
22319W        W94612   5.343  14.746   4.134
22320W        W94613   5.830  25.468   2.797
22321W        W94614  44.788  28.475  10.452
22322W        W94615  29.577  10.826  12.981
22323W        W94616  26.073  13.624   2.267
22324W        W94617  33.011   4.240  11.381
22325W        W94618  38.345   5.278  14.428
22326W        W94619   2.802   6.217   2.215
22327W        W94620  22.241   3.292   4.772
22328W        W94621  26.086  44.840   3.799
22329W        W94622  42.799  30.537   3.340
22330W        W94623  22.118  43.437   0.482
22331W        W94624   6.214  38.862   1.414
22332W        W94625  13.753  36.524  12.511
22333W        W94626  31.147  20.523  11.410
22334W        W94627  28.512  19.602  12.414
22335W        W94628  34.486  24.520   2.770
22336W        W94629  27.545  30.466   2.418
22337W        W94630  23.548  24.607  14.003
22338W        W94631  40.900  29.603  12.490
22339W        W94632  12.357  24.661  14.784
22340W        W94633   9.848  19.668  13.338
22341W        W94634  43.487  15.600   3.233
22342W        W94635  24.616  25.018   0.378
22343W        W94636  33.496   5.778  13.973
22344W        W94637  33.035  34.414  12.455
22345W        W94638   1.966  24.488  13.030
22346W        W94639  38.933  11.166  12.923
22347W        W94640  23.216   2.303   3.293
22348W        W94641  44.337  19.072   3.359
22349W        W94642  43.459   8.289  14.430
22350W        W94643  43.401  13.300  12.364
22351W        W94644   1.287  15.631   1.702
22352W        W94645  14.645  29.513   1.283
22353W        W94646   0.415  44.932  10.588
22354W        W94647  19.218  26.012  13.863
22355W        W94648  34.567  37.988  13.795
22356W        W94649  11.788  43.488  13.491
22357W        W94650   4.922   9.265  14.826
22358W        W94651   0.282  17.757  14.920
22359W        W94652  18.604  40.839  11.895
22360W        W94653  34.927  30.028   3.811
22361W        W94654   6.319  44.358  12.488
22362W        W94655  27.969   8.885   0.959
22363W        W94656   0.931  27.600   0.831
22364W        W94657  35.513  20.254  13.876
22365W        W94658  12.182  20.271  12.357
22366W        W94659   1.290  42.361   1.853
22367W        W94660  13.258   6.739  10.437
22368W        W94661  29.606  32.085  13.977
22369W        W94662  19.702  30.451  14.361
22370W        W94663  23.697  28.157  11.960
22371W        W94664  38.871  16.297   2.277
22372W        W94665  27.646  31.099   4.642
22373W        W94666  19.119  41.527  14.985
22374W        W94667   6.373   1.918  11.917
22375W        W94668   2.402  24.034  13.010
22376W        W94669   3.925  17.152  14.765
22377W        W94670  27.517  42.494   1.894
22378W        W94671  15.174  37.441  13.407
22379W        W94672  44.833   0.360  13.435
22380W        W94673   5.245  14.186   3.214
22381W        W94674   2.398  21.221  14.893
22382W        W94675  23.052  42.427   1.866
22383W        W94676   4.739  28.095  13.434
22384W        W94677  34.932  30.162   2.381
22385W        W94678  17.650  41.827  14.849
22386W        W94679  19.655  20.208  10.950
22387W        W94680   6.322  34.075   4.809
22388W        W94681  12.685   7.405  11.057
22389W        W94682  19.580  32.537   4.321
22390W        W94683  34.097  39.951  12.986
22391W        W94684   9.662   1.461   0.735
22392W        W94685   4.706  11.255   4.674
22393W        W94686  17.080   7.201   3.784
22394W        W94687  26.014  38.947   2.398
22395W        W94688  21.030  32.539   2.895
22396W        W94689  26.644  21.157  11.576
22397W        W94690   0.766  42.365  11.945
22398W        W94691   0.419  18.057   0.954
22399W        W94692   1.946   5.221  13.999
22400W        W94693  33.918  42.847  10.522
22401W        W94694  43.840   6.846   0.469
22402W        W94695  30.938   7.302   2.217
22403W        W94696   1.762  38.452  14.024
22404W        W94697   2.848  32.611   1.920
22405W        W94698  13.305  38.006   1.795
22406W        W94699  19.246  44.398  12.896
22407W        W94700  33.907  41.481   3.285
22408W        W94701  13.251   1.816   3.254
22409W        W94702  18.779  42.444  11.929
22410W        W94703  44.497   1.820  11.476
22411W        W94704  42.994   5.280   1.443
22412W        W94705  43.935  11.246   3.220
22413W        W94706  40.384  20.670   0.777
22414W        W94707  43.879  37.966   2.227
22415W        W94708  18.602  25.537  14.952
22416W        W94709  10.728  39.483   4.836
22417W        W94710  38.867   6.414  10.577
22418W        W94711  20.210  28.571   0.887
22419W        W94712   4.343   4.762  11.419
22420W        W94713  16.703  31.898   3.819
22421W        W94714  38.988  27.157   1.339
22422W        W94715  42.984  21.618  14.890
22423W        W94716  43.821   2.380  10.470
22424W        W94717   7.721  27.168   4.740
22425W        W94718  33.510  41.904  13.395
22426W        W94719  11.845  13.122   4.139
22427W        W94720  39.929  36.843  12.364
22428W        W94721  11.315   5.426  11.965
22429W        W94722  21.149  36.012   3.776
22430W        W94723  19.237  21.101   2.677
22431W        W94724   8.365  27.101   0.464
22432W        W94725  24.072  34.925   2.896
22433W        W94726  33.553  39.060   2.865
22434W        W94727  40.378  32.505   0.283
22435W        W94728  33.934  26.505  11.912
22436W        W94729  29.638  28.002   1.361
22437W        W94730  20.112  24.066   5.144
22438W        W94731  13.781  37.074   0.859
22439W        W94732  42.020  43.767  11.865
22440W        W94733   1.466  43.447   1.845
22441W        W94734  11.279  23.168  13.471
22442W        W94735  12.840  37.367  10.891
22443W        W94736  10.686  25.166   3.229
22444W        W94737   7.852   2.304  14.380
22445W        W94738   3.782  44.426  10.640
22446W        W94739  11.699  34.375   2.267
22447W        W94740  40.422  42.789  14.000
22448W        W94741   3.384  21.696   2.822
22449W        W94742   0.825   0.856  11.947
22450W        W94743  12.358  38.064   4.347
22451W        W94744   8.822  22.646  14.956
22452W        W94745  13.322  32.548   0.356
22453W        W94746  18.641   4.373   1.409
22454W        W94747  41.951  13.145   1.885
22455W        W94748  44.881  41.024  12.565
22456W        W94749   4.339  30.425   4.184
22457W        W94750  10.336  32.549  10.975
22458W        W94751  40.529  13.637   1.379
22459W        W94752  13.337  38.555   3.185
22460W        W94753  36.570  38.941   3.743
22461W        W94754  38.020   3.855  13.029
22462W        W94755  43.386  19.579  13.420
22463W        W94756  26.034  32.925   3.725
22464W        W94757  37.997  36.908   4.265
22465W        W94758  37.909  21.532   4.211
22466W        W94759  21.183   9.770   0.906
22467W        W94760  38.535  24.514   0.787
22468W        W94761   4.883  34.470  10.949
22469W        W94762  38.404  18.178   0.731
22470W        W94763  17.130  35.577  11.949
22471W        W94764   8.197   6.819  11.547
22472W        W94765   6.835  25.148   3.814
22473W        W94766  42.912  31.971   4.182
22474W        W94767  43.961  18.713  10.052
22475W        W94768  40.441  27.630   3.703
22476W        W94769  21.717   9.709  12.075
22477W        W94770   7.732  34.396   4.268
22478W        W94771   7.910  30.497   1.406
22479W        W94772   0.824  44.314   4.164
22480W        W94773  39.975  32.625   3.809
22481W        W94774  16.118  30.059  12.898
22482W        W94775   9.749  34.947  10.029
22483W        W94776  40.865  11.350  11.905
22484W        W94777  22.128  22.722   1.842
22485W        W94778   7.671  37.527  12.435
22486W        W94779  28.506  12.176   4.316
22487W        W94780  14.233  30.939   1.924
22488W        W94781  34.934   6.195  10.537
22489W        W94782  27.649  35.463   0.289
22490W        W94783  11.668  34.398  13.423
22491W        W94784   2.770  35.528   0.357
22492W        W94785  34.944  33.560  13.876
22493W        W94786  40.469  41.851  12.422
22494W        W94787  21.665   6.699  14.817
22495W        W94788  35.518  29.456  14.872
22496W        W94789  36.082   8.794   1.802
22497W        W94790  37.559   9.346   3.842
22498W        W94791  29.025  18.599  13.920
22499W        W94792  16.798  13.688  10.604
22500W        W94793  37.938  28.106  14.424
22501W        W94794  44.348  26.648   3.720
22502W        W94795  32.538  28.032   1.840
22503W        W94796  22.014  22.610  12.579
22504W        W94797   5.301  18.728  10.550
22505W        W94798  14.598  25.578   3.376
22506W        W94799  17.715  34.920  14.802
22507W        W94800  35.049  22.685   1.368
22508W        W94801   4.833  10.702  12.907
22509W        W94802  38.071  39.834   0.850
22510W        W94803  44.872   2.744   0.796
22511W        W94804  30.975  20.619  13.366
22512W        W94805  13.133  20.626   3.222
22513W        W94806  11.738   9.167  12.879
22514W        W94807   2.249  22.214   3.708
22515W        W94808  34.035  28.634   1.768
22516W        W94809  17.642   7.715  13.841
22517W        W94810   2.879  31.109  13.064
22518W        W94811  32.982  17.102   2.184
22519W        W94812  32.588  29.484  11.099
22520W        W94813  42.370  18.743  10.413
22521W        W94814  38.073  15.183   2.198
22522W        W94815  27.998  24.679  13.490
22523W        W94816  20.275  39.823  13.855
22524W        W94817  18.686  30.444  14.428
22525W        W94818   9.337  21.138  11.611
22526W        W94819  34.981  19.659   2.668
22527W        W94820   3.784  26.963  13.457
22528W        W94821   1.454  28.031  12.989
22529W        W94822  29.454  26.199   1.401
22530W        W94823  13.684  37.966   4.338
22531W        W94824  12.362  17.781  11.089
22532W        W94825  38.487  17.617  11.378
22533W        W94826   5.838   6.690  14.336
22534W        W94827   0.954  28.955   2.778
22535W        W94828  36.528  38.836   2.762
22536W        W94829  14.602   6.729   1.887
22537W        W94830  27.992  28.612   4.207
22538W        W94831  23.732  23.004   3.641
22539W        W94832  31.028  39.554  11.025
22540W        W94833  18.275  28.521   4.344
22541W        W94834   2.405  39.352   4.832
22542W        W94835  15.623  21.042  12.889
22543W        W94836   5.707  13.652  11.403
22544W        W94837  44.342  32.064  14.466
22545W        W94838  11.144  30.125   1.364
22546W        W94839  15.683  43.852   4.204
22547W        W94840  25.576  15.205   2.670
22548W        W94841  32.092   0.256  14.820
22549W        W94842  29.919  37.043   1.746
22550W        W94843  27.511  10.150  14.827
22551W        W94844  22.576  16.767   0.747
22552W        W94845  15.220  44.428   4.199
22553W        W94846  30.059   6.848  14.405
22554W        W94847  23.078   4.448   3.863
22555W        W94848  33.895  41.295   4.160
22556W        W94849  26.040  37.888  11.482
22557W        W94850  18.753  27.025   0.948
22558W        W94851  41.025  31.610   4.347
22559W        W94852  28.656   5.763  14.942
22560W        W94853  27.162  36.844   1.890
22561W        W94854  12.259   7.702   2.280
22562W        W94855  15.737   7.674   4.274
22563W        W94856  20.211  34.522   1.211
22564W        W94857   0.425  22.615   0.939
22565W        W94858   6.725  37.919  11.428
22566W        W94859  34.101  16.313   1.427
22567W        W94860  31.153  38.340   1.226
22568W        W94861  34.563   5.296   2.319
22569W        W94862   3.446  33.471  12.418
22570W        W94863  25.685   0.793  13.487
22571W        W94864  43.353  44.454   2.883
22572W        W94865   9.724  29.563   1.836
22573W        W94866  36.944  26.650   2.413
22574W        W94867  18.286   8.890  14.988
22575W        W94868  31.089   4.221   4.141
22576W        W94869  21.604  35.417   4.603
22577W        W94870  41.924  13.182  13.386
22578W        W94871  32.922  38.505  12.485
22579W        W94872   2.428  23.719   0.867
22580W        W94873  29.994  15.639  11.600
22581W        W94874  14.186  27.517   1.816
22582W        W94875  37.453  14.816  11.474
22583W        W94876   8.798  17.749   3.168
22584W        W94877  17.298   6.707   2.371
22585W        W94878   2.364  13.779  12.466
22586W        W94879  37.058  25.608   4.753
22587W        W94880   2.378  35.864   3.309
22588W        W94881  23.647  16.185  11.449
22589W        W94882  20.554  40.828   2.389
22590W        W94883   3.771  38.413   2.225
22591W        W94884  35.031  14.278   2.729
22592W        W94885  26.197  42.295  13.437
22593W        W94886  22.619  40.845   0.261
22594W        W94887  40.810  37.006  10.569
22595W        W94888  15.662   9.204  10.939
22596W        W94889   6.369  34.563  14.473
22597W        W94890  17.137  34.422   4.835
22598W        W94891   1.912   4.427   3.678
22599W        W94892   9.686  31.125  13.806
22600W        W94893   0.963  14.198   2.859
22601W        W94894  25.018  24.073   3.334
22602W        W94895  21.667   0.978   1.263
22603W        W94896  35.564  38.046   4.116
22604W        W94897  39.933   1.365  13.829
22605W        W94898  40.438  18.749  11.986
22606W        W94899  30.076   3.846  12.027
22607W        W94900   5.758   9.688  13.516
22608W        W94901  35.109  22.128   1.407
22609W        W94902  40.904  34.532  12.453
22610W        W94903  30.516  30.145   3.257
22611W        W94904  32.483  28.507  10.424
22612W        W94905  15.810  28.496   4.732
22613W        W94906  20.686  33.545  13.839
22614W        W94907  37.856  24.622  14.912
22615W        W94908  13.145  19.639  10.038
22616W        W94909   3.751  29.442   4.620
22617W        W94910  25.628   4.914   0.261
22618W        W94911   1.477   5.396  13.877
22619W        W94912  39.334  39.392  13.815
22620W        W94913  29.476  35.883  13.918
22621W        W94914  15.283  37.359   0.397
22622W        W94915   4.922  19.251  14.439
22623W        W94916   5.737  17.063   4.788
22624W        W94917  43.843  33.984   0.422
22625W        W94918  21.126  42.987   4.118
22626W        W94919   5.229   1.430  13.016
22627W        W94920  27.091  42.523  10.914
22628W        W94921  35.988   7.391   4.697
22629W        W94922   0.493   7.221  11.067
22630W        W94923   6.829  28.955  11.458
22631W        W94924   0.780  38.922  14.838
22632W        W94925  33.030  15.204   3.629
22633W        W94926  43.308   2.831  10.623
22634W        W94927  17.778  25.154  13.351
22635W        W94928  11.834  17.623   2.728
22636W        W94929  36.932   6.386  11.986
22637W        W94930  30.014  25.059  13.015
22638W        W94931  27.020  28.142   3.261
22639W        W94932  37.562  24.074  13.459
22640W        W94933  39.337   6.874   2.379
22641W        W94934   6.247  32.413  11.603
22642W        W94935  32.960  41.832   0.450
22643W        W94936  26.699  44.385   4.351
22644W        W94937   8.709   2.446  10.586
22645W        W94938  22.094   6.364  14.943
22646W        W94939  23.519  20.200  12.021
22647W        W94940  11.715  43.921  11.947
22648W        W94941  19.284  11.297   1.795
22649W        W94942   5.687  33.927   4.645
22650W        W94943   7.813  10.816   3.734
22651W        W94944  12.138   3.907   1.353
22652W        W94945  30.983  38.844  11.115
22653W        W94946  33.587  19.072   0.801
22654W        W94947  35.105   1.977  14.335
22655W        W94948  34.952  43.516   4.353
22656W        W94949  29.047  36.981  12.382
22657W        W94950  13.807  22.508  14.787
22658W        W94951  28.634   4.728   1.759
22659W        W94952  41.463  42.826   3.219
22660W        W94953   2.431  15.798   1.822
22661W        W94954   7.846  36.380   4.300
22662W        W94955  30.973   4.213   4.772
22663W        W94956  32.443  37.869  11.900
22664W        W94957  35.099  22.624   9.990
22665W        W94958  37.580   1.355   1.759
22666W        W94959  43.817   9.720  12.499
22667W        W94960  29.518  14.272  13.819
22668W        W94961  21.637   1.738  14.936
22669W        W94962  40.384  19.132   4.637
22670W        W94963  11.274   6.912   2.833
22671W        W94964  19.117  21.259   1.354
22672W        W94965  31.506  26.117  11.125
22673W        W94966   1.750  22.675  14.388
22674W        W94967  15.177  23.546   4.676
22675W        W94968  32.441  12.780   2.185
22676W        W94969  33.556  21.076  11.551
22677W        W94970   8.810   4.277  10.155
22678W        W94971  24.163  40.331   1.394
22679W        W94972  23.688  18.630   4.145
22680W        W94973  15.127  27.682   2.805
22681W        W94974  22.029   0.792   1.788
22682W        W94975  18.740  19.604   0.860
22683W        W94976  17.769  33.578   2.194
22684W        W94977   3.830  40.981  14.951
22685W        W94978  19.769   5.826  11.124
22686W        W94979  34.554  30.040   3.704
22687W        W94980  29.132   1.307  11.881
22688W        W94981  14.704  19.191  11.382
22689W        W94982  29.603  21.523  10.486
22690W        W94983  29.625   4.787  11.021
22691W        W94984  24.564   1.902   0.438
22692W        W94985  37.880   7.867  14.403
22693W        W94986  16.189  43.935  12.867
22694W        W94987  25.973  38.339   2.301
22695W        W94988  14.774   1.449   4.242
22696W        W94989  38.900  17.197   5.204
22697W        W94990  44.832  10.377   4.717
22698W        W94991  23.698  31.580   0.388
22699W        W94992  14.127  14.277  10.952
22700W        W94993  38.332  10.632  11.962
22701W        W94994   6.683  41.336   1.890
22702W        W94995  22.086  40.853   2.849
22703W        W94996  17.193  28.538   4.802
22704W        W94997  22.655   1.342  14.834
22705W        W94998   9.680  15.641  14.001
22706W        W94999  35.376  14.595   1.932
22707W        W95000  25.065   8.765  13.528
22708W        W95001  44.912  21.665  14.909
22709W        W95002  31.917  33.020   2.832
22710W        W95003  27.993   2.873   4.310
22711W        W95004  21.257  17.778  14.976
22712W        W95005   9.286  16.258   1.934
22713W        W95006   5.837   3.437   3.850
22714W        W95007  19.144   6.809  10.451
22715W        W95008   3.839  12.213   2.218
22716W        W95009  14.622  26.202   2.392
22717W        W95010  12.672  37.486   4.270
22718W        W95011  26.121   5.306   3.671
22719W        W95012  42.824  43.272  14.854
22720W        W95013  37.850   4.213  11.538
22721W        W95014   6.316  35.022  13.963
22722W        W95015  39.009   9.254   9.949
22723W        W95016  32.141  26.039   3.190
22724W        W95017  32.043   8.256  11.994
22725W        W95018  44.366  32.984  14.777
22726W        W95019  34.865  12.119   0.746
22727W        W95020  40.315  22.651  12.073
22728W        W95021  30.424   9.742   0.870
22729W        W95022  13.635   7.249   1.298
22730W        W95023   6.892  41.031  14.799
22731W        W95024  27.465  35.479   3.827
22732W        W95025  29.941  24.203  11.459
22733W        W95026  14.101  28.101  13.999
22734W        W95027  38.391  28.641  11.855
22735W        W95028  44.294  20.247   2.206
22736W        W95029  37.079  21.598   0.351
22737W        W95030   5.302  33.936  11.926
22738W        W95031  14.753   4.840  13.887
22739W        W95032  22.186   7.686   1.311
22740W        W95033  20.735  15.612  14.320
22741W        W95034   6.794  33.102  12.443
22742W        W95035  24.673  30.487   4.711
22743W        W95036  18.637  12.170   2.875
22744W        W95037   9.157  17.144  14.513
22745W        W95038  39.333  20.207   2.836
22746W        W95039  22.185   7.884  12.550
22747W        W95040   5.298   5.427  11.441
22748W        W95041  27.107  44.493  12.509
22749W        W95042  33.001  25.499   4.798
22750W        W95043  33.969  43.397   3.858
22751W        W95044  30.995  34.379  12.868
22752W        W95045  34.952  12.263  10.449
22753W        W95046   9.157  35.448  11.982
22754W        W95047  41.826  31.085   1.827
22755W        W95048  23.532  38.900   2.264
22756W        W95049  11.696  43.390   1.421
22757W        W95050  29.532  18.275  11.452
22758W        W95051  22.609   3.225   5.157
22759W        W95052  42.358   1.356   1.213
22760W        W95053  26.567  28.580  14.296
22761W        W95054  28.158  42.922   3.271
22762W        W95055   9.883   7.238   0.435
22763W        W95056   7.793  38.370   2.209
22764W        W95057  32.447  12.618   1.879
22765W        W95058  39.006  11.329   1.821
22766W        W95059   5.246  40.920  13.333
22767W        W95060  25.966   6.311   4.184
22768W        W95061   7.716  35.988  12.906
22769W        W95062  23.118  20.229  12.030
22770W        W95063  25.670  23.576   4.728
22771W        W95064  35.857  16.777  14.898
22772W        W95065   7.780  36.949  14.488
22773W        W95066   5.880  23.521   3.337
22774W        W95067  22.215  20.039   2.845
22775W        W95068  32.490  32.063  14.820
22776W        W95069   9.794  31.482   0.254
22777W        W95070  28.966   8.377  11.430
22778W        W95071  11.151  18.198   3.156
22779W        W95072  43.281  24.551  13.438
22780W        W95073   9.343  41.524   2.323
22781W        W95074  41.305  43.310   0.749
22782W        W95075   0.898  32.987  12.368
22783W        W95076  30.096  37.434  13.336
22784W        W95077  39.515  39.414   4.283
22785W        W95078  36.513   8.253   3.803
22786W        W95079  20.218  24.624   0.864
22787W        W95080  18.760  25.077   4.671
22788W        W95081  18.546  43.369  13.907
22789W        W95082  12.256  13.635  12.062
22790W        W95083  16.774  44.830  10.411
22791W        W95084   0.942  40.380  12.573
22792W        W95085   1.950   8.841  12.091
22793W        W95086  20.608  15.160   4.816
22794W        W95087   1.431  24.177  12.515
22795W        W95088  26.033   8.717  13.399
22796W        W95089  34.866   7.206   2.690
22797W        W95090  41.337  31.592   0.265
22798W        W95091  40.418  11.297   1.358
22799W        W95092  32.427  15.765  10.091
22800W        W95093  40.338  13.817  12.937
22801W        W95094   5.340  24.037  12.833
22802W        W95095  37.362  27.167  14.279
22803W        W95096  23.217  22.693   4.159
22804W        W95097  42.415  19.591  13.817
22805W        W95098  12.124  28.144  11.886
22806W        W95099  34.576  35.915  12.389
22807W        W95100   9.866   8.339  12.505
22808W        W95101  18.236  31.930  14.935
22809W        W95102  16.309  42.793   4.176
22810W        W95103  28.974   5.812  12.567
22811W        W95104  24.049  35.381   4.137
22812W        W95105  37.854  41.934  11.993
22813W        W95106  34.947   4.235   3.782
22814W        W95107   1.441  12.177  10.623
22815W        W95108  38.849  40.051   1.799
22816W        W95109  25.483   5.794   3.772
22817W        W95110  24.020  31.458  14.346
22818W        W95111  42.502  31.558   4.294
22819W        W95112  12.782   2.377  13.867
22820W        W95113  17.575  42.926   3.810
22821W        W95114  37.853  21.578   0.390
22822W        W95115   0.393  37.956   2.766
22823W        W95116  36.555   6.850   0.437
22824W        W95117  19.183   1.774   1.362
22825W        W95118   2.343  26.596   0.359
22826W        W95119   1.802  43.837  12.009
22827W        W95120   8.257   5.858  14.441
22828W        W95121  21.216  30.938   2.819
22829W        W95122  19.727  11.641   1.851
22830W        W95123  23.600  16.575   4.304
22831W        W95124   5.900   4.807  12.854
22832W        W95125  17.707  11.816  10.573
22833W        W95126  19.702  40.447  13.309
22834W        W95127   6.240  10.706  14.980
22835W        W95128  18.065   6.827   4.707
22836W        W95129  25.508  16.085   3.160
22837W        W95130  42.952  43.440   0.380
22838W        W95131  25.674  10.786   1.402
22839W        W95132  29.151  30.422   3.740
22840W        W95133  39.048   6.327   4.616
22841W        W95134  18.666  12.757   3.305
22842W        W95135  37.993  27.962  11.493
22843W        W95136  41.412  19.097  11.399
22844W        W95137   6.317  24.550  14.343
22845W        W95138  34.585  21.178   3.268
22846W        W95139  41.798  17.649  11.612
22847W        W95140  24.581  27.521  14.354
22848W        W95141   8.388  22.164  13.367
22849W        W95142  17.273   9.792   1.232
22850W        W95143  25.627  26.458   3.189
22851W        W95144  14.692  26.065   4.202
22852W        W95145   8.898  34.006  11.451
22853W        W95146  41.330  30.618  14.873
22854W        W95147  42.870  31.107  11.589
22855W        W95148  44.336   3.785  11.588
22856W        W95149  18.275  41.994  12.031
22857W        W95150  23.054  32.440   1.408
22858W        W95151  17.168  29.515   0.793
22859W        W95152  40.388  36.549  12.080
22860W        W95153   3.938  14.112   3.734
22861W        W95154  37.954  22.694  10.000
22862W        W95155  26.510  37.085   4.599
22863W        W95156   5.245  23.110   3.240
22864W        W95157  28.047  38.346  11.926
22865W        W95158   3.344   0.264   2.765
22866W        W95159  18.727  34.376  14.995
22867W        W95160  39.430  13.132  14.364
22868W        W95161  19.632  30.601   2.350
22869W        W95162  40.452  20.040  12.003
22870W        W95163  11.197  25.493  13.018
22871W        W95164  14.624  24.195  12.094
22872W        W95165  15.085  23.565  14.893
22873W        W95166  40.496  27.052   0.965
22874W        W95167  28.653  22.675  11.915
22875W        W95168  43.894  34.613   2.221
22876W        W95169   3.735   9.819  12.424
22877W        W95170  27.013  24.075  12.402
22878W        W95171  26.521   9.704   1.312
22879W        W95172   5.337   2.348   0.780
22880W        W95173  11.268  43.884   3.685
22881W        W95174  40.028  12.745  12.535
22882W        W95175  28.581  41.981  13.325
22883W        W95176   5.313  43.381   2.278
22884W        W95177  35.403  40.424   0.478
22885W        W95178  43.441  36.023   5.319
22886W        W95179  11.804  44.415  13.314
22887W        W95180  25.691  38.840   0.735
22888W        W95181  29.657   4.296   0.365
22889W        W95182  41.928   3.797  13.981
22890W        W95183   7.809  43.995   2.876
22891W        W95184   8.850  36.591  12.511
22892W        W95185   4.937   0.926  10.598
22893W        W95186  24.685  15.284   4.192
22894W        W95187  31.407   4.819   2.178
22895W        W95188  19.630  41.875   3.707
22896W        W95189  22.107   5.711  12.857
22897W        W95190   0.410  31.096  12.425
22898W        W95191  25.051  37.405   4.295
22899W        W95192  26.097  18.159  14.831
22900W        W95193  33.875  10.785   1.750
22901W        W95194   2.720  33.040   0.440
22902W        W95195   7.229  28.548  13.837
22903W        W95196  33.506  30.597   4.735
22904W        W95197  13.159  38.886   2.370
22905W        W95198  38.930   7.323  14.311
22906W        W95199  30.571  13.266  12.560
22907W        W95200  33.525  21.119  10.010
22908W        W95201  40.341  36.023  12.396
22909W        W95202   6.401   2.237  13.849
22910W        W95203  15.595  36.402  10.524
22911W        W95204  38.371  33.115  12.953
22912W        W95205  18.238  25.686  11.952
22913W        W95206  14.760  42.324  10.996
22914W        W95207  35.863  13.756   1.423
22915W        W95208  19.561  28.491   4.719
22916W        W95209  27.609  17.725   1.300
22917W        W95210   4.269  11.665   0.444
22918W        W95211  11.803  36.555  10.556
22919W        W95212  37.440   8.887   4.201
22920W        W95213  27.472   4.863   0.879
22921W        W95214  30.620  42.495  12.078
22922W        W95215  35.600   2.921  11.471
22923W        W95216  35.057   1.435  13.926
22924W        W95217  14.810  38.912   0.961
22925W        W95218  13.208   7.406  10.629
22926W        W95219  24.187  43.371   2.349
22927W        W95220  17.291   4.919  12.839
22928W        W95221  41.820  21.198  14.916
22929W        W95222  16.237  22.617   2.896
22930W        W95223   9.256  35.393   3.237
22931W        W95224   6.289  13.317   3.326
22932W        W95225  13.663  28.129   0.338
22933W        W95226   1.918  38.440   4.164
22934W        W95227  11.361  34.962   1.402
22935W        W95228  29.953  27.132  14.022
22936W        W95229  13.720  17.801  13.927
22937W        W95230  23.540  11.153  10.605
22938W        W95231   7.306   5.753   2.252
22939W        W95232  14.125  27.604  13.454
22940W        W95233  21.258  17.266  12.056
22941W        W95234  18.724  29.525  12.859
22942W        W95235  10.206  15.741   0.924
22943W        W95236  11.794   5.700   1.822
22944W        W95237  21.222   1.254   1.249
22945W        W95238  32.439  16.089   0.441
22946W        W95239  31.105   4.341   1.910
22947W        W95240   6.215  19.616  12.863
22948W        W95241  30.061   3.819   4.641
22949W        W95242  10.270   9.656   2.750
22950W        W95243  21.678   3.715  14.959
22951W        W95244  12.157   0.261   2.852
22952W        W95245  24.629  23.685  14.454
22953W        W95246  37.392   9.316  10.490
22954W        W95247  20.767  14.711   1.252
22955W        W95248  20.241  21.734   5.210
22956W        W95249  16.700  12.750  12.403
22957W        W95250  24.230   1.298  14.820
22958W        W95251  23.514  19.227   2.663
22959W        W95252  13.846  16.796  14.419
22960W        W95253   3.942   5.745   1.702
22961W        W95254   2.269  28.010  14.010
22962W        W95255  18.736   0.477  14.372
22963W        W95256  36.960  43.992   1.871
22964W        W95257  31.899  10.328   2.371
22965W        W95258   7.832  42.962   5.176
22966W        W95259   7.301  33.101   2.407
22967W        W95260  43.455  15.588  14.443
22968W        W95261  40.928  10.378   3.761
22969W        W95262  23.552   9.852  14.781
22970W        W95263  14.219  16.144  12.935
22971W        W95264  17.205  44.464  13.935
22972W        W95265   8.714  20.588  12.440
22973W        W95266   8.680  21.595  14.474
22974W        W95267  35.972  38.944  12.945
22975W        W95268  43.476   0.449   0.750
22976W        W95269  25.492  32.950   4.742
22977W        W95270  14.271  40.044   2.351
22978W        W95271  19.538  44.473  13.545
22979W        W95272  43.412  15.764  12.089
22980W        W95273   2.424  12.755   5.269
22981W        W95274   7.227  17.715  11.577
22982W        W95275  17.695   4.893   4.692
22983W        W95276  21.532  26.463   9.959
22984W        W95277  18.785  13.736  10.978
22985W        W95278  26.492  28.606   3.152
22986W        W95279  42.508  26.181   0.872
22987W        W95280  37.525  41.357   3.246
22988W        W95281   3.312   2.956   3.644
22989W        W95282  14.133  28.661  13.325
22990W        W95283  30.987  20.634   3.190
22991W        W95284  11.848  29.458   0.258
22992W        W95285   6.278  38.044  11.551
22993W        W95286  11.295  30.012  13.525
22994W        W95287  20.109   1.826  12.981
22995W        W95288  33.401   4.899   1.368
22996W        W95289  40.860   1.902  14.957
22997W        W95290  44.775   1.343   0.261
22998W        W95291  20.073  23.724   0.814
22999W        W95292  22.187  27.998  10.582
23000W        W95293   1.378  33.416  11.418
23001W        W95294  27.545  25.101   3.340
23002W        W95295  30.957  11.189  10.155
23003W        W95296  15.784  31.067  12.578
23004W        W95297  18.728  13.187   5.239
23005W        W95298  17.068  33.473  11.966
23006W        W95299  13.265  36.355   0.959
23007W        W95300  38.495  37.488  10.140
23008W        W95301  22.608   4.267  12.424
23009W        W95302  38.455  34.927  10.618
23010W        W95303  44.369  29.123  12.058
23011W        W95304   8.359  10.289  11.058
23012W        W95305  44.452   6.802   0.931
23013W        W95306  12.675  27.648  13.340
23014W        W95307  17.666  44.438   4.764
23015W        W95308  32.446  38.405   0.345
23016W        W95309  33.440  39.535  14.023
23017W        W95310  18.125  29.450  13.964
23018W        W95311   9.812  26.174  10.412
23019W        W95312   5.848  39.389  13.809
23020W        W95313  39.975  20.624   2.717
23021W        W95314   6.310   1.369  12.089
23022W        W95315   7.902  11.246  13.411
23023W        W95316   4.901  43.413   2.749
23024W        W95317  18.702  28.470   2.389
23025W        W95318  31.411  21.059   0.812
23026W        W95319  37.076  24.520   0.326
23027W        W95320  34.544  21.655   4.786
23028W        W95321  12.147  19.593  14.859
23029W        W95322  20.582  36.564  10.900
23030W        W95323  36.094  31.050   1.256
23031W        W95324  13.660   2.445  14.930
23032W        W95325  17.220  14.609  10.535
23033W        W95326  16.088   9.204  14.499
23034W        W95327  24.648  29.624  10.533
23035W        W95328  43.776  25.470   2.197
23036W        W95329  11.633  13.116  14.896
23037W        W95330  27.961  33.466   1.788
23038W        W95331  11.191   0.902  13.379
23039W        W95332  24.707   2.419  12.543
23040W        W95333   8.826  34.049   2.746
23041W        W95334  21.228  13.776   1.400
23042W        W95335  10.354  20.629   4.209
23043W        W95336  22.175  21.623  11.129
23044W        W95337  16.191  21.714   2.839
23045W        W95338  22.744  38.462   4.739
23046W        W95339  15.636  32.524  13.904
23047W        W95340   6.905  30.927  12.577
23048W        W95341  34.508  37.385  13.883
23049W        W95342  22.175  40.390  14.392
23050W        W95343   6.722  41.374   4.265
23051W        W95344  23.992   7.314  13.910
23052W        W95345  43.924  36.476  13.973
23053W        W95346  15.211  23.010   3.216
23054W        W95347   6.691   2.860  11.422
23055W        W95348  24.617   4.393   2.317
23056W        W95349  34.561  44.292  12.923
23057W        W95350  40.907  13.270  11.113
23058W        W95351  22.635  13.223   0.347
23059W        W95352  24.123  30.126  12.997
23060W        W95353  34.105   6.199  11.976
23061W        W95354  22.549  43.956   0.425
23062W        W95355  13.658  12.147  12.037
23063W        W95356  20.172   0.821  11.108
23064W        W95357  38.459  36.367   1.272
23065W        W95358  35.578  39.457   4.801
23066W        W95359  14.660  15.762   3.190
23067W        W95360  43.897  32.533  11.543
23068W        W95361  35.468  14.180  11.589
23069W        W95362  15.748  22.641   3.323
23070W        W95363  21.674  30.944   3.226
23071W        W95364  14.608  39.938   4.643
23072W        W95365  40.349  22.136   1.752
23073W        W95366  22.038  39.485   1.791
23074W        W95367  19.197  33.092  14.876
23075W        W95368  25.653  23.205   4.294
23076W        W95369  36.384   8.237   4.797
23077W        W95370  26.964  16.180  12.467
23078W        W95371  41.825  16.715   1.876
23079W        W95372   4.345  25.653  14.395
23080W        W95373   9.251   0.381   0.468
23081W        W95374  22.026  29.155   2.731
23082W        W95375  17.199  22.573  12.860
23083W        W95376  16.582  42.456   4.202
23084W        W95377  39.318  40.896  12.554
23085W        W95378   4.272  16.792  13.367
23086W        W95379  41.343  21.242  12.981
23087W        W95380   3.361  30.138  12.045
23088W        W95381  25.656  25.116  12.045
23089W        W95382  34.455  25.592  11.907
23090W        W95383  38.528   7.755   2.804
23091W        W95384  31.480  39.398  13.334
23092W        W95385  16.284  29.965  11.472
23093W        W95386  23.093  36.473  11.552
23094W        W95387  30.475  43.944  13.843
23095W        W95388   6.722  41.494  14.363
23096W        W95389   6.786  30.494   3.815
23097W        W95390  26.095  31.630  14.341
23098W        W95391  43.994  14.190  10.478
23099W        W95392  41.038   9.275  10.418
23100W        W95393  40.021  37.003  13.925
23101W        W95394  17.066   5.727  12.406
23102W        W95395  19.582   4.355  12.411
23103W        W95396   7.735  19.615   4.776
23104W        W95397   7.372  14.099  12.054
23105W        W95398   3.903  28.554   2.368
23106W        W95399  16.681  43.992   1.921
23107W        W95400   9.360  37.525  13.524
23108W        W95401  15.761   3.282  11.077
23109W        W95402   4.313  31.116   2.190
23110W        W95403  21.117   3.909  11.372
23111W        W95404  32.886   0.438   0.842
23112W        W95405  30.160  30.985  10.444
23113W        W95406  21.627  23.236   2.204
23114W        W95407  35.888  33.890   4.273
23115W        W95408   0.424  42.808  12.476
23116W        W95409  28.947  25.652   0.298
23117W        W95410  10.270   1.816   3.798
23118W        W95411  15.290   6.346  14.825
23119W        W95412  39.895  33.961   2.803
23120W        W95413  24.484   1.823  10.920
23121W        W95414  40.308   4.235   4.705
23122W        W95415   6.721  33.116   2.226
23123W        W95416  21.209  41.344   9.974
23124W        W95417  34.085  22.126  11.070
23125W        W95418   4.413  12.852   1.874
23126W        W95419  44.901  44.800  14.287
23127W        W95420   7.803  25.187   1.441
23128W        W95421   6.303  43.316  11.080
23129W        W95422  38.470  15.708   3.243
23130W        W95423  35.087   5.704  11.040
23131W        W95424   9.169  12.257   2.231
23132W        W95425   5.277  17.230  11.486
23133W        W95426  31.896  38.402  10.475
23134W        W95427   5.342  38.456  14.320
23135W        W95428  42.423  39.952   1.276
23136W        W95429   4.207   4.712   3.302
23137W        W95430  15.817   7.756   5.272
23138W        W95431  30.417  15.282  12.555
23139W        W95432  36.971  37.064  13.343
23140W        W95433  10.361  41.901  14.936
23141W        W95434  39.884  19.671   0.862
23142W        W95435  39.528  13.219  13.053
23143W        W95436  10.820  11.772  11.088
23144W        W95437  31.151  29.078  13.028
23145W        W95438   3.274  27.154   2.381
23146W        W95439  31.960   5.437   0.889
23147W        W95440   0.751  22.166   1.301
23148W        W95441  28.469  13.279   3.679
23149W        W95442  13.775  33.900   2.231
23150W        W95443   3.822  27.960   4.650
23151W        W95444  42.446  11.351  12.530
23152W        W95445  37.477  37.431  10.143
23153W        W95446  10.804   7.855  13.950
23154W        W95447  17.088   9.186   2.787
23155W        W95448   9.754  28.550  14.957
23156W        W95449  20.607  24.489   3.869
23157W        W95450  30.115  11.630   2.830
23158W        W95451  31.027  25.480  14.886
23159W        W95452  24.176  18.679   2.664
23160W        W95453  21.696  16.083   4.342
23161W        W95454  43.920  41.865   3.366
23162W        W95455   4.263  28.989  14.945
23163W        W95456  35.401   8.751  14.002
23164W        W95457  25.590  35.037  11.898
23165W        W95458  39.020  28.599  12.062
23166W        W95459  38.403  38.845   4.253
23167W        W95460  22.145  24.991  12.831
23168W        W95461  35.379  42.938   0.948
23169W        W95462  32.550  43.435   0.785
23170W        W95463  27.141   2.757  10.586
23171W        W95464  10.708   2.354   4.351
23172W        W95465  40.545  10.297  14.931
23173W        W95466  17.073   7.910  14.820
23174W        W95467  27.657  24.981  14.456
23175W        W95468  39.375  22.058   1.701
23176W        W95469   5.364  17.665   0.784
23177W        W95470   7.382  18.568  12.848
23178W        W95471   1.327   6.729  13.854
23179W        W95472   6.681  25.103  14.989
23180W        W95473  25.529  18.598  12.403
23181W        W95474   9.293  30.135  13.391
23182W        W95475   5.202  26.483  12.509
23183W        W95476   9.270   6.772   0.355
23184W        W95477  28.597  14.675  11.045
23185W        W95478   1.950  13.342  10.976
23186W        W95479   9.186   6.922   2.861
23187W        W95480  32.499  42.794  12.070
23188W        W95481  35.487  30.640   4.632
23189W        W95482  12.228   4.832   4.283
23190W        W95483  18.706  14.143  12.402
23191W        W95484  33.990  27.555   2.251
23192W        W95485   4.915   7.722   2.831
23193W        W95486  14.283   4.908   0.334
23194W        W95487   9.183  34.382  14.795
23195W        W95488  40.351  38.000  10.562
23196W        W95489  27.158  24.006  10.028
23197W        W95490  35.589  35.866  13.514
23198W        W95491   8.298  36.023   4.309
23199W        W95492  13.607  20.269   0.397
23200W        W95493  12.805   7.334   3.348
23201W        W95494  10.145  24.699  10.468
23202W        W95495  25.008  24.478   2.233
23203W        W95496  22.529   1.810  14.770
23204W        W95497  40.419  37.077  14.457
23205W        W95498  10.279  39.991  14.388
23206W        W95499  38.570  40.341  13.395
23207W        W95500  30.584   9.193   0.271
23208W        W95501  33.595  28.532  10.458
23209W        W95502  25.509  36.902  14.760
23210W        W95503  26.969   8.404  12.078
23211W        W95504  23.029  31.070  13.846
23212W        W95505  42.009  20.731  11.441
23213W        W95506  16.307  31.648  10.590
23214W        W95507  12.797   2.229   9.622
23215W        W95508  14.325  19.722  13.400
23216W        W95509  41.481  30.642  13.054
23217W        W95510   0.260  23.564  10.936
23218W        W95511  18.735  27.448  13.337
23219W        W95512   2.356  38.905   0.934
23220W        W95513  11.256  26.009   1.340
23221W        W95514  21.063  31.034   0.467
23222W        W95515  17.741  10.313   2.780
23223W        W95516  13.235  22.570  11.437
23224W        W95517  38.848  39.835   1.358
23225W        W95518  13.272  40.843   4.141
23226W        W95519   4.275  42.424   4.316
23227W        W95520  43.855  31.648  12.945
23228W        W95521   9.789  42.944  13.375
23229W        W95522  28.167  30.095   3.301
23230W        W95523  12.130  18.189   1.347
23231W        W95524  23.645  40.962  11.013
23232W        W95525   0.256   0.964   4.171
23233W        W95526   2.800  10.163  13.538
23234W        W95527  22.124  12.143   3.710
23235W        W95528  24.496  20.668   4.751
23236W        W95529  18.266  41.434  12.965
23237W        W95530  30.029  42.801  11.953
23238W        W95531  30.958  18.193  10.530
23239W        W95532  14.648  16.623   1.727
23240W        W95533  40.931   7.229  14.923
23241W        W95534   4.759   8.866  14.436
23242W        W95535  33.401  32.092   0.931
23243W        W95536  14.155  43.855   2.350
23244W        W95537  13.722  36.060   3.649
23245W        W95538  41.946  11.709   2.795
23246W        W95539   3.332  10.165  12.064
23247W        W95540  29.134   6.822  14.810
23248W        W95541  31.018  38.546  14.973
23249W        W95542   4.733  26.685   0.426
23250W        W95543  28.435  30.934   3.332
23251W        W95544  15.732  26.562  10.557
23252W        W95545  37.028  41.304  14.887
23253W        W95546   6.199  21.526   1.450
23254W        W95547  36.915  42.784  11.891
23255W        W95548  36.075   5.239  13.886
23256W        W95549   7.805   8.776   4.202
23257W        W95550  14.187   5.795   0.324
23258W        W95551  21.569   1.391   3.356
23259W        W95552  23.658  44.470  14.867
23260W        W95553  40.450  18.224   4.208
23261W        W95554  17.169  37.355   5.087
23262W        W95555  44.870   6.741   4.251
23263W        W95556  30.929   9.204  11.435
23264W        W95557   4.739  13.636   2.812
23265W        W95558  37.569  35.372  13.825
23266W        W95559  44.890  37.424  14.954
23267W        W95560  30.552  13.346   0.738
23268W        W95561  36.994  19.258   4.789
23269W        W95562  12.757  13.275   4.339
23270W        W95563  26.970   8.380  10.437
23271W        W95564  15.823  29.623  14.441
23272W        W95565   3.825  20.056   4.795
23273W        W95566  36.931  32.533  10.420
23274W        W95567  42.932  44.930   2.359
23275W        W95568  28.054  17.589  13.054
23276W        W95569  17.759  31.069  12.072
23277W        W95570  16.249  29.464   1.268
23278W        W95571  21.696  33.588   0.781
23279W        W95572  41.890  38.840  14.995
23280W        W95573  27.468  44.996  14.510
23281W        W95574  38.055  43.936  10.407
23282W        W95575  31.945  41.318  10.937
23283W        W95576  38.435  42.338  12.367
23284W        W95577  37.933  32.600  10.453
23285W        W95578  43.019   6.790  13.332
23286W        W95579   2.280  36.539   3.794
23287W        W95580  25.011  12.138  12.512
23288W        W95581  17.266   9.394   4.203
23289W        W95582   4.832   1.844  14.309
23290W        W95583  26.013   6.722   4.284
23291W        W95584  35.495  13.348   3.222
23292W        W95585  18.606   8.838   4.735
23293W        W95586  11.185  19.684   3.179
23294W        W95587   3.780  12.824   0.356
23295W        W95588  26.186   1.918   0.452
23296W        W95589  18.176  24.632  14.412
23297W        W95590  39.925  30.582   3.261
23298W        W95591  11.273  33.104   3.653
23299W        W95592  43.473  16.762  13.942
23300W        W95593  10.649  43.492  14.938
23301W        W95594  44.962  25.516   4.155
23302W        W95595  39.844  26.147  14.444
23303W        W95596  32.558   0.780   1.254
23304W        W95597  42.352   3.956  14.465
23305W        W95598   9.724  35.522   0.481
23306W        W95599   0.742  17.745   3.757
23307W        W95600  43.895   4.344  13.480
23308W        W95601   8.253  20.180   3.717
23309W        W95602   5.430  19.642  14.497
23310W        W95603  31.912   7.286   3.158
23311W        W95604  40.411  28.436   4.289
23312W        W95605  14.238  15.712   0.946
23313W        W95606  29.150   7.686   0.922
23314W        W95607  43.962  14.781  12.037
23315W        W95608  10.762  40.522  14.405
23316W        W95609  20.700   3.947   3.695
23317W        W95610  17.156   8.875  14.789
23318W        W95611  43.855  35.894   5.766
23319W        W95612   4.280  36.997   2.288
23320W        W95613  43.013  41.808  13.859
23321W        W95614  17.284  31.982   4.344
23322W        W95615  44.281  33.445  10.085
23323W        W95616  24.176  13.770  11.961
23324W        W95617  44.915  29.447   0.342
23325W        W95618  26.672  41.477   2.365
23326W        W95619  32.604   8.661  11.882
23327W        W95620  38.993  24.178  14.407
23328W        W95621  22.194  30.495  10.470
23329W        W95622  21.093  43.856  14.362
23330W        W95623  11.247  35.033   1.800
23331W        W95624  41.403  37.877   2.403
23332W        W95625  37.944  22.637  12.464
23333W        W95626  40.324  41.963  12.048
23334W        W95627   2.863  34.928  12.997
23335W        W95628  44.874  32.003  10.990
23336W        W95629   0.863  17.205  10.639
23337W        W95630   3.898  44.965  10.966
23338W        W95631  18.155  19.618   4.831
23339W        W95632  23.557  24.535  11.040
23340W        W95633  21.090   7.347   3.722
23341W        W95634  37.839   6.416  12.553
23342W        W95635  37.058  10.336  11.480
23343W        W95636   8.185   3.366  14.468
23344W        W95637  29.526  34.101  10.623
23345W        W95638  40.884   0.824   0.276
23346W        W95639  40.915   6.281  10.526
23347W        W95640  44.809  11.136   4.203
23348W        W95641  33.058   9.343   0.888
23349W        W95642  35.080  34.469   3.679
23350W        W95643  21.575   5.870   1.308
23351W        W95644  29.517  44.318   3.357
23352W        W95645  43.782   4.896   4.117
23353W        W95646  12.185  35.922  14.848
23354W        W95647   0.869  35.966  14.952
23355W        W95648  15.156   9.306  14.440
23356W        W95649   6.733  21.065   1.249
23357W        W95650  23.102  21.569   0.461
23358W        W95651  11.690  14.201  13.836
23359W        W95652  34.942  30.004   3.352
23360W        W95653  29.997  10.355  11.930
23361W        W95654  33.535  14.270   1.262
23362W        W95655  17.227  31.558   3.250
23363W        W95656  13.297  31.561  11.070
23364W        W95657  12.338  33.432  11.049
23365W        W95658  27.544  33.887   0.899
23366W        W95659  11.637  41.812   3.810
23367W        W95660   5.270  37.084   1.839
23368W        W95661  17.225   0.306   1.863
23369W        W95662  32.454  19.203   4.641
23370W        W95663  28.532  40.477  10.516
23371W        W95664  10.697  24.584  12.935
23372W        W95665  32.990   1.369   2.705
23373W        W95666  11.146  11.839  13.925
23374W        W95667  13.616   2.337   5.105
23375W        W95668  21.680  34.919  12.532
23376W        W95669  24.704  19.146   2.182
23377W        W95670  34.436  16.761   0.377
23378W        W95671  39.020  31.564  14.765
23379W        W95672  43.971   3.402   2.181
23380W        W95673   2.958  27.031  10.607
23381W        W95674  16.770  13.798  14.449
23382W        W95675  32.136  36.571  12.840
23383W        W95676  39.488  38.558   3.186
23384W        W95677   1.882  43.359  12.362
23385W        W95678  44.436  16.749  14.899
23386W        W95679  24.543   0.323  14.337
23387W        W95680  23.576  29.967   1.315
23388W        W95681  31.925  24.058   3.174
23389W        W95682  11.176   9.852   3.654
23390W        W95683  21.032  18.760   0.390
23391W        W95684  23.531  35.966  10.891
23392W        W95685  33.574   5.274   0.436
23393W        W95686  29.622   7.289   0.929
23394W        W95687  14.208   7.306   3.361
23395W        W95688  12.150   1.405   2.218
23396W        W95689   9.214  38.879  11.504
23397W        W95690   1.287  34.391   0.808
23398W        W95691   3.821  10.338  14.427
23399W        W95692  30.495  27.456   4.632
23400W        W95693   9.653  18.203  14.336
23401W        W95694  36.387  42.389   3.848
23402W        W95695   9.800  17.634  10.909
23403W        W95696  26.199  24.600   4.226
23404W        W95697  24.696  27.562   0.321
23405W        W95698  13.761  42.361   3.714
23406W        W95699  40.807  40.922   4.704
23407W        W95700   9.736  19.186   0.283
23408W        W95701   2.234  29.622  13.804
23409W        W95702   5.295  44.916  10.546
23410W        W95703  39.355  14.610  14.929
23411W        W95704  19.728   6.847   2.274
23412W        W95705  28.147   9.870  13.901
23413W        W95706  25.663  26.069  12.885
23414W        W95707  22.700   5.306   1.701
23415W        W95708  24.604  13.268  14.817
23416W        W95709  33.905  23.989  12.949
23417W        W95710   9.691   2.722  10.912
23418W        W95711  39.380  32.053   0.844
23419W        W95712  12.331  39.948  11.416
23420W        W95713  16.237  17.732   0.313
23421W        W95714  36.515  24.069  13.487
23422W        W95715   1.360  27.142  12.037
23423W        W95716  26.093  20.694  12.068
23424W        W95717  24.616   1.898  10.413
23425W        W95718  21.207  18.702  10.528
23426W        W95719  39.460  19.666  14.836
23427W        W95720  35.083  29.474   2.681
23428W        W95721  30.139   3.909   3.326
23429W        W95722  34.561  35.999   3.846
23430W        W95723  40.384   3.954   4.669
23431W        W95724  35.892  42.849  13.943
23432W        W95725  12.148  32.448   1.247
23433W        W95726  39.463  12.758   2.405
23434W        W95727  16.768  29.444   4.696
23435W        W95728  44.470  26.507  11.443
23436W        W95729   5.748  24.021   1.366
23437W        W95730   5.722   6.357  11.027
23438W        W95731   3.832   3.253   0.307
23439W        W95732  16.740  33.606  10.935
23440W        W95733  32.895  21.656  11.973
23441W        W95734   8.793  20.585  11.861
23442W        W95735  30.506  13.272  10.516
23443W        W95736  17.590  12.715   1.382
23444W        W95737  21.552  41.455  12.466
23445W        W95738  18.709  32.010   5.140
23446W        W95739  35.005  38.027  13.895
23447W        W95740   8.300  12.192   3.306
23448W        W95741  40.495  41.365   4.298
23449W        W95742  26.113  15.259   1.424
23450W        W95743  13.623  35.578   4.283
23451W        W95744  10.861  11.623  10.405
23452W        W95745  32.042  23.536  11.478
23453W        W95746  10.749  42.523  10.570
23454W        W95747   8.827  36.464  11.039
23455W        W95748  15.317  23.231   2.190
23456W        W95749  11.370   0.794   4.792
23457W        W95750   3.348  20.214   0.476
23458W        W95751  17.596  41.918   1.392
23459W        W95752   4.764  23.536  12.836
23460W        W95753  17.709  40.863   3.673
23461W        W95754   2.864  31.621  12.528
23462W        W95755   7.866  10.207   4.729
23463W        W95756   7.345  15.263   0.285
23464W        W95757  25.677  16.682  14.430
23465W        W95758  27.094  24.549   0.262
23466W        W95759  32.469  28.093  13.858
23467W        W95760  14.601  21.155   4.837
23468W        W95761  13.846   5.808  13.393
23469W        W95762  10.686   5.393  13.384
23470W        W95763   5.827  12.334  14.484
23471W        W95764  14.828   2.922  12.529
23472W        W95765   9.345  28.670   4.678
23473W        W95766  43.309  25.127   0.459
23474W        W95767  35.377  39.962  11.003
23475W        W95768  25.973  44.330   2.258
23476W        W95769   2.427   0.936   4.169
23477W        W95770  37.857  18.074   0.380
23478W        W95771  22.531  17.087   2.214
23479W        W95772  38.036   2.448  12.380
23480W        W95773  33.422  38.568  12.901
23481W        W95774  10.242  16.676   3.723
23482W        W95775  20.268  13.177   0.421
23483W        W95776   6.425  34.479   9.536
23484W        W95777  14.717  32.458   1.376
23485W        W95778  40.468   3.277   0.256
23486W        W95779  19.674   9.845  10.445
23487W        W95780  23.585  39.328   0.832
23488W        W95781  28.611   9.874   2.381
23489W        W95782  17.631  30.029  13.832
23490W        W95783  41.315  12.284   3.798
23491W        W95784  35.503  11.634   3.767
23492W        W95785   5.901   1.888   0.363
23493W        W95786  26.979   0.436  14.491
23494W        W95787  12.629  34.483  11.584
23495W        W95788  20.093  37.459  12.914
23496W        W95789  34.050  27.173  13.503
23497W        W95790  41.012  18.686  14.372
23498W        W95791  30.045  22.680  14.806
23499W        W95792  32.907  19.608   0.330
23500W        W95793  11.216  23.577  11.409
23501W        W95794  31.121  26.642  11.392
23502W        W95795   7.905   0.374  14.334
23503W        W95796  39.933   6.306   4.229
23504W        W95797  21.210   4.766  13.824
23505W        W95798  18.563  10.275   1.424
23506W        W95799  14.243  13.310   2.329
23507W        W95800  21.649  23.189   3.820
23508W        W95801  25.009  19.196  10.892
23509W        W95802  26.173  11.144  13.360
23510W        W95803  13.196  34.580   3.244
23511W        W95804  38.919   9.350  13.826
23512W        W95805  30.145  21.692  11.563
23513W        W95806  35.572  20.576   2.359
23514W        W95807   3.918  19.720   2.834
23515W        W95808  20.176  36.074  14.849
23516W        W95809   2.876  38.963  13.428
23517W        W95810  39.885  25.686  12.021
23518W        W95811  33.888  12.250  11.398
23519W        W95812   0.284  29.667  13.415
23520W        W95813  19.115  23.705  10.427
23521W        W95814  23.617  23.728   4.614
23522W        W95815   5.400  24.192   0.355
23523W        W95816  40.970  30.094  12.080
23524W        W95817  35.927   8.698  13.536
23525W        W95818   7.687   1.358   3.278
23526W        W95819  31.022  14.194   1.360
23527W        W95820  10.782  36.895   4.193
23528W        W95821   9.192  36.005  12.926
23529W        W95822   7.837   1.480   3.766
23530W        W95823   0.756  25.477   0.271
23531W        W95824  31.971  34.571  14.434
23532W        W95825  29.086  38.840   1.883
23533W        W95826   9.252  20.622  10.904
23534W        W95827  20.140  24.082   0.331
23535W        W95828  43.334   7.369  13.396
23536W        W95829  39.823   8.340   0.757
23537W        W95830  40.897   0.468   0.818
23538W        W95831  13.751  41.538   3.274
23539W        W95832   3.839  29.950   3.346
23540W        W95833  38.532  17.756  12.068
23541W        W95834  32.576  12.167  14.363
23542W        W95835   0.325   4.934  12.955
23543W        W95836  32.495  26.060   0.887
23544W        W95837  35.471  10.791  14.923
23545W        W95838  39.321  12.297   3.658
23546W        W95839  27.614  14.810  14.899
23547W        W95840  27.110  32.971  14.343
23548W        W95841  19.605  20.172  13.491
23549W        W95842  34.520  10.713   1.889
23550W        W95843  10.177   4.224   1.358
23551W        W95844  44.878  26.188   2.380
23552W        W95845   3.779   3.233   4.225
23553W        W95846  41.328  22.211  13.499
23554W        W95847  27.971   0.905  11.604
23555W        W95848  32.408  14.801   2.369
23556W        W95849   3.262   8.168   2.253
23557W        W95850  42.390   3.910   1.431
23558W        W95851  32.586  10.304  12.479
23559W        W95852  43.978   0.469  10.083
23560W        W95853  27.622  14.735   4.244
23561W        W95854   4.279  22.732  14.488
23562W        W95855   5.234  24.619   1.779
23563W        W95856  27.574  18.635  11.531
23564W        W95857  37.847  32.929  14.367
23565W        W95858   8.326   3.745   2.673
23566W        W95859  31.044   8.200   5.719
23567W        W95860  31.607   7.783  11.464
23568W        W95861   6.825  41.340  11.520
23569W        W95862  19.206  42.280   3.731
23570W        W95863   7.803   3.242   4.352
23571W        W95864  38.884  44.398   2.190
23572W        W95865  25.003   7.867   3.173
23573W        W95866  34.007  16.266  12.389
23574W        W95867  24.605  25.590   1.431
23575W        W95868  19.181  30.544  12.407
23576W        W95869  18.117  40.519  10.936
23577W        W95870  38.459  31.524  12.864
23578W        W95871  16.789  10.813   4.161
23579W        W95872  35.028  33.096   1.256
23580W        W95873  34.415  13.800   2.395
23581W        W95874  10.202   8.210   0.249
23582W        W95875  43.292  44.846   5.758
23583W        W95876   4.339  24.050   2.865
23584W        W95877   1.900  43.457  13.523
23585W        W95878  40.885  10.636  14.416
23586W        W95879  10.766  11.243   3.827
23587W        W95880  44.877  25.687  14.406
23588W        W95881  24.138  28.567   2.668
23589W        W95882  18.715  25.603   1.835
23590W        W95883  33.942  31.409   4.682
23591W        W95884   7.385  34.875  13.979
23592W        W95885  33.437   7.789   4.654
23593W        W95886  37.472  34.871  14.878
23594W        W95887   6.754  21.632  14.503
23595W        W95888  29.932  22.616  13.810
23596W        W95889  17.237  17.619   1.892
23597W        W95890  42.015  37.838  14.335
23598W        W95891  31.993  32.516  10.614
23599W        W95892   8.168  18.642   1.805
23600W        W95893  11.714   2.783   2.188
23601W        W95894  39.486   1.312   0.891
23602W        W95895  20.165  26.097   2.741
23603W        W95896  20.645  38.028   3.357
23604W        W95897  14.333  36.039  12.513
23605W        W95898   9.365  34.521   0.934
23606W        W95899   7.700  25.131   3.380
23607W        W95900  18.667  39.837   3.651
23608W        W95901  15.589  35.512  14.385
23609W        W95902  14.637   3.872  13.343
23610W        W95903  18.126   7.375  14.772
23611W        W95904  13.264  34.524   2.245
23612W        W95905   8.398   0.874   0.454
23613W        W95906   9.725  38.387   0.956
23614W        W95907  24.005  41.853  14.297
23615W        W95908   2.733  10.657  14.851
23616W        W95909  17.644   7.813   4.254
23617W        W95910   4.235  24.586  13.849
23618W        W95911  43.801  31.055   3.812
23619W        W95912  25.972  11.715  12.870
23620W        W95913  15.245  28.027   4.761
23621W        W95914  15.200  23.178   4.291
23622W        W95915  13.110  44.880   0.481
23623W        W95916  15.812  12.627   3.667
23624W        W95917   3.740  44.886  13.878
23625W        W95918  40.028  31.431   4.247
23626W        W95919  37.922  17.214  12.484
23627W        W95920  40.499  18.244  12.893
23628W        W95921  28.102   9.175   4.136
23629W        W95922   2.951  22.086   2.828
23630W        W95923  36.359  35.589   2.243
23631W        W95924  38.857   4.928  13.047
23632W        W95925  28.561   3.262  11.112
23633W        W95926   0.466  37.838  10.584
23634W        W95927   9.229   4.807  12.047
23635W        W95928  44.440  18.679   2.738
23636W        W95929  25.637  27.500   3.349
23637W        W95930  30.537  21.623  12.882
23638W        W95931   5.769  37.518  12.545
23639W        W95932  31.935  23.656  14.875
23640W        W95933  27.568   2.827   4.655
23641W        W95934  38.933  14.633  10.966
23642W        W95935  33.426   3.712  13.929
23643W        W95936  39.558   0.813   3.647
23644W        W95937  32.014  36.508   4.318
23645W        W95938  43.808  25.016  11.569
23646W        W95939  40.921   4.218  12.843
23647W        W95940   5.830   3.456   2.723
23648W        W95941   9.754  20.696   4.248
23649W        W95942  31.964  21.243  11.948
23650W        W95943   9.869  22.162  14.347
23651W        W95944  28.529  29.469  14.835
23652W        W95945  43.892  43.866   3.849
23653W        W95946  17.714  33.542  13.046
23654W        W95947  38.439  36.947   3.662
23655W        W95948  42.021   6.246  12.075
23656W        W95949  11.684  27.520   0.450
23657W        W95950  21.095  24.130   3.815
23658W        W95951   0.927   4.804   0.253
23659W        W95952  19.723  40.803  13.944
23660W        W95953  39.939  40.036   1.368
23661W        W95954   0.832  30.118   0.368
23662W        W95955  16.158  40.875  11.039
23663W        W95956   5.240  10.347  11.450
23664W        W95957  14.660  15.124  13.519
23665W        W95958   8.731   9.871   2.377
23666W        W95959  25.008  20.550   3.736
23667W        W95960  15.592  40.987   0.920
23668W        W95961  15.235   7.706   2.188
23669W        W95962  12.841  34.377  12.823
23670W        W95963  25.550  43.355  14.002
23671W        W95964  19.071   2.781  13.451
23672W        W95965   9.360  24.547   2.695
23673W        W95966  38.904  12.758  12.031
23674W        W95967  28.168  43.849   0.901
23675W        W95968  11.845   3.926  13.010
23676W        W95969  21.743   1.476   2.737
23677W        W95970  30.934  28.104  13.345
23678W        W95971   4.754   7.185  10.612
23679W        W95972   4.327   3.377  13.933
23680W        W95973   7.742  30.163   0.789
23681W        W95974  33.114  22.722   1.367
23682W        W95975  33.089  41.491   1.709
23683W        W95976  31.905  14.141   2.310
23684W        W95977   3.927  19.137   4.330
23685W        W95978   1.369   8.866   2.362
23686W        W95979  24.112  12.692   4.796
23687W        W95980  43.323  28.593   1.298
23688W        W95981  35.556  12.175   1.853
23689W        W95982  15.122  41.858  12.025
23690W        W95983  14.161  22.630   1.242
23691W        W95984  39.887  21.631  13.009
23692W        W95985  16.637  39.900  13.851
23693W        W95986  18.592   4.429   0.903
23694W        W95987  37.992  23.106   4.339
23695W        W95988  33.918  18.057   4.633
23696W        W95989  30.478  24.071  12.435
23697W        W95990   5.282  39.871  11.961
23698W        W95991  30.158  21.748   2.847
23699W        W95992  19.570  28.147  14.856
23700W        W95993  33.036  17.655   1.424
23701W        W95994  15.084   1.290   0.799
23702W        W95995  20.135  28.165   3.857
23703W        W95996   9.720   3.431   4.275
23704W        W95997  36.031  13.243   1.888
23705W        W95998  14.244  34.942  14.516
23706W        W95999  43.400  39.420  10.630
23707W        W96000  34.448  14.231  11.473
23708W        W96001  11.358  22.079  10.916
23709W        W96002  17.134   0.372  10.490
23710W        W96003   4.327  40.526   3.155
23711W        W96004  44.319  16.297   1.697
23712W        W96005   1.853  25.520   3.792
23713W        W96006  36.372  34.995  12.396
23714W        W96007  13.626   7.705   3.232
23715W        W96008   9.281  19.600  12.887
23716W        W96009  23.002  37.359  10.469
23717W        W96010  13.693  26.170  14.029
23718W        W96011  26.030  43.444  11.923
23719W        W96012  15.177  27.547   4.602
23720W        W96013   3.306  34.890   2.749
23721W        W96014  35.948  29.991   3.641
23722W        W96015  22.516  22.077   4.167
23723W        W96016  20.642  14.830  14.397
23724W        W96017  34.485  31.118   4.749
23725W        W96018   7.179  43.920   3.355
23726W        W96019  44.461  39.058   3.752
23727W        W96020  29.025  36.909   4.812
23728W        W96021  15.292   7.402   4.652
23729W        W96022  42.343  19.732   3.245
23730W        W96023  27.056   2.781  14.004
23731W        W96024  35.880  11.667  12.097
23732W        W96025  27.008   9.213   4.726
23733W        W96026  32.492  24.699  13.524
23734W        W96027  19.629  28.050   4.777
23735W        W96028   7.773  44.388   1.332
23736W        W96029  12.713  31.013   4.283
23737W        W96030  37.474  21.147   2.747
23738W        W96031  40.504  29.487   4.216
23739W        W96032   0.976  38.452   1.768
23740W        W96033  13.616  33.582   0.371
23741W        W96034  37.917  15.776   4.677
23742W        W96035  16.692  40.832   0.775
23743W        W96036   1.312   8.734  12.063
23744W        W96037  17.163  36.481   2.765
23745W        W96038  31.590  42.361  13.898
23746W        W96039  37.967  30.159   1.778
23747W        W96040  36.991   3.315   3.243
23748W        W96041  11.808  30.939   1.343
23749W        W96042  27.059  14.720   3.310
23750W        W96043  19.780  22.087  13.867
23751W        W96044  34.078  31.012   3.361
23752W        W96045  35.858   1.337   4.168
23753W        W96046  12.202   7.854  13.532
23754W        W96047   8.698  31.952   4.214
23755W        W96048  15.142   5.300  11.500
23756W        W96049  33.977  19.202  13.343
23757W        W96050  39.855  30.022  12.828
23758W        W96051  31.004  35.561   2.209
23759W        W96052   7.906  25.525   2.190
23760W        W96053  41.448  40.882  11.993
23761W        W96054  36.364   0.754  11.007
23762W        W96055  40.992  20.558  13.964
23763W        W96056  25.018   6.182   3.712
23764W        W96057  34.875   9.745  12.387
23765W        W96058  41.805  17.562  10.034
23766W        W96059  19.623  39.383   2.406
23767W        W96060  40.381   1.353   1.926
23768W        W96061   1.738  28.990  14.909
23769W        W96062  36.977  11.846   1.912
23770W        W96063   7.272   2.269  11.405
23771W        W96064   4.861   2.472   5.162
23772W        W96065  16.683  21.682   5.280
23773W        W96066  18.620  10.856  11.990
23774W        W96067  38.335  25.177  12.356
23775W        W96068  40.806  12.726  11.456
23776W        W96069  19.586  31.110   2.276
23777W        W96070  14.820  14.097  14.301
23778W        W96071  30.096  41.431   1.703
23779W        W96072  31.488  15.796   3.337
23780W        W96073   0.951   8.767  10.588
23781W        W96074  11.703  40.375   4.782
23782W        W96075  11.660  37.085  12.056
23783W        W96076   4.412  19.256   1.785
23784W        W96077  38.509   5.879   0.478
23785W        W96078   5.796   9.701  14.878
23786W        W96079  12.226  31.493   4.735
23787W        W96080  10.276   3.909   0.246
23788W        W96081  33.544  22.682   1.349
23789W        W96082  13.154  27.509  12.339
23790W        W96083   2.962  14.821  14.340
23791W        W96084  29.968   5.305   0.857
23792W        W96085  27.043   0.798   4.352
23793W        W96086  14.671   1.452  12.448
23794W        W96087  44.275  21.072   4.197
23795W        W96088  25.040  30.617   2.280
23796W        W96089   5.424   7.407  14.293
23797W        W96090  19.685  23.217   1.889
23798W        W96091  44.879   0.341   3.742
23799W        W96092  14.195  15.292   0.895
23800W        W96093  24.556  17.138  14.795
23801W        W96094  43.354   2.305   3.670
23802W        W96095   7.179  21.222  14.279
23803W        W96096  36.973  24.559   2.297
23804W        W96097   6.324  26.594  11.863
23805W        W96098  13.327  24.599  14.315
23806W        W96099  23.034  29.597   1.381
23807W        W96100  32.523  34.905  11.576
23808W        W96101   9.691  42.915   4.275
23809W        W96102  42.292  27.174   0.320
23810W        W96103  27.113  19.546   2.726
23811W        W96104  23.570  20.662  11.452
23812W        W96105  26.087   1.776  14.948
23813W        W96106  23.089  37.514   4.819
23814W        W96107  15.269  19.572  11.386
23815W        W96108  23.103  36.986  13.407
23816W        W96109   2.245  12.667   2.316
23817W        W96110  24.635   9.250  14.318
23818W        W96111  26.135  28.050  14.383
23819W        W96112  36.397  29.624  12.880
23820W        W96113  11.696   1.290   3.853
23821W        W96114  14.107  20.092  12.013
23822W        W96115  44.406  12.197  11.490
23823W        W96116  20.130  20.675  12.561
23824W        W96117   5.848  38.924   4.691
23825W        W96118  12.614  44.937   1.365
23826W        W96119  14.143   1.760  10.076
23827W        W96120   7.735   2.385   2.776
23828W        W96121  28.986  13.206   2.240
23829W        W96122  14.594  26.471   1.263
23830W        W96123   5.282  34.560   3.220
23831W        W96124   1.794   3.325   0.408
23832W        W96125  12.193  20.059  12.892
23833W        W96126   5.437  13.689  14.915
23834W        W96127   3.346   1.434   3.268
23835W        W96128   7.819   1.340   2.773
23836W        W96129   9.734  10.379  11.451
23837W        W96130  38.455  27.478  11.902
23838W        W96131  12.620  42.445  11.081
23839W        W96132  20.134  44.826   1.282
23840W        W96133  27.158   3.742  14.356
23841W        W96134  13.259   3.379  14.796
23842W        W96135  41.511  37.486  11.476
23843W        W96136  16.578   9.854   1.763
23844W        W96137  22.586  41.825   4.804
23845W        W96138  32.564  18.685  12.935
23846W        W96139  31.026  23.548  12.000
23847W        W96140  11.244  29.104  12.877
23848W        W96141  15.287   8.870  12.525
23849W        W96142  43.942  44.835  11.609
23850W        W96143  25.490  24.025  10.546
23851W        W96144  40.434  37.038   1.715
23852W        W96145   6.324  21.062   2.881
23853W        W96146  44.263  30.659  14.919
23854W        W96147   9.375  36.952   3.843
23855W        W96148  43.912   9.269   1.248
23856W        W96149  30.138  43.399   3.679
23857W        W96150  10.784  15.663  10.629
23858W        W96151  28.153  11.715  12.406
23859W        W96152  24.196   8.340   4.624
23860W        W96153  25.483  40.044   4.185
23861W        W96154  25.013  10.223  11.998
23862W        W96155   5.909  39.453   0.781
23863W        W96156   6.245  21.591   3.367
23864W        W96157   6.914   4.416   3.693
23865W        W96158  26.623   3.436  13.036
23866W        W96159  21.573  43.453   0.280
23867W        W96160  30.007   7.288   1.296
23868W        W96161   8.689  12.361  14.487
23869W        W96162  34.912  12.251  13.531
23870W        W96163   7.288   6.389  11.031
23871W        W96164  34.452  39.487   0.475
23872W        W96165  18.079   3.375  13.462
23873W        W96166  18.223  19.259   1.916
23874W        W96167  34.919  43.308   2.740
23875W        W96168  42.361  27.676  13.384
23876W        W96169  43.929  16.801   3.293
23877W        W96170  11.145   1.823   2.680
23878W        W96171  25.489  10.844   2.831
23879W        W96172  42.942   3.238  12.571
23880W        W96173  37.378   1.901   0.736
23881W        W96174  26.664  32.959  14.911
23882W        W96175   5.910  21.159   0.931
23883W        W96176   3.867  25.975   4.820
23884W        W96177  39.477  32.996   0.311
23885W        W96178  20.135   0.439  11.032
23886W        W96179   4.734  14.211  10.129
23887W        W96180  23.623  13.143  10.605
23888W        W96181  15.143   4.853  10.071
23889W        W96182  39.854  36.861   4.281
23890W        W96183  11.642  42.928   4.335
23891W        W96184  38.476  12.673   3.177
23892W        W96185  40.512  16.808   3.375
23893W        W96186  23.014  44.481   0.441
23894W        W96187  26.045   9.699   1.733
23895W        W96188  20.101  42.313   1.214
23896W        W96189  11.214  15.256   2.763
23897W        W96190  28.027  36.931   4.245
23898W        W96191  39.456  16.573   2.664
23899W        W96192  33.094  30.421   3.166
23900W        W96193  25.578  43.779  14.371
23901W        W96194   1.384  20.715  13.440
23902W        W96195  43.957  15.634   1.222
23903W        W96196  20.555  29.608   4.618
23904W        W96197   6.347  15.118   3.258
23905W        W96198  40.458  29.092  12.509
23906W        W96199  22.705  34.481   2.728
23907W        W96200  23.580  15.608  12.421
23908W        W96201  10.705  27.111  14.909
23909W        W96202  30.524  40.038  10.037
23910W        W96203  30.507  11.146  13.017
23911W        W96204  37.571  12.618  10.480
23912W        W96205  19.655  23.164  10.629
23913W        W96206  24.225  44.285   3.672
23914W        W96207  20.525  42.842  13.792
23915W        W96208  16.606  29.009  13.969
23916W        W96209  44.349  38.454   3.245
23917W        W96210  29.492  18.590   3.843
23918W        W96211  16.628  27.195   4.132
23919W        W96212  10.819  42.836   3.641
23920W        W96213  17.791  28.118   2.412
23921W        W96214  17.187  19.591  12.527
23922W        W96215  42.379  31.075   2.299
23923W        W96216  17.614  37.085   1.769
23924W        W96217  43.992   8.728  12.897
23925W        W96218  28.515  36.584  14.426
23926W        W96219   6.680  25.504  13.914
23927W        W96220   2.952  34.957  11.982
23928W        W96221  14.771  13.201  11.976
23929W        W96222  26.670  27.633  13.500
23930W        W96223  33.064  17.567  13.432
23931W        W96224  21.579  39.353   4.294
23932W        W96225   5.921  40.908   0.739
23933W        W96226  35.946  31.951   4.768
23934W        W96227  28.165  14.107  13.892
23935W        W96228  38.393  13.169  14.886
23936W        W96229  41.998   7.351  12.410
23937W        W96230  44.317  18.776  11.904
23938W        W96231   0.452  37.512   2.321
23939W        W96232  13.640  39.505   0.939
23940W        W96233  17.124  27.109  13.062
23941W        W96234   5.736  30.604  14.889
23942W        W96235   8.788  13.775   2.320
23943W        W96236   3.926  37.499  11.973
23944W        W96237   1.874  28.553  11.416
23945W        W96238   0.935   5.710   1.826
23946W        W96239  23.555  31.054  14.353
23947W        W96240   7.872  18.740   2.392
23948W        W96241  30.025  41.799   0.864
23949W        W96242  14.664  22.563   0.359
23950W        W96243   0.908  15.250  13.454
23951W        W96244  23.178   6.199  12.939
23952W        W96245   1.382  39.018   1.301
23953W        W96246  37.073  13.659   4.735
23954W        W96247   1.928  13.220   2.690
23955W        W96248  22.126   2.296  12.990
23956W        W96249   9.791   9.702   3.187
23957W        W96250  42.958   5.348  14.500
23958W        W96251  42.885   1.822   0.292
23959W        W96252   1.424  40.835   4.184
23960W        W96253  22.547  21.600  13.920
23961W        W96254  11.860  31.053   0.403
23962W        W96255  43.428   1.892  10.405
23963W        W96256  30.150  12.305   3.647
23964W        W96257  40.426   9.866   0.836
23965W        W96258  11.693   6.354   3.673
23966W        W96259  44.869  36.496   9.503
23967W        W96260  20.674  13.827  12.514
23968W        W96261  43.350  34.976  11.516
23969W        W96262  17.597  39.362  10.514
23970W        W96263  35.887  29.175  10.969
23971W        W96264   0.936  14.829   3.717
23972W        W96265  18.051  33.439  13.014
23973W        W96266   5.904   7.666  10.633
23974W        W96267   3.368  36.911   2.886
23975W        W96268   9.859  14.794  12.873
23976W        W96269  24.132  25.115  10.458
23977W        W96270  30.570   6.695   3.857
23978W        W96271   4.248  29.131   2.818
23979W        W96272   9.655  34.076   1.933
23980W        W96273  35.542  43.897   1.757
23981W        W96274  35.449  12.635   4.676
23982W        W96275  23.543  12.701   1.241
23983W        W96276  17.240  34.415  14.908
23984W        W96277  44.498   2.728   3.765
23985W        W96278  29.107  23.575  14.406
23986W        W96279  22.197  19.072   2.203
23987W        W96280  17.702  35.872   4.671
23988W        W96281  11.184  40.379  14.812
23989W        W96282  31.107  11.264   2.370
23990W        W96283  32.051  34.010  11.601
23991W        W96284   8.276  35.361   0.406
23992W        W96285  21.587  10.805   4.628
23993W        W96286  31.481  16.660  13.980
23994W        W96287  38.953  32.545   4.690
23995W        W96288  10.381   0.796  13.952
23996W        W96289  42.292   2.886  12.411
23997W        W96290  11.770  24.529   0.449
23998W        W96291   6.417  25.672  11.582
23999W        W96292  41.531   5.323   1.721
24000W        W96293   0.463  16.134  11.476
24001W        W96294  15.180  42.993   1.753
24002W        W96295  40.396   9.842  13.983
24003W        W96296  37.499   9.679  12.969
24004W        W96297  14.136  44.808   2.772
24005W        W96298   9.183  36.957  11.111
24006W        W96299  17.083   6.369  12.880
24007W        W96300  40.387  22.152   1.281
24008W        W96301  17.243  16.691  11.031
24009W        W96302  36.575  11.666   0.387
24010W        W96303  44.375   0.784   2.242
24011W        W96304  34.038  35.978  14.294
24012W        W96305  29.451  43.444   4.795
24013W        W96306  18.571  20.177   4.700
24014W        W96307   9.845  23.582  13.979
24015W        W96308   3.256   5.408  11.492
24016W        W96309  31.423  11.748   1.906
24017W        W96310  16.635   9.197  10.531
24018W        W96311  15.688  32.416   2.290
24019W        W96312  16.074  30.150  11.981
24020W        W96313  29.167   8.748   4.351
24021W        W96314  36.876  32.469  12.399
24022W        W96315  33.619  43.438  11.969
24023W        W96316   4.294  23.004   1.868
24024W        W96317  14.241  34.101  11.470
24025W        W96318  36.882  29.918  14.951
24026W        W96319  28.664  25.149   3.801
24027W        W96320  41.930  24.525   0.307
24028W        W96321  35.930  29.049   2.826
24029W        W96322  21.684  27.600   3.775
24030W        W96323  39.340  26.018  13.040
24031W        W96324  36.849  30.576   0.871
24032W        W96325  26.567  17.643  12.994
24033W        W96326  12.152  15.292  12.052
24034W        W96327  18.238   2.471  10.944
24035W        W96328  31.031  44.414   4.675
24036W        W96329   4.346   1.312   4.303
24037W        W96330   8.359  15.712   2.816
24038W        W96331  14.644  25.106   2.190
24039W        W96332   0.408   9.265  13.022
24040W        W96333  29.009  20.141   4.639
24041W        W96334  23.497  36.020   2.709
24042W        W96335   4.315  40.965   0.416
24043W        W96336   6.184  27.471   0.335
24044W        W96337   7.790   0.821   1.805
24045W        W96338  35.363  33.439  11.878
24046W        W96339  40.365   6.340   5.165
24047W        W96340  24.517  10.855  12.950
24048W        W96341   3.376  31.062   3.650
24049W        W96342  11.332  11.705   0.372
24050W        W96343  20.258   0.255   3.371
24051W        W96344  35.962  41.021  11.507
24052W        W96345   2.845   3.732   1.241
24053W        W96346  15.802  33.879  14.022
24054W        W96347  35.106  35.358  12.945
24055W        W96348  17.081  14.294  10.549
24056W        W96349   4.855   4.422  13.339
24057W        W96350  21.145   5.421  14.891
24058W        W96351  20.211   1.781  10.985
24059W        W96352  25.539   7.388  12.472
24060W        W96353  40.006  22.230   3.725
24061W        W96354  26.573  29.144   4.795
24062W        W96355  29.133  16.596  10.962
24063W        W96356   5.398  18.583  12.046
24064W        W96357   8.300  43.950  13.818
24065W        W96358  12.800  41.875   2.251
24066W        W96359  17.273  37.517   2.380
24067W        W96360  44.959   9.168  11.385
24068W        W96361  12.356  17.595  14.480
24069W        W96362  44.466   0.806  13.355
24070W        W96363  14.729  24.028   1.858
24071W        W96364  17.070  38.513  10.501
24072W        W96365  24.638  37.949  10.925
24073W        W96366  28.469   2.242  10.425
24074W        W96367   1.952  28.973   1.833
24075W        W96368  38.500   9.344   0.814
24076W        W96369  26.075  30.471   4.806
24077W        W96370  37.385   8.890  11.604
24078W        W96371  20.673  31.570   1.251
24079W        W96372  21.642  44.318  14.408
24080W        W96373   1.261   7.802   0.302
24081W        W96374  10.876  16.650  11.990
24082W        W96375  16.101  10.811   4.771
24083W        W96376   7.324  17.246  11.127
24084W        W96377  17.163   4.249   4.815
24085W        W96378  13.617  10.831   1.914
24086W        W96379  11.181  17.088  13.548
24087W        W96380  33.107   9.663  10.632
24088W        W96381  23.088  15.774  10.893
24089W        W96382  14.320  42.894   1.802
24090W        W96383  35.895  18.055   4.791
24091W        W96384  44.305  12.659   0.876
24092W        W96385  21.258  11.642   3.719
24093W        W96386  26.558  26.074  14.515
24094W        W96387   8.713  37.984   0.255
24095W        W96388   8.769  44.362  13.307
24096W        W96389  16.183  42.338  13.980
24097W        W96390  18.255  40.967  12.828
24098W        W96391   1.346  40.316   4.786
24099W        W96392  18.137   4.835   4.626
24100W        W96393  32.596  13.188   3.834
24101W        W96394  18.701  12.826   2.744
24102W        W96395  21.618  21.653   1.818
24103W        W96396   1.420  37.966   2.867
24104W        W96397   2.795  22.711   3.705
24105W        W96398   0.369   8.804  14.325
24106W        W96399  33.422  27.958  10.404
24107W        W96400  36.065  35.088   3.734
24108W        W96401  26.978  13.334  11.514
24109W        W96402  35.475   5.392  10.558
24110W        W96403   7.190   0.827   0.782
24111W        W96404  32.080  23.130  14.447
24112W        W96405  18.098  33.082  11.596
24113W        W96406  21.253  19.232   3.232
24114W        W96407  42.425  20.252   0.429
24115W        W96408  42.520  22.716  12.955
24116W        W96409  27.189  34.607   0.925
24117W        W96410  40.808  21.255  14.404
24118W        W96411  17.278  24.555  12.089
24119W        W96412  22.128  36.868  12.494
24120W        W96413  26.626  29.976  14.986
24121W        W96414  26.970  18.075   0.436
24122W        W96415  26.133  11.849  13.399
24123W        W96416   0.770  32.628  14.330
24124W        W96417  12.732  40.009   0.291
24125W        W96418  31.999  27.580   2.361
24126W        W96419  19.708  20.632   9.676
24127W        W96420  26.700  39.513  13.392
24128W        W96421  40.474  33.997   0.467
24129W        W96422  21.595   6.349   2.224
24130W        W96423  37.854  12.205  14.301
24131W        W96424  29.646   6.801  14.910
24132W        W96425  38.851  36.562  12.895
24133W        W96426  43.939   7.783   2.871
24134W        W96427   7.834   9.193  11.572
24135W        W96428  19.045   4.411   0.730
24136W        W96429  19.106  12.204  13.937
24137W        W96430  36.492  23.031   1.930
24138W        W96431  30.502  38.008   4.739
24139W        W96432  41.856  14.136  14.032
24140W        W96433  26.681  28.993   1.333
24141W        W96434  11.165   1.276   1.781
24142W        W96435   8.273  22.036   0.790
24143W        W96436  40.043  33.388  13.478
24144W        W96437  26.579  34.376  10.496
24145W        W96438  32.969  17.572  10.993
24146W        W96439  31.117  41.037  12.438
24147W        W96440  15.302  29.058   2.238
24148W        W96441  23.223  38.005  13.373
24149W        W96442  34.553  28.975   1.390
24150W        W96443  13.329  27.118  10.524
24151W        W96444  29.487  26.155  13.486
24152W        W96445  30.633  16.760   3.673
24153W        W96446  42.938  15.625  14.809
24154W        W96447   5.389  31.120  14.470
24155W        W96448  10.273  30.976   0.383
24156W        W96449   2.878   7.388  14.806
24157W        W96450  19.098  40.985   4.752
24158W        W96451  32.440   8.388  14.283
24159W        W96452   4.377  18.284   0.467
24160W        W96453   9.164   6.337  11.560
24161W        W96454  18.559   3.724  13.811
24162W        W96455  25.602  30.541   2.865
24163W        W96456  19.240  32.635  10.470
24164W        W96457   7.262  42.885   1.705
24165W        W96458  35.423   7.232   0.265
24166W        W96459  23.205  23.538   0.783
24167W        W96460  17.304  11.647   2.792
24168W        W96461   8.363  44.302  10.992
24169W        W96462  38.473   3.873  14.907
24170W        W96463  29.988  15.817   3.232
24171W        W96464   9.322  33.966   3.233
24172W        W96465  10.741   9.665   3.180
24173W        W96466  37.982   4.381  12.508
24174W        W96467  28.656  22.110  13.462
24175W        W96468   4.277  22.701   3.740
24176W        W96469  39.540   0.800  13.826
24177W        W96470  35.943  16.153  12.463
24178W        W96471  19.043   1.379  14.302
24179W        W96472  17.176  17.616   2.333
24180W        W96473  41.369   3.279   1.918
24181W        W96474  23.223   4.732  12.887
24182W        W96475  28.182  29.070   4.198
24183W        W96476   0.742   0.820   5.138
24184W        W96477  16.576  20.726  14.371
24185W        W96478  42.812  41.528  11.489
24186W        W96479  16.292  24.037   3.674
24187W        W96480  39.827  10.216   0.791
24188W        W96481  20.062  17.233  14.341
24189W        W96482  17.257  25.513  11.105
24190W        W96483  41.934  33.992   1.268
24191W        W96484  43.947  38.829   3.347
24192W        W96485   0.287  31.623   2.708
24193W        W96486   5.902  32.961  14.953
24194W        W96487  44.814  42.881  11.857
24195W        W96488  17.775  31.458  13.801
24196W        W96489  31.972  28.661  13.007
24197W        W96490  17.684  22.692  11.041
24198W        W96491   2.265  15.623   4.259
24199W        W96492  21.160   7.266   3.332
24200W        W96493  25.554   4.865  10.029
24201W        W96494  29.612  32.029   4.801
24202W        W96495   8.406  20.100  14.895
24203W        W96496  39.494  44.478   3.200
24204W        W96497  30.954  41.356  10.974
24205W        W96498  37.935  36.884  11.480
24206W        W96499  28.531  42.442   0.865
24207W        W96500  11.294  38.885   3.270
24208W        W96501  32.938  31.118   1.735
24209W        W96502  27.174  40.459  14.334
24210W        W96503  24.538  37.396  11.460
24211W        W96504  29.429  27.036  13.451
24212W        W96505   8.747  37.498  14.306
24213W        W96506  42.283  42.294  13.041
24214W        W96507  41.421  36.450   4.763
24215W        W96508  23.166  18.181   1.745
24216W        W96509  17.241  19.665  12.917
24217W        W96510  12.625   1.786   5.740
24218W        W96511   1.763  35.904   4.249
24219W        W96512  44.451  15.713   9.946
24220W        W96513  38.477  28.989  12.984
24221W        W96514   2.953  24.086   2.245
24222W        W96515  41.018  22.212  13.041
24223W        W96516   9.205   8.823   3.648
24224W        W96517  35.407  27.049  11.068
24225W        W96518  20.656  21.135   3.743
24226W        W96519  15.205  31.541   2.870
24227W        W96520  26.128  36.053   1.700
24228W        W96521   2.722   8.387  13.442
24229W        W96522   0.438  35.992  14.473
24230W        W96523  43.328  12.288  12.466
24231W        W96524  13.802   1.930  14.902
24232W        W96525  12.183  21.183  13.945
24233W        W96526  10.141   2.789   4.194
24234W        W96527   6.833   3.295   4.620
24235W        W96528  14.171   3.734   3.307
24236W        W96529  36.955  17.169   2.417
24237W        W96530  22.088  15.279   0.347
24238W        W96531  11.330   4.325  12.512
24239W        W96532   8.795  18.587   2.747
24240W        W96533   3.922  37.418  12.514
24241W        W96534  43.304  38.397  13.388
24242W        W96535  16.126  37.856   4.307
24243W        W96536  31.630  43.500   1.731
24244W        W96537  31.147  32.014   4.756
24245W        W96538  44.831  16.596   0.265
24246W        W96539  26.535  40.543   5.087
24247W        W96540  41.835  15.100   2.820
24248W        W96541   6.189  37.578  10.029
24249W        W96542  31.593  16.696   3.359
24250W        W96543  10.801  24.646   0.730
24251W        W96544  11.763  21.606  14.467
24252W        W96545  31.960  30.426   1.432
24253W        W96546  26.502  13.351   2.862
24254W        W96547  40.340  32.934  13.461
24255W        W96548  14.722  18.780   4.212
24256W        W96549  40.356  14.661  14.276
24257W        W96550   3.949  35.971   2.276
24258W        W96551   9.823  24.123   2.735
24259W        W96552  17.747  12.325  12.026
24260W        W96553  17.162  43.436   3.773
24261W        W96554  26.585   3.850   2.777
24262W        W96555   5.791  38.902  13.465
24263W        W96556   7.873  20.222  12.047
24264W        W96557  18.152   4.388   3.665
24265W        W96558   0.401  22.210  10.976
24266W        W96559  21.724  15.113   1.302
24267W        W96560  20.563   6.748   2.778
24268W        W96561  31.946  14.328   2.719
24269W        W96562   6.216   8.250   3.333
24270W        W96563  39.346  25.644   1.898
24271W        W96564  36.021  33.901  12.362
24272W        W96565  21.114   7.863  10.905
24273W        W96566   0.492  39.340  13.880
24274W        W96567  36.528  18.553  14.030
24275W        W96568  21.561  32.532  14.424
24276W        W96569  38.398  18.654  12.088
24277W        W96570  16.213  37.886  10.537
24278W        W96571  38.339  36.952   4.317
24279W        W96572  34.948  19.224   3.796
24280W        W96573  40.038   7.854  12.867
24281W        W96574  31.447  11.820  13.045
24282W        W96575  17.306  38.413   1.414
24283W        W96576  38.868  39.960  11.991
24284W        W96577  41.923  40.338   0.289
24285W        W96578  32.402  15.623  11.943
24286W        W96579  24.142  23.985   2.229
24287W        W96580  38.999  30.443   5.274
24288W        W96581   0.431  37.527   4.310
24289W        W96582  10.252  43.350   0.817
24290W        W96583   8.336  10.242   1.699
24291W        W96584  27.536  37.905  11.023
24292W        W96585  32.580   8.200  10.016
24293W        W96586  19.766  22.139  12.878
24294W        W96587  19.279   1.355   0.299
24295W        W96588  12.717  19.149  13.482
24296W        W96589  34.417  23.662  11.596
24297W        W96590  41.309   8.287  12.359
24298W        W96591  22.041   3.835  10.069
24299W        W96592  38.041  39.852  11.899
24300W        W96593   7.394  16.584  11.481
24301W        W96594   2.453  39.832   1.291
24302W        W96595  42.481   9.643  10.487
24303W        W96596  40.927   9.197  14.382
24304W        W96597  36.498  19.061  12.909
24305W        W96598   9.283  37.464   3.731
24306W        W96599  15.705  31.440  12.861
24307W        W96600  34.529  16.661  11.471
24308W        W96601  38.333  20.638  14.333
24309W        W96602   2.825  23.543  11.603
24310W        W96603  10.672  35.508  10.969
24311W        W96604   8.719   6.243  11.060
24312W        W96605   6.872  14.158   4.761
24313W        W96606  33.566  23.616  14.416
24314W        W96607  42.898  10.368   1.378
24315W        W96608   9.773  12.620  13.979
24316W        W96609  27.637  41.435   4.657
24317W        W96610  25.675   4.796  10.638
24318W        W96611  41.440  14.774  12.418
24319W        W96612  30.980   5.689   4.158
24320W        W96613  24.163   3.894  11.395
24321W        W96614  17.257   4.926   3.801
24322W        W96615   6.403   7.212   5.251
24323W        W96616  40.430   9.196  13.424
24324W        W96617  27.456  13.240  14.336
24325W        W96618  35.376  27.670  12.900
24326W        W96619  19.630  21.219  12.406
24327W        W96620  27.174  18.104   5.231
24328W        W96621  36.426  29.555   0.348
24329W        W96622   6.330  15.807  13.510
24330W        W96623  44.388   3.837   2.846
24331W        W96624  14.651  16.619  14.406
24332W        W96625  44.874  26.067   2.837
24333W        W96626  11.297   6.269   4.798
24334W        W96627  38.877   4.917   4.736
24335W        W96628  24.974  34.940  12.864
24336W        W96629  38.841  23.233   3.246
24337W        W96630   6.321  41.874  14.477
24338W        W96631  33.462  11.747  13.899
24339W        W96632  15.161  41.434  14.917
24340W        W96633   0.369  26.154   2.751
24341W        W96634  18.716  44.389   3.769
24342W        W96635  44.887  37.453   0.854
24343W        W96636   0.397  11.252   4.344
24344W        W96637   6.381  28.948  11.911
24345W        W96638   9.834  26.661   0.905
24346W        W96639  43.391  23.721   0.827
24347W        W96640  20.252  42.963  14.006
24348W        W96641   1.441  17.720  14.845
24349W        W96642   6.292   0.357   2.890
24350W        W96643  32.459  14.155  14.342
24351W        W96644  39.835  25.068   4.769
24352W        W96645  23.709  12.758   4.698
24353W        W96646  41.993  18.170  14.767
24354W        W96647  44.371   4.716  10.429
24355W        W96648   8.351  25.694   2.811
24356W        W96649   7.321  17.064   1.245
24357W        W96650  26.639   3.722   0.291
24358W        W96651  21.560  43.881  10.633
24359W        W96652   5.867  17.094  14.283
24360W        W96653   9.202  25.157   5.152
24361W        W96654   1.952   1.418  13.821
24362W        W96655  21.253  36.435   2.828
24363W        W96656   4.290  23.183  14.899
24364W        W96657  21.157  41.032  14.409
24365W        W96658  15.823  14.644  11.040
24366W        W96659  19.089   9.744   3.207
24367W        W96660  21.240  21.719  12.559
24368W        W96661  19.675  15.099  10.159
24369W        W96662  16.599   3.395   3.153
24370W        W96663  14.627  15.602   4.759
24371W        W96664   9.734  28.178   1.398
24372W        W96665  11.690  12.248  13.329
24373W        W96666   3.400  27.683   3.726
24374W        W96667  25.994  17.661  13.456
24375W        W96668  28.676  25.634  11.584
24376W        W96669   3.344  12.639   0.898
24377W        W96670  39.509  38.878  14.825
24378W        W96671   6.304  37.940  10.492
24379W        W96672  38.450  35.948   4.293
24380W        W96673  39.002   6.300  11.112
24381W        W96674  20.541   2.299   3.185
24382W        W96675  36.078   4.717   4.282
24383W        W96676  10.296  24.070  14.892
24384W        W96677  30.604   5.247   1.336
24385W        W96678   8.277  38.982   4.775
24386W        W96679  44.303   5.764   5.155
24387W        W96680  26.193  14.601   4.245
24388W        W96681  10.790  39.960   1.804
24389W        W96682  44.504   8.282   4.808
24390W        W96683  21.203  43.925  10.035
24391W        W96684  26.199  38.501  10.561
24392W        W96685  17.758  32.975   5.189
24393W        W96686   6.677  39.996   4.803
24394W        W96687  20.251  36.560   4.751
24395W        W96688  37.383  38.938  11.984
24396W        W96689  43.979  40.886  14.786
24397W        W96690   8.738  42.786  12.053
24398W        W96691  28.147  43.439   3.342
24399W        W96692  20.086   1.265  12.061
24400W        W96693   6.263  27.968  10.130
24401W        W96694  11.133  37.006  11.926
24402W        W96695   5.300  35.910   4.322
24403W        W96696  14.335  42.967  13.930
24404W        W96697  23.209   4.867   3.766
24405W        W96698  40.800  12.214  12.055
24406W        W96699   8.700  17.218   2.348
24407W        W96700   1.459  29.640   3.250
24408W        W96701  18.608   4.767   0.428
24409W        W96702  34.576  42.899   2.760
24410W        W96703  27.140  44.798  11.936
24411W        W96704  17.194  16.731   1.232
24412W        W96705  21.545  26.621   1.728
24413W        W96706  25.608  44.259   3.691
24414W        W96707  10.725  41.887  10.939
24415W        W96708  15.644   0.904  12.484
24416W        W96709  32.531   9.288  12.409
24417W        W96710  17.119  10.260  12.541
24418W        W96711   9.355  37.483   0.778
24419W        W96712  33.999  34.034   1.851
24420W        W96713  36.923  27.168  13.036
24421W        W96714  10.818   1.884   1.281
24422W        W96715  36.455  23.674   1.812
24423W        W96716  38.934  38.972   3.312
24424W        W96717   5.346  10.250   4.242
24425W        W96718  18.667   6.796   2.789
24426W        W96719  20.038  29.167   4.776
24427W        W96720  28.165  27.002   2.711
24428W        W96721  32.915  31.646  14.366
24429W        W96722   8.406  40.025  14.834
24430W        W96723   7.293  14.606  14.514
24431W        W96724  22.737  12.129   0.358
24432W        W96725   2.815   8.760   0.326
24433W        W96726  18.179  31.420  10.920
24434W        W96727  44.946  14.678   3.319
24435W        W96728  16.290  24.036   0.867
24436W        W96729  22.164  38.028  13.950
24437W        W96730  29.456  22.587  11.939
24438W        W96731  16.626  36.023   4.263
24439W        W96732  24.039  42.032   3.342
24440W        W96733  21.242   8.664  10.027
24441W        W96734  22.128  30.978  13.833
24442W        W96735  23.042  32.924  12.473
24443W        W96736  39.907  23.221  11.574
24444W        W96737   7.716  21.171  12.944
24445W        W96738  36.084  26.025  11.987
24446W        W96739   2.331   1.835   4.291
24447W        W96740  28.518  33.042  13.957
24448W        W96741   2.258  19.746   3.826
24449W        W96742   9.766  16.578  14.504
24450W        W96743  22.505  27.192  11.046
24451W        W96744   0.352  28.440   0.362
24452W        W96745  41.499  32.396  12.869
24453W        W96746  29.661  11.143   2.713
24454W        W96747  12.845  44.480   2.339
24455W        W96748   0.750  27.632   0.447
24456W        W96749  31.124   2.935   4.270
24457W        W96750   0.769  23.170  11.947
24458W        W96751  42.929  43.820  11.109
24459W        W96752  26.463  25.980   0.798
24460W        W96753  27.449   9.797  14.377
24461W        W96754  31.146  30.973   2.861
24462W        W96755   1.268   2.767   2.411
24463W        W96756  36.911  10.378  10.088
24464W        W96757  40.440  27.541  14.896
24465W        W96758  29.526  27.605  14.838
24466W        W96759  13.737  23.226   2.205
24467W        W96760  10.173   5.921  12.462
24468W        W96761  39.430   6.805   0.401
24469W        W96762  41.039  35.404  13.333
24470W        W96763  12.361  19.753   0.923
24471W        W96764  43.942  16.570  14.363
24472W        W96765  28.518  37.956  14.870
24473W        W96766  10.369   4.941   3.308
24474W        W96767  33.916  15.134   0.778
24475W        W96768  32.021  26.013   2.761
24476W        W96769  17.128  41.802  11.060
24477W        W96770  20.205   1.857   4.731
24478W        W96771  17.782  37.857  14.423
24479W        W96772  13.116   0.830  12.546
24480W        W96773  33.114   5.423  11.610
24481W        W96774  32.482  27.657  13.489
24482W        W96775  24.697  29.655  11.119
24483W        W96776  39.459  32.620  10.435
24484W        W96777  40.939  24.987   4.128
24485W        W96778  35.048  19.598   4.237
24486W        W96779  15.133  10.344  12.911
24487W        W96780  25.650  41.441   3.829
24488W        W96781  42.938  31.505  13.955
24489W        W96782  41.355  21.111  11.047
24490W        W96783  41.951   5.856  14.328
24491W        W96784  31.455  38.856  13.398
24492W        W96785  13.206  27.555   1.866
24493W        W96786  44.984  34.399   5.691
24494W        W96787   5.860  42.795   3.710
24495W        W96788  38.820   2.873  11.954
24496W        W96789   4.708  28.450  13.531
24497W        W96790  11.133   0.283  13.333
24498W        W96791  33.535  39.934   3.847
24499W        W96792  41.991  40.506  10.156
24500W        W96793  40.848  39.934  14.494
24501W        W96794  32.415  32.053  10.643
24502W        W96795  26.562  33.614  14.856
24503W        W96796  20.713  30.512  11.447
24504W        W96797  13.741   4.811  12.010
24505W        W96798  24.978  26.648   4.664
24506W        W96799  29.647  43.790   0.480
24507W        W96800  25.585   4.210   3.653
24508W        W96801   6.286  31.549   2.808
24509W        W96802   1.886  10.847   3.242
24510W        W96803  40.864  34.952  13.013
24511W        W96804   4.769  17.694   2.833
24512W        W96805  37.535  39.365  12.358
24513W        W96806  42.299  42.778   3.661
24514W        W96807  35.865   4.331  11.457
24515W        W96808   3.309  40.529   3.238
24516W        W96809  42.427   2.845  13.804
24517W        W96810  10.267  22.740   4.731
24518W        W96811  39.348  32.987   3.152
24519W        W96812   9.733  42.891  10.408
24520W        W96813   1.752  33.088  10.621
24521W        W96814   1.394  16.704  11.602
24522W        W96815   1.301  19.542  11.602
24523W        W96816   6.188  19.100   0.402
24524W        W96817  25.142  17.559   3.362
24525W        W96818   5.242  17.682   0.304
24526W        W96819  30.088  44.455  13.885
24527W        W96820  15.727   0.391  12.455
24528W        W96821  37.365  33.389   2.296
24529W        W96822   1.842  41.788  11.601
24530W        W96823   0.395  41.522  11.941
24531W        W96824  37.884  23.179   3.174
24532W        W96825  13.788  31.147   4.241
24533W        W96826  31.571  24.206   1.863
24534W        W96827  25.603  22.037   1.884
24535W        W96828  42.936  15.171   2.297
24536W        W96829  31.412  12.298  13.825
24537W        W96830  42.498  26.120  11.613
24538W        W96831   3.414  18.129   2.278
24539W        W96832  26.584   3.716   4.709
24540W        W96833   7.285  27.501  14.981
24541W        W96834  14.795  18.121  14.929
24542W        W96835  25.988   0.457   2.366
24543W        W96836  37.869  12.655   0.366
24544W        W96837   4.802  15.626  10.933
24545W        W96838  40.365  10.768  12.928
24546W        W96839   0.278   3.304   0.870
24547W        W96840  36.348  39.384  13.522
24548W        W96841  10.329  34.443   2.341
24549W        W96842   9.162  18.248   5.255
24550W        W96843  41.824  43.798  10.411
24551W        W96844  10.299  12.614   3.838
24552W        W96845   8.829  30.574  14.493
24553W        W96846   7.756  44.483   3.658
24554W        W96847  22.661   5.426  14.480
24555W        W96848  20.269  25.971  14.808
24556W        W96849   2.442   9.149  14.959
24557W        W96850  36.437  32.423  11.951
24558W        W96851  33.004  32.614  13.803
24559W        W96852  17.714  23.618  11.493
24560W        W96853  22.227  32.468   0.430
24561W        W96854   2.385   4.886  13.994
24562W        W96855   2.300   2.324  11.965
24563W        W96856  19.738  10.648  11.484
24564W        W96857   3.351  14.197   4.188
24565W        W96858   1.454  16.164  12.832
24566W        W96859  36.383  34.389   2.356
24567W        W96860  11.832  22.553   0.336
24568W        W96861  28.956  11.186   1.713
24569W        W96862  21.740  43.841   0.946
24570W        W96863  41.834   8.165   4.270
24571W        W96864   6.280  18.572   5.250
24572W        W96865   0.743  18.257  14.026
24573W        W96866   5.841  20.057   3.737
24574W        W96867  28.576  31.462  12.952
24575W        W96868   1.901  23.073  10.919
24576W        W96869  42.022  35.546  13.470
24577W        W96870  23.141  43.487   4.682
24578W        W96871   6.781  21.194  13.356
24579W        W96872  18.587  40.813   3.679
24580W        W96873   0.743  39.359  11.515
24581W        W96874  19.632   2.916   2.367
24582W        W96875  36.514  24.663  10.639
24583W        W96876  16.682  42.307  12.914
24584W        W96877  10.873   7.737  10.632
24585W        W96878  27.963   3.367  14.277
24586W        W96879  19.216  19.084   4.710
24587W        W96880   4.920  18.227  14.316
24588W        W96881  30.484  25.046   4.687
24589W        W96882  15.239  26.963   1.236
24590W        W96883  35.587  19.680   2.739
24591W        W96884   5.730  30.434  11.464
24592W        W96885   0.968  34.956   4.267
24593W        W96886  35.007  12.732  12.360
24594W        W96887  39.817  12.838  13.968
24595W        W96888  35.009  19.710   3.800
24596W        W96889   2.377   5.859  14.279
24597W        W96890  19.777  27.094   2.306
24598W        W96891  15.722  31.974   2.806
24599W        W96892  24.130  22.701   1.280
24600W        W96893  42.487  27.168  14.828
24601W        W96894  28.539  21.607  10.506
24602W        W96895  15.111   1.289  13.020
24603W        W96896   2.906  20.131   0.955
24604W        W96897  11.322  12.781   0.878
24605W        W96898  41.915  31.948  11.919
24606W        W96899  10.781  43.996  12.008
24607W        W96900  27.656  37.433  14.814
24608W        W96901  42.010  15.714   1.722
24609W        W96902  42.412  18.710   3.222
24610W        W96903  22.740  20.152   2.267
24611W        W96904  29.101  35.598   3.840
24612W        W96905   9.672  10.775  11.047
24613W        W96906  41.422  44.794  14.913
24614W        W96907  35.376   8.688  13.007
24615W        W96908  31.080   3.328  12.399
24616W        W96909  43.364  13.228  10.644
24617W        W96910  29.465  23.718  10.610
24618W        W96911   6.289   4.313   2.313
24619W        W96912   6.747  14.641   3.156
24620W        W96913  24.578  32.060   3.337
24621W        W96914  18.128  40.423   0.394
24622W        W96915  44.281  24.628   4.601
24623W        W96916  17.642  42.831   0.410
24624W        W96917  41.384  17.730  12.355
24625W        W96918  43.403   6.345  13.363
24626W        W96919  16.792  26.956  12.906
24627W        W96920   3.228   7.298   3.769
24628W        W96921   3.719  20.206  11.916
24629W        W96922  38.981   9.390   2.719
24630W        W96923  43.862  16.202  14.405
24631W        W96924  34.418  17.261   0.902
24632W        W96925   5.219   2.230   2.180
24633W        W96926  22.682   8.660   2.404
24634W        W96927  32.015  19.245   1.439
24635W        W96928  14.149  43.942   1.216
24636W        W96929   3.222  19.068   1.242
24637W        W96930  43.945  29.584  14.966
24638W        W96931  30.955   3.741  14.961
24639W        W96932  40.505  14.284  11.467
24640W        W96933  20.220  15.596  12.495
24641W        W96934  37.528  22.089  10.606
24642W        W96935  11.170  25.011  12.869
24643W        W96936   1.345  34.420   3.744
24644W        W96937  26.461  18.607   1.427
24645W        W96938  10.734  36.559  14.296
24646W        W96939  39.967  42.957  12.553
24647W        W96940   1.739   8.727   0.450
24648W        W96941   8.751  13.336   1.339
24649W        W96942  28.974  21.199   0.435
24650W        W96943  35.511  41.304  13.413
24651W        W96944  20.725  22.196  14.003
24652W        W96945   8.206   4.821   0.801
24653W        W96946   0.271  28.657  11.509
24654W        W96947  24.499   3.344   4.687
24655W        W96948   6.421   3.248  14.452
24656W        W96949   9.284   6.203   2.390
24657W        W96950  33.432   3.768   0.828
24658W        W96951  10.349  18.278  13.047
24659W        W96952  40.311   2.865  10.899
24660W        W96953  24.584  11.735   4.222
24661W        W96954  41.033  42.997  14.511
24662W        W96955  18.214  11.316  12.561
24663W        W96956  43.972  27.192  14.476
24664W        W96957  17.677   7.672   3.232
24665W        W96958  23.053  34.442   4.173
24666W        W96959  29.039   8.242  12.043
24667W        W96960  30.162  15.725  14.794
24668W        W96961  34.405  39.979   4.688
24669W        W96962  23.108  25.174  14.475
24670W        W96963  37.915  13.158  14.908
24671W        W96964   1.836   0.820  11.866
24672W        W96965   8.389   0.461   0.899
24673W        W96966   5.339  33.955  12.977
24674W        W96967  11.736  44.382   3.643
24675W        W96968   4.277  15.125   1.926
24676W        W96969  36.551  38.926   1.897
24677W        W96970  25.170  39.374  11.546
24678W        W96971  42.987  25.065  11.010
24679W        W96972  24.060  15.163  11.479
24680W        W96973  13.203  34.892   0.417
24681W        W96974  18.651  36.366  14.278
24682W        W96975  16.106  26.692   4.787
24683W        W96976  42.318  22.201   4.349
24684W        W96977  34.575  17.595   4.269
24685W        W96978  20.092  11.160  14.488
24686W        W96979   5.313  19.705  10.544
24687W        W96980   0.469  26.567   2.790
24688W        W96981  33.405  21.556   3.383
24689W        W96982   5.921   1.435   1.892
24690W        W96983  22.020   5.758   0.343
24691W        W96984  20.191  14.289   1.241
24692W        W96985  32.537  21.188   4.603
24693W        W96986  15.198  26.025  14.451
24694W        W96987   8.795  10.781   2.674
24695W        W96988  22.536  19.572   4.263
24696W        W96989  42.527   5.835   4.282
24697W        W96990  35.556   4.446   0.808
24698W        W96991  19.047  24.702  13.953
24699W        W96992  32.554  13.650   1.447
24700W        W96993  11.736  32.971  12.884
24701W        W96994  37.348  23.625  10.519
24702W        W96995   0.968  39.372  13.492
24703W        W96996   1.440   6.720  11.398
24704W        W96997  31.504  43.483  14.953
24705W        W96998   0.289  23.189   1.225
24706W        W96999  30.654   3.345  12.075
24707W        W97000  29.165  17.212   4.336
24708W        W97001  31.952  25.676   3.777
24709W        W97002  36.489   7.385   2.696
24710W        W97003  15.708  26.176  11.055
24711W        W97004  11.271   2.863   0.786
24712W        W97005   4.230  33.542  10.967
24713W        W97006   2.729   6.793  12.479
24714W        W97007  32.450  35.431  11.884
24715W        W97008  13.846  14.683   0.883
24716W        W97009  17.666  19.666  12.471
24717W        W97010  31.546  14.130   2.218
24718W        W97011  28.667  25.120  11.115
24719W        W97012   8.318  20.616   1.931
24720W        W97013  39.853   6.834   3.263
24721W        W97014  32.586   9.365  13.314
24722W        W97015  15.220  35.996   1.864
24723W        W97016  22.586  36.519  13.868
24724W        W97017  29.091   9.300  10.558
24725W        W97018  30.914  44.915  12.046
24726W        W97019  11.263   3.334   3.707
24727W        W97020  13.800  27.633  13.334
24728W        W97021  44.479  12.147   4.780
24729W        W97022  22.116   6.344   4.837
24730W        W97023   5.305  29.428   2.849
24731W        W97024  35.586  44.435   2.185
24732W        W97025  21.684  26.025   0.400
24733W        W97026  33.506   8.866   2.894
24734W        W97027  23.680  12.834   2.401
24735W        W97028   8.826  37.986   2.844
24736W        W97029  20.107  28.478  10.427
24737W        W97030   5.777  32.911  13.325
24738W        W97031  20.681  30.917  10.111
24739W        W97032  39.022  35.896   1.443
24740W        W97033  23.998  24.150  12.415
24741W        W97034  23.608  26.686   4.223
24742W        W97035  36.899  33.117   2.809
24743W        W97036   8.399  19.268  12.435
24744W        W97037  12.307   1.387   0.343
24745W        W97038  29.565   7.725  10.560
24746W        W97039  29.507  14.330   4.700
24747W        W97040  14.287  35.040   1.915
24748W        W97041  32.417  19.635  11.935
24749W        W97042  38.371  15.588  14.472
24750W        W97043  30.936  19.187  14.399
24751W        W97044  33.439  34.981  14.859
24752W        W97045  27.041  44.761   4.640
24753W        W97046   3.783  22.692  10.895
24754W        W97047  40.434  24.028  11.608
24755W        W97048   7.834  28.994   2.803
24756W        W97049   9.831  16.646   0.796
24757W        W97050  20.162  11.696  10.970
24758W        W97051  22.505  13.343   4.748
24759W        W97052   9.775  21.126  13.913
24760W        W97053  11.227  21.648  10.943
24761W        W97054  23.099  33.978   2.899
24762W        W97055   6.405  34.899   5.766
24763W        W97056  43.823  25.572  13.406
24764W        W97057  16.176  16.099  12.375
24765W        W97058  13.799  29.138  12.554
24766W        W97059  11.774  26.044  14.506
24767W        W97060  13.263  12.358  11.869
24768W        W97061  21.746   9.284  13.317
24769W        W97062  17.655  40.982  12.007
24770W        W97063   5.283  18.149   2.738
24771W        W97064  39.050  26.466   5.271
24772W        W97065  12.161   7.816  14.332
24773W        W97066  19.216  18.055   0.289
24774W        W97067   0.892   0.250  12.537
24775W        W97068  10.689  35.400  12.511
24776W        W97069   7.248   7.689  14.471
24777W        W97070  33.062  21.108  13.806
24778W        W97071  30.470   5.305   3.339
24779W        W97072  12.149  31.940   0.945
24780W        W97073  23.644   4.726   4.701
24781W        W97074  10.695  18.755   3.850
24782W        W97075  35.534  33.078  12.975
24783W        W97076  43.945  43.355  14.785
24784W        W97077  43.901   3.754   1.719
24785W        W97078  14.210  28.489  12.449
24786W        W97079  30.567  26.057   4.345
24787W        W97080  37.396   4.800  13.981
24788W        W97081  29.930  35.975   0.433
24789W        W97082  34.082   1.445  13.453
24790W        W97083  13.627  28.063   1.236
24791W        W97084   9.322  21.090   4.191
24792W        W97085  11.347  15.092   3.160
24793W        W97086  10.732  24.002   2.761
24794W        W97087   2.365  31.545   4.234
24795W        W97088   6.852  15.669   3.242
24796W        W97089  33.966  11.640   2.851
24797W        W97090  18.104  10.698  14.961
24798W        W97091  38.967  26.160  13.827
24799W        W97092  32.036  43.430   4.770
24800W        W97093   3.232  14.274  13.368
24801W        W97094  13.217  27.593   2.727
24802W        W97095  30.149  38.864   0.466
24803W        W97096  36.085  26.649  11.073
24804W        W97097  23.003  15.325   2.219
24805W        W97098  15.111   7.793   0.961
24806W        W97099  18.659  10.303  13.307
24807W        W97100  12.855  20.138  11.455
24808W        W97101  10.215  37.384  10.102
24809W        W97102  20.042  35.536   4.134
24810W        W97103  19.081  32.433  12.979
24811W        W97104  44.372  25.127  14.311
24812W        W97105   0.899  38.044   2.695
24813W        W97106  23.710  16.599   2.351
24814W        W97107  13.166   5.822  13.533
24815W        W97108  32.077  41.811   0.788
24816W        W97109   7.789  21.103   1.748
24817W        W97110  37.976  12.717  11.936
24818W        W97111  12.637  35.586  13.802
24819W        W97112   9.377  23.705   4.671
24820W        W97113  17.296   8.343  11.609
24821W        W97114  35.593  20.230   3.352
24822W        W97115  23.638  18.732  11.529
24823W        W97116   4.206  37.358   4.797
24824W        W97117  25.081  43.427  13.354
24825W        W97118  18.173  23.680   9.996
24826W        W97119   5.243  31.956   1.874
24827W        W97120  19.155  35.496   2.281
24828W        W97121   8.826  10.820   1.724
24829W        W97122  35.364   5.814   3.330
24830W        W97123  14.277   1.274   0.316
24831W        W97124  38.958  23.020  10.449
24832W        W97125  41.942  20.738  14.912
24833W        W97126  44.813  10.333  12.363
24834W        W97127  21.131  21.184  13.905
24835W        W97128  10.377  17.086  11.903
24836W        W97129  25.687  30.571   4.120
24837W        W97130  36.911  34.055   3.772
24838W        W97131  18.236  21.705   1.783
24839W        W97132   4.811   8.161   3.700
24840W        W97133  24.634  35.431   0.351
24841W        W97134  44.848  27.633  14.398
24842W        W97135  22.130   2.936   5.170
24843W        W97136  25.603   8.179  13.448
24844W        W97137  44.849   6.319   2.197
24845W        W97138  28.965  24.564  12.028
24846W        W97139  39.051  25.589  13.916
24847W        W97140  44.771  10.228  14.965
24848W        W97141  17.239  32.072   0.438
24849W        W97142  12.284  11.717   0.286
24850W        W97143  25.215   3.814  14.993
24851W        W97144  41.806  17.638  13.818
24852W        W97145  32.887   9.812   5.640
24853W        W97146  32.959  20.228   1.254
24854W        W97147  10.315  40.518   1.787
24855W        W97148  39.900  25.587  12.840
24856W        W97149  33.081   5.300   4.622
24857W        W97150  30.521  33.452   3.739
24858W        W97151  15.609  43.363  11.050
24859W        W97152  10.763   5.247   2.826
24860W        W97153  38.827   3.809   0.473
24861W        W97154   5.353   5.272  13.947
24862W        W97155  24.062  37.024  13.368
24863W        W97156  32.460  28.117  11.531
24864W        W97157  41.415  43.418  14.938
24865W        W97158   5.241   9.332   0.383
24866W        W97159  16.279  12.691  13.338
24867W        W97160  34.987  29.039  11.592
24868W        W97161  38.419  43.331   1.791
24869W        W97162  16.102   2.297  12.362
24870W        W97163  19.278   2.762  11.940
24871W        W97164  21.249   5.226  14.341
24872W        W97165  29.078  44.937   2.394
24873W        W97166  11.221  21.109   3.849
24874W        W97167   9.830  35.066   2.404
24875W        W97168   7.238  22.703   0.471
24876W        W97169   9.381  14.235  10.450
24877W        W97170  34.502  30.988  14.864
24878W        W97171   1.415  29.995   1.396
24879W        W97172  17.204  37.445  12.944
24880W        W97173  27.960  29.947   9.965
24881W        W97174  22.541  44.406  13.896
24882W        W97175  25.116  42.934  14.277
24883W        W97176  27.612  22.244   0.944
24884W        W97177  19.239  40.459  11.486
24885W        W97178  12.228  41.981  11.399
24886W        W97179   4.910  12.742   0.243
24887W        W97180  17.260   2.249   1.395
24888W        W97181  36.904  34.105   4.250
24889W        W97182  25.542  22.602  13.326
24890W        W97183  25.709  31.562  14.370
24891W        W97184  26.129  29.964   4.174
24892W        W97185  16.276  38.993   1.731
24893W        W97186  23.990  16.683  10.519
24894W        W97187  23.225  33.399  13.978
24895W        W97188  13.197  18.624   2.689
24896W        W97189   9.205  38.337  12.000
24897W        W97190   1.857  22.024   4.757
24898W        W97191  27.971   8.890   2.791
24899W        W97192  19.243  44.267   0.894
24900W        W97193  36.492  22.069  11.410
24901W        W97194  35.573  15.281  10.899
24902W        W97195  35.993  21.632   4.150
24903W        W97196  12.788  15.586   3.333
24904W        W97197  22.724  12.292  10.610
24905W        W97198   1.307  18.647   4.165
24906W        W97199  38.408  22.627  13.401
24907W        W97200  23.643  16.172   4.354
24908W        W97201  23.225  35.452   2.399
24909W        W97202  12.265  14.638   0.892
24910W        W97203  18.163  31.079   9.555
24911W        W97204   3.928   5.755  13.820
24912W        W97205   2.808   9.206   1.391
24913W        W97206  44.864   7.334   4.693
24914W        W97207  40.896  11.317   1.232
24915W        W97208   5.226   9.343   2.834
24916W        W97209   0.256   3.930   2.897
24917W        W97210  14.743  21.578  13.425
24918W        W97211   2.813  18.550   4.322
24919W        W97212  27.574  36.883  13.001
24920W        W97213   4.341  39.950   1.425
24921W        W97214  29.112  39.905   1.324
24922W        W97215  29.486  30.090   2.714
24923W        W97216  39.503  34.540   1.867
24924W        W97217  15.151  19.622   0.740
24925W        W97218  16.704  32.431   0.462
24926W        W97219  30.910  27.957   3.836
24927W        W97220  26.579  10.825   0.439
24928W        W97221   9.889  11.781   2.839
24929W        W97222  23.615  10.252  11.609
24930W        W97223  13.768   4.385  12.045
24931W        W97224  41.435  32.469  14.853
24932W        W97225  15.603  17.747   1.911
24933W        W97226  32.081  29.649  11.532
24934W        W97227  39.509   9.279  14.894
24935W        W97228  38.528  33.977   2.883
24936W        W97229  36.456  31.463   0.312
24937W        W97230  22.171  16.586   0.892
24938W        W97231  10.184   3.405  10.612
24939W        W97232  30.650   8.835   3.710
24940W        W97233  22.101   4.405  12.925
24941W        W97234  43.848  43.889  12.839
24942W        W97235   8.656  20.234  14.296
24943W        W97236  18.118   9.372   1.314
24944W        W97237   4.287  13.301  12.350
24945W        W97238  26.508   9.209   0.808
24946W        W97239   4.433  17.771   0.817
24947W        W97240  11.171   8.372  14.916
24948W        W97241   3.889  15.296  10.948
24949W        W97242  39.020  23.683  12.344
24950W        W97243  10.781  38.357  12.539
24951W        W97244  38.986  15.263  12.465
24952W        W97245  14.665  13.657  12.457
24953W        W97246  16.671  36.962   3.791
24954W        W97247  41.450  35.423   4.817
24955W        W97248  14.795  41.505   5.140
24956W        W97249  24.643  16.706   4.698
24957W        W97250  44.929   0.777   0.824
24958W        W97251  15.198   3.349   5.188
24959W        W97252  12.780  11.189   3.767
24960W        W97253  16.309  26.601   1.727
24961W        W97254  30.437  31.136   1.776
24962W        W97255  42.393  34.607  14.014
24963W        W97256  19.108  30.062  11.483
24964W        W97257   5.349  28.975   1.426
24965W        W97258  13.294   1.364  10.539
24966W        W97259  15.684  37.863   1.814
24967W        W97260  22.248  24.650  14.465
24968W        W97261   9.360   0.864  12.899
24969W        W97262  41.891  17.618  11.031
24970W        W97263   3.271  13.186   4.250
24971W        W97264  28.461  21.647  14.898
24972W        W97265  31.540  12.643  13.000
24973W        W97266  23.028  42.960  12.056
24974W        W97267  21.670  26.193   3.713
24975W        W97268  42.414  39.849  11.470
24976W        W97269  38.910  40.403   2.685
24977W        W97270  22.607  35.586  12.559
24978W        W97271  23.493  42.785  12.996
24979W        W97272  39.809  37.944   2.407
24980W        W97273  40.385  35.436  12.432
24981W        W97274  37.986  20.247   1.242
24982W        W97275  44.008  32.051   0.733
24983W        W97276  36.373  39.514   0.738
24984W        W97277  26.030  39.960   3.663
24985W        W97278   8.860  24.553  13.523
24986W        W97279  42.851  33.440  13.407
24987W        W97280  42.351  24.679  11.870
24988W        W97281  33.514  43.331   1.385
24989W        W97282  43.804  22.660   4.633
24990W        W97283  16.292   1.303  10.593
24991W        W97284  21.745  35.922  11.543
24992W        W97285  23.596  32.981  14.322
24993W        W97286   3.262  39.816   2.203
24994W        W97287  20.622   8.382   4.798
24995W        W97288  32.591  30.978   3.187
24996W        W97289  32.455  29.555  12.085
24997W        W97290  26.174  30.134  13.411
24998W        W97291   1.960  37.358  11.014
24999W        W97292  42.875  24.216   1.284
25000W        W97293  33.978  21.017   2.888
25001W        W97294  16.165  35.513  11.398
25002W        W97295  40.384  32.419   4.273
25003W        W97296   4.747  32.430   1.812
25004W        W97297   0.839  26.158  11.034
25005W        W97298  23.579  32.057   1.249
25006W        W97299  42.872   1.309   4.302
25007W        W97300  24.589  38.837   3.226
25008W        W97301  15.698  13.258  14.512
25009W        W97302   3.931  33.410  11.581
25010W        W97303  37.457  40.970   2.368
25011W        W97304  12.826  25.215   0.246
25012W        W97305   2.830   5.874   2.877
25013W        W97306  18.757  26.966  11.125
25014W        W97307  31.118  35.531  11.550
25015W        W97308  24.991   9.733  13.871
25016W        W97309  35.007  42.918   1.726
25017W        W97310   3.771  35.992   3.657
25018W        W97311  15.164   2.291  12.423
25019W        W97312  32.090   9.190   4.319
25020W        W97313  11.753  34.911   0.473
25021W        W97314  23.695  14.834   2.301
25022W        W97315  38.040  41.007  14.291
25023W        W97316  25.093   3.723   0.254
25024W        W97317   4.901  18.226  10.005
25025W        W97318  10.382  28.115   4.628
25026W        W97319  36.449  38.944   3.379
25027W        W97320  39.335  33.568   0.475
25028W        W97321  28.487  10.827  12.012
25029W        W97322  16.639  30.061  13.873
25030W        W97323  40.363  35.511  11.491
25031W        W97324  27.196   4.916  12.453
25032W        W97325  36.392   2.834   4.190
25033W        W97326  36.015  43.479   2.761
25034W        W97327   8.794  25.550  14.865
25035W        W97328   6.722  42.900  14.851
25036W        W97329  26.518  15.587  11.011
25037W        W97330  10.690  38.907   4.836
25038W        W97331  30.520   8.837   0.402
25039W        W97332  23.237  30.537  14.952
25040W        W97333  12.665   2.760   3.226
25041W        W97334   0.949  14.099   3.266
25042W        W97335  15.686  13.649   1.320
25043W        W97336  16.748  16.091  12.029
25044W        W97337  24.023   6.192  10.592
25045W        W97338  19.678  22.229  11.471
25046W        W97339  28.671  35.856   4.202
25047W        W97340  27.462  43.804  14.317
25048W        W97341  26.486   3.436   3.147
25049W        W97342  21.516   6.290  14.818
25050W        W97343  23.095  28.017  14.304
25051W        W97344  40.803  40.801   2.307
25052W        W97345  30.485  30.039  12.077
25053W        W97346  25.549   6.294  11.928
25054W        W97347  37.484  29.039   1.710
25055W        W97348  43.862  40.362   1.753
25056W        W97349  27.976  27.197  13.840
25057W        W97350   5.777  34.503   2.708
25058W        W97351  37.567  14.816   1.404
25059W        W97352  25.702  39.961   3.171
25060W        W97353  40.401   8.790  12.913
25061W        W97354  27.167   9.159  14.288
25062W        W97355  31.126   1.734  14.923
25063W        W97356  30.012  35.415   4.817
25064W        W97357  28.604   1.362   0.251
25065W        W97358  29.507  42.909   2.677
25066W        W97359  38.961  42.299   1.744
25067W        W97360  38.399  16.161  13.867
25068W        W97361   4.731  44.449   0.952
25069W        W97362  29.952  17.236   0.365
25070W        W97363  39.318  20.538  12.021
25071W        W97364   2.961   8.803  10.960
25072W        W97365   7.772  39.018   1.926
25073W        W97366  11.243  44.305   2.218
25074W        W97367  11.812  23.729   2.753
25075W        W97368  28.587  36.392  11.509
25076W        W97369   6.849  42.030   1.786
25077W        W97370  28.964  42.330   4.355
25078W        W97371  43.806  42.965   3.191
25079W        W97372  18.214  44.764  14.006
25080W        W97373  41.463  13.687  10.928
25081W        W97374  24.691  15.136  13.990
25082W        W97375  39.420  24.052  12.894
25083W        W97376   5.231  33.957  11.458
25084W        W97377  38.420  41.488   2.331
25085W        W97378  24.546  11.831   4.620
25086W        W97379  35.998  29.056   1.769
25087W        W97380  33.505  18.252   1.815
25088W        W97381   1.351   3.884   1.280
25089W        W97382  39.454  43.897  10.587
25090W        W97383  26.087   9.211   3.164
25091W        W97384  18.636   0.380   0.940
25092W        W97385  35.582  39.885  13.981
25093W        W97386  38.885  43.312   3.807
25094W        W97387  33.891  22.181  14.949
25095W        W97388   1.448  25.545  14.470
25096W        W97389   2.310   1.780   3.761
25097W        W97390  11.803  20.162  14.486
25098W        W97391  24.092  33.046   1.224
25099W        W97392  37.992  44.928  12.925
25100W        W97393  20.550  25.141  11.020
25101W        W97394   5.839  36.461  14.423
25102W        W97395  17.214   7.274  13.397
25103W        W97396  34.392  12.776  12.359
25104W        W97397   5.259  25.122   0.408
25105W        W97398  14.823  44.266  14.897
25106W        W97399   6.810  33.403   2.834
25107W        W97400  11.267  26.504   4.241
25108W        W97401  33.442  10.154   4.607
25109W        W97402  30.039  31.521  13.016
25110W        W97403  34.447  22.521  13.031
25111W        W97404  15.814  27.609  10.457
25112W        W97405  22.721  37.532  13.900
25113W        W97406  13.314  43.970  10.937
25114W        W97407  40.982  40.987   3.696
25115W        W97408  31.612  37.031  13.952
25116W        W97409  39.922  15.692   3.679
25117W        W97410   4.838   6.380   1.699
25118W        W97411   4.392  23.038  12.073
25119W        W97412   7.705  39.903  10.428
25120W        W97413   0.362  18.696   3.167
25121W        W97414   0.961  24.171  10.565
25122W        W97415  19.172  40.874  10.911
25123W        W97416  18.762  36.047  11.027
25124W        W97417  34.571  29.446   4.710
25125W        W97418  25.214  42.916  12.012
25126W        W97419  20.752  27.010   1.427
25127W        W97420   8.890  35.991   0.867
25128W        W97421   7.387  22.644  12.459
25129W        W97422   7.174  35.007  10.477
25130W        W97423  30.974  16.101   0.841
25131W        W97424   6.708  28.555  11.886
25132W        W97425   4.398  40.379   1.825
25133W        W97426  20.144  24.479  10.587
25134W        W97427  27.465   6.760  11.121
25135W        W97428  36.591  32.924  11.529
25136W        W97429  19.679  26.993  14.972
25137W        W97430  25.986  28.991  12.978
25138W        W97431  33.419   2.952  12.465
25139W        W97432  33.428  25.700   9.936
25140W        W97433  20.039  11.857  13.836
25141W        W97434  39.426  32.605  14.856
25142W        W97435  38.500   6.726   1.236
25143W        W97436  25.631  14.269  14.972
25144W        W97437  40.473   0.932   1.225
25145W        W97438  38.335  34.092   4.262
25146W        W97439   4.340   3.223  10.482
25147W        W97440   9.780  32.980   1.921
25148W        W97441  16.648   8.760   0.933
25149W        W97442  33.992  18.658  13.857
25150W        W97443  13.144  11.825   0.320
25151W        W97444  32.975  13.650  12.425
25152W        W97445  19.280   7.669  11.601
25153W        W97446  17.690  21.650   0.762
25154W        W97447   5.850  39.355   1.406
25155W        W97448  25.107   5.287   0.788
25156W        W97449  11.853   2.825  13.526
25157W        W97450  30.159  15.814  11.117
25158W        W97451  17.075  23.680  10.958
25159W        W97452  19.640  10.209  14.486
25160W        W97453  13.330  29.920  11.990
25161W        W97454  18.257  14.738  14.368
25162W        W97455  27.137  28.174  10.967
25163W        W97456  26.061   9.696  12.345
25164W        W97457   4.717  33.955  12.547
25165W        W97458   8.348  18.221  12.440
25166W        W97459  40.962  24.080   2.278
25167W        W97460  23.118  16.722  12.987
25168W        W97461  42.332  12.247   1.740
25169W        W97462  41.994  28.001   4.291
25170W        W97463  28.543  23.209   0.328
25171W        W97464  39.941  18.747  14.454
25172W        W97465   4.821  16.607  12.519
25173W        W97466   7.774  39.970   4.633
25174W        W97467  12.612  18.093   2.853
25175W        W97468  38.899  11.688   3.205
25176W        W97469  17.685   4.764  11.484
25177W        W97470   7.736  41.388  14.353
25178W        W97471   2.900   2.854  14.018
25179W        W97472  10.341  24.723  13.323
25180W        W97473  39.991  32.046  11.404
25181W        W97474   2.422  41.799  11.038
25182W        W97475  24.585  20.120  12.561
25183W        W97476   2.308  39.833  12.925
25184W        W97477   9.173  15.319  11.928
25185W        W97478  36.927   0.897  12.944
25186W        W97479  25.115  33.983   2.415
25187W        W97480   4.867  23.121   4.704
25188W        W97481  14.180  28.974  12.359
25189W        W97482   1.469   5.920  11.613
25190W        W97483   4.729   4.939  11.005
25191W        W97484  40.396  29.670  12.392
25192W        W97485  29.135  32.907  10.954
25193W        W97486  19.149  22.130   1.935
25194W        W97487  23.224   5.894   3.226
25195W        W97488  17.093  28.977   3.353
25196W        W97489  21.746  37.486  11.068
25197W        W97490  29.593   7.376   3.299
25198W        W97491  32.109  34.404  12.893
25199W        W97492   7.353  22.746  13.454
25200W        W97493  25.983  16.202   1.877
25201W        W97494  25.669  25.110  14.031
25202W        W97495  17.603  19.675  12.840
25203W        W97496   4.420  18.085   1.410
25204W        W97497  31.079   5.414  13.014
25205W        W97498  11.302  16.105  12.431
25206W        W97499  14.677  44.397  10.929
25207W        W97500  10.770  42.380   1.723
25208W        W97501   9.233  10.317   4.636
25209W        W97502  36.502   9.803   1.295
25210W        W97503  33.015  40.953   3.209
25211W        W97504  41.011  36.053   3.152
25212W        W97505  38.563  21.517   3.858
25213W        W97506  23.035  39.958   0.441
25214W        W97507  25.713  23.234   3.165
25215W        W97508  26.168  10.254   0.796
25216W        W97509  33.999  27.448  10.622
25217W        W97510  37.417   6.410  14.821
25218W        W97511   0.304  33.461   3.233
25219W        W97512  31.047   7.896  11.517
25220W        W97513  42.470  20.720  12.081
25221W        W97514   1.290  28.974   3.296
25222W        W97515  26.975  44.458  10.029
25223W        W97516  37.025  30.595   1.764
25224W        W97517  15.114   7.841  14.496
25225W        W97518  17.629  42.352   3.236
25226W        W97519  18.594   4.221   3.631
25227W        W97520  35.435  32.449  11.410
25228W        W97521  33.510  40.426  12.913
25229W        W97522  21.674  30.097   3.666
25230W        W97523  39.393  44.276  11.048
25231W        W97524  44.978  27.132   3.757
25232W        W97525  15.723  41.307  11.376
25233W        W97526  25.175  43.810   1.334
25234W        W97527  38.014  43.415  13.533
25235W        W97528  24.038  37.523  12.910
25236W        W97529   6.781  35.597  14.026
25237W        W97530  27.103  44.319   1.301
25238W        W97531  39.937  20.131  12.489
25239W        W97532   6.821  40.010  12.507
25240W        W97533  35.884   0.401  13.050
25241W        W97534  16.142  32.143   0.952
25242W        W97535  20.588  28.934  12.944
25243W        W97536   3.411  25.540   2.722
25244W        W97537  37.880  14.756   0.311
25245W        W97538  42.358  35.453   1.879
25246W        W97539  40.847   4.780   1.907
25247W        W97540  12.854  17.655   4.691
25248W        W97541  21.727  15.239   4.719
25249W        W97542  33.618  40.988  10.157
25250W        W97543  29.082  26.526  12.094
25251W        W97544  32.399  13.226  11.072
25252W        W97545  29.665   0.462   4.792
25253W        W97546  28.073  39.362  14.797
25254W        W97547  41.016  27.038   0.275
25255W        W97548  14.674   6.348   3.868
25256W        W97549  24.191  36.858  10.568
25257W        W97550  37.559  42.422  12.855
25258W        W97551   9.845   5.859  11.407
25259W        W97552  17.278   6.404  10.058
25260W        W97553  41.321  36.566  13.999
25261W        W97554  22.103  39.062  13.472
25262W        W97555   5.328  28.125  13.941
25263W        W97556   1.385  14.270  11.510
25264W        W97557   7.740  29.162   1.919
25265W        W97558  31.643   8.749  10.481
25266W        W97559  24.605  29.078   0.779
25267W        W97560  35.478  27.491  14.346
25268W        W97561  41.937  26.069  11.999
25269W        W97562  42.433  25.974  14.899
25270W        W97563   5.810  13.135   1.899
25271W        W97564  40.511  23.140  14.792
25272W        W97565  13.248  39.874  10.470
25273W        W97566   9.657  17.063   3.344
25274W        W97567  39.058  16.262   1.223
25275W        W97568   5.795  35.463   4.326
25276W        W97569  40.423  22.736   2.881
25277W        W97570  11.634  10.295   4.333
25278W        W97571  39.842  26.646  14.993
25279W        W97572  10.137   5.725   0.448
25280W        W97573  10.771  32.970  11.956
25281W        W97574  24.194  37.999  10.452
25282W        W97575  43.810  25.540   1.881
25283W        W97576  29.547   9.825   2.403
25284W        W97577  17.610   8.720  13.022
25285W        W97578  31.108  16.707  12.095
25286W        W97579  13.773  22.610   4.322
25287W        W97580  25.603  19.248  13.337
25288W        W97581  10.732  38.057  14.433
25289W        W97582  11.273  16.230   4.288
25290W        W97583  29.589  18.553   9.931
25291W        W97584  44.358  33.990   1.846
25292W        W97585  32.976   7.335   1.355
25293W        W97586  43.409  44.944  11.981
25294W        W97587   9.365   4.789   1.707
25295W        W97588  16.094  40.939  11.531
25296W        W97589  26.636  20.614   2.903
25297W        W97590  35.062  17.251   0.808
25298W        W97591  13.600  32.475   0.276
25299W        W97592  44.259  39.408  14.999
25300W        W97593   9.382  17.263   2.326
25301W        W97594   7.819  40.828   3.238
25302W        W97595   3.879  10.264   3.677
25303W        W97596  14.764  12.187   0.949
25304W        W97597  12.766  12.749   2.419
25305W        W97598  17.267  43.492  12.039
25306W        W97599  43.855  33.477  13.505
25307W        W97600   7.212  37.890   3.634
25308W        W97601  30.065  13.187  14.459
25309W        W97602  41.386   3.944   3.795
25310W        W97603  27.119   9.674   1.863
25311W        W97604  43.389  32.913  12.380
25312W        W97605  24.152  26.137  10.938
25313W        W97606  35.959  14.095  10.987
25314W        W97607   7.345  14.278  12.519
25315W        W97608  39.866   2.947  13.030
25316W        W97609  18.222  26.621   2.705
25317W        W97610  25.116  34.411  13.521
25318W        W97611   0.358  26.124   3.779
25319W        W97612   7.893   2.250  12.473
25320W        W97613  16.758  43.973   3.203
25321W        W97614   6.219  18.267  12.456
25322W        W97615   4.398   9.267  12.342
25323W        W97616  44.495   3.400   0.739
25324W        W97617  23.115  27.626  11.387
25325W        W97618   7.310   9.739  11.539
25326W        W97619  35.999   3.295  14.335
25327W        W97620  25.097  20.667  11.559
25328W        W97621  42.319  33.418  14.031
25329W        W97622  42.298  44.328  11.030
25330W        W97623  29.555  19.241   2.219
25331W        W97624  12.137  15.609   1.860
25332W        W97625   3.818  40.888  14.407
25333W        W97626  11.187  37.351   5.120
25334W        W97627  20.043   6.188   2.312
25335W        W97628  16.741  26.643  11.400
25336W        W97629  32.411  18.233  13.414
25337W        W97630  40.004  32.097  14.000
25338W        W97631  34.046  39.535   1.289
25339W        W97632   7.686  36.534   2.414
25340W        W97633  34.614   2.937   0.744
25341W        W97634  29.477  22.167   3.283
25342W        W97635  32.571  34.974  13.517
25343W        W97636  16.214   2.244   0.912
25344W        W97637  38.436  40.870   2.809
25345W        W97638  40.443  24.098  11.860
25346W        W97639  12.208  28.124  13.445
25347W        W97640  21.244  35.958  12.917
25348W        W97641  21.248  30.068  11.861
25349W        W97642   0.897  35.103  14.505
25350W        W97643  40.478  21.652  13.886
25351W        W97644  42.889  17.589  10.152
25352W        W97645   2.896   6.286   0.378
25353W        W97646  35.944  13.756   3.690
25354W        W97647  37.427  29.644   1.340
25355W        W97648  15.109  27.083  11.076
25356W        W97649  17.659  32.589   4.209
25357W        W97650  15.083  38.879  11.995
25358W        W97651  14.284   0.748  11.978
25359W        W97652  37.950  12.134   1.844
25360W        W97653   8.175   0.404  11.922
25361W        W97654  14.240   1.426  10.435
25362W        W97655  40.531   2.336  14.477
25363W        W97656   2.870   1.858   3.629
25364W        W97657  38.035   1.354  12.008
25365W        W97658   1.872  14.336   0.482
25366W        W97659   2.777  25.641  14.848
25367W        W97660  28.629  27.520  14.947
25368W        W97661   3.824  22.592   2.325
25369W        W97662  34.036   0.904  12.056
25370W        W97663  26.503  23.193  12.395
25371W        W97664   2.729   3.760   0.404
25372W        W97665  36.400  36.849  12.998
25373W        W97666  27.539   8.243   4.807
25374W        W97667  16.258  26.681  12.850
25375W        W97668   4.701  26.112   2.693
25376W        W97669  30.981  17.262  12.019
25377W        W97670  39.866   6.238   2.177
25378W        W97671  41.819   8.861  14.276
25379W        W97672  31.051  25.637  13.809
25380W        W97673  13.275   4.247  13.420
25381W        W97674  38.886   9.173  14.935
25382W        W97675  41.480   4.810   2.309
25383W        W97676  39.834  25.551   1.712
25384W        W97677  27.479  34.393   2.831
25385W        W97678  21.738  35.495  10.891
25386W        W97679  10.813   7.275  11.481
25387W        W97680  23.167  44.893  10.508
25388W        W97681   7.774   7.874  14.299
25389W        W97682  30.551  10.274  10.891
25390W        W97683  15.105   2.916  12.846
25391W        W97684  16.645  30.003  12.942
25392W        W97685  14.696  44.806  13.365
25393W        W97686  42.977  41.843  12.032
25394W        W97687  41.943  21.595   0.907
25395W        W97688   5.916  27.987  13.872
25396W        W97689   4.929  44.318  10.414
25397W        W97690  12.315  15.108  13.834
25398W        W97691  25.073  25.647   4.668
25399W        W97692   6.344   9.866   2.718
25400W        W97693   4.923   3.273   0.462
25401W        W97694  28.149  30.911   3.749
25402W        W97695   7.280  23.702  10.606
25403W        W97696  42.857  28.539   3.651
25404W        W97697   0.978  33.086   1.827
25405W        W97698  31.954  13.679   4.134
25406W        W97699  43.367  23.057  13.444
25407W        W97700   7.780   2.420  13.040
25408W        W97701  37.080   1.803  12.527
25409W        W97702   9.840   4.374  12.033
25410W        W97703   8.336  43.364  11.049
25411W        W97704  13.250  41.895  14.840
25412W        W97705   5.749   1.929  13.376
25413W        W97706  27.066   3.361   1.271
25414W        W97707  39.835  27.582   0.760
25415W        W97708  19.086   0.261   2.270
25416W        W97709  38.850  16.206   2.780
25417W        W97710  12.832   3.341  10.008
25418W        W97711   9.211  25.021   4.801
25419W        W97712  35.000  24.141   1.254
25420W        W97713  22.727  24.011  14.513
25421W        W97714  43.928  39.863  14.435
25422W        W97715  30.074   6.813  14.845
25423W        W97716   5.761  33.591  10.421
25424W        W97717  11.752  16.606   9.921
25425W        W97718  27.566  39.555   0.768
25426W        W97719  29.503  12.703  14.445
25427W        W97720  17.577  35.035   4.753
25428W        W97721   5.897  29.582   2.840
25429W        W97722   0.905  24.623   1.236
25430W        W97723  27.636  27.682   3.373
25431W        W97724   3.949  37.458  10.494
25432W        W97725  37.843  20.704  11.965
25433W        W97726   7.783   0.341   3.146
25434W        W97727  33.606  43.954  13.458
25435W        W97728  44.498  12.743   1.844
25436W        W97729  22.201   6.827   2.327
25437W        W97730  23.165  25.163  10.610
25438W        W97731   1.475  11.277  13.987
25439W        W97732  10.274   7.180   3.300
25440W        W97733  28.955  10.225   5.228
25441W        W97734  15.688  33.002  13.810
25442W        W97735  44.862  25.677  13.951
25443W        W97736  12.195  13.701  12.363
25444W        W97737   5.840   9.273   4.716
25445W        W97738  24.702  28.555  13.981
25446W        W97739   1.974   9.853   1.233
25447W        W97740  33.584  24.014  12.375
25448W        W97741  35.500  36.942   4.319
25449W        W97742  35.528  37.897   4.792
25450W        W97743   0.893  22.064   0.857
25451W        W97744  16.796  11.663  14.913
25452W        W97745  38.963  40.510  14.878
25453W        W97746  20.557   0.922   1.408
25454W        W97747  27.474  20.732   4.283
25455W        W97748  25.586  29.565   4.223
25456W        W97749  41.320   9.708  13.832
25457W        W97750  35.514  42.881  12.955
25458W        W97751  18.676  41.522  14.353
25459W        W97752   2.794  21.632   2.668
25460W        W97753  19.606  33.504   0.332
25461W        W97754   5.272  36.416   4.604
25462W        W97755  31.558  38.381  11.924
25463W        W97756   6.421  13.223  14.898
25464W        W97757  22.236   9.232   2.318
25465W        W97758  21.162  40.411   0.365
25466W        W97759  29.562  32.414  14.894
25467W        W97760  37.985   1.379  13.949
25468W        W97761   4.817  22.589  11.606
25469W        W97762  26.978  40.422   4.809
25470W        W97763  39.324  17.602   0.284
25471W        W97764   5.741  15.621   4.820
25472W        W97765   2.359   1.806  12.031
25473W        W97766   7.391   4.886  13.871
25474W        W97767  15.313  24.681  10.432
25475W        W97768  24.681   2.260   2.330
25476W        W97769   3.740  33.023   1.770
25477W        W97770   9.345  24.152   2.280
25478W        W97771  20.602  27.977   2.696
25479W        W97772  23.017   8.372  13.926
25480W        W97773   7.380  40.810   3.798
25481W        W97774  23.631  13.130   1.757
25482W        W97775  16.207  29.150  13.959
25483W        W97776  42.386  24.193   4.806
25484W        W97777  12.140  43.852   0.740
25485W        W97778  17.275  21.100   2.663
25486W        W97779  25.608  34.900  11.035
25487W        W97780   7.231  15.763   1.731
25488W        W97781  15.108  42.907  12.561
25489W        W97782  13.730  17.100   3.797
25490W        W97783  44.815   5.256  12.842
25491W        W97784  21.155   5.783  10.054
25492W        W97785   4.367   1.766  12.345
25493W        W97786  40.020   3.250  12.982
25494W        W97787  37.964  35.457   3.736
25495W        W97788  38.407   6.260  10.496
25496W        W97789  36.915  39.386   3.677
25497W        W97790  20.619  33.440  12.473
25498W        W97791  15.161  40.829  12.562
25499W        W97792  21.143  25.669  12.507
25500W        W97793  26.133  32.106  11.096
25501W        W97794   6.389  26.585   0.380
25502W        W97795  41.973  11.359   4.739
25503W        W97796  35.895  18.709  14.973
25504W        W97797  19.702  40.035   1.430
25505W        W97798  24.630  31.010  11.105
25506W        W97799  10.807  43.508   3.368
25507W        W97800   4.868  31.899  14.812
25508W        W97801  36.975  38.940   4.208
25509W        W97802  41.801   3.339   4.636
25510W        W97803   0.402  25.996  14.964
25511W        W97804  30.938  36.407  13.447
25512W        W97805  43.387   7.756  10.454
25513W        W97806  41.383  34.939  12.395
25514W        W97807   5.391  42.920  14.811
25515W        W97808  31.489  20.179  12.050
25516W        W97809  32.001  28.124   0.402
25517W        W97810   9.671  30.593  13.877
25518W        W97811  31.955  40.313  12.896
25519W        W97812  30.543  35.412   2.847
25520W        W97813  44.848  22.721  14.973
25521W        W97814  20.675  40.831  14.443
25522W        W97815  24.542  18.569  11.921
25523W        W97816  41.868  42.391  10.451
25524W        W97817  37.508   8.870   0.832
25525W        W97818  29.979  35.046  10.967
25526W        W97819   4.321  37.346  14.874
25527W        W97820  21.694  35.599  14.878
25528W        W97821  17.222  40.924  10.932
25529W        W97822  37.986  14.782  11.948
25530W        W97823  31.647  26.989   1.218
25531W        W97824  17.293  42.023  12.829
25532W        W97825  28.528  31.123  10.524
25533W        W97826  32.603  29.123   1.276
25534W        W97827  33.566  14.321  14.802
25535W        W97828  21.095  27.513  11.000
25536W        W97829  17.291   9.308   1.421
25537W        W97830  27.187  18.597   2.209
25538W        W97831  24.669  19.112   2.696
25539W        W97832  43.978  14.224   3.860
25540W        W97833   0.967  41.449   3.650
25541W        W97834  41.344  11.130  14.909
25542W        W97835  43.462  41.846   1.307
25543W        W97836  38.507  12.127   0.439
25544W        W97837  15.226  36.376  13.900
25545W        W97838  28.436  37.850  13.396
25546W        W97839  26.141  38.949   4.343
25547W        W97840  37.900   5.803  12.975
25548W        W97841  27.091   5.871  10.470
25549W        W97842  28.576  32.542  10.606
25550W        W97843  10.244  26.579  14.865
25551W        W97844  25.127   7.400  13.345
25552W        W97845  21.076  38.472   1.791
25553W        W97846  33.018  36.937   3.774
25554W        W97847  22.726   3.410   3.364
25555W        W97848   1.261  30.463  12.353
25556W        W97849  11.273  11.243  14.894
25557W        W97850  43.999  29.579   3.243
25558W        W97851  28.967  27.646   0.827
25559W        W97852  44.484  42.972   5.149
25560W        W97853  18.706  24.174  11.007
25561W        W97854  15.747   5.711  11.933
25562W        W97855  34.543   5.249  12.343
25563W        W97856  30.993   0.355  14.484
25564W        W97857  27.148  13.266  13.499
25565W        W97858  38.063  10.659  14.921
25566W        W97859  25.034  39.031   1.802
25567W        W97860  39.441  19.105   1.827
25568W        W97861   2.347  11.845  14.405
25569W        W97862  39.439  24.566   2.307
25570W        W97863  31.481  31.107   3.251
25571W        W97864  22.191   2.957  14.960
25572W        W97865  44.382  37.042  11.492
25573W        W97866  40.953  39.558  11.049
25574W        W97867  30.061   6.426   1.332
25575W        W97868   1.848  10.195   0.271
25576W        W97869  26.671  35.920  11.059
25577W        W97870  32.066  44.824   3.211
25578W        W97871   9.362  35.976  13.482
25579W        W97872   1.806   1.733   4.742
25580W        W97873   2.874   4.823   2.292
25581W        W97874   3.897  18.233   0.847
25582W        W97875  34.881   9.691  10.966
25583W        W97876  27.123   2.343   4.259
25584W        W97877  20.234  18.691  14.841
25585W        W97878  21.093  38.413  11.027
25586W        W97879  44.850  38.018   3.685
25587W        W97880  31.448  39.996  11.467
25588W        W97881  10.203  30.065  11.557
25589W        W97882  13.189  14.254  11.372
25590W        W97883  28.068  18.285   2.394
25591W        W97884  35.405  38.373   0.818
25592W        W97885  23.585  10.280   2.189
25593W        W97886  11.343  18.635  11.969
25594W        W97887  37.061  20.633  12.887
25595W        W97888  19.635   4.764   1.268
25596W        W97889  19.238   5.296   1.844
25597W        W97890  12.792  11.299  14.448
25598W        W97891   5.216  32.135   0.354
25599W        W97892   5.712  39.557  12.370
25600W        W97893  34.447  21.241  14.938
25601W        W97894  26.560  40.867   1.314
25602W        W97895  21.546  15.725  12.996
25603W        W97896  27.634  17.122  11.026
25604W        W97897   7.267   8.350  13.828
25605W        W97898  11.675  41.019  14.429
25606W        W97899  23.163  37.858  11.507
25607W        W97900  13.773   5.336   2.288
25608W        W97901  10.221  14.655  10.499
25609W        W97902  11.864   0.788   2.892
25610W        W97903  27.476  18.756   2.867
25611W        W97904  21.087   0.953  12.886
25612W        W97905  16.124   0.868  14.363
25613W        W97906   5.223   6.266  11.879
25614W        W97907  36.022  25.529   0.773
25615W        W97908  20.031  44.458  10.500
25616W        W97909  20.552   8.742   0.899
25617W        W97910  14.199  22.639   3.644
25618W        W97911   7.259  13.174  10.910
25619W        W97912  18.291  42.312  14.371
25620W        W97913  44.401  19.168   4.238
25621W        W97914  40.858   8.238  13.052
25622W        W97915  13.219  34.922  12.959
25623W        W97916  16.196   3.816   4.281
25624W        W97917  11.184  10.359   0.332
25625W        W97918  44.278  34.510   3.325
25626W        W97919  23.055  32.020   4.661
25627W        W97920  42.934   2.897   0.790
25628W        W97921  33.410  16.593   0.348
25629W        W97922  20.083   7.729  12.006
25630W        W97923  41.993  21.610  11.081
25631W        W97924  34.102  11.783  10.544
25632W        W97925  40.859   3.302   1.233
25633W        W97926  11.313  31.027  11.496
25634W        W97927  16.247   5.424  12.843
25635W        W97928  28.479  44.812  13.950
25636W        W97929  11.185  11.817   3.370
25637W        W97930  14.225  26.023   2.337
25638W        W97931  31.036  32.499   1.694
25639W        W97932  16.586  33.534  11.472
25640W        W97933   8.376  39.440  10.548
25641W        W97934  43.415  28.660  12.432
25642W        W97935  19.265   3.919  10.572
25643W        W97936  18.761   2.357  14.351
25644W        W97937  10.257  39.529  12.054
25645W        W97938  31.908  13.719  12.863
25646W        W97939  43.323  40.830   0.316
25647W        W97940  19.592  29.123  14.877
25648W        W97941  32.485   9.234   2.321
25649W        W97942   8.374   1.435  12.510
25650W        W97943  36.967  20.593   4.334
25651W        W97944   3.377  31.929  10.922
25652W        W97945  18.747  36.922   0.392
25653W        W97946  16.100  33.056  12.868
25654W        W97947  37.394  24.492   2.895
25655W        W97948  26.666  10.813  10.490
25656W        W97949  13.158  18.663   4.791
25657W        W97950  19.063   5.388   1.365
25658W        W97951  44.895  31.925  13.943
25659W        W97952  37.854  14.123  10.627
25660W        W97953  12.632  14.189  13.470
25661W        W97954  35.042  34.430   0.913
25662W        W97955  36.949  26.137   4.159
25663W        W97956  32.058  22.025  13.500
25664W        W97957   4.232   3.869   0.956
25665W        W97958  44.410   8.231   0.304
25666W        W97959  36.865  44.377   2.856
25667W        W97960  18.093  31.514   0.325
25668W        W97961   3.449  38.351   0.918
25669W        W97962  30.025   8.744  13.014
25670W        W97963  20.068  25.593  11.582
25671W        W97964  42.282  19.106  12.905
25672W        W97965  25.139  19.137  11.391
25673W        W97966  31.024   9.707  13.385
25674W        W97967  15.610  34.990   0.751
25675W        W97968  34.060  43.824   4.787
25676W        W97969  27.021  19.776   1.843
25677W        W97970  19.162  26.602   3.169
25678W        W97971  20.167  33.522   4.741
25679W        W97972  37.926  13.696  14.946
25680W        W97973  39.942  36.437  11.531
25681W        W97974  19.611  29.601  13.914
25682W        W97975  11.783   4.740  14.030
25683W        W97976  10.224  28.583   0.345
25684W        W97977  27.670  44.779  14.763
25685W        W97978  42.839  24.510   1.336
25686W        W97979  18.623  18.228  14.355
25687W        W97980   8.691  15.318   1.851
25688W        W97981  39.491   4.718  14.863
25689W        W97982  33.926   7.804  11.376
25690W        W97983  23.616  22.193  10.505
25691W        W97984  43.840  27.176   3.672
25692W        W97985  40.366  25.200   2.339
25693W        W97986  35.451  12.726   0.900
25694W        W97987  33.033  23.052   0.933
25695W        W97988  24.566  29.117   3.268
25696W        W97989   0.467  35.954  10.119
25697W        W97990  40.800  11.179   2.721
25698W        W97991  44.487   4.732   0.472
25699W        W97992  12.139  26.639  13.818
25700W        W97993  33.911  32.976  11.538
25701W        W97994   1.316   9.795   2.418
25702W        W97995   3.764   1.449   2.366
25703W        W97996   5.368  39.474   1.765
25704W        W97997  39.012  19.073   0.298
25705W        W97998   1.796   1.802   3.656
25706W        W97999  30.619  17.243   4.684
25707W        W98000   1.392   5.327  12.872
25708W        W98001  25.636  31.075   4.765
25709W        W98002   2.411   7.321   2.216
25710W        W98003  36.005   2.251   4.242
25711W        W98004   5.270  37.957  12.390
25712W        W98005  25.581  36.476  10.518
25713W        W98006  11.208  17.641   0.424
25714W        W98007  11.258  28.097  10.585
25715W        W98008  26.566  34.937  14.894
25716W        W98009  28.969  38.327  14.363
25717W        W98010   7.687  19.154  14.842
25718W        W98011  26.043  24.154   2.666
25719W        W98012  17.713  40.967  14.823
25720W        W98013   6.297  17.678  14.284
25721W        W98014  18.114  10.321   4.167
25722W        W98015  26.648  31.947   4.251
25723W        W98016  25.707  23.720  10.500
25724W        W98017  11.855  10.813  13.975
25725W        W98018   3.221  42.012  10.444
25726W        W98019  17.167  15.208   2.776
25727W        W98020  19.721  41.017  12.373
25728W        W98021  44.807  20.192   3.162
25729W        W98022   1.270  36.396  14.483
25730W        W98023  36.515  40.317  11.400
25731W        W98024  43.412  10.294  10.932
25732W        W98025  33.576   4.816   2.753
25733W        W98026   4.287  38.463  14.500
25734W        W98027  15.598  17.274   0.884
25735W        W98028  16.202   1.414  13.033
25736W        W98029   2.838  14.309  12.574
25737W        W98030  43.932  40.371  13.988
25738W        W98031  22.628   8.159   2.872
25739W        W98032  19.056  21.535  14.969
25740W        W98033   8.400  41.343  12.840
25741W        W98034   3.791   7.395   4.665
25742W        W98035  31.615   2.858  11.961
25743W        W98036  36.983   6.411  10.449
25744W        W98037  17.788   4.323   1.260
25745W        W98038  28.568  36.080   0.263
25746W        W98039   9.836  22.201  14.795
25747W        W98040  29.499  43.470   3.209
25748W        W98041   1.733  35.108  13.477
25749W        W98042  12.188  15.753   4.155
25750W        W98043   1.348  26.094  10.531
25751W        W98044  17.121   5.871  14.892
25752W        W98045  44.394  19.216  12.368
25753W        W98046  14.220   6.203  12.923
25754W        W98047  40.508   5.357   1.908
25755W        W98048  27.945  20.600   3.305
25756W        W98049   4.315  39.002  12.570
25757W        W98050  20.741  21.052  14.336
25758W        W98051  27.044  33.599  13.895
25759W        W98052   7.763   8.728  14.990
25760W        W98053  19.633  24.671   3.746
25761W        W98054  42.779   6.791   4.773
25762W        W98055  21.255  42.981   9.983
25763W        W98056  36.468  37.443   4.290
25764W        W98057  14.654   0.944   2.348
25765W        W98058  19.053  37.496  10.944
25766W        W98059  41.009  17.110  10.480
25767W        W98060  35.423   1.750   3.826
25768W        W98061  40.471  28.177  14.867
25769W        W98062  30.584  27.191  10.447
25770W        W98063  41.510  22.146  13.947
25771W        W98064  15.185   4.345  13.999
25772W        W98065  38.845  43.302   0.847
25773W        W98066   3.898  20.106  14.432
25774W        W98067  29.965   5.290  10.978
25775W        W98068  25.664  40.013   3.834
25776W        W98069   4.858  12.321  10.452
25777W        W98070   7.397   3.299   2.782
25778W        W98071   5.807  19.079  11.565
25779W        W98072  17.570  42.383  12.841
25780W        W98073  23.708  18.113   3.632
25781W        W98074  18.744  10.268   3.298
25782W        W98075  13.781   9.843  14.990
25783W        W98076   4.912   5.427   2.235
25784W        W98077  29.104  22.526  13.450
25785W        W98078  44.298  15.820  12.397
25786W        W98079   7.336  44.794  12.418
25787W        W98080  18.099  21.176   0.910
25788W        W98081   8.702  26.486   4.740
25789W        W98082  24.114   8.899   0.859
25790W        W98083   6.814  20.196  10.551
25791W        W98084   4.275  20.769  13.356
25792W        W98085  13.234  44.875   3.809
25793W        W98086  40.508  10.259  12.485
25794W        W98087   3.902  12.698  12.564
25795W        W98088  17.596  41.521  10.544
25796W        W98089  17.710   6.689  11.601
25797W        W98090  33.021  35.539   2.776
25798W        W98091  31.921  24.695  13.506
25799W        W98092  37.385   6.329  11.101
25800W        W98093  25.162  25.579  14.371
25801W        W98094   7.414  35.410  10.905
25802W        W98095   1.968  43.944   0.410
25803W        W98096  36.422  11.706  10.014
25804W        W98097  35.878  39.551  14.765
25805W        W98098   0.744   2.955   2.724
25806W        W98099   8.657  11.255   0.429
25807W        W98100  23.605   1.464  10.141
25808W        W98101  15.244  15.085  13.445
25809W        W98102  32.401  24.974   4.648
25810W        W98103  23.700  27.485   2.201
25811W        W98104  23.068  35.433   4.817
25812W        W98105  24.499  43.472  11.871
25813W        W98106  11.127   4.346  14.966
25814W        W98107   0.843   8.220   2.708
25815W        W98108  37.860  39.403  14.798
25816W        W98109  19.714  37.475   3.377
25817W        W98110  44.791  43.891  13.858
25818W        W98111  37.452  32.574  13.377
25819W        W98112  24.168  36.024   4.710
25820W        W98113  10.253   4.924  14.475
25821W        W98114   2.876  35.094   0.745
25822W        W98115  33.063  41.324   3.273
25823W        W98116  27.946  42.951   1.781
25824W        W98117  30.656  40.930   1.836
25825W        W98118  30.090  37.920  11.103
25826W        W98119  35.591  11.795  13.024
25827W        W98120  12.674   2.414   0.349
25828W        W98121  40.928  17.640  13.920
25829W        W98122  16.133  36.034   0.308
25830W        W98123   2.793  35.578   4.142
25831W        W98124  30.991   5.327   2.808
25832W        W98125   0.868   4.882   4.292
25833W        W98126  22.248  31.003   2.339
25834W        W98127  43.008  16.657   3.374
25835W        W98128  12.856  17.247  11.100
25836W        W98129   1.773  12.192  11.578
25837W        W98130  28.467  37.949  11.088
25838W        W98131  37.569  11.721  14.275
25839W        W98132  25.037   0.384   2.751
25840W        W98133  34.566   1.267  12.485
25841W        W98134  43.908  33.401   1.292
25842W        W98135  36.065  38.889   0.435
25843W        W98136  42.850  30.965  12.435
25844W        W98137  27.558  12.746  12.943
25845W        W98138  40.382   4.911   3.173
25846W        W98139  32.964   7.762  14.807
25847W        W98140  15.642   8.263   3.378
25848W        W98141  15.663  24.127   0.436
25849W        W98142  27.196  22.126   3.329
25850W        W98143   7.842  26.033   3.335
25851W        W98144  17.120  19.170  11.091
25852W        W98145  29.473   6.826   1.276
25853W        W98146  33.454  24.528  13.456
25854W        W98147   3.947  38.045  13.352
25855W        W98148  32.907  40.494   0.247
25856W        W98149  32.440  31.922   3.192
25857W        W98150  21.211  12.331   3.853
25858W        W98151   8.309  38.939   0.370
25859W        W98152  11.341  20.723   2.762
25860W        W98153  14.338  32.499  13.385
25861W        W98154  10.728  34.966  10.937
25862W        W98155  40.428  34.956   2.697
25863W        W98156  28.121  20.253   2.309
25864W        W98157   3.838  36.905   2.886
25865W        W98158  29.096  33.920  13.463
25866W        W98159  21.526  33.965  14.993
25867W        W98160  41.798  36.568  13.850
25868W        W98161  39.864  18.597   4.778
25869W        W98162   1.974  12.833  10.906
25870W        W98163  39.845  18.678   0.924
25871W        W98164  42.988   5.243  13.534
25872W        W98165  30.997  18.070   1.231
25873W        W98166  40.047  39.904   3.641
25874W        W98167   1.808  19.139   2.888
25875W        W98168   9.720   1.394  12.858
25876W        W98169  29.162   8.671  13.932
25877W        W98170  33.492  10.851  11.400
25878W        W98171   4.711  12.300  10.129
25879W        W98172  44.934  11.218  12.033
25880W        W98173  41.426   8.185  10.557
25881W        W98174  22.617  35.494  10.597
25882W        W98175  10.253  29.431  12.051
25883W        W98176   4.301  20.086   2.372
25884W        W98177  38.928  42.904   0.440
25885W        W98178  35.382   0.305  12.030
25886W        W98179  37.472  40.003  14.947
25887W        W98180  43.879  35.910   5.245
25888W        W98181  24.666  36.414  10.988
25889W        W98182  43.401  16.086  10.023
25890W        W98183  33.977   8.773   1.230
25891W        W98184  22.039  32.630  11.550
25892W        W98185  40.391  40.384  12.050
25893W        W98186  24.485  41.506   1.392
25894W        W98187  37.378   2.364  14.886
25895W        W98188  20.690  37.024  12.571
25896W        W98189  31.048   7.862   4.652
25897W        W98190  38.551  28.482   2.717
25898W        W98191   3.402  39.407  14.496
25899W        W98192  31.934   4.839  13.905
25900W        W98193  34.551   5.417   1.834
25901W        W98194   5.875   8.183   2.692
25902W        W98195  21.069  37.519  12.558
25903W        W98196  17.741  41.295   3.717
25904W        W98197  41.948  14.764  10.924
25905W        W98198   8.285  32.004   3.271
25906W        W98199  35.382   9.182   1.226
25907W        W98200  27.133  43.302   2.828
25908W        W98201  40.336  26.496  14.006
25909W        W98202  10.776  35.038  13.815
25910W        W98203  43.898  44.454  10.057
25911W        W98204  25.660  30.623   1.336
25912W        W98205  42.382  15.179  13.531
25913W        W98206  32.635  26.690   2.740
25914W        W98207  30.923  21.568  12.505
25915W        W98208  36.969  30.042  10.565
25916W        W98209   1.750   3.865   2.744
25917W        W98210  15.189  13.158   0.354
25918W        W98211  29.152  41.474  11.504
25919W        W98212   7.264  44.439  12.070
25920W        W98213  16.108  32.612   0.441
25921W        W98214   0.479   5.700   1.297
25922W        W98215   0.806   4.240  10.612
25923W        W98216  42.292  34.893  11.933
25924W        W98217  14.310  26.648   4.199
25925W        W98218  43.438   3.421  13.519
25926W        W98219   5.739   8.849  11.009
25927W        W98220  30.155  39.559   2.409
25928W        W98221  35.880   2.781   1.906
25929W        W98222  27.603  24.498   0.835
25930W        W98223   5.879  24.197  12.974
25931W        W98224   0.351  34.954   1.425
25932W        W98225  13.305  28.997   2.311
25933W        W98226  13.210  19.160  13.834
25934W        W98227  37.473  35.986   1.242
25935W        W98228   4.771   9.245  10.521
25936W        W98229  21.045  15.671   4.734
25937W        W98230  33.462  42.983  13.412
25938W        W98231   7.178   1.978   3.682
25939W        W98232  30.022  21.633  13.932
25940W        W98233  13.163  28.171  11.402
25941W        W98234  14.194   5.259   1.305
25942W        W98235  12.277  27.574  10.905
25943W        W98236   8.746  22.160   1.242
25944W        W98237  38.519  33.416   2.284
25945W        W98238  43.900  13.131  13.504
25946W        W98239  13.224  24.028   3.167
25947W        W98240  27.062  32.556  14.440
25948W        W98241   5.294  14.177  12.413
25949W        W98242  22.107  15.308  14.486
25950W        W98243  33.417  35.020  12.417
25951W        W98244  13.832  34.610   1.251
25952W        W98245  43.789  18.570  14.508
25953W        W98246  17.723   3.718   1.341
25954W        W98247  37.556  21.077   1.326
25955W        W98248  24.058   6.889   4.640
25956W        W98249  26.096  31.896  13.377
25957W        W98250   6.293   0.925   5.191
25958W        W98251  17.177  11.366   1.272
25959W        W98252   0.855  37.007  11.989
25960W        W98253  10.807  28.137  10.574
25961W        W98254  16.738  24.024  10.948
25962W        W98255   2.290   0.940  13.957
25963W        W98256   4.855  37.969   0.865
25964W        W98257  42.871  19.147   4.305
25965W        W98258   8.360  33.025  12.485
25966W        W98259  31.021   0.422   3.222
25967W        W98260  26.643  30.986  14.480
25968W        W98261  13.649  24.496  10.637
25969W        W98262  43.501  33.482  10.052
25970W        W98263   8.221  18.277   4.339
25971W        W98264  20.255  18.730   4.726
25972W        W98265  22.013  14.105  12.412
25973W        W98266   8.301  21.206   3.865
25974W        W98267  19.774   9.783   0.361
25975W        W98268  17.672  42.376  13.528
25976W        W98269  19.208  17.777   2.379
25977W        W98270  16.100  17.745   3.822
25978W        W98271  17.062   1.852  12.943
25979W        W98272  32.523   8.266   2.743
25980W        W98273  36.510  22.635  13.537
25981W        W98274  21.578  27.197   3.267
25982W        W98275  39.834  39.825   4.199
25983W        W98276  39.351  17.797  10.640
25984W        W98277  26.145   1.412   0.478
25985W        W98278   8.375  43.999   1.261
25986W        W98279  39.824  19.623  14.837
25987W        W98280  17.781  32.456   5.755
25988W        W98281  37.970  33.572  10.632
25989W        W98282  13.154  10.798  11.110
25990W        W98283  31.091   4.811   0.359
25991W        W98284  10.685  27.152   2.327
25992W        W98285  14.178  41.983  13.059
25993W        W98286  13.264   8.160   4.750
25994W        W98287  42.871  39.996   4.704
25995W        W98288  35.995  25.194  11.477
25996W        W98289  33.956  23.152   1.235
25997W        W98290  19.604  19.551  12.838
25998W        W98291   5.859  42.516   1.412
25999W        W98292  41.020  34.021   2.213
26000W        W98293  20.692  23.065  14.457
26001W        W98294   6.234  34.012   0.825
26002W        W98295   8.323  20.079   0.930
26003W        W98296  24.615  14.746   2.794
26004W        W98297  22.626  14.118   5.222
26005W        W98298   8.278   2.461  12.882
26006W        W98299  41.868  18.147  12.010
26007W        W98300  21.663  43.952   2.782
26008W        W98301  25.006  37.060  11.612
26009W        W98302   2.278  13.190   4.126
26010W        W98303   0.795  13.184  12.517
26011W        W98304   5.923   3.855   4.193
26012W        W98305  16.592   9.180   3.212
26013W        W98306  40.956   5.309  11.047
26014W        W98307   7.181  32.105  11.103
26015W        W98308  30.439  28.132   3.843
26016W        W98309  33.101  28.019   4.817
26017W        W98310  13.208  12.194   0.735
26018W        W98311  25.126  21.019  12.364
26019W        W98312  28.953   2.408   4.708
26020W        W98313   4.758  21.639  11.524
26021W        W98314  12.823  31.945   0.830
26022W        W98315  24.997   8.713  11.427
26023W        W98316  35.545   7.818  13.041
26024W        W98317  27.670  32.984  10.936
26025W        W98318  15.600  25.699  12.993
26026W        W98319   3.367  25.027   4.632
26027W        W98320  42.838  37.858  11.443
26028W        W98321  34.991  21.058  11.401
26029W        W98322  38.481  34.940   4.180
26030W        W98323  36.564  12.281   1.870
26031W        W98324  29.572   5.351   3.774
26032W        W98325  18.773  21.197   4.671
26033W        W98326  34.565  42.384   4.141
26034W        W98327   6.864  41.818   3.188
26035W        W98328   8.856  25.017   0.478
26036W        W98329   6.687   0.260  12.531
26037W        W98330  40.048   8.396  13.316
26038W        W98331  40.806   9.696  12.096
26039W        W98332  39.490  14.235  14.437
26040W        W98333   8.210  32.514  13.480
26041W        W98334  38.900  20.574   2.662
26042W        W98335  20.240  13.723  13.394
26043W        W98336   7.219  15.170  14.839
26044W        W98337   2.272  40.405   1.740
26045W        W98338  39.464  29.073   5.104
26046W        W98339  38.557  41.944  10.599
26047W        W98340  32.506  30.546  11.572
26048W        W98341  31.095  18.560  14.900
26049W        W98342  21.749  23.030   3.287
26050W        W98343   6.792   2.441   1.727
26051W        W98344  25.521  19.760  12.985
26052W        W98345   9.264  30.980   1.854
26053W        W98346  10.144  30.619   4.811
26054W        W98347   2.412   4.399  13.826
26055W        W98348  16.261  40.935  12.933
26056W        W98349  23.106   5.269   5.614
26057W        W98350  11.195  18.259   4.263
26058W        W98351   6.798  20.131  13.912
26059W        W98352  29.632  30.077  11.087
26060W        W98353   5.775  31.049   3.844
26061W        W98354  31.977  38.038   4.678
26062W        W98355   7.399  29.020  10.940
26063W        W98356  19.063  34.906   3.783
26064W        W98357  43.424  33.499   4.701
26065W        W98358  22.578  23.090   0.462
26066W        W98359  36.944   9.350  12.364
26067W        W98360  32.619  30.458  13.927
26068W        W98361  12.289  23.015   2.709
26069W        W98362   0.930  40.442   0.380
26070W        W98363  23.515  43.819   2.840
26071W        W98364   6.185  17.733   3.667
26072W        W98365  41.981  12.805   4.836
26073W        W98366   2.849   6.235  14.309
26074W        W98367   7.203  33.903  12.886
26075W        W98368  36.848  28.630   3.821
26076W        W98369  17.277  26.976  13.374
26077W        W98370  32.509  12.832  11.462
26078W        W98371   2.459  12.767   3.696
26079W        W98372  22.035  16.759  10.981
26080W        W98373  43.337  13.831   2.793
26081W        W98374  30.552   8.206   5.622
26082W        W98375  11.201   5.402  13.903
26083W        W98376   3.772  33.450   1.823
26084W        W98377  30.514  12.789   4.182
26085W        W98378  17.687   2.935   2.795
26086W        W98379   4.222  32.483   3.182
26087W        W98380  22.179  35.584   4.149
26088W        W98381  44.771  24.226   3.866
26089W        W98382  27.944  31.077   1.310
26090W        W98383   4.346   0.424  12.400
26091W        W98384  32.497  20.762   0.476
26092W        W98385   0.436   0.880   1.935
26093W        W98386   5.439  10.816  13.060
26094W        W98387  23.195  29.122   1.306
26095W        W98388  18.230  25.034  14.934
26096W        W98389  40.337  16.657   0.455
26097W        W98390  14.257   4.209   3.685
26098W        W98391  31.022  20.212   4.202
26099W        W98392   8.248  37.536   0.286
26100W        W98393  43.406   0.329  13.997
26101W        W98394  41.957  27.617   1.845
26102W        W98395   8.704   8.206   3.736
26103W        W98396   1.824  17.650  13.472
26104W        W98397  41.493  25.043  12.971
26105W        W98398  32.007   9.751  14.463
26106W        W98399  41.455  43.954   4.256
26107W        W98400   8.877   4.845  14.902
26108W        W98401  14.709  21.047  14.903
26109W        W98402  26.066   1.342  14.000
26110W        W98403  33.470  19.272  12.494
26111W        W98404  24.666  31.420   2.239
26112W        W98405  13.606  16.118   0.447
26113W        W98406   6.901   8.225   3.772
26114W        W98407  37.425  23.117   0.264
26115W        W98408  23.506  23.132  12.406
26116W        W98409  16.295  32.050   3.314
26117W        W98410  42.453  13.348   4.342
26118W        W98411  11.160  23.158  14.801
26119W        W98412  40.044   4.808   2.319
26120W        W98413  17.775  18.742   0.372
26121W        W98414  34.587   8.316   2.361
26122W        W98415  27.992  44.856   4.155
26123W        W98416  36.574  10.698  13.965
26124W        W98417  24.538  38.842  12.563
26125W        W98418  15.755  31.101   5.239
26126W        W98419   9.316   3.930  11.555
26127W        W98420   9.756  24.099  10.563
26128W        W98421  33.898  41.300   4.789
26129W        W98422  41.480  26.701   0.782
26130W        W98423  25.979  33.898  11.073
26131W        W98424  37.539  26.651   5.262
26132W        W98425  14.100  41.899   5.239
26133W        W98426   9.736  11.755   4.335
26134W        W98427  36.852  17.164   0.760
26135W        W98428  16.751  40.363  13.384
26136W        W98429  16.276  36.042  13.387
26137W        W98430  31.103  19.148   0.907
26138W        W98431  41.906  26.056  14.975
26139W        W98432  22.075  38.860   2.902
26140W        W98433  38.946  41.474  14.321
26141W        W98434  32.634  31.053   2.291
26142W        W98435   7.341  43.980  14.928
26143W        W98436  12.708  39.828  10.995
26144W        W98437  17.301  32.965  13.952
26145W        W98438  21.607   2.782  11.101
26146W        W98439  38.062   0.383   1.807
26147W        W98440  39.467  16.262  11.372
26148W        W98441   9.759   8.750  14.400
26149W        W98442  33.891  11.259  10.458
26150W        W98443   1.824  42.970  11.074
26151W        W98444  10.834  18.202   4.125
26152W        W98445  35.540  30.917   2.188
26153W        W98446  31.991  43.815  12.950
26154W        W98447  28.530  22.671  13.823
26155W        W98448  13.110  26.102   0.362
26156W        W98449  32.581  42.995  13.795
26157W        W98450  29.081  41.826  11.523
26158W        W98451  10.660  13.294   1.911
26159W        W98452   8.190   3.893  10.613
26160W        W98453   2.823  42.783   0.389
26161W        W98454   1.740   3.839  12.846
26162W        W98455   2.358  42.864  12.948
26163W        W98456  19.768  19.174   0.299
26164W        W98457  29.505  39.386   3.330
26165W        W98458  19.168  23.992   4.637
26166W        W98459  11.170  11.710  11.394
26167W        W98460   2.280  13.671  10.560
26168W        W98461  23.044  42.413  14.402
26169W        W98462  29.080  37.435   2.669
26170W        W98463  25.144   4.405  12.840
26171W        W98464  21.262  44.871  11.555
26172W        W98465  25.011  44.299   0.297
26173W        W98466  32.960  38.974  11.868
26174W        W98467  41.934  32.978   4.286
26175W        W98468  29.001  31.478  13.449
26176W        W98469   6.847  28.102  10.482
26177W        W98470   5.340  11.748  10.066
26178W        W98471   1.465  22.699  10.895
26179W        W98472  44.331  13.213  14.760
26180W        W98473  37.031  43.995  12.455
26181W        W98474  33.907  25.483  12.085
26182W        W98475  14.650  18.270  10.143
26183W        W98476  18.268  25.963   2.746
26184W        W98477  36.905  23.543  13.928
26185W        W98478  29.594  20.764  11.888
26186W        W98479   7.832   1.462  12.832
26187W        W98480  13.219  43.021  14.495
26188W        W98481  26.176  40.520  10.433
26189W        W98482  43.508  17.185   2.680
26190W        W98483  19.091  15.725   2.784
26191W        W98484   2.923   4.210   0.858
26192W        W98485  18.143  37.020   0.782
26193W        W98486  11.171  23.002  12.070
26194W        W98487   7.830   0.813   2.820
26195W        W98488  39.899  23.030  11.030
26196W        W98489  43.003   9.670  13.460
26197W        W98490  32.406  28.137  10.028
26198W        W98491  36.919  14.112  11.454
26199W        W98492  22.020  31.999  14.016
26200W        W98493  13.162  13.112   2.851
26201W        W98494   5.388  20.638   1.766
26202W        W98495  42.501  30.117   4.638
26203W        W98496  14.105  27.085  12.929
26204W        W98497  32.585  40.392  14.843
26205W        W98498  10.823   7.738  11.037
26206W        W98499   7.195   5.329   1.868
26207W        W98500  35.571  13.791   0.950
26208W        W98501   4.370  21.698   2.244
26209W        W98502  18.075  23.177   3.234
26210W        W98503  40.423  32.976   0.957
26211W        W98504   0.889   6.298   2.727
26212W        W98505  11.652   9.380  13.364
26213W        W98506  22.728  29.652  13.041
26214W        W98507  14.786  37.412   0.322
26215W        W98508   8.772  30.092   4.140
26216W        W98509  41.942  17.287   2.788
26217W        W98510  20.172  25.093  11.491
26218W        W98511  28.495  40.809   4.816
26219W        W98512  34.474  16.615   2.273
26220W        W98513   8.259  35.379  13.837
26221W        W98514  43.500  38.969  11.973
26222W        W98515  12.717   0.963  14.391
26223W        W98516  15.157  38.401   3.218
26224W        W98517  35.506  16.196   3.693
26225W        W98518  25.555   2.884   5.662
26226W        W98519  38.068  34.606  12.473
26227W        W98520   9.775   8.693  11.938
26228W        W98521  11.822  27.129  12.562
26229W        W98522  34.516   4.762  12.027
26230W        W98523   1.773   9.780   3.761
26231W        W98524   2.832  29.585   3.360
26232W        W98525   0.282  11.173  11.875
26233W        W98526  24.009  41.457   0.267
26234W        W98527  13.756  28.617  14.815
26235W        W98528  10.768  15.184  12.425
26236W        W98529  10.699   2.346   0.957
26237W        W98530  36.504   3.250  13.035
26238W        W98531  24.975  27.110  12.835
26239W        W98532  13.119   6.342  14.822
26240W        W98533  18.138  33.050  10.139
26241W        W98534  22.540   2.806  11.995
26242W        W98535  32.972  33.050   0.248
26243W        W98536  36.385   4.847   0.271
26244W        W98537   3.412   7.748   4.218
26245W        W98538  34.572  16.164  13.882
26246W        W98539  22.188  18.094  14.764
26247W        W98540   2.954  12.693  13.434
26248W        W98541  43.273  43.428   3.165
26249W        W98542  42.010   7.325   4.833
26250W        W98543  35.005  14.206   4.224
26251W        W98544  29.009  31.468  11.553
26252W        W98545  31.922   3.886   3.807
26253W        W98546  33.408  40.311  13.934
26254W        W98547  42.886   1.856  13.450
26255W        W98548  44.947  12.679  13.858
26256W        W98549   5.375  19.095   1.398
26257W        W98550  19.070  39.866   0.428
26258W        W98551  41.830  32.440   0.421
26259W        W98552   5.789   1.294   4.807
26260W        W98553  19.280  13.227   1.434
26261W        W98554   9.835  24.674   2.218
26262W        W98555  23.084  12.746   0.429
26263W        W98556  32.438   0.468  13.989
26264W        W98557   3.940  10.168  12.365
26265W        W98558  28.521   9.318  14.837
26266W        W98559  41.927  28.031   2.818
26267W        W98560  36.901  17.205  13.464
26268W        W98561  44.361  20.754   0.266
26269W        W98562  13.146  13.121  10.478
26270W        W98563  28.630  23.498  13.429
26271W        W98564  16.256  30.978   2.290
26272W        W98565  41.879  11.659   0.394
26273W        W98566   9.878  39.050  13.896
26274W        W98567  28.023  33.464  11.379
26275W        W98568  32.142  38.019   2.879
26276W        W98569  22.154  39.392  12.891
26277W        W98570  43.353   1.738   0.727
26278W        W98571   1.931  13.164  11.464
26279W        W98572   4.933   1.745   3.761
26280W        W98573  44.306  26.537  14.774
26281W        W98574  43.938  18.672   2.373
26282W        W98575  31.610   0.283  11.120
26283W        W98576  41.487   0.323   1.414
26284W        W98577   9.759   1.788  14.489
26285W        W98578  21.245  26.151   1.291
26286W        W98579  24.610   8.173   2.275
26287W        W98580  19.708  36.018  11.025
26288W        W98581  37.071   2.952   4.267
26289W        W98582  35.420  24.090   3.372
26290W        W98583  13.627  37.041  14.282
26291W        W98584   6.219  34.608   3.162
26292W        W98585  18.589  31.084   1.259
26293W        W98586  39.918   0.983  14.416
26294W        W98587  25.996   4.355   5.112
26295W        W98588  42.519   7.733   3.307
26296W        W98589  16.182  12.775  10.630
26297W        W98590  18.205   0.924  13.314
26298W        W98591  17.129  36.967   0.754
26299W        W98592  21.250  20.624   0.817
26300W        W98593  14.202  15.672  13.397
26301W        W98594   3.770  43.488  13.408
26302W        W98595  35.023  23.008   4.799
26303W        W98596  29.001  20.189  13.378
26304W        W98597   1.466  20.742   4.247
26305W        W98598  25.152  12.750  10.043
26306W        W98599   9.883  44.435  12.977
26307W        W98600  11.690   4.701  14.386
26308W        W98601   2.370   2.828  13.534
26309W        W98602  29.655   1.292   0.422
26310W        W98603  39.344  39.325   3.869
26311W        W98604  30.975  19.113   4.271
26312W        W98605   6.275  11.132  11.408
26313W        W98606   0.375  37.034  14.845
26314W        W98607  12.273  37.976  12.953
26315W        W98608  32.107  17.763  14.999
26316W        W98609  19.559   1.301   4.232
26317W        W98610  28.659  38.344  11.932
26318W        W98611  34.495  29.659   0.257
26319W        W98612  22.718   4.395   5.167
26320W        W98613  26.096  34.914  11.074
26321W        W98614   9.208  28.959   3.160
26322W        W98615  23.547   6.282  13.429
26323W        W98616  30.425  34.574   4.169
26324W        W98617  22.628  23.095   1.757
26325W        W98618  40.883  35.376   0.804
26326W        W98619  21.554  31.946   3.724
26327W        W98620  17.166  22.098  10.472
26328W        W98621  34.914  35.538  11.500
26329W        W98622  20.099  18.727  13.976
26330W        W98623  22.013  40.978   0.351
26331W        W98624  41.360  15.670  11.869
26332W        W98625  14.231  19.736  14.426
26333W        W98626  32.449   7.227   3.763
26334W        W98627  38.412  17.296  12.959
26335W        W98628  18.684  36.415  10.979
26336W        W98629   8.326  10.337  14.998
26337W        W98630  42.816  37.852   1.815
26338W        W98631  27.538  31.064  11.574
26339W        W98632  19.055   4.806  12.549
26340W        W98633  29.620   9.649  10.110
26341W        W98634  20.689  31.580  14.845
26342W        W98635  38.414   1.771  13.806
26343W        W98636  42.391  12.847   1.851
26344W        W98637  17.751  19.730  11.567
26345W        W98638   8.866  41.403   2.282
26346W        W98639  33.389  44.399   3.785
26347W        W98640  37.931   6.728  13.905
26348W        W98641  19.266  15.208   1.868
26349W        W98642  35.551   0.777  14.851
26350W        W98643  31.031  38.872  12.954
26351W        W98644  16.163  31.985   2.733
26352W        W98645   3.233  37.047  13.037
26353W        W98646  38.000  11.683   1.403
26354W        W98647  43.840  15.164  12.867
26355W        W98648  43.819  37.386   3.731
26356W        W98649  28.585  21.101   4.113
26357W        W98650  44.777  15.122  14.406
26358W        W98651  42.012  42.324  11.008
26359W        W98652  33.095  38.972   2.848
26360W        W98653  25.195  26.523  11.468
26361W        W98654  37.403  44.501  12.350
26362W        W98655  34.099  40.886   0.818
26363W        W98656  18.074  10.250   2.681
26364W        W98657   5.381  33.454  13.042
26365W        W98658  19.216   9.703  11.908
26366W        W98659  20.046  10.834  11.575
26367W        W98660  26.609  13.613  13.523
26368W        W98661  31.972   4.913   4.729
26369W        W98662  23.021  16.793   1.254
26370W        W98663  10.164  31.987   4.748
26371W        W98664  41.418   7.392   2.713
26372W        W98665  41.018   4.322  14.999
26373W        W98666  23.235   3.839   0.783
26374W        W98667  30.592  43.366  10.643
26375W        W98668  30.594  31.011   4.206
26376W        W98669  12.635  38.850  13.506
26377W        W98670  12.177  17.079  13.332
26378W        W98671  19.085  27.495   1.901
26379W        W98672   3.878  10.806   0.752
26380W        W98673  34.374  28.656  13.476
26381W        W98674  35.070  31.528   3.227
26382W        W98675  10.250  20.619  10.965
26383W        W98676   7.406   5.264   4.704
26384W        W98677  15.681   7.266  11.122
26385W        W98678  21.033   0.380  13.836
26386W        W98679  40.879  12.842  13.945
26387W        W98680   4.244  18.607   3.837
26388W        W98681   0.333  43.428   4.159
26389W        W98682  44.469  20.188  13.443
26390W        W98683  15.816  16.727   1.870
26391W        W98684   8.753  27.007  14.432
26392W        W98685   5.302   2.353   4.272
26393W        W98686  26.104  40.900  12.873
26394W        W98687  11.725  21.601  13.548
26395W        W98688   5.388  26.518  11.914
26396W        W98689  24.480   4.893  13.352
26397W        W98690  37.507  30.937   3.690
26398W        W98691  23.192  25.631  10.514
26399W        W98692  32.137  15.194  14.875
26400W        W98693  11.696  38.852  12.358
26401W        W98694   9.731  11.353   3.689
26402W        W98695  35.449   1.418   3.314
26403W        W98696   3.860   0.799   1.238
26404W        W98697  14.712   6.757   2.883
26405W        W98698  29.076  17.677   3.227
26406W        W98699  18.204  40.974   2.379
26407W        W98700  21.178   6.303   4.320
26408W        W98701   8.818  11.141  14.851
26409W        W98702  34.907  29.933   2.722
26410W        W98703   4.347  32.065   1.403
26411W        W98704  27.175  36.859  13.848
26412W        W98705  11.746  23.092  10.637
26413W        W98706  29.995  25.661  12.482
26414W        W98707   4.336   1.917  13.342
26415W        W98708  16.712  39.355   1.269
26416W        W98709  12.803  11.722   1.366
26417W        W98710  32.937  33.548  10.440
26418W        W98711  14.738  26.125   3.206
26419W        W98712  33.538  13.689  14.359
26420W        W98713   2.428  11.279   0.276
26421W        W98714   2.903  33.902  12.913
26422W        W98715  26.621  14.299  14.494
26423W        W98716   1.732   4.800   4.123
26424W        W98717  26.677  15.127   1.326
26425W        W98718   0.986  33.933  11.999
26426W        W98719  11.242  31.994  13.362
26427W        W98720  43.771  29.148   4.641
26428W        W98721  17.776   6.308   3.150
26429W        W98722  14.766  30.048  13.473
26430W        W98723   2.896  44.261  13.963
26431W        W98724  18.712  26.473  10.020
26432W        W98725  37.348   3.266  13.366
26433W        W98726  34.867  12.293   1.435
26434W        W98727  34.376  32.933  12.420
26435W        W98728  36.425   6.197   1.890
26436W        W98729  36.553  13.730   2.189
26437W        W98730   7.244  15.742  12.340
26438W        W98731  27.477  14.103  13.056
26439W        W98732   6.290  20.155   2.225
26440W        W98733  21.130  27.122   3.382
26441W        W98734  35.034  31.556  14.344
26442W        W98735  16.689  36.567   0.925
26443W        W98736  43.277  36.974   1.876
26444W        W98737   9.166   9.159   4.198
26445W        W98738  19.564   5.436   4.819
26446W        W98739  35.053   8.772  14.949
26447W        W98740  42.475  27.135   1.360
26448W        W98741   1.287  39.494   1.919
26449W        W98742   1.975  15.660   0.382
26450W        W98743  30.426  21.064   2.679
26451W        W98744  35.993  25.651   4.227
26452W        W98745  34.999  34.508   4.598
26453W        W98746   8.271  19.232  10.469
26454W        W98747   9.733  17.139   2.736
26455W        W98748  18.771  34.603   4.657
26456W        W98749  11.748  38.008   1.411
26457W        W98750   6.183   4.718   2.291
26458W        W98751   3.839  31.463  14.937
26459W        W98752  23.604   2.753   4.296
26460W        W98753   3.807  40.009   1.274
26461W        W98754  25.136  32.443   2.721
26462W        W98755  19.072  15.786   1.319
26463W        W98756  16.658  32.072   4.685
26464W        W98757  35.427  30.550  11.092
26465W        W98758  10.149   6.337   2.207
26466W        W98759  13.154  26.059  13.898
26467W        W98760  27.069  20.174  10.999
26468W        W98761  15.757  10.789   2.335
26469W        W98762   6.878  33.450   1.870
26470W        W98763  23.082  19.284  11.490
26471W        W98764   4.914  29.564  10.565
26472W        W98765   4.738  25.625   0.933
26473W        W98766  26.051  19.070  11.897
26474W        W98767  16.629   2.762  14.405
26475W        W98768  26.554   1.862   1.846
26476W        W98769  31.946  16.812  10.953
26477W        W98770  27.181  32.013  14.448
26478W        W98771  34.963  24.003  14.476
26479W        W98772  35.514   1.795   1.700
26480W        W98773   4.372  37.843  14.901
26481W        W98774  34.072  36.878   0.957
26482W        W98775  35.557  18.291   4.695
26483W        W98776  13.275  43.468  10.577
26484W        W98777  24.220   8.884   3.299
26485W        W98778  13.790  29.660   1.743
26486W        W98779  31.426  14.770   1.375
26487W        W98780  26.955  32.525   0.273
26488W        W98781   7.256  22.098  10.454
26489W        W98782  38.476  12.157   4.286
26490W        W98783  32.430  35.420   1.424
26491W        W98784  24.626   6.919   2.667
26492W        W98785  43.016  26.069  11.036
26493W        W98786   5.928  41.041  11.117
26494W        W98787  25.475  41.007   4.829
26495W        W98788   4.759   2.239   0.959
26496W        W98789  14.756  16.698   2.244
26497W        W98790  17.239  10.328   1.290
26498W        W98791  12.227  16.810  14.347
26499W        W98792  18.203  12.762  10.479
26500W        W98793  23.503  29.632   1.282
26501W        W98794   7.318  26.663  14.808
26502W        W98795   5.731  16.300  12.410
26503W        W98796  42.292  36.998   4.194
26504W        W98797  42.378  16.119   4.631
26505W        W98798   8.191  15.294   0.367
26506W        W98799  37.990   8.841   0.363
26507W        W98800  15.142   3.844   4.158
26508W        W98801  33.886  35.864   2.902
26509W        W98802   1.290  24.128   1.285
26510W        W98803  33.421  37.035   3.691
26511W        W98804  42.482   5.927  13.438
26512W        W98805  37.904  29.112   0.382
26513W        W98806  31.111  38.845   3.185
26514W        W98807   9.257  41.354  11.067
26515W        W98808  33.105   8.780  10.639
26516W        W98809  32.935  33.891   2.850
26517W        W98810  24.170   5.362   3.723
26518W        W98811  18.102  27.616  10.515
26519W        W98812  16.666  22.167   3.282
26520W        W98813   8.707  42.394  12.359
26521W        W98814  31.922  41.331  13.526
26522W        W98815   7.902  24.713   4.195
26523W        W98816  39.836   0.374  11.033
26524W        W98817  42.811  26.498   3.841
26525W        W98818  32.907  18.713  11.885
26526W        W98819   6.789  35.597   0.243
26527W        W98820  11.258  44.336  11.074
26528W        W98821   8.715  27.183   2.838
26529W        W98822  31.522   1.379  12.999
26530W        W98823  20.140  30.917   5.706
26531W        W98824   7.174  20.174  11.881
26532W        W98825  16.732   6.822   4.683
26533W        W98826   6.409  11.195  14.967
26534W        W98827  24.220  29.994  13.406
26535W        W98828  28.958   6.804  12.454
26536W        W98829  13.604  24.592   1.286
26537W        W98830  31.437  10.250   0.364
26538W        W98831  20.700  34.111   9.650
26539W        W98832  36.396   8.674   2.218
26540W        W98833  31.058  16.716  10.502
26541W        W98834  24.125  19.536   9.921
26542W        W98835  32.426   8.875  12.966
26543W        W98836  31.644  24.102   3.178
26544W        W98837  16.734  19.111   2.754
26545W        W98838  15.755   2.241   0.899
26546W        W98839  15.097   3.295   0.279
26547W        W98840  31.125  29.927   2.827
26548W        W98841  40.969   1.303   5.137
26549W        W98842  39.873  32.468   4.204
26550W        W98843  25.711  37.903  13.401
26551W        W98844   0.769   9.277   4.832
26552W        W98845  20.155  20.065  11.518
26553W        W98846  29.541  37.379  11.575
26554W        W98847  25.522  34.553  14.401
26555W        W98848  27.603   5.910   2.340
26556W        W98849  21.606  37.525  11.610
26557W        W98850   3.827  28.025  13.982
26558W        W98851  38.426  26.579   5.176
26559W        W98852  41.468  36.017   1.775
26560W        W98853  34.106  11.256  13.027
26561W        W98854  10.634  28.612  13.544
26562W        W98855  28.554  38.937   1.416
26563W        W98856  23.666  41.007   1.903
26564W        W98857  24.175  35.443   0.250
26565W        W98858   9.190   1.867  11.963
26566W        W98859  10.367  43.505   2.774
26567W        W98860  34.511   8.191   3.202
26568W        W98861  26.167  30.652   3.319
26569W        W98862   4.354  25.687   0.321
26570W        W98863  25.040  35.368   2.851
26571W        W98864  19.250  32.482  10.963
26572W        W98865  36.452  43.335  12.439
26573W        W98866  31.908  31.973  13.482
26574W        W98867  44.283   1.266  11.910
26575W        W98868  14.188  17.209   0.406
26576W        W98869  13.338   3.348   3.298
26577W        W98870  35.497  38.891   1.451
26578W        W98871  41.818  33.388   0.893
26579W        W98872  44.489  25.073  10.123
26580W        W98873  23.609  37.998   2.328
26581W        W98874  14.102  22.137  13.807
26582W        W98875  35.361  10.186  12.068
26583W        W98876  24.690  30.424  12.429
26584W        W98877  19.611   7.394  11.076
26585W        W98878  22.683  14.122  11.595
26586W        W98879  30.495   0.494   1.934
26587W        W98880  10.803  27.613  14.369
26588W        W98881  15.089   0.400  13.806
26589W        W98882  37.352   4.929  11.893
26590W        W98883   9.227  31.101  13.536
26591W        W98884  44.778  30.108  10.427
26592W        W98885  24.034  40.997   3.257
26593W        W98886  35.054  20.182   2.834
26594W        W98887  16.568  36.093   0.469
26595W        W98888   8.296   5.432   0.416
26596W        W98889  11.803  43.869   3.162
26597W        W98890   4.922   9.184  13.981
26598W        W98891  29.980  41.332   3.852
26599W        W98892  13.659  18.609  10.597
26600W        W98893  14.661   9.701   4.213
26601W        W98894  40.470  41.851  14.019
26602W        W98895   8.232  11.819  11.914
26603W        W98896  14.788   9.155  10.526
26604W        W98897  22.174  18.713  12.832
26605W        W98898  24.564  42.991   3.343
26606W        W98899  27.165  41.037   2.351
26607W        W98900  15.209  39.904  12.853
26608W        W98901  36.975  14.233   1.707
26609W        W98902   8.655  33.027   4.233
26610W        W98903  44.775  40.036  13.835
26611W        W98904  33.464  16.639  14.934
26612W        W98905   9.195   1.863   1.357
26613W        W98906  29.550  10.746  11.581
26614W        W98907  43.448  28.069  13.474
26615W        W98908  33.090  16.598   1.901
26616W        W98909  40.379  40.955  11.998
26617W        W98910  42.467  24.706  10.920
26618W        W98911  13.259  11.735   2.757
26619W        W98912  16.151  28.160   4.822
26620W        W98913  28.532   7.861  14.427
26621W        W98914  39.027   5.201   1.371
26622W        W98915  19.613   4.777   4.116
26623W        W98916  28.610   3.348   4.828
26624W        W98917  42.394  38.414  12.975
26625W        W98918  28.653  22.030  11.455
26626W        W98919  14.208  14.325   3.833
26627W        W98920  24.193  41.946   2.295
26628W        W98921  40.428   3.839  13.489
26629W        W98922  43.017   0.803  11.512
26630W        W98923   6.687  13.788  12.366
26631W        W98924  26.084  31.529   0.323
26632W        W98925  28.665   9.347   4.259
26633W        W98926  35.494  18.120  11.501
26634W        W98927  31.068   2.287  14.901
26635W        W98928  17.068   4.319   1.303
26636W        W98929   1.423  34.005  11.592
26637W        W98930  21.101  44.439  14.499
26638W        W98931  39.537  23.194  13.852
26639W        W98932  18.191  17.593  10.590
26640W        W98933  11.831  34.553  10.996
26641W        W98934  30.114  32.606  10.567
26642W        W98935   4.274  13.115   0.877
26643W        W98936  22.146  17.594  11.503
26644W        W98937  40.994  27.483  12.450
26645W        W98938  26.129  16.612   1.416
26646W        W98939  17.225   1.355   4.808
26647W        W98940  40.945   1.796   1.785
26648W        W98941   8.695  36.465   3.247
26649W        W98942  27.154   5.433   2.320
26650W        W98943  33.384   1.385  13.993
26651W        W98944  35.598  30.448  12.855
26652W        W98945  42.775   2.462   4.813
26653W        W98946  26.110  29.659   4.831
26654W        W98947  18.553  28.580   4.301
26655W        W98948  12.238  24.028  11.050
26656W        W98949  23.539  43.303   3.791
26657W        W98950   0.248  21.018  10.955
26658W        W98951  42.368   2.331  11.059
26659W        W98952  21.254  34.395  12.512
26660W        W98953  30.447   1.448  14.986
26661W        W98954  33.418  13.346   2.843
26662W        W98955  39.445  34.116   3.178
26663W        W98956  37.057  36.960  14.929
26664W        W98957   5.855  33.394  11.941
26665W        W98958  16.181  41.384  11.440
26666W        W98959  14.763  28.967   4.240
26667W        W98960  19.569  11.174   0.752
26668W        W98961  29.579  31.516   2.403
26669W        W98962   7.800  22.552  12.054
26670W        W98963  18.646  17.228   4.301
26671W        W98964   5.403  29.006   3.754
26672W        W98965   3.442  42.436   0.775
26673W        W98966  17.749   1.777   4.237
26674W        W98967  37.926   7.746   3.183
26675W        W98968  38.826   4.768   1.334
26676W        W98969  22.552  26.471  11.449
26677W        W98970  20.232   6.752  12.558
26678W        W98971  44.859  42.973  14.892
26679W        W98972  10.779  38.937  11.543
26680W        W98973  25.486  18.571  12.916
26681W        W98974  31.984   1.237   0.265
26682W        W98975  12.239   0.798   0.481
26683W        W98976  39.362  27.193   1.284
26684W        W98977  20.696   6.750   3.285
26685W        W98978  26.039  27.650  14.943
26686W        W98979   2.361  37.520   3.720
26687W        W98980  32.920  31.512  10.600
26688W        W98981  18.645  31.518   3.151
26689W        W98982  27.489  28.080   2.302
26690W        W98983  28.654  30.976  11.914
26691W        W98984  25.986  21.702   0.375
26692W        W98985  12.246  43.904  11.915
26693W        W98986  12.294  39.537  13.859
26694W        W98987  11.286   1.328   4.669
26695W        W98988  44.957  32.619   2.189
26696W        W98989  19.542  13.315   3.312
26697W        W98990  12.747  11.177   0.834
26698W        W98991   4.385  16.094  12.407
26699W        W98992   7.206  26.110  10.434
26700W        W98993  18.285  17.223   2.694
26701W        W98994  21.721  31.440  11.559
26702W        W98995   6.848  34.488   3.632
26703W        W98996  18.098  35.554   2.298
26704W        W98997   8.370  34.869   2.280
26705W        W98998  24.663  27.121   2.187
26706W        W98999  27.629  18.157  12.856
26707W        W99000  42.347  20.155  13.331
26708W        W99001  25.620  19.547   1.803
26709W        W99002  37.355  16.315   3.647
26710W        W99003  29.019  41.821   3.205
26711W        W99004  34.087  25.554   0.856
26712W        W99005  23.118   7.267  14.018
26713W        W99006  13.775   3.283   1.795
26714W        W99007  28.041  27.967  10.511
26715W        W99008  10.215  14.761  11.543
26716W        W99009  14.747  39.012  13.325
26717W        W99010  31.420  33.615   1.860
26718W        W99011  38.454  35.003  13.956
26719W        W99012  24.701  34.865   0.483
26720W        W99013  39.532  28.050   1.762
26721W        W99014  13.288  43.987   4.115
26722W        W99015  35.060  42.313  12.379
26723W        W99016   0.840  34.117  10.500
26724W        W99017  43.461  41.441   4.830
26725W        W99018  37.045   2.393   0.323
26726W        W99019  40.001  41.909  14.508
26727W        W99020   5.362  26.107  11.019
26728W        W99021  20.070  20.214  12.469
26729W        W99022  32.092   6.417   0.341
26730W        W99023  28.108   6.408  13.055
26731W        W99024  37.856  18.686  13.357
26732W        W99025  30.442   0.422   2.877
26733W        W99026  35.926  41.470  10.533
26734W        W99027  37.467  16.167   3.344
26735W        W99028  21.023   4.396  13.967
26736W        W99029  22.511  14.639   2.783
26737W        W99030  22.119  23.002  10.629
26738W        W99031  37.488   2.921  13.357
26739W        W99032  25.495  28.956  13.040
26740W        W99033  21.576   1.307   2.319
26741W        W99034  11.244  34.402   3.821
26742W        W99035   3.242  27.553   4.274
26743W        W99036  41.820  27.508  13.335
26744W        W99037  24.717   9.288   4.788
26745W        W99038  18.236  20.675   1.443
26746W        W99039  25.207   1.820  13.973
26747W        W99040  31.910  26.496  11.123
26748W        W99041   5.407   0.301  14.868
26749W        W99042   6.190   8.711  14.029
26750W        W99043  22.563  38.913   0.272
26751W        W99044  27.524  26.692  13.418
26752W        W99045   8.162   1.787   0.460
26753W        W99046  22.221  12.622   0.426
26754W        W99047   9.787  15.184   1.394
26755W        W99048  38.845  37.056  10.952
26756W        W99049  39.339   5.916  14.276
26757W        W99050   8.729  25.510   1.231
26758W        W99051  30.031  16.602   0.875
26759W        W99052  32.086  29.483  14.984
26760W        W99053   6.362  30.617   2.760
26761W        W99054   2.918  27.499   1.803
26762W        W99055   8.680   0.309   4.676
26763W        W99056   9.759   0.303  14.359
26764W        W99057  36.372  30.114   4.262
26765W        W99058  38.020  38.349  10.427
26766W        W99059   1.757  17.217   4.644
26767W        W99060  31.907   6.269   2.720
26768W        W99061   0.330  34.375  14.438
26769W        W99062  37.996  40.823   2.366
26770W        W99063  17.648   7.816  12.429
26771W        W99064  39.493  44.484  12.980
26772W        W99065  32.475  11.309  11.932
26773W        W99066  20.576   4.241   0.777
26774W        W99067   5.714  42.791  14.966
26775W        W99068  25.690  11.214   2.227
26776W        W99069  15.309  11.863  11.065
26777W        W99070  44.437  39.487  13.345
26778W        W99071  19.065  16.799  13.032
26779W        W99072  20.628   5.843   0.327
26780W        W99073  25.667  31.975   2.695
26781W        W99074  38.860  44.387  12.961
26782W        W99075  12.329  18.290  11.924
26783W        W99076  32.560   9.157  10.118
26784W        W99077  23.672  41.842  10.558
26785W        W99078  13.242  15.755  11.554
26786W        W99079  21.546   4.917  13.443
26787W        W99080  14.278  16.134   3.833
26788W        W99081   0.815  38.951  10.560
26789W        W99082   6.870  17.296  14.781
26790W        W99083  43.290  39.370  12.362
26791W        W99084  36.447  14.756   3.841
26792W        W99085  41.297  19.257  11.999
26793W        W99086  14.717  18.723   0.298
26794W        W99087   3.787  27.981  11.982
26795W        W99088  17.197  43.849  14.354
26796W        W99089  42.830  36.408   1.908
26797W        W99090  13.319  32.066  13.001
26798W        W99091   2.423  13.649   3.657
26799W        W99092  15.150   1.890   1.882
26800W        W99093   2.254  35.533   4.641
26801W        W99094  12.208  32.612   1.722
26802W        W99095   2.797  27.954   0.411
26803W        W99096   8.836  10.699  13.850
26804W        W99097  35.885  32.525  12.825
26805W        W99098  10.240  35.554   0.774
26806W        W99099  17.734  36.994  12.928
26807W        W99100  37.443  30.583   1.766
26808W        W99101  33.514  29.076   2.750
26809W        W99102   4.795  32.977  14.459
26810W        W99103  11.644  28.495  13.332
26811W        W99104   6.737  44.439   0.960
26812W        W99105  13.703   2.406   1.773
26813W        W99106  23.501  33.482  11.593
26814W        W99107  44.887  44.877   2.332
26815W        W99108   1.332  33.070   4.275
26816W        W99109  13.156  42.990   0.800
26817W        W99110  14.230  39.872   1.358
26818W        W99111  36.856  13.661   2.857
26819W        W99112   9.644  22.678  13.914
26820W        W99113   2.281  38.346   4.173
26821W        W99114  44.006  18.253   0.899
26822W        W99115  29.556  40.844  11.486
26823W        W99116  30.914  17.802  14.487
26824W        W99117  15.267  24.987   1.303
26825W        W99118  15.665   6.234  14.867
26826W        W99119  25.480  26.501  10.898
26827W        W99120  42.283  11.674   2.781
26828W        W99121  17.670   3.418   2.805
26829W        W99122  17.646  11.851   0.901
26830W        W99123  42.796  35.051   2.229
26831W        W99124   0.338  25.022  10.928
26832W        W99125   8.851  37.510  14.876
26833W        W99126  24.018  23.562  11.000
26834W        W99127  40.886  26.083  12.836
26835W        W99128  29.950   2.471   4.744
26836W        W99129   9.157  18.761  13.967
26837W        W99130  29.063  20.553  10.480
26838W        W99131  39.458  41.323  13.045
26839W        W99132  39.443  38.966   2.318
26840W        W99133  10.361  26.161  10.446
26841W        W99134   7.789  22.630  10.118
26842W        W99135   7.340  43.431  12.041
26843W        W99136  21.120  23.658  12.981
26844W        W99137  43.933   3.337  11.979
26845W        W99138  11.152  31.618  14.340
26846W        W99139  24.722  24.107  14.999
26847W        W99140  18.216   8.166  12.573
26848W        W99141  28.494  40.511  12.957
26849W        W99142   2.432  23.568  12.466
26850W        W99143  14.709  20.045   2.288
26851W        W99144  42.787   3.875   2.220
26852W        W99145  19.597  29.166   2.703
26853W        W99146  32.420  32.470  12.439
26854W        W99147  39.404  43.509  12.462
26855W        W99148  17.067  29.496  10.638
26856W        W99149  15.584  14.649   4.614
26857W        W99150  30.569  25.059   5.099
26858W        W99151   1.266  25.119   1.714
26859W        W99152  29.487  11.760   4.333
26860W        W99153  11.144  35.500  13.469
26861W        W99154  17.238  11.290  11.048
26862W        W99155  24.590  37.079   0.415
26863W        W99156  24.092  12.284   4.256
26864W        W99157  24.059   4.248   4.232
26865W        W99158  24.585  23.541   4.149
26866W        W99159  16.228  28.561  13.544
26867W        W99160  13.251  24.535  10.533
26868W        W99161  20.238  37.581  13.489
26869W        W99162  42.407  18.072  12.364
26870W        W99163  21.114  20.758   4.122
26871W        W99164  21.169  20.748  13.381
26872W        W99165   9.791   6.352  11.385
26873W        W99166  11.268  43.478  12.089
26874W        W99167   6.793  10.766   0.362
26875W        W99168   1.748   9.798  12.362
26876W        W99169  37.336   3.780  13.873
26877W        W99170  18.727  40.497  12.846
26878W        W99171  25.524  10.270   4.608
26879W        W99172  11.305  43.423  11.603
26880W        W99173  15.296   7.322  13.828
26881W        W99174  31.098  32.426  12.853
26882W        W99175  35.899  34.435  11.415
26883W        W99176  39.396  22.606  14.280
26884W        W99177  18.134  26.964   3.332
26885W        W99178   7.210  11.272  10.541
26886W        W99179  31.032  28.002   1.741
26887W        W99180  29.118   9.226   4.668
26888W        W99181   2.364  36.438   4.724
26889W        W99182   5.432  29.648  11.573
26890W        W99183  15.147  10.783  10.486
26891W        W99184  40.439  34.013  12.093
26892W        W99185   1.451  37.503   0.900
26893W        W99186  40.412   2.864  14.868
26894W        W99187   7.397   2.936  14.977
26895W        W99188  31.016  14.125  11.935
26896W        W99189  24.053  26.577  14.351
26897W        W99190  19.280  19.271   3.332
26898W        W99191  19.080  17.267   1.433
26899W        W99192  40.471  44.433   2.670
26900W        W99193  26.200  27.170  11.017
26901W        W99194  40.916  19.725   2.387
26902W        W99195  14.117   9.367  13.947
26903W        W99196   6.330  44.387  11.470
26904W        W99197  37.062  12.279   1.383
26905W        W99198  19.700  23.508   3.298
26906W        W99199  34.581  19.061   2.205
26907W        W99200   6.377  32.080   4.631
26908W        W99201  29.167  13.175   1.929
26909W        W99202   3.873   5.911   4.785
26910W        W99203  23.611   0.486  12.041
26911W        W99204  25.479   0.805   4.181
26912W        W99205  37.467  39.048   1.221
26913W        W99206   1.838  43.290  14.987
26914W        W99207  44.377  22.013   3.150
26915W        W99208  29.458  41.833  11.560
26916W        W99209  22.543  31.412   4.173
26917W        W99210  18.573  15.188  11.918
26918W        W99211   1.301  25.588  11.383
26919W        W99212  30.445  10.647   9.987
26920W        W99213  36.918   3.812   3.734
26921W        W99214   3.389  19.264   3.203
26922W        W99215   9.355  15.801  13.979
26923W        W99216  26.039  39.368   2.772
26924W        W99217  41.359   9.252  12.397
26925W        W99218  17.786  17.250   1.229
26926W        W99219  42.987   0.959   1.382
26927W        W99220  44.850  38.328  13.540
26928W        W99221   3.882  35.475   3.755
26929W        W99222  10.697  33.465   2.866
26930W        W99223  24.096   4.217   1.311
26931W        W99224  42.282  32.092   1.448
26932W        W99225  12.138  27.109   2.771
26933W        W99226  14.198  10.291  10.423
26934W        W99227  10.751  37.460   3.791
26935W        W99228  31.942  43.952   3.669
26936W        W99229  35.532  30.086  13.852
26937W        W99230   6.710  37.340   0.281
26938W        W99231  16.128  14.590   1.875
26939W        W99232   2.344   9.775  13.875
26940W        W99233   1.422  19.621   3.686
26941W        W99234   1.849  27.679   4.318
26942W        W99235  26.627  37.888  14.932
26943W        W99236  34.886  19.160   2.722
26944W        W99237  27.037  22.644  13.850
26945W        W99238  25.185   2.409   9.563
26946W        W99239  15.752  40.895  11.453
26947W        W99240  32.029   7.727  14.390
26948W        W99241  42.475   7.264  13.332
26949W        W99242  32.511   4.843   2.221
26950W        W99243   9.275  33.519  13.462
26951W        W99244  44.458  30.630  13.846
26952W        W99245  36.079  28.460  13.365
26953W        W99246  15.168  38.959   0.418
26954W        W99247  10.681  44.455   0.418
26955W        W99248  26.207   6.824  12.981
26956W        W99249  30.027  16.243   2.417
26957W        W99250   5.351  44.791   3.654
26958W        W99251  28.002  44.300  12.921
26959W        W99252   3.726  22.177   1.855
26960W        W99253  10.362  37.980   1.345
26961W        W99254  26.116  37.925   0.827
26962W        W99255  12.737   7.208  11.419
26963W        W99256  21.204  24.543   2.230
26964W        W99257  16.576  15.805  13.475
26965W        W99258   5.809  40.493   1.763
26966W        W99259  33.387  11.240   2.812
26967W        W99260  11.775   0.399  11.429
26968W        W99261  14.805  35.016   2.253
26969W        W99262  34.864  17.673  11.427
26970W        W99263  25.702  43.377   3.310
26971W        W99264  12.225  27.987  12.527
26972W        W99265  39.857  24.229   2.320
26973W        W99266  26.556  22.215   1.816
26974W        W99267  37.935  24.993  10.940
26975W        W99268   9.854  18.571   2.759
26976W        W99269  27.559  24.093   2.684
26977W        W99270   9.169  14.676   2.346
26978W        W99271  22.741  27.636   0.857
26979W        W99272   2.300   8.720   3.265
26980W        W99273  17.108  10.813  13.335
26981W        W99274  36.515  22.556   4.792
26982W        W99275  35.061  18.068  13.321
26983W        W99276  38.837  35.573  13.044
26984W        W99277   2.725   2.759  11.535
26985W        W99278  11.729  13.313   1.242
26986W        W99279  11.867  43.485  13.017
26987W        W99280   5.812  44.969  10.641
26988W        W99281  26.146  13.226  14.487
26989W        W99282   5.885  12.295   2.880
26990W        W99283  43.899  22.995  12.963
26991W        W99284  40.921   9.386  12.492
26992W        W99285   1.371  22.601  14.872
26993W        W99286  21.540   4.317   1.275
26994W        W99287   1.310   4.887   4.281
26995W        W99288  18.191  17.713  11.497
26996W        W99289  31.132   9.180   3.244
26997W        W99290  40.802   1.289  14.349
26998W        W99291  20.105  13.110  12.970
26999W        W99292  25.119  26.652   3.775
27000W        W99293  27.166   3.875  10.950
27001W        W99294  22.513   6.878  11.535
27002W        W99295  22.011  36.437   1.387
27003W        W99296  43.460  28.641  11.518
27004W        W99297  43.448  29.667   1.885
27005W        W99298   6.383  36.842  11.514
27006W        W99299  37.079   4.920  11.478
27007W        W99300   4.776   8.863   3.259
27008W        W99301  10.671  23.113   0.313
27009W        W99302  24.676   5.906   3.834
27010W        W99303   6.731  16.638   2.775
27011W        W99304  10.141  35.538   2.297
27012W        W99305  18.092  12.349   1.398
27013W        W99306  22.562  10.327   4.618
27014W        W99307  20.566  28.031  12.060
27015W        W99308  16.144  40.922  14.960
27016W        W99309   8.317  32.104   1.826
27017W        W99310  13.227  31.120  13.875
27018W        W99311  24.060  20.243  11.461
27019W        W99312  17.148  30.619   5.163
27020W        W99313  29.010  40.427   3.225
27021W        W99314  29.459  33.431  13.429
27022W        W99315  12.259  11.213   0.742
27023W        W99316  37.412  15.108  13.004
27024W        W99317  37.459  39.022  13.965
27025W        W99318  23.540  44.820  13.490
27026W        W99319  10.705  29.597   4.335
27027W        W99320  10.206  36.037  11.471
27028W        W99321  17.765   3.408   2.206
27029W        W99322   5.788   8.779  13.064
27030W        W99323  15.619  44.347   1.911
27031W        W99324  21.066   1.281   3.349
27032W        W99325  27.946  23.693   2.299
27033W        W99326   5.305  27.666   0.369
27034W        W99327   3.915   3.222   3.272
27035W        W99328  12.291   1.889  10.570
27036W        W99329  24.209  33.091  12.823
27037W        W99330  11.346  39.843   3.731
27038W        W99331  11.174  16.241   3.274
27039W        W99332   9.665  16.234   4.146
27040W        W99333  11.224  35.984   2.296
27041W        W99334  30.622   7.863  10.472
27042W        W99335  41.801  42.459   3.763
27043W        W99336  41.928   7.759  14.380
27044W        W99337  34.600  10.789   4.760
27045W        W99338  16.711  24.144  10.536
27046W        W99339  42.821  30.498  14.000
27047W        W99340  42.846   4.760  12.920
27048W        W99341  24.692   5.793  13.348
27049W        W99342  39.846  44.286   3.148
27050W        W99343   7.230  24.160  12.455
27051W        W99344   3.418   8.228  12.385
27052W        W99345  19.535  15.193  12.977
27053W        W99346  31.426  18.789  11.570
27054W        W99347  42.801  32.401   4.724
27055W        W99348  18.196  18.194   4.689
27056W        W99349  25.053  12.278  14.879
27057W        W99350  42.408  33.001  13.423
27058W        W99351   9.235  22.080   4.616
27059W        W99352  22.577  24.551   1.318
27060W        W99353   2.844   4.765   1.333
27061W        W99354  33.925  34.392   3.384
27062W        W99355  15.126   1.288  11.478
27063W        W99356   2.322   1.465   3.340
27064W        W99357  15.275  15.144  12.401
27065W        W99358  38.007  12.256  14.918
27066W        W99359  28.171   4.705   1.415
27067W        W99360  15.643  18.268  12.002
27068W        W99361   3.242  26.208   1.240
27069W        W99362  37.478  27.086  13.964
27070W        W99363  26.984  29.160  13.987
27071W        W99364  33.457  29.115   5.210
27072W        W99365   5.707  13.820  10.539
27073W        W99366   2.760  20.602  11.954
27074W        W99367  26.099  23.110   0.302
27075W        W99368  37.358  29.981  11.550
27076W        W99369  32.983  29.957   1.902
27077W        W99370  17.066   6.770  11.387
27078W        W99371  19.057   0.852  13.527
27079W        W99372  35.972  23.185   1.324
27080W        W99373  10.681  43.832   4.322
27081W        W99374  30.954  36.450   1.850
27082W        W99375  13.173  28.642   1.408
27083W        W99376  32.947  42.839  14.829
27084W        W99377  22.060  38.364   0.852
27085W        W99378  21.040  26.533   4.702
27086W        W99379  38.325  33.935  14.425
27087W        W99380  20.539   4.237  12.463
27088W        W99381  40.543  24.185  13.922
27089W        W99382  19.650  23.590  11.931
27090W        W99383  31.608  16.312   3.198
27091W        W99384  17.741  11.752   4.759
27092W        W99385  42.444   2.421  12.839
27093W        W99386  27.068  10.328  10.982
27094W        W99387  31.475  32.917  10.626
27095W        W99388  16.160  36.541   3.221
27096W        W99389  43.393  23.079  10.580
27097W        W99390   8.788   7.344   4.273
27098W        W99391   0.298   5.340   3.793
27099W        W99392  35.886   5.334  14.989
27100W        W99393  43.361   0.851   1.211
27101W        W99394   6.916  30.144   2.752
27102W        W99395  22.737  11.698  13.451
27103W        W99396  28.050  28.470   2.791
27104W        W99397  19.115  23.103  12.517
27105W        W99398  32.425  21.716   3.260
27106W        W99399  13.317  42.961  10.945
27107W        W99400  15.187   4.210  12.507
27108W        W99401  35.590  31.100  10.897
27109W        W99402  15.112   2.762   2.286
27110W        W99403  13.659  19.641   0.879
27111W        W99404  36.014  14.830   2.405
27112W        W99405  29.471  10.209   0.380
27113W        W99406   9.766  18.638  11.967
27114W        W99407   9.380   8.700  11.101
27115W        W99408  41.976  17.270   2.200
27116W        W99409  35.903   1.300   3.312
27117W        W99410  29.075  25.133   0.858
27118W        W99411  10.282  11.665   2.334
27119W        W99412   3.418   4.843   2.877
27120W        W99413  32.946  25.060  14.934
27121W        W99414   3.438  10.344  14.887
27122W        W99415  12.216  10.848  14.457
27123W        W99416   4.879   5.228  10.471
27124W        W99417  27.487  23.724  11.457
27125W        W99418  35.461   3.420   3.190
27126W        W99419   9.737  40.374   2.672
27127W        W99420  33.513  11.698  12.042
27128W        W99421  35.858  41.935   1.736
27129W        W99422   5.382  24.216  12.383
27130W        W99423   5.891  36.436   1.728
27131W        W99424  24.548  28.151   4.798
27132W        W99425  43.804  23.164   3.383
27133W        W99426  39.877  10.696  14.425
27134W        W99427  43.880  14.618  12.359
27135W        W99428  43.804  39.969   1.371
27136W        W99429  20.617  15.232  13.545
27137W        W99430  20.122   5.292  12.365
27138W        W99431  29.127   1.445   0.858
27139W        W99432  11.685  25.996  13.461
27140W        W99433   1.325  12.658   0.279
27141W        W99434   4.366  39.330  10.641
27142W        W99435  17.644  26.176   1.797
27143W        W99436   8.806  31.467  14.947
27144W        W99437  25.595  38.050  11.983
27145W        W99438  27.637  38.487  11.494
27146W        W99439  19.601  11.663   2.179
27147W        W99440  29.535  20.133   0.470
27148W        W99441  41.350  43.836  13.867
27149W        W99442  21.739  38.567   3.849
27150W        W99443   6.868  19.209   4.659
27151W        W99444   5.316  21.545   1.391
27152W        W99445  25.122  31.075  14.993
27153W        W99446  35.944  39.858  13.017
27154W        W99447  17.702  21.162   2.730
27155W        W99448   6.382  14.160  13.971
27156W        W99449  41.889  37.495   1.324
27157W        W99450   5.371  10.643   2.418
27158W        W99451  36.958  26.621   1.399
27159W        W99452   9.653  14.606  12.531
27160W        W99453  26.696   5.906  11.992
27161W        W99454   3.877  31.122   1.331
27162W        W99455  30.577  15.241  13.979
27163W        W99456   1.777  35.979   4.772
27164W        W99457   3.900  14.222   4.781
27165W        W99458  44.502  39.459   0.438
27166W        W99459  25.161  22.648  12.539
27167W        W99460  27.959  16.598  14.394
27168W        W99461  42.506  10.663   2.807
27169W        W99462  42.283  36.464   0.307
27170W        W99463  42.487  23.712   2.194
27171W        W99464  39.873  39.547   4.658
27172W        W99465  31.069  37.379   3.168
27173W        W99466  18.581  43.334  13.482
27174W        W99467   4.905  35.883  14.313
27175W        W99468  14.785  13.214  11.093
27176W        W99469  39.359  30.054  14.508
27177W        W99470   4.282  12.665   3.630
27178W        W99471  43.014  21.552   1.433
27179W        W99472  19.575   9.177   2.342
27180W        W99473   9.747  37.430   2.241
27181W        W99474   4.836  30.452   1.928
27182W        W99475  31.633  17.148   4.837
27183W        W99476  25.212   0.811  12.488
27184W        W99477  11.312  39.393   1.750
27185W        W99478  42.010  23.494   4.617
27186W        W99479  37.482  42.389  13.404
27187W        W99480  14.591  10.807  13.892
27188W        W99481  11.664  31.457  13.001
27189W        W99482  38.883  38.341   2.268
27190W        W99483  13.739   1.833   0.751
27191W        W99484  39.922  15.772  11.069
27192W        W99485  22.062   1.411  11.403
27193W        W99486  38.878  13.201  14.331
27194W        W99487  16.270  34.397  14.426
27195W        W99488   0.896  37.840  12.066
27196W        W99489  11.684   7.853  11.968
27197W        W99490  39.941  10.226  11.396
27198W        W99491  31.532   5.387   4.826
27199W        W99492  19.103  37.976   2.349
27200W        W99493  28.668   4.284  10.965
27201W        W99494  31.146  18.126  10.017
27202W        W99495  42.325   0.328  13.863
27203W        W99496   0.315  19.665   0.356
27204W        W99497  44.928  43.313  13.038
27205W        W99498  13.210  21.515  13.800
27206W        W99499  23.002  30.116   4.309
27207W        W99500  43.805  27.579   0.908
27208W        W99501  37.939   5.741   1.426
27209W        W99502  37.426  16.163  14.882
27210W        W99503  37.031  14.789   2.226
27211W        W99504   1.744   0.980   1.780
27212W        W99505  31.061  28.442  14.400
27213W        W99506  23.581   7.178   0.881
27214W        W99507  30.109  42.909  11.395
27215W        W99508  10.695  19.684   0.953
27216W        W99509  14.801  26.535   9.969
27217W        W99510  14.234  26.574  12.391
27218W        W99511  30.436   8.865  13.372
27219W        W99512   7.407  36.529  10.404
27220W        W99513  33.623  15.307   2.202
27221W        W99514  14.323  43.821   4.765
27222W        W99515  41.409  10.294  10.569
27223W        W99516  24.999  14.184  13.409
27224W        W99517  42.999  17.205  10.585
27225W        W99518   5.923   9.327  12.880
27226W        W99519  30.061  31.002   0.310
27227W        W99520   4.795  25.538   2.724
27228W        W99521  12.291  37.933  11.880
27229W        W99522  41.861  17.274  12.924
27230W        W99523   7.236   1.745   4.308
27231W        W99524  35.977  25.152  12.456
27232W        W99525  29.096  29.637  14.938
27233W        W99526  12.820   1.874  12.359
27234W        W99527  44.444  37.024   9.556
27235W        W99528  34.395  39.819   1.222
27236W        W99529  39.482  17.671   4.167
27237W        W99530  15.313   9.324   2.798
27238W        W99531   4.342  11.328   2.379
27239W        W99532  13.699  28.495  13.025
27240W        W99533  30.461   5.773   1.432
27241W        W99534   5.205   6.787  11.119
27242W        W99535  10.783   9.739  10.623
27243W        W99536  10.649  12.231   2.223
27244W        W99537  27.038  20.152   4.172
27245W        W99538  14.273  18.251  13.994
27246W        W99539  35.363  29.094   4.811
27247W        W99540  28.577  24.051   9.556
27248W        W99541  38.562  19.225  13.357
27249W        W99542  27.020  24.629  13.850
27250W        W99543  44.760  40.524  11.036
27251W        W99544  25.980  36.421   1.407
27252W        W99545  41.850   3.458   0.793
27253W        W99546   6.727  43.962   2.731
27254W        W99547  42.948  17.176  13.973
27255W        W99548   0.748  23.196  13.813
27256W        W99549   0.249  25.126   2.179
27257W        W99550   4.432  16.291  13.877
27258W        W99551   4.851  32.923   0.875
27259W        W99552  14.713  33.120  14.015
27260W        W99553  34.119  25.516  14.392
27261W        W99554  10.756   9.275   4.265
27262W        W99555   5.865  27.154   0.390
27263W        W99556  39.557  30.417   1.392
27264W        W99557  25.112   9.182   3.336
27265W        W99558  22.512  28.600  10.460
27266W        W99559  39.399  42.904   3.756
27267W        W99560  37.576   8.788  10.572
27268W        W99561   5.812  24.191   1.753
27269W        W99562   6.372  29.524  11.384
27270W        W99563  24.567  35.460  10.486
27271W        W99564  36.867  12.302  12.422
27272W        W99565  22.669  14.692   2.256
27273W        W99566  22.163  33.918  14.473
27274W        W99567  14.100  15.324   3.380
27275W        W99568  11.196  31.489  14.929
27276W        W99569  39.442   9.709  13.315
27277W        W99570  35.563  31.631   3.794
27278W        W99571  11.208  31.437  10.409
27279W        W99572   9.703   0.953   3.694
27280W        W99573  26.497  30.919  12.339
27281W        W99574  32.926  25.046  11.067
27282W        W99575  32.119   9.310   3.387
27283W        W99576  25.551   4.449  14.817
27284W        W99577  18.294  34.392   2.872
27285W        W99578   0.905  22.134  13.022
27286W        W99579  34.108  43.841   0.414
27287W        W99580  21.169   9.264  13.864
27288W        W99581   2.939  19.607   5.287
27289W        W99582  12.342  31.615  10.472
27290W        W99583   6.901   8.707  12.512
27291W        W99584  27.590  16.090   3.862
27292W        W99585  12.705  43.938   1.838
27293W        W99586   9.838  14.158  11.099
27294W        W99587  34.020   3.787   3.671
27295W        W99588  37.406  29.669   2.892
27296W        W99589  38.344   0.261   4.224
27297W        W99590  42.904  16.256   3.333
27298W        W99591  32.445  33.470  14.369
27299W        W99592   1.251  23.032  11.542
27300W        W99593  28.018  19.577  13.989
27301W        W99594  33.608  36.583   4.280
27302W        W99595  13.108  40.983  13.525
27303W        W99596  43.985  42.954   5.092
27304W        W99597  34.553  15.630  14.911
27305W        W99598  16.229  31.135  14.456
27306W        W99599  20.150   6.189  14.791
27307W        W99600  26.082   0.388  14.356
27308W        W99601  30.632  33.556  12.074
27309W        W99602  42.794  24.053  12.580
27310W        W99603  29.991  36.921  13.371
27311W        W99604  36.373  37.357  12.503
27312W        W99605  39.916  27.179   1.309
27313W        W99606  21.697  44.790  12.944
27314W        W99607  24.539  25.971   4.282
27315W        W99608   6.908  17.573  11.902
27316W        W99609  10.211  31.584   1.766
27317W        W99610   0.473   8.861   4.827
27318W        W99611  24.083  33.416   2.742
27319W        W99612   6.846  26.642  13.833
27320W        W99613  23.064  33.976   3.661
27321W        W99614  12.221  13.802   3.339
27322W        W99615  27.971  12.697   0.917
27323W        W99616  14.335   6.358  12.346
27324W        W99617  18.586  14.678  14.294
27325W        W99618  22.184  16.663  12.340
27326W        W99619  12.844  38.843   0.335
27327W        W99620  19.620  18.658  13.964
27328W        W99621  12.341  18.554  14.758
27329W        W99622  39.953  35.405   4.130
27330W        W99623   4.862  12.305  10.983
27331W        W99624  30.472  25.706  13.804
27332W        W99625   5.334  18.591   0.728
27333W        W99626   4.278  25.979   0.735
27334W        W99627   1.472   5.836  14.490
27335W        W99628  13.656  34.105   2.868
27336W        W99629  25.176  27.180   4.660
27337W        W99630  20.653  17.748   0.839
27338W        W99631  20.272  12.718   0.827
27339W        W99632  25.146   7.282   4.692
27340W        W99633  19.645  34.397  10.969
27341W        W99634   8.875  29.562  11.509
27342W        W99635   0.988   3.716  12.382
27343W        W99636  13.320  42.978  12.881
27344W        W99637  19.680  11.721   3.860
27345W        W99638  24.717  18.154   1.763
27346W        W99639  40.996   8.882  10.536
27347W        W99640  23.604   2.228  13.417
27348W        W99641  39.546  21.243  12.995
27349W        W99642   2.815  31.625  11.040
27350W        W99643  43.279  19.606   1.265
27351W        W99644  39.431  36.869   0.318
27352W        W99645  32.544  39.029   2.845
27353W        W99646  35.076   8.802  11.000
27354W        W99647  14.696  36.425   4.727
27355W        W99648   7.680   7.380  13.015
27356W        W99649  34.111  40.502  12.847
27357W        W99650   3.401  16.744  11.596
27358W        W99651   4.233  10.337   1.701
27359W        W99652  14.204  19.206   2.348
27360W        W99653   7.705  36.504   5.758
27361W        W99654  17.176  22.528   2.288
27362W        W99655   6.217   4.400   0.813
27363W        W99656  37.409  41.878  13.414
27364W        W99657  30.110  11.176   1.299
27365W        W99658  16.184   6.377   4.782
27366W        W99659  21.059  22.542  14.416
27367W        W99660   0.798  20.708  13.326
27368W        W99661  13.697  32.927   1.387
27369W        W99662  38.357   1.954  10.421
27370W        W99663  37.479  18.222   2.323
27371W        W99664  30.418   3.790  10.632
27372W        W99665  33.425  27.969  11.417
27373W        W99666   7.190  27.981  13.922
27374W        W99667  15.277  42.523   3.863
27375W        W99668  44.894  16.081   2.743
27376W        W99669  20.734   2.902   1.428
27377W        W99670  43.489  22.659  11.891
27378W        W99671  36.378  34.934   4.160
27379W        W99672  15.812  40.963   1.263
27380W        W99673  19.534  12.636   1.790
27381W        W99674  17.183  24.171  10.440
27382W        W99675  36.374  44.265  12.835
27383W        W99676  38.068  42.487  14.380
27384W        W99677   4.755  40.896  10.964
27385W        W99678   6.880  21.671   4.701
27386W        W99679  20.081  36.509  13.907
27387W        W99680  23.219  19.142  10.468
27388W        W99681  24.198   8.388   1.929
27389W        W99682   4.732  18.220   2.181
27390W        W99683  12.819  38.916  14.799
27391W        W99684  24.515  23.094   2.265
27392W        W99685   3.274  40.946  12.486
27393W        W99686  16.158  34.569   4.114
27394W        W99687  12.209  36.906  10.535
27395W        W99688  28.106  27.617   2.777
27396W        W99689  29.989  17.197   2.408
27397W        W99690  25.091   9.829   4.718
27398W        W99691  32.929  16.073  10.455
27399W        W99692  21.252   7.238   4.327
27400W        W99693  25.646  22.015   3.658
27401W        W99694  29.155   9.159   3.360
27402W        W99695   9.887   3.723  12.428
27403W        W99696  41.930  19.267   0.792
27404W        W99697  29.108   3.936   2.825
27405W        W99698   1.739   7.826  11.071
27406W        W99699  21.699  37.031  14.397
27407W        W99700  36.092   1.426  11.484
27408W        W99701  39.918  40.513   0.326
27409W        W99702  36.951  44.805   0.947
27410W        W99703   7.185  36.880   3.808
27411W        W99704  11.226   2.930  14.888
27412W        W99705  25.681  12.826   4.145
27413W        W99706  18.561  20.177  10.977
27414W        W99707  12.701  14.186   3.687
27415W        W99708   6.903  29.443  12.422
27416W        W99709  15.578  37.963  11.408
27417W        W99710  16.256  19.752  10.411
27418W        W99711   3.401  34.569   1.320
27419W        W99712  22.637  16.108  13.347
27420W        W99713  39.558  10.223  11.499
27421W        W99714  29.657   9.890   1.803
27422W        W99715  40.816  13.179  12.995
27423W        W99716   2.954  39.964   3.241
27424W        W99717  10.180  21.042   3.764
27425W        W99718  34.050  32.102  12.875
27426W        W99719  26.505  30.566   1.790
27427W        W99720  34.078   5.216  10.554
27428W        W99721  43.840  21.202  13.841
27429W        W99722  14.835  23.142   1.296
27430W        W99723  38.498  17.662   1.376
27431W        W99724  34.518  17.305  13.413
27432W        W99725  13.120  10.219   1.739
27433W        W99726   5.923  31.102  14.878
27434W        W99727  24.677   0.486   1.873
27435W        W99728  24.718   8.860   2.256
27436W        W99729  25.995  36.518   1.861
27437W        W99730   6.421  39.963   3.800
27438W        W99731   6.312  44.844   0.792
27439W        W99732  15.606  28.971  10.132
27440W        W99733  34.538  24.516  13.893
27441W        W99734  36.859  12.813  12.909
27442W        W99735  13.807  22.110   1.267
27443W        W99736  24.688  30.052  11.057
27444W        W99737  38.513   2.854   1.238
27445W        W99738  31.525  10.254   9.973
27446W        W99739  15.746  28.185  12.967
27447W        W99740  37.490  19.650   3.363
27448W        W99741   5.301  31.494   3.837
27449W        W99742  39.969   4.774  11.027
27450W        W99743  15.809   5.714  14.482
27451W        W99744  41.480  29.636  13.482
27452W        W99745  37.481  38.563  14.396
27453W        W99746  20.540   9.210   4.614
27454W        W99747  24.987  37.049  11.957
27455W        W99748  19.244  35.535  10.637
27456W        W99749   2.408  34.480  10.920
27457W        W99750  13.300  11.700  11.093
27458W        W99751  32.433  11.245  12.977
27459W        W99752   3.740   8.362  10.999
27460W        W99753  28.164  30.055   1.318
27461W        W99754  39.536  13.173  13.946
27462W        W99755  19.249  36.931   0.313
27463W        W99756  26.624  10.303  14.494
27464W        W99757   7.214  10.813   1.823
27465W        W99758  16.759  37.512  11.858
27466W        W99759   7.791  33.616   5.234
27467W        W99760  21.535  35.883   4.267
27468W        W99761  38.908  28.032   3.240
27469W        W99762   8.776  10.725   3.226
27470W        W99763  31.965  38.538   3.786
27471W        W99764  11.128  20.673  12.024
27472W        W99765   7.232   9.282  11.458
27473W        W99766   4.317  25.516  13.008
27474W        W99767  39.475  19.190   2.209
27475W        W99768  21.169  33.002  14.365
27476W        W99769  44.410  39.055  12.020
27477W        W99770  15.306  34.115   0.894
27478W        W99771  16.073   7.740  13.061
27479W        W99772  29.481  42.281   2.254
27480W        W99773   7.687   8.839   2.871
27481W        W99774  40.018   2.737  14.844
27482W        W99775   1.237  17.708  12.935
27483W        W99776  33.925  28.659  13.000
27484W        W99777  31.502  22.580   0.851
27485W        W99778   7.290  16.592  12.866
27486W        W99779  24.569  17.127   1.781
27487W        W99780  37.569  29.447  12.550
27488W        W99781  20.727  27.493   1.447
27489W        W99782   7.336   9.272   4.668
27490W        W99783  28.551  24.490   1.761
27491W        W99784   4.867  14.146   2.776
27492W        W99785  38.426   8.676   3.319
27493W        W99786   9.165  42.802  11.040
27494W        W99787  30.960  42.507   4.244
27495W        W99788  13.676   4.893   4.219
27496W        W99789   7.223  35.590   0.958
27497W        W99790   4.885  25.553  10.513
27498W        W99791  27.000   2.267   2.762
27499W        W99792  29.585   8.740  13.506
27500W        W99793  16.304  25.507  14.998
27501W        W99794  16.166  25.526   2.366
27502W        W99795  41.380   9.207   0.821
27503W        W99796  12.332  41.819   3.847
27504W        W99797  20.528  43.784   2.304
27505W        W99798  13.124  15.815  10.637
27506W        W99799  15.206  15.689   3.634
27507W        W99800  42.029  23.682  10.968
27508W        W99801   2.435  31.498  11.086
27509W        W99802  13.675   4.698   2.291
27510W        W99803  39.004   9.660  10.047
27511W        W99804  10.816  24.526  13.410
27512W        W99805  28.119  41.816   0.339
27513W        W99806  36.961  18.594   2.895
27514W        W99807  40.364  39.884   3.741
27515W        W99808  10.165   3.948   1.383
27516W        W99809  27.090  14.817  14.810
27517W        W99810  29.640  34.600   2.295
27518W        W99811  13.675  36.460  14.868
27519W        W99812  24.127  19.653   0.406
27520W        W99813  40.510  43.994   0.732
27521W        W99814  33.556  37.465  11.568
27522W        W99815  13.205  30.114  12.486
27523W        W99816  14.600  42.431  12.455
27524W        W99817  40.036   0.879  12.012
27525W        W99818  36.362  41.885  13.939
27526W        W99819  27.173   4.929  14.800
27527W        W99820   3.362   2.405  13.482
27528W        W99821  28.015   0.365  10.423
27529W        W99822  19.265   7.391  11.508
27530W        W99823  19.557  25.169   0.786
27531W        W99824  26.035   1.829   2.855
27532W        W99825  43.390  12.249   3.347
27533W        W99826  38.076  17.581   0.442
27534W        W99827  26.511  41.867   2.890
27535W        W99828  14.174  33.068  11.385
27536W        W99829  37.431  26.114   4.792
27537W        W99830  15.603  26.642  12.500
27538W        W99831  43.985  37.457  13.937
27539W        W99832  42.809  24.712  12.942
27540W        W99833  32.025  35.866  14.932
27541W        W99834  32.115  21.630   1.727
27542W        W99835  41.355  29.173   3.194
27543W        W99836  37.939  42.399   4.735
27544W        W99837  32.428  36.056  14.976
27545W        W99838  32.958  26.122   3.788
27546W        W99839   3.725  41.524   5.099
27547W        W99840  13.649  28.669   4.326
27548W        W99841  36.372   2.837  12.005
27549W        W99842  11.273   0.460  12.011
27550W        W99843  31.945  37.001  13.006
27551W        W99844  25.968  15.754  12.884
27552W        W99845  27.487  20.035   2.332
27553W        W99846   2.950   1.825   2.294
27554W        W99847  25.711  33.405   5.168
27555W        W99848   3.383  15.111   4.750
27556W        W99849   1.418   8.189   3.774
27557W        W99850  32.016  16.110   0.811
27558W        W99851  11.782  35.534   0.948
27559W        W99852   8.819   4.384  14.867
27560W        W99853  21.047  31.578   5.108
27561W        W99854  27.109  12.309   1.930
27562W        W99855  27.134  12.717   0.738
27563W        W99856  42.894  26.206   1.383
27564W        W99857  32.935  20.649   1.916
27565W        W99858  43.836  25.491   4.609
27566W        W99859  30.920  43.010   3.754
27567W        W99860  21.663   4.272  14.458
27568W        W99861  25.686  15.769  12.949
27569W        W99862  15.259  26.471  13.838
27570W        W99863   9.221  11.654  12.413
27571W        W99864  14.627   9.685  14.383
27572W        W99865  43.930  12.301  14.437
27573W        W99866  26.620  18.662   4.656
27574W        W99867  12.636  32.523  12.953
27575W        W99868  40.808   3.312   4.756
27576W        W99869   7.382  35.881   5.628
27577W        W99870  18.163   8.188  11.478
27578W        W99871  16.797  12.756  14.967
27579W        W99872   6.283   3.395   4.266
27580W        W99873  17.246  31.145  13.963
27581W        W99874  41.888  18.551   1.396
27582W        W99875  28.467  16.216   3.663
27583W        W99876  29.011  20.066   3.345
27584W        W99877  27.456  37.846  10.585
27585W        W99878  16.760  33.905   2.369
27586W        W99879  29.920  33.455  11.393
27587W        W99880  26.010  25.099  14.773
27588W        W99881   3.919   7.861   3.820
27589W        W99882  30.912   7.680   9.608
27590W        W99883  32.566  29.933   4.330
27591W        W99884  41.999  26.536   4.298
27592W        W99885  35.586  12.669   2.214
27593W        W99886  24.600  10.874  13.792
27594W        W99887   5.302  24.593   4.131
27595W        W99888  16.125  18.175   5.207
27596W        W99889  25.594  21.154   0.844
27597W        W99890  21.748  39.911  12.446
27598W        W99891  39.365  39.445  14.379
27599W        W99892  38.496   6.245  11.424
27600W        W99893   3.228   1.770   1.316
27601W        W99894  22.625  19.106   2.696
27602W        W99895  29.110  22.696  12.878
27603W        W99896   2.284  23.665   1.706
27604W        W99897  27.006  35.604  12.365
27605W        W99898   5.858  23.637  14.030
27606W        W99899  29.094  33.025   0.837
27607W        W99900  20.071  40.869  10.532
27608W        W99901  15.679  39.505   2.843
27609W        W99902  37.523  14.622   3.637
27610W        W99903  20.216  30.038   2.263
27611W        W99904   2.855   6.343  12.346
27612W        W99905  17.257   8.282  14.291
27613W        W99906  34.893  35.384   0.477
27614W        W99907  40.876  34.088   4.794
27615W        W99908  12.234  29.116   0.912
27616W        W99909  10.343  12.733  10.609
27617W        W99910  20.694  37.995   2.830
27618W        W99911   8.349   9.679  13.858
27619W        W99912  20.580  23.576  13.936
27620W        W99913  27.166   5.230  12.844
27621W        W99914  25.058  12.156   3.762
27622W        W99915   5.331  36.363   3.693
27623W        W99916  34.407  33.039  13.428
27624W        W99917  24.136  38.835   4.124
27625W        W99918  25.545  23.631   0.339
27626W        W99919   8.404  24.161   0.393
27627W        W99920  39.932  29.670  10.906
27628W        W99921   9.805   9.691  12.064
27629W        W99922  36.897  38.405  10.566
27630W        W99923   6.714  43.938   3.866
27631W        W99924  20.209  38.037  11.127
27632W        W99925  35.079  12.256   2.235
27633W        W99926  21.736  25.527   1.277
27634W        W99927  41.877  21.166  13.317
27635W        W99928  11.366  37.513  10.645
27636W        W99929  30.980  17.300   2.303
27637W        W99930  30.624  41.857  14.922
27638W        W99931  16.605  17.685  14.830
27639W        W99932  43.945  38.963  11.458
27640W        W99933  36.963  40.339   2.382
27641W        W99934   2.391  40.468   4.273
27642W        W99935  21.546  30.072  11.897
27643W        W99936  29.124  14.258  12.469
27644W        W99937   8.254  25.109   1.794
27645W        W99938  33.387   7.207   1.251
27646W        W99939  25.014  33.550  12.492
27647W        W99940   5.299  37.390   5.312
27648W        W99941  18.152  41.986   4.332
27649W        W99942   0.953  34.389  14.396
27650W        W99943  28.074  13.651   0.312
27651W        W99944   0.373  30.937  10.918
27652W        W99945  31.023  43.790   1.697
27653W        W99946  33.038  26.113   1.827
27654W        W99947  37.895  18.238   2.203
27655W        W99948   3.829  27.083   4.261
27656W        W99949  11.241  12.149   1.240
27657W        W99950  34.998  19.112   0.447
27658W        W99951   6.238  41.392   3.383
27659W        W99952  11.727  33.910   1.795
27660W        W99953  16.118  17.155  14.008
27661W        W99954   9.294  15.762   4.114
27662W        W99955  38.073  34.453   0.384
27663W        W99956  42.292   6.810  10.483
27664W        W99957  31.597  24.035  14.991
27665W        W99958  38.026  35.911   2.345
27666W        W99959   7.804   2.918   2.384
27667W        W99960  26.488   7.374   5.283
27668W        W99961  44.460   3.417   0.288
27669W        W99962  40.424  24.551  13.873
27670W        W99963  15.620  43.435   2.822
27671W        W99964  31.604   0.968  13.321
27672W        W99965  22.130   3.300  11.579
27673W        W99966  27.100  30.104   0.409
27674W        W99967  19.225  34.520   3.351
27675W        W99968  11.176   6.737   3.282
27676W        W99969  40.509  35.069   2.220
27677W        W99970  20.633  17.620   4.316
27678W        W99971   9.233  30.479   4.327
27679W        W99972  24.491  19.110  12.006
27680W        W99973   3.873   9.381   4.352
27681W        W99974  41.809  26.184   1.891
27682W        W99975  39.459  41.857   3.229
27683W        W99976  40.968  30.503   1.762
27684W        W99977  39.337  24.039  12.081
27685W        W99978  32.422  20.178  14.012
27686W        W99979  23.510  16.164  13.396
27687W        W99980   2.790   0.827   1.744
27688W        W99981  33.994  17.080  13.823
27689W        W99982  14.184   9.388  12.473
27690W        W99983  23.202  14.327   4.727
27691W        W99984   0.955   9.335   1.394
27692W        W99985  27.185  39.054  10.145
27693W        W99986  41.866  26.591  13.981
27694W        W99987   0.932  44.956   4.786
27695W        W99988  10.757   9.685   1.260
27696W        W99989   1.731  31.423  14.453
27697W        W99990  10.751  37.010  12.535
27698W        W99991  30.982  21.137  14.353
27699W        W99992  18.645   5.743   4.808
27700W        W99993   5.355  13.322  10.986
27701W        W99994  23.232  27.995   4.301
27702W        W99995   3.922  17.148  11.066
27703W        W99996   7.792  12.217   4.666
27704W        W99997  33.116  11.179   3.152
27705W        W99998  39.524  15.751   3.771
27706W        W99999   0.844  44.505  10.161
27707W        W    0  37.413  29.575  13.968
27708W        W    1  26.687   8.295   0.452
27709W        W    2   5.925   9.335   3.218
27710W        W    3  37.399  43.947   0.954
27711W        W    4  23.144  44.983   0.322
27712W        W    5   0.370  11.776  13.375
27713W        W    6   8.686  30.954  13.382
27714W        W    7  27.126   8.405   3.293
27715W        W    8  29.967  19.157  11.613
27716W        W    9   1.928  34.552   3.216
27717W        W   10  29.983  40.911  13.911
27718W        W   11  12.213   5.305  14.301
27719W        W   12   2.273  13.280   0.840
27720W        W   13  33.919  15.263  14.291
27721W        W   14  37.914  29.980  14.355
27722W        W   15   0.907  30.574   1.244
27723W        W   16  21.636  20.614   2.675
27724W        W   17  30.120  36.966  12.848
27725W        W   18  37.485  29.093  12.445
27726W        W   19   5.363  38.338   4.296
27727W        W   20   9.392  34.472  13.044
27728W        W   21   5.730  11.182  14.410
27729W        W   22  22.535  35.074  13.384
27730W        W   23   4.445  21.195  12.350
27731W        W   24  38.563  33.894  12.913
27732W        W   25  16.642  25.641   4.201
27733W        W   26  13.614  40.394  12.057
27734W        W   27   2.288  18.097   0.474
27735W        W   28  14.283  21.653  13.053
27736W        W   29   5.921   6.215  13.805
27737W        W   30  12.223   5.702   0.845
27738W        W   31  39.465  18.718  13.964
27739W        W   32  42.448   9.313   4.214
27740W        W   33   9.847  21.261   0.243
27741W        W   34  19.726  29.063   0.911
27742W        W   35  39.016  19.555   9.984
27743W        W   36  11.221   2.820   3.677
27744W        W   37  39.990  37.046  11.586
27745W        W   38  25.128   2.419  13.004
27746W        W   39  35.415   6.834  14.771
27747W        W   40  23.496   7.244  12.342
27748W        W   41  32.082  35.586   1.386
27749W        W   42  30.505  18.238   0.271
27750W        W   43  12.342  30.548   0.731
27751W        W   44  43.843  41.927  11.486
27752W        W   45  28.537  28.149   2.205
27753W        W   46  41.387   8.308  13.014
27754W        W   47  14.656  12.173   4.746
27755W        W   48  28.117  21.692   4.256
27756W        W   49  26.578   2.919  12.067
27757W        W   50   6.395  10.755  10.149
27758W        W   51  36.433   6.343   1.428
27759W        W   52  12.216  13.261   3.226
27760W        W   53  26.138  21.101   1.398
27761W        W   54   9.842  34.589   3.198
27762W        W   55  29.173  32.008   0.402
27763W        W   56  44.315  13.254   5.149
27764W        W   57  16.104  40.854  13.972
27765W        W   58  10.170  19.700   2.728
27766W        W   59  41.311  40.955   4.671
27767W        W   60  28.469  35.416   2.231
27768W        W   61  24.068  10.167   0.320
27769W        W   62  33.995   0.253  13.441
27770W        W   63  14.321  28.969   3.302
27771W        W   64  24.980  43.870   1.747
27772W        W   65   6.828  44.831   1.722
27773W        W   66  29.994   9.365  12.979
27774W        W   67  33.944   0.860  11.411
27775W        W   68   4.336  34.541   3.173
27776W        W   69  36.911   0.748  14.340
27777W        W   70  35.452  15.087  11.494
27778W        W   71  12.234   2.789   3.848
27779W        W   72   6.344  43.952  13.815
27780W        W   73  25.139  42.988   3.247
27781W        W   74  44.958   2.918   3.721
27782W        W   75   8.265  36.984   3.157
27783W        W   76  38.502  41.014   0.797
27784W        W   77  42.002  18.669   3.373
27785W        W   78  39.383  12.299  13.948
27786W        W   79  33.570  11.197  10.456
27787W        W   80   9.702  31.630  11.070
27788W        W   81  27.160  39.508   3.842
27789W        W   82  36.559  14.248  13.798
27790W        W   83  12.689  23.117  11.556
27791W        W   84  16.767  31.478   2.329
27792W        W   85  22.111  12.704  11.472
27793W        W   86  21.059  44.397   4.662
27794W        W   87  37.000   0.822   3.212
27795W        W   88  23.084  34.469  11.127
27796W        W   89  18.122  30.585  10.474
27797W        W   90  31.565  28.037  12.901
27798W        W   91  23.127  30.509  11.985
27799W        W   92   3.774  35.014   1.799
27800W        W   93  24.608  34.572  13.997
27801W        W   94   4.861  35.533   3.205
27802W        W   95  17.656  39.397  11.000
27803W        W   96  20.679  30.012  11.937
27804W        W   97  29.653  38.527  12.577
27805W        W   98  44.451  26.626  10.071
27806W        W   99   2.966  29.519   4.202
27807W        W  100  30.028   2.830  14.960
27808W        W  101  28.462   1.277  14.823
27809W        W  102  11.849  39.379  11.943
27810W        W  103  16.295  21.201  14.796
27811W        W  104   5.257  36.515   4.146
27812W        W  105  32.568  18.168   4.306
27813W        W  106  30.915  21.175  13.390
27814W        W  107  38.483  26.984   1.261
27815W        W  108  38.418   8.704  11.982
27816W        W  109  38.015  44.970  14.821
27817W        W  110  13.643  27.687   3.214
27818W        W  111  44.761   5.252  13.901
27819W        W  112   8.842  26.682  12.965
27820W        W  113  36.915  44.473  10.135
27821W        W  114  18.254  37.967   3.157
27822W        W  115  44.929  10.234   3.711
27823W        W  116  44.486  21.159  13.373
27824W        W  117  13.827  22.194   0.767
27825W        W  118  37.524  23.575  12.057
27826W        W  119   6.280  17.107  12.419
27827W        W  120  22.715   9.263  10.971
27828W        W  121  26.988   5.745  14.452
27829W        W  122  16.199  26.095   1.714
27830W        W  123  30.093  30.928   1.429
27831W        W  124  34.115   5.907  12.038
27832W        W  125  44.901   3.930  10.543
27833W        W  126  21.741  10.205   9.987
27834W        W  127  31.959  44.976  11.445
27835W        W  128  33.592  19.717   2.839
27836W        W  129  27.104  37.884   0.425
27837W        W  130   3.827  19.611  12.381
27838W        W  131   7.364  41.918  10.479
27839W        W  132  21.732  39.375  12.093
27840W        W  133   8.861  22.602   0.432
27841W        W  134  26.658  33.079   4.349
27842W        W  135  19.147  20.264  14.921
27843W        W  136  19.609  17.080  14.935
27844W        W  137  12.278  11.271   4.777
27845W        W  138   0.899  20.254   2.204
27846W        W  139  16.779  22.614  14.884
27847W        W  140  34.072  28.044   2.305
27848W        W  141  26.565   3.321  10.644
27849W        W  142  37.557  42.895   0.318
27850W        W  143  36.582  15.150   4.251
27851W        W  144   1.298  36.380  13.978
27852W        W  145   3.867  11.772   5.220
27853W        W  146  19.555  34.874   3.350
27854W        W  147  34.390  23.591  13.795
27855W        W  148  19.763  31.626   0.329
27856W        W  149  16.678   6.922  12.957
27857W        W  150  40.547  21.020  12.083
27858W        W  151  42.903  24.111  10.911
27859W        W  152  14.268  24.556   4.248
27860W        W  153   1.474  10.346   3.385
27861W        W  154  37.063  43.927  10.967
27862W        W  155  34.882  39.427   1.820
27863W        W  156  31.491  21.647   1.238
27864W        W  157  20.681  16.574  11.884
27865W        W  158  19.216  25.058  14.000
27866W        W  159   0.813   5.266   1.892
27867W        W  160  15.754  29.134  14.849
27868W        W  161  17.711  14.601  14.481
27869W        W  162   8.277  12.270   2.318
27870W        W  163  25.136  44.813  13.424
27871W        W  164  24.061   7.683  12.480
27872W        W  165  33.401  24.046   2.671
27873W        W  166   5.901  42.419  13.443
27874W        W  167  20.169  10.265  14.763
27875W        W  168  10.713   4.929   3.183
27876W        W  169  12.258  26.171   4.130
27877W        W  170   5.867  41.816  14.827
27878W        W  171  24.034  19.062  11.479
27879W        W  172  22.629  39.815  12.850
27880W        W  173  12.272  40.887   3.816
27881W        W  174   2.876  41.965  11.123
27882W        W  175   7.195  28.656  11.129
27883W        W  176  24.599  16.263  11.532
27884W        W  177   5.208  12.832  11.951
27885W        W  178  42.336   0.862   1.791
27886W        W  179  42.778  10.831  11.086
27887W        W  180  40.935  22.656   0.249
27888W        W  181  35.046  26.109  13.042
27889W        W  182  23.561  12.682  10.588
27890W        W  183  31.927  11.149   1.343
27891W        W  184  41.306  39.376   3.333
27892W        W  185   7.857  20.646   2.763
27893W        W  186   9.872  13.319   4.643
27894W        W  187   5.346   9.183   4.801
27895W        W  188  43.443   3.875  14.956
27896W        W  189  27.180  13.830  14.297
27897W        W  190  27.645   6.280   4.305
27898W        W  191  23.636   8.851   0.772
27899W        W  192   8.862  39.394  10.434
27900W        W  193  24.028  31.613  13.434
27901W        W  194  26.480  31.517  14.790
27902W        W  195  37.037  42.305   3.331
27903W        W  196   5.809  28.089  11.442
27904W        W  197  13.693  19.044  12.372
27905W        W  198  39.983  32.596   2.339
27906W        W  199  11.759  30.611   3.240
27907W        W  200  35.933  20.213   3.362
27908W        W  201  13.772   2.735  11.089
27909W        W  202   1.739  33.036   4.753
27910W        W  203  34.083   3.263   2.682
27911W        W  204  15.161  32.419   4.322
27912W        W  205  15.110  43.782   2.363
27913W        W  206  13.688  16.270   0.911
27914W        W  207  20.129   6.816   3.179
27915W        W  208   3.242   8.851   0.287
27916W        W  209  36.928  40.521  12.409
27917W        W  210  24.196  21.602   1.848
27918W        W  211  37.025  44.763   4.349
27919W        W  212  39.372  40.453   1.858
27920W        W  213  10.840  38.014  13.453
27921W        W  214  29.157   0.987   4.180
27922W        W  215  12.286  40.833  12.064
27923W        W  216  38.891  27.638  12.979
27924W        W  217  32.033  22.162  14.292
27925W        W  218  20.193  13.746  11.992
27926W        W  219  33.950  37.394  11.569
27927W        W  220  20.271  33.457   4.233
27928W        W  221  40.897   9.213   4.688
27929W        W  222  41.338  27.172   2.731
27930W        W  223  42.503   6.857   3.691
27931W        W  224  28.659  40.390   4.802
27932W        W  225  22.170  40.529  11.037
27933W        W  226  35.944  12.701   2.712
27934W        W  227  32.473   4.223   0.729
27935W        W  228  38.537  38.932  12.000
27936W        W  229   8.228  36.911  12.065
27937W        W  230  21.678  21.573   3.730
27938W        W  231   7.836  18.236  13.357
27939W        W  232  27.002  13.696  12.368
27940W        W  233   1.747  35.428   1.895
27941W        W  234  40.988  20.703  14.775
27942W        W  235  33.947  33.027  14.400
27943W        W  236  23.509  13.808   3.643
27944W        W  237  23.577  16.765  14.335
27945W        W  238  32.474  10.788  10.602
27946W        W  239  19.186  21.171  14.393
27947W        W  240   1.329  32.926   1.877
27948W        W  241  38.028  42.000  11.426
27949W        W  242  26.625  39.527   3.251
27950W        W  243  20.060   7.778   0.826
27951W        W  244  16.666  33.460   1.414
27952W        W  245   1.888  17.280  14.838
27953W        W  246   2.389  29.136   4.219
27954W        W  247   5.323  20.071   0.784
27955W        W  248  18.111  10.370   3.743
27956W        W  249  17.158  31.023   2.243
27957W        W  250   5.323   5.933  13.039
27958W        W  251  29.994   8.401   2.767
27959W        W  252  33.874  42.309  12.000
27960W        W  253  24.153  25.215   5.195
27961W        W  254  16.172  19.165  13.390
27962W        W  255  34.529  16.586  14.804
27963W        W  256  33.043  17.148   2.703
27964W        W  257  31.139  25.490  12.362
27965W        W  258  35.551  20.230  12.033
27966W        W  259  21.183  16.680  11.943
27967W        W  260  29.126  14.670  13.929
27968W        W  261  28.486  40.524  12.088
27969W        W  262  15.728   6.262   2.405
27970W        W  263  26.175  24.717   4.679
27971W        W  264  23.032  28.660   1.329
27972W        W  265  27.687  20.743   4.829
27973W        W  266  10.219  11.701   3.792
27974W        W  267  20.598   0.794   4.187
27975W        W  268   0.810  26.019  12.880
27976W        W  269  42.847   4.818  14.488
27977W        W  270  20.687  41.818  13.413
27978W        W  271  17.601   0.479   2.876
27979W        W  272  36.098  19.582  14.388
27980W        W  273  20.625  39.054   0.341
27981W        W  274  19.216  13.696  10.639
27982W        W  275  25.192   3.420   2.306
27983W        W  276  38.448  14.240   4.116
27984W        W  277  37.017  22.246  12.008
27985W        W  278  43.392  15.749   4.324
27986W        W  279  17.304  31.559  12.403
27987W        W  280   2.380  23.176   2.743
27988W        W  281  25.638   9.334   2.814
27989W        W  282   9.654  29.621   3.846
27990W        W  283   0.937  29.439   4.124
27991W        W  284  13.175  11.168  10.895
27992W        W  285   8.338  13.298  11.497
27993W        W  286  34.493   9.201   4.698
27994W        W  287  22.094   1.273   0.843
27995W        W  288  14.708   6.318   1.443
27996W        W  289   5.196  15.183   4.809
27997W        W  290  22.642   5.335   2.256
27998W        W  291   4.752   2.365   2.762
27999W        W  292  33.501   5.862   1.779
28000W        W  293  42.400  35.541   2.668
28001W        W  294  29.059  15.169  13.917
28002W        W  295  22.682  35.604   0.379
28003W        W  296  22.732  24.653  14.859
28004W        W  297  42.484   4.923   0.445
28005W        W  298   4.329  14.805   1.927
28006W        W  299  44.407  32.061  11.449
28007W        W  300  32.941  35.497   0.851
28008W        W  301  26.617   2.745   3.672
28009W        W  302  12.615   9.352  13.887
28010W        W  303  18.569  22.019   2.393
28011W        W  304  21.226  26.007   3.773
28012W        W  305   9.213   6.220  14.783
28013W        W  306  39.990  28.971  13.873
28014W        W  307  14.255  42.936  11.079
28015W        W  308   3.280  19.644   2.891
28016W        W  309  33.479   1.742   0.411
28017W        W  310  12.234  13.323  12.847
28018W        W  311   8.768  35.083  11.494
28019W        W  312   3.914  10.260   2.398
28020W        W  313   8.318  38.821   1.448
28021W        W  314  15.718  42.899   4.304
28022W        W  315  27.153  10.863   1.808
28023W        W  316   5.279   9.779  11.542
28024W        W  317  39.815   2.871   0.381
28025W        W  318  25.000   2.952   4.734
28026W        W  319  12.625  42.366   2.673
28027W        W  320   6.427  11.723   2.369
28028W        W  321  31.559  39.857  14.991
28029W        W  322  22.666  36.538   0.954
28030W        W  323   6.328  42.445   2.672
28031W        W  324  24.539  24.490   1.388
28032W        W  325   1.974  37.941  13.458
28033W        W  326  21.168  38.436  14.448
28034W        W  327  37.524  44.004  11.502
28035W        W  328   1.813   4.922  10.483
28036W        W  329  38.492  20.609  13.850
28037W        W  330  41.322  16.200   1.698
28038W        W  331  37.460  14.763   4.129
28039W        W  332  32.102  17.699  12.843
28040W        W  333  21.571  17.107   1.911
28041W        W  334  35.021   5.804  12.497
28042W        W  335   0.363  37.944  13.344
28043W        W  336  17.560  40.524  11.396
28044W        W  337  40.824   3.923  12.450
28045W        W  338   5.765   1.825   4.812
28046W        W  339  38.821  26.088  10.999
28047W        W  340  31.132  44.271  13.543
28048W        W  341   7.237  13.612  13.475
28049W        W  342  13.754  35.518  13.937
28050W        W  343  26.063  19.688   4.754
28051W        W  344  13.131  26.085   0.746
28052W        W  345  20.250  42.812  12.942
28053W        W  346  42.832  42.840  12.834
28054W        W  347  38.345   3.447  10.411
28055W        W  348  43.318  27.633   2.666
28056W        W  349  24.105   1.947  10.503
28057W        W  350  22.634  21.108  11.025
28058W        W  351  41.522  33.540   0.352
28059W        W  352  12.837  38.895   4.213
28060W        W  353  13.795  15.267   3.258
28061W        W  354  31.933  12.637  10.064
28062W        W  355   2.824  26.552   3.766
28063W        W  356  22.115  32.045   2.776
28064W        W  357  13.256  34.496  14.885
28065W        W  358  14.770  40.334   0.480
28066W        W  359   1.307  33.006  12.397
28067W        W  360  27.618  35.045   2.661
28068W        W  361   3.324  44.995  14.762
28069W        W  362  35.515  19.060   4.304
28070W        W  363  41.971  25.217   1.790
28071W        W  364  10.741   3.824   3.155
28072W        W  365  27.030  20.260   1.400
28073W        W  366  34.111  18.223  13.349
28074W        W  367  36.566  29.043   2.665
28075W        W  368  18.708  36.421   2.290
28076W        W  369  11.641  12.299  12.428
28077W        W  370  31.626  12.161   1.809
28078W        W  371  27.670   2.430   3.385
28079W        W  372  43.412  28.592  13.956
28080W        W  373  37.006  17.711   0.835
28081W        W  374  15.578  29.030   1.742
28082W        W  375   2.776  44.345   3.803
28083W        W  376  16.073  24.024  13.471
28084W        W  377  18.085   2.958  11.603
28085W        W  378  26.988  27.019   3.767
28086W        W  379   4.267  23.685  13.048
28087W        W  380  15.777  18.633   3.676
28088W        W  381  39.872   3.896  11.475
28089W        W  382  13.834  15.203  10.997
28090W        W  383  10.175  31.577  14.924
28091W        W  384   1.284  32.052  11.984
28092W        W  385  30.951  37.540  14.015
28093W        W  386  32.428  31.020  14.893
28094W        W  387  43.906   8.764  14.453
28095W        W  388  30.509  33.457  11.029
28096W        W  389  26.632   9.787   4.153
28097W        W  390  17.204  23.052   2.323
28098W        W  391  42.921  25.172   1.256
28099W        W  392  20.165  20.745  14.825
28100W        W  393  13.744  12.812   2.789
28101W        W  394   3.225  14.753   4.612
28102W        W  395  15.165  30.460   2.418
28103W        W  396  24.583  19.222   4.202
28104W        W  397  28.678   0.952   1.248
28105W        W  398   7.207  29.149  13.513
28106W        W  399   7.771   9.733   2.845
28107W        W  400  30.941  39.902   0.738
28108W        W  401  21.245   6.250   2.776
28109W        W  402  15.724  44.359  13.888
28110W        W  403  26.642  13.248  12.569
28111W        W  404   8.733   1.336   0.871
28112W        W  405   0.486  18.272  11.971
28113W        W  406  37.391  19.093  10.973
28114W        W  407  25.614  29.440  14.413
28115W        W  408  41.387  39.464   4.673
28116W        W  409  27.956  16.694   2.691
28117W        W  410   7.843  31.101   1.451
28118W        W  411  43.455  34.066  11.907
28119W        W  412  19.574   8.296   4.127
28120W        W  413  44.466  30.521   0.359
28121W        W  414  19.760  43.801   0.402
28122W        W  415  11.731  34.518  12.453
28123W        W  416  12.355   8.671   0.930
28124W        W  417  28.679  37.517  12.896
28125W        W  418   6.388  40.402  11.938
28126W        W  419   7.185  36.575  14.030
28127W        W  420  28.520  12.724  10.418
28128W        W  421  22.647  27.643  12.528
28129W        W  422  24.985  15.706  13.313
28130W        W  423   9.711  11.130  12.036
28131W        W  424  26.471  44.399  14.419
28132W        W  425  15.690  39.476   0.265
28133W        W  426  40.459  23.992  10.981
28134W        W  427   9.811  43.317  14.406
28135W        W  428  24.695  35.453   1.367
28136W        W  429  11.834  28.083  10.135
28137W        W  430  34.572  34.523   0.302
28138W        W  431  12.736  20.088   4.221
28139W        W  432  29.043   8.273   3.852
28140W        W  433   7.404  37.373  14.889
28141W        W  434  10.147  41.397  12.992
28142W        W  435  19.648  11.241  13.468
28143W        W  436  14.098  10.801  11.612
28144W        W  437  33.929  15.742  10.421
28145W        W  438  39.887   0.909   4.606
28146W        W  439  20.606  25.659   2.419
28147W        W  440   1.770  15.781  14.951
28148W        W  441  14.191  30.038   3.300
28149W        W  442  34.412   1.417   2.372
28150W        W  443  43.505  44.786  14.473
28151W        W  444  34.955  43.888  10.503
28152W        W  445  25.168  33.423  13.954
28153W        W  446  44.770  36.881  14.027
28154W        W  447  26.614  30.517   0.351
28155W        W  448  32.895  37.971   3.219
28156W        W  449  15.180   9.189   3.730
28157W        W  450  33.577   0.749   3.336
28158W        W  451   1.778   6.264  12.565
28159W        W  452  27.050  10.168   0.446
28160W        W  453  41.789  20.660   1.348
28161W        W  454  20.624  41.856  13.920
28162W        W  455  19.672  44.006  11.451
28163W        W  456  20.115  38.014   0.438
28164W        W  457  44.845   2.417   0.484
28165W        W  458   1.912  39.926   4.351
28166W        W  459   0.821  43.345  13.438
28167W        W  460   6.914  41.329   0.275
28168W        W  461  40.896  26.193  14.280
28169W        W  462  39.987  36.083  11.053
28170W        W  463   1.885  39.472   2.415
28171W        W  464   5.200  40.529  12.085
28172W        W  465  18.255  42.367  11.984
28173W        W  466  16.119  32.585   3.263
28174W        W  467  33.556  28.575   4.156
28175W        W  468  37.477  24.093  14.405
28176W        W  469  32.132   3.399   3.198
28177W        W  470  33.618  29.661   1.811
28178W        W  471  41.884   7.866   0.732
28179W        W  472  35.392  37.495   5.307
28180W        W  473   2.455  17.306   4.234
28181W        W  474  21.549  23.011  13.504
28182W        W  475  30.000  14.288   3.838
28183W        W  476   8.242  16.769   0.286
28184W        W  477  27.475  21.619  10.502
28185W        W  478   7.360  12.801   1.767
28186W        W  479  21.041   8.661   5.140
28187W        W  480  36.024  37.432  12.580
28188W        W  481   3.749   3.777  13.961
28189W        W  482  44.362  44.811   5.265
28190W        W  483  25.599  18.610  11.608
28191W        W  484   1.278  17.701   0.856
28192W        W  485   6.410  28.440   2.854
28193W        W  486  24.010  39.345   1.428
28194W        W  487  28.975   9.685   0.914
28195W        W  488  32.613  33.914  12.401
28196W        W  489  27.677  34.558   4.203
28197W        W  490   2.440  27.045  13.362
28198W        W  491   1.396  42.779   0.431
28199W        W  492  21.732  36.383   4.653
28200W        W  493  14.831   7.811  10.901
28201W        W  494  18.690  42.895  11.996
28202W        W  495  29.078  22.174  12.892
28203W        W  496  16.261   1.921   0.259
28204W        W  497  38.954  14.296   2.249
28205W        W  498  33.957  19.270  11.978
28206W        W  499   6.393  35.028  12.013
28207W        W  500  11.221  24.052  10.617
28208W        W  501  28.617  43.318   3.305
28209W        W  502   5.764  29.099   0.254
28210W        W  503   5.805  33.898   2.799
28211W        W  504  39.486  43.908  13.483
28212W        W  505   0.803  42.398  11.462
28213W        W  506  39.415  40.407   2.861
28214W        W  507  29.094   7.826  10.547
28215W        W  508  35.004  12.141   3.719
28216W        W  509  21.033  24.164   2.338
28217W        W  510  37.569  12.335   3.376
28218W        W  511   2.726  11.842   1.318
28219W        W  512  39.402  37.926  13.449
28220W        W  513   2.301  41.026  14.466
28221W        W  514  15.259  44.795   3.666
28222W        W  515  35.869   2.791  10.933
28223W        W  516  36.429   8.188   4.295
28224W        W  517  14.623  42.002  10.629
28225W        W  518  15.675  37.928  12.855
28226W        W  519  23.082  23.208   0.320
28227W        W  520  21.212  36.893  11.125
28228W        W  521   4.849  23.088   0.876
28229W        W  522  19.737  41.298  10.484
28230W        W  523   9.152  42.316   4.132
28231W        W  524   4.928  42.507  12.996
28232W        W  525  32.885  18.674   4.720
28233W        W  526  38.842  27.133   2.697
28234W        W  527   2.941  12.856  11.392
28235W        W  528  11.200  39.931   1.272
28236W        W  529  25.663  16.606   4.299
28237W        W  530  23.215  13.256   0.870
28238W        W  531  40.842  26.954  13.404
28239W        W  532  30.987  11.290  14.317
28240W        W  533  12.611  32.901  12.051
28241W        W  534  11.736  24.161   0.414
28242W        W  535  38.564   6.736   3.766
28243W        W  536  26.189  26.486  13.328
28244W        W  537   2.943   6.792  11.999
28245W        W  538  13.655  44.765   2.315
28246W        W  539  14.266  32.089   0.930
28247W        W  540  42.295  41.531  11.021
28248W        W  541  20.211  26.140   3.185
28249W        W  542  24.973  11.705   4.315
28250W        W  543   1.827  44.301   0.763
28251W        W  544   6.413   6.333   4.687
28252W        W  545  11.709  27.682  12.398
28253W        W  546  26.094  28.973  11.490
28254W        W  547  39.437  17.709  10.954
28255W        W  548  36.585  23.719  13.444
28256W        W  549  13.217   8.702  12.536
28257W        W  550  27.617  13.636   2.297
28258W        W  551  32.942   4.358  13.519
28259W        W  552  32.499  40.022  14.460
28260W        W  553  16.671   5.318   3.343
28261W        W  554  43.870  36.001  12.847
28262W        W  555  27.595  16.799   4.744
28263W        W  556   0.420  20.563  13.516
28264W        W  557  27.522  18.671  12.403
28265W        W  558  25.119  17.576   2.817
28266W        W  559  24.179  13.624   2.416
28267W        W  560  28.094  43.958   1.697
28268W        W  561  11.830  44.456   0.354
28269W        W  562   9.184   6.845   2.188
28270W        W  563  34.955  34.415   5.245
28271W        W  564  20.756  26.149  14.852
28272W        W  565  41.003  40.312  10.482
28273W        W  566  25.702  29.557  11.902
28274W        W  567  14.620  33.977  13.899
28275W        W  568   5.218   6.883   3.713
28276W        W  569  16.582  16.733  14.350
28277W        W  570  30.600   8.222   3.784
28278W        W  571  22.100  13.201   0.840
28279W        W  572  43.450  18.252   0.753
28280W        W  573  26.157  44.858   2.686
28281W        W  574  42.333  14.179   0.253
28282W        W  575  27.540  33.576  14.932
28283W        W  576  23.067  21.528   4.777
28284W        W  577   0.749  12.139  13.326
28285W        W  578   7.806  33.087   4.700
28286W        W  579  40.027   0.384  12.396
28287W        W  580  15.175  24.594   2.865
28288W        W  581  17.641  25.080   3.681
28289W        W  582  20.606  25.705  10.617
28290W        W  583  21.163   2.837   2.855
28291W        W  584  33.002  19.683  12.576
28292W        W  585  18.598  30.547   2.224
28293W        W  586  20.756  19.632  10.965
28294W        W  587  16.696  42.308   0.874
28295W        W  588  27.181  19.042  11.598
28296W        W  589  22.053  25.697   4.319
28297W        W  590  28.125  44.859   0.440
28298W        W  591  28.653   5.220   3.217
28299W        W  592   4.811   2.956  10.471
28300W        W  593  20.062  23.654   4.773
28301W        W  594  32.521   2.305   1.736
28302W        W  595  42.959   9.285  10.965
28303W        W  596  17.209  24.592   1.784
28304W        W  597  27.625  31.994  14.022
28305W        W  598   3.858  28.518  11.045
28306W        W  599  43.485  21.223  12.927
28307W        W  600   6.228  33.104   4.730
28308W        W  601  12.746  32.480   2.188
28309W        W  602  32.420  28.117   0.338
28310W        W  603  30.004   0.314  13.859
28311W        W  604   4.272  35.444  14.462
28312W        W  605   9.800   0.466   3.853
28313W        W  606  15.778  13.339   4.212
28314W        W  607  39.553  28.163  10.895
28315W        W  608  24.116  25.107  13.441
28316W        W  609   4.823  38.861   4.290
28317W        W  610  34.593  34.380   3.737
28318W        W  611  22.522  40.472   1.850
28319W        W  612   7.181  13.309  12.553
28320W        W  613  11.852  18.768   0.842
28321W        W  614   3.832   7.788   2.229
28322W        W  615  18.705  19.087   2.876
28323W        W  616  33.904  19.251   3.686
28324W        W  617   9.809  39.315  12.035
28325W        W  618  32.052  43.379   2.329
28326W        W  619  30.031  21.208   3.200
28327W        W  620  28.611  37.378   4.130
28328W        W  621   5.326   5.207   4.144
28329W        W  622  10.384  42.949  12.362
28330W        W  623   8.180  33.912  12.382
28331W        W  624  39.002  31.989   0.407
28332W        W  625  23.005  15.269  13.893
28333W        W  626   5.773  18.654  13.791
28334W        W  627  19.039  28.934   0.893
28335W        W  628   7.905  22.626   3.837
28336W        W  629   6.879  24.704  13.311
28337W        W  630  35.500  15.717   4.818
28338W        W  631  41.820  40.374   2.889
28339W        W  632  42.418  32.623  11.992
28340W        W  633  22.522  35.494  13.959
28341W        W  634  24.139  34.519  12.385
28342W        W  635  21.711  30.070  14.437
28343W        W  636  44.286  14.819  12.521
28344W        W  637  24.204  11.297  13.348
28345W        W  638  27.614  26.025  13.977
28346W        W  639  23.225  25.996   1.841
28347W        W  640  28.179  16.605   4.334
28348W        W  641  30.638  19.627  13.545
28349W        W  642  40.465   9.291  10.922
28350W        W  643  39.992  30.989   4.170
28351W        W  644   5.374  23.609  11.009
28352W        W  645  11.142  33.445   1.737
28353W        W  646  37.580   2.469   0.902
28354W        W  647  40.857  18.689   2.801
28355W        W  648  13.244  35.581  14.815
28356W        W  649  14.101   2.730  11.943
28357W        W  650  22.168  32.458  10.640
28358W        W  651  35.886  26.573  13.046
28359W        W  652  15.100  33.621   2.831
28360W        W  653  30.553  20.528   4.134
28361W        W  654  43.362  29.609   0.271
28362W        W  655  39.532   7.384  14.493
28363W        W  656  24.113  20.646   2.892
28364W        W  657   3.293  36.937  11.095
28365W        W  658  10.166  37.010   1.803
28366W        W  659  14.335  38.451   4.241
28367W        W  660  24.104   5.845   1.743
28368W        W  661   9.157  20.032  14.016
28369W        W  662  29.126   9.756  14.294
28370W        W  663  43.778   5.405   3.180
28371W        W  664  36.551  22.737  10.573
28372W        W  665  16.154   6.805   2.191
28373W        W  666  38.512  25.188  11.115
28374W        W  667   7.200  27.089   4.711
28375W        W  668  35.859  18.783  14.396
28376W        W  669  43.300  37.845  11.055
28377W        W  670  25.581   1.353   3.266
28378W        W  671   2.801  21.021   3.706
28379W        W  672  21.571  17.555  10.567
28380W        W  673  30.972  11.868   4.232
28381W        W  674  22.568  43.326  12.014
28382W        W  675  31.451  37.431   4.602
28383W        W  676  13.824  28.437   0.411
28384W        W  677   3.882  11.794   4.223
28385W        W  678  22.586  33.474  14.881
28386W        W  679  27.477  17.677   2.312
28387W        W  680  37.021  34.043  12.827
28388W        W  681  23.492  26.026   2.206
28389W        W  682  27.108  14.751  13.934
28390W        W  683  15.748  29.485   0.953
28391W        W  684  31.971  12.191  13.475
28392W        W  685  42.518   9.715   4.189
28393W        W  686   0.329  28.616  11.020
28394W        W  687  11.671   2.243  11.893
28395W        W  688  30.593  42.477  13.503
28396W        W  689  31.917   2.936  13.349
28397W        W  690  33.047  25.193  13.511
28398W        W  691  23.992  42.443   2.766
28399W        W  692  29.570  22.247   9.446
28400W        W  693   4.380  25.104   3.251
28401W        W  694  44.388  23.501   4.711
28402W        W  695  25.485  34.454   1.416
28403W        W  696  15.698  42.347   0.438
28404W        W  697  11.356  18.741  11.398
28405W        W  698  25.047  36.017   0.405
28406W        W  699  30.446  35.442  11.024
28407W        W  700  36.371  21.718   2.179
28408W        W  701  28.657  32.445   0.757
28409W        W  702  38.371  11.673   4.265
28410W        W  703  14.119  34.898  12.528
28411W        W  704  28.563  24.180   1.892
28412W        W  705   2.811   3.845  11.926
28413W        W  706  13.164  38.555  12.075
28414W        W  707  44.300  32.495   0.462
28415W        W  708  37.069   2.960  12.527
28416W        W  709  22.245   0.263   0.743
28417W        W  710  28.627  40.873  10.508
28418W        W  711   6.804   7.334   3.157
28419W        W  712  37.075  20.211   2.412
28420W        W  713  39.951   8.160  12.909
28421W        W  714  17.783  34.080  13.359
28422W        W  715  43.427  31.065  11.992
28423W        W  716  11.839  44.011   4.698
28424W        W  717   0.382   5.712  11.882
28425W        W  718   0.753   5.274   2.327
28426W        W  719  17.792  24.042  10.072
28427W        W  720  34.869  16.609  12.530
28428W        W  721  31.519  34.575  14.344
28429W        W  722   5.346  10.243   0.863
28430W        W  723   9.782  35.072  13.372
28431W        W  724  13.251  34.969   2.355
28432W        W  725  20.034  12.336  14.963
28433W        W  726  22.725  40.938  13.854
28434W        W  727  39.440   9.793  14.025
28435W        W  728   7.848   3.363  11.996
28436W        W  729  43.834  26.065  11.884
28437W        W  730  15.130  25.025   3.773
28438W        W  731  31.541  33.905   4.347
28439W        W  732   4.835  35.991  10.937
28440W        W  733  28.067  23.201   0.482
28441W        W  734  30.151   0.396  11.049
28442W        W  735  35.536   0.390   4.714
28443W        W  736  42.855   6.288  11.425
28444W        W  737  44.828   2.920  13.340
28445W        W  738  29.651   7.284  13.880
28446W        W  739  14.768  36.959   2.202
28447W        W  740   9.322   0.402  12.449
28448W        W  741  26.205  14.247  12.448
28449W        W  742  17.161   9.659  13.039
28450W        W  743   3.278  43.958   4.700
28451W        W  744  26.057  42.856  14.444
28452W        W  745  10.863  35.481  11.979
28453W        W  746  34.576   7.848   0.425
28454W        W  747  23.723   4.323  12.517
28455W        W  748  20.178  17.797  11.523
28456W        W  749  12.699  41.511  13.518
28457W        W  750   4.388  14.745   4.665
28458W        W  751  19.724  14.298  12.059
28459W        W  752  12.189  24.151  14.949
28460W        W  753  30.531   3.845   3.203
28461W        W  754   1.926   8.862   3.845
28462W        W  755  28.595  16.768   4.831
28463W        W  756  28.120  39.354  14.310
28464W        W  757  37.856  24.716   3.290
28465W        W  758  29.626  17.275  10.158
28466W        W  759   3.259  15.106   1.442
28467W        W  760   5.832   8.239   1.855
28468W        W  761  42.957  27.186  10.534
28469W        W  762   0.435  29.918  12.913
28470W        W  763   3.867   4.854   2.897
28471W        W  764   4.325   8.239  11.380
28472W        W  765  25.530  24.722   3.273
28473W        W  766  42.391   8.884  11.037
28474W        W  767  23.232  28.606  10.968
28475W        W  768  32.121   2.956  12.948
28476W        W  769   1.753  25.712   4.673
28477W        W  770  36.541  38.561   0.411
28478W        W  771  39.890  38.863   1.864
28479W        W  772  24.982  15.757   1.727
28480W        W  773  36.059  42.943   4.699
28481W        W  774  36.393  24.079   3.696
28482W        W  775  25.509  41.337  11.009
28483W        W  776  34.465  15.175  12.889
28484W        W  777  21.660  18.598  11.920
28485W        W  778  39.913   9.186  10.963
28486W        W  779   9.785  29.141   3.650
28487W        W  780  44.984  36.005   4.151
28488W        W  781   1.748  22.529   1.361
28489W        W  782  42.472  36.485   2.865
28490W        W  783  40.538  42.385  10.503
28491W        W  784   3.457  44.342  13.532
28492W        W  785  40.519   1.849  14.930
28493W        W  786  33.497  25.205  12.373
28494W        W  787  44.428  24.526   5.148
28495W        W  788   8.716  16.714  12.829
28496W        W  789  30.102  29.026  12.382
28497W        W  790  18.155  26.129   0.245
28498W        W  791  26.045  39.365  14.790
28499W        W  792  10.676   8.393  13.034
28500W        W  793  21.017  13.806   4.619
28501W        W  794   1.956  13.760  14.340
28502W        W  795  18.164  27.606   0.429
28503W        W  796  43.924  35.602  13.845
28504W        W  797   0.297  24.641   2.747
28505W        W  798  15.223   9.374   3.303
28506W        W  799   5.808  19.258  10.986
28507W        W  800   7.384  15.178   1.235
28508W        W  801   6.892  30.581  11.992
28509W        W  802  10.161   2.452   1.927
28510W        W  803   8.330  40.883  13.836
28511W        W  804   2.306  13.268  14.030
28512W        W  805  44.846   8.217   2.338
28513W        W  806  41.837  12.756   0.337
28514W        W  807  18.192  24.506  11.374
28515W        W  808  10.695  23.218   1.922
28516W        W  809  43.399  19.769   9.646
28517W        W  810  30.531  35.429   3.188
28518W        W  811  34.592  20.592  12.894
28519W        W  812  36.068  13.235  13.355
28520W        W  813   1.356  44.896  11.087
28521W        W  814  37.434  13.740  11.019
28522W        W  815  23.016  34.484   0.330
28523W        W  816  10.742  30.915   2.796
28524W        W  817  17.136  39.985  11.922
28525W        W  818   6.836  36.895  12.042
28526W        W  819  16.129  19.275   2.349
28527W        W  820   3.822  12.718  14.279
28528W        W  821  11.257   6.818  12.552
28529W        W  822  24.990   8.342  14.968
28530W        W  823  38.409  41.850  12.985
28531W        W  824  24.999  21.183  13.342
28532W        W  825  17.258  21.561  10.958
28533W        W  826  38.449  14.289   4.671
28534W        W  827  36.475  43.928  12.484
28535W        W  828   1.748   1.294  10.903
28536W        W  829  25.701  24.503  11.956
28537W        W  830  17.716   9.217   4.209
28538W        W  831  44.000   0.392   3.357
28539W        W  832   9.867   8.763  12.357
28540W        W  833  41.006  27.054   3.789
28541W        W  834  23.008   2.264   9.955
28542W        W  835  26.485  22.654   4.722
28543W        W  836  32.021   4.371  10.578
28544W        W  837  28.647  29.570   1.330
28545W        W  838  34.486  21.062  14.351
28546W        W  839  19.666   8.313   1.727
28547W        W  840  34.457  31.144  11.062
28548W        W  841  31.999  23.709  13.963
28549W        W  842  16.738  17.596   2.681
28550W        W  843  17.603   0.858  13.317
28551W        W  844  44.992  10.864   3.757
28552W        W  845  26.165  10.259   1.756
28553W        W  846  13.737  28.079  10.411
28554W        W  847   5.848  33.529  12.955
28555W        W  848  39.878  44.939   1.253
28556W        W  849  21.112  27.981  10.891
28557W        W  850  17.254  32.528  13.397
28558W        W  851  22.134  18.162  11.566
28559W        W  852  27.507  42.419  14.938
28560W        W  853  16.164  23.163  14.486
28561W        W  854  17.555  12.756  11.116
28562W        W  855  10.353  28.570  11.564
28563W        W  856   2.289   6.844  14.860
28564W        W  857  13.233  15.815   3.683
28565W        W  858  37.507   2.736  14.857
28566W        W  859   2.859   1.936  12.091
28567W        W  860  10.239   3.267   4.798
28568W        W  861  15.640  28.583   4.193
28569W        W  862  27.463   8.843   1.727
28570W        W  863  39.487  36.547  13.912
28571W        W  864   3.254  37.411  11.412
28572W        W  865  43.310  14.280   4.820
28573W        W  866   5.375   7.810  13.312
28574W        W  867   7.351   5.195   2.770
28575W        W  868  35.366  17.064   4.609
28576W        W  869  44.287  38.907   0.783
28577W        W  870  11.768  17.175   1.705
28578W        W  871  11.200  39.884  12.897
28579W        W  872  22.519  16.787  12.982
28580W        W  873  10.145  28.967   3.789
28581W        W  874  32.911  16.661   2.204
28582W        W  875   4.437  22.998   3.347
28583W        W  876   5.263  11.844   0.342
28584W        W  877  42.400  29.634   2.230
28585W        W  878  22.194  37.945   3.713
28586W        W  879   5.224  29.500   1.905
28587W        W  880   1.976  30.532  10.412
28588W        W  881  34.046   1.254  11.984
28589W        W  882  41.293   1.866  13.023
28590W        W  883  28.997  26.085   2.699
28591W        W  884  12.703   8.390  10.431
28592W        W  885  14.105  11.735   0.266
28593W        W  886  31.517  20.139  10.998
28594W        W  887   9.309  33.508  11.048
28595W        W  888   5.256  24.489  13.512
28596W        W  889  38.979  23.555   0.893
28597W        W  890  13.271  27.642  12.970
28598W        W  891  35.031  39.003  12.433
28599W        W  892  13.281   3.275   0.925
28600W        W  893   7.893  27.187   0.393
28601W        W  894   1.794  20.198   3.190
28602W        W  895   3.357   4.296  10.154
28603W        W  896  37.490  23.179   0.808
28604W        W  897  44.313  29.535   2.879
28605W        W  898  36.880  39.834  10.598
28606W        W  899  43.004  33.943  10.117
28607W        W  900  36.388  13.646   4.634
28608W        W  901  14.162  37.968   2.859
28609W        W  902  29.653  12.797  13.380
28610W        W  903   1.765  29.153   4.337
28611W        W  904   5.877   5.897  10.488
28612W        W  905  13.630  43.972   3.334
28613W        W  906  11.703  29.613   1.817
28614W        W  907  40.968  28.623  12.034
28615W        W  908  38.536  24.567  10.535
28616W        W  909  40.405   5.801  11.422
28617W        W  910   1.481  14.690   2.275
28618W        W  911   6.678   2.750   0.729
28619W        W  912  42.895  27.648  12.925
28620W        W  913  18.781  19.039  10.466
28621W        W  914  22.109  25.087  10.899
28622W        W  915  35.013  44.266  11.384
28623W        W  916  30.648  28.065   1.375
28624W        W  917  11.704  34.548  14.005
28625W        W  918  37.340   2.278   5.210
28626W        W  919  26.680  28.641   1.766
28627W        W  920  12.764  30.963   4.822
28628W        W  921   0.760   1.850   1.883
28629W        W  922  40.375  13.199   1.812
28630W        W  923   3.452  17.228   0.776
28631W        W  924   9.829  41.387  12.940
28632W        W  925  19.243  28.539   3.180
28633W        W  926  21.045  30.586  13.992
28634W        W  927   7.278  20.588   1.919
28635W        W  928   9.657  34.914   1.353
28636W        W  929  35.065   1.394   4.668
28637W        W  930  25.076  32.042  11.461
28638W        W  931  12.303  15.121  10.429
28639W        W  932  33.899  21.105   0.728
28640W        W  933  35.870   9.857   0.437
28641W        W  934  40.346  43.898  13.514
28642W        W  935   4.835  44.262  14.396
28643W        W  936  44.353  16.630   0.274
28644W        W  937  24.048  28.486  14.771
28645W        W  938  25.706  43.810   4.211
28646W        W  939  10.776  23.677  13.434
28647W        W  940   1.392   0.924  14.892
28648W        W  941  20.651   9.759   0.409
28649W        W  942   8.348  33.570   4.176
28650W        W  943   4.349   3.436   5.191
28651W        W  944  26.196  16.734   2.257
28652W        W  945  31.995  40.330  10.572
28653W        W  946  15.747  10.262  12.095
28654W        W  947   7.686  34.005   9.582
28655W        W  948  26.625  28.094  13.456
28656W        W  949  29.920  23.192   4.654
28657W        W  950   2.795  17.098  11.560
28658W        W  951  42.791   9.278   4.624
28659W        W  952  25.044  24.605  12.395
28660W        W  953  35.973  15.732   1.328
28661W        W  954  19.599  21.692   2.237
28662W        W  955  11.825  10.155  13.871
28663W        W  956  38.528   1.898  12.000
28664W        W  957  11.259  23.136  10.608
28665W        W  958   7.845   9.352   0.884
28666W        W  959  11.786  26.958  11.443
28667W        W  960  22.006  31.508  12.554
28668W        W  961  24.571   6.197  11.569
28669W        W  962  33.975  28.623   1.369
28670W        W  963  27.946  26.024   3.297
28671W        W  964  22.040  16.112   0.729
28672W        W  965  39.995  35.891  13.494
28673W        W  966   4.943  23.994  13.963
28674W        W  967  39.817   1.841  13.324
28675W        W  968  33.583  26.566  13.454
28676W        W  969  22.047  13.733  13.447
28677W        W  970   6.413  13.177   1.704
28678W        W  971  40.473  44.434   2.381
28679W        W  972  39.006   7.395   0.377
28680W        W  973  20.671  10.705  14.429
28681W        W  974  44.426  35.048   2.272
28682W        W  975  38.564  18.604  10.405
28683W        W  976  41.987  13.657  10.505
28684W        W  977  33.090  12.840  13.411
28685W        W  978  12.700  22.055  10.612
28686W        W  979  44.833   7.884   2.895
28687W        W  980  30.621  14.645   1.359
28688W        W  981  35.966  13.220   2.897
28689W        W  982  27.117  33.528   4.810
28690W        W  983  30.064  11.242  14.897
28691W        W  984  30.985   8.723  14.819
28692W        W  985  40.007  44.006   2.751
28693W        W  986  12.841  38.917   1.733
28694W        W  987  43.369  44.001   3.739
28695W        W  988  10.265  11.162  12.039
28696W        W  989  14.822  10.663   2.318
28697W        W  990  29.114  19.701   1.788
28698W        W  991  38.020  36.967  10.990
28699W        W  992  33.072  39.974  10.462
28700W        W  993  39.471  38.460  10.440
28701W        W  994  25.100  15.763   3.763
28702W        W  995  33.568   2.893  10.458
28703W        W  996   8.761  44.312  14.011
28704W        W  997  40.911  29.919   0.427
28705W        W  998  13.716   0.959  10.502
28706W        W  999  17.593  20.164   3.271
28707W        W 1000  28.498  44.823   3.252
28708W        W 1001  14.735  18.738   1.810
28709W        W 1002  39.921  18.129   1.787
28710W        W 1003  12.338  12.732   1.871
28711W        W 1004  39.993  38.928   4.178
28712W        W 1005   2.761  36.357   4.827
28713W        W 1006  40.050  28.067  10.610
28714W        W 1007   5.221  14.712   3.769
28715W        W 1008  19.264  20.631  12.893
28716W        W 1009   8.800  24.160   5.143
28717W        W 1010  21.525   6.767  10.630
28718W        W 1011  10.269  18.681   3.380
28719W        W 1012  26.010  35.853   0.308
28720W        W 1013  40.419  14.233   2.210
28721W        W 1014  10.361  41.950   3.665
28722W        W 1015  26.142  33.069  12.532
28723W        W 1016   7.708   0.446  12.573
28724W        W 1017   0.270  41.015   0.335
28725W        W 1018   3.711  30.955   2.333
28726W        W 1019   0.460  15.136   4.765
28727W        W 1020  42.406  42.466  14.890
28728W        W 1021  37.506  43.500  10.938
28729W        W 1022  17.691  30.439  11.935
28730W        W 1023  26.063  25.975   0.905
28731W        W 1024  36.469   0.793  11.527
28732W        W 1025  12.657  34.047   4.188
28733W        W 1026  42.523  44.491  10.031
28734W        W 1027  39.904  28.994   2.701
28735W        W 1028  36.587   4.722  11.373
28736W        W 1029  41.416  28.606  11.520
28737W        W 1030  25.070   8.722   2.201
28738W        W 1031  25.709  10.651   1.718
28739W        W 1032  12.319  23.558  11.438
28740W        W 1033  15.099   7.811   4.116
28741W        W 1034  22.193  15.586  14.839
28742W        W 1035  16.594  17.738   0.305
28743W        W 1036  41.813  34.999   2.857
28744W        W 1037  29.600  38.046   4.271
28745W        W 1038  41.314  24.170  11.886
28746W        W 1039  34.408  20.242   2.374
28747W        W 1040  40.405  11.769  11.913
28748W        W 1041  18.257  10.680  11.025
28749W        W 1042  23.231   5.263   3.364
28750W        W 1043  42.904   5.741   0.295
28751W        W 1044  39.828  17.726  14.478
28752W        W 1045   6.807  30.602   2.327
28753W        W 1046   6.274  21.100   3.238
28754W        W 1047  12.663  36.952   1.711
28755W        W 1048  44.802  13.731  12.564
28756W        W 1049  21.154  37.424   4.798
28757W        W 1050  34.484  25.169  12.084
28758W        W 1051  44.873  20.168   0.258
28759W        W 1052  26.511   2.376  11.528
28760W        W 1053  17.642  44.263   4.124
28761W        W 1054  19.739  21.581  14.914
28762W        W 1055  30.648  40.541   1.327
28763W        W 1056  26.493  15.627   5.302
28764W        W 1057   3.785  31.514  13.825
28765W        W 1058  35.542  11.252   1.790
28766W        W 1059  36.087  15.792  12.896
28767W        W 1060  21.605  11.333  11.487
28768W        W 1061  11.837   8.672  10.131
28769W        W 1062  12.814   0.268   1.416
28770W        W 1063  19.631  33.565   5.620
28771W        W 1064  32.014  28.056  14.000
28772W        W 1065  18.776  12.234  10.549
28773W        W 1066   1.276  29.983   4.752
28774W        W 1067  33.113  29.651   3.759
28775W        W 1068  15.276  39.478   4.349
28776W        W 1069  10.356  33.116  10.981
28777W        W 1070  36.540  15.644   3.823
28778W        W 1071  12.172  35.092   1.836
28779W        W 1072  14.816   7.273   4.318
28780W        W 1073  10.363  29.520   4.268
28781W        W 1074   8.696  10.195   1.926
28782W        W 1075   1.877  24.622   1.368
28783W        W 1076   9.307  12.834   2.349
28784W        W 1077  38.501   2.949   2.397
28785W        W 1078   3.800  44.869  12.474
28786W        W 1079  41.850   5.719  10.565
28787W        W 1080  25.077  20.666  11.084
28788W        W 1081  13.232  25.111   2.351
28789W        W 1082  23.233  27.993   4.702
28790W        W 1083  13.721  34.574  10.939
28791W        W 1084  39.013  35.093  11.046
28792W        W 1085  32.511  27.475  14.907
28793W        W 1086  29.960  25.545   1.730
28794W        W 1087  27.503  31.901   1.786
28795W        W 1088  33.038   8.801   0.322
28796W        W 1089  31.531  12.128  10.529
28797W        W 1090   7.307   4.907  14.870
28798W        W 1091   4.340  43.857   3.375
28799W        W 1092  31.085  29.073  11.556
28800W        W 1093  39.557  19.583  11.386
28801W        W 1094  33.107  31.087  10.926
28802W        W 1095  43.473   6.724  10.424
28803W        W 1096  34.950  21.619  12.861
28804W        W 1097  40.800  44.447  12.393
28805W        W 1098   1.338  19.621   2.760
28806W        W 1099   9.155  21.600   2.680
28807W        W 1100  35.417  12.148   2.337
28808W        W 1101  25.538  15.816  14.002
28809W        W 1102   3.455   2.837   1.280
28810W        W 1103   3.219  11.720  14.020
28811W        W 1104   7.307  41.955  12.952
28812W        W 1105  14.103   9.691   4.648
28813W        W 1106  26.469  38.406   0.761
28814W        W 1107   4.338   3.456   1.715
28815W        W 1108  34.963  11.279   0.794
28816W        W 1109  44.813  14.832  14.426
28817W        W 1110   1.467  43.299   4.155
28818W        W 1111  33.570  30.134   0.479
28819W        W 1112  37.498  16.592   0.805
28820W        W 1113  23.994  26.563  14.900
28821W        W 1114  20.543  14.799  14.770
28822W        W 1115  12.815  29.595   4.242
28823W        W 1116   7.779  30.570   3.159
28824W        W 1117  38.543  44.989   1.773
28825W        W 1118  20.209  11.828   4.153
28826W        W 1119   7.382  21.693  12.529
28827W        W 1120  32.432  19.285   1.241
28828W        W 1121  38.462  27.568  10.982
28829W        W 1122  44.761  41.808   4.725
28830W        W 1123  44.348  36.375  14.793
28831W        W 1124  23.707   3.298  12.969
28832W        W 1125   4.231  33.621  12.022
28833W        W 1126  37.895  18.748   3.662
28834W        W 1127  39.497  23.689   2.399
28835W        W 1128  44.314  40.798  11.538
28836W        W 1129   8.402  35.976  12.569
28837W        W 1130  39.383  21.745   3.165
28838W        W 1131  19.169   3.459   0.834
28839W        W 1132  41.887   1.831  11.419
28840W        W 1133  39.969  15.104   0.255
28841W        W 1134   8.281   7.691   3.786
28842W        W 1135  41.825  26.550   1.341
28843W        W 1136   1.416  21.519  12.512
28844W        W 1137  24.120  28.179   3.146
28845W        W 1138   2.271  37.977   2.408
28846W        W 1139  15.731  14.730  11.571
28847W        W 1140  41.963  35.950   9.932
28848W        W 1141  37.494  28.128  13.942
28849W        W 1142  43.852  13.656  10.903
28850W        W 1143   6.382  31.144   3.812
28851W        W 1144  37.866  27.066  12.851
28852W        W 1145   8.220  42.354  11.925
28853W        W 1146   1.781  34.520   0.289
28854W        W 1147   2.354  42.473   2.232
28855W        W 1148  42.371  20.592   4.713
28856W        W 1149  18.285  36.404  12.086
28857W        W 1150  34.010  25.043  10.944
28858W        W 1151   1.966  24.138   2.240
28859W        W 1152  30.112  20.043  11.394
28860W        W 1153  14.216  33.074   4.626
28861W        W 1154  32.581  13.200   2.686
28862W        W 1155  11.651  44.849  12.467
28863W        W 1156  16.598   7.841  10.979
28864W        W 1157  19.158   0.805  11.477
28865W        W 1158  15.186  36.909   0.426
28866W        W 1159  31.941  35.106   5.248
28867W        W 1160  13.303  16.146  12.978
28868W        W 1161  16.808  13.184   4.644
28869W        W 1162   1.797  34.103  13.365
28870W        W 1163  25.658  33.958  10.530
28871W        W 1164  28.052   6.791  11.551
28872W        W 1165  22.236  38.892  12.519
28873W        W 1166  11.829  38.022  12.909
28874W        W 1167  29.923   2.731   3.863
28875W        W 1168   6.688  33.533   0.832
28876W        W 1169  34.450  43.278   1.749
28877W        W 1170   6.275   6.756   4.198
28878W        W 1171  20.041  39.552   3.211
28879W        W 1172  43.482  24.483   0.253
28880W        W 1173  38.911  41.929  12.580
28881W        W 1174  24.182  28.978  12.575
28882W        W 1175  40.842  39.327  10.610
28883W        W 1176   1.248  38.828  14.358
28884W        W 1177  12.842  10.325   3.736
28885W        W 1178  29.949  39.350  12.546
28886W        W 1179  35.896  16.685   1.295
28887W        W 1180  11.822  26.167  14.016
28888W        W 1181  39.547   2.778  13.354
28889W        W 1182  34.517  14.161  13.799
28890W        W 1183  28.181  31.018  12.057
28891W        W 1184  25.614  20.687   3.746
28892W        W 1185  36.563   5.345   2.211
28893W        W 1186  25.013  21.586  12.080
28894W        W 1187  38.874  25.557   4.796
28895W        W 1188   7.759  15.694   3.723
28896W        W 1189  24.177  24.575   0.462
28897W        W 1190  19.685  15.208   3.306
28898W        W 1191   9.729   3.937  13.339
28899W        W 1192  31.420  43.353   2.817
28900W        W 1193  18.647  43.272  13.003
28901W        W 1194  27.037  17.153  14.031
28902W        W 1195  39.350  41.402   0.748
28903W        W 1196  37.909   4.386  14.978
28904W        W 1197   6.247  15.163   2.786
28905W        W 1198  41.008  43.879   0.932
28906W        W 1199  27.479  37.509  12.064
28907W        W 1200  15.144  42.391  10.513
28908W        W 1201  25.665  30.429   5.089
28909W        W 1202  20.564  19.706  14.988
28910W        W 1203  30.631   4.848  10.541
28911W        W 1204   9.197  30.490  14.469
28912W        W 1205  11.336  33.483   3.651
28913W        W 1206  37.892  22.568  12.995
28914W        W 1207  15.223  34.423   2.388
28915W        W 1208   4.364   7.208  11.592
28916W        W 1209  39.407  32.104   1.425
28917W        W 1210  13.701  26.100   1.798
28918W        W 1211  10.247   7.894  13.411
28919W        W 1212   1.914  20.648   2.415
28920W        W 1213  43.361  10.264   0.306
28921W        W 1214  12.125  16.620   3.175
28922W        W 1215  33.382  14.280   3.867
28923W        W 1216   2.346   1.268  14.338
28924W        W 1217  15.314  22.598   3.661
28925W        W 1218   2.372  30.607   1.323
28926W        W 1219  21.695   6.248   2.708
28927W        W 1220  25.200  14.118   3.216
28928W        W 1221  17.121  21.247   3.865
28929W        W 1222   6.907  11.700   3.177
28930W        W 1223  24.176  39.952  11.468
28931W        W 1224  33.452   5.886   0.783
28932W        W 1225  28.492  21.755   3.281
28933W        W 1226   1.260  37.514  10.529
28934W        W 1227   9.831  18.254  10.580
28935W        W 1228  22.188   5.220   3.267
28936W        W 1229   7.845  17.225  12.496
28937W        W 1230  33.603  21.639  12.985
28938W        W 1231   1.317  32.490  10.634
28939W        W 1232   8.707  20.126   3.800
28940W        W 1233  30.523  37.054  12.085
28941W        W 1234  42.355  28.086   2.844
28942W        W 1235  41.027  43.274   0.918
28943W        W 1236  17.231  23.512   1.264
28944W        W 1237  36.389  36.886   0.253
28945W        W 1238  13.616   8.655   2.755
28946W        W 1239   8.830  21.578   2.711
28947W        W 1240  13.753  17.233  10.508
28948W        W 1241   5.762  29.108  14.867
28949W        W 1242  40.455  14.320  14.791
28950W        W 1243  15.298  15.284  14.849
28951W        W 1244  22.595  12.197  12.895
28952W        W 1245  29.627  38.510  14.998
28953W        W 1246   9.764   1.737   1.286
28954W        W 1247  15.258  27.616  12.995
28955W        W 1248  26.087  42.347  11.508
28956W        W 1249  14.297  21.688   0.458
28957W        W 1250  11.743  27.978   2.711
28958W        W 1251  34.882  24.006   4.348
28959W        W 1252  28.608  35.482   3.190
28960W        W 1253   5.856  10.357  12.414
28961W        W 1254  13.281  39.396   4.258
28962W        W 1255  43.831  32.598  14.290
28963W        W 1256  38.997   0.460   0.460
28964W        W 1257  25.707  34.536   2.222
28965W        W 1258  30.420  14.757  14.507
28966W        W 1259  27.577  36.400  10.623
28967W        W 1260  28.648  11.864  12.917
28968W        W 1261  19.675  31.108   1.221
28969W        W 1262  32.035   6.420   1.379
28970W        W 1263  26.536   5.872  13.809
28971W        W 1264  39.852  34.066  13.887
28972W        W 1265  41.499  14.275  12.959
28973W        W 1266  11.231   9.679  14.026
28974W        W 1267  16.774  19.242  13.473
28975W        W 1268  11.627  19.544  14.308
28976W        W 1269  16.182  44.309   3.239
28977W        W 1270  12.207   2.905  12.383
28978W        W 1271   3.881  39.032  13.340
28979W        W 1272   5.393  26.567   2.792
28980W        W 1273  21.566  18.765  12.901
28981W        W 1274  27.468  20.167  11.383
28982W        W 1275  44.485  39.387   1.264
28983W        W 1276  16.720  37.006  12.829
28984W        W 1277  43.901  16.242  11.952
28985W        W 1278  43.352  20.260  13.497
28986W        W 1279   5.378  17.184   0.809
28987W        W 1280  42.310  12.352  14.841
28988W        W 1281  19.724  18.254   4.762
28989W        W 1282   4.740  16.114   1.418
28990W        W 1283   8.704   2.723  13.411
28991W        W 1284  12.627  31.029  10.479
28992W        W 1285   7.264  32.507  10.958
28993W        W 1286   0.381   6.755  14.293
28994W        W 1287  13.807  14.158  14.945
28995W        W 1288  42.403  26.510   5.111
28996W        W 1289  10.251  24.576   1.355
28997W        W 1290  10.285   2.445  11.127
28998W        W 1291  29.091  36.467   0.434
28999W        W 1292  18.655  32.404   2.745
29000W        W 1293  23.648  36.406  13.902
29001W        W 1294  13.745  32.042   1.353
29002W        W 1295   6.878   5.765   2.690
29003W        W 1296  23.516   2.921  10.636
29004W        W 1297  41.405  32.631  11.094
29005W        W 1298  26.550  19.094  10.967
29006W        W 1299   1.928  14.341   3.328
29007W        W 1300  13.129  18.657  14.863
29008W        W 1301   7.390  23.727   0.730
29009W        W 1302  42.507  28.651  12.890
29010W        W 1303   2.242   3.286   2.325
29011W        W 1304  18.163  10.278  14.834
29012W        W 1305   5.382  31.978   0.881
29013W        W 1306  30.562  29.480  10.505
29014W        W 1307  19.261  28.042  11.612
29015W        W 1308  37.518   9.857  12.092
29016W        W 1309   1.739  35.878  12.375
29017W        W 1310  12.645  33.521  12.925
29018W        W 1311  33.586  16.307   3.209
29019W        W 1312  28.647  39.523  10.450
29020W        W 1313  20.188  35.047   2.236
29021W        W 1314  43.439  24.170  12.543
29022W        W 1315  33.930  32.479   0.453
29023W        W 1316  10.752   4.738   1.756
29024W        W 1317   1.839  32.926  12.867
29025W        W 1318  27.021   1.241  14.787
29026W        W 1319   3.764  42.391   2.714
29027W        W 1320  27.106  29.962  11.069
29028W        W 1321  22.612  42.353  10.447
29029W        W 1322  22.094  29.553  11.010
29030W        W 1323  28.622  37.574  14.827
29031W        W 1324   0.350  19.174   2.351
29032W        W 1325  26.097  17.798   1.740
29033W        W 1326  11.342  37.865   3.651
29034W        W 1327  20.160  37.862  14.330
29035W        W 1328  27.038  25.637   0.464
29036W        W 1329  19.567  32.458  10.601
29037W        W 1330  24.010  14.142  13.947
29038W        W 1331  21.655  37.026  10.570
29039W        W 1332  40.334  30.577   3.790
29040W        W 1333  33.064   2.769  14.458
29041W        W 1334   1.786  43.871   0.931
29042W        W 1335  36.890  29.549   2.859
29043W        W 1336   9.292  12.357  10.514
29044W        W 1337  31.152  19.691  10.555
29045W        W 1338   2.781   1.943   3.288
29046W        W 1339  26.972  39.895  13.974
29047W        W 1340  34.524   3.388  14.803
29048W        W 1341  38.359   5.701   3.299
29049W        W 1342  17.092   6.721  13.801
29050W        W 1343   3.366  42.015   3.642
29051W        W 1344   9.227  22.656  11.031
29052W        W 1345  17.659   9.353  12.963
29053W        W 1346  17.226  18.736  12.359
29054W        W 1347  36.415  19.591  14.803
29055W        W 1348  32.094  17.634   0.406
29056W        W 1349  27.643  28.054   1.421
29057W        W 1350  12.641  19.554   1.437
29058W        W 1351  32.527  11.755   1.824
29059W        W 1352  44.299  35.359   2.281
29060W        W 1353  19.602  38.536   2.396
29061W        W 1354  40.381  36.013   2.673
29062W        W 1355  20.530  35.564  12.519
29063W        W 1356  29.482   4.787   2.201
29064W        W 1357  30.029   6.378   0.858
29065W        W 1358  14.229  25.109  12.069
29066W        W 1359  27.153  35.520  14.931
29067W        W 1360  23.230  39.054  13.998
29068W        W 1361  11.254  36.505   4.206
29069W        W 1362  40.509  28.671  14.917
29070W        W 1363   1.903  24.124  10.438
29071W        W 1364  44.324  16.722   4.644
29072W        W 1365  30.516  38.559  12.891
29073W        W 1366  29.059  27.658  10.602
29074W        W 1367  17.246   3.720  11.003
29075W        W 1368   1.287  30.041  12.362
29076W        W 1369  22.590   7.865   0.290
29077W        W 1370  10.751  43.366   1.287
29078W        W 1371   5.437   1.238   4.707
29079W        W 1372  23.716   2.462   5.160
29080W        W 1373  11.269   3.368  14.887
29081W        W 1374  16.700   4.277   1.871
29082W        W 1375  14.709  40.482  13.499
29083W        W 1376   4.236  33.430   4.775
29084W        W 1377   0.446  25.538   2.341
29085W        W 1378  24.632  36.541   3.304
29086W        W 1379  12.782  27.022   0.333
29087W        W 1380  35.471  33.421  14.408
29088W        W 1381  30.105  35.559  10.452
29089W        W 1382  18.066   6.711  13.320
29090W        W 1383   3.834  38.050  10.945
29091W        W 1384  28.030  10.149   1.703
29092W        W 1385  17.579  23.663  11.972
29093W        W 1386  19.158   0.324  12.425
29094W        W 1387   0.277  23.136   0.964
29095W        W 1388  39.869  31.405   0.339
29096W        W 1389  43.840  27.487   1.348
29097W        W 1390  40.834  21.669   2.760
29098W        W 1391   8.661   9.233  12.436
29099W        W 1392  12.723  30.472  12.870
29100W        W 1393  30.529  23.097   3.731
29101W        W 1394  15.695  21.687  13.990
29102W        W 1395  43.838  35.060  12.444
29103W        W 1396   8.717  31.988  11.418
29104W        W 1397  34.928  33.028  14.465
29105W        W 1398  11.724  15.297   3.185
29106W        W 1399  27.635   2.344  12.846
29107W        W 1400  38.548  37.966   4.308
29108W        W 1401  42.511   4.438  10.492
29109W        W 1402  40.817  30.050  14.877
29110W        W 1403  37.575   3.434  14.409
29111W        W 1404  34.075  22.658  12.558
29112W        W 1405  41.811   0.860   4.272
29113W        W 1406  23.630  41.490   1.316
29114W        W 1407   8.723  37.064  14.820
29115W        W 1408   7.727  33.474   4.224
29116W        W 1409  19.238  17.249  11.883
29117W        W 1410   1.393   7.830   2.690
29118W        W 1411  29.634   9.756  14.975
29119W        W 1412  31.607  43.895  11.476
29120W        W 1413   5.745  11.846   1.879
29121W        W 1414  11.712  23.189   4.628
29122W        W 1415   3.761   8.287   3.664
29123W        W 1416  11.866  19.211   1.317
29124W        W 1417  24.115  44.853  12.494
29125W        W 1418   8.821  37.345   1.865
29126W        W 1419  37.924   8.225   2.678
29127W        W 1420   9.757  22.049   0.268
29128W        W 1421  10.171  16.195   3.634
29129W        W 1422   0.891  30.158   4.285
29130W        W 1423  34.587  35.600  11.127
29131W        W 1424  12.288  44.927  12.527
29132W        W 1425   9.794  19.143  12.467
29133W        W 1426   9.759  10.150   0.844
29134W        W 1427   5.332  29.656  12.010
29135W        W 1428  41.859  23.996  11.590
29136W        W 1429  43.874  38.500  10.914
29137W        W 1430  32.043   2.420   3.248
29138W        W 1431   5.377  39.352   3.765
29139W        W 1432   7.223  31.440  12.513
29140W        W 1433  25.003  30.466  12.851
29141W        W 1434  24.065  44.497  11.610
29142W        W 1435  21.639  22.524  14.789
29143W        W 1436  15.692  26.137   2.747
29144W        W 1437  18.277  13.227  14.324
29145W        W 1438  38.449  20.130  10.988
29146W        W 1439  14.301  13.342  13.911
29147W        W 1440  24.694  23.042  10.899
29148W        W 1441  44.826   9.680   4.670
29149W        W 1442  29.033  35.524  14.925
29150W        W 1443  22.996  18.718   4.831
29151W        W 1444  33.088  11.756  10.598
29152W        W 1445   1.863  32.502  12.522
29153W        W 1446   5.336  40.879   0.787
29154W        W 1447   7.744   0.892   0.263
29155W        W 1448  24.033  30.589   5.200
29156W        W 1449  18.154   9.360   0.376
29157W        W 1450  32.974  36.590   1.720
29158W        W 1451  20.675   4.910   3.726
29159W        W 1452  14.269  10.782  12.433
29160W        W 1453  15.139   2.403  14.842
29161W        W 1454  36.945  38.904   3.695
29162W        W 1455   4.887  31.087   4.334
29163W        W 1456  38.868  39.985  12.503
29164W        W 1457   5.722  25.171  10.632
29165W        W 1458  32.422  31.136  14.431
29166W        W 1459   3.740  18.102   0.412
29167W        W 1460  12.227   0.860  12.479
29168W        W 1461  20.698  38.470  14.306
29169W        W 1462  44.765  33.620  11.541
29170W        W 1463   9.371  14.768   1.328
29171W        W 1464   9.740  10.691   3.192
29172W        W 1465  14.166  10.808   1.833
29173W        W 1466  23.591   1.973  12.842
29174W        W 1467  44.308  24.114  14.877
29175W        W 1468  30.114  15.137  13.530
29176W        W 1469  41.012  11.167   1.911
29177W        W 1470  25.189  26.695  10.936
29178W        W 1471  13.336  41.829  11.940
29179W        W 1472  34.928  18.070  10.601
29180W        W 1473  11.204  27.063   0.951
29181W        W 1474  42.793  28.121  14.983
29182W        W 1475  32.631  25.522  14.974
29183W        W 1476  35.596  13.772  13.962
29184W        W 1477  42.007   2.328   3.212
29185W        W 1478  42.347  36.934   3.367
29186W        W 1479  16.719  19.651   2.385
29187W        W 1480  13.206  31.123   3.790
29188W        W 1481  21.221  20.106  11.560
29189W        W 1482  38.324  17.182  12.043
29190W        W 1483  24.063   6.853  12.541
29191W        W 1484  18.714  43.907  11.891
29192W        W 1485  42.468  28.516   1.814
29193W        W 1486   3.723   2.754  14.008
29194W        W 1487  30.438   6.843   1.305
29195W        W 1488  26.986   7.313   1.367
29196W        W 1489  22.200   2.954  11.527
29197W        W 1490   3.417  36.402   3.805
29198W        W 1491  41.824  41.865  14.481
29199W        W 1492  27.989  38.348   2.685
29200W        W 1493  44.803  28.072   0.411
29201W        W 1494  22.007  38.386  12.825
29202W        W 1495  37.382  42.477   0.754
29203W        W 1496   7.179  35.048   4.613
29204W        W 1497   2.965  30.544   0.795
29205W        W 1498  31.112  11.239   0.937
29206W        W 1499  12.176  19.548  11.972
29207W        W 1500   0.973  36.849   2.188
29208W        W 1501  13.639  43.514  11.423
29209W        W 1502  37.013  31.529   0.842
29210W        W 1503  26.090  41.022  10.987
29211W        W 1504   1.438  11.746   4.241
29212W        W 1505  17.283  13.697  11.604
29213W        W 1506  13.288  25.052  10.075
29214W        W 1507  42.885  21.181   5.095
29215W        W 1508  44.757   3.935  12.480
29216W        W 1509  41.517  42.412   3.848
29217W        W 1510  39.011  36.418   2.672
29218W        W 1511  39.981  31.445   1.749
29219W        W 1512   6.800  31.143  12.926
29220W        W 1513  39.359  20.142  14.789
29221W        W 1514  31.635  37.038   3.370
29222W        W 1515  27.083  10.373   2.869
29223W        W 1516  41.808  34.573   1.736
29224W        W 1517  19.074  35.093   3.316
29225W        W 1518   8.705   2.955   4.647
29226W        W 1519  24.142  27.050  13.909
29227W        W 1520  30.541  20.542  10.606
29228W        W 1521  37.511  17.712  10.899
29229W        W 1522   4.280  33.881   3.275
29230W        W 1523   2.372   9.359  13.828
29231W        W 1524  22.671   2.945   3.850
29232W        W 1525  22.746  43.853   9.968
29233W        W 1526  37.936  28.009  10.077
29234W        W 1527  10.215  23.501   1.885
29235W        W 1528  20.104  17.605  12.530
29236W        W 1529   1.450   1.944  12.443
29237W        W 1530  24.163  23.040   3.859
29238W        W 1531  37.572  19.042  12.464
29239W        W 1532   4.809   8.352  11.400
29240W        W 1533  35.058   8.204   1.749
29241W        W 1534  40.330  43.430   0.317
29242W        W 1535  36.515  29.145  13.935
29243W        W 1536  41.019  36.052   0.244
29244W        W 1537  40.320  20.712  12.368
29245W        W 1538  15.818  11.717  10.039
29246W        W 1539  12.182  26.197  12.010
29247W        W 1540  13.781  30.575  14.988
29248W        W 1541  29.503   7.309  11.470
29249W        W 1542  14.749  34.402   0.836
29250W        W 1543  24.133  39.411   0.376
29251W        W 1544   0.279   8.791   3.183
29252W        W 1545   4.250  20.694  10.497
29253W        W 1546  20.539   6.730  14.809
29254W        W 1547   9.663  23.709   3.212
29255W        W 1548  33.462  23.170  14.802
29256W        W 1549  20.643  11.196   0.778
29257W        W 1550  25.661   3.924  11.996
29258W        W 1551  32.476  18.769  14.790
29259W        W 1552   7.692  44.986  13.458
29260W        W 1553  31.491  44.767  14.934
29261W        W 1554   5.821  13.331   2.888
29262W        W 1555   2.329  30.615  11.563
29263W        W 1556  39.359  12.333   0.749
29264W        W 1557   8.811   1.411   1.860
29265W        W 1558  24.114  37.014  14.021
29266W        W 1559  25.680   6.851  11.080
29267W        W 1560  10.334  18.241  10.137
29268W        W 1561   2.906  20.564  12.572
29269W        W 1562  37.891   1.357   1.883
29270W        W 1563   6.896  44.001   3.289
29271W        W 1564  34.431  40.398   0.923
29272W        W 1565  28.023  42.806  14.767
29273W        W 1566  17.262  16.684   2.336
29274W        W 1567  20.216  25.205  12.085
29275W        W 1568  27.670   7.253  14.503
29276W        W 1569  44.281  31.073  14.939
29277W        W 1570   6.711  23.132   0.932
29278W        W 1571   3.382  43.825   3.352
29279W        W 1572  37.979  33.897  10.418
29280W        W 1573  23.058  11.746  13.821
29281W        W 1574  12.146  22.156  10.545
29282W        W 1575  25.467  24.486  13.943
29283W        W 1576   5.244  18.296  11.071
29284W        W 1577  24.203  28.936  11.999
29285W        W 1578  17.302  29.553  12.856
29286W        W 1579  31.493  30.536   0.733
29287W        W 1580  30.018  30.028   2.722
29288W        W 1581  28.593  29.640   4.291
29289W        W 1582  33.502   1.781   3.766
29290W        W 1583   0.877  37.979   0.943
29291W        W 1584  41.382  25.591  10.959
29292W        W 1585  37.016  19.643   0.744
29293W        W 1586  39.918  13.297  12.884
29294W        W 1587   7.217  39.872   3.744
29295W        W 1588  20.540  12.294  13.384
29296W        W 1589  18.547   3.233  12.083
29297W        W 1590  31.983   2.389  14.279
29298W        W 1591  32.602  19.234  13.045
29299W        W 1592  41.877  15.759   2.216
29300W        W 1593  25.112  43.444   0.424
29301W        W 1594  42.804   1.914   1.754
29302W        W 1595  39.865  42.331   3.766
29303W        W 1596  32.974  23.654   2.729
29304W        W 1597  18.147  15.687  12.495
29305W        W 1598  24.634  13.607  12.432
29306W        W 1599  44.488  40.915  12.854
29307W        W 1600  11.185  14.304   3.216
29308W        W 1601  38.841   8.658   4.121
29309W        W 1602  26.160   3.876  12.496
29310W        W 1603  24.557  19.203   0.827
29311W        W 1604   8.352  32.992  10.068
29312W        W 1605  13.681  37.907   3.667
29313W        W 1606  39.905   1.834  11.910
29314W        W 1607  39.024   1.903  13.341
29315W        W 1608  11.734  27.072   0.734
29316W        W 1609  10.731  12.223   0.439
29317W        W 1610  20.210  27.095  11.542
29318W        W 1611  13.289  37.347  14.320
29319W        W 1612  22.202   4.815  11.605
29320W        W 1613  41.335   4.787  12.533
29321W        W 1614  29.445  17.105   4.629
29322W        W 1615  34.034  19.281  13.988
29323W        W 1616   9.780  33.448   4.316
29324W        W 1617  39.995  27.194   1.901
29325W        W 1618   7.796   6.729   4.617
29326W        W 1619  18.652   3.815   1.701
29327W        W 1620  16.163  34.964  13.480
29328W        W 1621  10.219  37.389   0.269
29329W        W 1622  34.456  28.939   2.717
29330W        W 1623  20.718  23.063  14.780
29331W        W 1624  20.563   5.785  13.395
29332W        W 1625   5.725  37.391  13.494
29333W        W 1626  33.467  30.542  13.536
29334W        W 1627  10.168   3.745  11.928
29335W        W 1628  31.905   3.250  14.361
29336W        W 1629   9.888  20.265   3.361
29337W        W 1630   6.806  36.528   3.191
29338W        W 1631  21.625   0.753  11.017
29339W        W 1632  13.270  38.415  13.454
29340W        W 1633   0.822  34.983   1.837
29341W        W 1634  37.831   8.711  11.944
29342W        W 1635   1.284  21.155   2.854
29343W        W 1636   0.255  31.517   4.181
29344W        W 1637  41.843  21.071   2.355
29345W        W 1638   9.804  21.617  14.951
29346W        W 1639  14.154  34.417   0.441
29347W        W 1640  25.057   3.434   0.748
29348W        W 1641  43.988  34.008   1.700
29349W        W 1642  18.655  14.188  10.964
29350W        W 1643  34.521  10.870  14.326
29351W        W 1644  22.575  29.428   5.311
29352W        W 1645  29.147  25.021  14.958
29353W        W 1646  30.548   9.375  13.851
29354W        W 1647   7.710  21.589  12.943
29355W        W 1648   0.798  18.259  12.969
29356W        W 1649  29.948  40.923  14.419
29357W        W 1650  13.211  37.339   2.846
29358W        W 1651  16.258  15.123  11.987
29359W        W 1652  34.083  27.683  12.339
29360W        W 1653   2.882  41.985  12.930
29361W        W 1654  28.485  36.535   1.739
29362W        W 1655  42.953  34.040   1.306
29363W        W 1656   4.408  39.526  13.046
29364W        W 1657  19.738   4.834  13.315
29365W        W 1658   3.417  26.558  11.390
29366W        W 1659  27.001  43.444   3.836
29367W        W 1660  36.512  15.824  10.094
29368W        W 1661  23.135  30.082   2.748
29369W        W 1662  38.013  34.924   2.877
29370W        W 1663   0.902   6.847  14.783
29371W        W 1664  22.686  22.130  14.001
29372W        W 1665  21.035  39.940  11.873
29373W        W 1666   6.919  25.672  12.535
29374W        W 1667  39.061  44.315  10.026
29375W        W 1668  17.231  37.343   0.345
29376W        W 1669   8.393  26.667   4.194
29377W        W 1670   7.255  16.104  14.361
29378W        W 1671   8.843  16.742   3.651
29379W        W 1672  16.084  27.981   3.184
29380W        W 1673  33.456  28.953   0.344
29381W        W 1674  13.723   9.885   2.296
29382W        W 1675   8.222  21.575   1.913
29383W        W 1676  39.837  13.807  14.787
29384W        W 1677  17.177  30.547   4.181
29385W        W 1678  18.744  16.687   3.200
29386W        W 1679  37.487   2.860   4.161
29387W        W 1680  11.657  37.958  13.422
29388W        W 1681  16.651  18.190   2.671
29389W        W 1682  18.710  21.520  12.953
29390W        W 1683  21.722  10.779  10.948
29391W        W 1684  43.367  17.656   1.301
29392W        W 1685  23.101  37.555  12.342
29393W        W 1686   2.236  21.529   1.749
29394W        W 1687   5.355  13.715  14.024
29395W        W 1688   5.914  29.116  11.091
29396W        W 1689  26.589  31.497   1.281
29397W        W 1690  28.990  26.061  14.024
29398W        W 1691  13.215   3.265   3.676
29399W        W 1692  38.891  27.475   2.255
29400W        W 1693  38.833  34.982   3.238
29401W        W 1694  38.466  43.794  14.275
29402W        W 1695  22.054  34.050  13.902
29403W        W 1696   4.743  14.105   4.295
29404W        W 1697  28.447  43.424   2.226
29405W        W 1698  33.984  16.077  11.881
29406W        W 1699   0.440  33.099  14.940
29407W        W 1700  28.681  36.915   1.700
29408W        W 1701   5.253  11.674   4.202
29409W        W 1702  18.782  38.409  11.443
29410W        W 1703  32.092   1.349  12.991
29411W        W 1704   1.779  26.191  14.288
29412W        W 1705  28.122   9.672  13.000
29413W        W 1706   6.904   6.916   4.174
29414W        W 1707  18.203  41.929   0.768
29415W        W 1708   0.484  32.087   0.270
29416W        W 1709   1.798  11.327   4.307
29417W        W 1710  40.539  30.930  10.897
29418W        W 1711  35.877   0.422   1.737
29419W        W 1712   0.897  11.230  13.535
29420W        W 1713   9.250  14.228  12.021
29421W        W 1714  12.151  23.580  11.995
29422W        W 1715   4.933  33.940   4.735
29423W        W 1716  37.996   4.442   2.748
29424W        W 1717   1.345   0.882  14.434
29425W        W 1718  35.035  34.381   1.294
29426W        W 1719   8.740  28.627   4.256
29427W        W 1720  14.740  30.078   2.261
29428W        W 1721  30.480   0.843  11.493
29429W        W 1722  23.544  13.616   3.231
29430W        W 1723   5.824  18.102   2.307
29431W        W 1724  20.600   2.904   1.740
29432W        W 1725  33.950  37.485  14.318
29433W        W 1726   6.877   5.909  14.380
29434W        W 1727  10.363   0.487  10.044
29435W        W 1728  13.610  23.496   2.849
29436W        W 1729  30.648  16.140   4.664
29437W        W 1730  39.012   0.743  11.032
29438W        W 1731  17.286   2.962   1.889
29439W        W 1732  37.467  12.758   0.262
29440W        W 1733   0.751  33.025   2.695
29441W        W 1734  20.044  19.101   0.893
29442W        W 1735  24.140   1.306   4.324
29443W        W 1736  26.558  40.824  10.452
29444W        W 1737  41.356  39.986   2.418
29445W        W 1738  15.147  44.990  14.874
29446W        W 1739  38.343  34.553   4.168
29447W        W 1740  25.003  30.621  12.474
29448W        W 1741  40.915  15.167   2.311
29449W        W 1742  20.270  18.609   1.718
29450W        W 1743  33.960  23.184   1.879
29451W        W 1744  12.803   5.834  10.633
29452W        W 1745   2.941  31.618  14.298
29453W        W 1746  15.218  22.549  12.372
29454W        W 1747  10.836  28.442   3.724
29455W        W 1748  15.287  43.790   3.848
29456W        W 1749   2.314  42.913   1.712
29457W        W 1750  15.086  42.938  13.969
29458W        W 1751   1.427  24.700  12.417
29459W        W 1752  38.385  35.480   3.729
29460W        W 1753  39.957  43.892  13.948
29461W        W 1754  34.589  26.043  13.025
29462W        W 1755   2.805   5.754  10.552
29463W        W 1756  41.349  31.116   0.265
29464W        W 1757   5.384  32.076  11.898
29465W        W 1758  35.420  28.113   4.138
29466W        W 1759  42.917  26.605  12.032
29467W        W 1760  19.235  37.037  10.935
29468W        W 1761  32.416  14.106   1.796
29469W        W 1762  37.861  43.404  11.128
29470W        W 1763  36.019  41.806   2.333
29471W        W 1764   3.325  37.033   2.294
29472W        W 1765  39.502  11.187  11.476
29473W        W 1766  15.127  30.502  13.335
29474W        W 1767  22.089  12.662  13.976
29475W        W 1768  22.037  15.303  11.387
29476W        W 1769  42.855   3.312  14.836
29477W        W 1770  31.498  41.966  14.383
29478W        W 1771  24.022  14.733   0.886
29479W        W 1772  14.820  24.556   2.804
29480W        W 1773   1.913  39.896   0.315
29481W        W 1774  33.533  10.335  13.993
29482W        W 1775  15.600  14.153  14.877
29483W        W 1776   3.306  25.549   2.289
29484W        W 1777  35.021  11.269  14.421
29485W        W 1778   7.829  20.593   4.757
29486W        W 1779  35.877  10.221  12.510
29487W        W 1780   8.283  22.554  11.863
29488W        W 1781  22.119   8.719  13.897
29489W        W 1782   6.221  41.886  13.882
29490W        W 1783  44.761  31.983  12.045
29491W        W 1784   7.235  11.744  13.427
29492W        W 1785  43.800   6.212  14.498
29493W        W 1786  27.139  13.252  14.408
29494W        W 1787  38.052  22.621  11.475
29495W        W 1788  12.127  33.403   4.734
29496W        W 1789   3.940  27.487  10.590
29497W        W 1790  33.090   5.708   4.701
29498W        W 1791  10.737  11.812   1.346
29499W        W 1792   8.376   0.296   1.215
29500W        W 1793  38.068  44.330   0.889
29501W        W 1794  13.662  25.174   3.240
29502W        W 1795  33.498  30.503   2.398
29503W        W 1796   5.890   0.322   2.890
29504W        W 1797  18.675   0.946   5.115
29505W        W 1798   1.394   0.890  13.860
29506W        W 1799   1.395  18.120   4.213
29507W        W 1800  25.469  26.979   0.445
29508W        W 1801  30.143   0.276  10.619
29509W        W 1802  39.889   5.688   0.903
29510W        W 1803  43.781   8.384   2.833
29511W        W 1804  15.663  39.537   3.792
29512W        W 1805  28.018  22.540  11.048
29513W        W 1806  38.861   3.920   3.189
29514W        W 1807   7.342  34.476   1.817
29515W        W 1808  44.501   6.892  11.532
29516W        W 1809  12.854  13.657  14.844
29517W        W 1810  25.147  15.751  11.546
29518W        W 1811  35.402  24.040  11.047
29519W        W 1812  23.013  38.836   4.327
29520W        W 1813  38.431  32.020   4.626
29521W        W 1814   4.258  36.006   1.329
29522W        W 1815  17.589  23.127   3.752
29523W        W 1816  24.089  27.967  10.924
29524W        W 1817  38.835  28.559   3.650
29525W        W 1818  41.983  23.713   9.950
29526W        W 1819  39.815  20.137  14.322
29527W        W 1820  15.316   7.714  10.623
29528W        W 1821   4.907   9.370  13.435
29529W        W 1822  20.164  13.111  11.118
29530W        W 1823  44.277  29.649  11.964
29531W        W 1824  20.034  44.848   3.342
29532W        W 1825  29.556   8.736   3.823
29533W        W 1826  27.092   3.935  11.498
29534W        W 1827   5.835   7.207   4.693
29535W        W 1828   1.890   7.396  11.401
29536W        W 1829  36.917  24.033  11.540
29537W        W 1830  40.453  37.348   1.922
29538W        W 1831  44.279   4.403  11.097
29539W        W 1832  32.576  22.048  14.996
29540W        W 1833  36.923  25.086   4.185
29541W        W 1834  44.307   8.848  11.505
29542W        W 1835  10.787   7.362   3.247
29543W        W 1836  30.074  16.215   3.701
29544W        W 1837  29.437  23.989  13.935
29545W        W 1838  24.012  32.398   2.735
29546W        W 1839   7.389  23.638  13.510
29547W        W 1840  22.094   3.912  14.304
29548W        W 1841  36.056  38.885   1.793
29549W        W 1842  28.952  17.222   2.691
29550W        W 1843  21.244   1.779  13.898
29551W        W 1844  23.657  12.683   0.817
29552W        W 1845  20.141  34.066  10.410
29553W        W 1846  20.154  35.544   1.697
29554W        W 1847   3.830  32.077   3.671
29555W        W 1848  18.228  15.683   1.787
29556W        W 1849  43.316  14.325  12.074
29557W        W 1850  32.942   2.881   4.311
29558W        W 1851   6.894  27.470   3.834
29559W        W 1852  35.561  15.765  12.476
29560W        W 1853  33.478  43.929  14.881
29561W        W 1854   2.256  26.547  14.339
29562W        W 1855   5.219   9.652  14.375
29563W        W 1856   0.980   8.723  14.759
29564W        W 1857  17.618  30.924   4.160
29565W        W 1858  37.478  41.295   0.800
29566W        W 1859  39.977  15.775   1.762
29567W        W 1860  23.543   4.311   3.691
29568W        W 1861  26.513  32.524  14.850
29569W        W 1862  26.157   0.918   2.398
29570W        W 1863  37.356  12.613   1.419
29571W        W 1864  15.799   5.366  10.983
29572W        W 1865  16.271  31.938  10.488
29573W        W 1866  33.508  16.621  13.923
29574W        W 1867  24.054  23.170   4.246
29575W        W 1868  12.742   4.816   0.945
29576W        W 1869   3.438  15.745   2.861
29577W        W 1870   6.317   8.768  13.417
29578W        W 1871  20.037   3.851   1.735
29579W        W 1872   0.431   8.240   3.316
29580W        W 1873  10.689   9.164   2.202
29581W        W 1874   2.410  44.770   4.354
29582W        W 1875  16.304   4.252   2.204
29583W        W 1876  30.127  28.467  14.790
29584W        W 1877  37.005  19.750  10.418
29585W        W 1878   5.799  28.035  12.496
29586W        W 1879   8.839  35.568   0.425
29587W        W 1880   6.729   6.301   4.285
29588W        W 1881  28.665  31.578  14.028
29589W        W 1882  30.139   0.984   0.966
29590W        W 1883  40.395  20.648   4.313
29591W        W 1884  26.643  19.260   1.907
29592W        W 1885   5.709   7.877   4.166
29593W        W 1886  35.887  13.637  11.961
29594W        W 1887  26.168  11.652   0.935
29595W        W 1888  20.659   1.737   3.311
29596W        W 1889   8.168  36.386  11.384
29597W        W 1890   9.173  34.521   5.673
29598W        W 1891  21.045  31.105  10.618
29599W        W 1892  30.045  14.198   2.674
29600W        W 1893  30.649  21.515   2.729
29601W        W 1894  23.631  36.939  13.331
29602W        W 1895   4.836   0.905   0.948
29603W        W 1896  18.146  41.531  11.041
29604W        W 1897  18.087  20.065  12.446
29605W        W 1898  14.735   3.246   9.968
29606W        W 1899  44.791   0.868   4.610
29607W        W 1900  44.775  42.515  13.964
29608W        W 1901  10.832   2.409   3.381
29609W        W 1902  32.906  34.413   0.945
29610W        W 1903  27.465  34.953  10.967
29611W        W 1904  41.884  13.814   2.827
29612W        W 1905  38.416  36.593  10.928
29613W        W 1906   9.691  17.784   4.250
29614W        W 1907  14.747  19.192   2.748
29615W        W 1908  43.765  44.904   0.917
29616W        W 1909   1.331  35.570   1.442
29617W        W 1910  19.109  10.294   1.797
29618W        W 1911   4.804   4.770   1.855
29619W        W 1912  25.163  39.832  12.843
29620W        W 1913  36.402  23.569   5.280
29621W        W 1914  10.164  15.295  12.990
29622W        W 1915   0.979  39.430   2.394
29623W        W 1916  33.085  33.935   1.869
29624W        W 1917  13.780  16.609  11.978
29625W        W 1918   1.815   1.298  10.576
29626W        W 1919  29.463  12.638  12.411
29627W        W 1920  32.467   3.769   1.862
29628W        W 1921  18.285  11.747  14.898
29629W        W 1922  22.039  27.084  13.530
29630W        W 1923   4.247   5.706  12.057
29631W        W 1924  44.995  15.633  13.351
29632W        W 1925  19.661  11.205   3.813
29633W        W 1926  21.705  22.657   4.120
29634W        W 1927  12.631  31.098  10.925
29635W        W 1928  35.901  41.381   2.251
29636W        W 1929   8.214  40.533   3.838
29637W        W 1930   4.260  26.024   4.208
29638W        W 1931  19.584  23.096   1.237
29639W        W 1932  44.343   1.827   2.326
29640W        W 1933  36.575  43.921   1.392
29641W        W 1934  41.494  33.993  12.474
29642W        W 1935  14.693  37.998  14.006
29643W        W 1936  14.150  20.627  12.932
29644W        W 1937  20.164   4.791  13.999
29645W        W 1938  22.741  21.207  12.474
29646W        W 1939   6.268  40.827  14.303
29647W        W 1940   2.951  10.352   4.201
29648W        W 1941  42.853  14.136  14.967
29649W        W 1942  30.158   3.396   3.727
29650W        W 1943  12.346  41.941   4.800
29651W        W 1944   3.234  31.972   4.114
29652W        W 1945  17.303  35.034  12.932
29653W        W 1946  34.912  18.068   1.323
29654W        W 1947  40.353  26.531   0.759
29655W        W 1948  24.062  44.755   1.349
29656W        W 1949  43.891  29.565  10.957
29657W        W 1950   1.885  34.006   0.473
29658W        W 1951  35.531  32.955   0.377
29659W        W 1952  27.671  39.020   1.345
29660W        W 1953  30.638  37.503  14.758
29661W        W 1954  19.254  12.709  10.550
29662W        W 1955   2.456  43.832   0.245
29663W        W 1956  42.497  37.574   3.697
29664W        W 1957  26.573  29.061   3.831
29665W        W 1958  31.444  26.009   0.399
29666W        W 1959  20.639  31.035   1.909
29667W        W 1960  22.008  42.802   3.702
29668W        W 1961  10.298  33.442   0.909
29669W        W 1962  38.460  42.389   0.324
29670W        W 1963  35.383  22.093   2.703
29671W        W 1964  19.742  17.587   1.258
29672W        W 1965  11.197   7.668  14.896
29673W        W 1966  41.801  27.974   5.303
29674W        W 1967  25.095   4.840   4.346
29675W        W 1968  33.105  21.709   3.787
29676W        W 1969  11.694  26.159  10.992
29677W        W 1970   1.379   4.750  14.951
29678W        W 1971   9.688   3.226   3.375
29679W        W 1972   1.285  35.044   0.332
29680W        W 1973   3.841  21.186  13.410
29681W        W 1974  18.157   1.835   1.402
29682W        W 1975  12.835  24.079  11.555
29683W        W 1976  18.278  18.217   1.404
29684W        W 1977   0.443  36.878   0.381
29685W        W 1978  11.679   4.711   5.291
29686W        W 1979  10.216  12.289  11.010
29687W        W 1980  16.632  27.040   1.903
29688W        W 1981  41.526   6.356   3.822
29689W        W 1982   3.903  18.085  13.913
29690W        W 1983  43.829   2.310   1.265
29691W        W 1984  25.631  16.288  10.631
29692W        W 1985  33.041   1.281   2.227
29693W        W 1986  23.688  20.675  14.012
29694W        W 1987  42.794  38.392  13.322
29695W        W 1988  10.829   0.852  12.095
29696W        W 1989  16.223   8.275   2.352
29697W        W 1990  21.125  13.257  14.845
29698W        W 1991  27.094  20.230   3.384
29699W        W 1992   6.787  42.859   3.296
29700W        W 1993  10.676  35.889  14.420
29701W        W 1994   6.757  17.694   0.786
29702W        W 1995  37.996  10.731  12.559
29703W        W 1996  29.452   5.284  10.631
29704W        W 1997  15.605   0.415   1.278
29705W        W 1998   4.879  16.241   0.358
29706W        W 1999  15.701  36.024   4.260
29707W        W 2000  39.366  39.322  12.005
29708W        W 2001  23.053  15.708   2.345
29709W        W 2002  42.803  32.963   3.268
29710W        W 2003   0.398  27.639   1.699
29711W        W 2004  11.646  34.576  11.561
29712W        W 2005  24.978  29.433  14.864
29713W        W 2006   8.358  34.966  14.810
29714W        W 2007  41.015  20.718  10.643
29715W        W 2008  15.277  14.226   4.133
29716W        W 2009  21.579  39.401  14.826
29717W        W 2010  27.059  13.709  11.426
29718W        W 2011   2.737  37.038  10.630
29719W        W 2012  22.669  15.097   1.881
29720W        W 2013  42.467   8.265   2.681
29721W        W 2014  41.858   5.240  11.611
29722W        W 2015  15.673  43.973  12.574
29723W        W 2016  15.650  42.995   2.815
29724W        W 2017  23.547   5.292   0.315
29725W        W 2018  16.084   9.654  12.491
29726W        W 2019  38.885  13.632   3.829
29727W        W 2020  31.599  24.172   4.278
29728W        W 2021   3.948  20.157   1.715
29729W        W 2022   4.363  26.962   0.316
29730W        W 2023  38.467  16.219  14.761
29731W        W 2024  44.834  22.636  14.374
29732W        W 2025  18.082  33.383  10.484
29733W        W 2026  22.169   5.343  10.927
29734W        W 2027   4.241  27.492  11.108
29735W        W 2028  40.860  11.716  12.941
29736W        W 2029  14.660  41.296   3.780
29737W        W 2030  36.992   9.306   2.341
29738W        W 2031  34.007  12.710   4.269
29739W        W 2032  14.220  11.197   1.246
29740W        W 2033   9.188   9.279   0.920
29741W        W 2034  21.635  27.023   4.766
29742W        W 2035  10.262  39.430   4.805
29743W        W 2036  29.647   9.395   4.704
29744W        W 2037  18.570   6.371   2.183
29745W        W 2038   6.894  42.900   5.230
29746W        W 2039   9.722  29.092   2.264
29747W        W 2040  26.621  14.297   1.300
29748W        W 2041  28.116   5.335  10.419
29749W        W 2042  18.691   1.481  11.923
29750W        W 2043  42.854  34.036   4.680
29751W        W 2044   6.310   8.751  11.880
29752W        W 2045  16.786  10.744  13.330
29753W        W 2046  24.505   9.210   3.862
29754W        W 2047  21.696  15.671  13.803
29755W        W 2048  44.469  27.651  12.540
29756W        W 2049  36.098  25.205   4.200
29757W        W 2050  42.787   7.397  14.977
29758W        W 2051  43.998  34.945  14.013
29759W        W 2052   8.353   5.811   0.390
29760W        W 2053  21.031  33.930  11.859
29761W        W 2054  19.643  10.704  10.590
29762W        W 2055  33.037  28.059  13.415
29763W        W 2056  27.055  26.561  14.372
29764W        W 2057  39.811  16.240  12.344
29765W        W 2058  37.993  44.458  11.071
29766W        W 2059  43.454  26.477   0.734
29767W        W 2060  19.268  33.424   9.539
29768W        W 2061  17.567  18.212   4.288
29769W        W 2062  25.689  36.570  11.602
29770W        W 2063  31.495  33.609  12.850
29771W        W 2064  25.480  23.667  14.939
29772W        W 2065   1.785   6.903  14.310
29773W        W 2066  17.641   2.730  12.057
29774W        W 2067  11.239  39.914  10.637
29775W        W 2068  33.534  43.814  14.436
29776W        W 2069  10.359  26.970  14.423
29777W        W 2070  43.779  43.980   4.743
29778W        W 2071  25.087  23.080   0.863
29779W        W 2072  31.611  29.659  10.604
29780W        W 2073  16.667  29.123   3.848
29781W        W 2074  21.562   6.271  12.885
29782W        W 2075  31.089  17.598   0.741
29783W        W 2076  18.576   8.872   2.687
29784W        W 2077  28.950  43.789  12.573
29785W        W 2078  32.493   7.270  11.073
29786W        W 2079  13.228  22.163  10.961
29787W        W 2080  19.277   1.411   4.740
29788W        W 2081  19.679  33.050   0.919
29789W        W 2082  18.199  29.026  10.965
29790W        W 2083   2.384  26.122  11.044
29791W        W 2084  14.618   9.229   3.254
29792W        W 2085  23.199  12.185  13.815
29793W        W 2086  14.765  30.572   2.780
29794W        W 2087  14.736  25.537   0.737
29795W        W 2088  39.333   1.270   4.811
29796W        W 2089   7.910  20.647   0.730
29797W        W 2090  20.196  14.207  13.412
29798W        W 2091  25.082  23.696  11.977
29799W        W 2092   1.918   2.887   4.182
29800W        W 2093  29.529  14.659  14.835
29801W        W 2094   4.755   4.359  10.413
29802W        W 2095  21.583  19.090   1.435
29803W        W 2096  21.206   1.817  11.568
29804W        W 2097  17.124  35.038   1.917
29805W        W 2098  40.541  23.053   4.186
29806W        W 2099   4.927  11.749   1.783
29807W        W 2100  34.010  16.807   4.742
29808W        W 2101   3.939  38.858  11.468
29809W        W 2102  36.844   7.755  13.014
29810W        W 2103  38.534  33.092  11.492
29811W        W 2104  38.437  26.147  13.860
29812W        W 2105  39.482  20.576  14.398
29813W        W 2106  26.498  22.089   4.241
29814W        W 2107  43.965   6.265  11.444
29815W        W 2108  17.291  13.638  10.993
29816W        W 2109  35.520  23.581  10.423
29817W        W 2110   1.850  12.194   2.831
29818W        W 2111   7.388  13.343   1.249
29819W        W 2112  31.601  13.753   2.873
29820W        W 2113  13.781   8.860   3.288
29821W        W 2114  40.519  38.921   3.234
29822W        W 2115  30.970  10.879   2.869
29823W        W 2116  34.430  44.378   3.195
29824W        W 2117  27.692  35.991   1.727
29825W        W 2118  16.182  42.958   2.261
29826W        W 2119  37.838   6.786  11.455
29827W        W 2120  39.025   1.344  13.955
29828W        W 2121  35.526   9.254  14.974
29829W        W 2122  44.900  23.522   0.325
29830W        W 2123  27.950  16.733  11.947
29831W        W 2124   7.696  27.584  10.977
29832W        W 2125  22.141  34.986   4.340
29833W        W 2126  40.921  17.614   2.832
29834W        W 2127  34.013  24.198   3.804
29835W        W 2128  14.717  32.030   3.365
29836W        W 2129  26.108  15.299  13.022
29837W        W 2130  17.699  32.539  13.801
29838W        W 2131  44.855   3.412   3.148
29839W        W 2132  24.595  13.305   4.809
29840W        W 2133  35.899  24.201   4.767
29841W        W 2134  42.448   6.873  13.878
29842W        W 2135   8.697  11.835  10.946
29843W        W 2136  28.612  14.670   4.654
29844W        W 2137  38.918  12.692  11.598
29845W        W 2138  24.049  28.986   2.864
29846W        W 2139  26.080  30.581   2.236
29847W        W 2140  33.484  44.326  13.433
29848W        W 2141  29.584  10.321   0.870
29849W        W 2142  21.757  36.566  14.306
29850W        W 2143  25.965  17.763   1.396
29851W        W 2144  43.429  23.079   0.477
29852W        W 2145  22.561   3.853   2.353
29853W        W 2146  20.549   7.747  12.007
29854W        W 2147   1.473   5.873  12.537
29855W        W 2148   9.812  26.667   3.311
29856W        W 2149  38.947  38.492  10.441
29857W        W 2150   2.238   5.329   2.828
29858W        W 2151  10.167  30.617   2.849
29859W        W 2152  26.592  38.889  14.514
29860W        W 2153  29.528  41.896   2.290
29861W        W 2154  31.148   6.899   1.754
29862W        W 2155  16.649  16.307  13.855
29863W        W 2156  26.547  34.584   0.879
29864W        W 2157  27.084  35.049  11.540
29865W        W 2158  44.902  14.203   5.106
29866W        W 2159  30.141  13.763   2.184
29867W        W 2160  37.413  44.836  14.006
29868W        W 2161  29.457  19.698   2.396
29869W        W 2162  39.327   7.758   1.837
29870W        W 2163  43.951  43.948   2.884
29871W        W 2164   9.706  34.419  13.002
29872W        W 2165  29.043  22.159   5.250
29873W        W 2166  10.872  17.257  11.551
29874W        W 2167  26.459  31.975   0.862
29875W        W 2168  40.435  20.129  13.024
29876W        W 2169   2.430   4.730   5.191
29877W        W 2170  40.371  30.135  11.434
29878W        W 2171  12.689  35.956   0.324
29879W        W 2172   1.894  23.234  10.553
29880W        W 2173  25.199  22.638  14.323
29881W        W 2174  34.431  35.418   0.832
29882W        W 2175  28.540   8.770   1.726
29883W        W 2176   2.756   6.826  11.088
29884W        W 2177  38.410  35.997  11.107
29885W        W 2178  10.755  26.640   1.896
29886W        W 2179   6.415  17.730   2.237
29887W        W 2180   4.768  39.852  11.394
29888W        W 2181  34.561   1.792   1.377
29889W        W 2182  21.087  36.845  12.963
29890W        W 2183   3.766  19.203   1.233
29891W        W 2184  37.551  22.680  13.030
29892W        W 2185  26.194   9.789  10.410
29893W        W 2186  34.582  35.991   1.776
29894W        W 2187  43.975   1.391  11.441
29895W        W 2188  23.133   4.208  13.912
29896W        W 2189  35.865  43.511  11.097
29897W        W 2190  22.079  24.218  10.461
29898W        W 2191  43.953  42.380   4.831
29899W        W 2192   5.220  37.898  10.472
29900W        W 2193  36.545  42.380   1.886
29901W        W 2194  38.878  41.319  10.543
29902W        W 2195  29.110  13.718   0.468
29903W        W 2196   2.811  16.628  14.007
29904W        W 2197   9.221  11.169   2.694
29905W        W 2198  10.673   1.746  12.507
29906W        W 2199  27.596  10.273  10.458
29907W        W 2200  16.765  34.993   0.401
29908W        W 2201   7.878  15.256   0.926
29909W        W 2202  14.637  23.126   2.767
29910W        W 2203  23.137  20.159   4.612
29911W        W 2204  13.604   5.210   0.768
29912W        W 2205  21.746  40.030  14.761
29913W        W 2206  11.270  24.023   4.323
29914W        W 2207  25.155  21.735  14.276
29915W        W 2208  38.047  15.808  13.453
29916W        W 2209  33.042  29.516   2.793
29917W        W 2210  29.646  11.258  11.088
29918W        W 2211  34.465  38.378  12.386
29919W        W 2212  37.026  23.642  10.443
29920W        W 2213   1.386  44.766   0.263
29921W        W 2214  27.976  35.990   1.345
29922W        W 2215  21.527  25.121   3.685
29923W        W 2216  13.298  20.563   2.186
29924W        W 2217  29.534  30.624  12.079
29925W        W 2218  41.354  44.844   4.344
29926W        W 2219  31.010  34.968  13.010
29927W        W 2220  35.359  30.066   2.825
29928W        W 2221  19.745   9.314   5.224
29929W        W 2222  18.191  29.148   2.254
29930W        W 2223  11.311  20.207   0.278
29931W        W 2224  41.025   6.271  11.563
29932W        W 2225  21.100   9.206   3.803
29933W        W 2226  29.449  10.836  12.037
29934W        W 2227  21.121  35.392   4.178
29935W        W 2228  42.448  44.372  12.969
29936W        W 2229  39.498  29.939   0.267
29937W        W 2230  19.718   9.171   2.773
29938W        W 2231  11.311  24.034   2.362
29939W        W 2232  31.092  26.681   2.888
29940W        W 2233  28.182  23.224  14.852
29941W        W 2234  20.117  27.049  13.546
29942W        W 2235  11.855  37.444   0.799
29943W        W 2236   7.669  24.174   1.413
29944W        W 2237  10.632   7.707   0.965
29945W        W 2238  37.964  15.312  11.100
29946W        W 2239  29.095  30.507  12.877
29947W        W 2240  44.360  18.679   3.243
29948W        W 2241  35.917  24.705   4.776
29949W        W 2242   6.889  13.246   0.801
29950W        W 2243  13.303  32.451  12.833
29951W        W 2244  37.934  39.001  11.998
29952W        W 2245   6.790  10.293  11.571
29953W        W 2246  20.233  16.783  12.029
29954W        W 2247  28.976  25.682  10.945
29955W        W 2248   6.866  31.120   3.836
29956W        W 2249  28.565  24.201  12.825
29957W        W 2250   6.757  39.463  10.425
29958W        W 2251   4.849   4.384  12.983
29959W        W 2252   3.222  14.835   0.840
29960W        W 2253  33.960   1.300  12.549
29961W        W 2254  24.543  20.608   3.252
29962W        W 2255  27.622  38.527  14.361
29963W        W 2256  11.171  22.719  12.392
29964W        W 2257  23.060  34.064   2.404
29965W        W 2258   4.777   6.304   3.248
29966W        W 2259  13.142  14.609   0.865
29967W        W 2260  20.065  42.844  12.467
29968W        W 2261   7.348  26.574  11.447
29969W        W 2262   8.192  24.596  10.931
29970W        W 2263   5.795  40.423  12.827
29971W        W 2264  29.953  19.727  14.322
29972W        W 2265  34.419   2.833  13.525
29973W        W 2266  44.771  19.091   5.179
29974W        W 2267  19.633   6.859   1.384
29975W        W 2268  39.342  28.451  13.933
29976W        W 2269  12.340  26.025  10.409
29977W        W 2270  10.379   9.773  11.401
29978W        W 2271  35.047  41.537  10.909
29979W        W 2272  13.316  23.037   2.322
29980W        W 2273  36.488  21.211   4.284
29981W        W 2274  38.877   1.394   2.352
29982W        W 2275  17.656  36.993  11.981
29983W        W 2276  18.123  42.309  12.448
29984W        W 2277  17.302   2.752   1.280
29985W        W 2278  10.284  21.687  11.532
29986W        W 2279  33.079  29.112   3.258
29987W        W 2280   0.807  44.890   2.827
29988W        W 2281  26.970   1.838  13.012
29989W        W 2282  34.028  23.583   1.447
29990W        W 2283   6.418   2.723  13.388
29991W        W 2284  18.784  14.327  11.540
29992W        W 2285  24.579  40.445   1.877
29993W        W 2286  22.212  29.556  10.606
29994W        W 2287  36.041  43.021  14.446
29995W        W 2288  19.703  31.622  10.957
29996W        W 2289  15.717  14.271  14.278
29997W        W 2290  34.025  14.262   4.142
29998W        W 2291   9.702  20.126  14.300
29999W        W 2292   4.881  35.894  13.019
30000W        W 2293  29.591  12.744  11.932
30001W        W 2294  35.980  12.733  14.422
30002W        W 2295  17.231  22.091  13.849
30003W        W 2296  19.186   3.321   4.691
30004W        W 2297  36.403   9.823  12.940
30005W        W 2298  27.090  44.879   3.187
30006W        W 2299  15.174  21.033  11.600
30007W        W 2300  28.503  33.466   1.776
30008W        W 2301  33.036  38.335   4.205
30009W        W 2302   3.893   5.291  12.993
30010W        W 2303  17.264   3.951  13.932
30011W        W 2304  38.071  41.443   3.146
30012W        W 2305  15.177  17.205  11.083
30013W        W 2306  15.703  10.875   4.350
30014W        W 2307  20.050  28.043  10.997
30015W        W 2308  42.328  31.639  11.397
30016W        W 2309  27.951   2.453   3.653
30017W        W 2310   0.950  43.015  14.386
30018W        W 2311  13.129  32.618   1.932
30019W        W 2312  38.830  30.935  14.509
30020W        W 2313  37.386  37.582  12.532
30021W        W 2314  28.078  35.956  14.314
30022W        W 2315  28.960  19.154   0.416
30023W        W 2316  35.405  43.510  13.000
30024W        W 2317  23.129  23.602  14.492
30025W        W 2318   5.840  34.477   0.768
30026W        W 2319  17.797  40.893   2.702
30027W        W 2320  34.598   9.317  12.067
30028W        W 2321  13.765  36.059  13.473
30029W        W 2322  11.257   3.406  11.052
30030W        W 2323  41.806   0.950   1.794
30031W        W 2324  36.879  19.638   3.200
30032W        W 2325  27.940  37.498  11.933
30033W        W 2326  43.001  26.050   4.741
30034W        W 2327   6.270  15.304  14.824
30035W        W 2328   6.193  19.205  12.876
30036W        W 2329  14.679   4.736  10.619
30037W        W 2330  30.930  17.187  10.055
30038W        W 2331  26.497  28.072   1.361
30039W        W 2332  17.187  43.305   1.243
30040W        W 2333  27.619  44.315   4.331
30041W        W 2334  17.699  21.663  14.443
30042W        W 2335  34.552  16.663  14.431
30043W        W 2336  38.847  34.569  13.797
30044W        W 2337  17.090   8.337   1.797
30045W        W 2338   0.408  37.883   3.688
30046W        W 2339  40.894  40.476   1.307
30047W        W 2340  10.162  25.470   4.699
30048W        W 2341  39.443   2.247   1.286
30049W        W 2342  41.356  16.804   3.690
30050W        W 2343   1.344  25.076   0.782
30051W        W 2344  13.277   4.862  11.544
30052W        W 2345  43.839  26.075   2.319
30053W        W 2346  37.373  19.151  13.509
30054W        W 2347  12.856  19.679  13.892
30055W        W 2348  19.091  14.607   2.772
30056W        W 2349   3.308  26.009   4.286
30057W        W 2350  41.869  33.900   4.175
30058W        W 2351  11.226  42.830  14.389
30059W        W 2352  35.100   7.342   1.293
30060W        W 2353  43.925   5.814  14.415
30061W        W 2354   1.854  16.578   2.820
30062W        W 2355  42.981   7.233   4.128
30063W        W 2356  14.824  29.961   3.299
30064W        W 2357  18.657  11.788  13.039
30065W        W 2358  39.934  41.511  13.357
30066W        W 2359   2.849  29.652   2.414
30067W        W 2360  18.723  35.915  12.429
30068W        W 2361  41.363  35.440   1.909
30069W        W 2362  44.791  16.270  13.354
30070W        W 2363  30.070  21.683  14.776
30071W        W 2364  32.013  26.951   1.438
30072W        W 2365  20.056  23.608  14.416
30073W        W 2366  37.031  38.020   2.237
30074W        W 2367  20.547  37.063   4.619
30075W        W 2368  14.157   1.381  13.492
30076W        W 2369   2.776  28.473  14.320
30077W        W 2370   4.853  22.508   1.372
30078W        W 2371  12.268   3.378   5.249
30079W        W 2372  15.223  23.986  11.083
30080W        W 2373   4.858  24.680  11.426
30081W        W 2374  40.034  13.322   1.929
30082W        W 2375   0.337  42.284   1.240
30083W        W 2376   7.341  43.840  11.472
30084W        W 2377  26.571  12.157  10.453
30085W        W 2378  33.440  29.082  13.984
30086W        W 2379   1.811  35.445  12.365
30087W        W 2380  22.506   4.817   3.757
30088W        W 2381   0.445  18.243  13.362
30089W        W 2382  43.944  28.949  12.006
30090W        W 2383  19.712  19.573  11.948
30091W        W 2384   5.323  12.266   0.746
30092W        W 2385  18.628  32.588  11.998
30093W        W 2386  41.017  38.391   0.738
30094W        W 2387   2.776  16.184   1.315
30095W        W 2388  44.887  44.412   4.735
30096W        W 2389  19.280   9.329  13.452
30097W        W 2390  33.005  40.962   3.779
30098W        W 2391  39.361  33.437  14.982
30099W        W 2392  16.131  36.486   3.636
30100W        W 2393  29.533  41.343  11.895
30101W        W 2394  11.776   5.418  10.620
30102W        W 2395  23.135  28.589  11.974
30103W        W 2396  20.634  44.427   0.797
30104W        W 2397  16.220  41.903   3.188
30105W        W 2398  40.421  20.540  10.631
30106W        W 2399  30.547  16.219  12.924
30107W        W 2400  44.826  40.935   4.797
30108W        W 2401  32.414  36.508  10.503
30109W        W 2402  22.653  17.203  14.438
30110W        W 2403  23.726  39.911   3.355
30111W        W 2404  28.064   6.376   9.941
30112W        W 2405   1.355  12.832   0.734
30113W        W 2406  29.559  41.874  13.891
30114W        W 2407  44.381  12.170   0.929
30115W        W 2408  36.457   1.314  14.428
30116W        W 2409  35.545  26.547  10.958
30117W        W 2410  23.505  17.563   4.259
30118W        W 2411  37.563  13.773  11.523
30119W        W 2412   3.915  32.622   0.868
30120W        W 2413  33.941  39.466   0.360
30121W        W 2414  41.455  25.532   0.399
30122W        W 2415  43.977   8.164  14.929
30123W        W 2416  43.375   5.897   1.264
30124W        W 2417  18.624  15.086  12.550
30125W        W 2418  14.207  36.032  10.624
30126W        W 2419  29.546  25.703   4.262
30127W        W 2420  34.403  13.167  11.898
30128W        W 2421  16.631  33.077  14.912
30129W        W 2422  16.179  23.709   0.741
30130W        W 2423  23.507   7.681  12.358
30131W        W 2424  15.093  32.051  10.514
30132W        W 2425  40.798  18.203   0.960
30133W        W 2426  32.425  43.419   1.280
30134W        W 2427  24.116  37.072  11.595
30135W        W 2428  31.413  37.386  12.000
30136W        W 2429  25.968  17.656   3.180
30137W        W 2430  38.369  41.367   4.622
30138W        W 2431  42.931  40.409   3.663
30139W        W 2432   9.253   6.199   4.758
30140W        W 2433  39.513  23.548   1.761
30141W        W 2434  34.934   0.758  13.480
30142W        W 2435  15.594   3.369   1.406
30143W        W 2436  38.462  30.430  14.855
30144W        W 2437  43.508  31.440   3.823
30145W        W 2438  39.552  21.049  14.428
30146W        W 2439  40.472   4.310   2.222
30147W        W 2440  12.729  26.668  12.929
30148W        W 2441  11.357  41.808   0.282
30149W        W 2442  16.762  19.692   3.331
30150W        W 2443  36.560   6.209   2.708
30151W        W 2444  39.540   9.650  10.618
30152W        W 2445   2.883  22.076   4.289
30153W        W 2446  12.322  35.523  14.799
30154W        W 2447   5.239   5.433  12.347
30155W        W 2448  38.441   8.396  12.525
30156W        W 2449  29.430  20.074  12.827
30157W        W 2450  37.444  23.601   3.356
30158W        W 2451  33.468  38.437   0.796
30159W        W 2452  35.866  26.984   3.193
30160W        W 2453  20.252  31.432  14.786
30161W        W 2454   3.936  17.085   9.929
30162W        W 2455  26.615  13.299  13.837
30163W        W 2456  20.142  27.031  12.549
30164W        W 2457   8.235  19.653  13.539
30165W        W 2458  33.619  42.826   4.741
30166W        W 2459  25.517  21.214  12.931
30167W        W 2460  12.219  15.662   2.278
30168W        W 2461  20.186  42.444  12.031
30169W        W 2462  33.888  34.535   2.751
30170W        W 2463  28.987  11.681  14.844
30171W        W 2464  31.150  42.887  13.047
30172W        W 2465   0.863  15.104  12.556
30173W        W 2466   6.906   3.920   1.768
30174W        W 2467   7.792  35.985   4.723
30175W        W 2468   4.321  13.108  12.914
30176W        W 2469  37.571  30.654  12.923
30177W        W 2470  31.512  30.952  10.891
30178W        W 2471  27.181  40.925  14.310
30179W        W 2472   9.812  33.619   1.935
30180W        W 2473  16.663   4.836   1.300
30181W        W 2474  44.298  29.089   0.411
30182W        W 2475  13.770   5.869  12.013
30183W        W 2476  19.259  38.823  11.510
30184W        W 2477  13.653  39.345   3.215
30185W        W 2478  25.641  14.802   1.911
30186W        W 2479  36.525   5.716  12.945
30187W        W 2480   9.740  31.487   3.848
30188W        W 2481   0.933   5.912  12.076
30189W        W 2482  30.931   8.277   2.673
30190W        W 2483  12.157  30.611  13.370
30191W        W 2484  26.492  33.512   3.340
30192W        W 2485  16.669   7.172   0.960
30193W        W 2486   2.368  39.366   2.233
30194W        W 2487  41.825  39.986  10.477
30195W        W 2488   1.247  22.038  13.978
30196W        W 2489   6.681   2.269  14.489
30197W        W 2490   9.253  22.200  13.526
30198W        W 2491  28.646  31.980   2.328
30199W        W 2492  40.413   5.749  11.124
30200W        W 2493  27.102   9.302  10.887
30201W        W 2494  42.405   0.872  12.372
30202W        W 2495  41.441   1.754  14.830
30203W        W 2496  37.881  31.119  11.553
30204W        W 2497  10.269  14.163   0.465
30205W        W 2498  42.427  25.548  14.913
30206W        W 2499  14.677  42.384   3.170
30207W        W 2500  16.246  16.249   0.958
30208W        W 2501   1.344   1.247   2.789
30209W        W 2502  38.424   5.390  11.892
30210W        W 2503   9.395  40.361   1.409
30211W        W 2504   6.702  27.518   0.412
30212W        W 2505  11.367  41.413  10.958
30213W        W 2506  22.736   1.954   2.232
30214W        W 2507  19.063   0.909   1.838
30215W        W 2508  13.637  35.551  14.938
30216W        W 2509  39.002  19.075   2.797
30217W        W 2510  21.172  24.716   1.226
30218W        W 2511  40.525  42.370   0.825
30219W        W 2512  12.196  17.081   4.609
30220W        W 2513  17.561  12.289   1.360
30221W        W 2514  41.839  24.525  11.937
30222W        W 2515  38.348   7.826   0.728
30223W        W 2516  32.520  37.930   0.864
30224W        W 2517  36.541   0.899   2.758
30225W        W 2518   8.710  17.586  13.402
30226W        W 2519   2.429   1.236  10.530
30227W        W 2520   7.369  21.259   2.770
30228W        W 2521  44.397  35.531  14.384
30229W        W 2522   2.238  21.208   3.220
30230W        W 2523  10.635   5.783   2.391
30231W        W 2524  30.913  29.006   3.868
30232W        W 2525  29.978  37.878   4.749
30233W        W 2526  15.213  33.568   3.181
30234W        W 2527   9.239  18.182   0.727
30235W        W 2528  35.023   3.839  11.394
30236W        W 2529   0.960  23.648  13.950
30237W        W 2530  33.955   3.276  13.907
30238W        W 2531   3.825  37.951  12.391
30239W        W 2532   4.842  30.607  14.314
30240W        W 2533   8.317  38.061   2.253
30241W        W 2534   5.878   7.909  14.912
30242W        W 2535   3.884  33.393  14.429
30243W        W 2536  23.663  42.967   1.862
30244W        W 2537  14.226  23.184  10.610
30245W        W 2538  38.490  20.734  10.553
30246W        W 2539  21.237  14.238   5.173
30247W        W 2540   1.336  43.361  11.607
30248W        W 2541  26.002  22.097  11.879
30249W        W 2542  30.929  17.559   4.780
30250W        W 2543  39.457  22.533  12.047
30251W        W 2544  44.382  22.663   0.356
30252W        W 2545  33.909   9.357   4.209
30253W        W 2546   4.247  40.547  11.123
30254W        W 2547  12.818  39.907  10.560
30255W        W 2548   2.866  13.742  13.525
30256W        W 2549   6.755   8.660  13.821
30257W        W 2550   9.829  43.330   3.198
30258W        W 2551   1.784  42.388  12.000
30259W        W 2552  43.891  39.012  14.960
30260W        W 2553  24.064  32.050  12.095
30261W        W 2554  23.109  32.030   3.643
30262W        W 2555  32.494   9.214  13.897
30263W        W 2556   3.428  11.291   3.675
30264W        W 2557   0.483  43.479  10.470
30265W        W 2558  23.610  16.162   0.866
30266W        W 2559  27.033  35.602   3.366
30267W        W 2560   6.803   5.724  12.454
30268W        W 2561  39.045   7.259  10.935
30269W        W 2562  12.828  13.180   0.470
30270W        W 2563  29.455   3.419  12.951
30271W        W 2564   1.461  23.070  11.990
30272W        W 2565  22.080   0.256   4.641
30273W        W 2566  34.975   3.341  14.927
30274W        W 2567  24.207  39.895  10.520
30275W        W 2568  25.125   7.362   1.824
30276W        W 2569  35.493  33.941   0.789
30277W        W 2570  22.098  25.068   1.755
30278W        W 2571  36.574  43.504  14.285
30279W        W 2572  39.526  34.967  13.459
30280W        W 2573  21.164  25.543  12.831
30281W        W 2574   0.269  17.115  13.475
30282W        W 2575  18.571  10.857  14.326
30283W        W 2576   2.814  11.337  13.884
30284W        W 2577  10.774  24.205   2.403
30285W        W 2578  31.507  13.276  10.979
30286W        W 2579  34.992   9.663   4.268
30287W        W 2580  37.062  14.771   3.770
30288W        W 2581  44.994  28.027  13.428
30289W        W 2582  19.761  12.128   2.768
30290W        W 2583  22.722  32.494  10.427
30291W        W 2584  26.586  38.392   1.258
30292W        W 2585  33.998  15.142  11.544
30293W        W 2586  39.889  27.586   4.798
30294W        W 2587  26.994  26.166  13.820
30295W        W 2588  10.255  16.152   2.237
30296W        W 2589  43.294  14.749  12.426
30297W        W 2590  39.054  25.046  12.926
30298W        W 2591  26.480  34.522   9.941
30299W        W 2592   7.740  30.159   4.145
30300W        W 2593  23.490  22.739   4.800
30301W        W 2594  13.671  30.116  13.881
30302W        W 2595  37.078  40.819   1.831
30303W        W 2596  19.204  31.412   4.754
30304W        W 2597  27.518   0.928  11.393
30305W        W 2598  13.196   2.780  13.951
30306W        W 2599  35.919   9.821   1.844
30307W        W 2600  32.109  39.390   2.893
30308W        W 2601   2.348   0.755  11.058
30309W        W 2602   4.265  21.142  13.310
30310W        W 2603  21.019   7.906   0.410
30311W        W 2604  38.566  14.187  10.572
30312W        W 2605  23.599  12.791  11.001
30313W        W 2606  11.782  32.961  10.031
30314W        W 2607  16.634  36.927   4.164
30315W        W 2608  19.710  38.909  12.961
30316W        W 2609  17.282  42.855  12.342
30317W        W 2610  15.174   3.912   1.386
30318W        W 2611  22.530  36.852  13.500
30319W        W 2612  43.994  19.250  13.459
30320W        W 2613  27.102  25.040   4.657
30321W        W 2614  32.608  23.240  11.446
30322W        W 2615   1.895   2.798   2.890
30323W        W 2616  28.482  17.152   4.673
30324W        W 2617  32.137  37.538   4.318
30325W        W 2618  44.296  38.069  12.033
30326W        W 2619  22.074  28.661  14.453
30327W        W 2620  19.140   0.491   3.367
30328W        W 2621   4.701  25.216  14.501
30329W        W 2622  17.620  35.360   4.717
30330W        W 2623   7.910   5.802   2.836
30331W        W 2624  13.225   9.236  14.335
30332W        W 2625  29.558  32.422  13.926
30333W        W 2626  16.754  32.947   3.711
30334W        W 2627  39.914  31.069   2.327
30335W        W 2628  37.516  35.852  14.285
30336W        W 2629  12.116   5.226  13.906
30337W        W 2630  22.613  22.700  10.455
30338W        W 2631   6.902   4.422   1.333
30339W        W 2632  23.697   6.394  11.971
30340W        W 2633  43.999  35.596   2.268
30341W        W 2634  41.016  29.994   1.893
30342W        W 2635  28.985   1.264   3.303
30343W        W 2636  15.693  10.368   3.159
30344W        W 2637   2.768  44.297   4.184
30345W        W 2638  36.891  10.257   2.345
30346W        W 2639   1.237  29.013  10.626
30347W        W 2640  35.073   9.238   1.838
30348W        W 2641  17.575  16.216  11.980
30349W        W 2642  37.874  19.270  10.525
30350W        W 2643   2.747  27.968   4.602
30351W        W 2644  44.893   9.667  12.906
30352W        W 2645   2.781  42.972   1.386
30353W        W 2646  31.580  24.711   1.389
30354W        W 2647  43.963  36.495   4.665
30355W        W 2648  21.097  41.362   4.206
30356W        W 2649  42.308  10.725  13.519
30357W        W 2650  31.451  21.240   4.283
30358W        W 2651   1.860  31.482   3.637
30359W        W 2652  40.395  30.028  11.936
30360W        W 2653   8.388   9.786  11.978
30361W        W 2654   0.324  31.909  14.933
30362W        W 2655  40.874  30.567  12.843
30363W        W 2656  30.595  28.586  10.975
30364W        W 2657  19.779  39.361   1.363
30365W        W 2658  39.448  22.564   0.841
30366W        W 2659  27.687  11.187  10.531
30367W        W 2660  21.099  42.297  14.410
30368W        W 2661  10.872  11.675  11.493
30369W        W 2662  43.808  17.680   3.286
30370W        W 2663  31.500   3.811   0.363
30371W        W 2664  33.915  27.639   0.795
30372W        W 2665  44.768  42.947  11.453
30373W        W 2666  14.788  31.516  11.588
30374W        W 2667  11.139  19.085  13.356
30375W        W 2668  35.581  44.473  14.323
30376W        W 2669  21.071  23.707  10.075
30377W        W 2670  20.550  42.391   3.648
30378W        W 2671  24.546  10.331   0.483
30379W        W 2672  23.545  20.205   1.854
30380W        W 2673  20.645  13.681  10.936
30381W        W 2674  38.564   8.161  11.477
30382W        W 2675  10.651  11.202   4.195
30383W        W 2676  13.617  23.051  12.444
30384W        W 2677  30.046   3.914   4.131
30385W        W 2678  10.756  20.210   2.268
30386W        W 2679  17.587   0.470  10.896
30387W        W 2680  36.933  17.175   0.444
30388W        W 2681  38.024  13.307  13.945
30389W        W 2682  43.934  29.051  11.445
30390W        W 2683  15.130  23.603   2.235
30391W        W 2684  30.075  26.987   3.799
30392W        W 2685  31.917  25.121  13.057
30393W        W 2686  34.024  35.869  12.073
30394W        W 2687  26.550  31.914  14.019
30395W        W 2688  21.211   1.908  11.041
30396W        W 2689  11.366  44.815  10.538
30397W        W 2690  41.417  20.271  13.029
30398W        W 2691  13.127  23.216  10.466
30399W        W 2692   6.900  39.408  11.381
30400W        W 2693   0.421   6.374   0.376
30401W        W 2694  39.018  23.020   0.767
30402W        W 2695  16.810  22.724   4.693
30403W        W 2696   4.806  41.885  10.948
30404W        W 2697  44.843  28.977   2.216
30405W        W 2698  41.840  17.268   3.315
30406W        W 2699  20.274  40.477  14.375
30407W        W 2700  36.549  19.155  14.875
30408W        W 2701  21.187  39.898  11.439
30409W        W 2702  22.592  31.031   1.840
30410W        W 2703   7.186  38.340   0.954
30411W        W 2704  25.078  40.326   4.824
30412W        W 2705  10.695  23.665   2.417
30413W        W 2706  23.646   7.393  12.934
30414W        W 2707  16.792   1.339   0.304
30415W        W 2708  14.175  35.487  10.900
30416W        W 2709   9.261  39.914   2.766
30417W        W 2710  27.502   3.351   3.731
30418W        W 2711  28.075  22.110   2.839
30419W        W 2712  38.328  37.998   2.810
30420W        W 2713  43.360   2.740   4.629
30421W        W 2714  38.875  23.506  12.950
30422W        W 2715  14.302  19.665  11.877
30423W        W 2716  14.128  36.037   4.180
30424W        W 2717  26.697  43.516   0.427
30425W        W 2718   0.490  37.065   3.637
30426W        W 2719   2.798  25.642   3.775
30427W        W 2720  27.128  30.562   0.919
30428W        W 2721  30.139  38.972  13.020
30429W        W 2722   6.383   5.911   0.278
30430W        W 2723  18.277  16.776  13.515
30431W        W 2724  14.306  36.572  14.414
30432W        W 2725  12.333  13.314   4.144
30433W        W 2726  43.353  33.937   3.713
30434W        W 2727   4.839  16.188  10.971
30435W        W 2728   6.897  15.286  13.324
30436W        W 2729  36.559  33.099   3.212
30437W        W 2730   4.712  31.517  14.458
30438W        W 2731  15.619   4.857   3.341
30439W        W 2732   1.383   1.264  11.112
30440W        W 2733  22.198  33.452  14.316
30441W        W 2734  34.976  39.522   1.394
30442W        W 2735  17.201  21.126  12.465
30443W        W 2736  37.475  25.703  13.855
30444W        W 2737  23.589  44.950   0.928
30445W        W 2738  10.310  18.278  12.409
30446W        W 2739  18.290  38.988  13.495
30447W        W 2740  36.360  22.736  14.371
30448W        W 2741  14.590  42.320  13.353
30449W        W 2742  42.473   7.176   1.359
30450W        W 2743  28.544  21.696  11.570
30451W        W 2744  26.027  23.531   2.291
30452W        W 2745  36.948  22.510  11.960
30453W        W 2746   6.692  31.566   4.764
30454W        W 2747  21.088  23.548  14.957
30455W        W 2748  31.095   8.268  12.835
30456W        W 2749  42.887  31.509   2.828
30457W        W 2750   5.287  21.172  11.989
30458W        W 2751   7.671  12.339   3.307
30459W        W 2752   3.917  38.431  12.021
30460W        W 2753  36.432   0.798  10.600
30461W        W 2754  10.729  33.529   4.174
30462W        W 2755  13.150   9.824  11.378
30463W        W 2756   2.767   9.212   2.320
30464W        W 2757  24.522  22.718  12.887
30465W        W 2758  20.255  26.059  12.953
30466W        W 2759  19.156  14.591   4.340
30467W        W 2760  41.843  28.621  11.376
30468W        W 2761   0.803  11.145   4.123
30469W        W 2762   7.834   6.676  13.378
30470W        W 2763  39.025  22.733   4.342
30471W        W 2764   2.392   4.373   4.344
30472W        W 2765  30.980  35.557   2.683
30473W        W 2766  24.119   5.819  11.065
30474W        W 2767  18.261   5.706   2.838
30475W        W 2768   0.880  35.875   9.920
30476W        W 2769  28.474  43.871  14.317
30477W        W 2770  40.541   6.301  12.502
30478W        W 2771  31.508  12.313   3.666
30479W        W 2772  16.604   5.731   0.825
30480W        W 2773  27.666   9.345   2.339
30481W        W 2774  40.443   5.711  11.939
30482W        W 2775   5.396   3.857   0.426
30483W        W 2776  24.078   8.885  14.978
30484W        W 2777  12.285  21.688   2.357
30485W        W 2778  20.659   2.324   2.368
30486W        W 2779  39.062   8.352  10.928
30487W        W 2780  13.668  32.636  12.366
30488W        W 2781  41.431  19.627   1.293
30489W        W 2782  30.658   9.385  12.058
30490W        W 2783  38.454  32.109  12.029
30491W        W 2784  32.030  14.742   4.321
30492W        W 2785  42.325   0.827   0.748
30493W        W 2786  10.842   5.900  14.765
30494W        W 2787  28.980  34.059   0.345
30495W        W 2788  19.086  33.472   3.310
30496W        W 2789  21.055   3.437   2.189
30497W        W 2790  33.503   1.282   3.375
30498W        W 2791  24.479   8.246   2.834
30499W        W 2792   3.855  44.403  13.992
30500W        W 2793  31.020   3.796  13.878
30501W        W 2794  42.923  43.913   3.756
30502W        W 2795  18.202  33.568  11.097
30503W        W 2796  23.996   4.731  11.859
30504W        W 2797  23.532  42.436  10.935
30505W        W 2798  16.595  38.451  12.423
30506W        W 2799   1.397  23.716  11.521
30507W        W 2800   5.258  44.801  12.453
30508W        W 2801  11.184   7.361   4.221
30509W        W 2802   9.769  31.119  13.002
30510W        W 2803   2.792  34.021  13.816
30511W        W 2804  31.959  39.020  11.060
30512W        W 2805  28.538  20.590   1.234
30513W        W 2806  24.210   1.471   5.175
30514W        W 2807  14.707  42.885  12.010
30515W        W 2808  16.656  11.286  11.041
30516W        W 2809   0.343  21.702  14.944
30517W        W 2810  32.596  20.646  10.562
30518W        W 2811  10.352  43.010   2.230
30519W        W 2812  12.731  22.159   0.324
30520W        W 2813  35.895  38.462  11.070
30521W        W 2814  14.236  36.523  13.843
30522W        W 2815   0.453  37.974  11.923
30523W        W 2816  10.757  33.927  13.881
30524W        W 2817  30.529  10.827  11.024
30525W        W 2818  40.009   4.272  10.415
30526W        W 2819  34.031  37.068  11.005
30527W        W 2820   3.227   5.893   3.643
30528W        W 2821   8.848   1.353  11.400
30529W        W 2822  26.654   0.955   3.326
30530W        W 2823   6.831  40.507   1.309
30531W        W 2824  19.255   3.775  11.081
30532W        W 2825  32.906  12.818   4.635
30533W        W 2826   5.383   2.833  13.403
30534W        W 2827  25.671  28.617   4.205
30535W        W 2828  17.613   0.295   0.797
30536W        W 2829   2.317  17.207  14.967
30537W        W 2830  43.360  22.514   4.231
30538W        W 2831   1.473  41.787   4.815
30539W        W 2832   0.904  24.502   2.836
30540W        W 2833  30.539  33.463   0.927
30541W        W 2834   6.772  35.946   2.312
30542W        W 2835  14.744  30.938   3.633
30543W        W 2836  15.811  24.026   2.714
30544W        W 2837  40.023  42.395   4.144
30545W        W 2838  40.376  35.491   2.349
30546W        W 2839  41.958  13.145   4.677
30547W        W 2840  17.665   6.810   2.701
30548W        W 2841  11.348  15.633   3.192
30549W        W 2842  22.197   1.899  10.427
30550W        W 2843   6.339  17.270   4.672
30551W        W 2844   5.747  12.361   4.299
30552W        W 2845  23.610   1.269  11.457
30553W        W 2846  27.007  37.523  13.404
30554W        W 2847  39.426  16.300  14.340
30555W        W 2848   4.240  28.503   2.359
30556W        W 2849  24.718  39.843   2.343
30557W        W 2850  25.978  22.565   9.675
30558W        W 2851  20.073   6.376  11.978
30559W        W 2852  11.769  33.875   0.860
30560W        W 2853   6.890  18.264  13.027
30561W        W 2854  38.850   2.422   2.312
30562W        W 2855   2.753   6.748  13.959
30563W        W 2856  21.754  14.645   4.622
30564W        W 2857  37.408  26.696  12.360
30565W        W 2858  36.906   8.683   4.598
30566W        W 2859  23.596  14.131   1.877
30567W        W 2860   1.277  31.569  14.778
30568W        W 2861  18.654  18.192   0.909
30569W        W 2862  35.459   3.215   0.889
30570W        W 2863  43.436  17.604  13.832
30571W        W 2864  24.643   2.256   5.790
30572W        W 2865  40.847   4.223   1.729
30573W        W 2866   0.748  42.291  12.944
30574W        W 2867  24.178  22.083   0.891
30575W        W 2868  39.014   7.798  12.061
30576W        W 2869   1.441   7.869   3.844
30577W        W 2870  38.568  10.856   4.176
30578W        W 2871  24.158   2.242  14.377
30579W        W 2872  30.142  29.130   4.773
30580W        W 2873  15.786  42.476   3.301
30581W        W 2874   8.174  34.474  10.961
30582W        W 2875  36.492  26.155   4.610
30583W        W 2876  43.774  32.551  13.849
30584W        W 2877  15.098   5.858   0.245
30585W        W 2878  28.054   2.383  14.494
30586W        W 2879  32.607   8.326  14.773
30587W        W 2880   7.337  39.875  11.058
30588W        W 2881  10.330  35.486  13.334
30589W        W 2882  31.124  27.093   3.153
30590W        W 2883  11.199  36.474  12.527
30591W        W 2884  43.433  43.990   5.174
30592W        W 2885   2.918  10.226  10.148
30593W        W 2886   5.380  10.261   3.821
30594W        W 2887  33.007  19.778  11.907
30595W        W 2888  32.392  32.609  14.970
30596W        W 2889  16.138   2.431   1.226
30597W        W 2890  18.594  21.747  11.460
30598W        W 2891  26.039   5.830   2.327
30599W        W 2892  15.186  18.605   0.316
30600W        W 2893  17.617  35.487  14.385
30601W        W 2894  38.856  42.318  14.026
30602W        W 2895   1.275  32.981   3.175
30603W        W 2896  36.378  20.219   2.305
30604W        W 2897  34.446  23.717   3.188
30605W        W 2898  15.241   8.765  14.963
30606W        W 2899   5.766  36.058   3.162
30607W        W 2900  41.879  30.478  12.833
30608W        W 2901  40.838  40.456  12.935
30609W        W 2902  40.320  11.137   0.353
30610W        W 2903  41.343  34.039  11.094
30611W        W 2904   0.400   9.682   3.358
30612W        W 2905  39.061  43.449  13.912
30613W        W 2906  34.376   2.885  12.850
30614W        W 2907  30.964  16.661  14.829
30615W        W 2908   7.287   8.888  11.493
30616W        W 2909  33.930  39.386  13.861
30617W        W 2910  13.781  27.510   2.783
30618W        W 2911  36.471  31.138  11.494
30619W        W 2912  13.210  12.751  11.121
30620W        W 2913  25.473  33.020  11.023
30621W        W 2914   6.678  31.037  14.497
30622W        W 2915  26.081  19.591  12.952
30623W        W 2916   7.784   0.407   2.183
30624W        W 2917  42.430  22.058   2.206
30625W        W 2918  42.019  16.253   0.311
30626W        W 2919   4.253   4.273   1.845
30627W        W 2920  42.816  36.033  12.938
30628W        W 2921   9.699  33.604   2.410
30629W        W 2922  33.451   0.963  12.839
30630W        W 2923   5.390  23.641  13.942
30631W        W 2924   3.736  23.189  11.105
30632W        W 2925  35.894   0.465   1.247
30633W        W 2926  20.240  11.859   1.308
30634W        W 2927  29.961  35.540   1.757
30635W        W 2928  43.935  35.984   1.754
30636W        W 2929  10.860  27.190  13.972
30637W        W 2930  44.813  36.430  14.869
30638W        W 2931  24.992  13.647   0.411
30639W        W 2932   2.469  10.232   1.858
30640W        W 2933   0.810  35.016  14.948
30641W        W 2934  24.197  39.879  14.998
30642W        W 2935   6.705  23.601   3.769
30643W        W 2936  42.928  22.593   0.785
30644W        W 2937  16.784  44.396   1.300
30645W        W 2938  32.136   5.906  12.861
30646W        W 2939  16.712   6.722   3.838
30647W        W 2940  24.681   1.775   5.316
30648W        W 2941  42.300  13.609  13.971
30649W        W 2942  37.868  35.362   2.334
30650W        W 2943  15.795  16.640   3.823
30651W        W 2944  30.156  44.781   3.176
30652W        W 2945  32.121  22.114   1.335
30653W        W 2946  40.943   1.478   4.744
30654W        W 2947  23.096  21.048  14.785
30655W        W 2948  39.063  39.460  14.899
30656W        W 2949  28.183   5.906  13.821
30657W        W 2950  40.357  42.440   3.317
30658W        W 2951  19.276  12.165   0.908
30659W        W 2952  23.170   3.879  10.925
30660W        W 2953  39.967   9.676   3.783
30661W        W 2954   3.324  12.155  12.990
30662W        W 2955   3.223   7.298   1.865
30663W        W 2956  34.912  34.449  14.775
30664W        W 2957  35.918  24.612  11.947
30665W        W 2958  23.047  42.389   4.654
30666W        W 2959  43.326  12.685   3.854
30667W        W 2960  41.325  43.481  13.032
30668W        W 2961   2.811  18.714  12.447
30669W        W 2962  39.473  23.697  11.884
30670W        W 2963  14.626   0.333  12.505
30671W        W 2964   0.903  40.446   5.230
30672W        W 2965  26.169  23.238   5.733
30673W        W 2966  29.579  11.229   2.375
30674W        W 2967  36.552  16.227  12.448
30675W        W 2968  17.778  16.134   4.709
30676W        W 2969  36.894   1.244   0.402
30677W        W 2970  17.706  33.448  11.442
30678W        W 2971   7.255  12.162  14.283
30679W        W 2972   4.903  10.172  14.843
30680W        W 2973  28.184  36.935  12.957
30681W        W 2974  16.288  11.625   2.852
30682W        W 2975  34.523  37.933  11.515
30683W        W 2976  22.542  21.203   4.797
30684W        W 2977  21.710  29.556  10.602
30685W        W 2978  21.666  40.346   1.429
30686W        W 2979  12.823  33.055   3.296
30687W        W 2980  15.198   3.328  12.574
30688W        W 2981  39.497  11.189   3.786
30689W        W 2982  23.497  29.025   1.924
30690W        W 2983  30.981   0.479  11.601
30691W        W 2984  33.960   8.394   0.321
30692W        W 2985  22.500  23.522  10.900
30693W        W 2986  39.999   6.248  10.949
30694W        W 2987  15.594   6.863   2.883
30695W        W 2988   0.820  28.502   3.793
30696W        W 2989  33.454  42.898  14.421
30697W        W 2990  34.993  27.013  11.003
30698W        W 2991   9.737  24.639   0.255
30699W        W 2992  16.587  21.220   3.768
30700W        W 2993  29.527  10.869  12.444
30701W        W 2994  32.963  22.697  13.451
30702W        W 2995   5.429  34.011  12.411
30703W        W 2996  44.842  30.927   0.368
30704W        W 2997  41.427  39.437   2.793
30705W        W 2998  28.007  11.173   4.293
30706W        W 2999  29.029  26.696   0.745
30707W        W 3000  39.314   8.251  12.569
30708W        W 3001  15.107  12.317  13.381
30709W        W 3002   6.806  25.491  11.522
30710W        W 3003  39.052  43.347  12.557
30711W        W 3004  34.463  36.927   1.320
30712W        W 3005  16.707  12.281   0.466
30713W        W 3006  33.470  43.835   0.938
30714W        W 3007  31.004  39.514  10.542
30715W        W 3008   7.281   1.944  13.006
30716W        W 3009  39.891  31.586  13.443
30717W        W 3010  40.499  37.560  12.060
30718W        W 3011  39.341  21.184  10.622
30719W        W 3012  41.896  43.377  14.925
30720W        W 3013  10.837  20.592   4.310
30721W        W 3014  12.203  36.927   1.448
30722W        W 3015  19.233  32.509  14.933
30723W        W 3016   4.867  17.093   4.222
30724W        W 3017  34.404  28.138  13.507
30725W        W 3018  12.724  31.636   2.194
30726W        W 3019  35.916   5.861   4.772
30727W        W 3020  43.990   7.247  10.441
30728W        W 3021  38.838   8.302   4.243
30729W        W 3022  42.294   9.853  14.784
30730W        W 3023  14.618  32.565  12.007
30731W        W 3024  32.524  22.515  12.874
30732W        W 3025  28.021  35.871  14.868
30733W        W 3026   4.386  41.512   2.286
30734W        W 3027   2.796  27.530   1.325
30735W        W 3028  20.732  11.300  10.431
30736W        W 3029  17.614  31.070   3.832
30737W        W 3030  37.464  10.220   3.195
30738W        W 3031  18.220  19.723   4.127
30739W        W 3032  26.561  19.213   1.233
30740W        W 3033  22.643   6.327   5.173
30741W        W 3034  38.968  22.632  12.823
30742W        W 3035  33.101   4.753  10.924
30743W        W 3036  34.500  14.815  10.515
30744W        W 3037   6.342  36.497  14.978
30745W        W 3038   6.202   9.880   4.726
30746W        W 3039  15.731  10.843  13.941
30747W        W 3040  14.782   1.476   5.314
30748W        W 3041  26.058  33.016  12.851
30749W        W 3042   1.381  21.043   0.461
30750W        W 3043  24.081  27.685   3.668
30751W        W 3044  12.161  22.651  11.128
30752W        W 3045  39.931  41.353   1.804
30753W        W 3046  26.696  26.522  10.590
30754W        W 3047  34.397   1.925  11.574
30755W        W 3048  33.542  28.581   0.452
30756W        W 3049  26.975   1.854   5.166
30757W        W 3050   2.830  21.129  14.399
30758W        W 3051  43.985  25.544   1.349
30759W        W 3052  15.132  20.196  12.512
30760W        W 3053  39.821  44.443  11.489
30761W        W 3054  36.023  27.674   4.336
30762W        W 3055   9.316  19.124  11.396
30763W        W 3056  18.684  22.665   2.860
30764W        W 3057  19.087  31.031  10.474
30765W        W 3058   3.360   6.297  13.539
30766W        W 3059  34.519  30.496  11.900
30767W        W 3060  35.464  23.203   3.347
30768W        W 3061  36.535  19.566   1.211
30769W        W 3062   8.257  44.368   2.288
30770W        W 3063  44.760  19.685   3.750
30771W        W 3064  18.189   8.810   0.933
30772W        W 3065  11.719  41.884   0.402
30773W        W 3066  32.061   3.762   2.268
30774W        W 3067  30.082   8.199   1.832
30775W        W 3068  41.895  34.102  14.330
30776W        W 3069  31.101   0.848  14.490
30777W        W 3070  15.599  41.424   3.802
30778W        W 3071   1.359  31.506  11.426
30779W        W 3072  33.082   6.191  14.794
30780W        W 3073   6.398  21.139  14.884
30781W        W 3074  21.629  20.587   1.279
30782W        W 3075  26.073  31.912   0.908
30783W        W 3076  17.704  28.959   1.219
30784W        W 3077  40.850  19.645  13.539
30785W        W 3078  23.632  18.076   4.751
30786W        W 3079  30.149  11.158  12.961
30787W        W 3080   3.385  29.549   4.323
30788W        W 3081   3.845   6.816   0.796
30789W        W 3082  42.408  28.108  12.823
30790W        W 3083   2.465  12.162   4.318
30791W        W 3084  18.556   6.710  11.034
30792W        W 3085  36.387  19.149   0.361
30793W        W 3086   9.815  16.185   3.820
30794W        W 3087   0.913  14.321  10.448
30795W        W 3088  18.294  20.171   3.275
30796W        W 3089  21.666  29.508  13.861
30797W        W 3090  35.889  27.967  11.568
30798W        W 3091  10.632  26.685   4.702
30799W        W 3092  34.074  17.296   0.926
30800W        W 3093  16.633  14.240   5.082
30801W        W 3094  27.987  12.635  11.035
30802W        W 3095  20.092  34.112  12.012
30803W        W 3096  33.395  13.163  10.079
30804W        W 3097  35.043  20.685   4.289
30805W        W 3098  36.384  20.612  11.095
30806W        W 3099  34.594   2.885   1.408
30807W        W 3100  30.463  41.371   4.777
30808W        W 3101  15.203  29.110   0.281
30809W        W 3102  19.742  15.677   0.941
30810W        W 3103  25.577   0.393   3.820
30811W        W 3104  34.103  14.644  13.324
30812W        W 3105  29.515  17.252  14.853
30813W        W 3106  34.481  33.016  14.781
30814W        W 3107   0.427  21.554  10.926
30815W        W 3108  11.721  13.625   4.166
30816W        W 3109   9.206  20.635  12.546
30817W        W 3110   9.862   8.664  13.366
30818W        W 3111  39.465   5.887  14.792
30819W        W 3112  29.567  30.016  13.023
30820W        W 3113  27.114  35.473  11.083
30821W        W 3114   2.954  38.898   1.897
30822W        W 3115  33.017  16.801  10.614
30823W        W 3116   8.360  24.589   2.355
30824W        W 3117  11.670  27.577   4.344
30825W        W 3118  33.065  20.074   0.833
30826W        W 3119  28.106  34.550  10.460
30827W        W 3120  25.065   4.755  11.374
30828W        W 3121  32.011  29.084   1.730
30829W        W 3122   1.946  22.191  13.307
30830W        W 3123  20.152  33.412   3.310
30831W        W 3124  44.803   1.333   3.173
30832W        W 3125  44.998  33.422   0.869
30833W        W 3126  30.149   9.294   5.279
30834W        W 3127   3.458  24.485   2.305
30835W        W 3128  44.331  43.488   4.169
30836W        W 3129  38.063   7.790   0.957
30837W        W 3130   1.961  19.652  12.001
30838W        W 3131  20.761  38.353   0.467
30839W        W 3132  43.432  28.112   4.277
30840W        W 3133  31.536  43.377  14.375
30841W        W 3134  12.837   2.881  11.373
30842W        W 3135  22.728  43.806   2.316
30843W        W 3136   9.171   1.306  14.856
30844W        W 3137   4.888  25.686   4.765
30845W        W 3138  18.198  36.456  12.340
30846W        W 3139  23.675   0.362   0.419
30847W        W 3140  34.385  29.570  12.519
30848W        W 3141  18.748  39.543  13.331
30849W        W 3142  32.411  24.092  10.607
30850W        W 3143  30.572  16.652  11.562
30851W        W 3144  42.371  42.016   1.348
30852W        W 3145  20.702   2.886  14.431
30853W        W 3146   5.855  20.537   3.787
30854W        W 3147  12.699   1.849   9.674
30855W        W 3148  26.667  11.173   3.717
30856W        W 3149   7.297   5.317   0.895
30857W        W 3150  22.624  38.833  10.003
30858W        W 3151  15.587  39.542  13.948
30859W        W 3152  17.585  44.344  14.349
30860W        W 3153  22.740  32.391   4.270
30861W        W 3154   7.322  41.829   1.889
30862W        W 3155  13.298  10.243  10.498
30863W        W 3156   8.818  31.132   4.198
30864W        W 3157  34.120  27.142   3.375
30865W        W 3158  22.196  13.792   3.225
30866W        W 3159   2.383   3.831   1.867
30867W        W 3160   5.233  16.274   2.808
30868W        W 3161  14.223  41.429   2.812
30869W        W 3162  10.167   9.733   4.622
30870W        W 3163  17.295  18.565   2.832
30871W        W 3164  22.618  28.456   2.731
30872W        W 3165  39.064  25.685   4.179
30873W        W 3166   4.407  32.062   2.331
30874W        W 3167   6.796  33.924   3.384
30875W        W 3168  12.661  29.076   3.685
30876W        W 3169   5.802  33.940  12.378
30877W        W 3170  36.957   8.261  14.761
30878W        W 3171   9.793  36.397   1.772
30879W        W 3172  25.137  33.999  12.063
30880W        W 3173   9.828  22.104  14.025
30881W        W 3174  42.399  34.880  14.762
30882W        W 3175  15.195  37.054  13.499
30883W        W 3176  42.325  28.574   3.146
30884W        W 3177  44.394  29.654  10.581
30885W        W 3178   0.778  11.676  12.425
30886W        W 3179  34.440  15.219   1.769
30887W        W 3180  26.979  12.816  14.983
30888W        W 3181  15.246  43.400  13.369
30889W        W 3182  32.595   2.802   1.282
30890W        W 3183   1.421   6.409  11.942
30891W        W 3184   0.862   7.288   4.318
30892W        W 3185  36.087  37.838  11.038
30893W        W 3186  16.137  39.380  12.353
30894W        W 3187   6.254  37.582  13.463
30895W        W 3188   1.850  11.342  12.997
30896W        W 3189   6.844  23.699   3.279
30897W        W 3190   7.817  37.463  10.081
30898W        W 3191   4.268  27.460  12.541
30899W        W 3192  16.691  40.397  12.023
30900W        W 3193   3.216  32.963  14.896
30901W        W 3194  29.155  25.548  10.499
30902W        W 3195  10.743  23.170  10.476
30903W        W 3196  26.053  24.057  10.499
30904W        W 3197  29.175  18.752  12.496
30905W        W 3198   0.424  22.693  14.761
30906W        W 3199  20.534  36.374   0.883
30907W        W 3200  10.821  44.888  11.592
30908W        W 3201  18.713  25.539   0.822
30909W        W 3202  10.339  32.552  14.823
30910W        W 3203  20.598  12.647   3.285
30911W        W 3204  29.973   4.942  11.965
30912W        W 3205  18.722  16.089  13.527
30913W        W 3206  31.962  34.092  12.018
30914W        W 3207  17.771  40.830  12.853
30915W        W 3208  23.515  22.086  10.994
30916W        W 3209  33.487   9.310  12.068
30917W        W 3210  30.018  41.948   4.733
30918W        W 3211  23.567   5.201  11.549
30919W        W 3212  42.790  10.805  12.962
30920W        W 3213  42.908   0.972   5.306
30921W        W 3214  37.561  35.854  14.022
30922W        W 3215  31.483  20.622   4.669
30923W        W 3216  25.133  35.504   1.797
30924W        W 3217  34.497  11.678  14.333
30925W        W 3218  12.704  25.986  12.900
30926W        W 3219  10.376  30.926  13.980
30927W        W 3220  36.966   6.712   1.897
30928W        W 3221  11.638  12.848   4.189
30929W        W 3222  31.584  36.065  13.463
30930W        W 3223   4.699  42.015   3.313
30931W        W 3224  39.808  13.777  14.281
30932W        W 3225   4.774  34.421   2.266
30933W        W 3226  23.594  12.325  10.943
30934W        W 3227   5.430  24.111   1.733
30935W        W 3228  15.641  24.630   4.334
30936W        W 3229  32.508  43.938  12.410
30937W        W 3230   8.398   6.185   0.754
30938W        W 3231  36.053  32.444  13.542
30939W        W 3232  24.168  18.788   5.126
30940W        W 3233   8.362  44.500  13.532
30941W        W 3234   4.341  20.216   3.160
30942W        W 3235  22.053  16.136  14.816
30943W        W 3236  32.080  25.110  13.912
30944W        W 3237  12.798  41.485  10.587
30945W        W 3238   5.236  40.359  13.323
30946W        W 3239  39.360  38.396   0.421
30947W        W 3240   9.776  35.860   3.277
30948W        W 3241  33.626   0.366   3.787
30949W        W 3242  18.239  19.247  10.992
30950W        W 3243  10.683   9.658   4.326
30951W        W 3244  39.384  16.186   3.261
30952W        W 3245   8.835  14.626   3.341
30953W        W 3246  12.626  44.006   3.328
30954W        W 3247  27.460  25.683  14.806
30955W        W 3248   6.298  28.162  14.414
30956W        W 3249  23.125  36.858   2.667
30957W        W 3250  27.686  16.286  11.003
30958W        W 3251   0.462  24.101  11.558
30959W        W 3252  27.131  11.799   9.937
30960W        W 3253  15.180  40.932   4.622
30961W        W 3254   7.256  22.015  13.858
30962W        W 3255  34.421   4.266   1.887
30963W        W 3256  35.590   4.846   2.816
30964W        W 3257  39.030   2.285  13.858
30965W        W 3258  27.076  23.202  11.560
30966W        W 3259  38.962  33.546  12.468
30967W        W 3260  38.496  28.982   4.206
30968W        W 3261  35.454   2.747  10.416
30969W        W 3262  35.435   9.676   0.482
30970W        W 3263  15.669  37.027   1.227
30971W        W 3264  41.409  23.505   1.916
30972W        W 3265   9.174  42.450   1.919
30973W        W 3266   5.297  25.000  12.952
30974W        W 3267  27.634  14.778   1.412
30975W        W 3268  23.645  34.541   0.930
30976W        W 3269  44.903  36.569   4.257
30977W        W 3270  31.639  27.485   0.918
30978W        W 3271  17.204  41.446  12.350
30979W        W 3272  23.199  29.428  11.891
30980W        W 3273  40.913  37.020  14.911
30981W        W 3274  43.811  18.651  11.472
30982W        W 3275  35.389  35.008   2.229
30983W        W 3276  23.550  31.455  12.390
30984W        W 3277  39.820   4.417   2.272
30985W        W 3278  18.153   4.281   2.346
30986W        W 3279   3.787  24.506  11.481
30987W        W 3280  41.013  39.819   2.759
30988W        W 3281  12.315  22.029  11.380
30989W        W 3282  41.412  40.336  14.982
30990W        W 3283  33.400  29.649  13.439
30991W        W 3284   1.267   1.325  13.361
30992W        W 3285   9.306  15.706  12.964
30993W        W 3286  42.292  29.550  10.512
30994W        W 3287  20.598  39.019   0.928
30995W        W 3288  28.550  39.832  11.083
30996W        W 3289   3.263  26.482  11.062
30997W        W 3290  32.623  17.073   0.441
30998W        W 3291  11.272   8.356   4.129
30999W        W 3292   8.188   2.880  13.043
31000W        W 3293  17.265  26.473  14.956
31001W        W 3294  16.155  34.032   1.254
31002W        W 3295  24.533  35.874  13.314
31003W        W 3296  10.252  29.138   1.241
31004W        W 3297   9.793  16.158   0.963
31005W        W 3298  29.538  15.771  11.504
31006W        W 3299  27.107  30.519  10.122
31007W        W 3300  20.683  35.561  14.763
31008W        W 3301  37.064  30.073   4.606
31009W        W 3302  30.607  39.820   4.790
31010W        W 3303  10.786  29.055  13.054
31011W        W 3304  40.453  43.967   5.733
31012W        W 3305   7.242  36.864   4.224
31013W        W 3306  18.129  38.062   0.418
31014W        W 3307  37.435  17.134  12.053
31015W        W 3308  15.787  24.604  12.375
31016W        W 3309  14.800  24.717  14.344
31017W        W 3310  41.524  26.980   1.893
31018W        W 3311  19.271   5.899   4.185
31019W        W 3312   8.727  26.151   1.910
31020W        W 3313  17.768  30.523  13.498
31021W        W 3314   3.955  42.447   1.347
31022W        W 3315   1.317  39.864  10.947
31023W        W 3316  34.026  40.008   4.751
31024W        W 3317   3.429  37.988  11.569
31025W        W 3318  15.629  42.863   0.886
31026W        W 3319  25.996  15.785   0.782
31027W        W 3320  23.553  40.507   2.880
31028W        W 3321  32.138   7.239   1.428
31029W        W 3322   8.382   0.831   1.282
31030W        W 3323  26.003   7.787  13.533
31031W        W 3324  18.261   6.306   3.295
31032W        W 3325  24.056  39.403   1.879
31033W        W 3326  28.508   0.304  14.810
31034W        W 3327  16.759  10.292  11.004
31035W        W 3328  24.694  24.056   0.810
31036W        W 3329  10.695  39.952  11.904
31037W        W 3330   9.262  39.052   2.868
31038W        W 3331  43.322  15.798   9.945
31039W        W 3332   1.336  13.313   2.189
31040W        W 3333  24.210  42.501  11.921
31041W        W 3334  25.071   9.162  12.920
31042W        W 3335  28.143  42.364  14.878
31043W        W 3336  18.197   5.743   1.365
31044W        W 3337   6.802   3.382  12.580
31045W        W 3338  25.618  22.156  12.997
31046W        W 3339  14.591  40.847   1.921
31047W        W 3340  14.198  18.686  10.517
31048W        W 3341  18.776  44.816   1.405
31049W        W 3342   1.297   6.750   0.797
31050W        W 3343  25.981  33.991   0.341
31051W        W 3344   0.776  24.479  13.314
31052W        W 3345  29.575  10.206   4.658
31053W        W 3346  34.552  32.066  12.530
31054W        W 3347  42.916  35.481  12.481
31055W        W 3348   4.388   0.343   3.799
31056W        W 3349  25.502  42.788  10.156
31057W        W 3350  16.198  31.091   4.710
31058W        W 3351   5.430  13.188   4.140
31059W        W 3352  18.716  29.651  10.416
31060W        W 3353  41.491  24.639  12.944
31061W        W 3354  10.210  15.668   1.784
31062W        W 3355  16.748  21.640  12.007
31063W        W 3356  23.735  10.204  12.852
31064W        W 3357  25.057   4.738   5.225
31065W        W 3358  42.378  14.129  11.597
31066W        W 3359  37.407  29.924   2.705
31067W        W 3360  10.635  24.694   2.870
31068W        W 3361  26.505  17.133   4.625
31069W        W 3362  28.960  27.488   3.208
31070W        W 3363  42.783  34.399  12.537
31071W        W 3364  44.982  14.317  12.374
31072W        W 3365  25.709  16.298  12.528
31073W        W 3366   8.670  30.117  10.911
31074W        W 3367  38.825  21.692   0.381
31075W        W 3368   6.189   3.789  12.402
31076W        W 3369   2.446  16.587   0.403
31077W        W 3370   2.903  37.999  10.888
31078W        W 3371  23.699  38.822  10.965
31079W        W 3372   0.823  27.141   0.361
31080W        W 3373  21.139  28.456   1.789
31081W        W 3374   3.764  35.942   3.239
31082W        W 3375  39.551  25.173  13.430
31083W        W 3376   9.187  24.534   3.260
31084W        W 3377  28.469  39.972  13.793
31085W        W 3378   1.345  37.467  11.073
31086W        W 3379   1.825   4.360  14.430
31087W        W 3380  10.667  13.311  12.401
31088W        W 3381  36.847  42.472  12.371
31089W        W 3382   4.302   7.828  13.483
31090W        W 3383  11.167  36.450   1.764
31091W        W 3384  25.987  25.199  12.946
31092W        W 3385  15.182  18.548  14.459
31093W        W 3386  44.422  39.836  11.066
31094W        W 3387   5.799   7.894  11.984
31095W        W 3388  29.086   8.350  10.596
31096W        W 3389  20.041  25.185   3.269
31097W        W 3390  33.997  34.086   4.350
31098W        W 3391  24.024  14.599   0.279
31099W        W 3392  33.609  15.603   2.208
31100W        W 3393  38.992  23.509   2.812
31101W        W 3394  16.802   2.962   3.358
31102W        W 3395  19.615  13.347  12.914
31103W        W 3396   2.303  36.088   2.738
31104W        W 3397  37.536  19.177  11.492
31105W        W 3398  12.611   3.735  14.339
31106W        W 3399   5.330  29.534  12.386
31107W        W 3400   2.240   8.182   3.676
31108W        W 3401   1.822   1.306  13.013
31109W        W 3402  21.661  43.436   1.260
31110W        W 3403  33.113   6.727  14.321
31111W        W 3404  28.081  43.510  14.486
31112W        W 3405  15.594  43.492  14.814
31113W        W 3406  38.061   6.722   3.186
31114W        W 3407  28.977  26.638   3.769
31115W        W 3408  20.187  22.144  10.539
31116W        W 3409  40.512   2.723   4.162
31117W        W 3410  44.402  10.140   0.379
31118W        W 3411  33.891  32.469   3.156
31119W        W 3412  38.925  31.025   2.290
31120W        W 3413  21.598  22.997   4.600
31121W        W 3414  30.139   7.730  13.014
31122W        W 3415  14.792  31.912   4.810
31123W        W 3416  35.381  21.644  13.907
31124W        W 3417  21.653  34.047   0.471
31125W        W 3418  21.230  38.470  13.451
31126W        W 3419  22.532   6.717  10.993
31127W        W 3420   6.800  35.910   9.493
31128W        W 3421  17.188   2.735   9.980
31129W        W 3422  29.033  35.554  12.362
31130W        W 3423  39.541  28.438   2.237
31131W        W 3424  43.785  44.850   4.810
31132W        W 3425  15.590   0.487  11.586
31133W        W 3426  25.084  36.378   1.341
31134W        W 3427  30.048   1.400   1.828
31135W        W 3428  23.242  18.098  11.562
31136W        W 3429   6.294  41.994  13.319
31137W        W 3430   7.339  23.575   1.912
31138W        W 3431  24.592  10.638   0.871
31139W        W 3432  44.441  44.874   2.399
31140W        W 3433  38.935  23.116  10.087
31141W        W 3434   7.788  25.652   2.811
31142W        W 3435  10.250   2.386  14.290
31143W        W 3436  13.748   3.407  11.030
31144W        W 3437   6.204  25.599   0.825
31145W        W 3438  27.619  33.044   4.725
31146W        W 3439  14.172  28.989  11.992
31147W        W 3440  33.922  18.778   2.768
31148W        W 3441  22.667  37.950  13.488
31149W        W 3442  28.656   3.230   2.308
31150W        W 3443  42.881  23.640   4.297
31151W        W 3444  37.505   0.331  12.524
31152W        W 3445  11.694  18.126  10.124
31153W        W 3446  38.879  44.395  14.278
31154W        W 3447  13.701  39.013   1.766
31155W        W 3448  31.426  24.518   4.802
31156W        W 3449  14.792  36.949  14.387
31157W        W 3450  39.535  32.610  12.516
31158W        W 3451  15.806  28.980   4.175
31159W        W 3452  37.996   0.926  10.585
31160W        W 3453  27.041  17.772  12.519
31161W        W 3454  21.137  35.371   0.804
31162W        W 3455  44.776  18.657   4.326
31163W        W 3456  24.062  31.486   2.195
31164W        W 3457  18.070   0.370   4.811
31165W        W 3458  25.676   8.747   2.664
31166W        W 3459  34.371  33.580   0.417
31167W        W 3460  31.556  21.749   2.230
31168W        W 3461   8.301  37.448  14.908
31169W        W 3462  14.162  31.149   5.221
31170W        W 3463  10.300  28.138   5.316
31171W        W 3464   9.778  36.053   2.898
31172W        W 3465  43.984   5.331  12.897
31173W        W 3466  17.619  44.469  13.872
31174W        W 3467  23.657   2.781  11.557
31175W        W 3468  12.617   3.314  12.928
31176W        W 3469   9.363   5.370   0.966
31177W        W 3470  37.576  22.238  13.036
31178W        W 3471   8.877   6.905  11.894
31179W        W 3472  18.740  42.845  11.044
31180W        W 3473   8.360  40.917   4.128
31181W        W 3474  31.099  16.620  13.546
31182W        W 3475  24.712  16.776   3.384
31183W        W 3476   9.805  43.362   0.359
31184W        W 3477  23.073  25.660  14.877
31185W        W 3478  11.201  42.373   0.343
31186W        W 3479  17.293  32.036  11.951
31187W        W 3480  24.053  11.182   0.880
31188W        W 3481  27.581  29.518  11.866
31189W        W 3482  38.412   5.737   2.900
31190W        W 3483   8.398  43.947   4.631
31191W        W 3484   5.871   5.844  11.025
31192W        W 3485  11.200  41.341   3.347
31193W        W 3486  14.696  18.222   3.210
31194W        W 3487  42.466   5.438   4.614
31195W        W 3488  24.649  19.089  13.536
31196W        W 3489  19.055   7.232  14.395
31197W        W 3490  10.695  14.699  13.448
31198W        W 3491  36.082  15.115  12.008
31199W        W 3492  24.038  26.505   1.380
31200W        W 3493  18.295   8.753  13.892
31201W        W 3494  25.657   6.273  12.553
31202W        W 3495  33.965   5.393  14.364
31203W        W 3496  10.169   1.243   0.869
31204W        W 3497  31.480  36.933  10.908
31205W        W 3498  40.907  34.597  14.469
31206W        W 3499   2.941  15.246   3.689
31207W        W 3500  39.827  37.967  13.811
31208W        W 3501  39.479  42.030   4.145
31209W        W 3502   5.205  22.556  11.425
31210W        W 3503   7.795  22.029  14.854
31211W        W 3504   7.299  12.667  12.516
31212W        W 3505   1.817  31.055   3.786
31213W        W 3506  17.085   0.283  14.430
31214W        W 3507  36.899  14.730   1.331
31215W        W 3508   6.206  25.135   2.182
31216W        W 3509   9.238  31.076  11.051
31217W        W 3510  28.576  10.815   0.902
31218W        W 3511  39.977   8.309  14.855
31219W        W 3512  41.865  42.375   0.263
31220W        W 3513   2.412  24.575   3.296
31221W        W 3514  39.843  40.362   0.867
31222W        W 3515  28.031  12.755  13.533
31223W        W 3516   1.949   9.347  12.957
31224W        W 3517  33.544  43.487   2.895
31225W        W 3518  28.500  22.503   2.323
31226W        W 3519  19.534  42.305  13.019
31227W        W 3520   7.877   7.729  12.063
31228W        W 3521   1.771  38.469  14.797
31229W        W 3522  25.570  36.987   1.258
31230W        W 3523  41.798   8.729   4.163
31231W        W 3524  15.118   0.255   0.432
31232W        W 3525   7.741  36.886   0.399
31233W        W 3526  23.563  37.486   1.871
31234W        W 3527  16.780  10.780  11.100
31235W        W 3528  18.220  44.778  14.812
31236W        W 3529  38.034  25.590   4.148
31237W        W 3530  14.193  38.046   5.223
31238W        W 3531   0.792  31.939   5.232
31239W        W 3532   6.347  28.577  14.404
31240W        W 3533  41.500  11.669   2.678
31241W        W 3534  30.985   3.398   3.260
31242W        W 3535  22.533  35.543  13.450
31243W        W 3536  35.388  18.774   0.939
31244W        W 3537  19.202  37.961  13.032
31245W        W 3538  44.284  36.522   5.214
31246W        W 3539  14.321  30.553   3.313
31247W        W 3540   8.739  30.593  10.154
31248W        W 3541   0.332  34.017   3.383
31249W        W 3542  35.037  26.185  11.469
31250W        W 3543  11.681  41.337   2.767
31251W        W 3544  37.069  10.316   1.804
31252W        W 3545   0.341  41.372   2.256
31253W        W 3546   0.761  37.559  12.540
31254W        W 3547  37.454  12.810  13.998
31255W        W 3548  16.190   3.233   4.713
31256W        W 3549   4.739  18.756  11.969
31257W        W 3550  41.415   7.305  14.920
31258W        W 3551  38.988  43.778   1.812
31259W        W 3552  19.744  31.928   1.214
31260W        W 3553  34.870   4.411  13.358
31261W        W 3554  17.208  15.136   0.302
31262W        W 3555   5.429  25.988  11.510
31263W        W 3556  23.047   1.865  11.108
31264W        W 3557  42.788  31.535   0.430
31265W        W 3558   3.849  19.215  13.810
31266W        W 3559  43.923  26.589   2.730
31267W        W 3560  10.711   2.321   2.280
31268W        W 3561  33.029  42.322   4.623
31269W        W 3562  22.135   7.907   0.782
31270W        W 3563  35.895  30.521   4.181
31271W        W 3564   2.405   1.842  11.401
31272W        W 3565  38.426  16.115  11.004
31273W        W 3566   7.383  20.267   1.243
31274W        W 3567  15.315  22.227   0.956
31275W        W 3568  39.942  25.595   3.755
31276W        W 3569  37.502  18.586  13.031
31277W        W 3570  41.805  30.412   0.837
31278W        W 3571   6.225  20.749  12.907
31279W        W 3572   2.401  16.618  12.551
31280W        W 3573  18.649  18.080   4.613
31281W        W 3574  26.186  34.943  11.502
31282W        W 3575  32.919   1.333   4.147
31283W        W 3576  23.998  22.717   0.881
31284W        W 3577  13.266  23.102  14.965
31285W        W 3578  15.702  10.164  14.931
31286W        W 3579  25.524  20.204  14.396
31287W        W 3580   5.348   7.748   3.365
31288W        W 3581   6.196  28.109  10.900
31289W        W 3582  22.248  24.203   2.663
31290W        W 3583  42.460  23.145  12.414
31291W        W 3584  41.526  10.181  13.980
31292W        W 3585   9.181  23.699  10.643
31293W        W 3586   0.987  37.511  13.479
31294W        W 3587  11.681  20.223  11.474
31295W        W 3588  11.640  29.447  11.527
31296W        W 3589  44.808  34.958  10.624
31297W        W 3590  25.656  26.615  10.553
31298W        W 3591   7.199  19.240   4.142
31299W        W 3592  44.449   2.447  13.793
31300W        W 3593   4.746   2.314  10.939
31301W        W 3594  21.164  43.465  10.412
31302W        W 3595  22.199  19.773  12.563
31303W        W 3596   5.362   9.322   3.635
31304W        W 3597  34.970  23.604  13.343
31305W        W 3598  13.167   0.419  14.356
31306W        W 3599  22.575  10.732  13.506
31307W        W 3600   6.813  15.098  13.959
31308W        W 3601  14.740  18.296  14.304
31309W        W 3602  12.635  16.627   3.654
31310W        W 3603  19.565  15.702   5.211
31311W        W 3604  16.795   3.871  14.440
31312W        W 3605  43.934  21.713   3.660
31313W        W 3606  39.914   1.411   4.159
31314W        W 3607   6.880  14.607  14.856
31315W        W 3608  32.010  21.146  11.017
31316W        W 3609  42.474   2.764  13.515
31317W        W 3610  24.688  39.364   4.650
31318W        W 3611  38.044  17.738   2.406
31319W        W 3612  30.435  29.957  11.084
31320W        W 3613  22.720  20.722  12.424
31321W        W 3614  16.673  32.423  14.948
31322W        W 3615   5.918  24.646   3.243
31323W        W 3616  11.713  25.114  13.538
31324W        W 3617  25.192   4.700  14.345
31325W        W 3618  44.841  30.537  10.953
31326W        W 3619  27.105  34.460   4.776
31327W        W 3620   4.795   7.345  10.961
31328W        W 3621  30.421   7.838  11.482
31329W        W 3622  14.814  44.838  11.541
31330W        W 3623  14.818  18.780   4.813
31331W        W 3624  37.992  19.261   1.926
31332W        W 3625  41.478   8.254  13.501
31333W        W 3626  31.148   0.402   2.335
31334W        W 3627   0.928  35.082   3.186
31335W        W 3628  20.528  33.118  11.062
31336W        W 3629   4.730  43.898   3.167
31337W        W 3630  27.000  28.640   4.294
31338W        W 3631  25.491  17.153   2.696
31339W        W 3632  35.396   7.680   2.840
31340W        W 3633   1.443  21.580   0.855
31341W        W 3634  17.065  43.814   4.618
31342W        W 3635  31.913  17.077  11.055
31343W        W 3636   2.409  11.782   4.268
31344W        W 3637  30.154  22.710  11.529
31345W        W 3638  15.276  42.869   4.672
31346W        W 3639  40.883  35.972   4.679
31347W        W 3640  43.313  34.583   4.638
31348W        W 3641   9.190  32.005   0.473
31349W        W 3642  16.797   8.388  14.018
31350W        W 3643  18.236  28.936   1.234
31351W        W 3644   0.815  31.935  14.807
31352W        W 3645  13.303  35.416  13.345
31353W        W 3646  43.394  13.180  10.940
31354W        W 3647  39.397  15.269  14.779
31355W        W 3648   8.241  27.064   1.761
31356W        W 3649  36.882  12.133   4.778
31357W        W 3650  17.195  20.722  11.487
31358W        W 3651  35.415   8.718   2.325
31359W        W 3652  26.030   6.832  14.027
31360W        W 3653  27.615  11.155  14.000
31361W        W 3654  32.420  27.169  12.339
31362W        W 3655  21.749  31.603   2.410
31363W        W 3656  23.171  26.516   2.680
31364W        W 3657  11.360  30.569  13.931
31365W        W 3658  31.008  12.191   3.701
31366W        W 3659  10.154  20.769  12.874
31367W        W 3660  36.948  21.750  12.566
31368W        W 3661  30.594   2.256   3.372
31369W        W 3662  24.583  27.619   1.892
31370W        W 3663   2.864  15.779  12.954
31371W        W 3664   5.434  27.561   3.633
31372W        W 3665  36.898  34.466   1.449
31373W        W 3666  12.689   1.808   9.948
31374W        W 3667  20.641  27.484  12.379
31375W        W 3668   7.395  38.910  13.985
31376W        W 3669   8.849  24.003   0.936
31377W        W 3670   0.430   0.929   3.183
31378W        W 3671   2.732  13.156   0.384
31379W        W 3672  28.049  36.352   1.351
31380W        W 3673  27.141  38.404   0.751
31381W        W 3674  25.690  28.523   3.646
31382W        W 3675  13.738  28.536   1.335
31383W        W 3676   2.413   6.897   0.462
31384W        W 3677  19.653  30.469   1.321
31385W        W 3678  16.618  33.506  11.940
31386W        W 3679  28.988  18.073  11.043
31387W        W 3680  30.571  15.089   4.188
31388W        W 3681  16.754  17.094  12.405
31389W        W 3682   6.366  23.231   4.684
31390W        W 3683   6.359  44.930  14.763
31391W        W 3684  30.107  24.541   3.713
31392W        W 3685  40.045   6.728  10.630
31393W        W 3686  15.820  38.821  13.888
31394W        W 3687  33.539  32.014  12.382
31395W        W 3688  41.011  26.088   1.285
31396W        W 3689   4.902  23.665  10.471
31397W        W 3690  43.851  20.742  13.320
31398W        W 3691  41.453  40.943   4.184
31399W        W 3692  41.309  34.894  12.020
31400W        W 3693   5.918  26.170  12.053
31401W        W 3694  27.611  44.474   4.742
31402W        W 3695  26.034  22.649   5.263
31403W        W 3696   2.900  12.851  12.421
31404W        W 3697  28.573  22.136   3.264
31405W        W 3698  31.071  15.704  13.463
31406W        W 3699  15.310  42.513  12.877
31407W        W 3700  10.805  25.592  13.926
31408W        W 3701  36.998   5.383   4.208
31409W        W 3702   7.389  35.947   2.666
31410W        W 3703   0.811  42.992   0.800
31411W        W 3704  31.033   0.745   0.322
31412W        W 3705  26.086  28.664   2.731
31413W        W 3706  39.401  38.491  12.379
31414W        W 3707  26.514   1.740  11.575
31415W        W 3708   5.826   9.218  12.029
31416W        W 3709  11.160  12.622   1.356
31417W        W 3710  16.093  32.423   0.835
31418W        W 3711   6.851  30.651   4.820
31419W        W 3712  42.340  29.067  14.953
31420W        W 3713  28.991  35.965   4.204
31421W        W 3714  11.681  33.880  14.419
31422W        W 3715  33.404  27.533   1.384
31423W        W 3716  27.539  22.030   1.279
31424W        W 3717  21.730  31.001  11.065
31425W        W 3718  29.950   6.404   1.814
31426W        W 3719  30.488  42.495  10.945
31427W        W 3720  26.033  34.926  13.836
31428W        W 3721  26.666  43.504  14.951
31429W        W 3722   9.712  30.984   4.121
31430W        W 3723  30.977  23.613   3.237
31431W        W 3724  16.084  30.574  13.881
31432W        W 3725  13.781  17.235   4.323
31433W        W 3726  19.719   8.207  12.418
31434W        W 3727   2.349  20.696  14.366
31435W        W 3728   5.842  15.178  14.284
31436W        W 3729  27.041  30.048  10.598
31437W        W 3730  16.667  32.507   3.754
31438W        W 3731   5.272  41.929   2.873
31439W        W 3732  11.352  26.692  11.889
31440W        W 3733  13.795  11.151  13.934
31441W        W 3734   8.770  21.169   4.736
31442W        W 3735  12.199  37.484  10.516
31443W        W 3736  34.517  38.566  12.074
31444W        W 3737  18.706   3.458   3.195
31445W        W 3738  33.546  18.609  12.466
31446W        W 3739  26.180  25.092   1.397
31447W        W 3740  21.130  25.987  14.386
31448W        W 3741   8.193  30.659   1.226
31449W        W 3742   7.185  21.743  13.852
31450W        W 3743  22.098  17.079   1.310
31451W        W 3744   0.339  28.932  10.552
31452W        W 3745  34.569  22.579   0.727
31453W        W 3746   8.726  25.142  14.000
31454W        W 3747  32.586   2.908   4.262
31455W        W 3748  19.577  32.440   9.436
31456W        W 3749  31.139   4.805   2.830
31457W        W 3750  19.632  42.500   0.769
31458W        W 3751   6.263  19.771  14.024
31459W        W 3752  31.448   2.271  13.328
31460W        W 3753  11.698  18.183  12.474
31461W        W 3754  39.474  15.214   4.175
31462W        W 3755  20.229  39.881   4.765
31463W        W 3756   8.734  42.912  12.379
31464W        W 3757   7.879  11.708   2.331
31465W        W 3758  35.985  31.505  11.545
31466W        W 3759  28.614  11.208   0.755
31467W        W 3760   7.410  31.467   4.202
31468W        W 3761  14.274  16.112  11.924
31469W        W 3762   0.777  21.248   1.423
31470W        W 3763  17.190  15.101  11.894
31471W        W 3764  15.745  14.624   1.897
31472W        W 3765   7.241  22.999  13.005
31473W        W 3766  19.665  40.941   3.643
31474W        W 3767   9.736  44.849  11.938
31475W        W 3768  30.003  23.554   1.434
31476W        W 3769  12.320  13.778  11.588
31477W        W 3770  19.199  41.803  12.841
31478W        W 3771  13.603  38.862  10.927
31479W        W 3772  12.693  26.458  11.987
31480W        W 3773  35.550  32.069   3.864
31481W        W 3774   6.813  18.708   4.252
31482W        W 3775  14.623  12.751   4.199
31483W        W 3776  12.166  36.411   2.670
31484W        W 3777  13.218  28.457  14.483
31485W        W 3778  44.433  38.330  11.996
31486W        W 3779  21.259   7.200   0.807
31487W        W 3780  37.015  41.348  11.481
31488W        W 3781  29.149  10.272  14.884
31489W        W 3782  21.712  43.794  13.345
31490W        W 3783   8.872  30.583   2.390
31491W        W 3784  34.003  25.188  12.856
31492W        W 3785  36.986  22.202  13.366
31493W        W 3786  43.922  42.489  10.933
31494W        W 3787  31.939  22.154  11.540
31495W        W 3788  30.085  22.059  13.841
31496W        W 3789  28.476  39.844   4.732
31497W        W 3790  23.118  39.498   4.709
31498W        W 3791   1.865   7.838  12.528
31499W        W 3792  33.427   0.255  10.932
31500W        W 3793  39.982  19.162  10.507
31501W        W 3794  10.210  44.766   4.712
31502W        W 3795  36.514  44.980   2.868
31503W        W 3796  17.082  15.146  14.379
31504W        W 3797   9.818   7.873   1.298
31505W        W 3798   4.881  10.716  12.487
31506W        W 3799  36.554  15.221  11.426
31507W        W 3800  26.190   1.470   2.697
31508W        W 3801  26.583  43.800  14.966
31509W        W 3802  35.374  13.121   4.123
31510W        W 3803  15.109  11.257  12.981
31511W        W 3804  36.483  20.742  12.973
31512W        W 3805  26.614  14.591  13.331
31513W        W 3806   3.274  11.827   2.407
31514W        W 3807  29.968  29.605  14.487
31515W        W 3808  15.815  21.546   1.817
31516W        W 3809  19.750  31.539   1.256
31517W        W 3810   6.275  10.690   4.173
31518W        W 3811  11.631  44.381  12.389
31519W        W 3812   2.794  33.949  14.356
31520W        W 3813   1.319   9.210   4.688
31521W        W 3814  25.188   2.336  10.006
31522W        W 3815   2.291   5.857  14.821
31523W        W 3816  33.526  42.944   1.781
31524W        W 3817  19.080  20.711  13.435
31525W        W 3818  21.133  22.705  10.584
31526W        W 3819   4.831  16.158   1.812
31527W        W 3820  31.456  38.469   4.805
31528W        W 3821  33.979  38.427   4.198
31529W        W 3822  22.006   3.292   9.938
31530W        W 3823  26.644  41.035  13.803
31531W        W 3824  23.544  28.560   4.226
31532W        W 3825   1.302  14.117   0.456
31533W        W 3826  33.111  36.891   0.890
31534W        W 3827  18.625   9.313   2.221
31535W        W 3828  20.554  32.617   5.155
31536W        W 3829  43.972  17.130  13.463
31537W        W 3830  40.931  33.093   0.888
31538W        W 3831  40.486  14.123   4.154
31539W        W 3832  32.567  41.924   2.414
31540W        W 3833   7.295  18.120  14.483
31541W        W 3834   4.815  10.353   0.870
31542W        W 3835  44.409   4.714   5.118
31543W        W 3836  10.181  39.825  13.814
31544W        W 3837  14.203   3.846   1.715
31545W        W 3838  27.473   8.692   3.764
31546W        W 3839  17.077  32.960  12.447
31547W        W 3840  19.749  37.463   1.702
31548W        W 3841  19.174  42.429  10.485
31549W        W 3842  14.108  30.547  10.525
31550W        W 3843  22.698  42.946  13.345
31551W        W 3844   6.819  33.528   1.306
31552W        W 3845  11.848   5.417   4.301
31553W        W 3846   2.420   4.783   2.349
31554W        W 3847  21.104  32.514   3.147
31555W        W 3848  31.022  32.977   2.683
31556W        W 3849   9.275  25.485  11.913
31557W        W 3850  42.784  16.780  13.902
31558W        W 3851  38.324  39.475   2.878
31559W        W 3852  25.197  10.282   5.314
31560W        W 3853  11.831   2.390   2.198
31561W        W 3854  39.490  24.224  13.522
31562W        W 3855  20.769  32.522  14.936
31563W        W 3856  13.295  31.590   0.281
31564W        W 3857  40.981  39.862   0.357
31565W        W 3858  26.089  36.955  13.905
31566W        W 3859  22.079  41.025   0.913
31567W        W 3860  31.118  35.002   0.306
31568W        W 3861  30.559  15.674  12.936
31569W        W 3862   9.835  15.798   0.963
31570W        W 3863  13.817  27.181   0.269
31571W        W 3864  31.609  16.101  13.895
31572W        W 3865  10.345  10.799  11.061
31573W        W 3866  32.957  28.016   4.174
31574W        W 3867  32.044  25.634  11.013
31575W        W 3868   0.912  18.163  10.123
31576W        W 3869  12.149  42.388   1.442
31577W        W 3870  34.511  24.125   4.603
31578W        W 3871  16.072  16.127   3.240
31579W        W 3872   7.708   6.772  13.021
31580W        W 3873  29.988  21.046  11.611
31581W        W 3874  29.037   2.456  10.490
31582W        W 3875   9.345   8.656   9.970
31583W        W 3876   6.420  27.484  12.471
31584W        W 3877   2.941  33.449   1.313
31585W        W 3878  29.047  33.556   1.272
31586W        W 3879  14.754  18.594   3.695
31587W        W 3880  28.944  11.163   3.843
31588W        W 3881  13.304   9.200   1.289
31589W        W 3882   8.278  30.524  14.876
31590W        W 3883  30.071  35.475  13.046
31591W        W 3884  30.099  16.577   4.151
31592W        W 3885  24.723   0.900   0.249
31593W        W 3886   0.743  29.608   0.356
31594W        W 3887  19.215  38.500   3.307
31595W        W 3888  29.149  30.118   4.179
31596W        W 3889  25.136  26.110  13.879
31597W        W 3890   9.282  44.003   1.225
31598W        W 3891  27.958  32.893  12.357
31599W        W 3892  24.030  11.321  14.439
31600W        W 3893  16.602  23.723   3.352
31601W        W 3894  43.888  41.517  14.414
31602W        W 3895  10.656  20.589   0.808
31603W        W 3896  17.298  11.734  11.878
31604W        W 3897   5.231  27.147   1.789
31605W        W 3898   8.266  36.899   5.321
31606W        W 3899  28.604  23.207  13.048
31607W        W 3900  40.010  17.147   1.735
31608W        W 3901   7.828  15.114  13.824
31609W        W 3902  12.183  37.059   4.621
31610W        W 3903  13.145  28.537  12.485
31611W        W 3904  13.336   8.858  12.955
31612W        W 3905  10.192  26.197  12.017
31613W        W 3906  17.640  26.041   3.322
31614W        W 3907   1.308  33.518   4.677
31615W        W 3908  26.547  28.956  10.015
31616W        W 3909   4.352   7.387   1.900
31617W        W 3910  23.004  11.141   2.360
31618W        W 3911   8.682  38.486  14.848
31619W        W 3912  33.125  19.086   4.316
31620W        W 3913  22.170   8.889   1.766
31621W        W 3914  33.063   1.789   2.242
31622W        W 3915  21.093  14.223  13.000
31623W        W 3916  25.022  30.617   3.347
31624W        W 3917   4.206  31.981  14.505
31625W        W 3918   2.458  44.900   3.266
31626W        W 3919   7.399  30.029  14.470
31627W        W 3920  22.016  44.460  13.432
31628W        W 3921   8.310  33.032   1.274
31629W        W 3922   7.210  22.082   1.931
31630W        W 3923  18.214  37.376   0.832
31631W        W 3924  39.324   6.292  10.953
31632W        W 3925   3.822  43.015   2.893
31633W        W 3926  12.733  44.450   3.158
31634W        W 3927   9.820  38.412  14.456
31635W        W 3928  10.748  34.958   1.754
31636W        W 3929   4.273  41.846  13.310
31637W        W 3930  33.131   8.892  14.401
31638W        W 3931  33.886   4.412  10.633
31639W        W 3932   4.721  11.770   5.192
31640W        W 3933  28.183  42.478   0.950
31641W        W 3934  42.462  31.454  12.484
31642W        W 3935  33.556  25.492   3.741
31643W        W 3936  22.581  28.071   0.267
31644W        W 3937  27.625   0.310  14.373
31645W        W 3938  17.562  12.853   3.855
31646W        W 3939  35.089  39.013  11.531
31647W        W 3940   4.370  34.898  13.364
31648W        W 3941  17.143  36.556   4.778
31649W        W 3942   6.188  17.125   1.745
31650W        W 3943  22.225  40.518   0.876
31651W        W 3944  19.762  30.036   3.676
31652W        W 3945  35.948  26.609  14.404
31653W        W 3946  21.214  12.724   2.356
31654W        W 3947  27.030   6.375   0.827
31655W        W 3948  20.692  18.573   3.313
31656W        W 3949   4.360  22.130  13.990
31657W        W 3950  14.237  33.009   3.792
31658W        W 3951  29.925  22.067  10.604
31659W        W 3952   6.685  10.742   4.203
31660W        W 3953  17.135  12.155  12.411
31661W        W 3954  29.083   2.471  12.038
31662W        W 3955  20.265   6.868  11.490
31663W        W 3956  17.641  33.958   2.889
31664W        W 3957  23.564  10.152   4.606
31665W        W 3958  10.803  22.712   2.246
31666W        W 3959   1.432  25.163  13.019
31667W        W 3960  35.865  30.607  11.373
31668W        W 3961  38.984   3.227  10.563
31669W        W 3962  14.748  14.261  13.883
31670W        W 3963  36.912  32.045  11.507
31671W        W 3964   8.324  37.430  13.845
31672W        W 3965  43.902  30.091   4.252
31673W        W 3966   9.805  17.602   2.712
31674W        W 3967  15.638   1.254  10.994
31675W        W 3968  33.623   9.710  10.890
31676W        W 3969  37.930  30.566   1.392
31677W        W 3970  14.332  24.114   4.649
31678W        W 3971  30.622  24.647   3.860
31679W        W 3972   8.390   4.393   0.908
31680W        W 3973  34.467  25.962   0.884
31681W        W 3974   1.268   0.420  10.510
31682W        W 3975  10.267  26.526   1.854
31683W        W 3976  21.523  34.461  11.995
31684W        W 3977  15.301  41.436   2.396
31685W        W 3978  36.557  19.676   4.598
31686W        W 3979  29.027  17.205   1.769
31687W        W 3980   4.269  43.837   1.354
31688W        W 3981   3.889  24.036  12.379
31689W        W 3982  14.225  32.140   4.610
31690W        W 3983  10.636  36.392  13.546
31691W        W 3984  38.432   1.791   3.261
31692W        W 3985  28.622  44.377   1.235
31693W        W 3986   4.272  14.285  11.399
31694W        W 3987   0.772  19.248  14.485
31695W        W 3988  12.697   0.446  12.934
31696W        W 3989  30.613  25.582   4.311
31697W        W 3990  38.563  27.515  10.546
31698W        W 3991   5.719  21.697   4.319
31699W        W 3992  26.588  39.809   0.328
31700W        W 3993   3.763  18.654   0.828
31701W        W 3994  39.463   9.201  12.021
31702W        W 3995   2.265  26.986   3.733
31703W        W 3996  26.457  34.477  13.981
31704W        W 3997  12.671  14.126  10.497
31705W        W 3998  28.576  21.171  11.888
31706W        W 3999   1.785   6.341   3.761
31707W        W 4000  41.944  16.606  14.304
31708W        W 4001  11.333  29.146  11.979
31709W        W 4002   2.961  19.087   4.259
31710W        W 4003   9.261   5.877  13.314
31711W        W 4004  17.128   8.388  10.495
31712W        W 4005  30.563  20.144   1.735
31713W        W 4006  38.479  12.811  10.520
31714W        W 4007  37.880  41.998   2.802
31715W        W 4008  17.757  40.517  14.430
31716W        W 4009  44.390  34.539  12.875
31717W        W 4010  23.199  19.136   0.965
31718W        W 4011  43.407  35.954   3.744
31719W        W 4012  33.123  27.026  12.895
31720W        W 4013   2.937  18.126  12.958
31721W        W 4014  33.493  33.591   1.444
31722W        W 4015  19.190   4.889   4.744
31723W        W 4016   6.244   5.921   3.154
31724W        W 4017  16.123   9.150   0.962
31725W        W 4018  40.998  44.873   1.444
31726W        W 4019  35.107  30.553   1.254
31727W        W 4020  12.753  43.407   1.767
31728W        W 4021   2.757  14.240   0.328
31729W        W 4022   7.411  36.861  10.932
31730W        W 4023  21.211  31.510   4.201
31731W        W 4024  29.665  33.479  12.549
31732W        W 4025  41.965  15.126  12.894
31733W        W 4026  40.021  25.507  10.634
31734W        W 4027   0.448   4.797   0.848
31735W        W 4028  32.597  40.422   3.855
31736W        W 4029  15.696  16.238  13.865
31737W        W 4030   5.922  32.620   0.322
31738W        W 4031  18.684  35.589  11.612
31739W        W 4032  11.793  18.192  11.581
31740W        W 4033  36.093  19.558   0.838
31741W        W 4034  41.813   3.376   1.302
31742W        W 4035  42.310  23.017  11.418
31743W        W 4036   3.445   7.179  11.990
31744W        W 4037  42.380  16.629  10.083
31745W        W 4038  22.033  34.379  12.872
31746W        W 4039  26.163  36.360   4.647
31747W        W 4040  21.599  11.850  14.808
31748W        W 4041  14.219   4.801   1.380
31749W        W 4042  44.877  39.416  11.608
31750W        W 4043   4.860  35.020  14.991
31751W        W 4044  25.563  25.584  13.315
31752W        W 4045  22.588   8.235   1.782
31753W        W 4046   8.211   6.890   2.317
31754W        W 4047   5.216  31.944  14.353
31755W        W 4048  20.717  25.607   0.428
31756W        W 4049  28.082  24.597   5.085
31757W        W 4050  25.495  32.014  14.969
31758W        W 4051  41.965  24.164  14.407
31759W        W 4052  18.220  11.819  11.496
31760W        W 4053  25.015  24.074   4.677
31761W        W 4054  20.165   1.237   3.339
31762W        W 4055   2.289  16.782  14.773
31763W        W 4056  12.785  30.921  14.842
31764W        W 4057   9.371   8.220   4.289
31765W        W 4058  37.921  12.643  13.396
31766W        W 4059   7.876   8.388   3.756
31767W        W 4060  27.084  29.598  13.974
31768W        W 4061   1.446  18.230  11.518
31769W        W 4062  39.482  26.131   1.908
31770W        W 4063  35.548  31.492   2.870
31771W        W 4064  24.706  17.618  12.929
31772W        W 4065  30.143   6.228  13.542
31773W        W 4066  42.008  24.653  11.127
31774W        W 4067  42.436  31.113   3.177
31775W        W 4068   1.846  39.424   4.240
31776W        W 4069  29.643  25.685   3.317
31777W        W 4070  30.076  40.803   4.684
31778W        W 4071   2.407  19.762   2.249
31779W        W 4072  12.839  24.090   4.329
31780W        W 4073  21.202  30.436  10.630
31781W        W 4074  31.038  18.194  14.870
31782W        W 4075  32.104  28.548  13.964
31783W        W 4076  29.134  39.817  10.513
31784W        W 4077   3.265   8.655  10.476
31785W        W 4078  42.021  19.618  14.893
31786W        W 4079  12.787   0.864   2.294
31787W        W 4080   2.468  23.573   3.310
31788W        W 4081  35.475  27.053   1.374
31789W        W 4082  25.665   8.392  12.518
31790W        W 4083  44.262  32.636   0.750
31791W        W 4084  12.227   2.332   0.282
31792W        W 4085  16.162  16.626   0.432
31793W        W 4086  32.060  12.261  14.030
31794W        W 4087  12.184  20.164  10.516
31795W        W 4088   2.928  33.574   4.618
31796W        W 4089   2.777  29.985   3.659
31797W        W 4090   1.910   4.315  13.335
31798W        W 4091  41.432  20.179   2.890
31799W        W 4092   1.253  34.584  13.313
31800W        W 4093  22.122  15.788  12.937
31801W        W 4094  25.713  44.445  11.926
31802W        W 4095  36.387  22.566  11.897
31803W        W 4096  38.885  29.442   4.199
31804W        W 4097   2.764  29.127  12.018
31805W        W 4098  41.811  22.029   1.886
31806W        W 4099  41.922  33.032   3.634
31807W        W 4100  31.935  15.815   4.819
31808W        W 4101   7.221   8.741   1.266
31809W        W 4102  21.747  36.918  13.432
31810W        W 4103  34.451  32.098   2.321
31811W        W 4104  36.413  11.226   2.331
31812W        W 4105  32.990  17.238   0.957
31813W        W 4106  38.917  18.088   4.283
31814W        W 4107   4.869  40.875   4.336
31815W        W 4108  30.972  24.575   2.369
31816W        W 4109   5.208  42.496   4.189
31817W        W 4110  19.639  24.207   2.833
31818W        W 4111   1.399  13.822   1.804
31819W        W 4112  30.528   2.791   0.760
31820W        W 4113  13.627  14.237  14.444
31821W        W 4114  13.740  24.658   3.739
31822W        W 4115   5.245  25.182  11.928
31823W        W 4116  26.701   1.421  10.489
31824W        W 4117  41.859  19.064  11.389
31825W        W 4118   2.393  40.899   2.877
31826W        W 4119  10.781  31.638   0.381
31827W        W 4120  25.090   3.328   1.756
31828W        W 4121   9.331  25.668   0.894
31829W        W 4122  23.555   8.867   4.172
31830W        W 4123  26.145  31.058   0.315
31831W        W 4124   0.872  35.967  11.605
31832W        W 4125  39.418  26.205  13.817
31833W        W 4126  39.391   0.873   1.738
31834W        W 4127  34.908  38.834   1.768
31835W        W 4128   9.810  39.815  10.488
31836W        W 4129  11.178  40.853   4.127
31837W        W 4130   0.801  34.548   3.225
31838W        W 4131  38.467  31.498  13.484
31839W        W 4132  41.525  30.584   3.216
31840W        W 4133  10.699  17.713   3.166
31841W        W 4134   8.719  14.131  14.495
31842W        W 4135  14.773   3.724  13.965
31843W        W 4136   4.810  19.050  12.442
31844W        W 4137  16.082  10.299  14.361
31845W        W 4138  43.907  38.890  10.464
31846W        W 4139  29.161  43.015   4.348
31847W        W 4140  37.515  19.119   1.753
31848W        W 4141  44.268  33.972  13.969
31849W        W 4142  22.234  35.087  12.519
31850W        W 4143  19.773   5.792  13.351
31851W        W 4144  26.086  17.114   0.372
31852W        W 4145   3.769  23.046  10.427
31853W        W 4146  39.984  42.874  14.340
31854W        W 4147  35.941  36.035  10.503
31855W        W 4148   5.347  41.026  12.458
31856W        W 4149  34.385   9.258  13.008
31857W        W 4150   7.224   7.365   1.867
31858W        W 4151  30.424  16.634  14.901
31859W        W 4152   1.461  22.093   3.363
31860W        W 4153  33.892   2.272   0.865
31861W        W 4154  10.185  14.168  13.449
31862W        W 4155   4.728  35.462  13.381
31863W        W 4156  27.611  43.330  14.029
31864W        W 4157  15.297  27.579  10.476
31865W        W 4158   9.818  29.176  13.371
31866W        W 4159  33.393  18.191   4.219
31867W        W 4160  36.974  43.412  13.872
31868W        W 4161  19.152  37.566   3.188
31869W        W 4162  12.289  32.981   0.375
31870W        W 4163  16.750  44.914  13.546
31871W        W 4164  28.542  41.815   2.193
31872W        W 4165   7.340  20.522   1.381
31873W        W 4166  44.787   5.743  14.835
31874W        W 4167  33.496  37.552   3.860
31875W        W 4168  13.621  38.446  13.985
31876W        W 4169  40.418  20.564  10.954
31877W        W 4170  44.755  20.661  14.305
31878W        W 4171  42.435  17.766   2.775
31879W        W 4172  35.558  21.134  11.374
31880W        W 4173  28.515  25.154  11.476
31881W        W 4174   7.344  19.717  11.946
31882W        W 4175  19.189  36.014   0.931
31883W        W 4176  24.033   9.867   1.255
31884W        W 4177  27.046   4.273  12.511
31885W        W 4178  34.937   9.165   3.385
31886W        W 4179  13.146  35.473   3.664
31887W        W 4180  26.954  29.985  12.893
31888W        W 4181  21.646  34.595  10.483
31889W        W 4182  13.669   0.486  13.310
31890W        W 4183  15.748   6.812  12.481
31891W        W 4184  44.854  44.465  14.024
31892W        W 4185  12.210  12.221  11.080
31893W        W 4186  22.018  34.545  12.063
31894W        W 4187  16.569  34.461  12.046
31895W        W 4188  34.590  22.121   2.794
31896W        W 4189   3.721  35.501   4.132
31897W        W 4190  28.623  33.067  10.529
31898W        W 4191   5.809  15.719  11.857
31899W        W 4192  16.230  41.851   1.739
31900W        W 4193  20.212   9.799  11.440
31901W        W 4194  37.388   7.886   3.860
31902W        W 4195  26.617  38.068  13.357
31903W        W 4196  38.991  38.005  13.011
31904W        W 4197  29.591  16.683  11.395
31905W        W 4198  16.608  18.677   1.913
31906W        W 4199   9.834   9.765  13.361
31907W        W 4200  42.302  32.026   4.625
31908W        W 4201  22.151  24.084  14.811
31909W        W 4202  18.639  22.589  10.935
31910W        W 4203   5.203   0.283  10.440
31911W        W 4204  24.659   7.294   0.336
31912W        W 4205  28.569  33.020   2.731
31913W        W 4206  11.242  28.179  14.308
31914W        W 4207  44.293  20.042  13.950
31915W        W 4208   0.978   3.233   2.808
31916W        W 4209  11.300  39.037  13.519
31917W        W 4210  41.864  32.409  14.506
31918W        W 4211  44.297  44.272   4.708
31919W        W 4212  21.228   0.937   2.380
31920W        W 4213  24.042   2.849   2.206
31921W        W 4214   1.448  23.173  13.850
31922W        W 4215  23.090  12.630  13.482
31923W        W 4216  30.637  34.574  11.103
31924W        W 4217  21.745  31.420   1.304
31925W        W 4218   7.743  27.477  11.451
31926W        W 4219  41.513  39.407  11.420
31927W        W 4220  22.658  20.615   3.832
31928W        W 4221  27.447  36.905  12.463
31929W        W 4222  24.140  32.506  14.760
31930W        W 4223  10.257   2.741   3.661
31931W        W 4224  28.557   8.218   3.286
31932W        W 4225  41.434  33.002  13.519
31933W        W 4226  40.497  27.628  13.323
31934W        W 4227  33.508   2.243  12.979
31935W        W 4228  34.497  13.841  12.007
31936W        W 4229  31.619  26.539  12.053
31937W        W 4230  43.019  19.260   3.673
31938W        W 4231   4.817   0.422  13.834
31939W        W 4232  25.483  23.104   1.256
31940W        W 4233   9.666   3.258   2.903
31941W        W 4234  16.251  18.276   0.821
31942W        W 4235  40.363   7.760   1.805
31943W        W 4236   6.256  27.106   2.266
31944W        W 4237   4.931  24.623  13.939
31945W        W 4238  13.824   1.434  11.877
31946W        W 4239  11.147  41.855  11.969
31947W        W 4240  14.198  28.978   1.914
31948W        W 4241   7.174  17.758  10.623
31949W        W 4242  15.197   5.371  12.340
31950W        W 4243  14.743  44.005   4.694
31951W        W 4244  31.413  35.418  14.459
31952W        W 4245  28.473   6.381   0.447
31953W        W 4246  32.138  11.284   2.356
31954W        W 4247  24.643   2.294  11.054
31955W        W 4248  37.835  31.956  10.474
31956W        W 4249   2.470  37.935   1.876
31957W        W 4250  19.042   1.448   2.261
31958W        W 4251  19.109   2.946   3.763
31959W        W 4252  27.481  16.673   3.342
31960W        W 4253   8.871  41.898  13.931
31961W        W 4254  22.253  44.767   1.386
31962W        W 4255  38.473  27.612   0.254
31963W        W 4256   2.833  23.027   2.241
31964W        W 4257  41.497  24.220  10.625
31965W        W 4258   3.410  11.718  12.520
31966W        W 4259  42.897  21.716  12.915
31967W        W 4260   3.772  10.783   1.275
31968W        W 4261  20.227   9.340   3.343
31969W        W 4262  15.199  12.284   0.381
31970W        W 4263  16.797   6.276  14.803
31971W        W 4264  41.515  10.733   1.854
31972W        W 4265  41.296   6.759   2.343
31973W        W 4266   2.444  27.552  10.450
31974W        W 4267   3.432   5.435  14.802
31975W        W 4268  19.221  39.872   2.855
31976W        W 4269   2.275   8.406  14.960
31977W        W 4270  24.486  19.180   3.757
31978W        W 4271  41.362  12.834   4.669
31979W        W 4272  28.659  37.486  13.421
31980W        W 4273  35.491   1.779   2.732
31981W        W 4274  16.590  11.680   3.725
31982W        W 4275  41.808  40.879  11.977
31983W        W 4276   0.403  36.981  13.958
31984W        W 4277  35.090  11.223  12.425
31985W        W 4278  19.205  13.845  13.385
31986W        W 4279  36.568  33.131   2.289
31987W        W 4280  35.563  26.578  14.481
31988W        W 4281  39.936  25.125  14.780
31989W        W 4282  27.543  36.042  14.456
31990W        W 4283   4.342  23.547   2.881
31991W        W 4284  19.182  23.079  10.459
31992W        W 4285  31.152  43.855   0.735
31993W        W 4286   5.392  22.134  13.492
31994W        W 4287   9.316  36.093   3.864
31995W        W 4288  11.670  40.530   5.186
31996W        W 4289   0.446  38.051   4.341
31997W        W 4290   7.816   4.886  14.864
31998W        W 4291  31.912  20.035   2.766
31999W        W 4292  43.820  42.006  12.982
32000W        W 4293  40.384   0.346  10.142
32001W        W 4294  13.798  10.144   2.679
32002W        W 4295   8.249  43.800   0.477
32003W        W 4296  23.509   6.703  12.869
32004W        W 4297   4.745  10.698   2.368
32005W        W 4298   3.426   9.877   0.759
32006W        W 4299  23.592  25.138  12.486
32007W        W 4300   6.759  27.533  13.812
32008W        W 4301  13.134   5.696   0.308
32009W        W 4302  39.847  17.278   3.753
32010W        W 4303   6.921  42.342   0.437
32011W        W 4304  11.731  14.244   5.255
32012W        W 4305  39.057  42.776   9.956
32013W        W 4306  22.666  31.117  12.488
32014W        W 4307  31.138  18.139  13.899
32015W        W 4308   3.860  16.740   0.942
32016W        W 4309  38.553  37.501   4.275
32017W        W 4310  12.804   1.453  14.009
32018W        W 4311  31.025  14.599  14.336
32019W        W 4312  43.953  17.802  13.836
32020W        W 4313  28.072  20.099   4.717
32021W        W 4314   5.201   5.252  14.825
32022W        W 4315   5.819  38.470   1.329
32023W        W 4316  42.995  10.702   3.341
32024W        W 4317   9.722  34.422   5.590
32025W        W 4318  14.213  21.244   4.214
32026W        W 4319  30.659  29.027   3.828
32027W        W 4320  23.239   5.735   2.236
32028W        W 4321  25.084  20.124  14.835
32029W        W 4322  34.112   9.160  12.392
32030W        W 4323   9.759  28.681  14.454
32031W        W 4324  13.828  15.247  12.576
32032W        W 4325  16.203  20.718  14.289
32033W        W 4326  22.187  28.054  14.794
32034W        W 4327  15.288  14.109   0.878
32035W        W 4328  14.186  35.894   0.453
32036W        W 4329  12.742  10.765   2.857
32037W        W 4330  25.168  11.840   3.853
32038W        W 4331  26.457  21.141   4.344
32039W        W 4332  30.950  15.578  11.501
32040W        W 4333  44.291   2.467  14.873
32041W        W 4334   6.305  16.270  12.967
32042W        W 4335  44.861  11.647   1.875
32043W        W 4336  27.092   7.786  11.910
32044W        W 4337  36.358   2.892   1.790
32045W        W 4338   7.909  25.528  14.922
32046W        W 4339  11.353   1.455  12.993
32047W        W 4340  19.199  16.186   1.723
32048W        W 4341  30.121  27.020   4.250
32049W        W 4342  12.762  21.700   1.370
32050W        W 4343  36.052  36.062  11.972
32051W        W 4344   0.449  12.142   1.251
32052W        W 4345   9.205  36.893   2.258
32053W        W 4346  33.422  38.440  14.387
32054W        W 4347   6.844  20.762   1.838
32055W        W 4348  14.665  30.519  10.064
32056W        W 4349  36.493  21.102   2.268
32057W        W 4350  13.740  44.891  12.887
32058W        W 4351  26.025  11.701  10.473
32059W        W 4352   3.917  21.672   0.887
32060W        W 4353  43.312  27.659  11.437
32061W        W 4354  41.918   1.461  11.495
32062W        W 4355   3.883   0.785   4.690
32063W        W 4356   1.754  36.997   2.728
32064W        W 4357  18.187  26.059   2.256
32065W        W 4358   2.825  33.598  12.877
32066W        W 4359  19.241  43.003   4.222
32067W        W 4360  10.646  28.085   3.299
32068W        W 4361  37.078   3.279  12.945
32069W        W 4362  15.710  19.666  11.418
32070W        W 4363  14.330  13.608  13.899
32071W        W 4364  38.952  30.431   2.203
32072W        W 4365   0.929  25.020   2.339
32073W        W 4366  42.811  31.556  14.338
32074W        W 4367  24.487   7.396   3.731
32075W        W 4368  15.772  15.133   1.704
32076W        W 4369  35.359   5.699   0.765
32077W        W 4370  40.416  23.601   3.262
32078W        W 4371   3.873  18.767   1.799
32079W        W 4372  39.412  31.080   0.843
32080W        W 4373  30.041   8.722   9.996
32081W        W 4374  34.414   3.775  10.901
32082W        W 4375  17.279  35.875   4.245
32083W        W 4376  21.610  11.142   4.202
32084W        W 4377  28.018  18.747  12.523
32085W        W 4378   3.327   4.342   3.214
32086W        W 4379   8.166  11.841   4.290
32087W        W 4380  39.881  28.935   4.299
32088W        W 4381  17.785  19.713  14.312
32089W        W 4382  29.467  29.581   0.746
32090W        W 4383  10.201   1.313   3.783
32091W        W 4384  40.341  39.030  11.877
32092W        W 4385  10.355  25.118   1.930
32093W        W 4386   3.782  19.686  12.901
32094W        W 4387   3.793  10.873  10.913
32095W        W 4388  11.804   3.915   3.831
32096W        W 4389  34.496  24.161  14.835
32097W        W 4390  20.642  19.181  11.475
32098W        W 4391  22.242  27.119  11.511
32099W        W 4392  24.151  32.492   4.805
32100W        W 4393  41.879  39.358  11.513
32101W        W 4394  15.242  30.130   3.733
32102W        W 4395  10.656  21.171   3.158
32103W        W 4396  10.335  16.654   2.218
32104W        W 4397  11.774  18.659   4.743
32105W        W 4398  14.286  41.012   4.738
32106W        W 4399   1.900   2.318   1.340
32107W        W 4400   1.739  27.665  11.124
32108W        W 4401  22.105  41.480  14.515
32109W        W 4402   6.881  12.665  13.824
32110W        W 4403   6.262  30.476  13.356
32111W        W 4404  37.486  21.577   2.384
32112W        W 4405  11.279   1.316  13.835
32113W        W 4406  41.956  28.512  10.476
32114W        W 4407  15.748   5.259  12.457
32115W        W 4408  35.418  40.513   4.166
32116W        W 4409  37.943   4.776   2.312
32117W        W 4410  15.691  43.912   3.828
32118W        W 4411  11.181  38.864  12.414
32119W        W 4412  21.050  25.613  11.098
32120W        W 4413  25.480  29.453  12.476
32121W        W 4414  43.898  37.498  12.825
32122W        W 4415  30.135   7.795  14.406
32123W        W 4416  12.258  17.771   3.774
32124W        W 4417  34.104   8.860   0.955
32125W        W 4418  38.903  31.552   4.732
32126W        W 4419  39.549  39.465   2.365
32127W        W 4420   0.263  11.694  12.456
32128W        W 4421  14.169  39.827  12.859
32129W        W 4422   1.309  24.492  10.506
32130W        W 4423   5.837  10.317   2.715
32131W        W 4424  27.615  23.997  12.363
32132W        W 4425  23.163   7.767  13.918
32133W        W 4426  18.573  23.228  11.003
32134W        W 4427  21.716   3.407  13.000
32135W        W 4428  39.354  17.139  12.368
32136W        W 4429  30.618  20.529  11.532
32137W        W 4430  33.497  35.948   3.760
32138W        W 4431  10.308  16.618  10.560
32139W        W 4432  13.152  31.549   0.749
32140W        W 4433  30.642   1.328   4.166
32141W        W 4434  19.184  31.105   4.201
32142W        W 4435  16.152  37.382  13.331
32143W        W 4436  37.882  17.257  13.029
32144W        W 4437   9.366  14.624  13.005
32145W        W 4438  20.764  34.948  13.959
32146W        W 4439  15.163  16.583  11.401
32147W        W 4440  34.889  37.377  13.490
32148W        W 4441  20.029   5.341   0.344
32149W        W 4442  30.993  31.974  13.821
32150W        W 4443   8.878   2.812   3.673
32151W        W 4444  23.210  41.824  12.564
32152W        W 4445  28.110  41.466  13.386
32153W        W 4446  14.636  29.073   4.819
32154W        W 4447  36.353  37.447   1.225
32155W        W 4448   3.431  35.927  11.548
32156W        W 4449  28.169  26.702   4.808
32157W        W 4450  17.603  41.900  10.636
32158W        W 4451  28.518  31.151  11.078
32159W        W 4452  12.228  18.276  11.063
32160W        W 4453  39.520  29.598  11.897
32161W        W 4454  38.018  36.577   1.435
32162W        W 4455  15.160   6.221   3.724
32163W        W 4456  24.546  28.540   0.417
32164W        W 4457  43.416  33.978   4.202
32165W        W 4458  16.129  19.702   4.340
32166W        W 4459  33.083  30.417  12.984
32167W        W 4460  22.701  20.259   1.889
32168W        W 4461  32.546  27.968  12.971
32169W        W 4462  28.019   7.776   3.274
32170W        W 4463  33.945  44.350  14.854
32171W        W 4464   2.427  20.704   2.708
32172W        W 4465  20.226  15.669  13.443
32173W        W 4466  14.813  28.016  12.947
32174W        W 4467  39.867   7.702  10.499
32175W        W 4468  18.187  40.975  11.039
32176W        W 4469  28.969  14.210  11.898
32177W        W 4470  21.056  38.325  14.902
32178W        W 4471   9.774  36.948  12.022
32179W        W 4472  27.556  38.970  11.094
32180W        W 4473   5.714  26.193   1.864
32181W        W 4474  30.489  11.782  10.092
32182W        W 4475  18.101  18.643  11.410
32183W        W 4476  16.123  17.191  14.852
32184W        W 4477  37.923  31.402  11.859
32185W        W 4478   9.778  28.575   0.821
32186W        W 4479   8.261   4.932  13.463
32187W        W 4480  11.830  26.106   0.760
32188W        W 4481  16.313   7.307   0.320
32189W        W 4482  31.511  19.159   0.862
32190W        W 4483  24.549  22.174   0.938
32191W        W 4484   7.179   8.323  14.904
32192W        W 4485  15.155   2.943   3.852
32193W        W 4486  37.025  38.457  11.079
32194W        W 4487  25.007  38.005   3.221
32195W        W 4488  38.389  23.621   2.218
32196W        W 4489  41.388  44.003  14.445
32197W        W 4490   2.892  14.100   2.303
32198W        W 4491  43.798  13.271   0.769
32199W        W 4492   2.246   7.412  13.931
32200W        W 4493  23.175  15.172   0.400
32201W        W 4494  39.404  31.134  13.822
32202W        W 4495  25.675   7.688  10.462
32203W        W 4496  29.574  40.025   2.266
32204W        W 4497   0.463   9.677  14.491
32205W        W 4498  25.475  32.931   4.266
32206W        W 4499  43.359   5.379  14.420
32207W        W 4500  37.491  38.471   0.779
32208W        W 4501   1.459  31.480   2.255
32209W        W 4502   8.386  22.130   0.401
32210W        W 4503   3.396  23.105  11.513
32211W        W 4504  43.980   0.981  14.892
32212W        W 4505   9.221  43.402   4.635
32213W        W 4506  24.030   8.818   2.762
32214W        W 4507  21.511  19.122   1.907
32215W        W 4508   5.325  37.008  13.056
32216W        W 4509  27.479  23.037   5.154
32217W        W 4510  22.136   9.656  12.365
32218W        W 4511  23.104  33.954  10.964
32219W        W 4512  16.156  26.084  11.503
32220W        W 4513  32.395  11.210  14.780
32221W        W 4514  34.900  38.514  11.965
32222W        W 4515   5.246  43.857   1.284
32223W        W 4516  18.613   3.864  10.535
32224W        W 4517  13.140  21.537   4.676
32225W        W 4518  27.490   2.284  13.847
32226W        W 4519  39.474   6.203  13.954
32227W        W 4520  29.491  33.407  11.920
32228W        W 4521  41.801   9.277   3.857
32229W        W 4522  24.164   7.884  14.860
32230W        W 4523  39.410  27.486  12.487
32231W        W 4524  24.174  42.296   0.410
32232W        W 4525  34.004   2.947   3.326
32233W        W 4526  25.142  43.003   0.757
32234W        W 4527  38.555  10.220  14.868
32235W        W 4528  25.552  39.506   1.351
32236W        W 4529  14.747  30.475   5.125
32237W        W 4530  30.644  42.367   2.670
32238W        W 4531  42.445  24.486   3.715
32239W        W 4532  43.847   1.942  13.378
32240W        W 4533  41.835  13.612   2.373
32241W        W 4534  27.632  25.073  11.120
32242W        W 4535  28.669  28.653   3.694
32243W        W 4536  28.641  13.626  11.033
32244W        W 4537  13.776  11.686   1.768
32245W        W 4538  12.836   9.345  12.407
32246W        W 4539   4.383  34.054   1.792
32247W        W 4540  17.192  40.319   0.734
32248W        W 4541  13.346  39.361  12.393
32249W        W 4542   3.898  27.065  10.438
32250W        W 4543   2.895  39.458   4.605
32251W        W 4544   4.859  26.655   1.792
32252W        W 4545  32.443  21.744  14.903
32253W        W 4546   6.375  24.552   0.848
32254W        W 4547  11.820  41.479   3.703
32255W        W 4548  12.340   9.384  12.935
32256W        W 4549  15.669  10.768  13.016
32257W        W 4550  28.443  38.440  12.414
32258W        W 4551  16.223  12.612  12.503
32259W        W 4552   7.882  38.406  11.932
32260W        W 4553  22.054  25.034   2.823
32261W        W 4554  17.074  10.222   3.367
32262W        W 4555  32.984  15.161  10.434
32263W        W 4556  21.583  36.366  13.370
32264W        W 4557  34.539  23.112   2.824
32265W        W 4558  12.648  37.937  13.042
32266W        W 4559  31.118  43.448   2.368
32267W        W 4560   2.854  27.449  11.560
32268W        W 4561  29.028  30.014  11.974
32269W        W 4562  18.767   9.867   0.923
32270W        W 4563  43.410  16.790  12.068
32271W        W 4564  40.870   1.298   5.779
32272W        W 4565  21.033   2.300   0.363
32273W        W 4566  39.529  40.434  11.028
32274W        W 4567  41.411  15.212  13.967
32275W        W 4568  28.944  42.290  10.947
32276W        W 4569  10.336  39.836   2.262
32277W        W 4570  28.623  25.031  13.541
32278W        W 4571  26.627  25.593   3.357
32279W        W 4572  25.629  14.766  11.122
32280W        W 4573  18.759   9.392  12.521
32281W        W 4574  33.000   4.351   4.339
32282W        W 4575   2.727  40.894  12.410
32283W        W 4576  20.063   2.828   2.832
32284W        W 4577  36.060  33.918  10.439
32285W        W 4578  13.302  41.429  13.926
32286W        W 4579  34.608  40.027  13.478
32287W        W 4580  23.112  20.744  12.573
32288W        W 4581  23.181  19.055  13.446
32289W        W 4582   7.221  41.341   0.834
32290W        W 4583  13.603   2.881   0.952
32291W        W 4584  13.679  32.986  13.920
32292W        W 4585   4.257  29.926   2.893
32293W        W 4586  38.542  35.391  10.930
32294W        W 4587  36.440  11.734  11.516
32295W        W 4588  17.656  32.114  13.440
32296W        W 4589  34.054  21.564   2.244
32297W        W 4590  37.480  13.775  11.857
32298W        W 4591  32.137  10.370  13.834
32299W        W 4592  31.046   5.276  14.907
32300W        W 4593  23.026   9.867   0.750
32301W        W 4594  32.561   0.987  10.538
32302W        W 4595   8.831   4.279  11.566
32303W        W 4596  15.318  42.448  13.458
32304W        W 4597   4.711   1.899   0.443
32305W        W 4598  19.723  32.096   3.385
32306W        W 4599  27.637  37.852   4.285
32307W        W 4600  17.185  44.367  12.524
32308W        W 4601  10.304  10.302   5.200
32309W        W 4602  41.920  26.167   2.876
32310W        W 4603  29.469  44.775   4.816
32311W        W 4604  26.690  22.524   9.936
32312W        W 4605  28.027   8.236  14.496
32313W        W 4606   9.871  39.546   0.902
32314W        W 4607  15.716  37.067  11.391
32315W        W 4608   4.837  28.020   0.748
32316W        W 4609  14.311   6.790   3.184
32317W        W 4610  37.485  29.601  13.327
32318W        W 4611  37.563  17.301   1.928
32319W        W 4612  31.149  40.403   1.330
32320W        W 4613  17.725  39.030  13.832
32321W        W 4614  28.968  11.747   1.245
32322W        W 4615  37.025  42.384  13.014
32323W        W 4616   5.791  44.479   4.170
32324W        W 4617  39.380  28.570  13.457
32325W        W 4618  33.523  29.666   0.424
32326W        W 4619   9.385  34.879   3.179
32327W        W 4620  35.940  35.515   1.294
32328W        W 4621  43.844  33.115  14.771
32329W        W 4622  18.782  30.055  13.971
32330W        W 4623  41.412  38.991  12.519
32331W        W 4624   1.813  21.570   3.655
32332W        W 4625   4.855  39.411   2.703
32333W        W 4626  25.531  39.064  12.372
32334W        W 4627  18.074  37.367  11.416
32335W        W 4628  20.713   5.371   1.915
32336W        W 4629  27.105  27.158   4.726
32337W        W 4630   9.762  12.655  12.867
32338W        W 4631  41.429  25.680  11.885
32339W        W 4632  19.265  39.970   1.804
32340W        W 4633  13.138   0.418   2.209
32341W        W 4634  33.432  40.454  14.858
32342W        W 4635   4.302  44.910  13.960
32343W        W 4636  20.572  17.152   3.740
32344W        W 4637  40.491   7.183   0.355
32345W        W 4638  38.884   6.287   3.360
32346W        W 4639  32.137  44.383   0.901
32347W        W 4640  41.976  11.847  10.467
32348W        W 4641  10.802  25.986  13.535
32349W        W 4642   9.317  13.107   1.913
32350W        W 4643  28.130  27.496  12.903
32351W        W 4644   0.350  33.526  12.086
32352W        W 4645  27.517  19.197  13.940
32353W        W 4646  25.713   9.235  11.470
32354W        W 4647  24.608  35.959  13.871
32355W        W 4648  41.991  16.257  11.031
32356W        W 4649   3.229  38.933  12.955
32357W        W 4650  14.150  22.517  12.417
32358W        W 4651  38.068  44.297   2.689
32359W        W 4652  12.612  24.636   3.636
32360W        W 4653  19.076  41.997   2.405
32361W        W 4654  20.138  24.534   4.747
32362W        W 4655  13.106  35.962   5.115
32363W        W 4656  29.619   0.783  14.864
32364W        W 4657  30.625  32.984   3.245
32365W        W 4658  43.811  31.099  13.513
32366W        W 4659  17.109   2.928   2.795
32367W        W 4660  17.262  20.549   2.298
32368W        W 4661   4.925  43.895  10.892
32369W        W 4662  38.888   5.261   0.799
32370W        W 4663   6.202  24.181  12.444
32371W        W 4664   2.394  29.987  14.432
32372W        W 4665   2.811  25.076   4.343
32373W        W 4666  25.551  41.296   1.830
32374W        W 4667  40.426  18.660  12.476
32375W        W 4668  13.719  15.258  14.959
32376W        W 4669  10.383   2.838  11.402
32377W        W 4670  24.547  20.566  13.455
32378W        W 4671   0.868  35.556  11.391
32379W        W 4672  21.022  32.618  12.862
32380W        W 4673  27.680  11.859   3.818
32381W        W 4674  34.552  13.611  11.546
32382W        W 4675  28.041  15.642   1.740
32383W        W 4676  17.684  41.306   4.275
32384W        W 4677   1.383  14.267   4.761
32385W        W 4678  29.063  12.742   0.801
32386W        W 4679  43.833   0.907  11.000
32387W        W 4680  29.083  36.050  13.429
32388W        W 4681  18.066  16.211  11.099
32389W        W 4682  37.915  23.544  11.450
32390W        W 4683   4.755   5.703  10.890
32391W        W 4684  25.086  23.638  10.964
32392W        W 4685  39.822  20.162   3.228
32393W        W 4686  32.950  17.275   0.400
32394W        W 4687  36.508  37.479   2.774
32395W        W 4688  31.634   8.187   2.744
32396W        W 4689  42.009  39.411  10.544
32397W        W 4690  42.331  37.453  11.605
32398W        W 4691   0.397   6.837   1.859
32399W        W 4692   2.899  33.099  14.398
32400W        W 4693   0.353  34.531  14.931
32401W        W 4694  44.500  10.872  10.469
32402W        W 4695  33.558  24.547   2.378
32403W        W 4696   1.422  16.217  13.890
32404W        W 4697  24.017  34.605   3.811
32405W        W 4698  21.626   5.877  11.063
32406W        W 4699   5.771   1.467   0.365
32407W        W 4700   0.825  37.480  10.437
32408W        W 4701  11.810  12.813  14.782
32409W        W 4702  21.142  22.180   3.258
32410W        W 4703   1.774  19.154  12.424
32411W        W 4704  39.476  26.554  11.571
32412W        W 4705  12.661  17.684   3.810
32413W        W 4706  32.553  13.745   4.620
32414W        W 4707  36.540  25.667  12.495
32415W        W 4708  22.108  36.560  14.370
32416W        W 4709  21.078   5.923  13.900
32417W        W 4710  17.109  13.767  13.370
32418W        W 4711  18.125  13.129   1.733
32419W        W 4712  41.466  17.232  11.520
32420W        W 4713  39.384  23.224  14.880
32421W        W 4714  36.874  25.184   3.808
32422W        W 4715   3.738  24.991  13.417
32423W        W 4716  13.174   9.200  12.359
32424W        W 4717  35.488  42.979  14.514
32425W        W 4718  14.804  31.908   2.671
32426W        W 4719  18.623  29.650  13.893
32427W        W 4720  36.443  15.807  13.311
32428W        W 4721  24.169  44.912  14.907
32429W        W 4722  34.413  14.718  14.818
32430W        W 4723  30.508  44.312  12.876
32431W        W 4724  25.647  27.548   4.664
32432W        W 4725  42.939  12.188   4.340
32433W        W 4726  27.149  23.535   3.235
32434W        W 4727   9.298   5.434  13.900
32435W        W 4728  41.520  13.136   3.182
32436W        W 4729  15.278  16.139   2.362
32437W        W 4730   5.758   6.292   3.736
32438W        W 4731  36.414  28.478   3.830
32439W        W 4732  41.458  28.105  13.854
32440W        W 4733  20.611  12.785   4.788
32441W        W 4734  11.648  32.529   3.833
32442W        W 4735  11.747  23.183  12.431
32443W        W 4736  34.584  10.767  11.481
32444W        W 4737  30.030  19.587   0.792
32445W        W 4738   8.166  20.538   4.149
32446W        W 4739  35.481  13.108  12.032
32447W        W 4740  19.707  39.836  14.278
32448W        W 4741  36.516  40.417  10.050
32449W        W 4742  24.648  44.461   1.863
32450W        W 4743  39.888  33.115   0.439
32451W        W 4744   3.799  44.361   1.694
32452W        W 4745  38.822   8.383  11.877
32453W        W 4746   2.841   9.695  12.513
32454W        W 4747  22.201  31.467   3.812
32455W        W 4748  42.878  20.126  14.002
32456W        W 4749  10.720  20.736  12.873
32457W        W 4750  17.791   7.397   3.366
32458W        W 4751  30.473  44.399   1.873
32459W        W 4752  33.118  33.095   2.852
32460W        W 4753  41.926   9.259  13.386
32461W        W 4754  27.994  22.220   3.157
32462W        W 4755  21.708  43.309  11.466
32463W        W 4756  44.844  16.611  13.015
32464W        W 4757  19.233  22.633   5.110
32465W        W 4758   9.668  15.212  13.853
32466W        W 4759  37.344  28.501  10.600
32467W        W 4760  10.676   2.835   1.245
32468W        W 4761   2.281  17.562   4.309
32469W        W 4762  40.323  28.647   2.190
32470W        W 4763  40.489  22.173   4.338
32471W        W 4764  33.919  23.714   4.751
32472W        W 4765  37.442  15.199  10.609
32473W        W 4766   6.250   4.721  14.910
32474W        W 4767  26.637  37.028  12.078
32475W        W 4768  30.039  20.592   4.690
32476W        W 4769   1.407  14.216   2.307
32477W        W 4770  12.810  17.756  12.343
32478W        W 4771  36.562   3.398   9.998
32479W        W 4772  12.176  42.307  11.902
32480W        W 4773  22.175  28.131   1.406
32481W        W 4774  18.754  42.412   2.319
32482W        W 4775  13.786  41.386   1.383
32483W        W 4776  21.581  24.179  10.958
32484W        W 4777  20.678  33.103   0.792
32485W        W 4778   7.304  38.326  10.643
32486W        W 4779   8.364   8.386   4.351
32487W        W 4780  39.508  28.175  12.578
32488W        W 4781  39.320  27.562  10.982
32489W        W 4782  31.631  13.674  10.522
32490W        W 4783  19.217  14.157   1.796
32491W        W 4784   1.886  36.551  12.031
32492W        W 4785  13.635  22.654  11.023
32493W        W 4786  38.346  34.531   2.249
32494W        W 4787  28.049  35.987  12.512
32495W        W 4788  43.868  32.410   1.752
32496W        W 4789  24.551   7.773   0.829
32497W        W 4790  24.666  14.178   5.213
32498W        W 4791  21.541  42.000  12.345
32499W        W 4792  43.385  14.612   4.191
32500W        W 4793  34.525  30.001  14.337
32501W        W 4794  17.664  14.689   1.286
32502W        W 4795  11.856  27.634   1.751
32503W        W 4796   4.247   5.900   4.178
32504W        W 4797  18.588  32.891  14.469
32505W        W 4798   1.780   6.887   0.360
32506W        W 4799  35.496  25.097   3.281
32507W        W 4800  31.620  34.416  11.522
32508W        W 4801  21.678  25.149   4.751
32509W        W 4802  30.934  17.772   1.846
32510W        W 4803   0.408  13.243   2.832
32511W        W 4804  18.556  33.979   5.146
32512W        W 4805  30.027  42.321   1.792
32513W        W 4806  44.394  33.429   3.292
32514W        W 4807  38.074  30.986  11.048
32515W        W 4808  21.255  16.187  12.348
32516W        W 4809   7.870  10.353  12.487
32517W        W 4810  30.464   5.223   2.375
32518W        W 4811  41.299   6.795   1.856
32519W        W 4812  22.587  21.143  10.074
32520W        W 4813  23.647  32.982   2.384
32521W        W 4814  35.420  42.440  12.061
32522W        W 4815   9.706  35.958   9.647
32523W        W 4816  12.612  36.561  14.288
32524W        W 4817   1.265   2.450  11.046
32525W        W 4818   1.277  40.934   2.786
32526W        W 4819  14.792   6.871  11.954
32527W        W 4820  44.423  44.496  12.943
32528W        W 4821  30.982  37.007   1.795
32529W        W 4822  19.726  14.711   1.718
32530W        W 4823  28.650  27.154   2.698
32531W        W 4824  30.141  12.647  13.962
32532W        W 4825   3.805  10.649   3.303
32533W        W 4826  28.649   7.858  12.962
32534W        W 4827  24.229  34.931  10.580
32535W        W 4828  16.215  42.394   2.882
32536W        W 4829  15.623  25.587  11.894
32537W        W 4830  38.029  16.640   3.277
32538W        W 4831  30.433  41.958   0.956
32539W        W 4832  40.306  10.656  14.761
32540W        W 4833  41.806  36.971  10.958
32541W        W 4834  27.173  24.680  11.115
32542W        W 4835  24.164  12.742  11.070
32543W        W 4836   3.357  31.043   5.269
32544W        W 4837   9.257  38.896   4.723
32545W        W 4838  38.514  24.586  11.464
32546W        W 4839  34.454   7.412  10.641
32547W        W 4840  19.041  12.637  11.490
32548W        W 4841   9.782  15.158   4.710
32549W        W 4842  29.482  21.697  14.958
32550W        W 4843  34.418   0.307   0.353
32551W        W 4844  42.420  44.306   1.807
32552W        W 4845  36.948  39.373  14.016
32553W        W 4846  33.116  42.434  14.323
32554W        W 4847  10.691  17.101   0.897
32555W        W 4848  41.340  10.303   1.362
32556W        W 4849  21.565   9.354   3.367
32557W        W 4850  25.185  37.453   3.243
32558W        W 4851  36.065   7.386  11.857
32559W        W 4852  25.700   2.305   0.286
32560W        W 4853  18.673  33.588   2.192
32561W        W 4854  20.662  27.510  13.914
32562W        W 4855  24.037  33.948  10.605
32563W        W 4856  30.122  29.624  12.351
32564W        W 4857  31.410  43.369   2.224
32565W        W 4858  15.231  40.887   1.836
32566W        W 4859  14.724  38.420   3.289
32567W        W 4860   9.692  33.996   0.851
32568W        W 4861  10.262   1.925  11.460
32569W        W 4862  24.506   3.255  10.978
32570W        W 4863  34.013   7.789   1.808
32571W        W 4864  30.163   9.646   0.316
32572W        W 4865  11.764  16.744   1.713
32573W        W 4866  27.066  41.960  13.503
32574W        W 4867  28.937   7.883  14.913
32575W        W 4868   2.740  26.965   1.878
32576W        W 4869  44.482   9.324   2.286
32577W        W 4870   7.848  15.609  11.389
32578W        W 4871  32.887  22.624   0.377
32579W        W 4872  19.539  14.306   4.348
32580W        W 4873  36.560  40.314   4.294
32581W        W 4874  25.005  16.622  14.319
32582W        W 4875  32.461   8.774   0.276
32583W        W 4876  28.589  11.192   3.847
32584W        W 4877  17.776   6.872  14.839
32585W        W 4878   2.231  24.550   4.795
32586W        W 4879  37.442   3.325  11.905
32587W        W 4880  38.876  30.647  13.360
32588W        W 4881  28.093  44.831   2.872
32589W        W 4882  31.064   1.328  10.461
32590W        W 4883   8.168  33.500   2.773
32591W        W 4884  20.256  25.098  13.983
32592W        W 4885   4.337  24.556  13.344
32593W        W 4886  42.398   7.858  10.619
32594W        W 4887  39.054  43.512   1.334
32595W        W 4888  17.232  31.012  14.348
32596W        W 4889  43.383  23.648  14.844
32597W        W 4890  43.459  13.764   0.841
32598W        W 4891  20.619   7.179   3.640
32599W        W 4892   6.727  14.770   4.641
32600W        W 4893  18.069   3.423   2.693
32601W        W 4894  22.067  39.849   4.803
32602W        W 4895  34.946  43.328  12.992
32603W        W 4896  42.801  18.741  13.983
32604W        W 4897  25.128   5.236   2.299
32605W        W 4898  17.196  16.308  11.946
32606W        W 4899  44.954  17.224  12.896
32607W        W 4900  18.601  40.990   0.812
32608W        W 4901  34.114  42.892  12.954
32609W        W 4902  28.539  14.096   3.292
32610W        W 4903  12.309  42.935  12.450
32611W        W 4904  40.010   7.906   2.792
32612W        W 4905  16.794  16.245  14.425
32613W        W 4906  38.973  16.697   0.919
32614W        W 4907  33.536   8.239  12.554
32615W        W 4908  40.013  38.338   1.840
32616W        W 4909  10.191  11.648   0.302
32617W        W 4910  24.493  12.790  12.997
32618W        W 4911   4.410  24.973   1.902
32619W        W 4912   1.733  25.002   0.483
32620W        W 4913  24.132   8.809  12.839
32621W        W 4914  13.298  23.985  12.452
32622W        W 4915  41.479  13.262   5.094
32623W        W 4916   0.376  40.926  12.041
32624W        W 4917   1.847  40.954   3.704
32625W        W 4918  11.191  37.539  14.327
32626W        W 4919   4.797  28.581   2.405
32627W        W 4920  39.823  28.023  11.550
32628W        W 4921  16.631  18.289  10.590
32629W        W 4922  32.545   7.286  10.599
32630W        W 4923  44.958  29.099   3.207
32631W        W 4924   0.979  30.909   0.339
32632W        W 4925  31.527  24.127   0.417
32633W        W 4926  25.094  24.989   4.175
32634W        W 4927   1.817  38.827  14.405
32635W        W 4928   7.882  43.400   3.777
32636W        W 4929   5.193  10.299   4.783
32637W        W 4930  39.928  15.195   0.780
32638W        W 4931  22.521  26.150   9.946
32639W        W 4932  31.113  42.481  11.479
32640W        W 4933   6.873  12.356   1.872
32641W        W 4934  43.792  18.596   0.308
32642W        W 4935  11.314  12.832  11.903
32643W        W 4936  33.063  42.775   0.325
32644W        W 4937  33.975  35.561   3.639
32645W        W 4938   3.824  21.571   4.122
32646W        W 4939   8.789  13.321   2.823
32647W        W 4940   0.485  24.080   0.427
32648W        W 4941  36.079   2.353  11.465
32649W        W 4942  43.922   4.328   1.433
32650W        W 4943  31.457  28.103  13.519
32651W        W 4944  41.971  20.222   3.824
32652W        W 4945   1.750  41.509  11.595
32653W        W 4946  39.349   5.776   0.928
32654W        W 4947  27.981  31.131  14.772
32655W        W 4948  10.199  41.333   1.256
32656W        W 4949  18.224  16.568  11.004
32657W        W 4950   0.443  43.960  13.048
32658W        W 4951  35.902  18.727  10.526
32659W        W 4952  17.244  30.937   3.224
32660W        W 4953  33.445  10.348  10.581
32661W        W 4954   2.903  44.425   1.289
32662W        W 4955  23.628  24.045  13.331
32663W        W 4956   0.917   4.711   4.775
32664W        W 4957  11.163  21.662   4.816
32665W        W 4958  15.323  15.586  13.347
32666W        W 4959  37.062   1.334   3.356
32667W        W 4960  34.868   3.752   1.759
32668W        W 4961  23.055  20.037  10.529
32669W        W 4962  33.886  27.598  12.885
32670W        W 4963  21.218  23.645  14.427
32671W        W 4964   7.361  41.952  11.021
32672W        W 4965  12.255  15.245   0.356
32673W        W 4966  21.682  11.670   2.702
32674W        W 4967  43.427  13.288   2.183
32675W        W 4968  44.893   8.214   0.247
32676W        W 4969  38.030  30.926  12.855
32677W        W 4970  43.830   3.363   0.319
32678W        W 4971   1.811  13.786  14.765
32679W        W 4972  15.263   6.384   2.752
32680W        W 4973  10.376  33.875  14.772
32681W        W 4974   0.389   0.924  14.822
32682W        W 4975  22.705  13.787   2.393
32683W        W 4976  44.430  35.432  13.936
32684W        W 4977   1.349  34.940  10.541
32685W        W 4978  12.809  21.697  10.470
32686W        W 4979  39.836   7.840  13.995
32687W        W 4980  32.088  42.457  11.509
32688W        W 4981  44.499  29.612  11.054
32689W        W 4982  36.546   1.273  11.929
32690W        W 4983  41.413  20.754  14.405
32691W        W 4984  43.428  25.103  13.815
32692W        W 4985  34.869  32.447   1.901
32693W        W 4986  13.322  30.027   0.284
32694W        W 4987  27.519  36.512  11.581
32695W        W 4988  32.123   3.373   2.398
32696W        W 4989   9.706  19.199  13.867
32697W        W 4990  16.127   8.664  12.082
32698W        W 4991   7.383  10.302  12.469
32699W        W 4992  42.298  24.533  10.566
32700W        W 4993  31.113  26.458  11.053
32701W        W 4994   9.365  19.604  11.423
32702W        W 4995   4.219   5.406   3.332
32703W        W 4996  12.663  23.192   2.249
32704W        W 4997  30.638  23.084   4.646
32705W        W 4998  12.296   5.421   0.275
32706W        W 4999  19.246  33.380   1.399
32707W        W 5000   2.311  33.078  12.488
32708W        W 5001  39.044  42.033   5.304
32709W        W 5002   2.950  25.975   2.303
32710W        W 5003  40.900  21.635  13.358
32711W        W 5004  43.005  12.800  12.939
32712W        W 5005  37.849  44.489  12.049
32713W        W 5006  24.679  34.072   4.285
32714W        W 5007   8.313   5.386  14.773
32715W        W 5008  36.980  22.034   0.332
32716W        W 5009  36.933  28.501  13.473
32717W        W 5010  29.552  40.936  14.904
32718W        W 5011  20.552   6.241   4.829
32719W        W 5012  44.461  30.447   2.774
32720W        W 5013  18.554   6.218   0.738
32721W        W 5014  12.740  21.058  11.036
32722W        W 5015  21.631  33.078   5.178
32723W        W 5016  41.365  39.468  10.917
32724W        W 5017  21.703  41.436  13.039
32725W        W 5018  23.079   8.838  13.372
32726W        W 5019  20.642  19.717   1.904
32727W        W 5020   9.341  14.628   0.276
32728W        W 5021  15.292  25.157  14.876
32729W        W 5022  14.169  22.585  13.525
32730W        W 5023  17.571  38.940  12.986
32731W        W 5024   4.857  17.585   4.221
32732W        W 5025  11.150   5.202   0.816
32733W        W 5026  26.098  15.736   1.888
32734W        W 5027  41.531   8.767  12.925
32735W        W 5028   1.430  31.582   1.314
32736W        W 5029  27.485  28.566   4.750
32737W        W 5030  27.495  11.257   3.643
32738W        W 5031  12.683   6.252  14.429
32739W        W 5032   0.897  13.775   0.965
32740W        W 5033  32.503  26.653  11.056
32741W        W 5034  12.767  10.160   4.828
32742W        W 5035  32.038   5.193  12.462
32743W        W 5036  33.899  22.740  11.033
32744W        W 5037   9.851  34.938   3.741
32745W        W 5038  17.245   2.268   0.435
32746W        W 5039   3.341  18.701  10.618
32747W        W 5040  12.635  41.996   1.801
32748W        W 5041  21.071  38.862  14.840
32749W        W 5042  33.542  38.471   1.243
32750W        W 5043  30.141   9.208  13.458
32751W        W 5044  36.454  44.398   5.282
32752W        W 5045  17.783  28.117   2.808
32753W        W 5046  12.857  18.641   4.603
32754W        W 5047  14.330  17.186  13.033
32755W        W 5048  32.442   3.351  10.940
32756W        W 5049  14.599  36.482  11.399
32757W        W 5050  36.073   6.913   4.295
32758W        W 5051   7.690  27.641   3.254
32759W        W 5052  34.975  19.210  14.485
32760W        W 5053  43.767  33.113   5.315
32761W        W 5054   1.756   6.246   2.353
32762W        W 5055  42.407  25.505   0.273
32763W        W 5056   7.295   6.781  10.613
32764W        W 5057  13.105  39.337  11.462
32765W        W 5058  42.523  32.405   1.694
32766W        W 5059  40.508  21.723   4.746
32767W        W 5060  35.439  42.475   1.910
32768W        W 5061  43.381  34.485   2.276
32769W        W 5062  21.053  31.476  13.963
32770W        W 5063  13.136  11.353  14.964
32771W        W 5064  13.228  17.247  12.090
32772W        W 5065  26.525  20.537  14.941
32773W        W 5066   3.319   7.789  14.447
32774W        W 5067  13.759  27.999   2.757
32775W        W 5068  25.554  25.127   3.310
32776W        W 5069  28.498  33.408   4.333
32777W        W 5070  35.580  38.894  12.021
32778W        W 5071  37.981  34.382   4.798
32779W        W 5072  34.576   8.187   1.256
32780W        W 5073  35.023  23.240   4.299
32781W        W 5074  29.979  28.006  14.372
32782W        W 5075  44.918  24.588   1.319
32783W        W 5076  24.143  31.482  11.379
32784W        W 5077  20.161   4.260   3.198
32785W        W 5078  38.482  21.017  10.496
32786W        W 5079   0.324   3.898  11.087
32787W        W 5080  30.939  13.681  12.545
32788W        W 5081   4.843  36.983  10.097
32789W        W 5082  19.557  31.042   2.786
32790W        W 5083  13.788   1.299   1.298
32791W        W 5084  23.083  43.016   4.214
32792W        W 5085  35.002   7.901  11.043
32793W        W 5086  38.837  18.163  11.499
32794W        W 5087  38.493  22.192   0.265
32795W        W 5088   1.263  34.881  13.843
32796W        W 5089  27.190  20.063  11.461
32797W        W 5090  43.772  36.853   5.674
32798W        W 5091  37.548   6.424   2.223
32799W        W 5092  24.658  28.560  10.482
32800W        W 5093  35.940  28.454  12.031
32801W        W 5094  28.538  27.121   0.928
32802W        W 5095  22.599  17.278   1.826
32803W        W 5096  13.224  37.489  12.957
32804W        W 5097  42.928   1.258  11.954
32805W        W 5098  30.018  24.000   4.247
32806W        W 5099  38.987  42.358  14.837
32807W        W 5100  38.015  29.946  13.518
32808W        W 5101  12.690  41.043   4.315
32809W        W 5102  20.181  13.134  14.776
32810W        W 5103  26.517   1.864   2.747
32811W        W 5104  44.910  42.433  13.361
32812W        W 5105  44.334  37.441  11.090
32813W        W 5106  35.381  31.967  14.478
32814W        W 5107  30.444  20.677   1.291
32815W        W 5108  31.035  25.629   0.446
32816W        W 5109  39.891  33.437  12.392
32817W        W 5110  19.044  15.189   4.598
32818W        W 5111   2.963  23.655  14.937
32819W        W 5112  39.321  27.680  11.899
32820W        W 5113   1.396  21.642   1.706
32821W        W 5114  21.088  22.703  11.496
32822W        W 5115   0.270  16.095   4.352
32823W        W 5116  22.710   6.676   3.733
32824W        W 5117  26.202  18.748  11.465
32825W        W 5118   4.299  29.534  14.408
32826W        W 5119   1.869  39.809  13.425
32827W        W 5120   0.914   0.938  14.965
32828W        W 5121  19.707  31.023  12.019
32829W        W 5122   6.253  42.388  13.796
32830W        W 5123  17.779   7.690  12.851
32831W        W 5124  14.596  15.086   1.228
32832W        W 5125  29.478  10.711   0.274
32833W        W 5126  29.942  33.044  14.336
32834W        W 5127  20.695  17.651   4.740
32835W        W 5128  39.429  29.956   2.862
32836W        W 5129  32.042  33.977  12.925
32837W        W 5130  39.823  34.938   3.341
32838W        W 5131   7.318   0.912  13.807
32839W        W 5132   0.907  26.633   2.812
32840W        W 5133  38.821  37.553  11.566
32841W        W 5134   6.740  39.821   1.930
32842W        W 5135   2.959  25.188  10.905
32843W        W 5136   6.411  30.561   2.341
32844W        W 5137  12.673   2.729   2.280
32845W        W 5138  21.155  30.109  12.967
32846W        W 5139  33.058  17.679   1.702
32847W        W 5140  27.462  20.079   1.429
32848W        W 5141   2.830  33.958   4.152
32849W        W 5142  37.451  37.384   5.119
32850W        W 5143  23.624  33.567   2.845
32851W        W 5144  33.591  34.882  10.889
32852W        W 5145  34.071  41.319   0.804
32853W        W 5146   0.785  10.782   3.816
32854W        W 5147  30.423  28.648  13.803
32855W        W 5148  39.533  32.611   0.347
32856W        W 5149   9.686  31.913  13.499
32857W        W 5150  32.079  42.949  11.049
32858W        W 5151  21.169   2.371  12.021
32859W        W 5152   5.763  30.575   0.870
32860W        W 5153  44.759   1.755  12.839
32861W        W 5154  28.971  40.545  10.542
32862W        W 5155   4.750   3.396  12.570
32863W        W 5156  34.901  42.426  10.417
32864W        W 5157  15.691  22.143   2.818
32865W        W 5158  44.011  35.908   2.187
32866W        W 5159  25.047  11.143  14.888
32867W        W 5160  36.905  10.828   4.617
32868W        W 5161  39.859  23.606   0.459
32869W        W 5162  43.312  25.714   2.780
32870W        W 5163  15.641   6.224   5.253
32871W        W 5164  34.471   1.851  13.002
32872W        W 5165   7.799   5.919  12.451
32873W        W 5166   8.214  41.029  11.453
32874W        W 5167  12.666   7.751   0.346
32875W        W 5168  19.679  18.285  11.040
32876W        W 5169   2.808  27.018   3.772
32877W        W 5170   0.379  31.118  13.310
32878W        W 5171  11.865  23.037   2.261
32879W        W 5172  39.978   7.203  11.490
32880W        W 5173  38.513  22.613  13.869
32881W        W 5174  42.307  12.160   3.299
32882W        W 5175   2.847  35.552   1.251
32883W        W 5176  22.156  28.553   4.646
32884W        W 5177  38.476  23.630  13.880
32885W        W 5178   0.444   1.335   2.889
32886W        W 5179  19.045  38.894   3.813
32887W        W 5180  24.225   2.466  10.564
32888W        W 5181  25.074  14.141   1.404
32889W        W 5182  38.330  18.689   3.170
32890W        W 5183  39.384  21.670   2.865
32891W        W 5184  26.544  38.934  14.983
32892W        W 5185  15.215   6.838  11.461
32893W        W 5186   6.791  23.011  13.454
32894W        W 5187   7.239  22.687   3.316
32895W        W 5188  20.554  32.024   2.680
32896W        W 5189  37.342  25.156  13.422
32897W        W 5190  11.723  30.492   0.431
32898W        W 5191  39.509  37.561  11.601
32899W        W 5192  27.617   3.232   2.817
32900W        W 5193  25.217  44.428   1.373
32901W        W 5194  22.182  18.183   3.838
32902W        W 5195   0.464   2.416  13.854
32903W        W 5196  13.688  16.672   3.820
32904W        W 5197  24.093  29.449  11.928
32905W        W 5198  11.770  41.507  10.519
32906W        W 5199  11.838   9.853  12.029
32907W        W 5200  43.003  29.513   1.791
32908W        W 5201  22.105  39.447   3.816
32909W        W 5202   8.344  31.957  12.988
32910W        W 5203  13.720  37.397  11.991
32911W        W 5204  13.723   8.879  14.857
32912W        W 5205   1.907  24.651  11.512
32913W        W 5206   6.245   9.693  12.900
32914W        W 5207  36.946  12.817  11.595
32915W        W 5208   4.881  39.336  12.956
32916W        W 5209  40.381  20.194  13.459
32917W        W 5210  20.209   8.235   4.780
32918W        W 5211  16.273  29.616  14.491
32919W        W 5212  13.815  39.461  10.640
32920W        W 5213  20.687  33.557   5.800
32921W        W 5214   9.812  21.035   0.775
32922W        W 5215  27.970  31.497   3.321
32923W        W 5216  38.341  16.072   3.218
32924W        W 5217   0.453  14.336  12.459
32925W        W 5218   4.874  36.395   2.208
32926W        W 5219  11.145   0.352   0.729
32927W        W 5220  36.035  19.538   3.165
32928W        W 5221  12.787  38.433   0.770
32929W        W 5222  37.839   6.833   0.411
32930W        W 5223  22.251  36.519  10.574
32931W        W 5224   7.714   3.951   0.932
32932W        W 5225  19.769   1.819  12.061
32933W        W 5226  38.490  15.747   2.349
32934W        W 5227  43.416  17.070   0.968
32935W        W 5228  42.428  13.807  11.057
32936W        W 5229  38.419   4.862  12.436
32937W        W 5230  27.117  23.562   2.802
32938W        W 5231   1.360  27.683   4.736
32939W        W 5232  12.153  12.286   4.176
32940W        W 5233  11.670  35.491  14.806
32941W        W 5234  39.386  11.325  13.409
32942W        W 5235  31.412  24.994   2.687
32943W        W 5236  11.838  37.453   2.241
32944W        W 5237   1.896  17.224   5.228
32945W        W 5238  44.991  22.160   4.631
32946W        W 5239  29.620  21.746   3.379
32947W        W 5240  37.082  36.098  14.922
32948W        W 5241  36.887  36.456  12.082
32949W        W 5242  38.988  35.858   1.891
32950W        W 5243  19.153  16.676  11.895
32951W        W 5244  10.343  19.071  14.465
32952W        W 5245   6.254  15.123  10.983
32953W        W 5246   1.336  35.854   0.891
32954W        W 5247  34.113   9.719   4.773
32955W        W 5248  40.051   6.300  12.557
32956W        W 5249  37.064  17.796  14.015
32957W        W 5250  34.056  17.156  10.437
32958W        W 5251   9.303  10.717   4.615
32959W        W 5252  18.610  14.640   2.261
32960W        W 5253  33.553   4.212   1.880
32961W        W 5254  38.378  10.642   2.738
32962W        W 5255   2.237  16.244   1.273
32963W        W 5256   3.858  44.804   4.136
32964W        W 5257   3.953  27.514   1.413
32965W        W 5258  11.186  44.980  11.421
32966W        W 5259  44.448  10.825   4.745
32967W        W 5260  11.636  12.661   2.419
32968W        W 5261  32.981   0.491  13.934
32969W        W 5262  17.147  42.308  14.793
32970W        W 5263  25.582   1.372  14.341
32971W        W 5264  13.812  20.609  14.425
32972W        W 5265   1.251  36.865  11.087
32973W        W 5266   4.348  35.403  12.093
32974W        W 5267  28.498  27.559   2.818
32975W        W 5268  41.500  22.228   4.332
32976W        W 5269  21.142  36.966   4.351
32977W        W 5270  35.095   8.392   1.390
32978W        W 5271  21.261  38.926  12.571
32979W        W 5272  33.016  43.302   3.704
32980W        W 5273  21.168  43.876   0.813
32981W        W 5274  30.001  13.599  14.510
32982W        W 5275  14.232   2.258  10.013
32983W        W 5276  12.670  38.406   1.850
32984W        W 5277   1.240   2.430  13.882
32985W        W 5278  34.083  24.725   1.227
32986W        W 5279  21.097  25.496  11.881
32987W        W 5280  38.334  39.886   0.753
32988W        W 5281  27.130  30.114  13.923
32989W        W 5282  25.595  19.545  13.839
32990W        W 5283  40.000  30.459  11.916
32991W        W 5284  22.008  32.893   4.125
32992W        W 5285  14.142   0.464   1.364
32993W        W 5286  20.033  23.197  13.888
32994W        W 5287  14.338  42.483  10.481
32995W        W 5288  15.707   5.800  10.106
32996W        W 5289  10.380  29.545   0.296
32997W        W 5290  28.658  41.908  14.404
32998W        W 5291  24.069  21.060  13.475
32999W        W 5292  31.615  35.910   4.666
33000W        W 5293  34.117  35.403   2.343
33001W        W 5294   3.917  32.977  13.838
33002W        W 5295  34.904   1.294   0.324
33003W        W 5296   6.833  44.989   3.379
33004W        W 5297   9.233   5.422  10.984
33005W        W 5298  16.683   5.332   2.306
33006W        W 5299  35.925  27.995   2.840
33007W        W 5300  25.000  21.037   4.289
33008W        W 5301  13.340  38.008  13.804
33009W        W 5302  30.453  44.272   0.436
33010W        W 5303   6.768   4.810   1.415
33011W        W 5304  27.580  38.061   2.855
33012W        W 5305  37.885  11.204  10.916
33013W        W 5306  28.991   2.369   2.328
33014W        W 5307   0.940   1.788   4.611
33015W        W 5308  10.162   1.269   4.352
33016W        W 5309   5.753  24.492  13.896
33017W        W 5310  19.706  31.064   3.351
33018W        W 5311  19.157  37.370   4.599
33019W        W 5312  13.707  26.674  13.875
33020W        W 5313  43.364   9.731   2.189
33021W        W 5314   5.394  16.167  12.509
33022W        W 5315  34.419  35.967  13.972
33023W        W 5316  11.313  40.948  13.396
33024W        W 5317  21.666  30.543  12.522
33025W        W 5318  29.583  16.289   4.162
33026W        W 5319  15.324   4.774  13.978
33027W        W 5320  21.128  23.034  10.898
33028W        W 5321   8.684   7.410   2.336
33029W        W 5322  17.573  44.487   0.290
33030W        W 5323  29.973  22.531   0.267
33031W        W 5324   0.986   7.305   2.848
33032W        W 5325  43.851  20.229  12.998
33033W        W 5326  27.976  37.895  14.413
33034W        W 5327  28.001   3.381   0.370
33035W        W 5328  29.919  22.204   0.244
33036W        W 5329  33.625  15.158  12.408
33037W        W 5330  39.541   1.325  14.354
33038W        W 5331  40.514   0.787   3.658
33039W        W 5332  44.492  10.348  11.555
33040W        W 5333  18.251   3.434  11.877
33041W        W 5334  26.054  23.653   0.925
33042W        W 5335  41.840  21.100   3.653
33043W        W 5336  11.685  23.177  11.973
33044W        W 5337  33.999  10.171   1.731
33045W        W 5338  44.805  40.844  12.887
33046W        W 5339  31.995  13.831  11.000
33047W        W 5340  27.009  36.952  11.909
33048W        W 5341   0.761  22.656   5.091
33049W        W 5342  41.954   7.376   0.303
33050W        W 5343  13.228   3.297   4.712
33051W        W 5344  13.774  27.688  12.059
33052W        W 5345  40.511   4.934  12.012
33053W        W 5346  18.196  34.402  13.042
33054W        W 5347  40.510  10.141  12.053
33055W        W 5348  24.138  27.458   4.681
33056W        W 5349   4.359  12.692  14.966
33057W        W 5350  40.506  32.479  11.883
33058W        W 5351  15.205  42.518   4.308
33059W        W 5352  16.203  38.971  14.958
33060W        W 5353   1.257  10.878  10.452
33061W        W 5354  37.345  21.722  12.962
33062W        W 5355  27.074   8.717  13.324
33063W        W 5356  16.792  21.182   4.307
33064W        W 5357  10.764  10.284   3.747
33065W        W 5358  15.700  40.880   1.776
33066W        W 5359  42.353  26.993  13.493
33067W        W 5360   2.319  36.555  13.992
33068W        W 5361   4.765  35.060  10.445
33069W        W 5362  40.336  31.466   3.147
33070W        W 5363  17.637   9.166  12.350
33071W        W 5364  21.607   3.424   0.422
33072W        W 5365  38.040  22.199   4.752
33073W        W 5366   1.815   8.879  14.786
33074W        W 5367  25.706  31.508  12.072
33075W        W 5368  34.425  10.722  12.534
33076W        W 5369  17.169  37.417  10.483
33077W        W 5370  30.002   4.820  13.333
33078W        W 5371  30.482   4.717   4.303
33079W        W 5372  43.794  19.198   3.332
33080W        W 5373  29.105   9.347  11.461
33081W        W 5374   1.798   8.251   4.205
33082W        W 5375  15.322  25.630  13.919
33083W        W 5376  25.703  26.549  11.384
33084W        W 5377  27.513  33.877   2.270
33085W        W 5378  18.259  34.953   1.260
33086W        W 5379   1.854  36.028  11.577
33087W        W 5380   8.352  40.344   0.284
33088W        W 5381  38.938  24.594   2.367
33089W        W 5382  44.369  22.115  11.495
33090W        W 5383  31.149   5.307   4.702
33091W        W 5384  43.863  33.879   3.812
33092W        W 5385  40.307  17.721   4.668
33093W        W 5386  27.105  25.691   4.176
33094W        W 5387  35.467   3.342   3.840
33095W        W 5388   7.299  19.269   0.965
33096W        W 5389  35.971  28.941   2.367
33097W        W 5390  41.919   8.785  12.837
33098W        W 5391  23.497   2.347  12.924
33099W        W 5392  40.369   6.712  11.462
33100W        W 5393  44.954  12.683  10.504
33101W        W 5394  14.628  11.734   1.321
33102W        W 5395  37.927  34.613  13.838
33103W        W 5396  30.483  33.099  11.898
33104W        W 5397   5.861  23.126  10.902
33105W        W 5398  17.079  11.729   4.222
33106W        W 5399  15.115  25.694   4.269
33107W        W 5400  11.767  39.899  10.441
33108W        W 5401   0.380  24.065  13.981
33109W        W 5402  39.507  11.357   4.667
33110W        W 5403  27.678  29.105  10.542
33111W        W 5404  40.880  44.483   3.147
33112W        W 5405  20.108  22.052  11.073
33113W        W 5406  37.441  12.128  11.894
33114W        W 5407  17.300   1.321   2.760
33115W        W 5408  22.083  16.720   4.253
33116W        W 5409  12.143  18.562  14.000
33117W        W 5410  31.559  37.527   1.404
33118W        W 5411  13.162  37.903   1.243
33119W        W 5412   1.300   0.806   1.807
33120W        W 5413  36.528  28.077   0.458
33121W        W 5414  22.018  21.693   4.137
33122W        W 5415  39.384  42.410  14.328
33123W        W 5416  19.193  31.529  10.446
33124W        W 5417  37.416  37.017   4.341
33125W        W 5418  31.539  16.600   4.694
33126W        W 5419  44.982  18.691  11.965
33127W        W 5420   0.798  13.281   3.148
33128W        W 5421  41.500  20.153  14.482
33129W        W 5422   2.307  17.572   0.435
33130W        W 5423  42.326  17.142   3.169
33131W        W 5424  14.292  41.386  14.969
33132W        W 5425  17.153  25.099   9.947
33133W        W 5426   5.738  13.229  14.804
33134W        W 5427  43.860   4.292  12.475
33135W        W 5428  27.457  24.611  11.885
33136W        W 5429   0.366   2.823  11.087
33137W        W 5430  44.418  21.668  13.891
33138W        W 5431  32.903  10.240   0.445
33139W        W 5432  13.350  14.220   4.263
33140W        W 5433  42.513  15.663  10.612
33141W        W 5434  16.626  10.635   0.773
33142W        W 5435  15.722   3.896  11.483
33143W        W 5436  24.676  24.567   0.358
33144W        W 5437  39.314   4.928   4.200
33145W        W 5438  42.805  30.521  12.351
33146W        W 5439  27.039  40.347   0.818
33147W        W 5440  33.546  31.006   5.194
33148W        W 5441  14.203  26.021   0.390
33149W        W 5442  42.368  10.657   4.830
33150W        W 5443   5.213  14.616  14.810
33151W        W 5444  13.212  38.984  11.543
33152W        W 5445  23.026   5.859   1.768
33153W        W 5446   6.802   5.233  11.572
33154W        W 5447  21.231  16.631  12.355
33155W        W 5448  18.754   4.282   2.307
33156W        W 5449  14.220  36.473   1.892
33157W        W 5450  38.040  44.354   0.351
33158W        W 5451  13.152   6.827   0.471
33159W        W 5452  19.227  16.220   3.168
33160W        W 5453  43.504  14.302  14.957
33161W        W 5454   8.349   5.806  13.053
33162W        W 5455   9.186   6.870   4.623
33163W        W 5456  12.231  26.146  11.540
33164W        W 5457  32.123   5.801   3.761
33165W        W 5458  33.916   6.309   1.350
33166W        W 5459  34.878  13.265   3.643
33167W        W 5460  18.585  37.457   2.384
33168W        W 5461   3.721  28.037  10.427
33169W        W 5462  39.819  31.630  12.915
33170W        W 5463   8.730  22.099   0.869
33171W        W 5464  15.784   2.885  11.474
33172W        W 5465  21.205  32.547   2.416
33173W        W 5466  27.143  13.739   1.375
33174W        W 5467  13.189  25.176   3.870
33175W        W 5468  39.995  23.173   2.876
33176W        W 5469  19.547  40.035  13.863
33177W        W 5470  10.259  35.381   1.442
33178W        W 5471  29.614  10.682   4.743
33179W        W 5472  17.689  32.035  12.557
33180W        W 5473  33.558  17.741   4.776
33181W        W 5474   3.885  15.742  10.603
33182W        W 5475  30.652   7.287   2.833
33183W        W 5476  41.458  38.384   1.445
33184W        W 5477   3.852   7.676   1.299
33185W        W 5478  44.952  25.113  14.828
33186W        W 5479  17.298  25.109   3.248
33187W        W 5480   2.838  41.999  11.486
33188W        W 5481   0.291   5.795   4.705
33189W        W 5482  10.765  27.536   1.711
33190W        W 5483  11.343  24.084  11.381
33191W        W 5484   0.968  23.722  11.998
33192W        W 5485  11.712  17.253  12.847
33193W        W 5486  16.220  20.222   1.356
33194W        W 5487   1.958  32.135   5.232
33195W        W 5488  26.589  22.644  10.525
33196W        W 5489  30.613  15.216   3.655
33197W        W 5490  28.469  36.564  13.321
33198W        W 5491  23.727  33.965  14.000
33199W        W 5492  36.362  41.789  12.067
33200W        W 5493   4.269  28.580  10.435
33201W        W 5494  21.133  41.978  11.522
33202W        W 5495   2.229  41.466   4.832
33203W        W 5496  27.042  29.581   3.783
33204W        W 5497  27.191  37.433   1.785
33205W        W 5498  20.544  20.060  12.079
33206W        W 5499   9.348  42.964   2.185
33207W        W 5500  12.305   7.242  13.465
33208W        W 5501   4.929  17.135  14.810
33209W        W 5502  36.589  15.747   4.655
33210W        W 5503  34.562  31.959   4.139
33211W        W 5504  16.092   9.840   3.341
33212W        W 5505  23.213  36.350   2.278
33213W        W 5506   6.364   7.736  10.457
33214W        W 5507  32.012  35.875  13.031
33215W        W 5508  29.018  13.203   1.417
33216W        W 5509  31.090   3.930  10.426
33217W        W 5510  29.648  17.735   4.646
33218W        W 5511  16.591  15.705  12.878
33219W        W 5512  39.854  14.772   3.726
33220W        W 5513  44.809  37.473  13.433
33221W        W 5514  12.298  28.952  12.360
33222W        W 5515  24.003   1.296  12.966
33223W        W 5516  26.636  25.071  14.831
33224W        W 5517  11.641  31.958  11.072
33225W        W 5518  25.685   3.258   2.418
33226W        W 5519   9.153  27.195   0.473
33227W        W 5520   1.797  10.271  12.925
33228W        W 5521  42.346  33.025   4.114
33229W        W 5522   7.195  17.272  12.520
33230W        W 5523   8.818   2.345  14.888
33231W        W 5524  21.174  15.657   4.248
33232W        W 5525   3.820  19.076   1.720
33233W        W 5526   4.363  22.010  14.379
33234W        W 5527  11.824  12.765  13.914
33235W        W 5528  34.951  34.865  14.972
33236W        W 5529   1.282  39.508   3.261
33237W        W 5530  39.962  41.835  14.006
33238W        W 5531  27.514  39.879  14.762
33239W        W 5532   0.766  11.637  14.950
33240W        W 5533  10.855  35.906   1.905
33241W        W 5534   3.924  13.115   3.171
33242W        W 5535  42.283  37.568  14.331
33243W        W 5536  19.659  11.159   1.255
33244W        W 5537  16.177  26.188  11.980
33245W        W 5538  13.754  44.465  13.494
33246W        W 5539  39.934  32.958  10.537
33247W        W 5540  13.844   4.714  13.820
33248W        W 5541  25.114  37.446   0.740
33249W        W 5542  40.305  12.665  14.413
33250W        W 5543  21.099  43.483   3.316
33251W        W 5544  13.337  38.378  10.413
33252W        W 5545  41.819   7.237  13.454
33253W        W 5546  11.173  16.271  11.983
33254W        W 5547  15.254  25.590  11.439
33255W        W 5548  26.183   5.383  12.438
33256W        W 5549  44.499   3.778   3.852
33257W        W 5550  30.495   1.301   2.344
33258W        W 5551   6.248   5.344  11.103
33259W        W 5552   9.204  39.001   0.324
33260W        W 5553  23.718  44.300   3.670
33261W        W 5554  21.648  12.806   1.855
33262W        W 5555   7.861   3.793  11.930
33263W        W 5556  22.096  21.089   1.911
33264W        W 5557  12.199   7.192   1.813
33265W        W 5558  20.148  16.250  14.398
33266W        W 5559  17.211  12.222   3.672
33267W        W 5560  37.074  21.583  10.949
33268W        W 5561   6.880  20.736   0.965
33269W        W 5562  41.793  28.187   1.825
33270W        W 5563  30.431  26.646   3.803
33271W        W 5564   6.893  12.141  13.941
33272W        W 5565  24.515  17.277   3.296
33273W        W 5566  25.020   2.308   3.785
33274W        W 5567  34.571  32.469   2.733
33275W        W 5568  17.692  25.626   2.202
33276W        W 5569  17.684  39.443  12.496
33277W        W 5570  19.073  36.552   4.720
33278W        W 5571  18.556  40.535   3.767
33279W        W 5572  12.325  31.932   4.617
33280W        W 5573  16.183  43.507   1.271
33281W        W 5574  17.742  42.454   1.777
33282W        W 5575  15.656  20.648   3.182
33283W        W 5576  15.121   0.831  10.500
33284W        W 5577  33.877  35.363   2.886
33285W        W 5578  30.585  15.624  14.916
33286W        W 5579  19.698  35.391   4.346
33287W        W 5580  41.505  23.088  11.005
33288W        W 5581   4.852  12.736  12.383
33289W        W 5582  14.708   4.819  14.292
33290W        W 5583  25.678  42.469   0.344
33291W        W 5584  13.680  19.048  14.498
33292W        W 5585  18.251  40.880   0.300
33293W        W 5586  29.573  41.039   2.814
33294W        W 5587   5.877  20.216   0.361
33295W        W 5588  32.932  14.311  13.470
33296W        W 5589   5.325   1.862   3.366
33297W        W 5590  38.385  39.537   0.944
33298W        W 5591  27.600  18.201   2.803
33299W        W 5592   0.435  19.212   4.170
33300W        W 5593  29.650  33.578   1.828
33301W        W 5594  13.641  30.944  11.108
33302W        W 5595   3.751  18.773   4.334
33303W        W 5596  11.164  31.420   2.715
33304W        W 5597   3.791   5.716  11.557
33305W        W 5598  11.674  34.377   0.430
33306W        W 5599  21.201  29.047  13.032
33307W        W 5600  41.408  42.826   0.244
33308W        W 5601  18.181  18.125  13.954
33309W        W 5602  27.516  36.987  14.799
33310W        W 5603  25.008   5.788   4.597
33311W        W 5604   5.735   0.343   0.432
33312W        W 5605  24.032   3.927   1.719
33313W        W 5606  16.248   1.243   0.337
33314W        W 5607   5.286  10.381  12.864
33315W        W 5608  14.271  43.022  12.519
33316W        W 5609   2.262  15.203   0.442
33317W        W 5610  13.780  15.274  14.464
33318W        W 5611  24.531  25.133  12.089
33319W        W 5612  14.797   9.317  14.976
33320W        W 5613   6.308  32.120  13.378
33321W        W 5614   6.302  38.372   1.437
33322W        W 5615  15.789  43.988  10.888
33323W        W 5616   0.771  31.556   3.265
33324W        W 5617  12.137  24.623  13.449
33325W        W 5618  28.109  17.682   3.646
33326W        W 5619   7.686  44.982   1.820
33327W        W 5620  21.605   4.894   4.345
33328W        W 5621  43.987   9.234   4.732
33329W        W 5622  30.948   3.434   0.819
33330W        W 5623  40.408   6.894   3.667
33331W        W 5624  17.642  41.928  12.013
33332W        W 5625  33.546  24.699  12.549
33333W        W 5626  31.403  14.657  13.795
33334W        W 5627  23.004  42.926  13.060
33335W        W 5628  11.760   3.372  10.989
33336W        W 5629  20.610  37.925  11.084
33337W        W 5630  35.467  35.924   1.789
33338W        W 5631  31.094  40.384   1.850
33339W        W 5632  29.548  29.455   1.374
33340W        W 5633   5.834  33.462  14.363
33341W        W 5634  23.082  15.254   4.605
33342W        W 5635  32.960   1.386  12.951
33343W        W 5636  12.167  28.062  10.440
33344W        W 5637  29.098  30.947  14.376
33345W        W 5638  19.683  15.209  13.991
33346W        W 5639  16.675  31.081   0.780
33347W        W 5640  38.042  34.550   3.386
33348W        W 5641  16.813  37.993  12.487
33349W        W 5642   9.285  26.562  10.483
33350W        W 5643   7.860  40.019  12.933
33351W        W 5644  28.064   8.404   2.350
33352W        W 5645  25.118  33.111  11.007
33353W        W 5646  15.597  18.775  13.343
33354W        W 5647  30.003   0.913  14.293
33355W        W 5648  35.867  41.325  12.950
33356W        W 5649   7.304   7.259   3.378
33357W        W 5650  14.646  12.742  14.950
33358W        W 5651  39.353   7.225   2.869
33359W        W 5652   1.962  12.823   0.410
33360W        W 5653  41.041   5.410   0.377
33361W        W 5654  30.497  28.008  14.357
33362W        W 5655   6.243  43.510  14.316
33363W        W 5656  24.996  13.260   3.323
33364W        W 5657  12.810   9.373  11.097
33365W        W 5658  34.018  16.596  11.477
33366W        W 5659  17.663  28.994  11.397
33367W        W 5660  13.212   0.929  14.002
33368W        W 5661  15.296  10.647  14.299
33369W        W 5662  29.473  42.448  10.492
33370W        W 5663  42.510  10.315  14.425
33371W        W 5664  12.232  12.610  10.600
33372W        W 5665  40.008  28.591  10.487
33373W        W 5666  40.913  16.095  14.291
33374W        W 5667   9.184  34.919   1.762
33375W        W 5668  10.318  34.082  14.512
33376W        W 5669  21.630  43.804   1.831
33377W        W 5670  10.149  31.067  11.861
33378W        W 5671  42.870   1.765  10.959
33379W        W 5672   0.289  27.561   2.239
33380W        W 5673  31.489   1.244   2.408
33381W        W 5674   1.404  25.686   0.379
33382W        W 5675  10.823  41.331   2.681
33383W        W 5676  41.294   7.825  10.457
33384W        W 5677  13.304  31.630   1.738
33385W        W 5678  29.939   5.780  11.856
33386W        W 5679   7.394   6.805  11.596
33387W        W 5680  39.504  28.653  11.095
33388W        W 5681  44.290   3.301   5.266
33389W        W 5682  27.149   9.662  12.049
33390W        W 5683  11.268   6.834  10.959
33391W        W 5684  25.027  43.433  12.423
33392W        W 5685  26.496  21.735  13.989
33393W        W 5686  36.079  33.461  12.063
33394W        W 5687  14.740   0.962  12.983
33395W        W 5688  40.329  20.647   1.427
33396W        W 5689  42.785  25.163   0.355
33397W        W 5690  29.478  11.657  14.376
33398W        W 5691  34.557  37.047  11.605
33399W        W 5692  34.422  38.837  11.962
33400W        W 5693   6.359   0.837  12.396
33401W        W 5694  42.849  37.878  14.963
33402W        W 5695   5.858  43.456   1.300
33403W        W 5696  19.044  19.102   2.284
33404W        W 5697  44.997  18.587  12.947
33405W        W 5698  28.667  19.126  12.571
33406W        W 5699  37.529   4.930   3.729
33407W        W 5700  33.615  39.360  13.484
33408W        W 5701  22.702  38.942   3.182
33409W        W 5702  39.825  20.152  12.860
33410W        W 5703  28.526  12.245  10.491
33411W        W 5704  10.331  27.454  14.796
33412W        W 5705  21.237  38.840  13.804
33413W        W 5706  11.309  36.954   3.208
33414W        W 5707   9.254  29.968   3.815
33415W        W 5708   4.869  24.520  12.577
33416W        W 5709  11.146   1.478  11.452
33417W        W 5710  43.346  35.028   2.386
33418W        W 5711  25.095   6.833  13.423
33419W        W 5712  39.957  27.536   2.364
33420W        W 5713  42.987  44.454   4.809
33421W        W 5714  41.296  28.124   0.816
33422W        W 5715  25.043  28.034  13.891
33423W        W 5716  10.813  44.455   2.185
33424W        W 5717  23.677   4.412  11.043
33425W        W 5718  26.961   4.227   2.749
33426W        W 5719  12.854   1.342   1.304
33427W        W 5720  38.954  19.678   3.182
33428W        W 5721  18.779   6.363  14.289
33429W        W 5722  39.335   9.668   3.289
33430W        W 5723  41.299  19.261   4.774
33431W        W 5724  36.379   0.855  13.030
33432W        W 5725  12.699   6.836  11.867
33433W        W 5726  41.955   5.820   1.772
33434W        W 5727  24.130   4.741  14.482
33435W        W 5728  34.586  15.767   4.279
33436W        W 5729  38.563  21.175   2.863
33437W        W 5730  24.562  28.187   3.680
33438W        W 5731  12.165  44.436  10.477
33439W        W 5732   8.194  20.218   1.864
33440W        W 5733  22.620  24.630   0.896
33441W        W 5734  25.488   9.790  13.309
33442W        W 5735   2.907  31.607  11.527
33443W        W 5736  27.042  21.615  10.077
33444W        W 5737  37.876   7.730  11.602
33445W        W 5738  17.644  26.508  11.870
33446W        W 5739  21.711  26.676   4.297
33447W        W 5740  13.667  12.235   3.843
33448W        W 5741  22.656   7.317   3.701
33449W        W 5742  38.449  21.559   0.968
33450W        W 5743   7.800  37.070   0.733
33451W        W 5744  22.207   6.722  14.409
33452W        W 5745  18.686  32.902  13.827
33453W        W 5746  18.137   3.265  12.423
33454W        W 5747  40.430  26.172   3.291
33455W        W 5748  33.532  36.003  12.024
33456W        W 5749  23.607  21.651   2.889
33457W        W 5750  23.699  26.530  14.512
33458W        W 5751  41.949  17.276   5.623
33459W        W 5752  16.615  31.570   3.686
33460W        W 5753  22.114   9.764   2.743
33461W        W 5754   3.813  12.120   3.693
33462W        W 5755  43.332  25.712   3.632
33463W        W 5756  39.848  28.587   2.247
33464W        W 5757  41.996  44.950   3.312
33465W        W 5758  35.907   6.868   2.312
33466W        W 5759  14.138  39.929  12.563
33467W        W 5760  28.056  30.585  14.410
33468W        W 5761  35.054  27.573  12.080
33469W        W 5762  26.484   6.830   3.163
33470W        W 5763  13.295  33.931  11.449
33471W        W 5764  22.042  17.110   2.893
33472W        W 5765   9.671  43.864  12.057
33473W        W 5766  21.197  13.304  14.324
33474W        W 5767  10.847  38.421   1.406
33475W        W 5768  33.073  25.090   1.274
33476W        W 5769  26.525  17.589  10.520
33477W        W 5770  31.068  15.235  13.027
33478W        W 5771  33.492  16.630   2.683
33479W        W 5772  26.126   4.851   0.257
33480W        W 5773  27.523  43.967  11.485
33481W        W 5774  33.875  20.082   4.143
33482W        W 5775   5.695  25.552   0.287
33483W        W 5776   3.796   4.861  13.444
33484W        W 5777   6.401  26.205  11.104
33485W        W 5778  41.913  42.523  14.416
33486W        W 5779  28.499   4.788   2.749
33487W        W 5780  30.544  25.692  11.042
33488W        W 5781  40.478  25.700   2.798
33489W        W 5782  30.069  23.585  10.572
33490W        W 5783  32.956  11.132   1.329
33491W        W 5784  26.099  25.700   2.389
33492W        W 5785  24.567  43.322   4.344
33493W        W 5786  26.086  19.638  11.903
33494W        W 5787  10.756   4.803  13.924
33495W        W 5788  38.984  26.029   0.346
33496W        W 5789  31.466  18.624  14.319
33497W        W 5790  30.634  28.028   4.282
33498W        W 5791   7.179  33.004  11.604
33499W        W 5792  21.563  34.954  10.497
33500W        W 5793  44.361   6.212   3.191
33501W        W 5794  31.951  35.565  11.447
33502W        W 5795  26.981   9.696   2.285
33503W        W 5796  20.740  15.659  12.439
33504W        W 5797  20.723   6.186   1.219
33505W        W 5798  14.123   3.450   4.268
33506W        W 5799  20.268  33.591   5.676
33507W        W 5800  27.621   2.236   4.660
33508W        W 5801  19.675  16.705   4.323
33509W        W 5802  10.188  39.018   3.177
33510W        W 5803  16.586  22.652  11.887
33511W        W 5804  13.131  17.295   4.719
33512W        W 5805  41.369  44.002  13.328
33513W        W 5806   0.897  28.145   3.787
33514W        W 5807  43.839  17.788   2.720
33515W        W 5808  13.745  20.614  13.936
33516W        W 5809  14.201  30.161  14.413
33517W        W 5810   8.400  37.969   4.226
33518W        W 5811  22.210  16.227  11.373
33519W        W 5812  20.764   2.274  11.096
33520W        W 5813  30.520  39.518  10.632
33521W        W 5814   8.168   4.265   0.293
33522W        W 5815  12.801  24.541   4.633
33523W        W 5816   5.732  22.593   1.786
33524W        W 5817  29.963  39.843  11.499
33525W        W 5818  28.575  42.939   3.634
33526W        W 5819   2.456  21.541  13.458
33527W        W 5820  23.117  26.532  13.401
33528W        W 5821  21.043  19.268  12.916
33529W        W 5822   6.245  35.908  14.805
33530W        W 5823  23.055  17.105   4.667
33531W        W 5824  12.834   0.920  13.360
33532W        W 5825  42.878  39.061  14.007
33533W        W 5826  44.009  38.561  11.981
33534W        W 5827  29.053  34.875  10.582
33535W        W 5828   8.263  15.789   0.845
33536W        W 5829  27.539   4.320  13.462
33537W        W 5830  35.366   3.272  12.554
33538W        W 5831  18.283  12.252   2.377
33539W        W 5832  18.551   8.867  14.847
33540W        W 5833  44.921  26.470  12.418
33541W        W 5834   7.390  19.568   0.366
33542W        W 5835  34.535  36.472  12.852
33543W        W 5836  28.546  37.923   2.819
33544W        W 5837  36.499  44.819   4.180
33545W        W 5838  32.404   6.319  11.535
33546W        W 5839  18.173   9.380  13.359
33547W        W 5840  22.717   7.403  11.386
33548W        W 5841  10.263  24.063  14.449
33549W        W 5842  16.766   2.872   2.348
33550W        W 5843  25.600  18.758   3.660
33551W        W 5844  43.865  11.632   4.797
33552W        W 5845  35.549  24.007   0.252
33553W        W 5846  41.036   6.238   2.787
33554W        W 5847  15.638   9.870  14.764
33555W        W 5848  43.428  40.415   2.723
33556W        W 5849  18.568  23.006   0.956
33557W        W 5850  43.849  24.119  10.556
33558W        W 5851  40.349   7.885   0.796
33559W        W 5852  29.147  22.710   5.303
33560W        W 5853  42.447  15.157   4.164
33561W        W 5854  22.036   4.724   5.174
33562W        W 5855  10.721  26.186   4.671
33563W        W 5856  34.385  31.056   0.869
33564W        W 5857  19.208   3.844   2.214
33565W        W 5858   6.301  35.027   0.324
33566W        W 5859  24.146  31.948  13.344
33567W        W 5860  22.144  15.709   2.819
33568W        W 5861  11.317  30.563   3.782
33569W        W 5862  32.979  37.065  12.861
33570W        W 5863  29.449  33.556  12.906
33571W        W 5864   9.226  26.533  13.478
33572W        W 5865  20.664  11.193   4.167
33573W        W 5866  17.653  37.402   2.747
33574W        W 5867  44.444  17.676  10.438
33575W        W 5868  24.991  10.687  14.808
33576W        W 5869  39.943   4.259  11.910
33577W        W 5870  25.610   0.915  10.579
33578W        W 5871  11.639   9.716  13.512
33579W        W 5872   2.737   8.206   0.933
33580W        W 5873  25.966  30.095  12.400
33581W        W 5874  44.276  15.721   1.307
33582W        W 5875   9.875  37.516  11.546
33583W        W 5876  15.779  25.128   1.249
33584W        W 5877  41.296  14.312   5.157
33585W        W 5878  41.448  14.827   0.762
33586W        W 5879  27.451   1.808   2.249
33587W        W 5880   0.260  22.018  10.590
33588W        W 5881  22.118  42.437  13.021
33589W        W 5882  13.783   5.783   0.799
33590W        W 5883  19.055   9.779   2.386
33591W        W 5884   0.923  16.756   0.344
33592W        W 5885  28.586  43.360   1.710
33593W        W 5886  16.201  23.672   0.381
33594W        W 5887  16.265  15.707  14.960
33595W        W 5888  44.478   1.440   5.238
33596W        W 5889   1.753  13.669  11.007
33597W        W 5890  25.041  38.430   2.864
33598W        W 5891  35.887  40.379   3.222
33599W        W 5892  15.749   6.408  13.866
33600W        W 5893   9.709  13.711  13.854
33601W        W 5894  38.864   6.748   3.274
33602W        W 5895  42.432   9.805  10.977
33603W        W 5896  30.519  23.182   2.819
33604W        W 5897  43.320   5.201   1.872
33605W        W 5898  37.888  34.097   3.803
33606W        W 5899  22.532  12.161   4.313
33607W        W 5900  38.969  23.594  14.949
33608W        W 5901  22.057  25.714   4.764
33609W        W 5902  17.225  35.431  12.955
33610W        W 5903  23.674  31.491  13.929
33611W        W 5904  15.150  22.013  13.341
33612W        W 5905  41.466  15.257   0.847
33613W        W 5906  34.897  40.022  10.054
33614W        W 5907   2.340  44.380  12.391
33615W        W 5908  15.728  30.440   1.358
33616W        W 5909  13.760  40.442   0.390
33617W        W 5910  35.964   9.261  10.532
33618W        W 5911   0.331  39.370  11.521
33619W        W 5912  23.518   5.221  10.984
33620W        W 5913   4.214   1.324  13.996
33621W        W 5914   1.963  41.040  11.559
33622W        W 5915  16.136  19.197   0.817
33623W        W 5916  23.663  11.168   0.950
33624W        W 5917  21.605   3.274  11.073
33625W        W 5918  32.623  12.319   2.880
33626W        W 5919  29.028  35.030   2.251
33627W        W 5920  38.391   3.426  12.382
33628W        W 5921  13.718  17.234   0.867
33629W        W 5922  37.520  29.040  13.058
33630W        W 5923   1.887  11.685   3.706
33631W        W 5924  35.550  34.035  13.906
33632W        W 5925  14.653  27.197   3.176
33633W        W 5926  40.433  30.587  10.555
33634W        W 5927  21.235   2.915   4.717
33635W        W 5928  42.342  44.314   2.391
33636W        W 5929   4.267   0.905  14.874
33637W        W 5930  32.540   9.797   4.753
33638W        W 5931  36.946  42.819   2.396
33639W        W 5932  21.233   0.862  14.940
33640W        W 5933  36.057  36.448   1.316
33641W        W 5934  40.047  44.003  12.939
33642W        W 5935  24.174  33.093   3.252
33643W        W 5936  23.213   8.881  14.311
33644W        W 5937  37.855  25.996  10.925
33645W        W 5938  26.041   6.708  10.638
33646W        W 5939  16.695  11.703   1.780
33647W        W 5940  41.797  36.589  12.937
33648W        W 5941   3.298  18.637   2.881
33649W        W 5942  34.871  32.422  13.984
33650W        W 5943  32.541  23.022   0.915
33651W        W 5944  24.078  37.361   4.724
33652W        W 5945   0.951  17.181  12.954
33653W        W 5946  12.782  37.539   1.799
33654W        W 5947   0.808  11.691  14.302
33655W        W 5948   1.310  17.101  14.449
33656W        W 5949  29.440  38.515  11.997
33657W        W 5950  42.478  41.467   0.288
33658W        W 5951  32.044  22.642   4.724
33659W        W 5952  20.209  37.454   0.874
33660W        W 5953   2.393   5.741   2.368
33661W        W 5954   5.796  35.988  11.936
33662W        W 5955  37.503  26.187   2.227
33663W        W 5956  13.112  28.022  13.535
33664W        W 5957  20.246  27.625  12.881
33665W        W 5958   1.267  41.501   4.257
33666W        W 5959  35.868   2.470   3.323
33667W        W 5960   6.278  42.943   5.181
33668W        W 5961  40.022  16.782   0.348
33669W        W 5962  33.580  41.345  12.459
33670W        W 5963  36.007  43.512   2.297
33671W        W 5964   4.372  23.588   3.157
33672W        W 5965   0.296  37.965  11.519
33673W        W 5966  18.549  34.864   0.405
33674W        W 5967  39.868  10.177   2.724
33675W        W 5968  36.468  38.450  13.368
33676W        W 5969  30.943  28.477  14.943
33677W        W 5970  22.083  31.976  14.827
33678W        W 5971   4.878  37.476   3.321
33679W        W 5972  32.026  30.471  10.148
33680W        W 5973  41.999  29.018   1.411
33681W        W 5974  41.388  12.129  12.085
33682W        W 5975  35.095  19.756   0.254
33683W        W 5976  27.446  12.358  12.361
33684W        W 5977  43.421  35.012  14.763
33685W        W 5978  24.518  32.125  14.425
33686W        W 5979  20.133  12.300  10.952
33687W        W 5980  41.456  14.695  13.409
33688W        W 5981  23.207  42.990   2.873
33689W        W 5982  42.311  25.667   0.798
33690W        W 5983   6.707  18.167  11.572
33691W        W 5984  19.627   1.757  12.933
33692W        W 5985   3.726  42.287  12.558
33693W        W 5986  38.859  21.548  13.515
33694W        W 5987  43.269   3.409   3.204
33695W        W 5988   9.710  27.498   2.375
33696W        W 5989  30.093  19.073   2.388
33697W        W 5990  10.198  13.348   2.866
33698W        W 5991  37.481  25.174   1.904
33699W        W 5992  31.001  25.040   2.274
33700W        W 5993  44.472  11.635   3.269
33701W        W 5994  10.822   8.246   1.887
33702W        W 5995  27.174  16.607   4.682
33703W        W 5996   8.679  37.508   2.219
33704W        W 5997  12.805  38.957  12.409
33705W        W 5998  10.795  19.624   0.352
33706W        W 5999  33.909  41.379   2.769
33707W        W 6000   5.887  12.744   3.360
33708W        W 6001  34.414   9.231  12.409
33709W        W 6002   1.904  20.697  10.424
33710W        W 6003  23.653  22.561   3.865
33711W        W 6004  29.427  23.074  10.489
33712W        W 6005  44.840  21.141  14.970
33713W        W 6006  29.975  15.311   1.777
33714W        W 6007  26.599  38.516  14.428
33715W        W 6008   9.354  26.549  12.059
33716W        W 6009  31.552   8.853   0.256
33717W        W 6010  16.274  38.930   3.200
33718W        W 6011   7.193   4.903  13.001
33719W        W 6012  15.271   1.911   2.358
33720W        W 6013  24.121  23.734   1.452
33721W        W 6014  43.003   0.899  12.856
33722W        W 6015   0.965  17.624  12.868
33723W        W 6016  44.791   8.826   2.892
33724W        W 6017  19.113  30.074  13.030
33725W        W 6018  10.689  34.038   0.453
33726W        W 6019  20.215  32.546  13.893
33727W        W 6020  37.877   5.250  13.929
33728W        W 6021   1.873  36.584  10.930
33729W        W 6022  34.897   0.314  13.467
33730W        W 6023  23.185  37.363   4.169
33731W        W 6024  24.482  31.924   4.798
33732W        W 6025  37.554  21.152  12.508
33733W        W 6026   6.224  16.804  10.629
33734W        W 6027   3.440   4.335  11.597
33735W        W 6028  37.353  11.300   1.451
33736W        W 6029  31.522  18.729   3.769
33737W        W 6030  23.702  27.578  14.020
33738W        W 6031  27.486   0.947   0.949
33739W        W 6032   6.355   9.309   3.320
33740W        W 6033  12.171   0.260   4.743
33741W        W 6034  25.709  36.867   4.186
33742W        W 6035  37.373   2.369  11.891
33743W        W 6036   2.829   5.923   0.384
33744W        W 6037   5.849  43.803   2.789
33745W        W 6038  38.476  33.585  12.511
33746W        W 6039  32.129  26.505  10.530
33747W        W 6040  34.994  27.170   2.732
33748W        W 6041   4.269  44.401   1.371
33749W        W 6042  40.815   2.414   2.898
33750W        W 6043  39.059  25.025   2.882
33751W        W 6044  10.194  13.600   2.217
33752W        W 6045  23.117  33.952  13.858
33753W        W 6046   8.890   9.657  13.437
33754W        W 6047  22.507   0.293  13.464
33755W        W 6048  16.739  39.497   0.333
33756W        W 6049  19.766  42.003   2.201
33757W        W 6050  31.626  25.662   3.342
33758W        W 6051  10.821  29.488   2.381
33759W        W 6052  11.718  44.372  13.968
33760W        W 6053  37.483  18.188  12.978
33761W        W 6054   3.886  36.011  11.977
33762W        W 6055  26.048  37.503   3.158
33763W        W 6056  27.961  42.880   2.736
33764W        W 6057  16.199  21.208   2.226
33765W        W 6058  11.681  23.637   1.360
33766W        W 6059  15.220  41.869  11.420
33767W        W 6060   7.773  11.164   0.940
33768W        W 6061  25.119  28.539  11.046
33769W        W 6062   0.440  35.412  14.410
33770W        W 6063  24.187  17.263   9.993
33771W        W 6064   7.666  27.029  11.443
33772W        W 6065  19.652  22.583   3.227
33773W        W 6066  16.123   0.986  12.487
33774W        W 6067   6.911  28.667   1.428
33775W        W 6068   3.718   5.719   4.195
33776W        W 6069  11.624  12.742  12.873
33777W        W 6070  16.105  16.658   1.725
33778W        W 6071  30.086  17.158  12.425
33779W        W 6072  30.079  11.151  10.405
33780W        W 6073  13.611  29.002   3.374
33781W        W 6074  35.570   8.225   3.229
33782W        W 6075  17.659   3.226  14.796
33783W        W 6076   9.740  32.915  12.933
33784W        W 6077  31.925   1.975  12.438
33785W        W 6078  23.696  21.113   4.188
33786W        W 6079  39.052  39.444  13.838
33787W        W 6080  31.494   3.286   0.799
33788W        W 6081  21.548  35.594   3.304
33789W        W 6082  16.237  11.640   4.269
33790W        W 6083  17.571  35.553  13.462
33791W        W 6084  30.435  19.777  14.280
33792W        W 6085   3.461  22.083   3.152
33793W        W 6086  17.095  28.448  11.938
33794W        W 6087  17.727  23.015  10.945
33795W        W 6088   5.398  36.912  13.988
33796W        W 6089  17.645  42.826   0.733
33797W        W 6090  37.564  25.636  14.978
33798W        W 6091   4.707  21.117   1.737
33799W        W 6092  26.666  34.988  14.462
33800W        W 6093   4.240   0.885  12.029
33801W        W 6094  39.914  22.704  12.000
33802W        W 6095  37.915  13.720   0.411
33803W        W 6096  42.431  39.346   4.701
33804W        W 6097  38.026  28.056  12.445
33805W        W 6098  31.119  31.141   1.895
33806W        W 6099  12.327   8.892   1.259
33807W        W 6100  30.118   9.368   1.838
33808W        W 6101  36.082  13.144  10.448
33809W        W 6102   1.780  28.472  14.347
33810W        W 6103  25.107   7.280  12.882
33811W        W 6104  28.663  43.273  11.040
33812W        W 6105  13.113  44.340  14.001
33813W        W 6106   1.413  37.881  14.816
33814W        W 6107   7.700   0.345  11.448
33815W        W 6108  42.289  15.671   1.233
33816W        W 6109  40.910  39.975  11.082
33817W        W 6110  20.247  31.133  10.500
33818W        W 6111  22.631  34.523  10.581
33819W        W 6112  33.935   2.254  14.422
33820W        W 6113  16.796   7.806   3.709
33821W        W 6114  18.060  32.431   1.728
33822W        W 6115  26.457   6.347  10.610
33823W        W 6116  41.804  23.493   0.422
33824W        W 6117  13.819  34.501  13.452
33825W        W 6118  44.923  37.905  11.868
33826W        W 6119  41.429  28.963  10.552
33827W        W 6120  12.759   0.781   0.264
33828W        W 6121  20.142   2.897  14.027
33829W        W 6122   5.243  42.922  13.412
33830W        W 6123  32.585  21.111  10.535
33831W        W 6124  14.196  34.560  11.574
33832W        W 6125  12.687  17.616   1.851
33833W        W 6126  12.671  17.602   4.353
33834W        W 6127  28.661   9.882   1.756
33835W        W 6128  43.984   1.433   3.319
33836W        W 6129  15.296   0.455  10.595
33837W        W 6130  29.920   3.337  10.594
33838W        W 6131  33.001  31.440  12.402
33839W        W 6132  32.894  30.459   2.327
33840W        W 6133  37.982   7.259  12.544
33841W        W 6134   1.852  29.658   0.958
33842W        W 6135  22.560   1.471   0.782
33843W        W 6136  31.600  23.690   1.871
33844W        W 6137  38.998   7.745   1.758
33845W        W 6138  32.553  16.093  12.932
33846W        W 6139  43.463  40.009   4.733
33847W        W 6140  13.183  11.199  13.484
33848W        W 6141  21.658  37.938  11.509
33849W        W 6142  27.063  39.343   1.340
33850W        W 6143  28.092  34.554   0.417
33851W        W 6144  35.452  18.153   0.368
33852W        W 6145  11.792  29.670  14.448
33853W        W 6146  34.964  23.679   3.377
33854W        W 6147  34.104   4.833   1.777
33855W        W 6148  41.304  31.590  14.933
33856W        W 6149  16.808   5.905   1.716
33857W        W 6150  13.271  37.042   2.330
33858W        W 6151  29.053   3.785   0.354
33859W        W 6152   0.304  27.084   3.861
33860W        W 6153  32.040  42.777   4.835
33861W        W 6154  40.504   9.695   1.929
33862W        W 6155  20.061  22.129  12.076
33863W        W 6156  26.499   7.277   2.714
33864W        W 6157  42.884  37.529   4.748
33865W        W 6158  22.679  14.828  13.510
33866W        W 6159  22.088  30.549  13.476
33867W        W 6160   6.193  25.128   2.720
33868W        W 6161  20.269  35.442   2.735
33869W        W 6162  17.630   5.830   2.788
33870W        W 6163   6.713  14.666  11.100
33871W        W 6164  22.633  41.814  11.876
33872W        W 6165  36.365  29.175   1.267
33873W        W 6166  25.018  30.537  10.968
33874W        W 6167  23.201  12.358  14.872
33875W        W 6168  11.157  34.015  12.404
33876W        W 6169  18.245  27.066  10.544
33877W        W 6170  36.842  10.258  10.919
33878W        W 6171  40.981  33.439   1.263
33879W        W 6172   0.257  30.514   3.653
33880W        W 6173  20.160   1.803  10.570
33881W        W 6174  41.856  24.492   3.786
33882W        W 6175   5.365  17.214   2.751
33883W        W 6176  33.474  44.997  14.375
33884W        W 6177  30.158   8.396   0.938
33885W        W 6178  14.646  22.717  13.872
33886W        W 6179   1.347   2.903  14.904
33887W        W 6180  27.052  11.335   0.446
33888W        W 6181  22.699  32.077  13.895
33889W        W 6182  21.737   6.214  13.329
33890W        W 6183  30.522  21.159  14.321
33891W        W 6184  20.186  37.993   3.796
33892W        W 6185   0.259  22.693   3.234
33893W        W 6186  38.377  37.367  12.069
33894W        W 6187  43.371  37.924   2.239
33895W        W 6188  15.756  16.659  10.554
33896W        W 6189   2.289  25.054   5.111
33897W        W 6190  12.335  39.854   3.798
33898W        W 6191  28.439  11.206   1.228
33899W        W 6192  26.532  43.286  11.950
33900W        W 6193  43.372  28.165   4.679
33901W        W 6194  34.013  31.614   2.752
33902W        W 6195  35.073  43.975  13.004
33903W        W 6196   6.325  20.208  14.408
33904W        W 6197  22.156  16.182   0.324
33905W        W 6198   9.658  27.490  13.472
33906W        W 6199  14.731  34.606  12.855
33907W        W 6200  21.219   0.826   4.342
33908W        W 6201  44.436  18.248  13.893
33909W        W 6202  43.921  19.714   4.256
33910W        W 6203  28.524  17.576  13.956
33911W        W 6204  15.224  26.057  10.415
33912W        W 6205  37.840  22.531  10.561
33913W        W 6206  11.353   0.336   4.808
33914W        W 6207  26.685  10.671   2.789
33915W        W 6208  37.539  44.273  11.574
33916W        W 6209  12.120  28.996   1.758
33917W        W 6210  41.384  39.966  13.946
33918W        W 6211  37.337  17.280   3.774
33919W        W 6212  10.179  40.841   2.237
33920W        W 6213  26.566  11.746   2.392
33921W        W 6214  41.386  15.706   2.700
33922W        W 6215  32.552  32.472  13.835
33923W        W 6216  37.863  20.043   0.451
33924W        W 6217  15.815  10.642  11.432
33925W        W 6218  18.126  19.620  12.453
33926W        W 6219  16.206  39.898  11.512
33927W        W 6220  15.316  14.178   2.316
33928W        W 6221   3.344  21.597   3.719
33929W        W 6222   5.778  21.254  11.908
33930W        W 6223   7.861  26.182  13.470
33931W        W 6224  30.116   4.719  12.825
33932W        W 6225  17.248  29.573   2.249
33933W        W 6226  24.978  18.229  11.076
33934W        W 6227   7.683  34.600  13.880
33935W        W 6228   5.727  40.965   0.454
33936W        W 6229  26.697  17.106   0.933
33937W        W 6230  23.686   1.740   3.172
33938W        W 6231   0.868  11.628   5.209
33939W        W 6232  10.165  20.196   4.195
33940W        W 6233  42.457   7.729   4.150
33941W        W 6234  44.913   7.193   4.256
33942W        W 6235   6.688  19.686  11.992
33943W        W 6236   7.187   8.680  13.059
33944W        W 6237  14.712  40.422  12.423
33945W        W 6238  27.598  18.757  10.628
33946W        W 6239   3.291   3.276   4.127
33947W        W 6240  13.816  17.097   4.770
33948W        W 6241  27.502   5.821  14.470
33949W        W 6242  40.963  34.548   1.713
33950W        W 6243  28.933  14.253  14.305
33951W        W 6244  21.099  22.515  14.815
33952W        W 6245  22.699   0.373  13.921
33953W        W 6246  22.728   7.239  12.892
33954W        W 6247  19.214  21.652  10.981
33955W        W 6248  41.460  11.371   2.260
33956W        W 6249   1.483  25.531  10.989
33957W        W 6250   1.766  23.638   0.325
33958W        W 6251  44.364  43.917  12.917
33959W        W 6252  10.324  34.074   4.824
33960W        W 6253  17.607   4.396   3.633
33961W        W 6254  23.177  24.202   0.393
33962W        W 6255   1.976  44.457   0.448
33963W        W 6256   6.736  27.666   1.297
33964W        W 6257  17.237   7.911   4.225
33965W        W 6258  27.569   5.363   4.656
33966W        W 6259   7.704  44.331   0.350
33967W        W 6260  11.267  25.121  14.370
33968W        W 6261  23.172  40.368  12.381
33969W        W 6262  41.876  20.584   1.729
33970W        W 6263  30.628  35.014   3.864
33971W        W 6264   6.271  24.654  14.007
33972W        W 6265   9.672  30.649  13.441
33973W        W 6266  13.324  23.213   3.364
33974W        W 6267  32.005  44.373   3.262
33975W        W 6268  13.697   6.854   1.770
33976W        W 6269  24.675  14.191   3.353
33977W        W 6270  34.042  14.618   1.315
33978W        W 6271  38.468  42.293   4.296
33979W        W 6272  24.034  42.021  10.890
33980W        W 6273   1.891   4.742   2.269
33981W        W 6274   2.888   0.465   1.215
33982W        W 6275  39.992  35.874  11.870
33983W        W 6276   1.752   4.846  12.576
33984W        W 6277  21.596   7.274  10.446
33985W        W 6278  39.383  12.643  11.940
33986W        W 6279  10.157  34.035   0.332
33987W        W 6280   5.407  32.078  10.977
33988W        W 6281  43.996  26.172   4.666
33989W        W 6282  14.146  24.654  12.355
33990W        W 6283   7.761  17.132   4.225
33991W        W 6284  16.767  34.513   3.174
33992W        W 6285  20.270  34.428   3.330
33993W        W 6286   3.396  37.456  13.339
33994W        W 6287  40.985  35.989  14.844
33995W        W 6288  34.059  36.047  13.403
33996W        W 6289   3.741  24.629   4.155
33997W        W 6290   2.896  18.268   1.239
33998W        W 6291   8.354  41.381   3.206
33999W        W 6292  11.815  42.979  13.501
34000W        W 6293  18.229  19.594  13.344
34001W        W 6294  27.496  14.680  12.496
34002W        W 6295   0.913  17.144   9.970
34003W        W 6296  36.405  42.356  11.858
34004W        W 6297  16.155  41.439   0.821
34005W        W 6298  37.039  44.467  12.950
34006W        W 6299  18.222  41.886  13.515
34007W        W 6300  35.367   6.305   1.357
34008W        W 6301  14.326  30.062   1.390
34009W        W 6302  18.120  33.879   3.699
34010W        W 6303  12.830  23.670  10.543
34011W        W 6304  11.830  26.565  11.086
34012W        W 6305  37.463  38.398   2.833
34013W        W 6306   5.694  26.645   3.660
34014W        W 6307  34.594   5.783   1.849
34015W        W 6308  32.472  40.879  14.514
34016W        W 6309  29.153   5.739  13.938
34017W        W 6310  28.027  28.081   2.856
34018W        W 6311  34.953  20.706  12.570
34019W        W 6312  44.366  13.844   3.707
34020W        W 6313   5.731  35.879  10.555
34021W        W 6314   0.773  15.764   4.617
34022W        W 6315  27.134  39.338  10.934
34023W        W 6316  15.755  17.102   2.809
34024W        W 6317   8.328  21.708   0.869
34025W        W 6318   5.194   4.256  13.845
34026W        W 6319  13.623  43.966  11.993
34027W        W 6320   2.471  18.202   4.654
34028W        W 6321  11.790   7.815   2.361
34029W        W 6322  29.934   8.756   5.219
34030W        W 6323  40.852   5.244   1.832
34031W        W 6324  29.081  25.501  13.875
34032W        W 6325  17.666  14.209   0.841
34033W        W 6326  35.527  26.044   3.306
34034W        W 6327   4.876  38.879  13.368
34035W        W 6328  28.019  15.756  11.029
34036W        W 6329  31.456  11.683  14.776
34037W        W 6330   8.686  43.984   3.729
34038W        W 6331  23.637  32.547  14.292
34039W        W 6332  42.897  33.595   1.359
34040W        W 6333  11.830   2.900   1.805
34041W        W 6334  12.739  32.396   4.117
34042W        W 6335  44.308  17.564  14.880
34043W        W 6336  36.988   2.400   1.340
34044W        W 6337  15.256   7.334   1.875
34045W        W 6338  22.047  33.422   3.288
34046W        W 6339  23.591  17.124   2.380
34047W        W 6340  37.359   6.360   4.179
34048W        W 6341  26.528   0.306  14.399
34049W        W 6342  38.380  16.298   4.767
34050W        W 6343  44.913  23.609  11.439
34051W        W 6344  13.198  17.675   1.888
34052W        W 6345  30.945  22.610   1.908
34053W        W 6346  29.598   5.918  13.490
34054W        W 6347  41.859  23.996  10.559
34055W        W 6348  35.520  15.586   3.238
34056W        W 6349  35.576  36.557   1.839
34057W        W 6350   7.222  39.863  12.530
34058W        W 6351  27.529   4.890   4.297
34059W        W 6352  38.995  17.752   3.769
34060W        W 6353  14.736  40.347  11.599
34061W        W 6354  23.058  40.816   2.184
34062W        W 6355  24.656  22.713   4.803
34063W        W 6356  15.682  40.547   2.182
34064W        W 6357  13.707   2.447  13.016
34065W        W 6358  38.512   5.237  10.474
34066W        W 6359  41.367  27.973  12.575
34067W        W 6360  36.565  44.478  14.848
34068W        W 6361  24.695   5.267  13.518
34069W        W 6362  43.946  18.697  12.983
34070W        W 6363  22.087  32.392  14.347
34071W        W 6364  40.883  21.713  11.428
34072W        W 6365  33.550  16.774  14.498
34073W        W 6366  42.993  26.681   4.710
34074W        W 6367   5.854  36.031   0.862
34075W        W 6368   5.697  39.039   0.447
34076W        W 6369   6.407  31.983   1.306
34077W        W 6370  33.897  39.540   2.297
34078W        W 6371   8.294  36.981   9.982
34079W        W 6372  43.460   3.853  13.945
34080W        W 6373  28.435  16.195   4.164
34081W        W 6374  26.207  18.646  11.090
34082W        W 6375  15.240  35.565  13.510
34083W        W 6376  33.125   5.899  13.517
34084W        W 6377   2.844  17.183   1.338
34085W        W 6378   2.862   4.821  11.023
34086W        W 6379  33.010  31.106  12.560
34087W        W 6380  25.181  37.055  10.930
34088W        W 6381   0.365  32.420  14.415
34089W        W 6382  38.468  35.526  10.426
34090W        W 6383  42.351  15.288   2.300
34091W        W 6384   3.819  40.948  13.372
34092W        W 6385  33.124  25.637  11.391
34093W        W 6386  40.025  26.181   4.655
34094W        W 6387   2.840   9.879  11.862
34095W        W 6388  27.047  31.640  12.090
34096W        W 6389  38.441  33.619   0.906
34097W        W 6390  18.190  10.779  14.419
34098W        W 6391   4.342  44.311  11.942
34099W        W 6392  14.620   7.314   3.305
34100W        W 6393  16.632   8.171  10.597
34101W        W 6394  44.325  33.877  10.513
34102W        W 6395  27.026   6.878  13.348
34103W        W 6396   9.290  34.555  11.046
34104W        W 6397  18.599  17.731  14.479
34105W        W 6398  30.135   0.268   4.234
34106W        W 6399  10.653  42.409  14.977
34107W        W 6400   3.816  10.366   3.215
34108W        W 6401  32.468  25.143  13.830
34109W        W 6402  15.627   4.940   1.399
34110W        W 6403  36.015  17.560   1.717
34111W        W 6404  44.473  20.055  10.479
34112W        W 6405  11.679  25.013   1.342
34113W        W 6406   9.198  23.095  14.866
34114W        W 6407  37.871  33.428  11.880
34115W        W 6408  18.163  22.148  10.579
34116W        W 6409  37.905   7.820   1.415
34117W        W 6410   9.371   8.322   0.765
34118W        W 6411  36.383   1.912   1.408
34119W        W 6412   4.275  39.489   2.835
34120W        W 6413   5.755  19.062  13.421
34121W        W 6414  10.337  37.994   4.238
34122W        W 6415  36.441  21.040   0.794
34123W        W 6416   0.901  43.287   4.191
34124W        W 6417  12.119   1.877  12.978
34125W        W 6418  39.994  37.530  12.532
34126W        W 6419  35.436  28.045  12.885
34127W        W 6420  18.284  38.922  12.084
34128W        W 6421  23.140  40.328   2.762
34129W        W 6422  35.502  34.020   0.385
34130W        W 6423   1.934  43.894  10.983
34131W        W 6424   6.734  23.207  11.015
34132W        W 6425  29.088   2.230   0.803
34133W        W 6426  26.177   7.806   0.291
34134W        W 6427  42.330  17.642  10.968
34135W        W 6428  33.514  37.060  12.342
34136W        W 6429   6.860  43.924   0.781
34137W        W 6430  31.125  12.806  14.934
34138W        W 6431  43.382  42.319   2.403
34139W        W 6432  31.965  15.757  12.088
34140W        W 6433  18.122  29.511   1.935
34141W        W 6434  38.400   5.427   3.324
34142W        W 6435  43.775  23.595  12.506
34143W        W 6436  11.283  36.008  12.986
34144W        W 6437  38.896  10.168   2.805
34145W        W 6438  22.678  37.066  13.885
34146W        W 6439  12.160  27.471   2.270
34147W        W 6440  43.437   5.437   4.818
34148W        W 6441  38.976  13.706   2.179
34149W        W 6442  40.384   7.223   1.745
34150W        W 6443  38.007   3.240   0.335
34151W        W 6444  18.160  39.558  11.589
34152W        W 6445  29.940  19.671   0.273
34153W        W 6446   5.860   1.272  11.533
34154W        W 6447   0.379  40.541  14.505
34155W        W 6448   4.882  12.808   5.209
34156W        W 6449  12.791  19.241   1.725
34157W        W 6450  43.323  18.743   0.961
34158W        W 6451  17.707  16.700  11.859
34159W        W 6452  41.511  28.487  12.379
34160W        W 6453  26.501  35.951   0.458
34161W        W 6454   8.729  34.449  11.427
34162W        W 6455  29.965   7.823  12.026
34163W        W 6456  40.304  14.706   4.676
34164W        W 6457   2.229  41.500  13.496
34165W        W 6458  25.178  28.482  14.404
34166W        W 6459   7.828  36.475   3.652
34167W        W 6460   3.879  11.256  12.041
34168W        W 6461   2.866  33.597  14.420
34169W        W 6462  18.740  26.155  11.533
34170W        W 6463  23.527  15.197  11.544
34171W        W 6464   3.429  41.960  14.473
34172W        W 6465  13.313  16.730  11.053
34173W        W 6466  13.758   8.867  12.430
34174W        W 6467  35.068  28.068  10.046
34175W        W 6468  21.605   7.404   0.274
34176W        W 6469  28.057  44.811  14.961
34177W        W 6470  12.811  36.430   2.712
34178W        W 6471  34.892  27.012  10.620
34179W        W 6472  24.702   7.754  14.404
34180W        W 6473  21.143  14.132   4.749
34181W        W 6474  19.283  26.201   3.739
34182W        W 6475  26.038  44.877  12.829
34183W        W 6476   2.915  15.280   4.779
34184W        W 6477  18.622   2.811   0.919
34185W        W 6478  23.637  41.320  14.299
34186W        W 6479   3.749  33.911   4.695
34187W        W 6480  39.954  26.127   2.215
34188W        W 6481   0.973   6.193  11.959
34189W        W 6482   5.275   9.362  14.421
34190W        W 6483  10.828  11.861  12.457
34191W        W 6484   6.403   1.411   2.283
34192W        W 6485   9.353  22.607   2.892
34193W        W 6486  18.066  39.323  11.999
34194W        W 6487  23.199  10.778  10.462
34195W        W 6488  33.606  15.183  11.952
34196W        W 6489  43.782   0.390   2.762
34197W        W 6490  42.949  25.125  14.336
34198W        W 6491  14.221   0.948   3.717
34199W        W 6492  19.670   5.430  14.349
34200W        W 6493   3.317  35.466   0.448
34201W        W 6494  28.446  34.438   2.851
34202W        W 6495   5.868   9.826   3.853
34203W        W 6496   0.901  30.938   1.768
34204W        W 6497  32.906  34.422   1.719
34205W        W 6498  27.034   9.778  14.376
34206W        W 6499  12.218  34.998   4.197
34207W        W 6500  18.187  37.416   5.307
34208W        W 6501   8.376  37.368   3.678
34209W        W 6502   8.659  29.630   1.397
34210W        W 6503  44.872  25.035   2.251
34211W        W 6504  41.486  23.064  11.892
34212W        W 6505  18.613  34.462   3.178
34213W        W 6506  24.650  19.593  11.891
34214W        W 6507  37.058  15.174   2.245
34215W        W 6508  42.026  29.433  13.991
34216W        W 6509  36.541   6.865  13.844
34217W        W 6510  16.317   8.264   4.147
34218W        W 6511  11.821  10.703   4.134
34219W        W 6512  29.017  19.191  15.000
34220W        W 6513  43.903   4.756   4.785
34221W        W 6514  42.897  18.187  11.594
34222W        W 6515   5.876  19.044   4.314
34223W        W 6516   7.377  39.856   4.619
34224W        W 6517  37.509  35.014   4.219
34225W        W 6518   9.246  43.460   2.798
34226W        W 6519  31.086   5.802  14.860
34227W        W 6520  30.013  38.475  14.407
34228W        W 6521  15.698  16.614   0.455
34229W        W 6522  44.867  34.401   0.855
34230W        W 6523   8.812  43.964   4.280
34231W        W 6524   7.760  31.943  14.990
34232W        W 6525  42.382   3.415  11.535
34233W        W 6526   8.327  39.378   2.192
34234W        W 6527  11.306  32.891   4.814
34235W        W 6528   2.395   6.705   1.713
34236W        W 6529   4.938  32.401   4.244
34237W        W 6530  40.306   0.346  11.097
34238W        W 6531  29.978  32.896   3.845
34239W        W 6532  30.946  35.901   0.812
34240W        W 6533  17.284  24.591  10.472
34241W        W 6534   5.329   4.241   0.374
34242W        W 6535  23.237  44.397   4.655
34243W        W 6536  31.093   8.828  14.465
34244W        W 6537   7.671  19.071   3.752
34245W        W 6538   1.270  24.715   2.792
34246W        W 6539  10.148   8.868  10.079
34247W        W 6540  21.677  21.740   2.233
34248W        W 6541   9.385  29.608  13.337
34249W        W 6542  35.975  30.154  12.954
34250W        W 6543   3.236  21.696   4.641
34251W        W 6544  10.715  16.209   2.238
34252W        W 6545  40.444  22.160   3.815
34253W        W 6546  19.077  27.025  14.369
34254W        W 6547   8.666   9.341  11.428
34255W        W 6548  10.760  36.847   4.732
34256W        W 6549  16.649  24.657   4.610
34257W        W 6550  38.339  10.656  14.802
34258W        W 6551  42.518  35.509   2.402
34259W        W 6552  23.134   4.420   4.196
34260W        W 6553  15.251  16.770   2.855
34261W        W 6554  18.098   4.767  11.121
34262W        W 6555  25.168  44.462   1.747
34263W        W 6556  40.945  17.797  14.286
34264W        W 6557  15.202  39.336   1.703
34265W        W 6558   9.743  34.883  14.369
34266W        W 6559   0.773  16.135  12.443
34267W        W 6560  20.220  43.407   4.193
34268W        W 6561   6.288   0.339   0.966
34269W        W 6562   5.743   1.743  12.990
34270W        W 6563  22.083  30.497   2.215
34271W        W 6564  41.330  17.748   2.850
34272W        W 6565   0.485  42.810  11.936
34273W        W 6566   7.284  31.567   3.834
34274W        W 6567  43.854   2.854   1.778
34275W        W 6568  34.550   7.304   3.814
34276W        W 6569  28.034  24.647  11.521
34277W        W 6570  24.645  42.476   0.742
34278W        W 6571  12.360  43.413  13.037
34279W        W 6572  27.651  40.518  12.982
34280W        W 6573   5.291   0.388  13.952
34281W        W 6574   0.983  40.398  10.920
34282W        W 6575  10.316  28.104  14.823
34283W        W 6576  18.741  34.883  11.894
34284W        W 6577  13.348   4.272   0.435
34285W        W 6578   3.438  37.562   3.217
34286W        W 6579  43.940  31.020  14.300
34287W        W 6580  24.680  42.873   1.348
34288W        W 6581   2.835  41.442   1.331
34289W        W 6582  19.681  39.828  10.569
34290W        W 6583  30.047  39.435  14.307
34291W        W 6584  39.547  33.983  10.916
34292W        W 6585  42.962  24.575  11.395
34293W        W 6586  17.190  20.042  12.395
34294W        W 6587   5.815   6.907   1.774
34295W        W 6588  20.590  36.942  11.091
34296W        W 6589  13.609  19.700  14.761
34297W        W 6590  37.880  43.843  14.445
34298W        W 6591  36.567   9.675  14.479
34299W        W 6592  42.865  33.908  13.531
34300W        W 6593  35.014  24.013  13.874
34301W        W 6594  17.736  24.996   1.434
34302W        W 6595  12.137  36.939  11.886
34303W        W 6596  20.149  29.446  12.433
34304W        W 6597  25.026  30.543   2.826
34305W        W 6598  26.553   0.780   2.879
34306W        W 6599  35.556  38.480   0.317
34307W        W 6600  20.165   8.778  14.939
34308W        W 6601  40.940  22.012   1.419
34309W        W 6602  36.379  26.597   0.726
34310W        W 6603  22.615  14.203   4.174
34311W        W 6604  26.687  20.062   4.791
34312W        W 6605   3.820  30.431   5.190
34313W        W 6606  13.732  24.162  14.780
34314W        W 6607  41.939   9.817   4.134
34315W        W 6608  33.083  44.887  10.559
34316W        W 6609  17.585  33.599  13.872
34317W        W 6610  27.033  23.534  11.521
34318W        W 6611  32.446  10.791   1.722
34319W        W 6612  14.632  35.910   0.422
34320W        W 6613   6.890  36.953   3.835
34321W        W 6614   3.263  31.639   4.677
34322W        W 6615  33.518  25.673   2.221
34323W        W 6616  37.019  11.154  12.379
34324W        W 6617   9.763   2.327  13.351
34325W        W 6618  29.602  10.647  14.808
34326W        W 6619  36.918  33.993  13.478
34327W        W 6620  42.924  26.127   0.965
34328W        W 6621   3.402  26.554   2.375
34329W        W 6622  30.957  40.421  10.539
34330W        W 6623  16.078  34.023   2.320
34331W        W 6624  31.628  27.026  11.455
34332W        W 6625   8.330  38.518   3.382
34333W        W 6626  35.983  44.408   0.906
34334W        W 6627  37.574  42.298  10.563
34335W        W 6628  17.691   2.899  13.480
34336W        W 6629  39.349  10.664   1.789
34337W        W 6630  18.067  14.271  11.886
34338W        W 6631  20.721  37.996   1.428
34339W        W 6632  28.520  24.610   0.285
34340W        W 6633  13.123  25.043   5.199
34341W        W 6634  14.106   7.874   0.405
34342W        W 6635  34.603  42.005   0.903
34343W        W 6636  40.029   5.697   2.246
34344W        W 6637   6.231  12.132  11.005
34345W        W 6638  36.044   8.267  13.058
34346W        W 6639  20.040  12.792  13.509
34347W        W 6640  34.901  42.367   4.124
34348W        W 6641  20.258  35.030  11.010
34349W        W 6642  30.462  40.896  14.778
34350W        W 6643  19.160   6.367   0.443
34351W        W 6644  22.617   3.807   2.713
34352W        W 6645  38.853  27.093  11.032
34353W        W 6646  19.213   9.732   0.784
34354W        W 6647  39.843   0.847  11.380
34355W        W 6648  36.097  30.457  13.847
34356W        W 6649   4.767  31.974  12.921
34357W        W 6650  27.991  40.020   4.279
34358W        W 6651   2.286  21.131   4.194
34359W        W 6652  24.508  39.472   1.859
34360W        W 6653   2.285  41.443   0.391
34361W        W 6654  30.443   9.890   3.279
34362W        W 6655  12.347  11.367   2.309
34363W        W 6656   4.782  29.435  11.384
34364W        W 6657  26.582   6.707  12.005
34365W        W 6658  39.847  21.123   0.769
34366W        W 6659  27.072  30.653   2.804
34367W        W 6660  40.819  25.503   3.308
34368W        W 6661   6.753   9.725   1.758
34369W        W 6662  37.411  34.054   2.885
34370W        W 6663  43.843  18.261  12.065
34371W        W 6664   8.272   2.291  11.437
34372W        W 6665  29.023  12.281  14.394
34373W        W 6666  18.708   7.743  14.480
34374W        W 6667  32.522  38.463  13.888
34375W        W 6668  29.003  11.648  14.332
34376W        W 6669   9.827  39.905  11.876
34377W        W 6670  38.327  39.535   1.926
34378W        W 6671   9.836  40.000  13.919
34379W        W 6672  44.854   1.318  13.858
34380W        W 6673  35.559  25.685   3.299
34381W        W 6674  42.511  19.230  13.880
34382W        W 6675  29.648  25.967  11.909
34383W        W 6676  29.069  44.394   0.954
34384W        W 6677  22.644  10.191  14.789
34385W        W 6678  27.026  10.790  11.404
34386W        W 6679   7.708   2.884   0.416
34387W        W 6680  27.984  35.076   0.841
34388W        W 6681  14.612  44.329  12.398
34389W        W 6682  44.776  17.276   0.293
34390W        W 6683  42.853  16.160  13.976
34391W        W 6684   1.926  35.422  13.017
34392W        W 6685  23.018  16.127  13.847
34393W        W 6686  32.527   4.210   0.464
34394W        W 6687   9.674   5.361  13.796
34395W        W 6688  15.293  32.623   4.727
34396W        W 6689   4.356  38.337   1.891
34397W        W 6690  38.853  43.936   4.616
34398W        W 6691  44.482   8.280  13.887
34399W        W 6692   7.241  33.902  11.881
34400W        W 6693  35.532  22.232  10.430
34401W        W 6694   8.374  27.556  12.002
34402W        W 6695   9.740  25.032   0.478
34403W        W 6696  12.276  29.148  10.470
34404W        W 6697  39.062  38.843  13.327
34405W        W 6698  29.093  41.471  12.996
34406W        W 6699  30.081  10.208   2.710
34407W        W 6700  33.507   1.273   1.249
34408W        W 6701  27.071  17.623  13.438
34409W        W 6702   5.706  37.062  13.937
34410W        W 6703   7.193  19.250  11.985
34411W        W 6704   5.934  40.469  10.512
34412W        W 6705  17.191  41.491   0.271
34413W        W 6706  15.800  33.935   1.809
34414W        W 6707  28.142  17.770  12.453
34415W        W 6708  41.849  30.440   3.330
34416W        W 6709  33.407  33.514   5.293
34417W        W 6710   8.846  23.673  13.405
34418W        W 6711  41.937  30.091   0.295
34419W        W 6712  36.549  28.453   4.644
34420W        W 6713   7.892  35.854   0.922
34421W        W 6714  18.755   0.792   4.672
34422W        W 6715  17.705  37.550   5.252
34423W        W 6716   5.273  23.152   4.699
34424W        W 6717  18.077   6.921  14.444
34425W        W 6718  44.271  31.566  14.824
34426W        W 6719   8.165  33.917  12.924
34427W        W 6720  12.848  36.416   4.177
34428W        W 6721  39.993  24.203   4.811
34429W        W 6722   8.378  16.583  11.091
34430W        W 6723  14.182  20.177  10.499
34431W        W 6724   5.690  38.354   0.300
34432W        W 6725  19.609  16.727   3.364
34433W        W 6726  20.636  15.217  14.881
34434W        W 6727  24.662  44.483   4.330
34435W        W 6728  10.223  17.612   2.344
34436W        W 6729  28.489   2.267   0.392
34437W        W 6730  34.081  27.485  11.980
34438W        W 6731  27.155  37.012   2.254
34439W        W 6732   1.811  29.108  12.545
34440W        W 6733  31.600  19.675  13.815
34441W        W 6734  18.727  38.832  11.076
34442W        W 6735  23.537   1.328   1.786
34443W        W 6736  15.726   3.291  10.525
34444W        W 6737  18.783  16.643   0.304
34445W        W 6738  18.145  38.433   3.212
34446W        W 6739  34.082  23.196  13.882
34447W        W 6740   2.241  25.583  12.971
34448W        W 6741  37.898  36.458  10.925
34449W        W 6742   4.369   6.293   4.174
34450W        W 6743  43.896  31.453   2.866
34451W        W 6744  12.200  17.583  13.052
34452W        W 6745  25.179  26.996   0.966
34453W        W 6746  17.093  28.524   2.740
34454W        W 6747   5.215  41.007  10.440
34455W        W 6748   7.736   8.855  11.125
34456W        W 6749   3.415  32.565  10.899
34457W        W 6750  25.014  38.537   2.223
34458W        W 6751  44.280  36.455   1.735
34459W        W 6752   8.190   7.876  10.576
34460W        W 6753   9.277  43.510  10.466
34461W        W 6754  16.704  26.546   2.894
34462W        W 6755   1.252  36.054  14.802
34463W        W 6756  21.256  12.826  12.568
34464W        W 6757  27.129  32.503  13.422
34465W        W 6758  25.468  39.981  12.993
34466W        W 6759  44.855  43.973  11.864
34467W        W 6760  26.082  20.243   2.811
34468W        W 6761   9.316  24.053  14.975
34469W        W 6762   5.343  26.082   4.276
34470W        W 6763   0.840  32.434  14.904
34471W        W 6764  14.665  39.960  13.353
34472W        W 6765   2.343  24.583  13.855
34473W        W 6766  33.620  24.548   1.695
34474W        W 6767   7.759  22.169  13.499
34475W        W 6768  39.527  33.513  13.889
34476W        W 6769  26.578  32.440  11.454
34477W        W 6770  30.413  25.667   0.767
34478W        W 6771  17.664   7.402  14.294
34479W        W 6772  34.972  16.113  14.296
34480W        W 6773  43.801  17.169  11.104
34481W        W 6774  25.004  23.211  14.760
34482W        W 6775   0.915  22.082   3.221
34483W        W 6776  33.120   3.750   2.324
34484W        W 6777  23.528  30.144   4.744
34485W        W 6778  41.967  32.928  10.588
34486W        W 6779  31.580  29.489  14.779
34487W        W 6780  34.555  32.410  11.482
34488W        W 6781  40.384  23.156  13.439
34489W        W 6782  36.560  39.912   2.412
34490W        W 6783  23.661  34.481  11.006
34491W        W 6784  36.971  20.127   3.828
34492W        W 6785  15.276  25.115   4.132
34493W        W 6786  25.211  41.863  14.389
34494W        W 6787  36.044   6.769   2.753
34495W        W 6788   2.753  37.852   3.718
34496W        W 6789  32.512  40.962  10.514
34497W        W 6790  24.117  14.604   2.794
34498W        W 6791  24.148   6.761   3.234
34499W        W 6792  37.972  14.303   0.447
34500W        W 6793  41.473  41.320  10.551
34501W        W 6794  29.022  22.521   1.902
34502W        W 6795  35.991  18.190  10.483
34503W        W 6796  36.535  38.416  10.514
34504W        W 6797   0.377  13.782  10.584
34505W        W 6798  44.298   6.425  10.428
34506W        W 6799  40.965  15.669  11.912
34507W        W 6800  16.231  44.985  10.424
34508W        W 6801  21.667  30.589  11.124
34509W        W 6802  21.194  14.185  11.406
34510W        W 6803  18.208  38.341  10.561
34511W        W 6804   4.793   9.858  12.528
34512W        W 6805  40.971  43.785  11.424
34513W        W 6806  42.008  12.305   4.161
34514W        W 6807  33.556  31.898  11.523
34515W        W 6808  12.141  11.132   3.317
34516W        W 6809   1.337  11.323   4.718
34517W        W 6810   5.413  31.457  11.498
34518W        W 6811   6.686  42.914  12.882
34519W        W 6812  24.113   3.321   4.177
34520W        W 6813   7.836  11.167  11.006
34521W        W 6814  11.158  29.151  14.330
34522W        W 6815  25.654  31.908   4.794
34523W        W 6816   2.357  30.117  11.958
34524W        W 6817  24.558  43.848   2.670
34525W        W 6818  16.601  36.981  11.556
34526W        W 6819  40.374  31.026  11.373
34527W        W 6820  30.122   4.425  14.438
34528W        W 6821  17.236  17.256   4.624
34529W        W 6822  32.485  29.063  14.765
34530W        W 6823  33.607  32.888   1.749
34531W        W 6824   8.203  35.055   9.923
34532W        W 6825  44.983  13.268   4.657
34533W        W 6826  17.162  12.270  11.861
34534W        W 6827  36.584  38.527  12.416
34535W        W 6828  27.553  24.225   0.255
34536W        W 6829  32.113  17.101   1.932
34537W        W 6830   3.919  10.786   3.637
34538W        W 6831  43.789  22.998   2.339
34539W        W 6832  21.677  33.947   1.873
34540W        W 6833   0.803  40.479  13.828
34541W        W 6834  17.567  41.974   0.919
34542W        W 6835  30.144   4.340   0.938
34543W        W 6836  35.373  29.488   2.292
34544W        W 6837  39.064  34.521  12.996
34545W        W 6838  14.304  21.604   2.825
34546W        W 6839   1.340   2.397   2.263
34547W        W 6840  29.640  15.104   2.200
34548W        W 6841  39.452  32.574  14.282
34549W        W 6842   8.861  37.396   0.859
34550W        W 6843   3.717  20.101  12.536
34551W        W 6844  24.049  17.092  11.873
34552W        W 6845  44.772   6.769  10.963
34553W        W 6846  16.736  41.861   1.297
34554W        W 6847  30.608  37.997  14.017
34555W        W 6848  41.970  35.357  12.084
34556W        W 6849  36.573  28.953  10.454
34557W        W 6850  28.468   2.243  12.855
34558W        W 6851  20.752  27.197   1.747
34559W        W 6852  25.643   5.869  14.383
34560W        W 6853  11.853  43.470   0.919
34561W        W 6854   4.793   0.863   3.697
34562W        W 6855  16.207  34.986  14.414
34563W        W 6856  31.554  18.742   1.322
34564W        W 6857  36.068  43.330  13.878
34565W        W 6858  22.510  29.493   4.352
34566W        W 6859  19.136  31.492  11.494
34567W        W 6860  18.130  20.203  10.535
34568W        W 6861  29.625  32.013   0.946
34569W        W 6862  17.277   2.379   1.887
34570W        W 6863   1.431  25.578  10.618
34571W        W 6864  13.784  13.840   1.698
34572W        W 6865   8.783  31.972  10.466
34573W        W 6866  20.572  20.736  13.016
34574W        W 6867  11.287  10.726   1.795
34575W        W 6868  27.007  29.142   0.304
34576W        W 6869   2.460  28.552   0.731
34577W        W 6870  11.681   6.343  11.926
34578W        W 6871   8.656  40.876   0.422
34579W        W 6872   1.366   5.338  14.398
34580W        W 6873  44.903   4.893  14.877
34581W        W 6874  16.178  15.620  11.407
34582W        W 6875  21.708  32.462  12.411
34583W        W 6876  37.412  10.674   1.902
34584W        W 6877  13.294  37.520  11.059
34585W        W 6878  42.832  15.756   0.308
34586W        W 6879  41.888   9.666  12.457
34587W        W 6880  29.654  18.101   2.796
34588W        W 6881  19.580  40.948  10.591
34589W        W 6882  21.179  34.502   4.788
34590W        W 6883  18.148  40.395  12.946
34591W        W 6884  29.061  18.613   2.196
34592W        W 6885  39.541  20.254   1.840
34593W        W 6886  38.408  29.163   3.290
34594W        W 6887   6.420   8.368   4.609
34595W        W 6888  18.598  36.066  10.426
34596W        W 6889   3.925  35.574  14.413
34597W        W 6890  16.265  20.239  11.991
34598W        W 6891  39.943  21.563   3.315
34599W        W 6892  31.553  15.119  10.919
34600W        W 6893  17.595  12.149  12.467
34601W        W 6894  18.260  11.219  11.990
34602W        W 6895   3.423  23.718  12.917
34603W        W 6896  10.673  29.618   4.603
34604W        W 6897   9.682   2.370  14.876
34605W        W 6898   3.227   9.223   3.377
34606W        W 6899   9.753  41.294   1.408
34607W        W 6900  20.228  22.679   3.746
34608W        W 6901  21.619  17.715   0.792
34609W        W 6902   2.902  28.580   4.686
34610W        W 6903  38.968  15.722   9.968
34611W        W 6904  23.215  17.082  11.991
34612W        W 6905  41.876   4.752  11.053
34613W        W 6906  40.446  37.576  13.352
34614W        W 6907   5.265  32.429  13.316
34615W        W 6908  43.847  24.979  14.404
34616W        W 6909  20.105  14.239  14.974
34617W        W 6910   8.364  29.552  11.570
34618W        W 6911   1.352  14.704   0.876
34619W        W 6912   0.954  10.155  14.308
34620W        W 6913  44.504  37.039   2.746
34621W        W 6914  17.136  40.038  13.821
34622W        W 6915  35.482  35.036   4.199
34623W        W 6916  14.701  18.563  10.542
34624W        W 6917  13.206  22.072   0.407
34625W        W 6918  29.584  35.073  13.956
34626W        W 6919  40.325  12.831  11.606
34627W        W 6920   3.762  12.610  11.861
34628W        W 6921  11.711   7.863   2.831
34629W        W 6922  29.536  44.290   1.849
34630W        W 6923  43.331  20.050  11.035
34631W        W 6924  26.167  25.521  11.068
34632W        W 6925  19.143  30.988   4.798
34633W        W 6926  22.173   6.390   3.633
34634W        W 6927  29.092   8.197   3.356
34635W        W 6928   1.428  14.803   0.251
34636W        W 6929  23.708  13.602  11.573
34637W        W 6930  15.795  10.731  10.429
34638W        W 6931   7.331  42.318   0.883
34639W        W 6932  17.092   2.774  10.982
34640W        W 6933   9.200  24.505   1.396
34641W        W 6934   1.961  28.651  11.860
34642W        W 6935   3.919  39.401   2.761
34643W        W 6936  10.354  13.206   0.946
34644W        W 6937  38.532  26.699   2.850
34645W        W 6938  39.364  40.924  13.855
34646W        W 6939  29.990  44.301  13.437
34647W        W 6940  19.655  26.095  11.985
34648W        W 6941  25.703  24.159  12.517
34649W        W 6942  42.820  12.127  12.407
34650W        W 6943  10.725  17.614  12.425
34651W        W 6944  14.146  26.457  11.880
34652W        W 6945  15.805  20.076  11.583
34653W        W 6946  14.704  16.774   0.364
34654W        W 6947  34.548  27.678   3.840
34655W        W 6948  14.710  28.521  11.483
34656W        W 6949  34.050  29.921  11.607
34657W        W 6950   9.384  28.123   4.650
34658W        W 6951  14.250  21.090  11.074
34659W        W 6952  22.057  21.738  13.355
34660W        W 6953  28.097   1.900  11.036
34661W        W 6954  12.327  44.904   1.218
34662W        W 6955  27.545   4.291  10.934
34663W        W 6956  34.596  11.686   2.723
34664W        W 6957   3.443  19.552  13.817
34665W        W 6958  22.616  40.426   2.860
34666W        W 6959  31.060   6.871   2.686
34667W        W 6960  30.936  18.629   1.277
34668W        W 6961  24.595  34.901   2.199
34669W        W 6962  35.488   9.161  12.372
34670W        W 6963  23.605  28.639   2.807
34671W        W 6964  42.873  11.214  12.004
34672W        W 6965   9.332   4.820  13.446
34673W        W 6966  19.662  17.284   0.457
34674W        W 6967  34.582  32.082   3.353
34675W        W 6968   5.824  21.634  13.802
34676W        W 6969  31.430  11.809  10.583
34677W        W 6970   7.179  16.766  12.426
34678W        W 6971  16.796  29.101   1.719
34679W        W 6972   5.871  27.127   0.944
34680W        W 6973  27.083  39.009   4.803
34681W        W 6974  28.628  29.657   0.435
34682W        W 6975  42.871   0.360   4.328
34683W        W 6976  15.173  42.001  11.018
34684W        W 6977  11.762  21.155  10.114
34685W        W 6978  12.358  16.091   3.179
34686W        W 6979  41.472  28.965   2.806
34687W        W 6980  39.416  11.192   1.851
34688W        W 6981  38.393  14.154  13.414
34689W        W 6982  32.585  36.551   1.340
34690W        W 6983  33.578   7.730  12.530
34691W        W 6984  37.539   0.485   3.160
34692W        W 6985  14.714   3.249   3.368
34693W        W 6986  18.615  33.121   2.859
34694W        W 6987  38.896  39.448  11.372
34695W        W 6988  22.057  19.551  11.093
34696W        W 6989  39.399  23.548   0.437
34697W        W 6990  27.508   2.821   1.750
34698W        W 6991   3.280  16.230   3.742
34699W        W 6992  18.266  42.021  13.818
34700W        W 6993  22.233  27.692   1.897
34701W        W 6994  10.169  42.867  10.583
34702W        W 6995  39.498   7.297   4.741
34703W        W 6996  41.789  20.640  11.901
34704W        W 6997  31.502  15.597  14.339
34705W        W 6998  39.864  26.476   4.626
34706W        W 6999  34.466  40.905  14.986
34707W        W 7000  10.181  42.364  14.366
34708W        W 7001  43.298  13.234   4.678
34709W        W 7002  26.640  17.562   1.924
34710W        W 7003  30.633  41.379  13.903
34711W        W 7004  25.547  10.192   0.281
34712W        W 7005  30.610   9.838   4.796
34713W        W 7006   3.876  11.349   4.803
34714W        W 7007  21.600  44.407   4.129
34715W        W 7008  29.635  28.103   4.658
34716W        W 7009  40.451  20.679  13.815
34717W        W 7010  15.184  14.731   2.243
34718W        W 7011  13.160   2.362   0.401
34719W        W 7012  27.582  13.115   2.343
34720W        W 7013  39.487  34.405   0.362
34721W        W 7014  18.293  23.575   5.085
34722W        W 7015  11.216  26.114   4.211
34723W        W 7016  27.079   3.748   2.323
34724W        W 7017   8.675  32.045  10.106
34725W        W 7018  31.495  33.964  10.936
34726W        W 7019  23.618  32.403   0.312
34727W        W 7020  30.629  24.202   1.308
34728W        W 7021   9.738   9.886   4.757
34729W        W 7022  42.959  11.832  10.450
34730W        W 7023  12.630  10.333   2.790
34731W        W 7024   5.312   8.847  11.587
34732W        W 7025  12.729  29.162  13.861
34733W        W 7026   2.252  18.724   3.365
34734W        W 7027  36.900  24.500  11.980
34735W        W 7028  38.344  44.347  11.023
34736W        W 7029  10.277  26.471   5.102
34737W        W 7030  14.259  42.328  12.446
34738W        W 7031   2.231  19.064   2.734
34739W        W 7032  32.400  19.712  14.844
34740W        W 7033  15.167  26.981  10.443
34741W        W 7034  20.033  34.518  11.561
34742W        W 7035  26.470  40.926  11.907
34743W        W 7036  35.069  12.787  13.802
34744W        W 7037  38.063  41.026  13.880
34745W        W 7038  17.773  30.638   2.234
34746W        W 7039  23.015  36.384   1.740
34747W        W 7040  17.131  38.407   4.176
34748W        W 7041   9.247  13.153   1.228
34749W        W 7042  40.541  29.472  11.891
34750W        W 7043  41.429  31.085  14.428
34751W        W 7044  12.674  27.623  11.589
34752W        W 7045  43.823   3.321   3.754
34753W        W 7046  35.570  39.440  14.438
34754W        W 7047  15.313   0.750   3.363
34755W        W 7048   9.351  29.043  14.876
34756W        W 7049  44.883  24.058  10.941
34757W        W 7050  28.056   7.347  13.455
34758W        W 7051  42.954  15.612   2.756
34759W        W 7052  26.679  26.468   0.360
34760W        W 7053   7.208  23.140   2.852
34761W        W 7054  28.613   5.914  10.600
34762W        W 7055  41.984   9.224   1.300
34763W        W 7056  18.606  37.357   3.263
34764W        W 7057  41.482  24.628   2.181
34765W        W 7058  37.564   7.275  10.128
34766W        W 7059  18.270   0.304  12.490
34767W        W 7060   2.393  18.268   2.187
34768W        W 7061   3.269   1.913  11.408
34769W        W 7062   9.278  25.682  13.793
34770W        W 7063  35.459   0.460   3.635
34771W        W 7064  15.311  33.487   4.310
34772W        W 7065  13.332  34.937   3.761
34773W        W 7066   5.874   7.672  10.929
34774W        W 7067   2.430  35.380  14.296
34775W        W 7068  11.204  41.957  12.936
34776W        W 7069  12.845   6.299  12.992
34777W        W 7070  38.883  20.265  14.973
34778W        W 7071   6.361  32.535  13.548
34779W        W 7072  26.118  35.994   4.776
34780W        W 7073  32.098  39.029  12.571
34781W        W 7074   6.306  14.232  12.539
34782W        W 7075   2.945   5.219   0.358
34783W        W 7076  25.108  19.752   4.754
34784W        W 7077  17.775  11.297   3.700
34785W        W 7078  11.146  24.672   0.909
34786W        W 7079   4.211   8.785   3.856
34787W        W 7080   8.292   7.671   4.758
34788W        W 7081  14.735  42.830  13.333
34789W        W 7082  21.174  24.229   1.776
34790W        W 7083   4.838  15.824   0.921
34791W        W 7084  38.932   2.768   1.305
34792W        W 7085   2.350  22.672   5.281
34793W        W 7086  42.900  14.611  13.482
34794W        W 7087  36.021  15.629  14.030
34795W        W 7088   7.371  10.250   3.171
34796W        W 7089  31.628   8.197  14.810
34797W        W 7090   9.374  34.101  11.877
34798W        W 7091  28.113   5.394  13.330
34799W        W 7092  12.638  40.491  12.922
34800W        W 7093  42.957  41.523  10.591
34801W        W 7094  36.364  13.318   2.860
34802W        W 7095  20.672   8.769  14.968
34803W        W 7096  37.527  30.598  13.998
34804W        W 7097  19.176  21.055   4.188
34805W        W 7098  24.084  43.789  13.326
34806W        W 7099  28.002  38.920   1.903
34807W        W 7100  19.283  26.172   2.383
34808W        W 7101  15.815  36.475  13.907
34809W        W 7102  18.582  40.805   2.785
34810W        W 7103   1.436  16.200   2.841
34811W        W 7104  14.721   9.378   4.615
34812W        W 7105  44.773   2.887  14.826
34813W        W 7106   9.813  32.923  13.908
34814W        W 7107   1.739  41.469  13.525
34815W        W 7108  33.059  42.493   3.654
34816W        W 7109  44.278  34.893   3.211
34817W        W 7110  36.514  10.696  12.085
34818W        W 7111  31.096  26.679  14.321
34819W        W 7112   5.360  26.093  12.524
34820W        W 7113  12.253  18.789   2.872
34821W        W 7114   9.656  18.585   3.782
34822W        W 7115  16.771  36.890   1.446
34823W        W 7116   6.775  32.036   2.354
34824W        W 7117  42.373   7.875  10.917
34825W        W 7118  29.646   6.193   0.819
34826W        W 7119  42.949   1.893   3.783
34827W        W 7120  16.707  16.101   1.447
34828W        W 7121  18.095  11.840   4.644
34829W        W 7122  44.879  25.627   2.899
34830W        W 7123  17.704  12.333   1.840
34831W        W 7124  25.119  27.132  14.466
34832W        W 7125   4.269  18.554   2.390
34833W        W 7126   1.415  28.639   3.747
34834W        W 7127  27.965  15.794  13.335
34835W        W 7128  23.153  20.672  10.504
34836W        W 7129  21.217  38.901   2.375
34837W        W 7130  13.262  28.018  12.360
34838W        W 7131   6.730  36.412   4.151
34839W        W 7132  12.779  37.479   1.332
34840W        W 7133  43.979  40.033   3.647
34841W        W 7134   2.756  34.613  11.407
34842W        W 7135  15.777  29.635  13.832
34843W        W 7136  17.655  13.793  12.512
34844W        W 7137  37.919  33.028   3.224
34845W        W 7138  14.123  13.668  13.508
34846W        W 7139  23.068  32.130  12.843
34847W        W 7140   8.875  28.670  14.982
34848W        W 7141   5.300  33.415  14.966
34849W        W 7142   2.421  41.511  10.443
34850W        W 7143  29.516  27.154  12.920
34851W        W 7144  39.318  43.438  14.022
34852W        W 7145  40.935  39.546   4.619
34853W        W 7146  28.475  38.843  11.409
34854W        W 7147  32.522  44.854  14.947
34855W        W 7148   7.878  32.052   1.318
34856W        W 7149  30.936  12.731   3.344
34857W        W 7150   9.781  15.767   0.444
34858W        W 7151  26.091  30.012  14.774
34859W        W 7152  25.202  20.535   3.296
34860W        W 7153  30.098  36.902  12.506
34861W        W 7154  40.470  16.099   3.864
34862W        W 7155   5.272  24.176   1.248
34863W        W 7156  11.229  16.212   2.755
34864W        W 7157  25.012   3.763   3.728
34865W        W 7158  12.222  26.144  13.018
34866W        W 7159  36.036   7.701   2.728
34867W        W 7160  31.006  22.181  10.954
34868W        W 7161   7.910  35.986   3.329
34869W        W 7162   6.299  12.168  12.428
34870W        W 7163   3.409  30.032  13.456
34871W        W 7164  19.762  21.185  10.600
34872W        W 7165  13.319  16.110  11.387
34873W        W 7166  30.006   2.942   1.348
34874W        W 7167  38.352  30.582  14.287
34875W        W 7168  35.018  13.604   0.826
34876W        W 7169  42.872  34.510   2.869
34877W        W 7170  11.351   6.253  12.912
34878W        W 7171  30.460  36.952   4.136
34879W        W 7172  42.323  39.377   0.731
34880W        W 7173  25.130  13.147  12.522
34881W        W 7174   4.237  32.081  13.829
34882W        W 7175  15.599  15.795   5.161
34883W        W 7176  12.800  30.934  13.021
34884W        W 7177  32.399  25.977   1.825
34885W        W 7178   4.368  26.595  13.440
34886W        W 7179  37.342   7.415   0.910
34887W        W 7180  44.772   6.801   0.395
34888W        W 7181  24.693  37.374   2.298
34889W        W 7182   3.228  34.096  10.407
34890W        W 7183  29.974  16.161   1.798
34891W        W 7184   0.899  38.490  12.364
34892W        W 7185  11.810  42.352  14.029
34893W        W 7186  18.762  13.130   3.268
34894W        W 7187  10.828  30.537   3.763
34895W        W 7188   4.421  31.090  14.982
34896W        W 7189  29.033   1.844   3.186
34897W        W 7190  28.964  24.198   0.883
34898W        W 7191  10.306  40.001   5.201
34899W        W 7192  15.779   3.317  12.992
34900W        W 7193  32.570   0.352   1.921
34901W        W 7194  21.226  11.247  12.433
34902W        W 7195  41.942   6.300  10.626
34903W        W 7196  42.385  35.592  14.303
34904W        W 7197   4.936  34.465   2.706
34905W        W 7198   8.353  28.977   2.892
34906W        W 7199   7.773  26.646  12.342
34907W        W 7200  36.373  41.887   2.884
34908W        W 7201  15.724   6.296   4.799
34909W        W 7202   7.197   3.331  12.882
34910W        W 7203  39.437  30.981  14.460
34911W        W 7204  38.863  30.051   2.701
34912W        W 7205  13.709  19.674   4.706
34913W        W 7206  35.495   3.329   2.822
34914W        W 7207   7.226  12.123   4.210
34915W        W 7208  29.503   5.259  11.556
34916W        W 7209  18.103  43.018   0.868
34917W        W 7210  28.496  33.614   2.239
34918W        W 7211  27.583  40.539  11.597
34919W        W 7212  32.604  12.125  13.310
34920W        W 7213  37.567  43.798  12.453
34921W        W 7214   2.810  43.410  10.499
34922W        W 7215  23.526   8.207  14.980
34923W        W 7216  15.290   3.744   5.688
34924W        W 7217   9.727  25.121  11.520
34925W        W 7218  35.566  32.909   1.417
34926W        W 7219  33.939   2.356  13.391
34927W        W 7220  16.685  13.673   2.772
34928W        W 7221   6.365   4.287   3.273
34929W        W 7222  22.202  38.862   1.348
34930W        W 7223   4.736  36.467   4.140
34931W        W 7224  12.344  36.548   0.820
34932W        W 7225   5.824  19.623  13.970
34933W        W 7226  39.950  31.991   1.935
34934W        W 7227  41.855  39.996   3.149
34935W        W 7228  11.365  13.737   2.806
34936W        W 7229  43.841  34.533  14.970
34937W        W 7230  19.577   9.693   4.203
34938W        W 7231  24.523  23.690   4.715
34939W        W 7232  14.207  32.540   2.869
34940W        W 7233   9.769  43.325   2.794
34941W        W 7234  37.988  34.541   4.315
34942W        W 7235  15.766  34.080  11.541
34943W        W 7236  36.426  27.589   3.802
34944W        W 7237   9.656  31.470   2.209
34945W        W 7238  26.049  22.148   0.340
34946W        W 7239  38.874  41.807  12.038
34947W        W 7240  22.013  13.787  10.980
34948W        W 7241  13.710  21.168   0.901
34949W        W 7242  29.583  41.827   4.309
34950W        W 7243  38.021  29.526  11.387
34951W        W 7244  20.057  37.558   1.279
34952W        W 7245  43.330  10.190  12.839
34953W        W 7246   0.830  15.713   1.925
34954W        W 7247  19.776  21.576   2.807
34955W        W 7248  39.423  36.941  10.420
34956W        W 7249  42.981  31.089  13.845
34957W        W 7250  26.678  23.679   5.297
34958W        W 7251  21.139  44.359  12.864
34959W        W 7252   3.260  28.030  11.920
34960W        W 7253  14.146   7.749   1.438
34961W        W 7254  22.248   8.803   0.421
34962W        W 7255   3.248  30.480  14.381
34963W        W 7256   0.460  22.588   1.829
34964W        W 7257  13.657  28.438  11.906
34965W        W 7258  36.569   1.333  12.558
34966W        W 7259  27.163  32.980  13.826
34967W        W 7260  34.914   0.981   0.854
34968W        W 7261   1.301  30.965  12.530
34969W        W 7262   4.353   1.330   2.874
34970W        W 7263  28.523  13.325  11.023
34971W        W 7264   5.844   3.781  10.585
34972W        W 7265  17.611   0.475  11.573
34973W        W 7266  31.062  13.666   3.839
34974W        W 7267  26.683  25.499   0.289
34975W        W 7268  27.995  29.923  14.393
34976W        W 7269  18.099  31.491   3.724
34977W        W 7270  40.029   3.404  10.452
34978W        W 7271  44.449   4.409   2.187
34979W        W 7272  25.040  44.384   4.745
34980W        W 7273  40.857  24.183   1.301
34981W        W 7274  24.566  42.513   2.410
34982W        W 7275   8.733  13.228  13.975
34983W        W 7276  41.332   8.783   3.295
34984W        W 7277   1.907  32.928   2.225
34985W        W 7278  31.475   0.492   4.643
34986W        W 7279  19.686  32.980  10.583
34987W        W 7280  28.532  42.345   2.276
34988W        W 7281  12.315  13.793   4.649
34989W        W 7282   3.304  33.550  11.457
34990W        W 7283  12.267   0.824   4.232
34991W        W 7284  20.076  21.235  10.954
34992W        W 7285  11.657  32.096   4.345
34993W        W 7286  41.417   0.317   4.177
34994W        W 7287  17.267  42.934  11.113
34995W        W 7288  13.183  43.799  11.608
34996W        W 7289  44.418  29.079  14.013
34997W        W 7290  11.683  19.153  14.370
34998W        W 7291   6.907  41.937   2.688
34999W        W 7292  17.254   3.762   2.327
35000W        W 7293  25.668  30.943  11.049
35001W        W 7294  16.237  18.231   4.250
35002W        W 7295  31.539   6.795  10.421
35003W        W 7296  35.561  11.638   0.859
35004W        W 7297  21.554  40.325  12.567
35005W        W 7298  27.689  41.411   0.292
35006W        W 7299  20.144  20.615  11.030
35007W        W 7300  33.390  17.306  12.502
35008W        W 7301   7.278  32.971  10.567
35009W        W 7302   2.800  38.819  12.550
35010W        W 7303  32.069   3.868   1.424
35011W        W 7304  12.682   8.782   4.731
35012W        W 7305  33.556   6.233   3.249
35013W        W 7306  21.070  10.149  12.885
35014W        W 7307   0.407   5.857  14.478
35015W        W 7308  12.685  22.060   3.860
35016W        W 7309  16.142  33.594  13.901
35017W        W 7310  29.661   5.276   1.289
35018W        W 7311  35.030  31.942  13.362
35019W        W 7312  36.368   3.843   3.316
35020W        W 7313  20.114  43.005  10.557
35021W        W 7314  40.995   6.314  14.454
35022W        W 7315   1.962  30.428  11.505
35023W        W 7316  36.868  27.985   3.291
35024W        W 7317  42.385  26.599  11.485
35025W        W 7318  16.642  30.969   4.115
35026W        W 7319   6.402  39.892  10.431
35027W        W 7320  22.216  18.080   4.184
35028W        W 7321   8.769  15.095   3.150
35029W        W 7322   6.869   3.390   3.777
35030W        W 7323  12.232  31.469   3.652
35031W        W 7324  14.671  29.588  11.056
35032W        W 7325  25.577   8.834  14.316
35033W        W 7326  40.346  19.630  12.994
35034W        W 7327  33.021   4.878  13.832
35035W        W 7328   9.838  11.300  14.815
35036W        W 7329  39.995  19.224   3.162
35037W        W 7330  32.950  14.321  11.432
35038W        W 7331   1.830  44.286  11.105
35039W        W 7332  11.708  24.504   3.259
35040W        W 7333  31.600  41.899  12.079
35041W        W 7334  14.156   5.837   0.763
35042W        W 7335  26.457  19.569  12.873
35043W        W 7336  24.149  23.235  11.881
35044W        W 7337   1.762  44.431  12.561
35045W        W 7338  19.589  29.084   1.801
35046W        W 7339  21.034   6.349  12.406
35047W        W 7340  36.981  25.620   1.761
35048W        W 7341  44.936  25.613   1.296
35049W        W 7342   4.317  20.662  14.393
35050W        W 7343   6.425  15.792  10.090
35051W        W 7344  20.767  36.427   1.354
35052W        W 7345  28.483  17.742  14.977
35053W        W 7346  33.504  36.573  14.419
35054W        W 7347   3.402  15.615  14.507
35055W        W 7348  25.633  21.036  12.431
35056W        W 7349  10.209   4.749   4.275
35057W        W 7350  42.964  17.285   4.207
35058W        W 7351  28.542  18.719   1.820
35059W        W 7352  27.186   0.306   4.163
35060W        W 7353  21.749  32.945   9.459
35061W        W 7354  28.028  10.224   3.761
35062W        W 7355  35.072  38.532  14.287
35063W        W 7356  14.246  42.458   3.164
35064W        W 7357  34.090  23.521  10.571
35065W        W 7358  21.041  26.524  13.425
35066W        W 7359   9.739  27.581   4.308
35067W        W 7360  39.483   2.247   4.685
35068W        W 7361  12.842  17.276  11.522
35069W        W 7362  12.202  34.526   1.296
35070W        W 7363  24.090  31.963  13.800
35071W        W 7364  19.235   9.851  13.804
35072W        W 7365  23.207  33.567  10.058
35073W        W 7366   4.233  22.089  12.920
35074W        W 7367  44.466   0.441  11.875
35075W        W 7368   8.191  29.002   4.269
35076W        W 7369  20.661  29.002  11.482
35077W        W 7370  29.119   5.261  12.972
35078W        W 7371  42.802  36.544   4.254
35079W        W 7372  30.089  35.365  11.529
35080W        W 7373  39.954  37.050  10.468
35081W        W 7374  31.931  25.579   1.818
35082W        W 7375   6.260   0.259   1.280
35083W        W 7376  40.857  28.450  14.299
35084W        W 7377  30.072  30.943  10.944
35085W        W 7378  12.790  42.352   4.249
35086W        W 7379  22.666  39.038  10.546
35087W        W 7380  21.674  11.753  13.007
35088W        W 7381  18.582  31.435  12.981
35089W        W 7382   8.287  41.469   4.620
35090W        W 7383  32.136   2.848   2.885
35091W        W 7384  16.314  14.203   4.350
35092W        W 7385  34.922  26.175   3.262
35093W        W 7386  23.634  18.281   1.435
35094W        W 7387  16.272  25.679  14.492
35095W        W 7388   3.902  10.813  12.919
35096W        W 7389  42.986  30.443   4.232
35097W        W 7390  14.160   3.295  10.483
35098W        W 7391  27.172   5.739  13.475
35099W        W 7392  31.444   8.656  11.904
35100W        W 7393   7.305  30.100  10.510
35101W        W 7394  14.145  41.871   1.303
35102W        W 7395   9.256  17.203  12.437
35103W        W 7396  12.158  35.909  14.493
35104W        W 7397  44.856  28.158  11.443
35105W        W 7398  10.319  43.912  12.072
35106W        W 7399   5.373  27.127   4.769
35107W        W 7400  30.037   6.373   3.151
35108W        W 7401  37.874  10.874  11.388
35109W        W 7402  16.754  22.122  13.007
35110W        W 7403  19.170  17.279   3.173
35111W        W 7404   1.811   2.404  11.012
35112W        W 7405  15.269  34.112   1.448
35113W        W 7406   0.843  29.108  14.981
35114W        W 7407  34.377  12.136   4.783
35115W        W 7408  28.576  33.459  13.960
35116W        W 7409  19.134  34.551   3.852
35117W        W 7410  38.981  36.096   0.403
35118W        W 7411  12.700   1.379   0.358
35119W        W 7412  26.040  11.320  12.524
35120W        W 7413   7.877  25.537   3.646
35121W        W 7414  33.616  40.460   3.793
35122W        W 7415   6.702  25.601  12.911
35123W        W 7416  23.728   8.711   4.776
35124W        W 7417  11.191   5.332   2.296
35125W        W 7418  36.906  26.959  14.925
35126W        W 7419   3.278   8.262  13.846
35127W        W 7420   3.391  15.628   4.658
35128W        W 7421  16.242  35.937   3.644
35129W        W 7422  12.797  41.920   0.771
35130W        W 7423  11.761   9.753  10.556
35131W        W 7424  25.483  41.521  13.803
35132W        W 7425  14.236  31.978  11.063
35133W        W 7426  13.229  13.812   0.812
35134W        W 7427  44.388   8.827   2.315
35135W        W 7428  28.942  33.905  14.478
35136W        W 7429   4.902  25.056  12.530
35137W        W 7430  21.199   3.402  10.034
35138W        W 7431  10.651   3.250   1.856
35139W        W 7432   4.440   4.364  13.332
35140W        W 7433   3.252  43.303   1.413
35141W        W 7434  15.796  15.324  12.557
35142W        W 7435  35.482   1.886   0.424
35143W        W 7436   6.891  26.963   0.470
35144W        W 7437  30.109   7.346  11.944
35145W        W 7438   0.393  25.982   4.304
35146W        W 7439   5.748  23.118  13.841
35147W        W 7440   5.397  31.534   2.673
35148W        W 7441  36.848   9.723   1.698
35149W        W 7442  18.231  33.057   9.667
35150W        W 7443  31.642  41.298  10.963
35151W        W 7444  15.266   1.344   2.196
35152W        W 7445   6.740   8.388  10.892
35153W        W 7446  14.802   4.351  12.030
35154W        W 7447  11.326   3.846  11.389
35155W        W 7448  13.282  29.630  12.016
35156W        W 7449  30.164  30.494   4.203
35157W        W 7450  17.248  10.333  14.416
35158W        W 7451  41.823   3.748   1.412
35159W        W 7452   0.475  15.299   1.714
35160W        W 7453  33.561  38.064  11.593
35161W        W 7454  32.452  21.700   4.612
35162W        W 7455  41.456  19.056  12.945
35163W        W 7456  38.446  32.892  12.547
35164W        W 7457   7.842   8.712   2.341
35165W        W 7458  17.764  34.529  13.850
35166W        W 7459  12.285   2.245  14.805
35167W        W 7460  10.249  21.218   1.358
35168W        W 7461  40.010   9.232  12.418
35169W        W 7462  24.214   0.867  14.912
35170W        W 7463  39.400  16.795   1.931
35171W        W 7464  37.989  28.647  14.815
35172W        W 7465  36.572  27.449  13.382
35173W        W 7466  38.833  35.474  10.953
35174W        W 7467  10.775  19.183   3.374
35175W        W 7468  39.958  42.517   3.309
35176W        W 7469  41.890  40.423   4.118
35177W        W 7470  21.745  39.005   1.250
35178W        W 7471   7.354   5.221  11.425
35179W        W 7472  22.052  29.066   1.424
35180W        W 7473  20.072  10.755   2.234
35181W        W 7474  35.470  32.559  10.462
35182W        W 7475  11.169  38.055  12.540
35183W        W 7476  27.524  42.414   3.804
35184W        W 7477  28.073  38.972   5.084
35185W        W 7478  18.223  27.456  14.989
35186W        W 7479  12.775   8.721   3.152
35187W        W 7480  23.110  38.365   1.698
35188W        W 7481  10.721   5.882   0.844
35189W        W 7482  25.549  32.391  13.914
35190W        W 7483   0.331  28.010   4.761
35191W        W 7484  19.101  22.058  12.011
35192W        W 7485  27.180  39.061   4.325
35193W        W 7486  43.405   6.817  12.068
35194W        W 7487  33.622  33.515   2.775
35195W        W 7488  39.873   0.414  14.504
35196W        W 7489  15.170  30.987   3.834
35197W        W 7490  23.018  43.967  13.326
35198W        W 7491  24.050  21.089   0.846
35199W        W 7492  28.557  13.781   1.834
35200W        W 7493   8.806  15.090  13.439
35201W        W 7494  16.611  39.549  14.020
35202W        W 7495  33.449  13.630  10.977
35203W        W 7496  14.811  22.534   0.861
35204W        W 7497  33.540  40.955  13.028
35205W        W 7498  35.429  15.587   0.873
35206W        W 7499  42.971  41.490  12.555
35207W        W 7500  26.187  40.475   1.760
35208W        W 7501  33.077  35.414   3.361
35209W        W 7502   0.764  34.591  11.532
35210W        W 7503   5.400  41.425  13.860
35211W        W 7504  27.493   7.750  13.019
35212W        W 7505  36.379  19.697  10.002
35213W        W 7506  24.195  13.817   4.821
35214W        W 7507  10.819   8.780   1.806
35215W        W 7508   4.249  22.060   2.746
35216W        W 7509   1.743  30.952  10.948
35217W        W 7510  38.017   4.793   4.698
35218W        W 7511  33.895   5.766  11.568
35219W        W 7512  10.351  41.791   3.225
35220W        W 7513  19.206  19.734   3.325
35221W        W 7514  36.556  18.159  14.830
35222W        W 7515  28.122   5.439  12.882
35223W        W 7516  24.621   4.212  12.941
35224W        W 7517  39.509   5.329  13.932
35225W        W 7518  44.353  43.298  13.451
35226W        W 7519  32.140  15.116   9.933
35227W        W 7520   4.731  28.117  11.942
35228W        W 7521  39.022   8.348  10.009
35229W        W 7522  14.296  14.224   1.225
35230W        W 7523  21.575  23.727   0.800
35231W        W 7524  12.740  19.572   3.373
35232W        W 7525  32.944   8.211  10.456
35233W        W 7526   3.825   8.360   2.221
35234W        W 7527  30.421  19.754  10.097
35235W        W 7528  41.303  30.031  12.348
35236W        W 7529  13.310  30.046   4.702
35237W        W 7530   4.782  18.626   4.766
35238W        W 7531  44.800  44.435  14.776
35239W        W 7532  41.430  19.215  11.069
35240W        W 7533  44.887  18.209   4.285
35241W        W 7534  36.077  22.730  11.477
35242W        W 7535  13.817   4.423   3.730
35243W        W 7536  43.320  12.344   2.896
35244W        W 7537  13.781  14.114   2.886
35245W        W 7538   9.231  11.209  12.347
35246W        W 7539  28.052  29.540  10.580
35247W        W 7540  10.192  27.963  14.353
35248W        W 7541  17.571  24.086  12.451
35249W        W 7542  17.781  14.212  10.925
35250W        W 7543  20.659  30.626  10.069
35251W        W 7544  10.795  15.211   1.808
35252W        W 7545  41.884   2.818  10.566
35253W        W 7546  11.754  30.454   4.672
35254W        W 7547  15.623  23.535  13.465
35255W        W 7548   9.371  36.382   0.293
35256W        W 7549  41.905  22.620  14.782
35257W        W 7550  15.150  15.792  14.013
35258W        W 7551  40.920  19.659   3.154
35259W        W 7552   9.247  19.767  14.415
35260W        W 7553   6.338  25.204  10.122
35261W        W 7554  34.971   9.168   3.715
35262W        W 7555  19.716   9.817   3.798
35263W        W 7556  31.087  34.059  12.554
35264W        W 7557  15.582  28.170  11.961
35265W        W 7558  28.051  35.412   1.324
35266W        W 7559  11.725   7.667   3.183
35267W        W 7560  34.003  34.558   0.875
35268W        W 7561  28.954  42.866  12.851
35269W        W 7562  21.714   4.403   1.873
35270W        W 7563  15.149  39.362   3.333
35271W        W 7564  12.753   1.946  11.888
35272W        W 7565  18.770  38.400  14.811
35273W        W 7566   2.437  40.305   4.809
35274W        W 7567   3.409  26.194   2.848
35275W        W 7568  32.545  22.092   0.339
35276W        W 7569  36.930   1.428  11.445
35277W        W 7570  35.984   8.216   0.330
35278W        W 7571  29.076  23.227   2.810
35279W        W 7572  28.114   5.813   4.816
35280W        W 7573  37.977   8.252  11.550
35281W        W 7574  10.202  43.975   3.667
35282W        W 7575  44.951  18.606   9.949
35283W        W 7576  27.172  30.936   4.744
35284W        W 7577   4.402  32.411   1.274
35285W        W 7578  35.109  28.954   1.323
35286W        W 7579   1.955  14.643  12.448
35287W        W 7580  35.014  11.200  10.512
35288W        W 7581  23.686   7.797   3.641
35289W        W 7582  21.583  16.758  11.611
35290W        W 7583  13.176   6.779   1.843
35291W        W 7584  10.757  33.072   3.720
35292W        W 7585  10.852  34.476  11.985
35293W        W 7586  39.059  28.553  13.521
35294W        W 7587   1.255  11.678   1.316
35295W        W 7588  11.723  13.693  11.519
35296W        W 7589   3.311  32.611  13.401
35297W        W 7590  41.789   0.407   2.705
35298W        W 7591   7.859  14.611   0.743
35299W        W 7592  24.650  36.887   0.778
35300W        W 7593  38.353  38.327   0.426
35301W        W 7594   8.718  35.369   3.236
35302W        W 7595  10.817   8.334   4.812
35303W        W 7596  37.497  41.884  10.574
35304W        W 7597  23.500  12.806  11.498
35305W        W 7598  42.512  42.863   9.454
35306W        W 7599  29.602   6.189  10.608
35307W        W 7600  30.942   6.853  10.602
35308W        W 7601  11.354   9.823   1.735
35309W        W 7602   6.677  20.118   1.342
35310W        W 7603  31.553   4.918  14.914
35311W        W 7604  24.608  11.259   1.800
35312W        W 7605   6.765  38.969   1.890
35313W        W 7606  10.790  39.966   4.782
35314W        W 7607  15.640  26.201  13.422
35315W        W 7608  32.007  10.820   1.349
35316W        W 7609  41.330   3.440   0.408
35317W        W 7610  15.642   6.230  11.920
35318W        W 7611  14.097  30.956  12.009
35319W        W 7612  42.375   3.455  13.519
35320W        W 7613   7.392  37.520  11.077
35321W        W 7614  40.845  32.993  14.309
35322W        W 7615  42.957  10.177   3.834
35323W        W 7616  41.965  20.257  13.312
35324W        W 7617  19.595  42.369   4.256
35325W        W 7618  12.217   1.390  12.385
35326W        W 7619   4.239  22.048   0.948
35327W        W 7620  32.569  18.108  12.087
35328W        W 7621  38.902  20.707   4.764
35329W        W 7622  39.021  42.446  13.062
35330W        W 7623  19.209  20.523  11.504
35331W        W 7624  12.688  44.944  11.413
35332W        W 7625  10.826  30.452  10.415
35333W        W 7626  36.379  29.513   1.314
35334W        W 7627  30.623  30.475  12.990
35335W        W 7628  11.627  12.793   0.930
35336W        W 7629  40.870   5.720  13.544
35337W        W 7630  32.424  42.998   4.274
35338W        W 7631  23.119  31.016  12.934
35339W        W 7632  23.180  44.392  14.990
35340W        W 7633  35.023  16.089  11.474
35341W        W 7634  19.193  37.538  12.419
35342W        W 7635  21.758   3.404  14.341
35343W        W 7636  10.694  13.260  11.869
35344W        W 7637   3.759   7.191  13.875
35345W        W 7638  18.612  40.458  12.532
35346W        W 7639   4.412  37.343   2.751
35347W        W 7640  43.316  34.103   0.733
35348W        W 7641  34.528  36.922  13.477
35349W        W 7642  16.175   4.735  12.997
35350W        W 7643  38.012  27.531   2.349
35351W        W 7644  24.562  33.552   0.934
35352W        W 7645  39.991  16.694  13.960
35353W        W 7646  13.811  14.233   1.250
35354W        W 7647   8.370  34.459  10.472
35355W        W 7648   7.265  19.159  12.351
35356W        W 7649  18.106  17.674  14.285
35357W        W 7650  20.261  41.027  11.469
35358W        W 7651  40.431  23.052   2.775
35359W        W 7652  16.649  42.522  13.856
35360W        W 7653  28.470   2.965  12.891
35361W        W 7654  17.222   9.821  10.430
35362W        W 7655  34.960  12.850   1.848
35363W        W 7656  40.984  38.481   2.237
35364W        W 7657  34.900  24.596  11.434
35365W        W 7658  19.726   7.762  14.379
35366W        W 7659  11.203   1.445  10.513
35367W        W 7660  33.459  12.735  13.855
35368W        W 7661  20.727  14.136   4.774
35369W        W 7662  13.185  36.509  14.814
35370W        W 7663  28.574   1.399  11.489
35371W        W 7664  41.371   8.723   4.154
35372W        W 7665  17.779  16.621  10.628
35373W        W 7666  18.280   5.349   4.656
35374W        W 7667   7.856  31.037   0.300
35375W        W 7668   2.246  41.827   3.773
35376W        W 7669  41.503  25.494  12.382
35377W        W 7670  41.033   2.227   3.663
35378W        W 7671  39.865  42.451  14.905
35379W        W 7672  31.951  15.664   3.846
35380W        W 7673  18.745  21.628  14.841
35381W        W 7674   9.677  37.013   4.338
35382W        W 7675  36.513  34.938   2.221
35383W        W 7676  36.486  28.615  13.527
35384W        W 7677  38.929  19.652  11.012
35385W        W 7678  32.097  29.521  13.399
35386W        W 7679   6.407  30.656   4.663
35387W        W 7680   1.890  15.820  12.445
35388W        W 7681   6.303  20.045   0.263
35389W        W 7682  18.753  27.974  10.939
35390W        W 7683   1.962  14.685   0.302
35391W        W 7684  35.966  38.371   2.343
35392W        W 7685  23.984  29.425  13.820
35393W        W 7686  43.994  18.107   4.171
35394W        W 7687  25.695  13.279   4.770
35395W        W 7688  26.481  36.091  13.910
35396W        W 7689   4.424  26.159   1.789
35397W        W 7690   5.802  19.221   3.242
35398W        W 7691  16.206  36.990   0.318
35399W        W 7692   9.708  44.272  14.975
35400W        W 7693  34.966  26.163   2.892
35401W        W 7694  41.892  26.646   0.282
35402W        W 7695  35.002  11.312   4.816
35403W        W 7696  30.645   8.824  14.881
35404W        W 7697  26.597  42.990  14.478
35405W        W 7698  36.566  34.897  14.853
35406W        W 7699  22.508  37.355   1.844
35407W        W 7700   3.432  16.731   2.828
35408W        W 7701  41.430  42.412  11.528
35409W        W 7702  29.617  27.162   4.248
35410W        W 7703   8.285  21.619  12.088
35411W        W 7704  35.530  36.396   0.867
35412W        W 7705  26.653  22.679   4.150
35413W        W 7706  35.915  37.496  14.277
35414W        W 7707  29.522  14.185  13.322
35415W        W 7708   5.234  26.580  10.156
35416W        W 7709  40.029  35.480  10.982
35417W        W 7710  28.570   2.721   3.146
35418W        W 7711  38.400  27.984  11.962
35419W        W 7712  30.911  34.609   4.618
35420W        W 7713  43.318  25.658  11.612
35421W        W 7714  42.505  32.992   3.855
35422W        W 7715   1.926  38.987   1.341
35423W        W 7716  28.552  31.984  12.961
35424W        W 7717  11.697  43.324   4.601
35425W        W 7718  15.091  42.805   2.807
35426W        W 7719  35.569  24.155  14.479
35427W        W 7720   2.456  22.218   2.302
35428W        W 7721  43.915  35.037   2.811
35429W        W 7722  15.132  20.609  10.610
35430W        W 7723  14.830  23.143  11.527
35431W        W 7724  28.480  30.444   4.238
35432W        W 7725  40.335   8.867  14.893
35433W        W 7726  41.485  37.434  12.947
35434W        W 7727  28.930  25.679   4.654
35435W        W 7728  43.300   4.418   2.368
35436W        W 7729  27.571  39.433  13.021
35437W        W 7730  39.815  21.535  14.380
35438W        W 7731  23.614   4.326  13.353
35439W        W 7732   2.340  22.042   1.931
35440W        W 7733   7.394  27.987  13.314
35441W        W 7734  10.865  36.520   0.809
35442W        W 7735  33.486  12.628   4.159
35443W        W 7736  22.505  33.904  12.440
35444W        W 7737  38.368   0.265  10.451
35445W        W 7738  14.792  15.208  11.023
35446W        W 7739  44.805  15.149  11.104
35447W        W 7740  19.285  37.924  12.480
35448W        W 7741  16.628  10.271   1.379
35449W        W 7742   0.304   7.395  14.458
35450W        W 7743  31.635  26.200   3.229
35451W        W 7744  24.547  20.605  13.059
35452W        W 7745   0.767  21.255  12.382
35453W        W 7746   7.867  44.505  14.864
35454W        W 7747   7.357  11.665   3.751
35455W        W 7748  25.096  37.847  14.298
35456W        W 7749  32.576   8.252   3.206
35457W        W 7750   0.266  10.808  13.818
35458W        W 7751  12.185  11.176   0.337
35459W        W 7752  35.543  18.787   4.306
35460W        W 7753  26.166  19.180   0.267
35461W        W 7754   4.758  23.495  12.536
35462W        W 7755   5.389  20.252   1.395
35463W        W 7756  34.471   3.820  13.048
35464W        W 7757  18.259  13.176  12.877
35465W        W 7758   0.348  35.917   0.341
35466W        W 7759   9.173  39.845   2.367
35467W        W 7760  24.072  33.095   1.737
35468W        W 7761  37.991  39.887   3.229
35469W        W 7762  10.338  39.315   0.409
35470W        W 7763  40.824  23.059   0.333
35471W        W 7764  43.379  31.580   1.775
35472W        W 7765   8.313  27.630  14.379
35473W        W 7766  30.101  31.046  11.508
35474W        W 7767   9.228  13.729   2.892
35475W        W 7768  28.168  38.056   4.129
35476W        W 7769  33.958  23.214  11.440
35477W        W 7770  34.052  44.337  13.346
35478W        W 7771   7.886   5.239   0.248
35479W        W 7772  10.169   9.730  12.982
35480W        W 7773  11.792  21.119  14.944
35481W        W 7774  42.943  18.755  13.428
35482W        W 7775   7.769   5.757   3.360
35483W        W 7776  40.020  23.014  12.510
35484W        W 7777   8.658  20.696  13.317
35485W        W 7778  20.216  34.939   2.757
35486W        W 7779  11.637  44.276   5.089
35487W        W 7780  34.018  27.189  12.872
35488W        W 7781  39.022  27.966   9.982
35489W        W 7782   4.273  32.118   4.207
35490W        W 7783  21.530  35.588   2.881
35491W        W 7784  22.703  30.601   2.296
35492W        W 7785  33.580   2.864   3.723
35493W        W 7786  21.751  43.923   3.769
35494W        W 7787  32.394  33.024  11.086
35495W        W 7788  36.063   5.293  11.437
35496W        W 7789  44.456  41.835  14.463
35497W        W 7790   0.798   6.702   4.792
35498W        W 7791  20.253   6.394   9.973
35499W        W 7792  17.573  24.556   1.736
35500W        W 7793  21.584  39.996   2.879
35501W        W 7794  24.190  20.562  13.345
35502W        W 7795  34.557  38.528  10.563
35503W        W 7796   6.314  35.413  10.123
35504W        W 7797   6.904  22.144   2.311
35505W        W 7798  27.158   7.374  14.401
35506W        W 7799  34.382  21.053   1.799
35507W        W 7800  13.666  31.603  12.050
35508W        W 7801  15.605  41.347  12.971
35509W        W 7802  41.912  43.459   0.726
35510W        W 7803  31.141  43.944  14.032
35511W        W 7804  38.425  13.834   0.949
35512W        W 7805   4.369  12.622   0.251
35513W        W 7806  19.124  11.136  10.497
35514W        W 7807  14.637  44.313   2.776
35515W        W 7808  24.520  41.316  13.322
35516W        W 7809  17.147  30.020   2.890
35517W        W 7810  34.417  37.559   0.414
35518W        W 7811  30.920   1.964  12.440
35519W        W 7812  35.552   2.953   4.147
35520W        W 7813   2.388  37.431  11.016
35521W        W 7814  42.351   5.423  10.594
35522W        W 7815   8.783  23.135  10.974
35523W        W 7816   4.308  43.284  14.393
35524W        W 7817   0.295  32.574   0.374
35525W        W 7818  42.472  21.217  12.041
35526W        W 7819  10.771   9.852   4.660
35527W        W 7820  41.439  34.066   1.816
35528W        W 7821  27.999   8.205   9.996
35529W        W 7822  27.536  40.401  14.891
35530W        W 7823  27.942  38.957  10.914
35531W        W 7824  33.402   3.868  14.790
35532W        W 7825  15.328  12.243   3.343
35533W        W 7826  20.038  22.154  14.506
35534W        W 7827  13.111  21.514  11.023
35535W        W 7828  40.035  14.655  14.476
35536W        W 7829  14.139  37.487   0.924
35537W        W 7830  17.183  23.188   1.886
35538W        W 7831  35.457  20.664  14.916
35539W        W 7832  43.351  18.053  13.366
35540W        W 7833  29.979   3.253  11.080
35541W        W 7834  25.996  43.912   0.467
35542W        W 7835  21.557  42.438  10.935
35543W        W 7836  11.642  44.886   4.168
35544W        W 7837   8.806  37.993  12.892
35545W        W 7838  21.612  13.797   4.829
35546W        W 7839  23.984  31.068  14.488
35547W        W 7840  28.611  12.281   4.823
35548W        W 7841  43.018  21.126   4.235
35549W        W 7842   1.446   7.787  14.485
35550W        W 7843  14.754   5.334  10.415
35551W        W 7844  41.436  17.713   4.270
35552W        W 7845  36.971  27.591   2.694
35553W        W 7846  14.661  33.118  13.030
35554W        W 7847   3.804   4.442   4.194
35555W        W 7848   6.703  12.778   3.182
35556W        W 7849  39.357   8.850  12.847
35557W        W 7850   5.742  39.999  13.841
35558W        W 7851  31.152   1.856  12.030
35559W        W 7852  15.663  18.738  13.877
35560W        W 7853  13.285  24.663  11.377
35561W        W 7854   5.710  41.428   2.854
35562W        W 7855  27.668  36.943   2.788
35563W        W 7856  18.551  30.450   4.118
35564W        W 7857  40.319   7.343   4.791
35565W        W 7858  22.044  16.752   2.765
35566W        W 7859   3.899   4.719  10.889
35567W        W 7860   1.467   1.793   4.832
35568W        W 7861  14.732  43.316  11.401
35569W        W 7862  18.643  33.030   4.246
35570W        W 7863  34.483  43.463   2.757
35571W        W 7864  11.156  19.536   4.144
35572W        W 7865  37.879  29.660   2.873
35573W        W 7866  19.608  24.010   0.479
35574W        W 7867  18.748  12.670  10.102
35575W        W 7868  23.045  23.587   3.244
35576W        W 7869   0.375  13.335   4.716
35577W        W 7870  38.501  16.791  11.067
35578W        W 7871  36.481  30.523   0.933
35579W        W 7872  21.223  13.784   3.349
35580W        W 7873  29.648  11.722  11.977
35581W        W 7874  28.110  29.976  11.931
35582W        W 7875  36.534   7.384   2.362
35583W        W 7876  21.245  19.144  13.859
35584W        W 7877  29.172  30.925   0.463
35585W        W 7878   8.811  44.458   1.874
35586W        W 7879  39.470  34.396  10.426
35587W        W 7880  43.490  33.418   0.787
35588W        W 7881  40.337  35.477   0.468
35589W        W 7882  27.045  32.453   4.330
35590W        W 7883   6.278  28.558   4.311
35591W        W 7884   5.730  31.493  14.025
35592W        W 7885  31.573  39.333   2.723
35593W        W 7886  30.537  29.480   4.250
35594W        W 7887  24.131  30.016   0.386
35595W        W 7888  27.945  22.228  12.476
35596W        W 7889  38.891  26.183   1.867
35597W        W 7890  26.643  11.249   1.357
35598W        W 7891  23.225  32.558  13.483
35599W        W 7892  28.491  43.494   1.327
35600W        W 7893  15.819  28.963   2.197
35601W        W 7894  12.719  28.021   2.221
35602W        W 7895  33.106   5.862   3.639
35603W        W 7896  39.877  44.854   2.689
35604W        W 7897  37.426   4.426  12.350
35605W        W 7898  28.446  26.538   1.794
35606W        W 7899   7.348   9.803   0.474
35607W        W 7900  15.732  11.829   3.808
35608W        W 7901  40.496  27.160   0.360
35609W        W 7902  29.520  25.101  10.444
35610W        W 7903  22.139   1.862  12.918
35611W        W 7904  23.115   3.797   2.238
35612W        W 7905   3.346  23.494  14.768
35613W        W 7906   1.482  10.852  14.917
35614W        W 7907  12.641  40.492   1.217
35615W        W 7908  13.271  12.732   0.302
35616W        W 7909  40.390   9.806  12.964
35617W        W 7910  18.218  12.205   1.868
35618W        W 7911   8.323   7.387   1.352
35619W        W 7912  24.719  24.508   2.267
35620W        W 7913   5.732  22.733  11.409
35621W        W 7914  36.565  27.550  14.832
35622W        W 7915   4.334  39.867  14.339
35623W        W 7916  42.939  12.190   1.745
35624W        W 7917  21.619  32.030   5.103
35625W        W 7918  22.617  31.965  13.344
35626W        W 7919  22.593   8.402  11.418
35627W        W 7920   2.771  19.258   2.352
35628W        W 7921  17.296   6.703   4.210
35629W        W 7922  14.687  19.668   1.316
35630W        W 7923  13.267  36.041  11.562
35631W        W 7924   3.331  37.436  10.937
35632W        W 7925  32.603  13.835   1.916
35633W        W 7926  21.089  36.454   3.780
35634W        W 7927  43.903  27.158   0.825
35635W        W 7928  25.509   7.868  13.490
35636W        W 7929  11.799   4.911  10.406
35637W        W 7930   8.740  38.879   2.179
35638W        W 7931  35.871  19.233   0.898
35639W        W 7932  12.135  22.095   3.753
35640W        W 7933  39.513  28.146  14.013
35641W        W 7934  28.013   5.693   0.405
35642W        W 7935  20.714  11.766  11.444
35643W        W 7936  22.150   5.696   2.377
35644W        W 7937  22.563   9.323   1.815
35645W        W 7938   8.169  42.840   2.396
35646W        W 7939   2.318  17.719  14.394
35647W        W 7940  23.169   1.439   4.820
35648W        W 7941  34.084  27.655   4.163
35649W        W 7942   0.384  39.528  10.630
35650W        W 7943  20.199   1.963   3.660
35651W        W 7944  38.559  21.692   2.757
35652W        W 7945  13.802  14.747   2.888
35653W        W 7946  42.926  20.031   5.311
35654W        W 7947  23.070  34.956  13.035
35655W        W 7948  40.822  22.588  13.428
35656W        W 7949  31.594  40.468   3.841
35657W        W 7950   9.686  30.126  13.495
35658W        W 7951  25.639  13.326   0.292
35659W        W 7952  38.327  36.002   3.631
35660W        W 7953   6.897  25.639  12.096
35661W        W 7954  12.354   0.846  14.854
35662W        W 7955  27.606  29.459  12.497
35663W        W 7956   4.892  28.622  12.415
35664W        W 7957  39.924  16.685  14.923
35665W        W 7958   0.456   3.756  12.011
35666W        W 7959  30.480  27.555   1.931
35667W        W 7960  14.686  30.152  10.942
35668W        W 7961   0.862   6.829  11.500
35669W        W 7962  20.028  26.053   2.349
35670W        W 7963  29.088  41.323  10.636
35671W        W 7964   4.415  18.625   3.328
35672W        W 7965  37.970  37.848   1.336
35673W        W 7966  42.346  43.816   4.132
35674W        W 7967   8.692  40.517   3.760
35675W        W 7968  18.156  18.170  13.378
35676W        W 7969  21.257   0.825  11.122
35677W        W 7970  42.786   3.930  11.114
35678W        W 7971  28.061  31.111  11.456
35679W        W 7972  43.316  41.395  11.508
35680W        W 7973  25.526  25.635   0.474
35681W        W 7974  34.508  15.703  12.917
35682W        W 7975  42.373  20.529  13.371
35683W        W 7976  41.467   3.752  12.441
35684W        W 7977  34.558  38.971   1.346
35685W        W 7978  30.443   8.827   4.252
35686W        W 7979  22.222  27.472   0.854
35687W        W 7980  11.355  29.615   1.451
35688W        W 7981  21.535  10.331  12.020
35689W        W 7982  11.845  14.631  14.504
35690W        W 7983  18.080  30.910  13.451
35691W        W 7984  31.039   0.837  13.848
35692W        W 7985  44.269  23.058  13.818
35693W        W 7986   3.286  14.163   0.411
35694W        W 7987  23.694  11.823  11.895
35695W        W 7988  39.511   9.853   1.302
35696W        W 7989  32.048   3.289   4.742
35697W        W 7990   3.776  23.104  11.999
35698W        W 7991   0.359   5.816  10.570
35699W        W 7992  19.625  16.650   4.805
35700W        W 7993  28.989   2.326   4.234
35701W        W 7994  18.591  21.031   5.297
35702W        W 7995  23.728   4.912  10.019
35703W        W 7996  10.381  44.809  13.309
35704W        W 7997  29.921  31.494   2.846
35705W        W 7998  13.826  44.783  10.588
35706W        W 7999  42.875  24.534   4.341
35707W        W 8000  28.163  37.474   1.819
35708W        W 8001   8.859  33.511  13.335
35709W        W 8002  11.837   0.345  10.422
35710W        W 8003  41.294   0.830   1.825
35711W        W 8004   4.426   9.166  10.628
35712W        W 8005  17.090  20.209  11.089
35713W        W 8006  32.612  37.864  11.475
35714W        W 8007   2.308  28.588  13.936
35715W        W 8008  31.542  42.359   3.687
35716W        W 8009  15.158  38.496   3.854
35717W        W 8010  14.805  44.468   4.651
35718W        W 8011  20.703  24.200  14.275
35719W        W 8012  17.077  21.573  14.894
35720W        W 8013  20.238  17.799  13.053
35721W        W 8014  44.265   0.756   0.412
35722W        W 8015   0.768  32.599   3.196
35723W        W 8016  30.958   5.280   3.322
35724W        W 8017  42.297  24.717   2.234
35725W        W 8018  11.321   8.861  14.431
35726W        W 8019  37.444   6.810   0.363
35727W        W 8020  14.662  26.461  14.767
35728W        W 8021   2.319  13.739  11.898
35729W        W 8022  18.099  42.015   1.328
35730W        W 8023   5.816  25.138  13.508
35731W        W 8024  41.509   6.411   4.326
35732W        W 8025  30.625  31.896  13.437
35733W        W 8026  22.143  11.299   4.137
35734W        W 8027  27.459  27.029   2.398
35735W        W 8028  17.697   4.880   1.738
35736W        W 8029   0.801  14.662   1.285
35737W        W 8030  32.490  34.613  13.366
35738W        W 8031   8.336  30.629  12.352
35739W        W 8032  27.037  13.630   2.868
35740W        W 8033  17.204  18.134  12.917
35741W        W 8034   7.773   4.430   4.253
35742W        W 8035  12.146  35.962   3.162
35743W        W 8036  26.961  25.538  11.505
35744W        W 8037  33.514  24.717   3.244
35745W        W 8038   7.735  37.854   4.697
35746W        W 8039  43.398  37.833  13.437
35747W        W 8040  27.655  40.481  14.333
35748W        W 8041  29.500   7.875  13.402
35749W        W 8042   1.893  44.924  13.525
35750W        W 8043  37.475   5.714  12.890
35751W        W 8044   1.914  19.062  13.353
35752W        W 8045  40.960  23.545  12.960
35753W        W 8046  28.556  32.548   0.459
35754W        W 8047  15.682  15.142  11.064
35755W        W 8048  37.429  42.859   2.699
35756W        W 8049  38.934  19.237  13.485
35757W        W 8050  40.535  18.130  12.359
35758W        W 8051   0.910  42.001  12.014
35759W        W 8052  15.280  10.251   1.212
35760W        W 8053  26.036   5.283   2.360
35761W        W 8054   1.422  35.377   3.166
35762W        W 8055  11.735   2.309  10.616
35763W        W 8056   1.374  31.402   1.752
35764W        W 8057  27.993  10.324   0.400
35765W        W 8058  18.230  44.000  13.849
35766W        W 8059  11.368  42.987   4.316
35767W        W 8060   1.850  40.799  14.358
35768W        W 8061  39.061  42.456   0.942
35769W        W 8062  44.900  38.949  11.412
35770W        W 8063  35.887  41.439  12.057
35771W        W 8064  31.530  31.473   1.428
35772W        W 8065  19.758  33.451  10.141
35773W        W 8066  39.466  32.909  12.458
35774W        W 8067   6.274  21.527  13.791
35775W        W 8068  12.627  38.402  12.976
35776W        W 8069   2.765   2.349   2.191
35777W        W 8070  22.625  14.594   3.827
35778W        W 8071  39.512  29.039   0.342
35779W        W 8072   9.187   9.277   3.253
35780W        W 8073  33.420  16.787  11.544
35781W        W 8074   3.724   1.937  14.511
35782W        W 8075  18.732  10.366   0.427
35783W        W 8076  10.340  39.034  13.321
35784W        W 8077  21.076  32.957  10.467
35785W        W 8078  40.948   5.806  10.638
35786W        W 8079   7.277  23.044   0.335
35787W        W 8080  43.984  14.167   0.784
35788W        W 8081  25.647  17.589  12.919
35789W        W 8082  44.308  14.792   2.357
35790W        W 8083   1.336   5.394   3.779
35791W        W 8084  44.963  38.902  14.884
35792W        W 8085  44.005   8.724   4.609
35793W        W 8086  30.629  15.783  13.323
35794W        W 8087  33.601  32.995   3.818
35795W        W 8088  34.975  26.075  14.931
35796W        W 8089  10.320  27.451  10.952
35797W        W 8090  35.392  31.945   2.843
35798W        W 8091   7.874  26.571   1.803
35799W        W 8092  14.324  32.623  11.511
35800W        W 8093  38.830  34.399   3.246
35801W        W 8094   7.758  29.520   3.162
35802W        W 8095  40.372  44.274  10.071
35803W        W 8096  33.968  17.732   0.744
35804W        W 8097  21.068  44.916   4.788
35805W        W 8098  37.449  32.948   2.228
35806W        W 8099  31.982  10.835  12.877
35807W        W 8100  11.648  40.542  10.483
35808W        W 8101  16.640  25.666  12.092
35809W        W 8102  38.386  16.738   2.803
35810W        W 8103  13.154   4.729   2.788
35811W        W 8104  27.596   2.834  13.474
35812W        W 8105  10.202  29.056   5.250
35813W        W 8106  17.247  17.229  13.379
35814W        W 8107  38.329  26.561   3.322
35815W        W 8108   2.815   4.355   4.142
35816W        W 8109   0.289  12.735   2.386
35817W        W 8110   8.741  41.001  13.371
35818W        W 8111  38.884  37.945   2.843
35819W        W 8112  42.365  42.816  13.958
35820W        W 8113  33.400  33.022  11.051
35821W        W 8114  29.486  27.069  11.995
35822W        W 8115  16.656   2.876  11.056
35823W        W 8116  35.986  17.255   0.431
35824W        W 8117  42.350   8.708  10.498
35825W        W 8118  27.555   7.769   0.729
35826W        W 8119  39.372  30.549   0.337
35827W        W 8120  38.065  20.531   2.781
35828W        W 8121  40.417  17.629  14.979
35829W        W 8122   7.322  44.004   2.354
35830W        W 8123   8.805  34.415  12.439
35831W        W 8124  40.469  37.395   3.203
35832W        W 8125   0.778   4.763   3.647
35833W        W 8126  14.685  35.599  13.037
35834W        W 8127  41.374  32.018  11.057
35835W        W 8128   5.379   4.713   2.862
35836W        W 8129  24.696  29.003  11.489
35837W        W 8130  16.231  17.649   3.278
35838W        W 8131  24.529   0.920  12.369
35839W        W 8132  34.427  38.896  14.326
35840W        W 8133  24.107  33.049  13.898
35841W        W 8134  25.622  24.718  11.590
35842W        W 8135  41.869  18.226   5.311
35843W        W 8136  34.045  15.768  11.126
35844W        W 8137  10.781  25.627   3.703
35845W        W 8138  22.587  20.555  11.609
35846W        W 8139  26.625  36.502   2.417
35847W        W 8140   4.777  30.032  12.473
35848W        W 8141  39.547  30.446   0.931
35849W        W 8142  13.711   5.840   3.767
35850W        W 8143   6.722  30.093   1.761
35851W        W 8144  22.509  36.068   3.352
35852W        W 8145  37.412  18.252  11.089
35853W        W 8146  41.474  18.665   4.708
35854W        W 8147   6.706  19.552   0.840
35855W        W 8148  19.675  13.703  10.936
35856W        W 8149  44.968   2.246   2.304
35857W        W 8150  21.681  44.001  11.373
35858W        W 8151   7.237  30.106  11.488
35859W        W 8152  21.605  15.756   3.770
35860W        W 8153  34.107  25.190  14.409
35861W        W 8154  17.257  40.377  13.383
35862W        W 8155  38.544  21.736  11.565
35863W        W 8156  13.775  14.655  13.424
35864W        W 8157   7.713  14.639  14.435
35865W        W 8158  36.591  18.672  11.492
35866W        W 8159   5.417  23.119   3.706
35867W        W 8160  21.576  26.954  12.893
35868W        W 8161  27.477  32.530   3.348
35869W        W 8162  44.447  13.775  13.369
35870W        W 8163   5.932  11.811   2.359
35871W        W 8164  11.228  41.486  10.511
35872W        W 8165  39.398  44.969  14.431
35873W        W 8166  36.549  22.558  11.470
35874W        W 8167  30.910   3.823  14.325
35875W        W 8168  23.998  35.601  10.895
35876W        W 8169  42.906  19.209  12.001
35877W        W 8170  15.278  18.677   3.659
35878W        W 8171  14.712  35.559  12.532
35879W        W 8172   3.863  17.123   3.648
35880W        W 8173   0.944  40.053  14.923
35881W        W 8174  40.339  32.007  11.036
35882W        W 8175  19.229   0.985   4.121
35883W        W 8176  15.141  17.295   1.321
35884W        W 8177  32.589  14.217   2.806
35885W        W 8178   0.460  14.307  13.523
35886W        W 8179  43.335  25.622   4.802
35887W        W 8180  13.131  34.412  12.991
35888W        W 8181  13.796  32.442  14.400
35889W        W 8182  18.666  38.946   2.178
35890W        W 8183   9.734  19.659  14.312
35891W        W 8184   6.716   2.366  13.537
35892W        W 8185  33.014  16.234  14.440
35893W        W 8186  32.474   1.424  13.035
35894W        W 8187  42.945  41.478   3.245
35895W        W 8188  44.435   6.732   0.367
35896W        W 8189  37.059  14.773  14.969
35897W        W 8190   8.798   1.441   0.416
35898W        W 8191  21.701  38.529   1.319
35899W        W 8192   1.413   7.197  14.759
35900W        W 8193   6.304  30.031  10.998
35901W        W 8194   8.374  23.719  14.311
35902W        W 8195  17.675  34.961  10.635
35903W        W 8196  19.668  43.853  12.350
35904W        W 8197  34.496   0.356  14.303
35905W        W 8198  40.504   9.296  14.806
35906W        W 8199   8.826  43.287  14.438
35907W        W 8200  38.006  31.127   1.449
35908W        W 8201   5.266  34.486   0.371
35909W        W 8202  21.036  22.739   3.310
35910W        W 8203  16.170  20.599   1.746
35911W        W 8204  26.013  35.402   1.337
35912W        W 8205   6.312   5.294  10.489
35913W        W 8206  20.218  33.080   5.176
35914W        W 8207   4.761  22.183  14.765
35915W        W 8208  15.114   7.766  11.092
35916W        W 8209  28.451  26.121   1.699
35917W        W 8210   5.432  44.404   3.854
35918W        W 8211  26.974  31.076   0.967
35919W        W 8212  29.933   0.314  13.419
35920W        W 8213  44.417  13.222   0.847
35921W        W 8214  44.266  42.032   0.868
35922W        W 8215  11.310  17.211  14.481
35923W        W 8216  37.395   9.382   4.630
35924W        W 8217  23.986  43.764  12.469
35925W        W 8218  40.816   2.900   3.789
35926W        W 8219   2.230   4.318  12.469
35927W        W 8220   5.316  22.688  11.100
35928W        W 8221  28.022   9.758  13.395
35929W        W 8222   7.819  17.570  11.387
35930W        W 8223   4.404  15.796   2.200
35931W        W 8224   3.829  15.254   2.712
35932W        W 8225  32.050  17.615  13.902
35933W        W 8226  15.693  37.457   2.342
35934W        W 8227  13.272  28.570  14.902
35935W        W 8228   9.376  23.521  12.901
35936W        W 8229  34.115  18.289   0.772
35937W        W 8230  14.287  35.402   4.315
35938W        W 8231  12.291  30.034   2.855
35939W        W 8232  41.015  40.487  14.960
35940W        W 8233   5.819  21.619   0.944
35941W        W 8234  12.266   9.150  12.527
35942W        W 8235  39.025  38.026  14.420
35943W        W 8236   4.406  34.081   1.220
35944W        W 8237  39.352  15.808   1.764
35945W        W 8238  36.581   4.398   4.654
35946W        W 8239   9.667   3.260  14.026
35947W        W 8240  26.050   0.814   0.750
35948W        W 8241  39.004  36.409   5.153
35949W        W 8242   5.710  39.408   2.774
35950W        W 8243   8.860  14.657  14.293
35951W        W 8244  12.269  31.518   0.418
35952W        W 8245   9.372  15.297   1.252
35953W        W 8246   9.721  33.526  12.027
35954W        W 8247  19.214  26.638   2.354
35955W        W 8248   2.893  23.043  14.371
35956W        W 8249   6.223  23.104  12.573
35957W        W 8250  29.002  20.578   0.298
35958W        W 8251  37.051   2.470  10.964
35959W        W 8252  38.994   9.764   3.715
35960W        W 8253  24.219  34.460  14.455
35961W        W 8254  21.193  14.717   4.661
35962W        W 8255  17.139  21.752   3.856
35963W        W 8256  33.434  17.203  12.915
35964W        W 8257  29.492  29.152  11.029
35965W        W 8258  20.544  42.032  12.457
35966W        W 8259  20.246  36.481  11.465
35967W        W 8260  11.858  28.444  14.906
35968W        W 8261  25.997  39.932  10.540
35969W        W 8262  15.675  40.046   3.793
35970W        W 8263  32.445  12.235  10.411
35971W        W 8264   3.836   5.426  11.883
35972W        W 8265  34.109   2.408  10.608
35973W        W 8266  21.025  34.488   1.270
35974W        W 8267  35.480   5.207   3.224
35975W        W 8268  17.112  24.504  10.951
35976W        W 8269  39.448  23.192   3.204
35977W        W 8270   1.448   9.809  10.989
35978W        W 8271  42.513  37.580  11.864
35979W        W 8272  38.348  39.356   4.636
35980W        W 8273  43.853  43.924  14.396
35981W        W 8274  31.590   4.731  14.516
35982W        W 8275  23.606  13.294   3.690
35983W        W 8276  25.977  32.957  10.464
35984W        W 8277   0.375   9.223   0.826
35985W        W 8278  12.821  34.963   4.699
35986W        W 8279  24.041  36.375   4.692
35987W        W 8280   8.271   9.264  11.456
35988W        W 8281   3.945  31.141  10.601
35989W        W 8282  32.997  12.778   0.466
35990W        W 8283  28.988  24.673  10.455
35991W        W 8284  22.193  40.876  12.477
35992W        W 8285   4.270  23.585   4.272
35993W        W 8286  37.522  24.979  11.067
35994W        W 8287  20.110  29.980  12.382
35995W        W 8288  33.552  12.784  13.369
35996W        W 8289  42.443  43.464  13.896
35997W        W 8290  40.797  35.863   0.753
35998W        W 8291  40.038  22.746  13.876
35999W        W 8292   3.710  36.537   0.914
36000W        W 8293   7.256  33.996   5.608
36001W        W 8294  12.322   4.414  13.335
36002W        W 8295  20.077  32.637   1.893
36003W        W 8296  26.050  43.386   3.788
36004W        W 8297  28.001  34.502   2.269
36005W        W 8298  38.472  37.525   0.938
36006W        W 8299  15.596  24.585   0.897
36007W        W 8300  24.058  25.131   2.338
36008W        W 8301  10.739   3.412  11.875
36009W        W 8302  24.155  40.864  11.939
36010W        W 8303   4.322   5.249   0.459
36011W        W 8304  29.089  42.455  12.549
36012W        W 8305  19.286  44.939  13.991
36013W        W 8306  36.529  35.526   4.646
36014W        W 8307   9.815  17.084  14.297
36015W        W 8308   9.782  42.787   2.395
36016W        W 8309  25.511  35.057   3.285
36017W        W 8310  24.131  29.610  12.887
36018W        W 8311  37.007  18.741  11.917
36019W        W 8312  24.496  34.913   3.820
36020W        W 8313  39.902  11.663   1.267
36021W        W 8314  29.533  24.974  12.848
36022W        W 8315  41.788   5.896  14.986
36023W        W 8316  20.227   8.698  10.028
36024W        W 8317  11.307  17.797   4.154
36025W        W 8318  13.806  17.126   3.313
36026W        W 8319  39.376  25.018   0.836
36027W        W 8320  16.767  37.507   2.844
36028W        W 8321  10.332  30.002  14.859
36029W        W 8322  26.625   5.375  10.906
36030W        W 8323   6.911  27.965   0.888
36031W        W 8324  36.539  42.937  13.030
36032W        W 8325  43.504  17.570  14.782
36033W        W 8326  19.751   2.409  11.460
36034W        W 8327  10.251   5.282  10.994
36035W        W 8328  19.703  23.579  13.967
36036W        W 8329  41.914  35.084   3.652
36037W        W 8330  36.506  12.331   3.258
36038W        W 8331  20.694   8.290  11.965
36039W        W 8332   1.474  44.422   3.239
36040W        W 8333  22.518  16.699   4.697
36041W        W 8334  35.421  34.889   2.788
36042W        W 8335  16.739  18.271   3.697
36043W        W 8336   7.291  13.738   0.762
36044W        W 8337  36.895  38.060   1.720
36045W        W 8338   0.453  26.641  10.464
36046W        W 8339  29.632  38.865   3.163
36047W        W 8340   5.931  13.798  12.879
36048W        W 8341   6.225   6.293   4.305
36049W        W 8342   4.338  34.410   3.788
36050W        W 8343  32.096  18.742  13.027
36051W        W 8344  33.383  29.004   3.674
36052W        W 8345  21.694  25.657  14.840
36053W        W 8346   1.450  43.894  13.807
36054W        W 8347  40.389  39.832   3.375
36055W        W 8348  14.220  33.398  12.942
36056W        W 8349  27.096   7.908  13.828
36057W        W 8350  19.075   5.310  12.861
36058W        W 8351  11.668  21.514  13.876
36059W        W 8352  32.117  36.905   2.285
36060W        W 8353  34.418  30.511   3.308
36061W        W 8354  21.713  30.622  13.946
36062W        W 8355  15.180  27.675  12.068
36063W        W 8356  18.554  25.694  11.480
36064W        W 8357  13.274   5.333   1.367
36065W        W 8358   1.858   0.889   0.789
36066W        W 8359  10.644  44.985   2.266
36067W        W 8360   5.743  31.492  11.944
36068W        W 8361  27.599   8.671  14.977
36069W        W 8362  37.367   7.829  10.522
36070W        W 8363  36.486  19.144  11.401
36071W        W 8364  17.700   4.770   0.892
36072W        W 8365  23.560  38.393   2.809
36073W        W 8366  10.188  37.489  11.473
36074W        W 8367  39.025  37.509   4.781
36075W        W 8368  32.918   3.441  11.470
36076W        W 8369   7.417  37.512   3.253
36077W        W 8370  14.166   2.858  12.888
36078W        W 8371  33.605  40.968   4.822
36079W        W 8372  36.964  19.284  12.435
36080W        W 8373  18.637  14.287  13.510
36081W        W 8374   1.937  44.813   0.357
36082W        W 8375  16.775  40.873  11.544
36083W        W 8376  29.030  14.666  11.948
36084W        W 8377   0.421  23.103  13.847
36085W        W 8378  26.087  42.837   3.706
36086W        W 8379  43.478  38.553   3.644
36087W        W 8380  33.393  42.436   3.318
36088W        W 8381  38.342  38.364  11.865
36089W        W 8382  16.204  28.528   2.888
36090W        W 8383  12.637  12.622   3.861
36091W        W 8384  35.106  41.905  11.438
36092W        W 8385  25.659   5.801   4.126
36093W        W 8386  33.459  19.621  10.425
36094W        W 8387  17.151  13.296   2.186
36095W        W 8388  12.807  30.612  10.896
36096W        W 8389   9.816  17.567  11.483
36097W        W 8390  31.470  34.001  14.360
36098W        W 8391  16.682  36.569   4.617
36099W        W 8392  12.807   6.719   1.388
36100W        W 8393  25.551  14.766   4.699
36101W        W 8394  32.435   2.795   3.273
36102W        W 8395  27.026  26.022   4.717
36103W        W 8396  13.642  13.608  13.472
36104W        W 8397  40.392   7.826  10.616
36105W        W 8398  13.153   8.167   2.240
36106W        W 8399   9.797  18.050  11.046
36107W        W 8400  33.483  24.026   0.264
36108W        W 8401  32.603   9.808  12.356
36109W        W 8402  39.916   1.854   4.353
36110W        W 8403  30.570   0.283  13.416
36111W        W 8404  43.485  37.431  13.502
36112W        W 8405   9.174  20.049  11.896
36113W        W 8406   3.458   6.254   1.805
36114W        W 8407   7.293  17.270  11.603
36115W        W 8408   2.762  24.720  14.302
36116W        W 8409  19.061   5.772  12.508
36117W        W 8410  19.630   3.359  11.109
36118W        W 8411   6.211  15.661  10.413
36119W        W 8412  42.006  35.969  11.106
36120W        W 8413  16.620  28.548   1.221
36121W        W 8414  32.469  17.301  12.468
36122W        W 8415  20.225  15.623   3.839
36123W        W 8416   7.756  39.451  11.507
36124W        W 8417  11.129  31.492  12.450
36125W        W 8418  22.705   0.886  11.004
36126W        W 8419   6.405  41.410  11.534
36127W        W 8420   0.403  22.677  13.980
36128W        W 8421  36.449  31.090  12.860
36129W        W 8422  20.128  10.279  13.989
36130W        W 8423  20.751  31.581   9.570
36131W        W 8424  23.530  37.934   4.710
36132W        W 8425  14.268  19.220  12.922
36133W        W 8426  23.636  14.206   3.348
36134W        W 8427  35.401  15.235   2.375
36135W        W 8428   2.823   2.243   0.280
36136W        W 8429  39.539  40.529  13.011
36137W        W 8430  23.654  10.869  11.989
36138W        W 8431  17.624  34.542   2.772
36139W        W 8432  26.007  29.425   2.408
36140W        W 8433   8.824   7.262  11.386
36141W        W 8434   2.307  13.152  14.852
36142W        W 8435  32.594  29.530  13.537
36143W        W 8436  22.185  25.087  10.591
36144W        W 8437   8.746  31.526  13.885
36145W        W 8438   6.417  15.742  13.968
36146W        W 8439   8.237  35.577  12.410
36147W        W 8440  31.605  43.877   2.870
36148W        W 8441  39.026   0.955   1.285
36149W        W 8442  30.124  44.773   0.800
36150W        W 8443   9.682  39.001  11.990
36151W        W 8444  28.058  21.133  12.055
36152W        W 8445  43.345   5.745   2.748
36153W        W 8446  39.866  42.030  14.922
36154W        W 8447  18.202  25.709   1.369
36155W        W 8448  41.035   2.333   3.329
36156W        W 8449  35.877  38.860   1.430
36157W        W 8450  31.543   2.226  14.968
36158W        W 8451  36.562  34.489  14.482
36159W        W 8452  33.960   9.193   1.425
36160W        W 8453  28.597  30.110  13.026
36161W        W 8454  44.464  34.975  14.510
36162W        W 8455  39.845  28.617  11.881
36163W        W 8456  16.696  36.472  12.529
36164W        W 8457  40.991  22.025  12.082
36165W        W 8458  10.879  12.668   3.275
36166W        W 8459  35.876  25.085   3.247
36167W        W 8460  13.604  22.706  12.934
36168W        W 8461   1.910  17.704  12.540
36169W        W 8462   5.280  31.491   2.322
36170W        W 8463  35.016  24.997  10.510
36171W        W 8464  41.461  29.670   5.216
36172W        W 8465  12.661  34.092  14.497
36173W        W 8466   3.910  30.510  12.916
36174W        W 8467  26.078  16.131   2.848
36175W        W 8468  25.062   5.325  12.490
36176W        W 8469  43.004  16.791   2.792
36177W        W 8470   3.778  41.292   1.720
36178W        W 8471  34.381  34.460   4.644
36179W        W 8472  20.051  26.011  10.471
36180W        W 8473  44.393  27.990   4.605
36181W        W 8474  39.998  32.943  12.914
36182W        W 8475  35.392   0.880  13.909
36183W        W 8476  23.508  28.027  12.871
36184W        W 8477  15.701  12.187  11.526
36185W        W 8478   2.844  29.528  12.959
36186W        W 8479  28.004  14.164   0.787
36187W        W 8480  15.163  20.213  14.839
36188W        W 8481  14.127   6.873  13.819
36189W        W 8482  34.441  29.016  13.438
36190W        W 8483  24.089   2.330   5.732
36191W        W 8484  17.575  11.630   1.370
36192W        W 8485  31.585  39.373   2.370
36193W        W 8486   5.299  27.189   4.326
36194W        W 8487   7.805  43.873   0.843
36195W        W 8488  28.452  43.893  11.604
36196W        W 8489   1.341  20.256  14.487
36197W        W 8490   5.693  36.892  14.392
36198W        W 8491  21.671  21.089   1.778
36199W        W 8492  18.115  23.045   2.339
36200W        W 8493   8.275   9.157   1.773
36201W        W 8494  29.113  12.216   1.763
36202W        W 8495  44.399  43.335  12.476
36203W        W 8496  42.911  39.524  10.431
36204W        W 8497  24.600  34.986   4.305
36205W        W 8498  41.968  34.460  11.986
36206W        W 8499  19.168  40.464   0.910
36207W        W 8500  14.654  32.530   1.717
36208W        W 8501   4.439   9.655   3.176
36209W        W 8502  12.796  27.610  12.490
36210W        W 8503  32.070  33.592  12.415
36211W        W 8504  13.123   3.294   0.435
36212W        W 8505  25.666  20.528   2.419
36213W        W 8506  20.044  10.371   3.273
36214W        W 8507  25.711  36.425   2.814
36215W        W 8508  31.072   1.923  13.961
36216W        W 8509  28.592  19.551  10.598
36217W        W 8510  17.784  17.706  11.535
36218W        W 8511  38.039  33.921   4.776
36219W        W 8512   7.300  12.774   3.733
36220W        W 8513   3.944  13.310  11.433
36221W        W 8514  32.406  34.442  14.859
36222W        W 8515   8.664  20.151  11.871
36223W        W 8516  31.500  30.928  12.082
36224W        W 8517  28.104  32.996   3.651
36225W        W 8518  39.927   0.312  14.008
36226W        W 8519  34.048  33.021  10.946
36227W        W 8520  13.210  19.126   1.335
36228W        W 8521  19.547  28.105   0.728
36229W        W 8522  23.184  39.820  10.953
36230W        W 8523  40.518   4.379  12.039
36231W        W 8524  36.860   6.732   0.300
36232W        W 8525   9.228  27.597  11.970
36233W        W 8526  19.629  28.525  10.603
36234W        W 8527  30.649  25.134   0.742
36235W        W 8528   8.832   5.244   1.256
36236W        W 8529  28.668  44.336   4.243
36237W        W 8530  29.518  39.922   3.746
36238W        W 8531  44.332  44.765  14.364
36239W        W 8532  20.548  30.918  12.906
36240W        W 8533  36.503   3.841  13.799
36241W        W 8534  44.878  27.974   2.700
36242W        W 8535  42.822  19.086  13.009
36243W        W 8536  37.547  12.674  14.789
36244W        W 8537  44.356   2.441   0.450
36245W        W 8538  13.755   5.727   1.335
36246W        W 8539  29.163  25.665   3.764
36247W        W 8540  22.532  10.786   4.239
36248W        W 8541  33.615  30.104  11.497
36249W        W 8542  22.719  23.656  11.574
36250W        W 8543   2.314  26.056   3.354
36251W        W 8544  30.941  33.915  13.954
36252W        W 8545  42.892  26.033   2.385
36253W        W 8546  28.545  12.668  10.915
36254W        W 8547  31.484   4.309   1.867
36255W        W 8548  32.060   3.429   3.759
36256W        W 8549  20.623  10.855  10.901
36257W        W 8550  17.144  13.660   3.370
36258W        W 8551  21.701  20.591   2.178
36259W        W 8552  30.141  19.700  13.524
36260W        W 8553   3.271  43.284  13.847
36261W        W 8554  14.240  43.313   2.788
36262W        W 8555   3.902   5.840   0.911
36263W        W 8556   2.409  38.905  11.043
36264W        W 8557  32.453  26.556   0.424
36265W        W 8558  40.342  31.047   3.847
36266W        W 8559   2.255  38.062  12.079
36267W        W 8560  12.644  20.750   2.807
36268W        W 8561  29.507  41.313   2.256
36269W        W 8562   9.334  21.734  13.867
36270W        W 8563  42.809  20.147  12.087
36271W        W 8564  19.216  21.728   2.728
36272W        W 8565   4.740   3.879   2.386
36273W        W 8566  38.946  30.654   0.966
36274W        W 8567  42.790  35.386  13.981
36275W        W 8568  18.786  12.633  11.129
36276W        W 8569  30.987   4.243   3.761
36277W        W 8570   3.757  14.719   0.248
36278W        W 8571  15.113  22.726  10.495
36279W        W 8572  35.507   7.295   1.384
36280W        W 8573  16.108  41.879   4.685
36281W        W 8574  40.991  33.566  10.890
36282W        W 8575  24.597  33.081   4.289
36283W        W 8576  39.809  31.938  14.340
36284W        W 8577   6.806  23.571  12.870
36285W        W 8578  27.464   6.226  12.897
36286W        W 8579  20.703  35.473  13.877
36287W        W 8580  28.074   1.369   0.926
36288W        W 8581  31.097  35.995   0.427
36289W        W 8582  41.929   8.167   0.423
36290W        W 8583  38.905  12.229   1.760
36291W        W 8584  34.519  43.942  12.570
36292W        W 8585  11.225  35.559  12.889
36293W        W 8586  44.992  32.951   2.789
36294W        W 8587   9.257   6.888  14.311
36295W        W 8588  44.954   1.935  10.934
36296W        W 8589  35.546  25.668  10.915
36297W        W 8590   3.224  24.074  11.379
36298W        W 8591  37.081  24.655  10.528
36299W        W 8592  34.111  42.831   2.355
36300W        W 8593  24.008  35.510  14.871
36301W        W 8594  26.160  25.527  12.995
36302W        W 8595  24.199  38.947   3.228
36303W        W 8596  39.835  26.646   2.385
36304W        W 8597  13.126  25.647   1.265
36305W        W 8598   3.932   2.364  10.610
36306W        W 8599  20.238  40.384   3.784
36307W        W 8600  43.769  15.682   1.753
36308W        W 8601   2.323   7.281  11.957
36309W        W 8602  43.348   7.905  14.440
36310W        W 8603  19.192  19.127  13.327
36311W        W 8604  38.530   7.312   4.300
36312W        W 8605  31.126  41.488  12.497
36313W        W 8606  15.637  14.703  14.866
36314W        W 8607   4.410   6.259  14.463
36315W        W 8608  13.791   9.780  10.632
36316W        W 8609  31.081  44.412  12.938
36317W        W 8610   0.927  31.051  14.453
36318W        W 8611  24.616  19.613   0.772
36319W        W 8612  28.620   7.293   3.771
36320W        W 8613  15.108  28.122   3.373
36321W        W 8614  39.922  14.327   3.666
36322W        W 8615  34.577  38.945  11.079
36323W        W 8616  16.725   6.763   2.411
36324W        W 8617  37.376  29.153  14.992
36325W        W 8618  16.218  34.511   1.830
36326W        W 8619   8.828   8.249  10.498
36327W        W 8620  37.552  35.523  12.839
36328W        W 8621  11.364  13.271  10.415
36329W        W 8622  38.026  10.772   1.834
36330W        W 8623  28.594  15.621   2.314
36331W        W 8624  43.494   5.772   2.384
36332W        W 8625  13.700  40.355   3.655
36333W        W 8626   4.785  44.986   0.314
36334W        W 8627  25.020  43.481   0.893
36335W        W 8628   5.914  25.654   4.800
36336W        W 8629  41.792  37.507  12.054
36337W        W 8630  27.076   2.958  11.536
36338W        W 8631  15.682  11.633  14.360
36339W        W 8632  38.060  33.401  10.895
36340W        W 8633  18.656  33.965   4.160
36341W        W 8634  41.362  37.995   1.230
36342W        W 8635  12.668  40.378   1.697
36343W        W 8636   5.331   6.744   1.355
36344W        W 8637   7.707   0.813   4.782
36345W        W 8638  36.903   7.330  13.501
36346W        W 8639  27.593   5.901  10.960
36347W        W 8640  13.775   2.233   4.687
36348W        W 8641  24.117  44.464  14.471
36349W        W 8642  12.846  14.279  11.487
36350W        W 8643  20.254  17.673  13.999
36351W        W 8644  34.969   5.384  14.795
36352W        W 8645  41.525  28.664  12.951
36353W        W 8646  29.015  29.926  12.567
36354W        W 8647  28.123  13.666   3.174
36355W        W 8648   9.157   8.400  13.540
36356W        W 8649  44.360  25.562  14.364
36357W        W 8650  19.581  43.931   2.299
36358W        W 8651  34.027   9.750  13.498
36359W        W 8652  28.991  16.799   3.254
36360W        W 8653  32.541  21.642  13.542
36361W        W 8654  44.472  21.151   4.739
36362W        W 8655  23.996  10.641   3.785
36363W        W 8656  27.947  33.538   0.805
36364W        W 8657  23.037  34.439  12.934
36365W        W 8658   1.476  26.068   2.845
36366W        W 8659  31.517  37.045  10.613
36367W        W 8660  39.500  17.617   1.433
36368W        W 8661  32.122  11.803  12.451
36369W        W 8662  11.822  34.382  12.053
36370W        W 8663  24.165  11.690   1.804
36371W        W 8664  36.061  30.653   0.396
36372W        W 8665  23.173  11.178  11.484
36373W        W 8666   8.241  38.011  14.996
36374W        W 8667  16.800  36.959   2.778
36375W        W 8668   8.842  17.303  10.924
36376W        W 8669  39.970  43.913  13.362
36377W        W 8670  17.659  36.359   0.950
36378W        W 8671   1.844   7.394  12.368
36379W        W 8672   5.817   5.767   4.299
36380W        W 8673   6.227  27.194  14.316
36381W        W 8674  28.599  40.895   1.744
36382W        W 8675  44.785   0.832   3.356
36383W        W 8676   5.842  42.355  11.988
36384W        W 8677   0.934  41.397  12.962
36385W        W 8678  25.176  16.736   1.892
36386W        W 8679  41.830   4.725   0.727
36387W        W 8680  12.122  27.163   3.163
36388W        W 8681  37.888  40.395   0.869
36389W        W 8682  40.391  23.601   1.908
36390W        W 8683  42.887  18.189  10.107
36391W        W 8684  39.478   5.775  13.312
36392W        W 8685  23.674  14.665  10.587
36393W        W 8686  26.144  23.034  12.479
36394W        W 8687  31.105   3.412   2.331
36395W        W 8688  21.522  25.143  10.512
36396W        W 8689  17.628   8.842   1.719
36397W        W 8690  17.299  22.150  14.810
36398W        W 8691  16.614  14.761  11.952
36399W        W 8692  40.864  32.133   1.896
36400W        W 8693  31.618   7.788   1.241
36401W        W 8694  34.526  13.129  14.466
36402W        W 8695  26.508  25.012  12.954
36403W        W 8696  10.770   9.718  12.033
36404W        W 8697  18.050   7.725   2.883
36405W        W 8698  40.467  28.676  14.453
36406W        W 8699   2.312  35.542   2.278
36407W        W 8700  21.752  11.196   1.362
36408W        W 8701   9.170  37.348   4.706
36409W        W 8702  20.761  17.641   2.400
36410W        W 8703  25.150  37.369   1.786
36411W        W 8704  13.698  30.016  10.479
36412W        W 8705  31.982  26.458  13.331
36413W        W 8706  43.293  23.510   4.827
36414W        W 8707  42.011  43.274   3.152
36415W        W 8708   5.868  37.956   1.924
36416W        W 8709  39.850  35.076   4.703
36417W        W 8710  15.771  14.740   1.263
36418W        W 8711  12.732  28.597   2.735
36419W        W 8712   3.873  22.637   0.327
36420W        W 8713   2.414   1.829  13.846
36421W        W 8714  44.296   7.688  11.578
36422W        W 8715  33.417  22.042  10.917
36423W        W 8716  32.001  29.139  14.404
36424W        W 8717  38.920  24.107   1.843
36425W        W 8718  41.932   9.876   3.185
36426W        W 8719  15.107  19.117  11.591
36427W        W 8720   0.867  30.470   4.664
36428W        W 8721   1.751   8.253   2.372
36429W        W 8722   2.390  42.344   2.850
36430W        W 8723  13.201  42.800   3.839
36431W        W 8724  16.195  11.285  14.012
36432W        W 8725   9.874  28.935   4.306
36433W        W 8726   0.274  15.776   1.856
36434W        W 8727  29.513  41.408  14.911
36435W        W 8728  20.576   7.730  13.413
36436W        W 8729  32.989  28.976  12.405
36437W        W 8730  27.159  34.915  11.958
36438W        W 8731  15.128  41.520   0.318
36439W        W 8732  17.661  18.577   3.789
36440W        W 8733  43.977  10.664  13.466
36441W        W 8734  34.087  15.585   1.930
36442W        W 8735  39.351  12.613   2.769
36443W        W 8736  21.516  10.651  10.522
36444W        W 8737  41.365  14.772  12.067
36445W        W 8738  37.038  44.378   2.275
36446W        W 8739   0.261  27.955   1.725
36447W        W 8740  23.051  36.528   3.243
36448W        W 8741   4.383  33.886  13.921
36449W        W 8742  14.227  20.185  12.558
36450W        W 8743   0.453  43.496  14.281
36451W        W 8744  32.893  41.324  11.100
36452W        W 8745  27.465  42.300  10.580
36453W        W 8746  14.769  24.048   4.753
36454W        W 8747  26.005   9.251   2.403
36455W        W 8748  42.872   9.833   0.759
36456W        W 8749  23.110  11.261   4.725
36457W        W 8750  44.809  27.547  11.871
36458W        W 8751   1.965  18.178   0.413
36459W        W 8752  11.750  10.222   5.183
36460W        W 8753  22.636   1.328  13.811
36461W        W 8754  22.252  17.245   4.686
36462W        W 8755  37.950  39.983  14.308
36463W        W 8756   1.935  35.924   0.834
36464W        W 8757  35.924   4.433   4.799
36465W        W 8758   7.234  42.920  11.865
36466W        W 8759  33.486  14.236  12.441
36467W        W 8760   4.379  11.661   3.289
36468W        W 8761   2.724   8.822  14.382
36469W        W 8762  33.085   2.853   3.187
36470W        W 8763  26.689  21.239  12.884
36471W        W 8764  34.084  35.599  13.991
36472W        W 8765   1.851   9.379   4.717
36473W        W 8766   3.439   4.390  12.564
36474W        W 8767  18.141  12.613   3.635
36475W        W 8768  40.008  22.526  13.011
36476W        W 8769  17.298  34.506  13.824
36477W        W 8770  31.142  35.058  12.490
36478W        W 8771  38.013  12.314   3.746
36479W        W 8772  40.483   2.802  12.536
36480W        W 8773   8.302  26.679  13.476
36481W        W 8774   5.707  18.655   3.844
36482W        W 8775  30.933   4.810  13.893
36483W        W 8776   8.256   0.363   2.378
36484W        W 8777  34.482  41.817   3.649
36485W        W 8778  11.159  27.018  11.054
36486W        W 8779   5.807  12.644   0.319
36487W        W 8780  18.721  34.943  11.597
36488W        W 8781  27.044  37.344  11.538
36489W        W 8782  28.019  40.534  13.912
36490W        W 8783   5.321  44.343   3.362
36491W        W 8784  12.226  16.245   4.150
36492W        W 8785   3.824  17.638  12.898
36493W        W 8786   0.845  11.846  11.881
36494W        W 8787  14.308  24.512   3.831
36495W        W 8788   7.220   9.303   0.268
36496W        W 8789   7.238  22.236  12.564
36497W        W 8790   0.253  12.727  10.592
36498W        W 8791  22.527  22.133   2.807
36499W        W 8792  33.060  41.415  12.503
36500W        W 8793   4.280  24.014   0.785
36501W        W 8794  43.483  42.362   0.325
36502W        W 8795  34.979   6.714   2.885
36503W        W 8796   9.889  19.069  11.980
36504W        W 8797  22.187  26.541   3.323
36505W        W 8798   4.836  18.771  11.121
36506W        W 8799  33.593  41.864   2.324
36507W        W 8800  44.263  14.103   4.285
36508W        W 8801  41.340  29.105  12.402
36509W        W 8802  20.530  33.474   0.455
36510W        W 8803  35.373   5.412  12.893
36511W        W 8804   8.700  42.382   1.281
36512W        W 8805  30.099  13.619  13.844
36513W        W 8806  17.223  18.108   5.193
36514W        W 8807   1.248   0.271   0.889
36515W        W 8808  23.549  30.655  14.492
36516W        W 8809   4.874  36.383  12.903
36517W        W 8810  16.572  28.603   4.689
36518W        W 8811  44.925  14.287   2.247
36519W        W 8812   6.827   7.863  10.531
36520W        W 8813  19.054  44.331  11.903
36521W        W 8814   8.789  22.069   1.793
36522W        W 8815  30.080  27.542   1.915
36523W        W 8816  20.767  16.097   2.715
36524W        W 8817  38.898  40.491  14.391
36525W        W 8818   1.364  14.637   3.360
36526W        W 8819  16.166   7.238  11.941
36527W        W 8820  32.488  31.404  14.433
36528W        W 8821  20.730  39.540   4.656
36529W        W 8822  23.589  36.566   2.835
36530W        W 8823  12.242   2.404  10.939
36531W        W 8824   3.768  14.280  12.947
36532W        W 8825  23.189  13.350  14.949
36533W        W 8826  38.446  27.951   1.917
36534W        W 8827  37.428  24.562  13.822
36535W        W 8828  11.138  24.528   4.826
36536W        W 8829   3.755  16.125  14.447
36537W        W 8830  28.097  31.635  13.797
36538W        W 8831  39.921  22.210  13.015
36539W        W 8832   7.321  40.485  11.128
36540W        W 8833  29.094  18.655   4.237
36541W        W 8834  39.336  26.142   4.268
36542W        W 8835  15.673  12.722  11.092
36543W        W 8836  26.674  41.399  10.096
36544W        W 8837  41.342   7.875   0.935
36545W        W 8838  33.900  27.465   1.740
36546W        W 8839  16.668  16.281  13.384
36547W        W 8840   5.829   8.390  14.345
36548W        W 8841  17.179  30.102   0.896
36549W        W 8842   2.312   0.259   0.933
36550W        W 8843  31.043   3.445  11.126
36551W        W 8844  28.530  25.632  14.022
36552W        W 8845  13.770  34.891  11.511
36553W        W 8846  33.502  33.409  12.962
36554W        W 8847  28.108  21.222   0.962
36555W        W 8848   0.762  15.791  10.526
36556W        W 8849  11.645  25.516   3.149
36557W        W 8850  12.753   3.929  12.488
36558W        W 8851  21.065  25.140  13.442
36559W        W 8852  42.901   3.833   2.680
36560W        W 8853  13.137  30.147   3.831
36561W        W 8854   3.255  25.098   0.272
36562W        W 8855   1.480  26.618  13.895
36563W        W 8856  16.136   7.230  11.408
36564W        W 8857  22.087  31.902  11.468
36565W        W 8858  15.613   0.327  14.812
36566W        W 8859  39.868  19.581  12.387
36567W        W 8860   1.837  37.522  10.633
36568W        W 8861  39.454  28.507   1.450
36569W        W 8862   6.919  38.063  12.379
36570W        W 8863   0.794  22.218   1.844
36571W        W 8864  21.253  32.581   4.608
36572W        W 8865  24.045  44.472   0.367
36573W        W 8866  31.919  40.994  14.907
36574W        W 8867  10.844  40.453   3.285
36575W        W 8868  12.334  32.431   0.930
36576W        W 8869  35.954  44.423  11.451
36577W        W 8870  17.199  38.569  13.514
36578W        W 8871  35.083  23.652   0.393
36579W        W 8872  15.245  15.582   0.257
36580W        W 8873  43.437  38.494   2.870
36581W        W 8874  19.075  43.497  12.081
36582W        W 8875   2.449  42.018   0.414
36583W        W 8876  37.844  30.064   0.908
36584W        W 8877  44.857  41.456  13.533
36585W        W 8878  39.325  25.145   3.769
36586W        W 8879  21.127  41.500  14.331
36587W        W 8880  16.218  30.448   3.784
36588W        W 8881  17.096  18.614  11.457
36589W        W 8882  38.546  38.442  13.912
36590W        W 8883   5.869  10.811  12.432
36591W        W 8884   6.693  42.776   2.679
36592W        W 8885  18.130  25.471   3.225
36593W        W 8886  30.460  30.497  11.109
36594W        W 8887  10.237  14.764   3.269
36595W        W 8888  35.861  41.537   0.931
36596W        W 8889  32.524  11.212   0.807
36597W        W 8890  42.784   2.244  11.028
36598W        W 8891  14.741  28.170   1.331
36599W        W 8892  15.818   2.912   1.769
36600W        W 8893   5.734   5.361   4.648
36601W        W 8894  15.618  13.754   4.354
36602W        W 8895   2.322  40.414  14.996
36603W        W 8896  16.255   5.702  14.887
36604W        W 8897  35.598  10.322  12.576
36605W        W 8898  24.593  38.027   4.301
36606W        W 8899  38.002  25.497  13.451
36607W        W 8900  11.639  25.634  13.814
36608W        W 8901  29.576  23.500   4.607
36609W        W 8902  13.112  34.911  12.493
36610W        W 8903  40.454   3.803   2.709
36611W        W 8904   6.719   0.823   4.275
36612W        W 8905  38.463   8.657  11.464
36613W        W 8906  43.834  34.438   3.356
36614W        W 8907  28.028  30.582   3.870
36615W        W 8908  40.316   7.830   4.760
36616W        W 8909  12.127   2.275   4.203
36617W        W 8910  26.555  31.075   1.375
36618W        W 8911  19.266  38.862   1.351
36619W        W 8912  16.164  39.849  11.102
36620W        W 8913  31.953   1.362  11.902
36621W        W 8914  40.343  37.994  14.804
36622W        W 8915  22.584   0.385   3.792
36623W        W 8916  31.641  24.216   2.825
36624W        W 8917  11.134  39.379   3.817
36625W        W 8918  38.852  12.632   4.142
36626W        W 8919   6.228  35.544  13.053
36627W        W 8920   6.276  37.464   3.257
36628W        W 8921  39.410  31.026  11.409
36629W        W 8922   6.711  30.495  13.409
36630W        W 8923   8.188  42.406  10.447
36631W        W 8924   9.240  42.473   0.823
36632W        W 8925  30.992  27.586  12.484
36633W        W 8926  32.462  40.972   2.793
36634W        W 8927  10.153  16.227  12.952
36635W        W 8928  31.923  18.707  14.315
36636W        W 8929  39.808  22.596   2.702
36637W        W 8930  32.992  24.537   0.915
36638W        W 8931   5.300   8.861  12.483
36639W        W 8932  36.391  32.950   4.809
36640W        W 8933  44.310   4.759  13.378
36641W        W 8934   6.887  22.198  13.516
36642W        W 8935   1.434   2.446   1.932
36643W        W 8936   4.754  37.045  12.056
36644W        W 8937   1.867  24.562  12.551
36645W        W 8938  18.174  18.246  10.953
36646W        W 8939  18.629   8.294   4.126
36647W        W 8940  17.180   9.220  14.940
36648W        W 8941  19.248   4.731   3.329
36649W        W 8942   2.253  35.477   4.147
36650W        W 8943  13.725  12.304   2.845
36651W        W 8944  44.498  41.950  13.412
36652W        W 8945  24.143  13.691   3.738
36653W        W 8946  27.536   5.208   3.670
36654W        W 8947  20.088  23.076  11.859
36655W        W 8948  33.570  43.435  14.281
36656W        W 8949  23.499  24.204   1.300
36657W        W 8950  36.365  23.093  13.312
36658W        W 8951  27.981   9.229  14.421
36659W        W 8952  22.190   7.873  10.976
36660W        W 8953   9.776   0.763  13.410
36661W        W 8954  32.051  11.775  11.040
36662W        W 8955  35.030  35.501   1.927
36663W        W 8956  21.594  29.581   2.669
36664W        W 8957  22.678  27.064   3.708
36665W        W 8958   3.316  32.123  11.416
36666W        W 8959  39.498  14.330   5.285
36667W        W 8960  38.884  16.112  12.380
36668W        W 8961  12.754  35.385   1.827
36669W        W 8962  44.864  22.573   4.310
36670W        W 8963  36.375  14.786  13.859
36671W        W 8964   3.421  27.135   3.203
36672W        W 8965   8.817  31.038   1.428
36673W        W 8966   3.954  36.042  14.419
36674W        W 8967  18.083  36.937   2.301
36675W        W 8968  40.053   2.780   4.165
36676W        W 8969  25.158  24.678   2.687
36677W        W 8970   7.686  34.046  13.042
36678W        W 8971  43.285  40.446   1.387
36679W        W 8972  41.457  25.213  11.562
36680W        W 8973  32.954   1.942   3.305
36681W        W 8974  23.990  35.456   1.272
36682W        W 8975  24.683  37.036   4.274
36683W        W 8976  20.033  40.834   1.425
36684W        W 8977  31.028  37.369   0.809
36685W        W 8978   8.281  31.902   0.923
36686W        W 8979  17.119  44.449  10.502
36687W        W 8980  12.656  43.502  10.491
36688W        W 8981  16.739   3.291   1.851
36689W        W 8982   1.292   1.452  12.470
36690W        W 8983  19.202  38.917  11.959
36691W        W 8984  44.760  40.424  12.831
36692W        W 8985  13.240  35.078  11.561
36693W        W 8986  44.261   3.716  13.349
36694W        W 8987  25.551  26.458  13.360
36695W        W 8988  43.371  30.650  12.356
36696W        W 8989   1.404  15.181   2.198
36697W        W 8990  40.956  15.172  13.905
36698W        W 8991  32.952   7.224  14.784
36699W        W 8992  29.999   0.905   4.604
36700W        W 8993  17.801   9.684   4.617
36701W        W 8994  41.005   1.944  13.317
36702W        W 8995  41.866  37.518  11.418
36703W        W 8996  44.880  17.646  14.778
36704W        W 8997  34.573   1.797  13.831
36705W        W 8998  43.336  41.374  12.507
36706W        W 8999  32.606   9.179   5.138
36707W        W 9000  14.829  10.329  10.921
36708W        W 9001  27.489  36.884   1.424
36709W        W 9002  18.140  26.008  12.457
36710W        W 9003  11.229  18.787   2.706
36711W        W 9004   1.471  13.738  11.069
36712W        W 9005  33.913  43.980   2.721
36713W        W 9006  37.087  29.449  13.332
36714W        W 9007   2.930  28.053  13.891
36715W        W 9008  40.940  39.353  13.004
36716W        W 9009  21.163  15.149  10.627
36717W        W 9010   7.326  41.388  10.917
36718W        W 9011  29.013  34.055  12.892
36719W        W 9012  21.565  37.001   3.322
36720W        W 9013   6.301   0.316  10.627
36721W        W 9014   8.170  19.104  13.059
36722W        W 9015  31.100  13.340   0.824
36723W        W 9016  30.991   6.810  12.910
36724W        W 9017  34.016  39.347  12.968
36725W        W 9018  25.510   5.829   4.834
36726W        W 9019   0.783  44.955   3.805
36727W        W 9020  16.805  27.037  13.898
36728W        W 9021  23.568  16.676   0.405
36729W        W 9022  13.157  28.952   0.848
36730W        W 9023   9.848  21.041  12.434
36731W        W 9024  20.159  21.057  11.512
36732W        W 9025  17.299  18.664   4.748
36733W        W 9026  39.036  36.523   4.188
36734W        W 9027  28.062  25.642   0.858
36735W        W 9028  17.289  27.690   1.853
36736W        W 9029  36.452   6.349   2.364
36737W        W 9030  25.011   6.393   1.874
36738W        W 9031  21.119  15.309   9.987
36739W        W 9032   9.242  28.005   5.148
36740W        W 9033  44.884  43.926   4.660
36741W        W 9034   3.277   4.857  13.477
36742W        W 9035   5.902  10.249   0.879
36743W        W 9036  43.512  11.372  13.480
36744W        W 9037   6.242  39.971   4.745
36745W        W 9038  34.571  31.565  14.956
36746W        W 9039   6.252  32.488   0.823
36747W        W 9040   6.903  23.542  12.046
36748W        W 9041  31.134   0.747   5.293
36749W        W 9042   3.882  26.461  12.454
36750W        W 9043  17.203   6.786   0.732
36751W        W 9044  25.486  41.994   3.704
36752W        W 9045   8.682  25.099   5.314
36753W        W 9046   1.974  14.658   0.874
36754W        W 9047  44.923  39.021  10.075
36755W        W 9048  29.542  33.905  12.429
36756W        W 9049  20.592  13.174   3.327
36757W        W 9050   8.234  41.988   1.435
36758W        W 9051   5.717  24.525   0.783
36759W        W 9052  22.060  25.019  14.450
36760W        W 9053  12.827  23.222  14.486
36761W        W 9054  29.434  23.116  12.900
36762W        W 9055  33.385   1.785   2.727
36763W        W 9056  27.122  27.508  14.931
36764W        W 9057  10.719  32.509  11.605
36765W        W 9058  42.358  44.454  10.535
36766W        W 9059   4.399  35.435  11.454
36767W        W 9060  30.990  37.503  12.824
36768W        W 9061  41.400  24.603   4.606
36769W        W 9062   0.770  38.940   0.771
36770W        W 9063  29.477  19.188  13.022
36771W        W 9064   4.880  38.032   2.190
36772W        W 9065  13.772   3.797  10.508
36773W        W 9066  11.752  22.221   4.337
36774W        W 9067   9.693  36.383   2.717
36775W        W 9068  13.804   5.303  14.388
36776W        W 9069  30.565  43.922   3.741
36777W        W 9070   1.929  31.019  12.408
36778W        W 9071   5.887   7.313   2.232
36779W        W 9072  24.979  25.080  14.007
36780W        W 9073   4.212  14.753  12.988
36781W        W 9074   8.318   3.831  14.336
36782W        W 9075   1.761   2.387  13.852
36783W        W 9076  20.765   1.330   1.263
36784W        W 9077   8.880  37.876  14.385
36785W        W 9078  12.253  27.018   0.478
36786W        W 9079  18.142  23.026   1.283
36787W        W 9080  37.877  25.474  12.962
36788W        W 9081   7.313   8.362   2.811
36789W        W 9082  40.986  30.907  12.445
36790W        W 9083  20.109  36.512   0.779
36791W        W 9084  44.967  24.520  13.487
36792W        W 9085  42.909   7.819  13.313
36793W        W 9086   3.345  34.934  12.459
36794W        W 9087  39.834  44.800  14.319
36795W        W 9088  38.470  42.865  11.944
36796W        W 9089  33.447   0.797   0.261
36797W        W 9090  30.079  42.825   2.412
36798W        W 9091   7.781  38.915  10.943
36799W        W 9092  43.442  34.981  14.380
36800W        W 9093  22.521  15.796  11.391
36801W        W 9094   7.769  33.492   9.671
36802W        W 9095  30.640  43.854   2.721
36803W        W 9096  23.057  30.529  13.533
36804W        W 9097   4.305   0.891  12.552
36805W        W 9098   9.377  29.101   0.328
36806W        W 9099  26.693  25.045  11.888
36807W        W 9100   7.302   4.807   0.311
36808W        W 9101  35.009   3.430  13.881
36809W        W 9102  20.526  24.550  10.426
36810W        W 9103   6.405  24.214  11.597
36811W        W 9104  44.285  44.832  12.989
36812W        W 9105  40.845  43.454  12.967
36813W        W 9106  13.125  40.383   1.233
36814W        W 9107  36.401  41.481  10.076
36815W        W 9108  29.530  27.043   4.760
36816W        W 9109  10.223  30.572   2.348
36817W        W 9110  19.118  25.196   3.696
36818W        W 9111  26.650   7.363  11.377
36819W        W 9112  35.441  43.465  11.412
36820W        W 9113   4.349  41.532  12.398
36821W        W 9114  17.223  14.198   2.726
36822W        W 9115  44.825  41.491   4.268
36823W        W 9116  32.474  12.175  10.890
36824W        W 9117  14.677  11.269  14.970
36825W        W 9118  42.006  16.737   5.578
36826W        W 9119  40.524  32.076  14.982
36827W        W 9120  39.004   1.946   4.142
36828W        W 9121  34.984  38.076  10.450
36829W        W 9122   2.943  37.025  13.924
36830W        W 9123  23.131  43.439  14.405
36831W        W 9124  27.670  30.535  13.058
36832W        W 9125  42.927  44.426   0.291
36833W        W 9126  16.669   3.277   4.176
36834W        W 9127  33.910  12.323   0.845
36835W        W 9128  33.896  20.082   1.422
36836W        W 9129  25.220  44.462  13.064
36837W        W 9130  10.724  10.230   0.423
36838W        W 9131  33.540  26.605  13.902
36839W        W 9132  27.107   2.407   0.844
36840W        W 9133  42.827   3.887  11.899
36841W        W 9134  24.172  40.849   0.330
36842W        W 9135  21.618  19.206  10.479
36843W        W 9136  18.205  20.102   5.092
36844W        W 9137  41.979  35.383  12.348
36845W        W 9138  15.214  24.527   3.222
36846W        W 9139   8.877  12.133   0.310
36847W        W 9140   9.344  24.164   0.354
36848W        W 9141  18.582  33.518  14.771
36849W        W 9142  27.017   9.774  13.464
36850W        W 9143  27.475  41.921   4.718
36851W        W 9144  42.910  21.083   1.889
36852W        W 9145   6.341  41.916   1.425
36853W        W 9146  36.847  36.953  10.512
36854W        W 9147  41.498   4.342   4.755
36855W        W 9148  40.366  23.056   0.243
36856W        W 9149  13.142  41.947   1.929
36857W        W 9150  43.812   2.815   1.229
36858W        W 9151  28.630  30.054   4.345
36859W        W 9152  20.259  25.712  14.835
36860W        W 9153  20.254   1.319  14.005
36861W        W 9154  24.110  16.081   0.293
36862W        W 9155  38.544  31.036  14.910
36863W        W 9156  19.767   3.358  10.109
36864W        W 9157  10.175  31.986  12.414
36865W        W 9158  27.138  31.430  14.325
36866W        W 9159  23.007  27.184   4.184
36867W        W 9160  42.442  34.035   3.723
36868W        W 9161   2.723   2.811   2.256
36869W        W 9162  13.126  33.451   9.983
36870W        W 9163   5.757  41.488  13.351
36871W        W 9164  39.484   1.794  14.462
36872W        W 9165   3.248  18.149  10.968
36873W        W 9166  21.075  38.048   0.729
36874W        W 9167  39.939  34.109   2.305
36875W        W 9168  12.201  38.927  12.362
36876W        W 9169   8.390  33.054  12.076
36877W        W 9170  16.570   3.752  13.842
36878W        W 9171   1.761  27.505  10.616
36879W        W 9172  28.952  36.499  14.791
36880W        W 9173   4.251  10.312  14.926
36881W        W 9174  36.383  30.546  11.904
36882W        W 9175  23.683  26.060  14.763
36883W        W 9176  41.315  41.931   2.806
36884W        W 9177  39.883  31.574   3.810
36885W        W 9178  42.499   0.344   5.091
36886W        W 9179  16.625  30.441   4.257
36887W        W 9180   1.948  27.586   3.657
36888W        W 9181  26.177  25.016   0.879
36889W        W 9182  37.884  22.085   0.363
36890W        W 9183   6.832  21.027   0.415
36891W        W 9184  40.896  28.445   2.319
36892W        W 9185  29.666  21.528   2.775
36893W        W 9186   4.301  34.944  14.005
36894W        W 9187  43.833  28.548  12.998
36895W        W 9188   3.952  15.698   0.314
36896W        W 9189   1.381  21.165  14.433
36897W        W 9190  23.673  17.686   3.868
36898W        W 9191  17.713  35.515   4.239
36899W        W 9192  15.101  24.516  13.355
36900W        W 9193   2.455  33.384   2.751
36901W        W 9194  25.475   3.375   4.789
36902W        W 9195  19.128  20.630  10.005
36903W        W 9196  21.696  33.066  13.457
36904W        W 9197  42.332  41.449   4.321
36905W        W 9198  41.386  13.843  10.449
36906W        W 9199  18.103  11.276  13.476
36907W        W 9200  11.820  15.121   2.699
36908W        W 9201  21.165  38.955  14.293
36909W        W 9202  26.665   1.408   2.211
36910W        W 9203  33.936  25.640   4.704
36911W        W 9204  39.947  33.606  11.374
36912W        W 9205  32.620  35.050   3.693
36913W        W 9206  18.579  34.918   5.313
36914W        W 9207   5.767  11.711   0.462
36915W        W 9208  34.096  28.666   0.347
36916W        W 9209  19.560  43.019   2.274
36917W        W 9210  16.243   6.774   1.891
36918W        W 9211   0.897  19.128  13.877
36919W        W 9212  15.243  14.124  11.898
36920W        W 9213  37.083  12.198   4.334
36921W        W 9214   6.416  39.946  11.954
36922W        W 9215  11.791  44.398   4.341
36923W        W 9216  22.210  18.762  10.912
36924W        W 9217  11.702  13.154   2.665
36925W        W 9218  24.640   8.217   1.251
36926W        W 9219  28.118   7.293  12.390
36927W        W 9220  25.628  21.659  12.520
36928W        W 9221   9.835   4.764  14.822
36929W        W 9222  20.750  23.723  12.991
36930W        W 9223  25.577  12.217   2.353
36931W        W 9224  41.831  29.126  14.870
36932W        W 9225   9.366  25.134   2.402
36933W        W 9226  41.291  26.679   3.867
36934W        W 9227   2.818  32.417   3.255
36935W        W 9228  40.001  27.493  11.076
36936W        W 9229  27.057  42.870  13.389
36937W        W 9230  31.407  35.592  10.900
36938W        W 9231  41.368  36.904  11.416
36939W        W 9232  33.401   0.485   3.328
36940W        W 9233   8.190  18.104   1.797
36941W        W 9234  28.087  25.032  13.863
36942W        W 9235  25.700  37.579  11.058
36943W        W 9236  22.244   3.244  14.788
36944W        W 9237  34.888  18.124   0.964
36945W        W 9238   4.941  24.153   0.351
36946W        W 9239  25.584  33.875  14.800
36947W        W 9240  42.440  15.650   9.936
36948W        W 9241  31.559   5.193  10.439
36949W        W 9242  15.695   3.251  14.888
36950W        W 9243  38.929  10.684   1.723
36951W        W 9244   1.444  38.444   3.788
36952W        W 9245  24.616  35.942  10.410
36953W        W 9246  17.622  36.412   0.419
36954W        W 9247  43.399   4.785  13.959
36955W        W 9248   2.965  21.701   3.789
36956W        W 9249   5.408  41.835  12.841
36957W        W 9250  29.580  37.881   3.870
36958W        W 9251  35.558  19.552  12.861
36959W        W 9252  43.970  29.081   1.363
36960W        W 9253   4.861  41.981  11.434
36961W        W 9254  19.281  41.317   4.162
36962W        W 9255   1.314  43.501   2.379
36963W        W 9256  20.164  15.679  10.524
36964W        W 9257  14.108  40.984  12.918
36965W        W 9258   0.405  32.557   3.258
36966W        W 9259  16.137  35.417   4.340
36967W        W 9260   2.330  33.506  10.557
36968W        W 9261   9.753  37.858  13.880
36969W        W 9262   9.745  40.892  13.544
36970W        W 9263  34.938  23.090  11.090
36971W        W 9264  18.243  19.593   5.214
36972W        W 9265  19.659  31.937  10.479
36973W        W 9266  29.947   9.713   5.234
36974W        W 9267  18.608  43.374   2.352
36975W        W 9268  43.799  10.272  13.946
36976W        W 9269  20.692  17.716  11.378
36977W        W 9270  32.480  13.757   4.152
36978W        W 9271  22.622   2.821  14.330
36979W        W 9272  10.764  13.755   1.279
36980W        W 9273  19.119  43.915   1.868
36981W        W 9274  20.666  11.766   3.173
36982W        W 9275   4.255  33.056  12.856
36983W        W 9276  25.534  10.172  14.855
36984W        W 9277  44.293   7.790   1.289
36985W        W 9278   3.881  26.003   3.219
36986W        W 9279  40.944  10.810  11.421
36987W        W 9280  34.991  30.425  13.825
36988W        W 9281  39.977   5.437  11.121
36989W        W 9282  33.892  18.725   1.732
36990W        W 9283   2.829  10.793  11.871
36991W        W 9284  43.468  30.970  13.821
36992W        W 9285  15.744  12.362   3.719
36993W        W 9286   7.363  33.955   1.852
36994W        W 9287  41.835  18.616  11.553
36995W        W 9288  18.086  32.602  13.855
36996W        W 9289   6.271  24.069   4.285
36997W        W 9290   5.925   7.357   1.344
36998W        W 9291  37.898   2.894  13.941
36999W        W 9292   6.875  31.498   2.274
37000W        W 9293  20.229  12.264   0.851
37001W        W 9294  32.562  36.098  13.044
37002W        W 9295  27.117   1.743  10.956
37003W        W 9296  24.012  11.646   2.747
37004W        W 9297  43.378  20.622  12.881
37005W        W 9298  21.061  12.779  11.467
37006W        W 9299  16.679  27.686   4.194
37007W        W 9300  14.330   9.336  14.294
37008W        W 9301  11.159  37.882  15.000
37009W        W 9302  44.400  12.679  10.105
37010W        W 9303   9.188  36.418   1.840
37011W        W 9304   1.830  16.198  13.408
37012W        W 9305  24.564  13.293   2.417
37013W        W 9306  36.485  41.948   3.153
37014W        W 9307   8.892  44.909   0.408
37015W        W 9308  19.212  44.368   3.852
37016W        W 9309  13.703   6.420  14.910
37017W        W 9310  10.177  30.471   0.396
37018W        W 9311  29.128  19.145  14.282
37019W        W 9312  28.032  14.293  10.117
37020W        W 9313  22.144  12.171  14.828
37021W        W 9314   1.919  39.436  14.325
37022W        W 9315   1.244   3.291  14.969
37023W        W 9316   8.722  19.182   2.681
37024W        W 9317  40.321   5.205   2.348
37025W        W 9318  37.477  12.198  12.948
37026W        W 9319  30.600   7.830  12.401
37027W        W 9320  37.467  36.385   2.253
37028W        W 9321   9.773  39.816   1.298
37029W        W 9322  38.436  17.670   0.847
37030W        W 9323  31.416  15.665  12.034
37031W        W 9324  21.108  30.950  14.512
37032W        W 9325  29.025   0.791  10.914
37033W        W 9326   5.871  19.610  13.430
37034W        W 9327  24.573  24.202  10.992
37035W        W 9328  40.434  33.985   4.706
37036W        W 9329  29.485   0.822   4.692
37037W        W 9330  32.441   8.345   5.604
37038W        W 9331  12.285  36.462   1.697
37039W        W 9332   1.879  28.137   0.931
37040W        W 9333  35.966  29.928  11.608
37041W        W 9334  33.454  21.518   2.837
37042W        W 9335   9.231  20.180  13.422
37043W        W 9336  15.251   5.906   2.304
37044W        W 9337  33.528  21.058   1.426
37045W        W 9338  38.819  11.278  10.101
37046W        W 9339  36.566  44.313   2.314
37047W        W 9340  12.847  35.412   3.667
37048W        W 9341  28.034  24.222  14.330
37049W        W 9342  31.604  37.930   1.702
37050W        W 9343   5.827  24.004  13.335
37051W        W 9344   7.325  34.049   5.179
37052W        W 9345  25.687  26.203   1.744
37053W        W 9346  15.814  38.885   4.839
37054W        W 9347   3.764  32.522  12.086
37055W        W 9348   6.917  16.598  11.982
37056W        W 9349  35.477  11.373   4.701
37057W        W 9350  34.887  27.588  10.475
37058W        W 9351   8.859  39.465  14.971
37059W        W 9352  17.677  22.514  11.970
37060W        W 9353  33.933  23.527  11.512
37061W        W 9354   3.906   4.218  11.942
37062W        W 9355  37.900   1.777   1.218
37063W        W 9356  34.479  12.147  14.022
37064W        W 9357  31.038  35.081  14.442
37065W        W 9358  25.479  12.673   0.319
37066W        W 9359  31.475  32.065  10.480
37067W        W 9360   7.683   1.435  10.971
37068W        W 9361  40.941  42.490  11.963
37069W        W 9362  25.549  17.232   3.266
37070W        W 9363  11.766  13.127   3.762
37071W        W 9364   2.780   2.878   2.787
37072W        W 9365   9.392   9.870   0.767
37073W        W 9366  11.775   8.285   2.380
37074W        W 9367  26.539   8.404  10.626
37075W        W 9368  28.470  18.629   4.778
37076W        W 9369   1.475  41.895   2.795
37077W        W 9370  21.722  22.601  11.511
37078W        W 9371  12.241  22.074   0.308
37079W        W 9372  31.580  14.623   1.771
37080W        W 9373  41.351  37.911  10.591
37081W        W 9374  41.026  37.433  11.966
37082W        W 9375  34.968  40.308   4.311
37083W        W 9376  36.028  10.371   3.159
37084W        W 9377  31.434  41.844   1.235
37085W        W 9378  28.105   4.806  11.419
37086W        W 9379  29.122   0.805  14.489
37087W        W 9380  19.777  13.140  11.392
37088W        W 9381  11.216  32.398   0.753
37089W        W 9382  13.141   1.910   9.928
37090W        W 9383  19.665  32.513   1.900
37091W        W 9384  31.440  40.899  12.349
37092W        W 9385   3.822  12.198   3.235
37093W        W 9386  20.081  18.790   3.200
37094W        W 9387   4.929  12.805   0.818
37095W        W 9388  27.586   0.334  13.990
37096W        W 9389   5.779  28.626  10.529
37097W        W 9390   8.765  35.443  11.879
37098W        W 9391  29.992  31.051   2.277
37099W        W 9392  14.163   7.884  13.799
37100W        W 9393   7.771   3.799   2.281
37101W        W 9394  29.639  41.519   0.338
37102W        W 9395  39.344   8.790   4.655
37103W        W 9396   4.738  34.993  11.928
37104W        W 9397  39.006  15.096  12.919
37105W        W 9398  15.269   2.388   3.723
37106W        W 9399  39.559  13.629   0.362
37107W        W 9400  21.087   2.296  12.852
37108W        W 9401  21.700  41.027  10.962
37109W        W 9402   6.246  10.723  10.406
37110W        W 9403  39.402   0.490  11.879
37111W        W 9404  15.296   1.370   2.713
37112W        W 9405  36.033  23.008   2.754
37113W        W 9406  38.343  32.097  12.944
37114W        W 9407   4.240  33.891  12.049
37115W        W 9408  11.791  15.258   4.247
37116W        W 9409  44.434  10.148  12.392
37117W        W 9410  32.453  27.483   0.360
37118W        W 9411  44.375  29.545  14.461
37119W        W 9412  15.780  30.521   9.958
37120W        W 9413  27.142  28.101  13.898
37121W        W 9414  20.581   2.371  13.310
37122W        W 9415  40.868  10.277  11.915
37123W        W 9416  40.442   1.343   4.741
37124W        W 9417  25.492  28.159   4.746
37125W        W 9418  11.313  24.578   1.872
37126W        W 9419   6.330  24.707  12.433
37127W        W 9420   2.830  23.704   1.735
37128W        W 9421  29.118  23.630   1.907
37129W        W 9422  41.023  11.645  10.492
37130W        W 9423  18.721   6.410   9.960
37131W        W 9424   3.852  32.440  12.531
37132W        W 9425  18.218   9.311  10.917
37133W        W 9426  20.604  17.228   4.720
37134W        W 9427   9.256  34.435  13.831
37135W        W 9428  27.068  34.420  13.841
37136W        W 9429  11.858  20.742  13.989
37137W        W 9430  20.253   8.684  11.997
37138W        W 9431  29.665  21.037  10.087
37139W        W 9432  31.996  38.857   2.322
37140W        W 9433  24.723  12.626   4.800
37141W        W 9434  15.755   2.866  10.605
37142W        W 9435  23.600   5.828   3.636
37143W        W 9436  31.040  26.088   0.364
37144W        W 9437  12.264  30.154  11.556
37145W        W 9438  42.371  35.005   1.779
37146W        W 9439  44.490  42.439   1.320
37147W        W 9440  16.640  23.144  11.030
37148W        W 9441  21.241  18.098   4.604
37149W        W 9442  30.064   5.331  12.559
37150W        W 9443  15.612  20.652  10.593
37151W        W 9444   2.735  44.894   3.736
37152W        W 9445  24.003  23.565   2.244
37153W        W 9446  36.569  19.707   3.222
37154W        W 9447  22.548   1.733  11.010
37155W        W 9448  18.562   1.920  11.537
37156W        W 9449   6.841   2.880  11.109
37157W        W 9450  24.688  32.909  12.831
37158W        W 9451  25.701  17.231  14.814
37159W        W 9452  34.415  13.119   1.790
37160W        W 9453  12.292  26.584   2.260
37161W        W 9454  17.205  12.731  11.408
37162W        W 9455  21.545  23.162   0.928
37163W        W 9456  17.649   2.413   0.327
37164W        W 9457  23.108  22.620   3.823
37165W        W 9458  44.793  34.511   4.693
37166W        W 9459  31.429   3.867  12.065
37167W        W 9460  39.381  19.276   1.439
37168W        W 9461  23.227   1.460   1.432
37169W        W 9462  19.721  32.563  11.531
37170W        W 9463  41.869  21.585  14.369
37171W        W 9464   4.786  19.205   5.120
37172W        W 9465  15.634  21.023   9.956
37173W        W 9466  38.968   9.165  11.483
37174W        W 9467  30.922  13.624  14.808
37175W        W 9468  31.968  40.008   4.287
37176W        W 9469  42.878   7.405   2.311
37177W        W 9470  40.983  18.628  10.461
37178W        W 9471  38.518  22.087  11.881
37179W        W 9472  23.627  31.116   2.372
37180W        W 9473  44.400  14.624   1.852
37181W        W 9474  28.570   2.283  11.987
37182W        W 9475  16.138  35.990   4.662
37183W        W 9476  40.458  35.372  10.416
37184W        W 9477  16.754  20.530   0.835
37185W        W 9478  14.613  27.978   2.672
37186W        W 9479  36.001  12.726  11.612
37187W        W 9480  40.028  27.495   3.849
37188W        W 9481  19.629   6.719   0.848
37189W        W 9482  32.427  10.174   9.610
37190W        W 9483  35.438  16.634  11.992
37191W        W 9484  18.649  42.356  10.906
37192W        W 9485  29.618   0.911  11.927
37193W        W 9486  29.515   8.234  12.050
37194W        W 9487  25.586  27.622   1.387
37195W        W 9488  30.515   2.787   2.344
37196W        W 9489  35.944  22.235   2.804
37197W        W 9490  19.597  22.011   2.311
37198W        W 9491  40.994   3.709   2.758
37199W        W 9492  25.182  10.670   1.311
37200W        W 9493  37.058  37.572  14.460
37201W        W 9494   8.746  13.278   4.152
37202W        W 9495  40.808  16.189  13.539
37203W        W 9496  41.529   4.910   5.175
37204W        W 9497  19.665   2.317   4.758
37205W        W 9498   4.907  11.708   0.354
37206W        W 9499  10.319  28.592   1.789
37207W        W 9500  27.504  23.102  14.985
37208W        W 9501  32.400  25.164   1.286
37209W        W 9502  30.603  29.070  13.894
37210W        W 9503  25.604  12.618  14.280
37211W        W 9504   0.938  17.102  10.998
37212W        W 9505  17.299  43.843  10.620
37213W        W 9506  40.332   0.873   2.873
37214W        W 9507   7.239   0.357   3.349
37215W        W 9508  38.048  19.188   1.275
37216W        W 9509  28.018   9.835  10.986
37217W        W 9510  17.692  30.121  14.513
37218W        W 9511  41.350  11.353   4.269
37219W        W 9512  39.864  38.455   4.138
37220W        W 9513  42.926  41.829  14.467
37221W        W 9514  26.951   9.359   4.225
37222W        W 9515   2.419  21.051   1.922
37223W        W 9516  18.731  38.401  11.943
37224W        W 9517  31.648   6.895   3.214
37225W        W 9518  14.282  39.383   1.856
37226W        W 9519   6.226  15.659  14.478
37227W        W 9520   8.828  27.184   1.354
37228W        W 9521  11.707  36.544   2.792
37229W        W 9522  17.587  20.614   3.864
37230W        W 9523  24.221  13.330  12.023
37231W        W 9524   0.778  38.933  12.536
37232W        W 9525   1.468   4.359   2.267
37233W        W 9526  36.515  13.110   1.421
37234W        W 9527   4.940  25.103   4.661
37235W        W 9528  14.321  17.635   1.823
37236W        W 9529  17.664   1.845   1.356
37237W        W 9530  39.457  39.360  14.992
37238W        W 9531  32.008   9.668   2.846
37239W        W 9532   4.305   7.861  10.986
37240W        W 9533  26.115   0.917  12.950
37241W        W 9534  12.259  31.915  13.007
37242W        W 9535   3.271  12.851   2.241
37243W        W 9536  17.766   6.296   0.920
37244W        W 9537   7.387  41.891   2.328
37245W        W 9538  37.378  32.419   2.384
37246W        W 9539  37.477  33.923   4.757
37247W        W 9540  28.442  20.086  12.481
37248W        W 9541  39.959   3.879  14.489
37249W        W 9542  12.720  30.603   2.677
37250W        W 9543  19.262  15.134   0.275
37251W        W 9544  44.788   5.769  11.901
37252W        W 9545  11.810  14.243  10.554
37253W        W 9546  15.813  15.695   0.437
37254W        W 9547  30.942  41.449   2.202
37255W        W 9548  36.410  38.454  14.983
37256W        W 9549   1.240  14.700   4.206
37257W        W 9550  30.437  11.186  13.527
37258W        W 9551  16.769  39.403   2.389
37259W        W 9552  10.702  41.464   0.940
37260W        W 9553  12.824  15.327   1.890
37261W        W 9554  40.809  38.421  12.461
37262W        W 9555  30.131  36.351  11.905
37263W        W 9556  10.727  20.155   0.942
37264W        W 9557  31.444  35.578   1.246
37265W        W 9558  43.430  20.688   0.928
37266W        W 9559  36.090  17.257  12.838
37267W        W 9560  11.707  25.983   2.746
37268W        W 9561   9.670  33.121   3.672
37269W        W 9562   4.703  14.610   3.714
37270W        W 9563  41.530  13.268   4.661
37271W        W 9564   9.819  17.686  12.912
37272W        W 9565  42.937  23.679   4.762
37273W        W 9566  32.043  12.205  12.518
37274W        W 9567  17.142  38.444  13.864
37275W        W 9568  22.192  38.854   1.739
37276W        W 9569  22.219   3.439  13.330
37277W        W 9570  37.443   7.391  13.909
37278W        W 9571  36.557  14.600  14.359
37279W        W 9572  31.943  24.511   1.404
37280W        W 9573  23.577  15.814  10.551
37281W        W 9574   5.771  14.113  13.870
37282W        W 9575   2.945  26.468   4.163
37283W        W 9576  12.684  42.371  10.498
37284W        W 9577  36.518   7.692  11.444
37285W        W 9578  41.475  32.072  14.833
37286W        W 9579  39.817   4.845  11.877
37287W        W 9580  25.153  10.759   3.354
37288W        W 9581  42.945  28.156   4.635
37289W        W 9582  33.015  36.885  11.443
37290W        W 9583  29.079  44.356  12.533
37291W        W 9584  20.589   1.264  12.919
37292W        W 9585  42.491  18.073  14.972
37293W        W 9586  21.081  25.701   4.311
37294W        W 9587  31.933   9.201  13.409
37295W        W 9588  13.274  13.674  14.024
37296W        W 9589   0.416  13.248   0.304
37297W        W 9590  11.759  13.308  13.389
37298W        W 9591   6.713  19.551   4.119
37299W        W 9592  32.467  26.159  13.843
37300W        W 9593  21.091  43.002  14.446
37301W        W 9594   8.671   9.770  13.044
37302W        W 9595  37.420  40.442   2.377
37303W        W 9596   7.668  28.144   4.241
37304W        W 9597   9.300   2.886  10.610
37305W        W 9598  40.473  31.531  13.486
37306W        W 9599  18.681   3.828   4.730
37307W        W 9600   7.198  21.757  14.424
37308W        W 9601  39.482  18.587   0.382
37309W        W 9602  32.113  28.553   4.304
37310W        W 9603   0.328  39.962   4.303
37311W        W 9604  10.210   5.781  14.472
37312W        W 9605  12.301  39.410   0.821
37313W        W 9606  10.730  33.028   3.206
37314W        W 9607  41.963  38.436  13.435
37315W        W 9608  38.919  16.641  13.875
37316W        W 9609   7.278  17.595   3.679
37317W        W 9610  41.405  15.743   1.245
37318W        W 9611  17.597  43.273  11.544
37319W        W 9612  21.178  41.918  13.400
37320W        W 9613  31.057  44.779   4.324
37321W        W 9614  41.881  28.499   4.207
37322W        W 9615  42.982   4.942  13.831
37323W        W 9616   0.888   5.435  11.610
37324W        W 9617  13.289  15.709  11.104
37325W        W 9618  17.655  10.643   1.742
37326W        W 9619  29.154  21.248   1.859
37327W        W 9620  11.830  13.815  12.395
37328W        W 9621  35.539  14.326  13.332
37329W        W 9622  15.198  23.001  12.077
37330W        W 9623  23.141  38.877  11.982
37331W        W 9624  31.132  21.215   4.730
37332W        W 9625  34.040  32.963   4.626
37333W        W 9626  38.841  30.642   3.848
37334W        W 9627  16.689  31.984   0.453
37335W        W 9628  41.463   9.817  12.976
37336W        W 9629  44.368  32.991  10.929
37337W        W 9630  20.531  21.633   2.304
37338W        W 9631  44.426  26.584   4.341
37339W        W 9632  42.381  12.803   0.781
37340W        W 9633  29.028  33.114   0.278
37341W        W 9634   6.293  13.169   2.714
37342W        W 9635  39.831  27.580  11.512
37343W        W 9636  10.244  41.043   4.154
37344W        W 9637  42.428  36.097   9.573
37345W        W 9638  20.753   5.840  10.451
37346W        W 9639  20.547  16.736  12.876
37347W        W 9640  40.991  17.212   0.267
37348W        W 9641  19.216  42.013  12.474
37349W        W 9642  22.550   4.279   0.744
37350W        W 9643  38.950  18.160   3.331
37351W        W 9644  44.373  34.073   5.160
37352W        W 9645  29.669  36.917   0.832
37353W        W 9646   8.228  39.465   4.191
37354W        W 9647  20.532  11.293   3.652
37355W        W 9648   9.276  16.806  14.955
37356W        W 9649  18.565  13.791   4.741
37357W        W 9650  41.824  39.997  13.420
37358W        W 9651  28.662  38.963   0.457
37359W        W 9652  16.180  43.412   3.776
37360W        W 9653  39.890  44.344   5.685
37361W        W 9654  34.481  44.976  13.805
37362W        W 9655  30.121   9.387   0.787
37363W        W 9656   8.221  22.199  12.854
37364W        W 9657  28.943  21.615   2.749
37365W        W 9658  39.056  39.478   0.748
37366W        W 9659  12.770  23.177   0.424
37367W        W 9660   9.170  28.097   1.279
37368W        W 9661  14.295  38.831  12.348
37369W        W 9662  22.024  13.808  11.435
37370W        W 9663  10.699   2.448   0.436
37371W        W 9664  26.468  40.349   2.787
37372W        W 9665  33.525  31.908  11.078
37373W        W 9666  24.687  35.503   4.140
37374W        W 9667  21.651  20.759  13.548
37375W        W 9668  29.940  40.046   4.342
37376W        W 9669  14.786   9.356   4.186
37377W        W 9670  29.472  18.149  12.438
37378W        W 9671  34.541  31.597  13.402
37379W        W 9672  37.452  41.443  14.800
37380W        W 9673   9.339  31.120  11.883
37381W        W 9674  21.699  28.166   4.319
37382W        W 9675  35.958   9.266   0.953
37383W        W 9676  34.089  11.170   3.384
37384W        W 9677  20.705  39.932  14.489
37385W        W 9678  23.004   5.728  13.433
37386W        W 9679  31.953   0.885  10.409
37387W        W 9680  42.437  16.658  11.871
37388W        W 9681   0.343  38.874   3.212
37389W        W 9682   0.349  10.746  12.902
37390W        W 9683  25.631  41.912  12.512
37391W        W 9684  11.140   2.272  11.984
37392W        W 9685  36.083   6.733   3.764
37393W        W 9686  19.678  38.009   4.256
37394W        W 9687  35.530   2.911   1.273
37395W        W 9688  24.630  22.680  13.903
37396W        W 9689  38.510  16.741   4.128
37397W        W 9690  39.037   6.809  13.903
37398W        W 9691  13.840  27.947   2.371
37399W        W 9692  20.619   9.293  12.904
37400W        W 9693  33.418  14.626   1.785
37401W        W 9694  36.383   3.234  10.579
37402W        W 9695  29.440  37.395  12.569
37403W        W 9696  27.461  11.699   4.679
37404W        W 9697  11.838  23.691  12.001
37405W        W 9698  44.867   2.898   1.908
37406W        W 9699  23.570  43.880   2.328
37407W        W 9700  44.500  24.139  13.510
37408W        W 9701  35.913   6.319   0.424
37409W        W 9702   5.821  14.723   2.356
37410W        W 9703  42.435   8.730  13.455
37411W        W 9704  23.664  29.602  14.420
37412W        W 9705  42.023  12.825  12.039
37413W        W 9706  30.524  32.628   4.668
37414W        W 9707  26.670  32.056  10.448
37415W        W 9708  30.945  10.858   3.354
37416W        W 9709  17.143  19.762  14.978
37417W        W 9710  12.246  25.121   4.831
37418W        W 9711  18.066  30.116   0.814
37419W        W 9712  40.978  13.316   4.695
37420W        W 9713  33.121  32.039  13.797
37421W        W 9714  27.640  29.132   0.805
37422W        W 9715  21.193  12.673   1.885
37423W        W 9716  26.468  24.662  11.088
37424W        W 9717   9.695  19.085   1.896
37425W        W 9718  35.021  40.923  13.496
37426W        W 9719   1.939  44.790  11.528
37427W        W 9720   1.907  23.496   0.770
37428W        W 9721  23.117  43.947  14.780
37429W        W 9722  27.602  21.078   1.363
37430W        W 9723  36.060  36.585  14.987
37431W        W 9724  37.553  23.493  14.017
37432W        W 9725  27.119  11.151  11.985
37433W        W 9726  11.760  34.530  10.560
37434W        W 9727   7.189  32.610   3.651
37435W        W 9728   5.211  23.554  13.337
37436W        W 9729  42.992  42.986  10.935
37437W        W 9730   6.268   0.360   4.132
37438W        W 9731  27.061  15.791   3.739
37439W        W 9732  11.682  20.038   1.409
37440W        W 9733  36.995   7.196   3.747
37441W        W 9734  18.107  31.119  10.901
37442W        W 9735  25.630  22.670  13.891
37443W        W 9736   6.842  37.071   4.151
37444W        W 9737  17.245  11.297  12.986
37445W        W 9738  29.999  39.370   4.816
37446W        W 9739  22.044  37.579  13.913
37447W        W 9740  27.445  24.039   0.744
37448W        W 9741  10.292  31.578  12.579
37449W        W 9742  27.011   7.233   3.716
37450W        W 9743  14.139  39.002   1.333
37451W        W 9744  20.634  21.229  10.415
37452W        W 9745   2.368   4.318   2.183
37453W        W 9746  16.170  41.378   5.101
37454W        W 9747  24.579  24.224  10.634
37455W        W 9748   5.933  20.529  11.483
37456W        W 9749  17.558   0.903  13.868
37457W        W 9750  25.208  33.044   0.928
37458W        W 9751   2.786  24.569   0.805
37459W        W 9752  19.719  30.657   5.314
37460W        W 9753   0.774   3.453   2.229
37461W        W 9754   3.273   7.869   1.935
37462W        W 9755  17.750  23.545   4.644
37463W        W 9756  31.482  19.238   4.300
37464W        W 9757  33.508  40.042   3.252
37465W        W 9758  41.941  35.389  11.106
37466W        W 9759  31.116   0.406   3.637
37467W        W 9760  31.080  12.191   1.368
37468W        W 9761  23.540  36.471   1.740
37469W        W 9762   8.366  18.641   2.279
37470W        W 9763   3.341  28.499   1.378
37471W        W 9764   3.735  17.218   4.638
37472W        W 9765   0.451   4.239   1.315
37473W        W 9766   3.847  11.746  14.503
37474W        W 9767  27.079  19.683  11.512
37475W        W 9768  33.934  12.170   0.263
37476W        W 9769  28.658   6.692   3.676
37477W        W 9770  29.984  10.767  10.112
37478W        W 9771   3.907  40.409  10.953
37479W        W 9772  12.664  41.956   1.301
37480W        W 9773   4.829  15.816  14.994
37481W        W 9774  29.060   6.768   4.309
37482W        W 9775   9.170  41.044   2.813
37483W        W 9776   7.698  36.928   2.281
37484W        W 9777  11.300  34.868  12.823
37485W        W 9778  29.436  35.459   2.409
37486W        W 9779   9.771   5.242   0.262
37487W        W 9780  44.318   5.364   3.195
37488W        W 9781  36.452  21.173  11.433
37489W        W 9782  11.187  14.602   3.730
37490W        W 9783  40.465  39.402  12.049
37491W        W 9784  16.755  33.114  10.437
37492W        W 9785  18.568  34.948   1.273
37493W        W 9786  38.864  42.785   1.898
37494W        W 9787  43.424  12.307  13.844
37495W        W 9788  22.034   6.335  11.067
37496W        W 9789  19.165  19.752   3.714
37497W        W 9790  30.563   4.887   2.286
37498W        W 9791  41.407  22.057   2.893
37499W        W 9792  13.627  11.704  13.845
37500W        W 9793  15.775  33.575   1.284
37501W        W 9794  16.249  19.762  13.017
37502W        W 9795  43.388  11.830   0.781
37503W        W 9796   8.166  11.291  14.852
37504W        W 9797  41.977   9.801   1.403
37505W        W 9798  29.670  15.638   4.154
37506W        W 9799  37.074  13.613  11.865
37507W        W 9800  21.585   0.937  14.351
37508W        W 9801   4.880  20.265   2.321
37509W        W 9802  22.618  33.058   1.717
37510W        W 9803  40.818  30.163  11.526
37511W        W 9804   3.841  40.509   1.276
37512W        W 9805  41.826  19.064  10.071
37513W        W 9806  42.488  14.704  10.960
37514W        W 9807   0.755  25.474   4.789
37515W        W 9808  17.286  16.145  13.892
37516W        W 9809  15.085  42.956   3.266
37517W        W 9810  12.174  19.718  13.932
37518W        W 9811  43.443  31.117  11.043
37519W        W 9812   2.355  31.981   3.192
37520W        W 9813   6.692  34.080  10.542
37521W        W 9814   3.457  34.889  14.789
37522W        W 9815   2.766  16.728  14.379
37523W        W 9816   6.784  35.544  10.590
37524W        W 9817  36.016  12.239   1.257
37525W        W 9818   6.285  15.229  13.933
37526W        W 9819  30.078  24.521  12.053
37527W        W 9820  18.665  19.599  11.936
37528W        W 9821  30.987  13.248   1.419
37529W        W 9822  13.775   4.268  14.013
37530W        W 9823  25.988  33.419  13.516
37531W        W 9824   1.823  18.695   3.261
37532W        W 9825   2.451  33.046   4.753
37533W        W 9826  21.635  42.519   2.900
37534W        W 9827  42.502   9.651   1.825
37535W        W 9828  40.860  37.369   3.833
37536W        W 9829  15.800  27.667  12.920
37537W        W 9830   8.819  17.176   0.872
37538W        W 9831  43.295  36.098   2.787
37539W        W 9832  36.388   6.303   4.833
37540W        W 9833  17.563   1.916  13.365
37541W        W 9834  26.023  25.620   4.156
37542W        W 9835  33.413   5.770  10.467
37543W        W 9836  30.013  33.526  12.496
37544W        W 9837  25.657  28.077   9.974
37545W        W 9838   1.409  23.589  12.508
37546W        W 9839  24.201  30.089   0.858
37547W        W 9840  40.921   0.309   2.254
37548W        W 9841  37.347   7.249  14.772
37549W        W 9842  23.734  44.807   1.409
37550W        W 9843  26.959   4.421   0.910
37551W        W 9844   4.362  41.460  11.560
37552W        W 9845  10.706  22.013   2.802
37553W        W 9846   7.286  13.669   0.298
37554W        W 9847  40.988  27.684  14.872
37555W        W 9848   6.390   2.835   0.409
37556W        W 9849  25.194  30.532  13.322
37557W        W 9850   1.409  39.841   1.896
37558W        W 9851  22.141  41.379  14.832
37559W        W 9852   4.332   8.401  12.005
37560W        W 9853  16.284   2.250   3.362
37561W        W 9854   9.677  31.015   2.212
37562W        W 9855  10.804  39.396  12.501
37563W        W 9856   1.277  29.079   0.937
37564W        W 9857  15.726  35.939  10.612
37565W        W 9858  23.993  30.110   4.837
37566W        W 9859  18.060  34.104   5.293
37567W        W 9860   0.858  26.656   1.697
37568W        W 9861  36.084  14.192   1.305
37569W        W 9862  21.689  28.456  11.505
37570W        W 9863  35.866   0.932  12.017
37571W        W 9864  22.588  43.481   4.114
37572W        W 9865   3.739  29.075  13.426
37573W        W 9866  39.424  12.261  11.591
37574W        W 9867  28.930  17.140   2.372
37575W        W 9868  26.567  17.172   0.271
37576W        W 9869   4.447   9.365   2.213
37577W        W 9870  42.345  30.136  14.027
37578W        W 9871  37.964  37.399   5.217
37579W        W 9872  11.666  23.019   2.851
37580W        W 9873  29.923  30.108   1.711
37581W        W 9874   4.347  24.086  14.492
37582W        W 9875  26.579  27.129  13.463
37583W        W 9876  44.864  16.675  10.426
37584W        W 9877  28.655  24.714   2.890
37585W        W 9878   0.289  12.664  11.068
37586W        W 9879  23.702  37.946   1.698
37587W        W 9880  11.221  32.431  13.370
37588W        W 9881  20.101   4.446   4.625
37589W        W 9882  37.349   6.833  11.939
37590W        W 9883   6.383  31.403   0.903
37591W        W 9884  18.670  17.094  12.841
37592W        W 9885  41.534   3.437  14.493
37593W        W 9886  25.106   3.409  10.896
37594W        W 9887  42.524  22.598   3.863
37595W        W 9888   6.678  25.671   4.172
37596W        W 9889  34.370  19.115  10.470
37597W        W 9890   2.886  20.620   0.427
37598W        W 9891  17.290  39.960  14.763
37599W        W 9892  26.601  29.033   0.464
37600W        W 9893  13.757  41.915  10.521
37601W        W 9894   8.390  11.793   3.680
37602W        W 9895  22.124  42.315  14.779
37603W        W 9896  23.241  20.163   4.210
37604W        W 9897   5.918  40.025  10.493
37605W        W 9898  14.266   6.721  12.449
37606W        W 9899  10.724  28.546   0.791
37607W        W 9900  23.231  25.997  14.288
37608W        W 9901   0.416   0.921  13.809
37609W        W 9902  17.669  20.545  12.567
37610W        W 9903  29.973  38.333  13.339
37611W        W 9904  22.064  29.464  14.839
37612W        W 9905   5.800  10.362   4.350
37613W        W 9906  41.814  10.248  11.593
37614W        W 9907   1.391  30.494   1.786
37615W        W 9908  38.042   5.420   3.170
37616W        W 9909   1.785  43.441   0.294
37617W        W 9910  28.530  29.456   3.696
37618W        W 9911  21.535  13.306   0.451
37619W        W 9912  40.812  15.674  12.476
37620W        W 9913  33.614  34.565  11.024
37621W        W 9914  18.761   6.711  13.446
37622W        W 9915  30.128   5.253   4.609
37623W        W 9916  34.580  22.171   0.882
37624W        W 9917  15.087   4.216   5.637
37625W        W 9918  13.205  13.771  11.070
37626W        W 9919  31.509   9.315   4.642
37627W        W 9920  13.802  35.543  10.536
37628W        W 9921  42.003  35.443   0.849
37629W        W 9922  29.535   9.345   5.629
37630W        W 9923  20.712  37.455  10.128
37631W        W 9924   9.690  24.699  11.065
37632W        W 9925  41.319   7.822  13.974
37633W        W 9926  18.581  39.432  12.375
37634W        W 9927   6.309   0.794  14.804
37635W        W 9928  15.693  16.663   0.728
37636W        W 9929   1.923  18.631  10.573
37637W        W 9930  29.432   3.838   0.282
37638W        W 9931   6.395  21.255  13.047
37639W        W 9932  37.487  19.084   3.163
37640W        W 9933  17.758  14.639  10.995
37641W        W 9934  27.589  31.574  11.407
37642W        W 9935  37.002  41.428  14.439
37643W        W 9936  21.107  25.210   1.269
37644W        W 9937  37.886  24.204   3.631
37645W        W 9938  39.971   6.695  11.553
37646W        W 9939  13.675  35.544  11.543
37647W        W 9940  29.470  32.635  11.971
37648W        W 9941  39.480   9.794   1.863
37649W        W 9942  37.920   7.342  14.807
37650W        W 9943  28.121   2.955   4.759
37651W        W 9944   9.691  43.002  14.439
37652W        W 9945  21.600  14.295  10.532
37653W        W 9946  35.030  25.148   1.259
37654W        W 9947  16.122  24.148   3.316
37655W        W 9948  20.036   5.877   2.224
37656W        W 9949   7.173  18.296  10.627
37657W        W 9950  38.452  34.078   4.609
37658W        W 9951   9.367  33.389  12.361
37659W        W 9952  28.074  43.306   4.304
37660W        W 9953  29.131  22.143   3.146
37661W        W 9954  11.319  26.954  14.394
37662W        W 9955  27.168   3.923  10.498
37663W        W 9956  41.919   4.435   2.276
37664W        W 9957   5.341  11.847  11.995
37665W        W 9958  18.277  44.358  10.499
37666W        W 9959  39.956  38.955  13.922
37667W        W 9960  12.209   6.216  11.996
37668W        W 9961  19.246  40.863   1.902
37669W        W 9962   4.422  13.336   3.218
37670W        W 9963   5.283  18.750  11.506
37671W        W 9964   0.875  11.823  12.978
37672W        W 9965  22.591  33.894   3.296
37673W        W 9966   0.836  43.936   4.151
37674W        W 9967  34.521  32.402   3.281
37675W        W 9968   7.875  35.896   9.520
37676W        W 9969  13.331  20.206  12.998
37677W        W 9970  37.854  39.022   3.290
37678W        W 9971  31.100  37.985  12.522
37679W        W 9972  22.056  18.245   0.798
37680W        W 9973  15.600  11.159   1.698
37681W        W 9974  14.795  10.195  10.456
37682W        W 9975  27.126  37.936  13.415
37683W        W 9976  36.430   2.394  12.883
37684W        W 9977   3.335  22.114   3.762
37685W        W 9978   5.738  35.879   2.300
37686W        W 9979  13.619  36.511  13.034
37687W        W 9980  20.162  26.466  12.952
37688W        W 9981  15.706  36.404   1.299
37689W        W 9982  13.687  29.446  14.803
37690W        W 9983  17.636  19.537   3.709
37691W        W 9984  36.857  26.060   0.762
37692W        W 9985  20.036  19.153  13.417
37693W        W 9986  29.134   8.163   0.304
37694W        W 9987   3.394  22.698  13.064
37695W        W 9988  25.103  21.598  12.868
37696W        W 9989  23.183  32.445   3.639
37697W        W 9990  39.360   4.921  10.426
37698W        W 9991  24.975  35.910  14.994
37699W        W 9992  27.071  31.547   4.754
37700W        W 9993  43.986  25.086  12.354
37701W        W 9994   9.718  26.090  12.399
37702W        W 9995  22.558  33.913  10.541
37703W        W 9996  14.780  27.941  13.931
37704W        W 9997  38.376  17.592  13.511
37705W        W 9998  44.480   0.289   5.268
37706W        W 9999  24.145  39.383  13.449
37707W        W10000  28.075   0.347  14.957
37708W        W10001  34.501  38.971   1.872
37709W        W10002  10.844  34.380   1.361
37710W        W10003  21.540  35.859  10.909
37711W        W10004  25.168  13.143  14.508
37712W        W10005   9.788  40.409   1.356
37713W        W10006  41.984  31.489   1.431
37714W        W10007  44.315  34.004  14.832
37715W        W10008   7.371  37.923   1.784
37716W        W10009  26.633   3.346   4.145
37717W        W10010  43.474  25.161   3.365
37718W        W10011  37.982  13.183   3.728
37719W        W10012  41.306  18.081   1.258
37720W        W10013  29.158  28.016   0.444
37721W        W10014  25.081  18.202  13.985
37722W        W10015  38.844  12.151   4.604
37723W        W10016   6.866   9.356  14.937
37724W        W10017  37.843  37.853  14.286
37725W        W10018  44.260  29.924   4.275
37726W        W10019  43.770  17.208   4.816
37727W        W10020  29.174  38.497  14.841
37728W        W10021  36.978  32.394   3.837
37729W        W10022  38.512  14.640   3.736
37730W        W10023  17.240  11.736  10.920
37731W        W10024  27.961  36.381  14.771
37732W        W10025   8.287  39.979   2.893
37733W        W10026  17.690  34.445  10.974
37734W        W10027  43.428  42.872   5.148
37735W        W10028   5.370  15.087   1.830
37736W        W10029  13.635   3.815   5.126
37737W        W10030  22.162   3.910  12.967
37738W        W10031  26.519  40.394   3.641
37739W        W10032  22.616  28.119   0.957
37740W        W10033  31.464  15.280   0.943
37741W        W10034  16.271  31.104  13.828
37742W        W10035  28.507  14.662   2.190
37743W        W10036  40.984  31.530   3.308
37744W        W10037   7.331  26.459  14.019
37745W        W10038  32.886  32.538  13.352
37746W        W10039  41.403  37.386   1.235
37747W        W10040  34.999  27.687   4.248
37748W        W10041  19.715  40.884   1.234
37749W        W10042  35.065   1.280  11.449
37750W        W10043  31.020  15.155   3.191
37751W        W10044  11.266  42.496   4.667
37752W        W10045  36.006   4.840   9.983
37753W        W10046  38.015  21.041   2.760
37754W        W10047  35.452  25.183   5.152
37755W        W10048  14.622   4.759  14.771
37756W        W10049  29.066  39.524   4.759
37757W        W10050  43.318  44.793   1.922
37758W        W10051  32.976   5.350  13.042
37759W        W10052  39.413   8.267   1.316
37760W        W10053  30.630  23.571  13.023
37761W        W10054  25.052  22.535  13.986
37762W        W10055  26.637  19.185  13.340
37763W        W10056  41.340   0.451  10.098
37764W        W10057  15.631  31.956  14.371
37765W        W10058  37.073  10.378   3.839
37766W        W10059  36.549  15.225   2.417
37767W        W10060  40.354   6.265   1.816
37768W        W10061  11.708   4.777   2.780
37769W        W10062  16.074  40.917  12.448
37770W        W10063  41.873  33.897   2.276
37771W        W10064  13.777  29.977  14.903
37772W        W10065  30.499  36.870   1.350
37773W        W10066  21.740  14.635  12.979
37774W        W10067  16.115  43.376   2.681
37775W        W10068  22.181  23.671  10.599
37776W        W10069  12.659   0.430  14.397
37777W        W10070  26.458  12.611   3.161
37778W        W10071  17.153  44.312  14.827
37779W        W10072  39.880  11.151   2.797
37780W        W10073  17.796  43.471   1.427
37781W        W10074  35.999  21.118  12.040
37782W        W10075   4.930  13.253   3.171
37783W        W10076  35.597  27.983   3.386
37784W        W10077  29.500  35.903   4.644
37785W        W10078  11.625  25.490  13.442
37786W        W10079   2.416  28.616   4.179
37787W        W10080  17.611  35.107   2.840
37788W        W10081  41.866  20.226   2.242
37789W        W10082  15.746  32.132  14.924
37790W        W10083  12.335  19.774   0.274
37791W        W10084  35.037  42.465  11.381
37792W        W10085  36.030   4.437   0.396
37793W        W10086  19.165  30.096  14.456
37794W        W10087  39.521  13.682   2.183
37795W        W10088  15.281   3.802  12.071
37796W        W10089  33.564  15.253  11.393
37797W        W10090  38.369  24.552   0.336
37798W        W10091  25.627   8.712   2.215
37799W        W10092  42.779  31.560   3.230
37800W        W10093   0.943  26.975  10.587
37801W        W10094  38.435   9.165   2.308
37802W        W10095  30.416  40.805  13.968
37803W        W10096  36.489  32.481  13.973
37804W        W10097  33.107  29.142   2.869
37805W        W10098  33.616  17.153  10.622
37806W        W10099  43.283  14.167  14.452
37807W        W10100  13.777  15.172   0.882
37808W        W10101  29.963   6.919  13.381
37809W        W10102  20.209  23.145   0.914
37810W        W10103   9.354  27.949   2.685
37811W        W10104   7.412  17.302   3.719
37812W        W10105  29.550  11.271   3.199
37813W        W10106  34.451   4.301  10.625
37814W        W10107  16.722  24.664  12.464
37815W        W10108  10.324  34.016  12.578
37816W        W10109  14.778  36.376   2.662
37817W        W10110  34.408  26.511  14.337
37818W        W10111  44.865   9.832  11.454
37819W        W10112  22.082  34.596  13.382
37820W        W10113   8.375  41.437  11.498
37821W        W10114  19.074  39.921   3.667
37822W        W10115  12.707  22.526  12.418
37823W        W10116  18.737   3.458  11.539
37824W        W10117  35.890  20.712   1.717
37825W        W10118  23.617  30.925  13.333
37826W        W10119  25.511  19.662  12.456
37827W        W10120  43.935  39.425  12.084
37828W        W10121  40.863  42.885  12.028
37829W        W10122   9.769  42.517   3.679
37830W        W10123  36.969  28.681   4.638
37831W        W10124  14.230  24.113  11.598
37832W        W10125   1.771  15.187   3.178
37833W        W10126   2.741   4.847   0.838
37834W        W10127  18.256   1.933   1.848
37835W        W10128  18.585  18.191   2.846
37836W        W10129  26.025  15.596   1.332
37837W        W10130  27.107  44.308  13.421
37838W        W10131  33.022   5.912  10.534
37839W        W10132  11.327  28.015   3.204
37840W        W10133   9.296  12.797   1.293
37841W        W10134  21.630  26.583  11.441
37842W        W10135  22.545  17.706   3.821
37843W        W10136  17.134  22.010   5.317
37844W        W10137  35.978  34.069  13.888
37845W        W10138   3.370  38.420   1.885
37846W        W10139  40.803  27.531   0.367
37847W        W10140  32.462  20.125   3.751
37848W        W10141  41.002  37.562   1.215
37849W        W10142  35.587  28.001  13.896
37850W        W10143  30.455   7.902   5.175
37851W        W10144  20.709  25.208  12.051
37852W        W10145   1.832   3.373   3.693
37853W        W10146   3.234  33.456   3.313
37854W        W10147  29.018  43.327   2.767
37855W        W10148  18.071  25.613  11.592
37856W        W10149  42.778  39.915  11.611
37857W        W10150  42.391  33.560  12.452
37858W        W10151  27.458   5.899   0.396
37859W        W10152  12.162   3.277  11.011
37860W        W10153  20.101   5.793  12.544
37861W        W10154   5.824  29.038  11.999
37862W        W10155  13.614   1.267   5.240
37863W        W10156  13.743  39.894   0.301
37864W        W10157  43.843  38.011  11.934
37865W        W10158  39.011  27.485   3.340
37866W        W10159  23.699   0.284  10.522
37867W        W10160  17.708  44.424  12.992
37868W        W10161  35.981  31.489   0.456
37869W        W10162   5.256  12.853   4.625
37870W        W10163  44.292  41.334   4.737
37871W        W10164  20.044  42.430  14.836
37872W        W10165   4.338  25.049  13.528
37873W        W10166  25.179   2.319   3.308
37874W        W10167  32.498  39.455  13.392
37875W        W10168  29.637   8.804   4.738
37876W        W10169  36.928  25.144  12.983
37877W        W10170  33.950  14.314  11.003
37878W        W10171  11.637   3.385   5.321
37879W        W10172  23.103  28.552   0.266
37880W        W10173  39.548  14.246  14.894
37881W        W10174  19.062  32.626   3.752
37882W        W10175   9.315  34.578  14.459
37883W        W10176  40.032  30.485  13.040
37884W        W10177   9.217  22.247   2.180
37885W        W10178  39.411   3.280  10.903
37886W        W10179  19.719   2.767   1.919
37887W        W10180  40.414  37.521  12.389
37888W        W10181   7.208   1.398   1.786
37889W        W10182  28.643  44.368  13.539
37890W        W10183   4.920  22.045   2.353
37891W        W10184  19.100  34.049   2.239
37892W        W10185  23.199  21.149   1.262
37893W        W10186  24.123  34.430   2.332
37894W        W10187  18.207  37.067  10.456
37895W        W10188   9.880  43.386  14.969
37896W        W10189  17.721  39.530   4.609
37897W        W10190   5.232  26.002  12.003
37898W        W10191  11.256  41.517  13.848
37899W        W10192  34.042  13.837  12.403
37900W        W10193   0.441  24.642   3.815
37901W        W10194   6.832   3.288  14.871
37902W        W10195  33.585   9.186   0.907
37903W        W10196  19.063  43.972   2.366
37904W        W10197  11.859  14.234  10.057
37905W        W10198  29.996   1.345  14.980
37906W        W10199   4.885   5.751   1.254
37907W        W10200  35.545  17.788   3.722
37908W        W10201  35.492   9.678  13.434
37909W        W10202  18.765  22.237   3.250
37910W        W10203  27.491  42.345  13.324
37911W        W10204  26.500  36.843  13.337
37912W        W10205  27.064   4.399   0.397
37913W        W10206  43.933  17.747   5.153
37914W        W10207   9.209   9.805  11.403
37915W        W10208  23.510  18.597   0.482
37916W        W10209  43.353  25.599  10.636
37917W        W10210   2.289  42.809  10.929
37918W        W10211  32.949  22.521   1.757
37919W        W10212   3.710   4.296   1.336
37920W        W10213  39.447  38.934   3.757
37921W        W10214  14.621  17.270  14.396
37922W        W10215  10.879  24.643   4.722
37923W        W10216  44.756  20.138   2.241
37924W        W10217  11.659  13.140  12.093
37925W        W10218  15.162  33.030  13.945
37926W        W10219  42.820  37.859   4.249
37927W        W10220   0.365   0.797  11.031
37928W        W10221  23.518  39.317  10.906
37929W        W10222   0.826  23.127  10.564
37930W        W10223  28.624  24.720  12.962
37931W        W10224  21.515  40.345  10.967
37932W        W10225  11.325  41.931  11.610
37933W        W10226   3.345  32.448  12.859
37934W        W10227   3.738  12.302  10.973
37935W        W10228   6.246  26.681  13.377
37936W        W10229  12.697  39.409   2.866
37937W        W10230   5.802  36.577   0.815
37938W        W10231   3.842   0.894  14.989
37939W        W10232   1.772  13.656  13.367
37940W        W10233  18.113  23.637   3.241
37941W        W10234  27.527   9.207   0.949
37942W        W10235   5.784  41.956  10.936
37943W        W10236  10.663   7.403  14.031
37944W        W10237  32.465  34.001  11.557
37945W        W10238  10.366  14.698  12.451
37946W        W10239  17.246  28.956  13.512
37947W        W10240  32.941  31.599   1.259
37948W        W10241   3.949  22.547   1.788
37949W        W10242  26.014  23.094   0.930
37950W        W10243  37.054  39.441  14.780
37951W        W10244  12.657  13.168   3.854
37952W        W10245   0.313  19.685   2.747
37953W        W10246  16.215  35.935   2.321
37954W        W10247   8.671  44.951   3.332
37955W        W10248  28.485  32.139  12.428
37956W        W10249  22.591  29.169   1.696
37957W        W10250  42.016  30.960  12.440
37958W        W10251  18.755  12.712  14.008
37959W        W10252  39.451   0.313   1.441
37960W        W10253   5.759   6.244   4.242
37961W        W10254  22.539  42.002   1.418
37962W        W10255  44.783  16.228  14.950
37963W        W10256  36.870   9.358   4.231
37964W        W10257  12.849  24.161  13.500
37965W        W10258  12.209   9.388   3.756
37966W        W10259  25.067  34.075   3.825
37967W        W10260  15.803  20.612  11.036
37968W        W10261  16.126   9.720  11.040
37969W        W10262  38.485  35.437  12.539
37970W        W10263  18.185   1.283   1.694
37971W        W10264  26.694  17.747   4.693
37972W        W10265  16.575  37.408  12.381
37973W        W10266  13.259  19.701  11.069
37974W        W10267   8.891  38.003  13.325
37975W        W10268  12.172  44.364   2.866
37976W        W10269  14.653   7.908  14.415
37977W        W10270  15.222  13.719   4.329
37978W        W10271  43.324  31.920   2.298
37979W        W10272  16.302   1.767   2.300
37980W        W10273  29.105  44.879  10.404
37981W        W10274  36.582  44.317   2.717
37982W        W10275  18.269   2.876  11.054
37983W        W10276  41.336   7.837   1.724
37984W        W10277  26.655   8.804   1.742
37985W        W10278   9.387  14.246  14.913
37986W        W10279  35.580  14.698   4.753
37987W        W10280  26.064  39.465  11.129
37988W        W10281   5.222  29.041  10.913
37989W        W10282   0.404  25.154   0.760
37990W        W10283  27.644  22.566   0.765
37991W        W10284  19.121   1.374  13.428
37992W        W10285  41.982  40.421  10.449
37993W        W10286  41.023  14.755  14.971
37994W        W10287  41.928  38.044   0.279
37995W        W10288  11.252  26.069   0.803
37996W        W10289  16.294   5.907  12.031
37997W        W10290  11.255  18.190  11.941
37998W        W10291  16.203  17.688  10.612
37999W        W10292  35.006  40.372   0.360
38000W        W10293  29.173  19.145   2.737
38001W        W10294  39.042  40.961  13.407
38002W        W10295  19.204  33.991  11.548
38003W        W10296  28.608  28.678  13.322
38004W        W10297  13.343  23.507  10.469
38005W        W10298  27.128  14.608   2.294
38006W        W10299  18.181  27.074  14.465
38007W        W10300  18.693   1.315   3.644
38008W        W10301  18.278  21.226   0.367
38009W        W10302  12.826  18.115  14.853
38010W        W10303  11.319  18.094   2.790
38011W        W10304  29.558  22.533   5.672
38012W        W10305  16.258  28.546  10.593
38013W        W10306  31.986  36.501   3.769
38014W        W10307  14.207   2.738  11.088
38015W        W10308   9.367  27.610  13.942
38016W        W10309   3.806  39.053  13.915
38017W        W10310  13.790  41.943  11.462
38018W        W10311  22.604  17.760   2.305
38019W        W10312  24.710  43.437   1.904
38020W        W10313  34.392  27.956   4.247
38021W        W10314  40.410  40.465  13.526
38022W        W10315  21.643  39.333   0.342
38023W        W10316  39.887  30.071   1.797
38024W        W10317   6.393  37.013  10.895
38025W        W10318  26.018   3.795  14.474
38026W        W10319  37.392  18.092  14.976
38027W        W10320   8.373  30.091  11.870
38028W        W10321  17.219   7.723  14.297
38029W        W10322   1.783  17.634  14.351
38030W        W10323   0.746  31.611  14.371
38031W        W10324  24.506  10.257   1.804
38032W        W10325  29.527  21.585   9.509
38033W        W10326  24.684   6.864  12.921
38034W        W10327  22.048  23.686  14.305
38035W        W10328   4.728  24.559   3.234
38036W        W10329  24.001  18.605  13.323
38037W        W10330  10.821  23.184  13.366
38038W        W10331  43.020  29.042   3.774
38039W        W10332  21.136  32.540   5.297
38040W        W10333  35.551   5.834   1.395
38041W        W10334  28.508  21.215  12.871
38042W        W10335  39.961  34.983  12.565
38043W        W10336  33.575   9.209   1.774
38044W        W10337  12.120  24.514  12.987
38045W        W10338  44.399   0.252   0.470
38046W        W10339   5.766  28.077  10.571
38047W        W10340  22.104  40.936  11.083
38048W        W10341   7.738  12.625  13.838
38049W        W10342  36.053  20.629   4.696
38050W        W10343  18.617  36.490  13.803
38051W        W10344  39.004  10.816  14.809
38052W        W10345  22.077  44.290  10.624
38053W        W10346  33.950  42.503   2.264
38054W        W10347  26.971  41.038   0.731
38055W        W10348  37.065  15.277   0.731
38056W        W10349   4.319  26.163  12.526
38057W        W10350  25.712  18.751  13.381
38058W        W10351  44.936  33.100   4.246
38059W        W10352  35.910   9.806  14.335
38060W        W10353  23.053  35.951  12.936
38061W        W10354   3.282  15.819  13.033
38062W        W10355  39.406  28.938  11.031
38063W        W10356   9.288   1.891   2.404
38064W        W10357  14.134   7.351  13.497
38065W        W10358  42.293  11.722   4.259
38066W        W10359  30.100  32.898   1.296
38067W        W10360   7.300  23.693   0.391
38068W        W10361  10.690  42.801   1.280
38069W        W10362  30.508   3.372  10.455
38070W        W10363  10.180  31.443   2.901
38071W        W10364  25.692  44.324  10.104
38072W        W10365  39.388  21.592  12.007
38073W        W10366  33.874  23.567   2.814
38074W        W10367  20.059  27.129  10.582
38075W        W10368  27.559   3.910  11.918
38076W        W10369  21.182  26.538   4.283
38077W        W10370  39.888  18.551  13.910
38078W        W10371  28.956  16.791   0.788
38079W        W10372   1.775  26.486  10.612
38080W        W10373  39.988  43.328   4.126
38081W        W10374  38.394  11.771  11.937
38082W        W10375   3.315  41.467  12.031
38083W        W10376  39.351  37.388  12.405
38084W        W10377  40.907   4.434   2.277
38085W        W10378  24.979  16.784  11.593
38086W        W10379  23.240  26.070   4.620
38087W        W10380  43.799  42.868   1.382
38088W        W10381  11.160  14.156   2.831
38089W        W10382  24.195  22.134  13.408
38090W        W10383   7.713  42.417  14.992
38091W        W10384  41.403  10.773   1.286
38092W        W10385  36.528  28.562  11.608
38093W        W10386  41.378  13.680   2.179
38094W        W10387  13.654  17.615  10.425
38095W        W10388   3.267  44.329  12.860
38096W        W10389  24.134   3.415   2.236
38097W        W10390   7.341  29.015  11.976
38098W        W10391  10.764  21.597   1.447
38099W        W10392  13.215  41.300  12.061
38100W        W10393  16.617   6.831  12.365
38101W        W10394  44.465  28.435   4.715
38102W        W10395  38.023  30.514  13.501
38103W        W10396  11.308  34.930  14.929
38104W        W10397  32.130  17.757   2.794
38105W        W10398  32.965   4.281  12.029
38106W        W10399  35.574  13.676  12.056
38107W        W10400  23.660   9.247  12.430
38108W        W10401  39.497  22.018   3.830
38109W        W10402   5.913   9.844   3.366
38110W        W10403  10.380  28.940  10.946
38111W        W10404   9.692   1.328  11.546
38112W        W10405  43.347  39.901  10.527
38113W        W10406  24.659  13.137  11.519
38114W        W10407   9.889   0.480  12.916
38115W        W10408  32.410  22.619  10.440
38116W        W10409  17.136   2.845   4.772
38117W        W10410   9.228   9.251  14.370
38118W        W10411  15.166  29.133   4.610
38119W        W10412  38.494  11.770  12.415
38120W        W10413  37.018  43.466   2.232
38121W        W10414   9.857  24.631  14.338
38122W        W10415  13.302  40.813   0.903
38123W        W10416   7.812  14.181  14.941
38124W        W10417  10.342  16.608   0.439
38125W        W10418  32.920  36.087   2.302
38126W        W10419  33.386  30.013   1.803
38127W        W10420   9.248  33.582  14.429
38128W        W10421  25.519  26.002   1.385
38129W        W10422   9.804   8.226   2.717
38130W        W10423   3.945  20.266   2.187
38131W        W10424  37.340  33.488  10.426
38132W        W10425  25.552  21.078  10.889
38133W        W10426  16.665  29.612   0.305
38134W        W10427  21.221  32.139   1.734
38135W        W10428  37.381  40.306  11.547
38136W        W10429  10.690  24.494  12.483
38137W        W10430  16.140  28.499  14.923
38138W        W10431  38.960  23.618   2.317
38139W        W10432  41.816  31.121  12.015
38140W        W10433  34.072   7.798   4.747
38141W        W10434  20.763  25.160   2.863
38142W        W10435  26.137  25.098  12.352
38143W        W10436  15.684  44.305   1.285
38144W        W10437   8.867   4.923  14.477
38145W        W10438  20.668   8.326   3.697
38146W        W10439   4.206  11.247  12.085
38147W        W10440   8.339  22.156  10.945
38148W        W10441  10.727  29.546  14.492
38149W        W10442  40.014  39.530  10.623
38150W        W10443   1.899   3.438  13.800
38151W        W10444  26.674  23.167  11.938
38152W        W10445  38.953  41.375  11.072
38153W        W10446  34.504  14.322   2.279
38154W        W10447  42.832  37.082   3.748
38155W        W10448  38.365  11.689  13.894
38156W        W10449  26.580  38.073  11.912
38157W        W10450  19.642  23.733  13.061
38158W        W10451  28.977   5.759  11.898
38159W        W10452  14.310  26.963   4.694
38160W        W10453   7.890   1.467  13.379
38161W        W10454  18.612  27.083  14.497
38162W        W10455  16.667  10.192  14.976
38163W        W10456  41.901  37.579   3.787
38164W        W10457  36.951  27.132   2.834
38165W        W10458   6.839  17.244  12.841
38166W        W10459  38.370  22.099   0.924
38167W        W10460  16.200  33.404   4.235
38168W        W10461  10.360   0.298   1.739
38169W        W10462  41.857  31.959   3.671
38170W        W10463  11.781   7.274   4.780
38171W        W10464  40.422  24.671   1.419
38172W        W10465  18.085  11.319  13.962
38173W        W10466  42.293   4.299   1.279
38174W        W10467  34.550  15.781   1.796
38175W        W10468   9.188  29.494  14.299
38176W        W10469  37.381  27.637   4.160
38177W        W10470  38.326   0.774   2.241
38178W        W10471  44.318  25.691   0.401
38179W        W10472  28.036  26.513  12.507
38180W        W10473  44.356  24.072   4.687
38181W        W10474  23.497  21.618  12.005
38182W        W10475   3.281  21.743  10.525
38183W        W10476  39.831  19.638   2.260
38184W        W10477  17.574  23.088  11.864
38185W        W10478   8.760   3.778   1.759
38186W        W10479  17.106   5.286  13.039
38187W        W10480   5.428  12.650   0.737
38188W        W10481  32.555  28.461   1.342
38189W        W10482  14.323   9.368   0.966
38190W        W10483  12.136   4.417   4.337
38191W        W10484   8.727  41.853   3.843
38192W        W10485  14.834  37.548   2.686
38193W        W10486   5.236   0.450   1.698
38194W        W10487  32.439  38.557   4.645
38195W        W10488  43.282  12.816   3.318
38196W        W10489  21.700   3.430   2.880
38197W        W10490  40.430  14.107  11.871
38198W        W10491  19.073  24.645   0.418
38199W        W10492  18.098  32.105   4.601
38200W        W10493  23.044   0.465  10.510
38201W        W10494  19.285  42.927   3.205
38202W        W10495   2.769   8.871  10.421
38203W        W10496  18.765  44.901  11.126
38204W        W10497  20.675  26.037  11.588
38205W        W10498   6.681  26.688  10.506
38206W        W10499  22.605   3.301   0.381
38207W        W10500  10.877  36.903  13.435
38208W        W10501  39.953   9.174  11.985
38209W        W10502  37.361  29.566   0.830
38210W        W10503   8.364   6.912   1.416
38211W        W10504  12.130   6.285  13.467
38212W        W10505  40.390  21.525  14.791
38213W        W10506   2.366   8.262  13.402
38214W        W10507  19.137  36.560   1.369
38215W        W10508  34.545   7.250   1.253
38216W        W10509   6.871  28.499   2.850
38217W        W10510  25.145   3.906   3.380
38218W        W10511  18.263   3.825   0.402
38219W        W10512   9.806  43.387   1.870
38220W        W10513  14.822   8.857   2.765
38221W        W10514  21.231   9.376   4.764
38222W        W10515   3.310  11.270  13.342
38223W        W10516  36.406   1.949  12.439
38224W        W10517  42.403  43.876  11.034
38225W        W10518  29.174  33.918  12.478
38226W        W10519  16.763   9.869   3.850
38227W        W10520  26.074  15.605  11.510
38228W        W10521  36.471  12.672  12.495
38229W        W10522  35.554   6.389  11.044
38230W        W10523  25.121  25.667   3.698
38231W        W10524  39.919   3.908  14.804
38232W        W10525   4.288   4.815  14.378
38233W        W10526  19.198  30.450   5.717
38234W        W10527  40.354  25.155   1.273
38235W        W10528   5.825  15.133   1.449
38236W        W10529   6.824  13.245   4.728
38237W        W10530  32.014  15.650  13.792
38238W        W10531  16.623  36.009  13.957
38239W        W10532  41.853  19.209  13.978
38240W        W10533   9.289  36.026   9.940
38241W        W10534  16.694  35.950  13.011
38242W        W10535  25.648  34.100  12.361
38243W        W10536   4.928  16.768   0.743
38244W        W10537  29.046  32.087  11.120
38245W        W10538  21.610  16.246  11.371
38246W        W10539   2.903  24.105   1.341
38247W        W10540  44.987   5.385  12.526
38248W        W10541  42.285  22.037  14.281
38249W        W10542   6.243  43.417   1.309
38250W        W10543   1.466  19.650  12.931
38251W        W10544  18.182  24.563   2.717
38252W        W10545  42.437  12.726   3.323
38253W        W10546  10.733  14.799  11.401
38254W        W10547  28.945  11.300  14.803
38255W        W10548  19.223  40.356   0.283
38256W        W10549  36.589  41.403  13.804
38257W        W10550  44.303   3.769  11.867
38258W        W10551  40.878  40.320   4.691
38259W        W10552  41.903   8.171   3.858
38260W        W10553   1.895  37.557   1.439
38261W        W10554  22.016  15.597   2.292
38262W        W10555  40.878  13.799   1.242
38263W        W10556   3.350  33.596  13.474
38264W        W10557  16.255   9.360   2.813
38265W        W10558   6.715  25.597   3.767
38266W        W10559  27.080  42.450   4.688
38267W        W10560  27.577  32.931  10.556
38268W        W10561  35.905   0.840   4.810
38269W        W10562   1.340  28.435  14.353
38270W        W10563   2.723   9.206   3.787
38271W        W10564  26.955   8.813  14.489
38272W        W10565  40.959  41.904   3.705
38273W        W10566  12.800   2.934  10.503
38274W        W10567  37.935   2.935  11.601
38275W        W10568  36.917  24.116   0.250
38276W        W10569  33.988   0.972  10.496
38277W        W10570  31.576  37.895  13.341
38278W        W10571  34.474  10.357  13.394
38279W        W10572   6.306  17.278  14.299
38280W        W10573  18.096  22.724  11.027
38281W        W10574   2.768  29.558  10.891
38282W        W10575  40.951  10.328  14.822
38283W        W10576  38.533  20.250  10.469
38284W        W10577  36.864  35.416  11.590
38285W        W10578  30.533   0.383   3.155
38286W        W10579  18.169   4.873   4.148
38287W        W10580  43.365   1.793   4.678
38288W        W10581  39.989  32.961   4.639
38289W        W10582  10.258  37.996  11.913
38290W        W10583  29.143  18.167  13.915
38291W        W10584   9.308  32.094   4.153
38292W        W10585  12.656  42.517  14.012
38293W        W10586  32.473  34.557  10.546
38294W        W10587  11.791  15.608  14.960
38295W        W10588  11.681  25.991  11.974
38296W        W10589  12.139  27.079   4.172
38297W        W10590  36.451  12.645   4.248
38298W        W10591  35.417  17.298  13.325
38299W        W10592  28.567  13.613   4.628
38300W        W10593  16.614   7.725  14.932
38301W        W10594  13.608   7.186  10.979
38302W        W10595  27.450  29.651   1.260
38303W        W10596  24.041   2.260   0.908
38304W        W10597  37.352  10.648  14.380
38305W        W10598  15.294   1.407   1.738
38306W        W10599  31.441  24.181   2.323
38307W        W10600  35.060  34.889   0.467
38308W        W10601  31.947  18.609  10.486
38309W        W10602  44.778  27.539   4.764
38310W        W10603  17.563  30.073  14.980
38311W        W10604  33.465  21.722  10.433
38312W        W10605  21.256  24.481  13.369
38313W        W10606   1.765   4.320   2.674
38314W        W10607  33.020  28.176   2.284
38315W        W10608  16.744  13.143  13.359
38316W        W10609  24.675   4.848   0.965
38317W        W10610  43.384  16.097  13.467
38318W        W10611  23.573  33.018   4.122
38319W        W10612  29.163  42.796   1.849
38320W        W10613   0.862  21.019  11.888
38321W        W10614  27.615   8.846  12.497
38322W        W10615   1.322  33.542   4.352
38323W        W10616  20.608  31.535   1.819
38324W        W10617  39.410  21.671  13.040
38325W        W10618  39.002  19.088  14.376
38326W        W10619  34.063  21.162  11.121
38327W        W10620  14.202   2.839  14.386
38328W        W10621  34.918  24.159  12.387
38329W        W10622  35.940  31.914  12.877
38330W        W10623  41.913  24.214   4.198
38331W        W10624  30.047  31.599   3.146
38332W        W10625   2.280  40.033  10.073
38333W        W10626  39.449  20.658   4.184
38334W        W10627  44.460   1.324  11.418
38335W        W10628  37.536  22.247   3.295
38336W        W10629   2.414  32.050   4.181
38337W        W10630  44.803  12.711  12.522
38338W        W10631  10.856  30.953   3.207
38339W        W10632  24.559   5.797   2.874
38340W        W10633   9.340   6.354  12.852
38341W        W10634  21.131  42.327   4.332
38342W        W10635  12.190  13.812  13.442
38343W        W10636  27.098  10.325  11.875
38344W        W10637  21.651   9.768  10.913
38345W        W10638  35.442  21.207  13.055
38346W        W10639   5.794  30.132   4.756
38347W        W10640  25.676   5.835   0.456
38348W        W10641   9.315   3.923  11.881
38349W        W10642   5.799  13.178  13.324
38350W        W10643  28.180   4.299  12.998
38351W        W10644  42.890  20.604   1.410
38352W        W10645  29.449  17.290   5.255
38353W        W10646  35.880   7.312  13.849
38354W        W10647  30.125  40.360   0.277
38355W        W10648  25.469  12.666   1.703
38356W        W10649   3.281  34.514  10.995
38357W        W10650  32.524  19.577  11.475
38358W        W10651   2.924  14.640   1.774
38359W        W10652  20.571  37.491  11.597
38360W        W10653   1.961  42.023  12.548
38361W        W10654   5.387  39.929   2.890
38362W        W10655   4.767  34.607   5.232
38363W        W10656  27.176   4.826  11.389
38364W        W10657  15.710   2.441  11.071
38365W        W10658  40.340  39.556   3.205
38366W        W10659  39.540   7.749  11.446
38367W        W10660  24.502  15.102  12.506
38368W        W10661  39.469  36.420  10.638
38369W        W10662  42.858   2.781   3.779
38370W        W10663   4.381  26.630   3.201
38371W        W10664  18.604  27.063   0.277
38372W        W10665   9.161  31.634   4.720
38373W        W10666  41.509   3.325  11.049
38374W        W10667  27.968  28.077  11.546
38375W        W10668  15.186  14.728  11.920
38376W        W10669  43.799   7.801  13.970
38377W        W10670  30.121  40.549  12.416
38378W        W10671   5.870  44.850   0.842
38379W        W10672  36.568  24.001   4.694
38380W        W10673  10.188  29.946   2.792
38381W        W10674  23.590   5.848   4.158
38382W        W10675   7.736   8.779   0.310
38383W        W10676  27.605  22.665   2.786
38384W        W10677  13.614  18.181   4.616
38385W        W10678  26.166  44.379   3.152
38386W        W10679  16.753  44.351  13.864
38387W        W10680  30.102  21.685   4.723
38388W        W10681  36.880  34.374   4.226
38389W        W10682  39.399  36.945  14.843
38390W        W10683  42.944  27.562   1.254
38391W        W10684  42.937  37.905   1.273
38392W        W10685  33.027   2.802   2.811
38393W        W10686  40.916  41.920  13.854
38394W        W10687  10.335  36.411  10.597
38395W        W10688   7.171  19.101   2.864
38396W        W10689  30.030   2.440   4.194
38397W        W10690  28.074   9.171  11.066
38398W        W10691  22.730  34.568   9.979
38399W        W10692  26.125  12.766  14.880
38400W        W10693   5.283  24.146   4.733
38401W        W10694   2.348   4.247   0.957
38402W        W10695  24.721  13.348   4.314
38403W        W10696  28.486  35.050  13.492
38404W        W10697  18.176  22.063   0.812
38405W        W10698  22.685   6.766  12.490
38406W        W10699  29.938  25.569   4.179
38407W        W10700  44.482   3.897   4.313
38408W        W10701  43.857  20.051  12.408
38409W        W10702  44.877  39.927  14.392
38410W        W10703  40.420  17.273   2.315
38411W        W10704  28.953  24.708  14.285
38412W        W10705   4.739   3.282  14.827
38413W        W10706  23.005  26.028  12.447
38414W        W10707   8.737  18.257   3.660
38415W        W10708   0.489   6.200   3.783
38416W        W10709  32.576  21.533  14.335
38417W        W10710  29.016   5.363   3.309
38418W        W10711  19.540  13.837   0.425
38419W        W10712  18.178  34.421  11.045
38420W        W10713  28.045  20.700  14.274
38421W        W10714  12.179  13.265  14.421
38422W        W10715  43.910  25.663  11.454
38423W        W10716  30.163  29.462  13.886
38424W        W10717  24.016  18.680  12.996
38425W        W10718  20.522   2.906   0.851
38426W        W10719  17.162  23.600   5.129
38427W        W10720  33.449   3.846  11.396
38428W        W10721  37.050  44.454  10.911
38429W        W10722  34.881  23.562  14.391
38430W        W10723  25.100   7.872   4.154
38431W        W10724  26.011  17.176  13.337
38432W        W10725   2.231  42.975  10.577
38433W        W10726  21.688   6.726  11.967
38434W        W10727   6.308  11.728   2.834
38435W        W10728  41.794  29.031   1.876
38436W        W10729  38.534  14.759  13.900
38437W        W10730  33.106  23.140   4.308
38438W        W10731  19.740  12.783   2.199
38439W        W10732  40.888  17.714  10.027
38440W        W10733   0.884  44.355  11.921
38441W        W10734  33.043  33.050  12.854
38442W        W10735  24.635  30.538  14.970
38443W        W10736  34.431  36.505  14.024
38444W        W10737  42.957  29.592   1.390
38445W        W10738  28.679  26.632  10.578
38446W        W10739   1.734  25.068   1.238
38447W        W10740  20.185  32.622   2.326
38448W        W10741   5.276   5.383   0.873
38449W        W10742   3.878  26.554  10.444
38450W        W10743   6.828  21.566   1.901
38451W        W10744  20.528  31.944   0.778
38452W        W10745  11.175  13.156   3.180
38453W        W10746  12.747  12.302  12.840
38454W        W10747   7.345  16.160  11.921
38455W        W10748  27.146  41.427   2.373
38456W        W10749   6.825   9.322   2.710
38457W        W10750  10.868  20.636  12.537
38458W        W10751   6.213  12.802   3.310
38459W        W10752   4.722  28.454   3.319
38460W        W10753  34.034  34.965  12.986
38461W        W10754  11.248  41.345  14.458
38462W        W10755  33.562  27.044  14.981
38463W        W10756  26.204  22.652   0.763
38464W        W10757  20.265   2.847   0.962
38465W        W10758  17.135   9.823   3.175
38466W        W10759   2.736  15.593   2.414
38467W        W10760   0.810  18.761  14.813
38468W        W10761   4.248   4.238  13.892
38469W        W10762  21.749  30.070   0.730
38470W        W10763  40.905  10.752   2.795
38471W        W10764  32.060  25.162   1.707
38472W        W10765  21.561  12.174   2.345
38473W        W10766  14.269  29.172   0.889
38474W        W10767   2.440  30.437  14.470
38475W        W10768  35.433  44.878   0.394
38476W        W10769  25.667  23.522  11.011
38477W        W10770  14.273  29.013  10.627
38478W        W10771  40.028  41.384  12.935
38479W        W10772  20.215   1.322  13.445
38480W        W10773  13.805   1.429  11.475
38481W        W10774  34.525  29.084  11.597
38482W        W10775   8.818  14.169  14.759
38483W        W10776  18.177   4.333   4.793
38484W        W10777  35.102  16.176   4.325
38485W        W10778  21.517   0.978  11.984
38486W        W10779  38.475   6.326   4.621
38487W        W10780  12.336  38.448   1.725
38488W        W10781   6.308   0.282   1.855
38489W        W10782  20.562  44.827   0.787
38490W        W10783  18.086  10.691  11.588
38491W        W10784  18.151   9.384  14.985
38492W        W10785  31.442  24.178  13.444
38493W        W10786  40.860  42.945   2.819
38494W        W10787   9.203  36.483  11.882
38495W        W10788   1.887  33.617  11.956
38496W        W10789  10.325  20.245  14.490
38497W        W10790   6.690  17.212   0.269
38498W        W10791  42.292  30.578   3.324
38499W        W10792  27.493  22.099  10.495
38500W        W10793  13.310  28.650  12.942
38501W        W10794   4.746  29.144   4.332
38502W        W10795  33.055  31.475   1.822
38503W        W10796  20.040  23.209   3.734
38504W        W10797   2.376  44.772  11.898
38505W        W10798  36.490  22.617   4.157
38506W        W10799   1.775  31.011   3.203
38507W        W10800   2.864  35.401  12.458
38508W        W10801  32.512  12.652  14.911
38509W        W10802  14.266  37.916  11.878
38510W        W10803  27.120  24.110  13.941
38511W        W10804  35.572  20.069   2.705
38512W        W10805  12.662   7.898   4.236
38513W        W10806  35.999  42.836  10.494
38514W        W10807  38.004  36.566  10.429
38515W        W10808   6.747  10.378  12.824
38516W        W10809  23.103  16.607   0.919
38517W        W10810  12.315   4.769   1.295
38518W        W10811   6.213  44.344  12.917
38519W        W10812   6.751   5.435  11.915
38520W        W10813  25.505  17.797  14.393
38521W        W10814  19.585  31.431  13.451
38522W        W10815  20.143  27.565  12.009
38523W        W10816  34.568  32.130  11.394
38524W        W10817  21.569  44.990   2.731
38525W        W10818  12.253  42.806  12.074
38526W        W10819  34.081   1.922   1.803
38527W        W10820  14.208  38.913   2.675
38528W        W10821   8.211  21.752   2.663
38529W        W10822  43.881   2.377   2.822
38530W        W10823  37.013  18.186   4.175
38531W        W10824  19.635   6.771  13.376
38532W        W10825  16.724  20.216   1.840
38533W        W10826  25.135  12.729  10.641
38534W        W10827  30.043   4.727  13.900
38535W        W10828  27.045  42.336  10.482
38536W        W10829  25.574  14.173   0.745
38537W        W10830   2.281  32.434   1.363
38538W        W10831  26.573  20.137   4.216
38539W        W10832  16.676   9.685   3.332
38540W        W10833  17.146  20.176   0.296
38541W        W10834  31.518  15.214  13.960
38542W        W10835  11.194  36.950  13.311
38543W        W10836  21.143  29.126   2.260
38544W        W10837  41.385   1.403   3.295
38545W        W10838  42.799  35.925   1.935
38546W        W10839  44.798  21.168  14.492
38547W        W10840  23.190  17.267   1.311
38548W        W10841  19.547   2.917   1.320
38549W        W10842  35.975  13.272   0.401
38550W        W10843  42.296  34.472  14.373
38551W        W10844  39.922  12.305  10.994
38552W        W10845  14.655  18.597  10.926
38553W        W10846   5.889  16.645   2.683
38554W        W10847   5.827  31.509   1.445
38555W        W10848  19.594  43.793  10.487
38556W        W10849  35.009  26.572   5.317
38557W        W10850  21.184  12.639  14.371
38558W        W10851   3.807  18.755  12.953
38559W        W10852  18.595  23.188  10.414
38560W        W10853  40.536   3.833  12.445
38561W        W10854  20.606  43.844   3.288
38562W        W10855  44.388   4.342  12.891
38563W        W10856  10.853  21.205  13.970
38564W        W10857   2.274  16.614  13.349
38565W        W10858  37.042  26.164  14.028
38566W        W10859  18.085  40.469   4.806
38567W        W10860  41.855   2.856  14.386
38568W        W10861   3.252   4.922   4.835
38569W        W10862  17.307  38.022  12.473
38570W        W10863  15.102  10.294  14.976
38571W        W10864  11.808  32.551  11.552
38572W        W10865  18.177  15.656  14.762
38573W        W10866  13.642  21.252   2.767
38574W        W10867  27.050   0.454  10.624
38575W        W10868  26.990  34.532  10.948
38576W        W10869  12.751  26.055  12.079
38577W        W10870  41.947  23.105  12.032
38578W        W10871  16.798  40.329  14.833
38579W        W10872   4.826   4.254   3.374
38580W        W10873  12.671  43.992  12.353
38581W        W10874  22.242  31.482  13.821
38582W        W10875  29.056  13.177  11.125
38583W        W10876   6.844  26.646  11.983
38584W        W10877  17.225   1.832   3.742
38585W        W10878  37.393  13.795  13.421
38586W        W10879  37.079  11.188  13.457
38587W        W10880  10.870   8.667   5.250
38588W        W10881  40.952  10.690  11.951
38589W        W10882   5.748  30.616   3.802
38590W        W10883  10.184  30.053  13.978
38591W        W10884  31.906  11.806   4.835
38592W        W10885  29.572  42.376   3.309
38593W        W10886   1.266  19.557   0.913
38594W        W10887  30.002  40.350   2.747
38595W        W10888   9.257   6.427   4.340
38596W        W10889  33.571  23.095   1.426
38597W        W10890  38.480  11.290  11.443
38598W        W10891   0.301  41.932   2.321
38599W        W10892  35.571   0.927   1.731
38600W        W10893  12.762  31.974   4.714
38601W        W10894  21.161  27.467   0.363
38602W        W10895  36.927   0.457   2.267
38603W        W10896   5.349   7.836  11.967
38604W        W10897  13.769  14.694  11.409
38605W        W10898  27.942  43.876   3.790
38606W        W10899  15.235  25.563   3.340
38607W        W10900  40.501  14.150   4.664
38608W        W10901   2.270  12.118   0.435
38609W        W10902  17.633  15.110   1.240
38610W        W10903  28.579  16.307  12.348
38611W        W10904  40.006  15.088  11.979
38612W        W10905  28.469  19.667   4.700
38613W        W10906   6.829   5.893   1.411
38614W        W10907   0.356  39.498   0.869
38615W        W10908  38.351  12.724   0.439
38616W        W10909   6.421  16.080   1.792
38617W        W10910   2.905  35.599  14.829
38618W        W10911  14.801  17.587  12.350
38619W        W10912  35.949   5.232   2.881
38620W        W10913   8.247   5.326   0.761
38621W        W10914   2.793   1.757   1.273
38622W        W10915  24.013  32.095   1.778
38623W        W10916  26.061  25.110   0.415
38624W        W10917  38.003  21.135  13.494
38625W        W10918  26.162  19.594   2.741
38626W        W10919  39.941  34.095  12.461
38627W        W10920  22.624  14.338  14.371
38628W        W10921  10.701   6.296  12.920
38629W        W10922  38.330  20.712  12.418
38630W        W10923  33.487  13.811   0.354
38631W        W10924  36.964  36.977  11.506
38632W        W10925   0.261  26.591   0.964
38633W        W10926  17.574  36.424  13.330
38634W        W10927  12.314  19.629   2.260
38635W        W10928  34.075  38.869   0.419
38636W        W10929  29.942  36.552   3.208
38637W        W10930  34.510  18.569   3.167
38638W        W10931  35.452  35.591  12.568
38639W        W10932  31.072  11.669  10.003
38640W        W10933  16.117  16.247  14.831
38641W        W10934  38.860  20.577   5.212
38642W        W10935   7.898  38.450   0.772
38643W        W10936  35.442  34.938  11.900
38644W        W10937  34.545   2.341  11.495
38645W        W10938  16.206   8.868  11.104
38646W        W10939  25.134  40.355   0.286
38647W        W10940  31.447  43.357  13.504
38648W        W10941   4.789   0.886   0.366
38649W        W10942  15.811  41.824  13.383
38650W        W10943  34.994  24.086   1.792
38651W        W10944  29.003  39.522  12.039
38652W        W10945  43.342   4.359   0.775
38653W        W10946  41.338   4.306   3.199
38654W        W10947  28.586  20.726   0.256
38655W        W10948  20.641  42.312   4.208
38656W        W10949  24.090  17.794  11.519
38657W        W10950   4.723  29.032  11.973
38658W        W10951  31.593  24.661  11.406
38659W        W10952  32.108   1.361   4.211
38660W        W10953   5.898   4.871  13.537
38661W        W10954  28.020  36.080  10.434
38662W        W10955  42.428  33.068  14.379
38663W        W10956  12.152   4.356  12.007
38664W        W10957   1.896  14.326   2.355
38665W        W10958   2.752  43.975  10.906
38666W        W10959  34.572   7.890  13.914
38667W        W10960   6.276  41.982  11.030
38668W        W10961  33.089   7.379  10.454
38669W        W10962  42.969  23.086  14.414
38670W        W10963   9.648  35.464  13.864
38671W        W10964  19.147  34.058  12.898
38672W        W10965  44.279  42.508  11.106
38673W        W10966  10.279   6.425  14.830
38674W        W10967  15.325   4.840  14.440
38675W        W10968  30.940   3.436   2.687
38676W        W10969   1.977   2.733  14.282
38677W        W10970   1.892  28.060   1.333
38678W        W10971  39.984  28.157   3.864
38679W        W10972  35.538   9.686   4.173
38680W        W10973   4.728  38.968   1.828
38681W        W10974  30.162  17.646   1.764
38682W        W10975  20.236   9.282  14.387
38683W        W10976  37.088  10.734   0.847
38684W        W10977  14.247  30.511   0.413
38685W        W10978  32.017  32.139  14.780
38686W        W10979  27.608  29.966   2.717
38687W        W10980  22.594  27.021  13.966
38688W        W10981  34.922   3.709   2.737
38689W        W10982  43.401  31.914  10.927
38690W        W10983  15.789   3.728  13.047
38691W        W10984  28.566  13.776  12.413
38692W        W10985  15.195  22.008   1.876
38693W        W10986  19.203  41.921   1.914
38694W        W10987  33.040  40.055   1.733
38695W        W10988  13.158  44.454   2.851
38696W        W10989  10.227  11.629   9.942
38697W        W10990   1.881  19.170   3.866
38698W        W10991   3.797  30.055   0.821
38699W        W10992  10.665  40.960   0.371
38700W        W10993  12.644  22.997   1.776
38701W        W10994   2.808  38.564   3.383
38702W        W10995  10.799  38.428  11.859
38703W        W10996  22.145   0.838   1.284
38704W        W10997   1.836  17.603   4.118
38705W        W10998   1.251   2.380  11.395
38706W        W10999  17.650  11.198   1.268
38707W        W11000  24.043  12.634   2.297
38708W        W11001   4.424  19.161   4.355
38709W        W11002  24.715  39.535   4.170
38710W        W11003  32.016   4.756   3.651
38711W        W11004  17.066  19.639  12.056
38712W        W11005   7.811  13.198  11.376
38713W        W11006   4.386  30.482  11.937
38714W        W11007  22.547  10.145   4.333
38715W        W11008  33.542   3.375  13.371
38716W        W11009   3.337  44.296   1.432
38717W        W11010  31.118  33.384  10.488
38718W        W11011   6.235  19.079  12.422
38719W        W11012   1.875  18.085  11.962
38720W        W11013  34.377  10.217   3.835
38721W        W11014  17.273  31.591   1.723
38722W        W11015   0.952  38.436  10.601
38723W        W11016  26.484  40.359  12.550
38724W        W11017  19.245  42.433  14.868
38725W        W11018  42.449  13.762   0.817
38726W        W11019  18.571  38.932  13.968
38727W        W11020  26.631  35.967   2.214
38728W        W11021  18.638  19.769  10.034
38729W        W11022  32.951  22.244   2.804
38730W        W11023  13.794  27.544   1.891
38731W        W11024  21.089  32.074   2.334
38732W        W11025  15.719  21.705   0.347
38733W        W11026  31.993  21.556  14.801
38734W        W11027  16.089  19.593   1.811
38735W        W11028  42.824  28.177   0.830
38736W        W11029  38.978  25.598  13.484
38737W        W11030  43.009  19.744   1.299
38738W        W11031  39.467   5.870   1.316
38739W        W11032  30.459  22.576   3.673
38740W        W11033  17.713  43.412   1.806
38741W        W11034  33.427  42.470   2.307
38742W        W11035  17.195  15.794   3.636
38743W        W11036  39.451   1.354   2.839
38744W        W11037  28.048  18.545  12.898
38745W        W11038   2.396  10.655   3.781
38746W        W11039  14.748   4.702   2.415
38747W        W11040  20.655  21.219   4.259
38748W        W11041  11.164  19.050  13.973
38749W        W11042  38.497  23.695  12.453
38750W        W11043  21.190  36.509   0.338
38751W        W11044  43.416  35.096   3.300
38752W        W11045  28.009  32.464  12.853
38753W        W11046  33.128   8.192   5.289
38754W        W11047  44.921  10.181  10.502
38755W        W11048  26.009   3.294  10.952
38756W        W11049  42.870  18.763   1.413
38757W        W11050  10.363  42.454   4.136
38758W        W11051  27.119   3.876   0.841
38759W        W11052   7.744  33.487   1.757
38760W        W11053   8.803  41.821   0.464
38761W        W11054  42.957  43.820   4.327
38762W        W11055  36.058  20.759  14.362
38763W        W11056  30.620   7.284   4.671
38764W        W11057  32.076   7.686  13.945
38765W        W11058  16.291  41.513   0.478
38766W        W11059  41.794   0.357   2.362
38767W        W11060  19.759  30.494  10.092
38768W        W11061   4.926  35.592   4.795
38769W        W11062   8.847  11.235  14.368
38770W        W11063   5.901  26.464  12.907
38771W        W11064  22.680  27.988   1.295
38772W        W11065   9.721  37.465  14.282
38773W        W11066  10.160   1.350   3.279
38774W        W11067  36.859  18.120  13.516
38775W        W11068  33.625  28.068  12.031
38776W        W11069  11.341  35.872   1.235
38777W        W11070  30.070  22.016   3.182
38778W        W11071  13.202   8.730  11.012
38779W        W11072  31.016  33.561  13.877
38780W        W11073  43.413   8.374   3.293
38781W        W11074  32.043   6.245   4.685
38782W        W11075   8.862  40.443   3.338
38783W        W11076  31.067  39.032  12.408
38784W        W11077  32.556  15.698  13.480
38785W        W11078  42.945  10.151  11.533
38786W        W11079  19.559  37.887   0.372
38787W        W11080  34.064  44.376   1.447
38788W        W11081   2.345  33.457  11.472
38789W        W11082   5.238  21.758  11.480
38790W        W11083  43.951   5.763  10.441
38791W        W11084  13.188  21.226   3.814
38792W        W11085  12.201  18.752  12.835
38793W        W11086  30.909  23.724  12.962
38794W        W11087  13.193   2.412   4.626
38795W        W11088  11.309  44.817   2.290
38796W        W11089  26.470  25.000  12.565
38797W        W11090  35.097  35.413   4.739
38798W        W11091  42.467  33.917  12.046
38799W        W11092  31.489  16.733  12.579
38800W        W11093  14.149   6.214   4.644
38801W        W11094  34.115  36.434   4.227
38802W        W11095   6.377  22.550  12.066
38803W        W11096  13.835  13.338  10.609
38804W        W11097  10.660   7.882   1.228
38805W        W11098  44.915  44.488   4.332
38806W        W11099  38.514  39.391   3.148
38807W        W11100  28.655  23.185  13.886
38808W        W11101  30.053  20.610   2.792
38809W        W11102  37.364  32.546  14.958
38810W        W11103  24.555   1.452  11.908
38811W        W11104  11.135  40.430  14.010
38812W        W11105  13.173   6.365   3.232
38813W        W11106  32.572  27.181  12.000
38814W        W11107   0.933  10.841  11.459
38815W        W11108   0.939  28.482   4.176
38816W        W11109  35.515  14.813  13.924
38817W        W11110  23.191  37.548  13.888
38818W        W11111  13.728  40.936  11.572
38819W        W11112  22.059  24.999  13.893
38820W        W11113  33.036  10.200  14.827
38821W        W11114   4.766   9.263  12.384
38822W        W11115  14.323  44.500   5.166
38823W        W11116  26.187   2.418   1.221
38824W        W11117  28.625  11.688   3.270
38825W        W11118  16.655   9.716  14.768
38826W        W11119  22.167  11.655   1.370
38827W        W11120  18.212  36.889  14.316
38828W        W11121  12.159  38.483   1.411
38829W        W11122   9.752  11.740  14.504
38830W        W11123  18.652  14.252   4.627
38831W        W11124   2.726  11.705   4.331
38832W        W11125  38.368   5.709  14.489
38833W        W11126  21.643  23.676   0.475
38834W        W11127  21.714   4.914  13.018
38835W        W11128   3.760  25.532  13.036
38836W        W11129   7.862  40.798  14.411
38837W        W11130  40.856  14.114  12.421
38838W        W11131  25.679   9.667   2.842
38839W        W11132  42.311  21.723  10.525
38840W        W11133  11.833  18.697   4.190
38841W        W11134   3.259  27.644   2.751
38842W        W11135  15.095   4.943   4.781
38843W        W11136   7.676  20.585  10.516
38844W        W11137  18.155   5.798  14.933
38845W        W11138  25.183  34.377  10.934
38846W        W11139   1.757  31.591  12.513
38847W        W11140   8.799  21.592  12.875
38848W        W11141  11.331   3.294   2.869
38849W        W11142  13.604  44.450   4.251
38850W        W11143  18.065   9.250  10.545
38851W        W11144  12.243  29.081  11.420
38852W        W11145  11.709  32.398   3.305
38853W        W11146   0.977  26.511  11.856
38854W        W11147  43.769   0.302  13.394
38855W        W11148  18.785  34.448  13.384
38856W        W11149   4.229  14.777   2.676
38857W        W11150  21.164  37.890   1.791
38858W        W11151  12.278  35.916  13.479
38859W        W11152  22.137  41.852  12.993
38860W        W11153  12.794  14.189   2.867
38861W        W11154  15.144  19.146  12.027
38862W        W11155  17.163  26.017  12.469
38863W        W11156   8.863  42.338   0.277
38864W        W11157  28.078  17.164   5.289
38865W        W11158  23.560  12.129   0.902
38866W        W11159  18.149  21.621  10.140
38867W        W11160   5.749  25.626  14.766
38868W        W11161  16.567  42.527   4.606
38869W        W11162   1.259  22.239   4.178
38870W        W11163  13.601  21.571   2.899
38871W        W11164  38.361  19.691  11.553
38872W        W11165  17.076  33.404   3.263
38873W        W11166   2.822   3.886   3.324
38874W        W11167  19.208  37.488  11.551
38875W        W11168  17.593  18.296   2.754
38876W        W11169  43.489  16.579  12.479
38877W        W11170  10.145  28.006  12.883
38878W        W11171  39.916  43.919  11.931
38879W        W11172  24.198  43.365   3.688
38880W        W11173  42.429  37.869  12.492
38881W        W11174   9.650   7.323   1.843
38882W        W11175  33.032   1.879  13.309
38883W        W11176  29.113   6.784   3.327
38884W        W11177  22.698   7.856  14.975
38885W        W11178  29.154   7.789  12.396
38886W        W11179  31.932  37.412  10.478
38887W        W11180  31.488  18.174   4.120
38888W        W11181  28.506  18.205  11.386
38889W        W11182  13.631   7.854   0.249
38890W        W11183  22.109   1.927   2.672
38891W        W11184  27.948  24.603   1.738
38892W        W11185  26.183  12.616   0.726
38893W        W11186  15.295  18.753   4.604
38894W        W11187  19.565  32.138   1.884
38895W        W11188  30.573  30.538  12.577
38896W        W11189  18.257  41.980  10.450
38897W        W11190  22.094  27.956  13.959
38898W        W11191   4.351  13.611  14.879
38899W        W11192   4.228  16.619  11.937
38900W        W11193  38.365  11.344  12.029
38901W        W11194   6.253  29.450   5.182
38902W        W11195  22.703   9.792  11.078
38903W        W11196  43.928  37.004  12.083
38904W        W11197  35.389  18.702  13.062
38905W        W11198   4.437  12.727  13.499
38906W        W11199   7.819  35.558   3.166
38907W        W11200  35.101   8.889   0.952
38908W        W11201   8.688  41.794   1.381
38909W        W11202   0.290   1.747   0.480
38910W        W11203   0.301  37.468  14.305
38911W        W11204  43.321  13.665   4.203
38912W        W11205  23.048  22.199  13.041
38913W        W11206  29.981  34.069  14.335
38914W        W11207  19.738  33.518   5.128
38915W        W11208  27.020  23.723  13.884
38916W        W11209  44.323  35.402   0.957
38917W        W11210  31.958   0.316  13.826
38918W        W11211  41.517  25.622   4.133
38919W        W11212  15.810  22.212  14.888
38920W        W11213  31.958  21.641   2.821
38921W        W11214  29.094   2.812  12.467
38922W        W11215  20.115  41.851   1.385
38923W        W11216  32.616  17.752   4.726
38924W        W11217  36.911  10.270   4.113
38925W        W11218  21.627  42.289   1.339
38926W        W11219  39.549  37.040   4.629
38927W        W11220  26.973  28.449   3.819
38928W        W11221  13.770  34.115   1.414
38929W        W11222  34.481  41.476  10.596
38930W        W11223  36.095  23.561   3.802
38931W        W11224   6.394  17.572   2.897
38932W        W11225  15.297  22.567  11.064
38933W        W11226  19.106  42.960  13.461
38934W        W11227   3.299   1.285  13.888
38935W        W11228   4.344  19.214  12.915
38936W        W11229  43.433  18.602   0.332
38937W        W11230  42.454  18.764   2.417
38938W        W11231  29.533  15.258  14.496
38939W        W11232  44.498  16.242   0.881
38940W        W11233  18.109   7.296   1.220
38941W        W11234  30.081  23.620  12.083
38942W        W11235   7.200  32.889  14.936
38943W        W11236  43.792  41.538  12.471
38944W        W11237   0.356  44.957   3.756
38945W        W11238  21.696  42.000   2.771
38946W        W11239  22.522  11.861  14.443
38947W        W11240  41.792   7.765  13.805
38948W        W11241  12.192  43.968   3.164
38949W        W11242  24.121  43.326   4.161
38950W        W11243  33.958  28.154  13.529
38951W        W11244  15.196  40.047   2.693
38952W        W11245   5.903  24.020   4.175
38953W        W11246  19.046  12.192   3.769
38954W        W11247  40.495   6.198   2.346
38955W        W11248  39.559   9.803   0.747
38956W        W11249  20.040  35.879  13.013
38957W        W11250  20.231  15.652   2.360
38958W        W11251  16.243  10.349   3.721
38959W        W11252  17.197   7.277   4.162
38960W        W11253  34.867   1.426  10.491
38961W        W11254  16.126   8.232   1.700
38962W        W11255  35.007  44.888  13.857
38963W        W11256   4.898  32.461   2.273
38964W        W11257  35.967  20.215   4.682
38965W        W11258   3.442  27.027  12.383
38966W        W11259  24.544  41.474   4.269
38967W        W11260  27.041  13.161   2.737
38968W        W11261   0.253  26.987  11.975
38969W        W11262  18.222  12.795   3.342
38970W        W11263   6.688  37.861  11.056
38971W        W11264  17.268   7.806   0.798
38972W        W11265  44.501   8.775   4.164
38973W        W11266  33.946  40.333   3.385
38974W        W11267   0.334  43.373   1.810
38975W        W11268  33.577  30.609   9.935
38976W        W11269  19.223  10.877   0.766
38977W        W11270  41.895  12.643  12.506
38978W        W11271  10.754  10.165   1.423
38979W        W11272  17.306   3.901   4.239
38980W        W11273   4.290  21.164  11.879
38981W        W11274   6.239  18.553   1.441
38982W        W11275  40.834  29.167   4.137
38983W        W11276  19.231  16.293  14.956
38984W        W11277  11.166   2.319   2.882
38985W        W11278   7.385  11.306   1.751
38986W        W11279  42.993   4.246  14.278
38987W        W11280  22.585  27.476  13.929
38988W        W11281   7.398  40.403   0.753
38989W        W11282  20.533  38.008  10.632
38990W        W11283  29.504  20.596   0.937
38991W        W11284  36.876  16.110  11.938
38992W        W11285  36.964  36.912   0.379
38993W        W11286  42.811  14.772   3.863
38994W        W11287  19.142   1.760   1.781
38995W        W11288  11.643   8.164  13.010
38996W        W11289  23.129  35.482  14.474
38997W        W11290  19.602   6.332   4.765
38998W        W11291  11.159  20.528  13.526
38999W        W11292   2.263  34.372   0.382
39000W        W11293  25.024  25.568  12.928
39001W        W11294  32.016  11.777   0.904
39002W        W11295  40.973  11.729   3.237
39003W        W11296   8.873  16.230  13.369
39004W        W11297  41.846  14.767  11.588
39005W        W11298  24.188  28.953  11.599
39006W        W11299  22.012  42.320   3.187
39007W        W11300  35.095   5.872   0.379
39008W        W11301  22.540  35.373   3.738
39009W        W11302  20.046  44.810  12.501
39010W        W11303   5.754  16.689  14.814
39011W        W11304  36.585  20.526   1.697
39012W        W11305  26.178  34.942  14.486
39013W        W11306  33.951   1.403   4.719
39014W        W11307  30.596  21.553   1.775
39015W        W11308  26.512  22.542  13.484
39016W        W11309  28.661  17.067   3.352
39017W        W11310   1.243  42.820   4.300
39018W        W11311  42.504  30.635  12.886
39019W        W11312  44.355  44.391  13.971
39020W        W11313  16.171  40.544  11.110
39021W        W11314  25.703  15.794   4.125
39022W        W11315  30.502  14.110   1.789
39023W        W11316  35.064  17.143  11.422
39024W        W11317  41.387  29.009  12.880
39025W        W11318  32.474  12.143  11.946
39026W        W11319  11.318  24.480  10.606
39027W        W11320  29.160  42.489  13.371
39028W        W11321  19.717  37.378   9.929
39029W        W11322  25.126  33.071   2.288
39030W        W11323   8.238  37.997  12.077
39031W        W11324   7.239  10.166   3.856
39032W        W11325  27.565  20.612   0.278
39033W        W11326  11.794  38.551   4.319
39034W        W11327  35.921  19.651   1.718
39035W        W11328  24.706   4.764   2.686
39036W        W11329  16.137   0.459  14.378
39037W        W11330  38.975   4.883   0.381
39038W        W11331  43.818  23.996  13.863
39039W        W11332   3.323  24.031  14.450
39040W        W11333  25.654   5.913  11.456
39041W        W11334  20.718  31.430  11.073
39042W        W11335  41.797  29.998   0.786
39043W        W11336  40.865  23.527   1.769
39044W        W11337  28.176   0.844   4.730
39045W        W11338  23.195  11.342   4.147
39046W        W11339  35.456  43.446   4.314
39047W        W11340  12.349  23.146   3.253
39048W        W11341  36.862  38.883  13.952
39049W        W11342  44.337  30.489   5.114
39050W        W11343  16.177  16.695  13.928
39051W        W11344  29.927  28.503   2.748
39052W        W11345  42.391   7.386  14.343
39053W        W11346  23.526   6.745   0.328
39054W        W11347   4.363  26.516   3.728
39055W        W11348  42.817  27.670   2.702
39056W        W11349   9.329   9.336  12.006
39057W        W11350  44.483  13.171  12.914
39058W        W11351  41.437  27.445   1.730
39059W        W11352  29.076   5.423  10.498
39060W        W11353  21.020  44.928   3.863
39061W        W11354  16.599  35.518   3.236
39062W        W11355  22.245  19.055   4.290
39063W        W11356   9.218  12.139  11.057
39064W        W11357   7.673  11.300   3.233
39065W        W11358  10.707  40.330   4.259
39066W        W11359  39.462  21.157   2.756
39067W        W11360  23.991  29.925   4.273
39068W        W11361  23.217  32.899  13.543
39069W        W11362  16.796  41.402   4.798
39070W        W11363  17.759   2.838  11.016
39071W        W11364   0.845  43.842   1.398
39072W        W11365  33.114  27.650  13.888
39073W        W11366  23.506  36.964   1.800
39074W        W11367  36.498  33.887   1.782
39075W        W11368   7.688  44.969   4.791
39076W        W11369   5.714  21.245  12.999
39077W        W11370   7.894  34.565   1.301
39078W        W11371  30.055   9.378  13.950
39079W        W11372  30.077   3.930  12.482
39080W        W11373   9.348  15.108   4.170
39081W        W11374  21.600   0.304   3.741
39082W        W11375  38.880  33.101  11.380
39083W        W11376  12.156  13.124   1.413
39084W        W11377  15.111  16.796   4.122
39085W        W11378  20.043  25.191  14.963
39086W        W11379  21.672   5.880   0.434
39087W        W11380  24.142  18.141  11.897
39088W        W11381   9.358  13.835  14.513
39089W        W11382   5.933  15.661   1.307
39090W        W11383  31.592  34.568  10.888
39091W        W11384  37.338  35.370   3.865
39092W        W11385  20.543  36.946  11.527
39093W        W11386  16.632  31.966  12.091
39094W        W11387  32.477   4.353  14.430
39095W        W11388   2.228  19.716  13.363
39096W        W11389  28.058  20.189   0.377
39097W        W11390  37.354  37.043  11.064
39098W        W11391  25.160  17.087  11.550
39099W        W11392   1.776   1.958   0.799
39100W        W11393  17.138  41.373  12.993
39101W        W11394  41.016  10.257   3.201
39102W        W11395  33.063  17.775  10.462
39103W        W11396  29.610  26.531   9.975
39104W        W11397  35.981  16.704  12.527
39105W        W11398  20.208  41.835   1.854
39106W        W11399   6.818  19.048  13.427
39107W        W11400  35.025  20.652   1.388
39108W        W11401  21.664  37.060   1.268
39109W        W11402  12.675  39.993  11.493
39110W        W11403  22.188  39.514   4.804
39111W        W11404   9.759  32.594   3.843
39112W        W11405   5.351   7.177  11.857
39113W        W11406  16.127  21.701   0.807
39114W        W11407   1.400  22.660   1.289
39115W        W11408  19.743   5.829   4.686
39116W        W11409  12.702   0.327  11.990
39117W        W11410  14.121   7.772  14.821
39118W        W11411  33.424  38.904   4.821
39119W        W11412  23.166   3.429  11.963
39120W        W11413  38.381  41.427  11.010
39121W        W11414  39.389  36.917   0.941
39122W        W11415  20.189  41.979  14.479
39123W        W11416  30.157  15.599  13.537
39124W        W11417  33.035  44.762   2.791
39125W        W11418  28.992  38.524  12.519
39126W        W11419  24.230  16.645  11.584
39127W        W11420  24.034  11.702   3.787
39128W        W11421  22.704  19.106   4.673
39129W        W11422  44.475  31.929   4.757
39130W        W11423  39.065   5.739   1.314
39131W        W11424   7.309  30.946  11.012
39132W        W11425   2.826   9.757   0.304
39133W        W11426   0.760   6.422   0.439
39134W        W11427  23.147  20.196  11.089
39135W        W11428   8.289   4.436  14.513
39136W        W11429   7.868  35.498  11.972
39137W        W11430  28.496  21.136   4.638
39138W        W11431  10.803  38.506   2.903
39139W        W11432  39.879  44.756   2.304
39140W        W11433   0.909   1.757  13.311
39141W        W11434   5.194  37.361  11.393
39142W        W11435  33.529   5.748  12.457
39143W        W11436  16.258   2.353   4.661
39144W        W11437   2.798  15.602  14.923
39145W        W11438  10.282  40.041   9.924
39146W        W11439  30.472  14.816   1.926
39147W        W11440  30.988   3.336  13.339
39148W        W11441  19.722  29.475   2.845
39149W        W11442  24.524  34.062   1.332
39150W        W11443  17.652  10.662   0.428
39151W        W11444  28.677  10.753   4.788
39152W        W11445  18.065  23.132  13.461
39153W        W11446  26.962  21.226   1.338
39154W        W11447   3.817  19.632  14.775
39155W        W11448  38.855  35.449  13.341
39156W        W11449  22.732  32.412  14.485
39157W        W11450  29.626   6.817  11.868
39158W        W11451  14.640  29.164  11.123
39159W        W11452  37.351  31.095  13.898
39160W        W11453  19.264   6.418  14.869
39161W        W11454  19.646  25.173  14.767
39162W        W11455  13.187   6.908  12.561
39163W        W11456  24.086  14.629  12.961
39164W        W11457  15.621  34.436  14.433
39165W        W11458  21.200   6.407  11.113
39166W        W11459   0.955  44.495  10.913
39167W        W11460   1.732  12.614   0.925
39168W        W11461  23.200  37.010  14.515
39169W        W11462  29.438  32.570  11.478
39170W        W11463   9.394  22.236  11.990
39171W        W11464   3.846  43.966  13.322
39172W        W11465  43.473  20.077  14.396
39173W        W11466  14.628  44.826   0.256
39174W        W11467   8.667  19.563  14.021
39175W        W11468  22.600  12.150   2.409
39176W        W11469  10.638  33.521  12.341
39177W        W11470   8.659   1.237   2.219
39178W        W11471   7.332  17.199  13.348
39179W        W11472  18.234  26.147   1.896
39180W        W11473  28.062  42.011   1.772
39181W        W11474  19.092  43.018   2.693
39182W        W11475  12.717  38.916   0.902
39183W        W11476  22.076  15.137  13.984
39184W        W11477   6.720  40.954   4.726
39185W        W11478  36.375  25.695   2.352
39186W        W11479  25.652  27.076  11.950
39187W        W11480  24.678   7.869   3.236
39188W        W11481  15.716  25.119  12.544
39189W        W11482   4.300  37.878  10.568
39190W        W11483  15.260  43.347  11.543
39191W        W11484  38.962  39.322   4.271
39192W        W11485  44.973  35.874  13.805
39193W        W11486  32.636  17.593  14.020
39194W        W11487  32.017   2.360  12.442
39195W        W11488   0.282   1.887   3.373
39196W        W11489   0.923  26.535   4.246
39197W        W11490  27.517  21.631   0.444
39198W        W11491   0.749  19.212   3.807
39199W        W11492  33.902  30.551  13.440
39200W        W11493  37.930  42.307  14.889
39201W        W11494  21.671  13.117  12.368
39202W        W11495  19.767  14.293   1.748
39203W        W11496  27.462  39.411   2.760
39204W        W11497  29.558   1.761   1.738
39205W        W11498  32.914   2.312   2.682
39206W        W11499   6.406  44.489   9.959
39207W        W11500  39.506  10.293   0.962
39208W        W11501   0.865  21.078   3.330
39209W        W11502  20.612   1.900   1.376
39210W        W11503  40.883  21.688  12.848
39211W        W11504  25.101  10.857  11.911
39212W        W11505   8.175  16.227  14.336
39213W        W11506  29.445   2.809   1.380
39214W        W11507  18.776  10.153  12.031
39215W        W11508  34.480  14.674  12.524
39216W        W11509  28.063  21.050   3.799
39217W        W11510   0.839   7.392  12.570
39218W        W11511  10.801   2.316  11.092
39219W        W11512  12.178   3.460   9.967
39220W        W11513   0.805  28.169  10.909
39221W        W11514  38.503  32.572   2.778
39222W        W11515  34.103   4.768   4.633
39223W        W11516   4.331  19.721   1.871
39224W        W11517  32.886  30.415   1.934
39225W        W11518  28.128  28.182   1.712
39226W        W11519  43.414   1.436  14.003
39227W        W11520   8.900  13.188   5.306
39228W        W11521  27.110  43.812   3.693
39229W        W11522  40.963  20.760   0.372
39230W        W11523  39.855   7.370   2.381
39231W        W11524   7.815   2.326  13.321
39232W        W11525  14.748  32.570   4.776
39233W        W11526  20.211   0.354   1.842
39234W        W11527   0.367  10.708   1.854
39235W        W11528  12.187   9.650   0.855
39236W        W11529  41.441  29.604  14.340
39237W        W11530  13.631  23.685  12.056
39238W        W11531  26.527  44.934  14.445
39239W        W11532  27.475  27.463  12.379
39240W        W11533  12.150  30.916  11.436
39241W        W11534   3.432  35.857  14.851
39242W        W11535  22.699  38.835  13.324
39243W        W11536  29.088  21.242  13.820
39244W        W11537  40.881   8.259  12.523
39245W        W11538  13.148   6.336   4.688
39246W        W11539  38.007  41.326   0.866
39247W        W11540  16.258  30.514   3.267
39248W        W11541  34.379  43.285  14.938
39249W        W11542  25.142  35.456   2.385
39250W        W11543  26.590  13.787  12.090
39251W        W11544  12.810  39.445   0.863
39252W        W11545  26.067  27.090   2.751
39253W        W11546  15.704  27.511   3.316
39254W        W11547  14.120   7.894  12.447
39255W        W11548  12.119  12.183  13.387
39256W        W11549   5.841   4.875   3.854
39257W        W11550  26.044  16.314  10.570
39258W        W11551  27.530  12.818   4.725
39259W        W11552  23.693  12.343  11.998
39260W        W11553  26.462  32.555   2.832
39261W        W11554  38.929  13.153  12.031
39262W        W11555  17.677  12.316   3.225
39263W        W11556  17.589  33.471   4.640
39264W        W11557  39.504   9.341   2.774
39265W        W11558  20.534  12.138   3.639
39266W        W11559  41.403  11.808   4.232
39267W        W11560  41.305  35.506  12.343
39268W        W11561  15.783  24.096   0.943
39269W        W11562  42.319  22.062   3.861
39270W        W11563   0.253   5.264   4.339
39271W        W11564   8.736  12.761  13.869
39272W        W11565  18.647  41.445  14.888
39273W        W11566  21.557   5.398  10.890
39274W        W11567  25.148  23.537  12.906
39275W        W11568  13.130   1.973   0.475
39276W        W11569  23.046  29.987  12.563
39277W        W11570  30.074  25.208   2.212
39278W        W11571  17.177  15.140  14.967
39279W        W11572  29.012  25.057  11.452
39280W        W11573   2.248  36.053  14.406
39281W        W11574  11.831   0.877  13.335
39282W        W11575   3.339   2.391  11.417
39283W        W11576  43.936   6.857  12.847
39284W        W11577  35.525  28.476  14.894
39285W        W11578  19.225  24.111   1.850
39286W        W11579  43.508  33.055   1.783
39287W        W11580  36.079  42.954  11.000
39288W        W11581  35.960  24.160  12.398
39289W        W11582  12.658  35.497   4.329
39290W        W11583  12.294   3.844   0.301
39291W        W11584  41.840  37.071   4.161
39292W        W11585  28.034  38.826  11.529
39293W        W11586  20.049  26.607   3.646
39294W        W11587  19.718  12.291  13.925
39295W        W11588   0.906  33.416  10.574
39296W        W11589  17.791  24.628  13.876
39297W        W11590  13.161   2.768  10.035
39298W        W11591  41.015  27.481  11.997
39299W        W11592   3.416  20.613   2.248
39300W        W11593   7.184  44.827  12.926
39301W        W11594  43.899   0.957  13.532
39302W        W11595  37.928   5.695  10.532
39303W        W11596  24.141  33.083   2.789
39304W        W11597  36.903  22.511  13.878
39305W        W11598   3.224   3.719   1.422
39306W        W11599   7.210  34.527   4.774
39307W        W11600  39.023   9.163   4.249
39308W        W11601  44.470  40.542  11.961
39309W        W11602  29.961  14.817  10.614
39310W        W11603  22.058   5.817  12.569
39311W        W11604  15.660  30.557  10.567
39312W        W11605  42.342  10.220  10.455
39313W        W11606  14.816  32.058  13.014
39314W        W11607   0.821  26.060  14.464
39315W        W11608   9.351  35.879  13.841
39316W        W11609  41.335  15.820   1.739
39317W        W11610  43.411   0.248   4.767
39318W        W11611  17.773  43.391   3.743
39319W        W11612  44.363  10.371  14.767
39320W        W11613  20.619  11.708   2.415
39321W        W11614   3.222   2.892  12.001
39322W        W11615   0.321  18.627   1.931
39323W        W11616  25.034  13.726   4.737
39324W        W11617   3.408  39.455   3.636
39325W        W11618  44.756   8.682   0.352
39326W        W11619  18.779   9.268  13.850
39327W        W11620  16.112  43.270  14.920
39328W        W11621  31.629  28.937  14.310
39329W        W11622  37.954   7.182   5.272
39330W        W11623  28.992  37.840   4.158
39331W        W11624  19.709   4.715  10.151
39332W        W11625   4.374  29.089   0.380
39333W        W11626  37.418  33.624   1.827
39334W        W11627  35.923  12.217   3.222
39335W        W11628  23.194  18.558   4.248
39336W        W11629  36.502  12.232  13.792
39337W        W11630  34.570  32.457   1.238
39338W        W11631  18.151  27.520   0.740
39339W        W11632   1.966   1.410   0.848
39340W        W11633  37.353  34.057   3.767
39341W        W11634  15.611  16.197   3.330
39342W        W11635  14.756  17.215   4.706
39343W        W11636  40.030  39.924   2.844
39344W        W11637  33.904  30.068   4.249
39345W        W11638  31.129  20.637   0.905
39346W        W11639   3.376  43.381  12.409
39347W        W11640  26.997   8.353   4.333
39348W        W11641  44.949   2.818   2.389
39349W        W11642  28.042   7.253   1.424
39350W        W11643  43.507  21.598  11.471
39351W        W11644   8.363  27.976   2.185
39352W        W11645   9.659  38.065  11.071
39353W        W11646  23.231  32.928  14.285
39354W        W11647  31.545  16.630   1.765
39355W        W11648  39.883   2.282   4.153
39356W        W11649  26.978  31.118   3.709
39357W        W11650   0.262  15.606  12.509
39358W        W11651  44.813  21.688  13.416
39359W        W11652   5.383  24.055   3.704
39360W        W11653   1.873  33.957  12.920
39361W        W11654  38.012  40.471   0.251
39362W        W11655  14.670  28.565   3.181
39363W        W11656  41.313  11.221  10.511
39364W        W11657  27.117  35.554   1.255
39365W        W11658  41.835  39.957   0.303
39366W        W11659  28.943  44.453  12.007
39367W        W11660  33.039  39.357   3.739
39368W        W11661  39.458   7.787   0.381
39369W        W11662  38.074  23.995   1.805
39370W        W11663   8.389  32.919  10.544
39371W        W11664  27.582  10.291   2.670
39372W        W11665  22.637  44.434  11.111
39373W        W11666  29.026  22.249  12.348
39374W        W11667  24.102  32.932  11.889
39375W        W11668  20.613  38.935   2.777
39376W        W11669   1.735   1.282   1.708
39377W        W11670  14.803  38.832   1.847
39378W        W11671  18.702  25.471  10.609
39379W        W11672  11.191  17.782  14.813
39380W        W11673   1.861  27.044  10.895
39381W        W11674   0.391   3.833  14.467
39382W        W11675  39.360   3.895   3.739
39383W        W11676  29.925  31.625   0.911
39384W        W11677  17.757  16.619  11.483
39385W        W11678  14.112  27.184  13.462
39386W        W11679  15.249  17.761   0.799
39387W        W11680  25.208  39.874   0.906
39388W        W11681  21.165   3.891   2.757
39389W        W11682  43.490   7.411  13.891
39390W        W11683  19.218  34.088   0.401
39391W        W11684   7.321  25.493  13.913
39392W        W11685  26.965  19.241   1.380
39393W        W11686  16.730   6.324  11.607
39394W        W11687  22.046  43.885   0.427
39395W        W11688   3.353  37.920  12.461
39396W        W11689  31.115  41.345   4.138
39397W        W11690  15.820  24.083   1.216
39398W        W11691  21.200  41.001   3.181
39399W        W11692  32.945  31.638  13.847
39400W        W11693  11.330  19.769  14.384
39401W        W11694  17.120   3.832   3.175
39402W        W11695  26.022   7.873  14.873
39403W        W11696   0.863  35.560   4.796
39404W        W11697  30.982  14.744  11.895
39405W        W11698  34.412  33.877   2.710
39406W        W11699  14.724   1.891  14.781
39407W        W11700  19.639  30.613   0.941
39408W        W11701   3.357  28.445  11.088
39409W        W11702  26.180  30.007   3.826
39410W        W11703  39.551  26.049   4.780
39411W        W11704  22.525  34.429  14.811
39412W        W11705  42.831   2.266  11.944
39413W        W11706  34.069  11.724  11.018
39414W        W11707  32.936  24.603   4.622
39415W        W11708   7.275  43.807  14.319
39416W        W11709  17.084  14.758   3.303
39417W        W11710  28.984  43.365  10.625
39418W        W11711  42.952  13.306   2.404
39419W        W11712  39.844   0.947   1.839
39420W        W11713   6.210  36.499   2.894
39421W        W11714  21.079  28.443  14.291
39422W        W11715   2.739  25.474  14.364
39423W        W11716  28.499  30.458  11.527
39424W        W11717   1.842  32.524  11.517
39425W        W11718  40.833   3.771  13.451
39426W        W11719  30.595   7.397  11.887
39427W        W11720  44.926  27.544  13.501
39428W        W11721   2.939  12.125   0.425
39429W        W11722   7.813  23.148   2.852
39430W        W11723  20.161  30.547   3.789
39431W        W11724   8.748  13.684  12.353
39432W        W11725  16.654  44.466  14.780
39433W        W11726   0.335  42.939  11.518
39434W        W11727  39.984  30.585   2.392
39435W        W11728  32.133  25.169   3.762
39436W        W11729  31.999  26.460   0.765
39437W        W11730  17.174  30.627   9.971
39438W        W11731  40.022  25.015  14.491
39439W        W11732  30.453  40.314   2.776
39440W        W11733   7.323  38.894   4.253
39441W        W11734  29.510  35.859  11.412
39442W        W11735   4.232   2.934  10.566
39443W        W11736  15.760  35.987   1.800
39444W        W11737  25.115  40.924   4.251
39445W        W11738  23.654  26.646  13.379
39446W        W11739  36.063  14.722   5.141
39447W        W11740   6.683  38.563   1.362
39448W        W11741  12.854  20.728  14.346
39449W        W11742  27.522  29.612  10.626
39450W        W11743  11.800  25.505  10.963
39451W        W11744   9.165  40.400   4.737
39452W        W11745   3.856   4.441   4.790
39453W        W11746  32.635  19.580   0.441
39454W        W11747   1.848  25.591  12.541
39455W        W11748  17.175  40.900  13.973
39456W        W11749  18.191   0.381   1.215
39457W        W11750   1.255  26.106  14.421
39458W        W11751   0.405   8.731  13.539
39459W        W11752  37.852  29.116  11.509
39460W        W11753  41.527  16.657  11.999
39461W        W11754  17.595  38.875   2.847
39462W        W11755  24.507  24.980   1.934
39463W        W11756  22.641  13.209  11.377
39464W        W11757  22.664   4.730  11.008
39465W        W11758  37.836  35.496  13.481
39466W        W11759  39.396  38.429   2.857
39467W        W11760  10.717  33.561   1.819
39468W        W11761  41.475  27.544   3.701
39469W        W11762  30.129   9.255   3.295
39470W        W11763  28.501   9.721  14.995
39471W        W11764  26.112  27.645   2.685
39472W        W11765  44.975  12.632   0.453
39473W        W11766   9.678  36.086  13.358
39474W        W11767  24.668   4.253  14.389
39475W        W11768  41.893  17.633   3.647
39476W        W11769   0.870   7.350  10.049
39477W        W11770  34.082   8.843  14.332
39478W        W11771  25.654   3.887   5.262
39479W        W11772  13.610  21.261   5.090
39480W        W11773  15.096   9.750  10.957
39481W        W11774  20.582  10.319  14.020
39482W        W11775   8.668  19.041  13.535
39483W        W11776  41.352  41.493   3.339
39484W        W11777  18.654  11.143   1.900
39485W        W11778  41.495  18.229  12.954
39486W        W11779  32.618   7.356  11.376
39487W        W11780  20.220  44.413  13.884
39488W        W11781  29.082  27.571  12.005
39489W        W11782  39.844   3.270   3.277
39490W        W11783  43.298  21.045   2.853
39491W        W11784  34.505  43.872   2.711
39492W        W11785   9.306  18.101  13.050
39493W        W11786  14.686   3.260  11.973
39494W        W11787  31.952  24.661   4.339
39495W        W11788  23.594  10.819   1.906
39496W        W11789   2.276   1.453   1.861
39497W        W11790   1.832  24.719   0.350
39498W        W11791  26.528  15.602  11.466
39499W        W11792  27.500  38.479  13.472
39500W        W11793   1.739   0.955  14.953
39501W        W11794  38.537  43.782  12.979
39502W        W11795   2.928  43.764  10.437
39503W        W11796   0.362  34.494  10.472
39504W        W11797  36.497  27.629  11.039
39505W        W11798  16.622  43.490   4.307
39506W        W11799   1.357   2.828  14.373
39507W        W11800  30.161  29.646   1.872
39508W        W11801  22.734  13.615  13.983
39509W        W11802  25.679  41.828  14.501
39510W        W11803  33.081   1.394   1.272
39511W        W11804  22.082  28.549  12.546
39512W        W11805  13.734  23.526  10.981
39513W        W11806  22.211  25.607   1.376
39514W        W11807  24.700  41.044  11.448
39515W        W11808  12.610  33.037   4.647
39516W        W11809  21.133  12.196   2.382
39517W        W11810  30.421  22.191  14.958
39518W        W11811  34.497  19.237  11.055
39519W        W11812  14.657   0.842   4.217
39520W        W11813   2.936  38.520  14.483
39521W        W11814  43.000  23.141  12.953
39522W        W11815  11.671  38.057  11.461
39523W        W11816   5.330  11.197   0.362
39524W        W11817   7.727   8.873   3.306
39525W        W11818  24.650  23.113  13.361
39526W        W11819  37.955  42.489  13.454
39527W        W11820  22.048  22.712  13.459
39528W        W11821   2.796   3.401  14.842
39529W        W11822   6.683  30.992  14.846
39530W        W11823  13.193  37.545   3.177
39531W        W11824  24.118  16.571   3.379
39532W        W11825  41.904  18.781  13.962
39533W        W11826  31.409  19.134   2.719
39534W        W11827  27.639  39.952   3.721
39535W        W11828  30.520  29.062  11.445
39536W        W11829  23.491   9.882   2.299
39537W        W11830  34.563   6.262  11.591
39538W        W11831   6.695  20.107  12.992
39539W        W11832  31.553  28.508  11.475
39540W        W11833  41.843  22.032  14.885
39541W        W11834  10.785  19.678   2.774
39542W        W11835  39.814  35.053  13.980
39543W        W11836  30.599  20.700  11.049
39544W        W11837  35.536  13.229   2.889
39545W        W11838  32.610  19.070   0.356
39546W        W11839   9.712   4.834   9.922
39547W        W11840  18.671  10.190  12.952
39548W        W11841  35.374  43.282   0.943
39549W        W11842  18.568  29.491  12.354
39550W        W11843  44.380  38.532  10.098
39551W        W11844  42.031  38.826   3.731
39552W        W11845  20.258  41.526   1.245
39553W        W11846  21.095  39.057   1.765
39554W        W11847  15.734  22.174  11.518
39555W        W11848   4.302  31.128  13.357
39556W        W11849   5.417  32.555   2.271
39557W        W11850   8.672   5.425   2.815
39558W        W11851  43.934  21.554  12.913
39559W        W11852   4.323  42.003   1.356
39560W        W11853  13.815  42.445  12.411
39561W        W11854  32.610  18.630  13.509
39562W        W11855  31.495   8.169  10.492
39563W        W11856  28.982  14.759  11.048
39564W        W11857   4.414   2.954  12.418
39565W        W11858   2.338  16.714   4.318
39566W        W11859  33.919  37.896  12.342
39567W        W11860  19.273   5.704  13.973
39568W        W11861  34.997  44.773   4.322
39569W        W11862   2.935  33.032  12.988
39570W        W11863  12.677  17.598  11.930
39571W        W11864  39.007  33.983   1.405
39572W        W11865  29.604  42.394  12.828
39573W        W11866   9.374  19.657  13.312
39574W        W11867  14.791  11.676  13.479
39575W        W11868  11.263  38.075  10.960
39576W        W11869  39.382  17.671   2.759
39577W        W11870   7.201  28.524   1.823
39578W        W11871  22.014  13.605   3.653
39579W        W11872  42.384  19.629   0.448
39580W        W11873  13.724  25.675  14.395
39581W        W11874  24.581  14.756   3.214
39582W        W11875  17.081  41.432   2.854
39583W        W11876   5.731  22.741   1.248
39584W        W11877  38.393  38.876   3.867
39585W        W11878   7.183  21.620   1.749
39586W        W11879  39.827   9.803   0.435
39587W        W11880   7.898   3.445   1.791
39588W        W11881  44.468   2.769  11.109
39589W        W11882  32.975   4.361   3.761
39590W        W11883  44.880  20.271   4.354
39591W        W11884   8.724  28.608   2.889
39592W        W11885  40.307  43.016  11.537
39593W        W11886  17.162  19.777  13.378
39594W        W11887  15.684  40.548   0.845
39595W        W11888   8.338   5.736  10.910
39596W        W11889  28.978  44.502   3.227
39597W        W11890  23.054  33.027   0.879
39598W        W11891  41.015   2.954  11.516
39599W        W11892  22.565  19.267   3.714
39600W        W11893   4.878  44.262  11.481
39601W        W11894   5.763  27.956  14.887
39602W        W11895  33.917   1.960  13.418
39603W        W11896  41.042   3.783   0.458
39604W        W11897  41.434   8.877  13.418
39605W        W11898   4.430  40.972  14.971
39606W        W11899   7.833  11.136  10.545
39607W        W11900  24.681  27.548   3.203
39608W        W11901  38.532  29.437  14.306
39609W        W11902  21.233   5.796  12.844
39610W        W11903   9.826  26.997   3.685
39611W        W11904  27.110   6.727  12.504
39612W        W11905  15.299  32.559  10.473
39613W        W11906  26.543  29.921   0.898
39614W        W11907  34.532  30.519  13.313
39615W        W11908  16.308  30.544   0.913
39616W        W11909  11.365   5.358  13.024
39617W        W11910   2.862  27.498  13.367
39618W        W11911  44.860  35.404  14.399
39619W        W11912   2.355  39.932   1.722
39620W        W11913  10.784  40.470  10.636
39621W        W11914  35.003   9.332  13.799
39622W        W11915   0.777  40.391  14.901
39623W        W11916  15.636   4.334  10.021
39624W        W11917  10.866  33.585   0.411
39625W        W11918  22.200  40.812   2.358
39626W        W11919  17.736   7.377  12.567
39627W        W11920   7.742  19.143  14.394
39628W        W11921  37.543   8.698  13.923
39629W        W11922  13.110   0.478  11.938
39630W        W11923   3.461  25.525   3.355
39631W        W11924  11.320   7.238  12.360
39632W        W11925  23.519  33.525  11.033
39633W        W11926  14.220   5.931   3.793
39634W        W11927  14.726  31.536   1.333
39635W        W11928  25.000  32.634   3.676
39636W        W11929  29.092  30.641  13.525
39637W        W11930  35.105   2.458   5.221
39638W        W11931  41.947   4.831  14.807
39639W        W11932   8.228  41.807   0.921
39640W        W11933   5.887  14.187  14.473
39641W        W11934  35.572  35.925   2.727
39642W        W11935  17.167  44.897  11.528
39643W        W11936   1.290  29.557   0.439
39644W        W11937  22.231  31.088  12.346
39645W        W11938  25.553  35.093  10.424
39646W        W11939  40.358   8.332  11.872
39647W        W11940  10.278  37.078  11.524
39648W        W11941  14.713  16.150  11.455
39649W        W11942  23.226  39.838  13.897
39650W        W11943  44.999  40.444   4.201
39651W        W11944   2.913   4.226   0.312
39652W        W11945  26.555  43.462  14.467
39653W        W11946  20.130  26.632   1.849
39654W        W11947  38.059  10.828  12.088
39655W        W11948  41.976   6.268   2.874
39656W        W11949  39.365  41.830   1.806
39657W        W11950   5.847   5.217  11.485
39658W        W11951  30.931  17.067   0.351
39659W        W11952   1.921   2.422   2.832
39660W        W11953  27.941  12.194  11.097
39661W        W11954  26.958  17.152   3.650
39662W        W11955  21.149  41.969  14.369
39663W        W11956  30.955  23.048   1.704
39664W        W11957  18.548  20.750  13.952
39665W        W11958  10.785  10.243   1.872
39666W        W11959  15.260  33.976   4.699
39667W        W11960  35.386  19.737  11.969
39668W        W11961  32.901   4.779  11.567
39669W        W11962  16.101  29.489   4.649
39670W        W11963   6.367   8.197  11.551
39671W        W11964  10.703  43.932  14.307
39672W        W11965  25.114  42.420   4.648
39673W        W11966   2.325  20.128   3.345
39674W        W11967  23.102  21.086   4.640
39675W        W11968  27.610  13.333  14.784
39676W        W11969   4.332  33.541   1.346
39677W        W11970   1.307  30.480   3.685
39678W        W11971  35.597  29.507   3.744
39679W        W11972   2.374  37.046   4.788
39680W        W11973  30.919   5.878  13.973
39681W        W11974  33.493  42.485  13.433
39682W        W11975  33.025  32.458   2.289
39683W        W11976  22.148  23.071  12.417
39684W        W11977   8.886   3.751   2.745
39685W        W11978  44.954   1.255   3.641
39686W        W11979  13.712  22.634   0.256
39687W        W11980   1.315   6.281  10.471
39688W        W11981  32.548  33.559   0.306
39689W        W11982  43.481  42.847   2.747
39690W        W11983  39.841   3.273   3.707
39691W        W11984   4.815  24.490  14.880
39692W        W11985  32.908   3.737  12.573
39693W        W11986   9.688  42.886  10.980
39694W        W11987  41.468  20.195  10.892
39695W        W11988  32.400  35.480   0.843
39696W        W11989   4.285  17.764  10.577
39697W        W11990  41.980  15.693  10.525
39698W        W11991  27.466  22.620  11.946
39699W        W11992  18.582  43.836   4.651
39700W        W11993  43.488  32.467   1.725
39701W        W11994   4.238  40.900  13.366
39702W        W11995  34.027   3.828  10.427
39703W        W11996  32.597  16.684   3.863
39704W        W11997  20.529  36.533  13.382
39705W        W11998   1.854  37.412  14.901
39706W        W11999   3.391  11.141  13.817
39707W        W12000  25.100  18.235   4.823
39708W        W12001   8.674   8.709  14.312
39709W        W12002  27.540  24.072  12.903
39710W        W12003  17.091  26.973   0.908
39711W        W12004  10.816  36.451  12.454
39712W        W12005   4.375   5.404  12.538
39713W        W12006  40.528  19.687  12.483
39714W        W12007  24.591  40.850   1.915
39715W        W12008  20.666  22.651   2.897
39716W        W12009  30.482  41.939  14.386
39717W        W12010   0.841  38.822  11.521
39718W        W12011  13.295   9.160   2.191
39719W        W12012   9.791  34.523   2.849
39720W        W12013  39.963  15.708  11.597
39721W        W12014   6.351   2.345  10.993
39722W        W12015   0.888   0.859   2.267
39723W        W12016  22.736  21.544   1.916
39724W        W12017  11.309  41.795   3.385
39725W        W12018  22.173  11.731   0.394
39726W        W12019   4.247  38.429   1.451
39727W        W12020  28.609  13.187   1.850
39728W        W12021  13.286  14.150   2.287
39729W        W12022  26.469  10.238   2.262
39730W        W12023  24.075  38.000  13.916
39731W        W12024  20.099  25.107  13.519
39732W        W12025  31.521  44.323   0.331
39733W        W12026  27.465  20.184  12.957
39734W        W12027  44.864  44.850  14.012
39735W        W12028  24.216  30.076   3.317
39736W        W12029  16.665   5.320   3.759
39737W        W12030  17.131  24.618   3.380
39738W        W12031  26.179  42.506  10.890
39739W        W12032  39.991  28.672  14.359
39740W        W12033  22.534  16.804  10.601
39741W        W12034   2.933  31.098  13.926
39742W        W12035  24.087  20.620   2.189
39743W        W12036  20.109   8.870   1.300
39744W        W12037   7.240  14.227   1.772
39745W        W12038  34.022  33.445   4.252
39746W        W12039  41.870  17.787   5.285
39747W        W12040   8.329  40.339   0.840
39748W        W12041   4.322   9.849  12.923
39749W        W12042  18.157  13.757   2.838
39750W        W12043  18.698  14.249   2.260
39751W        W12044  33.514   0.800   2.701
39752W        W12045   1.749  40.414  13.865
39753W        W12046  25.977  25.108   4.734
39754W        W12047  29.622  34.937  11.598
39755W        W12048  16.789   0.922  12.007
39756W        W12049   5.400  11.795  12.851
39757W        W12050  17.705  11.685  10.958
39758W        W12051  11.707  26.693   4.212
39759W        W12052  32.035  32.088  10.074
39760W        W12053  32.577  20.093   4.147
39761W        W12054  25.197  28.003  14.405
39762W        W12055  26.477  25.708  11.374
39763W        W12056  16.103  16.811  11.579
39764W        W12057  19.243  35.927  13.866
39765W        W12058  22.068   3.724   5.589
39766W        W12059  18.197  17.651  10.908
39767W        W12060  21.178  41.433  13.311
39768W        W12061  19.220   7.329   0.373
39769W        W12062  26.513  24.151  12.499
39770W        W12063   5.878   6.722   1.408
39771W        W12064  44.398  37.413  11.919
39772W        W12065  19.771  39.837   4.724
39773W        W12066   1.473  29.986   3.692
39774W        W12067  14.293  24.179  12.851
39775W        W12068  13.190  42.382  13.897
39776W        W12069  21.656  16.604  12.058
39777W        W12070  31.402   8.815  12.893
39778W        W12071  35.923   1.900  14.341
39779W        W12072  28.663  28.032   4.674
39780W        W12073  29.103   2.272  12.544
39781W        W12074  18.724   4.342  11.414
39782W        W12075  38.545  28.075   4.191
39783W        W12076  19.044   1.301  12.975
39784W        W12077  35.098   5.838   0.886
39785W        W12078  24.011   6.893  11.398
39786W        W12079  20.650   3.230  13.833
39787W        W12080   9.244   5.421  12.942
39788W        W12081  36.932  29.066  10.446
39789W        W12082   6.857  32.461  10.955
39790W        W12083   6.917  26.126   0.431
39791W        W12084  11.194   9.220  12.000
39792W        W12085   5.381  21.184  11.449
39793W        W12086  34.920  22.225  14.944
39794W        W12087  25.030  29.144  14.829
39795W        W12088  35.095  19.575   1.449
39796W        W12089  43.802  30.910  13.862
39797W        W12090  42.832   4.327  13.839
39798W        W12091  15.578  31.643   3.296
39799W        W12092  28.609  37.399   2.303
39800W        W12093  43.355  35.567   1.232
39801W        W12094  44.415   8.709   3.670
39802W        W12095  22.671   9.353  11.954
39803W        W12096  16.638  44.998   1.845
39804W        W12097  14.816  35.980  12.040
39805W        W12098  24.610  12.139   0.807
39806W        W12099  17.570  26.952   0.851
39807W        W12100  32.988  30.958   1.314
39808W        W12101   9.880   8.191   0.905
39809W        W12102  19.739  43.475   2.860
39810W        W12103   7.696  24.983  14.288
39811W        W12104  33.088  19.075  12.527
39812W        W12105  29.526  30.418  12.493
39813W        W12106   4.914  17.657  14.892
39814W        W12107  25.216  41.875   3.652
39815W        W12108   4.830  16.131   2.741
39816W        W12109   4.283  11.723  13.342
39817W        W12110  32.097  30.413   4.308
39818W        W12111  17.151  18.707  14.877
39819W        W12112  38.562   3.750   2.407
39820W        W12113  25.671   1.355   0.445
39821W        W12114  29.502  15.601  10.916
39822W        W12115  36.451  35.469   3.169
39823W        W12116  18.770  31.941   1.735
39824W        W12117  41.388  25.143  13.500
39825W        W12118  41.021   9.314   1.445
39826W        W12119  28.480  35.518   2.706
39827W        W12120  16.584  24.695  13.421
39828W        W12121  31.592  22.501   2.373
39829W        W12122  12.327  27.009  14.975
39830W        W12123  30.076  11.788   2.367
39831W        W12124  23.582  11.739  11.402
39832W        W12125  32.001   7.774  11.437
39833W        W12126  10.261   5.277   0.376
39834W        W12127   6.878  14.182  12.058
39835W        W12128  17.247  31.578   1.220
39836W        W12129  19.058  38.342  13.047
39837W        W12130  34.515  28.105   1.379
39838W        W12131  15.140  27.959  13.408
39839W        W12132  41.528   7.685  12.997
39840W        W12133  33.037  44.785   4.151
39841W        W12134  34.608  37.373   1.791
39842W        W12135  15.292  20.061  14.326
39843W        W12136   9.249  27.580   0.286
39844W        W12137  23.160  18.252   2.839
39845W        W12138  27.469  23.231  14.477
39846W        W12139   1.953  20.250   2.404
39847W        W12140  25.506  17.729   1.249
39848W        W12141  14.162  28.641   1.363
39849W        W12142   2.864  12.338  11.415
39850W        W12143  26.029  21.060   0.854
39851W        W12144  11.834   9.371   4.668
39852W        W12145   3.819  11.292  13.972
39853W        W12146  17.706  31.620   1.828
39854W        W12147   1.460  41.318  11.375
39855W        W12148  38.491  21.135  14.412
39856W        W12149  21.728  28.939  10.907
39857W        W12150   1.337  28.667   4.220
39858W        W12151  36.550  10.800  10.427
39859W        W12152   9.855  44.948  10.928
39860W        W12153  17.631   2.447  10.412
39861W        W12154   3.301  23.227   2.396
39862W        W12155  34.884  41.917   2.233
39863W        W12156  32.426  38.027  13.532
39864W        W12157  11.303  12.674   2.872
39865W        W12158  39.447  35.101   4.794
39866W        W12159  12.768   3.901   3.314
39867W        W12160  26.025  34.101   2.210
39868W        W12161  24.211   1.477  13.860
39869W        W12162  31.128  25.974   4.749
39870W        W12163  30.031   1.924   3.831
39871W        W12164  43.766  14.259  13.812
39872W        W12165  32.892   6.679   4.665
39873W        W12166   3.907  33.507   4.211
39874W        W12167  28.107   2.363   0.956
39875W        W12168  38.041  24.101  14.329
39876W        W12169  15.326  37.421   0.927
39877W        W12170   1.872  43.882  14.456
39878W        W12171  34.392  41.976  12.962
39879W        W12172  22.651  29.529   4.834
39880W        W12173   9.203  10.316   3.657
39881W        W12174   6.715  39.824   0.417
39882W        W12175  18.185  38.351   0.320
39883W        W12176  29.484   8.679   4.322
39884W        W12177  20.693   5.294  13.392
39885W        W12178  13.711   0.946  13.039
39886W        W12179   6.296  13.143  11.533
39887W        W12180  33.026  34.579  14.377
39888W        W12181  31.937  19.115  14.890
39889W        W12182  35.056  36.489   4.124
39890W        W12183  32.013  34.449   1.829
39891W        W12184  17.076  16.310   1.214
39892W        W12185  37.965  35.423  14.318
39893W        W12186  38.942  27.639   1.398
39894W        W12187   7.345   6.803  14.903
39895W        W12188   7.218  43.398   2.179
39896W        W12189  29.660   4.698   4.628
39897W        W12190  41.452  20.529   4.310
39898W        W12191   1.941  41.947   0.305
39899W        W12192  28.153   0.866  12.084
39900W        W12193  30.536  29.424   3.258
39901W        W12194   4.767   8.201   0.863
39902W        W12195  17.742  24.504   2.318
39903W        W12196  12.838  37.842   4.619
39904W        W12197  40.949  39.827   4.712
39905W        W12198  11.258  30.096   3.332
39906W        W12199  29.552  39.470  14.301
39907W        W12200   6.252  19.124  11.578
39908W        W12201  40.468   2.305   3.638
39909W        W12202  11.783   5.823   3.827
39910W        W12203  36.087  35.536  11.981
39911W        W12204  33.916   0.833  10.932
39912W        W12205  31.127  30.625  13.826
39913W        W12206  24.697  30.429  12.034
39914W        W12207  31.401  36.373  11.485
39915W        W12208  10.220  25.211   3.866
39916W        W12209  13.152   5.888   4.307
39917W        W12210  28.599   4.205  12.379
39918W        W12211   2.469  39.457   1.283
39919W        W12212  39.009  33.128   1.923
39920W        W12213  24.194   1.389  13.504
39921W        W12214   0.452  35.873   2.713
39922W        W12215  28.473  31.587  10.980
39923W        W12216  18.164  43.881   0.789
39924W        W12217  37.919  30.592  14.831
39925W        W12218  26.186  36.581   3.659
39926W        W12219  27.163  24.655   1.910
39927W        W12220  12.206   5.332   4.148
39928W        W12221  24.022  21.646  12.944
39929W        W12222   1.849  18.758   2.419
39930W        W12223  21.596   6.288   0.912
39931W        W12224  44.381   0.867   1.764
39932W        W12225  14.610  16.661  12.444
39933W        W12226  31.561  23.987   0.873
39934W        W12227  33.125  30.079   0.406
39935W        W12228  30.555  43.434   3.279
39936W        W12229  31.608   2.751  14.812
39937W        W12230   2.746   4.253  11.446
39938W        W12231  32.982  28.461   2.781
39939W        W12232  23.516  28.661   1.755
39940W        W12233  24.606   6.367   2.791
39941W        W12234  32.631  34.093   1.750
39942W        W12235  18.719  31.018  14.386
39943W        W12236  23.056   8.164   3.352
39944W        W12237  31.416   3.370   4.291
39945W        W12238  19.260  25.510   4.118
39946W        W12239  23.706   4.888   1.348
39947W        W12240   8.241  42.283  13.391
39948W        W12241  39.529  32.891  10.501
39949W        W12242  22.211  23.190   2.383
39950W        W12243  44.938  42.014  10.962
39951W        W12244  44.366   3.329  14.910
39952W        W12245  41.859  28.983   3.319
39953W        W12246  41.298   3.281   3.266
39954W        W12247  13.844  34.467   1.743
39955W        W12248  30.539   8.819   2.770
39956W        W12249  20.033  41.420  11.905
39957W        W12250  42.363  16.205   1.806
39958W        W12251  29.569  30.991   0.947
39959W        W12252  43.910  22.593  14.943
39960W        W12253  26.956  36.001  13.801
39961W        W12254  31.919   5.859   0.805
39962W        W12255   3.756   2.898  14.944
39963W        W12256  22.574  16.293   3.818
39964W        W12257  32.913  35.505  11.551
39965W        W12258   8.700  25.713   4.684
39966W        W12259  16.162  28.153   4.216
39967W        W12260  20.190  27.008   3.158
39968W        W12261  15.172  36.938  14.881
39969W        W12262  31.115  17.276  12.880
39970W        W12263   5.327   4.851  10.925
39971W        W12264  19.676  43.296  11.963
39972W        W12265   7.852   2.961  14.316
39973W        W12266  40.907   1.371   3.816
39974W        W12267  10.753  36.943   3.258
39975W        W12268   9.751  43.004  12.922
39976W        W12269  41.494  17.629  12.911
39977W        W12270  18.227  20.644   5.786
39978W        W12271   6.290  34.402  10.408
39979W        W12272  11.331  21.035  10.944
39980W        W12273  27.535  39.372  11.569
39981W        W12274  14.777  12.126  11.962
39982W        W12275  24.145   1.783  10.127
39983W        W12276  24.510  32.887   4.807
39984W        W12277  27.611  41.436  14.032
39985W        W12278  40.332   5.346  11.090
39986W        W12279  37.407  39.333   3.311
39987W        W12280   2.809  16.622   4.272
39988W        W12281   4.855  15.260  14.437
39989W        W12282  11.628  12.308  11.948
39990W        W12283  25.148  18.583   0.877
39991W        W12284  34.513   9.336   2.413
39992W        W12285  26.607   1.288  13.052
39993W        W12286   6.805  36.039  14.023
39994W        W12287   9.712  33.536  10.540
39995W        W12288  35.403  44.874  11.078
39996W        W12289  14.748  29.066   2.237
39997W        W12290  21.047  31.591   9.658
39998W        W12291  33.542  34.080  13.933
39999W        W12292   9.360   0.927   4.312
40000W        W12293  24.663  38.833   1.795
40001W        W12294  25.568  31.053  11.598
40002W        W12295  34.894  22.567  10.414
40003W        W12296  13.633  13.162   2.890
40004W        W12297  40.962  24.051  14.841
40005W        W12298  36.514  33.457  12.935
40006W        W12299  35.092   4.413   1.919
40007W        W12300  42.495  44.826   4.170
40008W        W12301  11.765   5.780   2.209
40009W        W12302  23.710   5.238   4.285
40010W        W12303   1.457  41.315  12.005
40011W        W12304  28.447  32.622  12.895
40012W        W12305  37.563   1.335  11.086
40013W        W12306   1.414   0.881  11.881
40014W        W12307  11.668   0.881   4.701
40015W        W12308  33.970  36.034   3.361
40016W        W12309  16.250  36.905   0.768
40017W        W12310  20.574   4.224  10.515
40018W        W12311  14.823  34.971  13.890
40019W        W12312  39.862  30.117   2.775
40020W        W12313  15.743   1.753  13.981
40021W        W12314  28.480  44.288   0.861
40022W        W12315  18.238  29.469  14.484
40023W        W12316  26.048   4.924   4.231
40024W        W12317  12.828  31.019  13.309
40025W        W12318  17.109   4.417   0.425
40026W        W12319  22.600  30.037  14.891
40027W        W12320  31.931  18.157   1.842
40028W        W12321  19.176  35.853  12.476
40029W        W12322  29.043   9.670   3.291
40030W        W12323  26.668   1.751  14.322
40031W        W12324  34.511   7.234  11.412
40032W        W12325  11.239  23.719   3.776
40033W        W12326  11.180  28.998   3.706
40034W        W12327  21.192  19.212   0.421
40035W        W12328  34.035  22.503   4.276
40036W        W12329   9.744   4.750   0.922
40037W        W12330   7.356   2.384  10.951
40038W        W12331  15.649  21.531  10.642
40039W        W12332  14.146  34.570  10.481
40040W        W12333  31.056  39.845  11.587
40041W        W12334  44.358   5.225  12.025
40042W        W12335  42.346  18.057   3.317
40043W        W12336  42.031  20.523  13.816
40044W        W12337  38.508  20.249  12.916
40045W        W12338   6.329  41.531  13.830
40046W        W12339  30.619  30.538   4.762
40047W        W12340  40.807  44.419  10.434
40048W        W12341  25.989  15.612   0.305
40049W        W12342  11.354  22.648   2.836
40050W        W12343  33.976  17.284  14.280
40051W        W12344  18.219  12.753   0.272
40052W        W12345  40.346  25.133   5.287
40053W        W12346  14.746  34.544  12.540
40054W        W12347   9.365  15.668   9.992
40055W        W12348  28.521   9.166  14.448
40056W        W12349  20.649  25.714   4.206
40057W        W12350   3.338  44.351   3.187
40058W        W12351  24.126  15.683   3.713
40059W        W12352  44.468  28.934   1.803
40060W        W12353  29.141  35.857  10.927
40061W        W12354  22.059  27.055   0.908
40062W        W12355  21.065  25.699   1.801
40063W        W12356  12.225  22.510  11.999
40064W        W12357  14.142  28.030   1.694
40065W        W12358  36.567  40.020  11.482
40066W        W12359   3.828  36.943   4.326
40067W        W12360  22.055  13.264   4.259
40068W        W12361  41.797  11.860  10.981
40069W        W12362  38.344  24.595  13.441
40070W        W12363  15.593  36.097  12.940
40071W        W12364  35.970  32.074   2.274
40072W        W12365   7.712  22.006   4.649
40073W        W12366  23.520  28.034  10.420
40074W        W12367  30.612  12.267   3.380
40075W        W12368  16.605  25.145   0.303
40076W        W12369  32.889  38.334   1.397
40077W        W12370   6.803  16.086  12.518
40078W        W12371   0.398   3.226   4.232
40079W        W12372  43.878  42.946  12.868
40080W        W12373  25.965  23.499   2.690
40081W        W12374   0.962  41.959  14.018
40082W        W12375   0.885   9.216   1.899
40083W        W12376  33.041  16.114   2.671
40084W        W12377  35.880  18.257  13.361
40085W        W12378  28.006  35.019  11.070
40086W        W12379  30.052  39.539  13.854
40087W        W12380  34.579   9.650   2.332
40088W        W12381  21.648  20.692  11.428
40089W        W12382  22.223  40.848  12.043
40090W        W12383  30.633  19.158  14.943
40091W        W12384  24.658   3.837   1.738
40092W        W12385  12.207  15.716  12.937
40093W        W12386  10.822  13.137   3.726
40094W        W12387  36.490  40.938   4.610
40095W        W12388   3.416  14.673  12.897
40096W        W12389  23.054  10.167  11.452
40097W        W12390   9.202  38.848   2.395
40098W        W12391  22.114  31.517  14.865
40099W        W12392  23.623   0.871   3.191
40100W        W12393  40.522   8.386   3.812
40101W        W12394   1.964  32.123  12.518
40102W        W12395   5.892  25.125  14.807
40103W        W12396  14.676  16.642   4.620
40104W        W12397  26.485   9.662   0.789
40105W        W12398  34.607  42.923  13.491
40106W        W12399  40.972  13.805  12.390
40107W        W12400   7.261  33.380   3.359
40108W        W12401  16.168  44.813   3.799
40109W        W12402  26.613  25.695  14.854
40110W        W12403  26.009  28.977   2.820
40111W        W12404   6.394  14.619  11.977
40112W        W12405   5.263   5.847   0.303
40113W        W12406   4.322  41.936  13.993
40114W        W12407  23.525  39.319   0.481
40115W        W12408  24.220  42.883  13.424
40116W        W12409   0.438   9.817   3.719
40117W        W12410  34.961  15.730  11.067
40118W        W12411  32.968  26.469   2.317
40119W        W12412  37.032  19.268  13.886
40120W        W12413  28.105  42.793   4.704
40121W        W12414   9.834  15.651  11.081
40122W        W12415  11.748  26.509  13.798
40123W        W12416  35.014  44.413  12.947
40124W        W12417  10.256  37.529   4.706
40125W        W12418  25.995   0.828  14.464
40126W        W12419   6.326  34.014  14.962
40127W        W12420  24.039  14.319  13.439
40128W        W12421   2.315  23.709   2.306
40129W        W12422   4.386  31.526  11.908
40130W        W12423  44.941  14.144   3.329
40131W        W12424   5.830   7.812  12.842
40132W        W12425  13.198  38.993   1.304
40133W        W12426   0.943   8.871   1.448
40134W        W12427  31.944  13.337   0.460
40135W        W12428  30.656  25.109  10.950
40136W        W12429  23.572  19.068   1.789
40137W        W12430  21.658  23.528  12.525
40138W        W12431  38.451   7.820  14.954
40139W        W12432  36.870  35.410  13.007
40140W        W12433   3.246  19.586  12.541
40141W        W12434  18.736  14.679   3.839
40142W        W12435   0.783  33.472   4.131
40143W        W12436  35.541  42.331   2.696
40144W        W12437  34.508  32.489  10.479
40145W        W12438  32.599  11.712   0.935
40146W        W12439   8.171   6.738  13.816
40147W        W12440  32.608   9.827  11.030
40148W        W12441  32.562  33.445   4.643
40149W        W12442  39.976  41.309  10.594
40150W        W12443  17.737   4.413   0.966
40151W        W12444  11.729  38.919   0.345
40152W        W12445  12.670  29.659  13.952
40153W        W12446  37.475  23.707  12.953
40154W        W12447  20.141   1.840   5.111
40155W        W12448   0.847  40.497  13.025
40156W        W12449  25.674  10.350  13.801
40157W        W12450  16.787  19.583  13.340
40158W        W12451   5.315  15.167   2.273
40159W        W12452  21.519  27.538  12.944
40160W        W12453  28.123   3.303   4.265
40161W        W12454  16.074  12.311  11.537
40162W        W12455   5.921  19.764  14.388
40163W        W12456  31.915   5.218  10.946
40164W        W12457  36.080  10.354   1.849
40165W        W12458  30.106  35.554  12.513
40166W        W12459  31.953  33.108   2.184
40167W        W12460  14.618  43.430  10.522
40168W        W12461  37.901  39.439  12.482
40169W        W12462  21.229  36.959   4.657
40170W        W12463  36.885  38.494  14.305
40171W        W12464  16.196  17.195   0.902
40172W        W12465  43.326  37.351   0.851
40173W        W12466  27.640  40.839   1.807
40174W        W12467   0.932  27.582  10.526
40175W        W12468  11.235  30.989  12.967
40176W        W12469   0.852  16.755  11.418
40177W        W12470  21.238  38.447   2.184
40178W        W12471   4.874  18.214  13.479
40179W        W12472  35.443  32.410  14.878
40180W        W12473   6.795   4.813   1.844
40181W        W12474  33.033  23.593  12.522
40182W        W12475  37.561  15.684  10.936
40183W        W12476  31.105  22.997   3.334
40184W        W12477   1.867   0.804  11.111
40185W        W12478  40.947  36.369  13.525
40186W        W12479   6.201  36.479  11.948
40187W        W12480  38.855   4.368  12.927
40188W        W12481   8.665  42.937  10.504
40189W        W12482  26.121  23.214   4.340
40190W        W12483  22.671  10.667   2.216
40191W        W12484  30.484  17.685  12.034
40192W        W12485   9.648  24.000  13.487
40193W        W12486  24.593  16.699   3.767
40194W        W12487  26.143   1.921   4.282
40195W        W12488  42.878  14.327  12.410
40196W        W12489  18.677  24.212  12.950
40197W        W12490  33.582  36.476   0.878
40198W        W12491  43.336  22.200  14.368
40199W        W12492   9.311  30.964  12.882
40200W        W12493  19.191  27.541   0.457
40201W        W12494  17.749  43.485  14.805
40202W        W12495  26.987  21.021   0.420
40203W        W12496  35.499  10.826  12.059
40204W        W12497  22.106  33.989  10.992
40205W        W12498  34.033  33.505   0.745
40206W        W12499  38.882  10.182   1.759
40207W        W12500  32.962   9.764   1.436
40208W        W12501  27.560  38.478   3.746
40209W        W12502  15.168  26.608  13.517
40210W        W12503  22.167  41.294  10.894
40211W        W12504   5.810  21.749  12.542
40212W        W12505   8.367   7.183  13.340
40213W        W12506   3.764  11.127   2.862
40214W        W12507  17.627  16.088   3.211
40215W        W12508  20.565   2.832  11.609
40216W        W12509  30.099  32.472   1.242
40217W        W12510  21.047  31.084  11.433
40218W        W12511  42.397   0.339  13.544
40219W        W12512  15.235  24.136   1.842
40220W        W12513   5.768  38.894   2.716
40221W        W12514  39.335  35.013  12.361
40222W        W12515  28.031   5.261   0.321
40223W        W12516  24.681  30.013   2.764
40224W        W12517  12.282   3.243   3.728
40225W        W12518   9.214  20.683   1.894
40226W        W12519  41.364   7.775  14.310
40227W        W12520  21.598  32.428   0.860
40228W        W12521  17.076  35.966  11.497
40229W        W12522   4.874  43.891  10.604
40230W        W12523  37.381  22.523   3.699
40231W        W12524   9.879  15.627   3.289
40232W        W12525  10.379   4.349   3.866
40233W        W12526  23.989  28.504  12.567
40234W        W12527  30.429  27.628  11.584
40235W        W12528  37.365  44.861   2.780
40236W        W12529  29.437  29.049  12.851
40237W        W12530  44.394  25.121  13.502
40238W        W12531  38.973  13.725  12.858
40239W        W12532  41.394   0.938  10.578
40240W        W12533  12.634   1.883   3.743
40241W        W12534  41.300  10.872  10.892
40242W        W12535  17.193  13.715   2.867
40243W        W12536  37.488  23.000  11.606
40244W        W12537  36.030  44.002   3.277
40245W        W12538  27.487  25.641  13.966
40246W        W12539  23.580  36.956  12.412
40247W        W12540   9.222   7.817  14.338
40248W        W12541  15.102  28.173   0.362
40249W        W12542  23.594   7.363   4.231
40250W        W12543  28.164  37.521   4.795
40251W        W12544  44.761  43.395  12.351
40252W        W12545  29.073  42.996   1.242
40253W        W12546   4.905   9.723  12.828
40254W        W12547  39.337   7.817   2.196
40255W        W12548   8.222   8.255   0.376
40256W        W12549  25.080  10.331  14.380
40257W        W12550  40.524   9.815   4.650
40258W        W12551  29.173  16.800   0.257
40259W        W12552  17.086  13.165  14.925
40260W        W12553  41.979  31.565  11.059
40261W        W12554  34.435  16.248   2.751
40262W        W12555  28.678   8.866  13.880
40263W        W12556   2.379  29.611   3.232
40264W        W12557   0.284  40.395   0.917
40265W        W12558  26.015  24.162   1.868
40266W        W12559   0.385   3.814   1.263
40267W        W12560   0.917   9.830  11.466
40268W        W12561  31.902   0.961  14.938
40269W        W12562   1.460  11.353   0.865
40270W        W12563  42.405  13.674   1.776
40271W        W12564   2.455  44.885   4.709
40272W        W12565  11.654   0.972   0.770
40273W        W12566  33.006   2.226   0.316
40274W        W12567  34.604  38.524   2.345
40275W        W12568  16.714  26.545  11.945
40276W        W12569  44.375   2.898  13.520
40277W        W12570  39.521  20.066   4.147
40278W        W12571  40.425   5.763   3.316
40279W        W12572  15.767  34.903   2.334
40280W        W12573   6.685  38.046   1.752
40281W        W12574  19.676  34.017  11.516
40282W        W12575   6.185  37.868  12.857
40283W        W12576  41.938  14.117   5.154
40284W        W12577   0.812   0.389   0.856
40285W        W12578  11.746  20.231   4.120
40286W        W12579  21.019  21.686  11.442
40287W        W12580  27.536  40.397   4.285
40288W        W12581  21.052  20.602   2.390
40289W        W12582  36.409   5.306   2.850
40290W        W12583  15.668  41.384  11.017
40291W        W12584  39.488  38.989  12.010
40292W        W12585  13.234  40.832  10.997
40293W        W12586  33.563   7.245  10.983
40294W        W12587  26.083  25.119   3.321
40295W        W12588  25.535  35.999  11.055
40296W        W12589  35.462  30.521  12.046
40297W        W12590  11.302  44.823  13.044
40298W        W12591  19.182  19.274  14.906
40299W        W12592  22.091   5.216   1.823
40300W        W12593  43.827   7.241  12.574
40301W        W12594  15.221  40.515  13.909
40302W        W12595  12.814   2.247  11.103
40303W        W12596  24.074   9.867   3.823
40304W        W12597  23.230  22.614  10.926
40305W        W12598  23.111  30.136  13.799
40306W        W12599  28.152  21.225  10.570
40307W        W12600  25.547   2.728   3.175
40308W        W12601  21.135  42.490  14.764
40309W        W12602  17.193  34.058   0.926
40310W        W12603   6.768  30.580   3.342
40311W        W12604   1.311  10.168   3.702
40312W        W12605   5.420  27.589  14.773
40313W        W12606  17.179  33.412   0.837
40314W        W12607   1.857  30.540   0.335
40315W        W12608  20.602  24.184  12.530
40316W        W12609  23.557   7.694  12.021
40317W        W12610  29.150  15.322   0.314
40318W        W12611  21.659  42.987  13.514
40319W        W12612  32.034  44.895  14.968
40320W        W12613  39.355   0.376  14.015
40321W        W12614   8.190  39.477  12.995
40322W        W12615  33.432  14.775   2.299
40323W        W12616  29.108  24.078  11.532
40324W        W12617  19.157  40.311  13.848
40325W        W12618   5.211  29.175  12.403
40326W        W12619  36.365  22.203  14.347
40327W        W12620   9.753  35.393  10.637
40328W        W12621  26.059  43.869  13.000
40329W        W12622  42.838  13.773   3.648
40330W        W12623  35.043  41.794   0.964
40331W        W12624  28.165   6.195   3.330
40332W        W12625  15.217  37.992   1.879
40333W        W12626   6.314  32.559  13.841
40334W        W12627  28.966  28.468   2.879
40335W        W12628  34.046   7.201   0.310
40336W        W12629   0.920  36.441   4.164
40337W        W12630  31.956  28.492   2.753
40338W        W12631  24.139  29.533   3.218
40339W        W12632  23.073  32.085  14.027
40340W        W12633  25.513   4.365   2.366
40341W        W12634  29.151  25.518   1.752
40342W        W12635   5.232  25.544   2.721
40343W        W12636  10.847  19.177  11.371
40344W        W12637  23.548  20.257  14.293
40345W        W12638  36.452  12.724   0.732
40346W        W12639  35.942  24.070  13.867
40347W        W12640   4.890  16.143   4.337
40348W        W12641  13.822  22.199  10.539
40349W        W12642  44.860   1.825  13.818
40350W        W12643  28.499  24.208  14.294
40351W        W12644  20.694  27.610  13.403
40352W        W12645  34.400  34.398   2.831
40353W        W12646   4.922  34.395  14.387
40354W        W12647  24.615  17.580  12.070
40355W        W12648  18.622  34.572   0.772
40356W        W12649   4.758  38.499   2.797
40357W        W12650  31.960  41.961   0.323
40358W        W12651  36.851  19.068   1.812
40359W        W12652   5.819  19.047  13.795
40360W        W12653  14.329  30.523  11.985
40361W        W12654  41.018   9.187  13.386
40362W        W12655  18.734  44.829   2.188
40363W        W12656  11.200  15.166  11.986
40364W        W12657  43.454  30.591  12.072
40365W        W12658  14.220  32.394   3.156
40366W        W12659  23.037  21.116  13.901
40367W        W12660  30.440  43.931   1.740
40368W        W12661  34.438  40.308  13.455
40369W        W12662   6.284   9.313   2.757
40370W        W12663  29.650   5.719   2.688
40371W        W12664  12.804  31.515   4.644
40372W        W12665  28.950  37.536   0.464
40373W        W12666  29.056  35.915   3.866
40374W        W12667   9.749  24.586   0.932
40375W        W12668  25.094  10.651   4.308
40376W        W12669  14.732  27.511  10.624
40377W        W12670  33.381   2.725  14.997
40378W        W12671  26.001  42.946   3.292
40379W        W12672  42.795  14.316   0.858
40380W        W12673   4.857  30.468   3.351
40381W        W12674   8.766  14.240   1.235
40382W        W12675   3.882  11.174   3.328
40383W        W12676  27.121  19.691  14.772
40384W        W12677  14.740   6.676  13.327
40385W        W12678   2.349  21.114   9.957
40386W        W12679   1.413  39.960   4.214
40387W        W12680  44.791  17.751   0.330
40388W        W12681  25.521  43.465   4.681
40389W        W12682  13.606  41.923   2.737
40390W        W12683  30.991  39.030  12.066
40391W        W12684  14.338  40.330   0.334
40392W        W12685   1.440  40.506  13.521
40393W        W12686  13.790  33.519   2.679
40394W        W12687  40.998   7.728   2.412
40395W        W12688   0.414  41.000   4.188
40396W        W12689  20.256  37.060  13.411
40397W        W12690  23.616  27.512   3.866
40398W        W12691  31.574   7.417   0.824
40399W        W12692  36.448  27.510   1.701
40400W        W12693  22.578  36.582  14.872
40401W        W12694  29.549  21.704   1.364
40402W        W12695  17.680  40.507   0.924
40403W        W12696  33.901   3.285   0.812
40404W        W12697  35.946   9.385  14.316
40405W        W12698   0.853  34.932   3.805
40406W        W12699   0.793  42.299  10.534
40407W        W12700  17.697  36.472   3.346
40408W        W12701  37.830  10.331  14.794
40409W        W12702  15.126  25.976   1.445
40410W        W12703   6.305  31.524   1.852
40411W        W12704  19.704  38.912  13.938
40412W        W12705  27.989  31.473   4.285
40413W        W12706   6.695  14.304   3.366
40414W        W12707  11.166  17.295   0.434
40415W        W12708  31.016  26.016  11.531
40416W        W12709  14.639  38.416  13.435
40417W        W12710   9.259   5.705   4.257
40418W        W12711  44.326  32.576  10.502
40419W        W12712  30.459  43.283  12.932
40420W        W12713   9.300   0.347  11.553
40421W        W12714  36.092   4.433   2.329
40422W        W12715  12.618  10.643   4.255
40423W        W12716   5.399  16.308  10.604
40424W        W12717  22.718  42.966   5.112
40425W        W12718  29.024   0.776  11.443
40426W        W12719   3.857   4.280  12.825
40427W        W12720   0.273  17.701   0.933
40428W        W12721  17.173   9.244  10.495
40429W        W12722  14.833  17.613  12.057
40430W        W12723  18.759  12.361  14.912
40431W        W12724  28.059  20.574  10.470
40432W        W12725  17.252  28.460  13.910
40433W        W12726  38.867  19.764   2.796
40434W        W12727   0.884  15.665   3.193
40435W        W12728  19.092  18.276  13.977
40436W        W12729   2.344  24.593  13.541
40437W        W12730   5.247  36.516  14.001
40438W        W12731   7.359  11.809   0.854
40439W        W12732   2.746   0.840   0.914
40440W        W12733  12.621  20.536  10.902
40441W        W12734   9.846   4.302   4.121
40442W        W12735   1.824  14.709   4.617
40443W        W12736  28.520  24.119  13.967
40444W        W12737  11.846  20.140   2.799
40445W        W12738  36.909  36.081  12.481
40446W        W12739  21.726  17.601  12.910
40447W        W12740  19.753  27.023  12.458
40448W        W12741  37.460  42.417   2.194
40449W        W12742  22.013  44.434  13.918
40450W        W12743  21.611  28.656   1.284
40451W        W12744  28.497   3.892   3.688
40452W        W12745  14.726   2.756   0.477
40453W        W12746  40.828   1.970   3.386
40454W        W12747   1.949  28.151  10.998
40455W        W12748  12.631   5.917  14.891
40456W        W12749  39.425  23.086  12.874
40457W        W12750  33.124  10.652  10.974
40458W        W12751  15.716  19.170  13.531
40459W        W12752  16.653  31.436  12.530
40460W        W12753   6.381  18.160  10.411
40461W        W12754  32.018  19.734   3.865
40462W        W12755  11.793  36.529  13.316
40463W        W12756  25.525  24.521   3.850
40464W        W12757  38.849  40.407   4.192
40465W        W12758  11.730  33.049   3.304
40466W        W12759  17.646  13.278  14.974
40467W        W12760  23.034  19.151  11.898
40468W        W12761  29.468  13.737  11.936
40469W        W12762   8.825  19.543   4.319
40470W        W12763  16.752  28.625  11.992
40471W        W12764  26.052  31.058   1.831
40472W        W12765  26.977  35.550  12.951
40473W        W12766  18.612  19.640   2.689
40474W        W12767  40.515  11.134  13.000
40475W        W12768  44.430   8.296   4.309
40476W        W12769  21.645  22.018   3.215
40477W        W12770   8.221  21.722  13.009
40478W        W12771   7.823  43.967   3.273
40479W        W12772  33.929   9.342   2.316
40480W        W12773  37.519  28.124   3.163
40481W        W12774  20.721  44.873  10.904
40482W        W12775  32.046   8.269  14.459
40483W        W12776  38.455  26.645  13.407
40484W        W12777  33.560  13.658   3.309
40485W        W12778  35.904  32.593   4.704
40486W        W12779   6.738   6.728  11.951
40487W        W12780   6.848  10.230  10.988
40488W        W12781   0.959  20.108   3.839
40489W        W12782  15.674  20.539   1.700
40490W        W12783   5.332  18.111  14.774
40491W        W12784  12.346   4.938  12.961
40492W        W12785  18.295  29.532   3.681
40493W        W12786  39.328   7.205  11.582
40494W        W12787  18.109   7.708  11.891
40495W        W12788  32.112  15.193  13.918
40496W        W12789  29.476  11.195  14.904
40497W        W12790  21.166  32.977   0.921
40498W        W12791   3.353  25.019  10.919
40499W        W12792   9.813  23.193  12.070
40500W        W12793  23.547  14.683   2.766
40501W        W12794   2.746   5.714   1.768
40502W        W12795   8.314  15.776   4.735
40503W        W12796  35.905  23.065   0.344
40504W        W12797   0.414  40.384  11.376
40505W        W12798   4.341  32.971   1.809
40506W        W12799  42.860  35.983   3.301
40507W        W12800   9.222  13.776  13.381
40508W        W12801  42.456   8.667  11.611
40509W        W12802  38.960  18.200   1.846
40510W        W12803   3.803   1.939   4.736
40511W        W12804  25.086  43.813  12.848
40512W        W12805  35.854  29.117  13.482
40513W        W12806   7.705  14.184   4.831
40514W        W12807  43.968  25.698  13.802
40515W        W12808  17.308  24.038  13.010
40516W        W12809  34.908  42.351   1.216
40517W        W12810  14.183   0.349   1.892
40518W        W12811  26.690  26.601   2.809
40519W        W12812  27.000  37.972   0.949
40520W        W12813  30.994  12.300  14.956
40521W        W12814   3.258  10.327  12.901
40522W        W12815   8.821   0.745   3.760
40523W        W12816  32.458   2.294   0.893
40524W        W12817   1.926  36.354  11.537
40525W        W12818   3.380  40.003   3.285
40526W        W12819  28.482   9.201   0.384
40527W        W12820   1.734  29.956  12.997
40528W        W12821  43.515   2.246   3.296
40529W        W12822  29.948  15.166  10.557
40530W        W12823   3.718   2.373   4.118
40531W        W12824  10.804  23.672   5.148
40532W        W12825  14.180  37.902  13.357
40533W        W12826   4.220   5.826   0.739
40534W        W12827  23.173   1.861  13.062
40535W        W12828   5.211  25.014   4.152
40536W        W12829  24.207  33.460   9.921
40537W        W12830  22.732  14.601   0.819
40538W        W12831  23.181  21.130   2.229
40539W        W12832  31.057  41.501   9.969
40540W        W12833  36.094   4.263  10.965
40541W        W12834   7.183  22.051  14.891
40542W        W12835   9.157  36.491  13.888
40543W        W12836  25.692  39.363   4.351
40544W        W12837  15.190  14.201   1.273
40545W        W12838  31.404  30.644  11.608
40546W        W12839  35.576  18.216   3.354
40547W        W12840  27.583  21.128   0.433
40548W        W12841  12.680  37.878  13.477
40549W        W12842   9.228   6.282   1.887
40550W        W12843  21.209  23.552   0.264
40551W        W12844  37.948  41.381  14.408
40552W        W12845  10.736  13.111   0.424
40553W        W12846  30.064  34.887  11.985
40554W        W12847  41.904  14.272   0.438
40555W        W12848   2.420  15.245  13.443
40556W        W12849  27.951  24.600   0.755
40557W        W12850   7.358  24.162   4.650
40558W        W12851  24.660  34.534  12.466
40559W        W12852   9.832  42.307  12.394
40560W        W12853   6.851  34.930  13.512
40561W        W12854  21.084  43.513  14.959
40562W        W12855  22.176  22.052   3.307
40563W        W12856  22.208  26.037  12.435
40564W        W12857  16.153   4.232   2.739
40565W        W12858  22.745  19.729  12.404
40566W        W12859  15.245   0.788  11.399
40567W        W12860  14.314  11.168  14.324
40568W        W12861  34.984  17.304   0.271
40569W        W12862  21.668  34.086  11.056
40570W        W12863  25.004  42.030   4.267
40571W        W12864  23.692  10.680  11.128
40572W        W12865  21.690  34.606  14.997
40573W        W12866  10.782   4.387   3.330
40574W        W12867   9.670   5.374  12.363
40575W        W12868  18.261   8.381  10.644
40576W        W12869   0.389  16.769   1.920
40577W        W12870   7.242  19.664  13.038
40578W        W12871  40.905   3.750   4.664
40579W        W12872  43.953  20.069   0.450
40580W        W12873  30.069  17.588   1.360
40581W        W12874  32.566  32.033  13.400
40582W        W12875   7.295   2.380  12.925
40583W        W12876   5.365  11.816   0.917
40584W        W12877  14.162  17.656   2.888
40585W        W12878  22.010  10.265  13.844
40586W        W12879   4.764   7.880   5.250
40587W        W12880  17.707   6.821  13.922
40588W        W12881  17.096  43.814  13.404
40589W        W12882  19.238  42.316  11.399
40590W        W12883   5.283  20.753   3.822
40591W        W12884  26.992   9.812   0.910
40592W        W12885  17.065   8.825   5.218
40593W        W12886   5.815  24.548  14.913
40594W        W12887  29.538  18.628  11.595
40595W        W12888  30.453  13.620  14.414
40596W        W12889  22.999  29.464  13.527
40597W        W12890  44.267  27.666   3.256
40598W        W12891  21.056  37.882   5.301
40599W        W12892  33.622  26.503   0.419
40600W        W12893  38.537  42.801   1.280
40601W        W12894  18.635   6.343  11.958
40602W        W12895  10.265  12.300  13.997
40603W        W12896  29.166  41.890  13.877
40604W        W12897  33.550  10.858   0.461
40605W        W12898  20.227   7.363  11.015
40606W        W12899  24.152  20.534   1.812
40607W        W12900  41.809  26.524   0.901
40608W        W12901  11.782  21.195   4.766
40609W        W12902  24.651  39.918  12.341
40610W        W12903  14.309  33.131   4.339
40611W        W12904   0.953   1.887   2.270
40612W        W12905  22.673  37.457  10.589
40613W        W12906  27.590  40.444  10.998
40614W        W12907   7.335   9.775  10.469
40615W        W12908  37.018   6.715  11.964
40616W        W12909   1.828  18.747   3.789
40617W        W12910  34.874  31.974  11.896
40618W        W12911   7.186  40.940   2.727
40619W        W12912   9.390  14.772  13.498
40620W        W12913  28.128  21.691   2.369
40621W        W12914   1.891   3.744   0.384
40622W        W12915  14.166  36.918   2.811
40623W        W12916  13.771  25.654   3.326
40624W        W12917   1.256  39.016  13.481
40625W        W12918  34.050  40.528   2.276
40626W        W12919  23.052  41.336  12.403
40627W        W12920   2.735  37.528   2.270
40628W        W12921   7.890  33.903   4.342
40629W        W12922  36.426   1.870  14.485
40630W        W12923  17.638   3.438  11.476
40631W        W12924   1.918  15.707   0.750
40632W        W12925  37.336  33.591  11.055
40633W        W12926  36.548  20.159   4.232
40634W        W12927  31.939  17.114  11.388
40635W        W12928  35.572  32.058  11.986
40636W        W12929  34.506   8.252   3.834
40637W        W12930  29.490  19.653  11.005
40638W        W12931  24.608  32.610   0.304
40639W        W12932  37.072  36.504  10.485
40640W        W12933  36.448  11.219  12.375
40641W        W12934  19.673   8.311  14.787
40642W        W12935  26.618   5.896  10.616
40643W        W12936   6.414  16.177  14.798
40644W        W12937  35.395   1.758  14.320
40645W        W12938  24.201  42.914   0.780
40646W        W12939  31.096   6.819  14.987
40647W        W12940   4.765  41.446   1.792
40648W        W12941  34.066  29.047  13.414
40649W        W12942  33.525   6.851  11.970
40650W        W12943  19.054  24.709  14.829
40651W        W12944  10.796  35.432  14.801
40652W        W12945   4.407   0.855  11.393
40653W        W12946   2.396  15.093  12.468
40654W        W12947  27.562   0.305  14.911
40655W        W12948   0.288   4.294  12.375
40656W        W12949  42.406   9.255   0.868
40657W        W12950   7.410  22.631  14.898
40658W        W12951  22.616  20.220  13.842
40659W        W12952   1.735  29.111  11.389
40660W        W12953  20.747   4.297  14.007
40661W        W12954   2.408  41.898   2.837
40662W        W12955  11.705  36.374   3.260
40663W        W12956   1.880  38.400   3.323
40664W        W12957  36.843  33.423  12.086
40665W        W12958   3.802  32.550   3.718
40666W        W12959   6.849  40.421  11.947
40667W        W12960  28.173  23.990   4.235
40668W        W12961  25.612  34.013  13.896
40669W        W12962  22.707  22.168  11.051
40670W        W12963   0.391   6.320  10.508
40671W        W12964  32.953  26.056  13.544
40672W        W12965   0.274   9.203  11.057
40673W        W12966  15.642  33.090   1.840
40674W        W12967  26.585  12.313  11.915
40675W        W12968  16.084  14.154   4.678
40676W        W12969  18.728  28.470   2.728
40677W        W12970  42.972  43.855   1.884
40678W        W12971  34.014  39.540  11.028
40679W        W12972  23.564  32.547   1.400
40680W        W12973  19.105   5.869   0.827
40681W        W12974   8.862  43.494  14.937
40682W        W12975  42.980  40.536  13.371
40683W        W12976  41.339   4.332   2.336
40684W        W12977   5.852  15.705   0.829
40685W        W12978  24.088  33.903   1.786
40686W        W12979  35.450  18.777   1.261
40687W        W12980  22.128   7.384  11.474
40688W        W12981   2.472  41.501  13.797
40689W        W12982   2.288  38.349  13.975
40690W        W12983  12.120  12.288   2.239
40691W        W12984   2.349  34.576  13.886
40692W        W12985  19.088  39.872   4.616
40693W        W12986  24.686  11.358   0.748
40694W        W12987  19.196   9.340   1.300
40695W        W12988  13.183  28.469  10.499
40696W        W12989  32.606   4.777   3.171
40697W        W12990   7.170  12.259   0.442
40698W        W12991  44.406  33.494   3.720
40699W        W12992  18.635  22.695  12.498
40700W        W12993  44.810  29.124   3.642
40701W        W12994  27.558  10.143  12.390
40702W        W12995  14.111  39.335  11.371
40703W        W12996  24.185  30.477  13.451
40704W        W12997   1.865   1.291   0.315
40705W        W12998  16.797  14.218  11.881
40706W        W12999  38.450  24.202  10.945
40707W        W13000   6.750  21.520  13.469
40708W        W13001   4.802  25.025  11.573
40709W        W13002  17.678  37.086   3.371
40710W        W13003  32.059  25.506  11.980
40711W        W13004  25.503  31.643  13.791
40712W        W13005  20.610   3.314   1.888
40713W        W13006  26.569  38.924   1.738
40714W        W13007   1.778   6.274  11.860
40715W        W13008  27.636  31.477   1.400
40716W        W13009  29.102  42.335   1.406
40717W        W13010  10.680   5.424   0.733
40718W        W13011  28.540   6.795   1.733
40719W        W13012   5.293  18.694   4.789
40720W        W13013  31.458  14.664  10.930
40721W        W13014   5.220  29.153   1.749
40722W        W13015   4.879   0.913   1.804
40723W        W13016   5.271  11.361  11.477
40724W        W13017  24.086  16.171   3.750
40725W        W13018  24.211  34.009  11.975
40726W        W13019   2.922  15.149   3.345
40727W        W13020  13.761  29.961   1.218
40728W        W13021  32.903  22.197  11.384
40729W        W13022  29.129   3.901  12.870
40730W        W13023  28.450  12.703  12.843
40731W        W13024  14.787  30.994  10.465
40732W        W13025  15.238  32.043   3.180
40733W        W13026  39.057  26.590   1.391
40734W        W13027  23.009   0.859  14.301
40735W        W13028  24.107  23.657  13.907
40736W        W13029  10.149  11.305   2.677
40737W        W13030   9.351  19.050  14.902
40738W        W13031  27.446  25.124  10.564
40739W        W13032   5.889  18.258   0.419
40740W        W13033   1.268  22.143  14.488
40741W        W13034  32.519  28.636   4.352
40742W        W13035  16.754  23.230   0.441
40743W        W13036  13.265   7.303  11.978
40744W        W13037  36.932   1.929  11.053
40745W        W13038  36.896  29.502  11.504
40746W        W13039  28.093  10.163   2.735
40747W        W13040  31.611  12.211  11.883
40748W        W13041  38.528  26.633   3.808
40749W        W13042  31.018  20.654   0.440
40750W        W13043   8.796  18.552  14.352
40751W        W13044  25.487  42.781  11.954
40752W        W13045   7.815  40.360  12.981
40753W        W13046  19.676  43.772  12.895
40754W        W13047  39.998   5.215   3.658
40755W        W13048  34.398  14.672   4.282
40756W        W13049  25.488  17.742   3.249
40757W        W13050  28.521   9.839  12.367
40758W        W13051  10.146   5.211   3.352
40759W        W13052   1.391  34.113  10.438
40760W        W13053  18.761   7.181  12.065
40761W        W13054  24.571  28.515  13.433
40762W        W13055  10.348  30.465   3.368
40763W        W13056   9.388  32.041   3.644
40764W        W13057  15.644  16.255  11.894
40765W        W13058  33.403  36.918  11.059
40766W        W13059   2.767  42.337   1.837
40767W        W13060  18.198   6.919   1.791
40768W        W13061  17.687   0.450  10.486
40769W        W13062   3.772  12.266   0.305
40770W        W13063  13.333   1.944   1.413
40771W        W13064  35.508  25.673   2.315
40772W        W13065  21.535  21.547  12.477
40773W        W13066  18.234  35.526  10.632
40774W        W13067  14.285  23.025   4.172
40775W        W13068  33.383  37.830  14.335
40776W        W13069   4.829  41.466  10.008
40777W        W13070   9.663  35.010   5.623
40778W        W13071  27.518  32.602  12.994
40779W        W13072  15.224  18.715  12.546
40780W        W13073  41.319  12.626  13.446
40781W        W13074   4.824   1.435   3.862
40782W        W13075  21.218  26.185  11.126
40783W        W13076   3.287  44.919  11.484
40784W        W13077  27.059  11.226  10.992
40785W        W13078  37.440  41.324  14.410
40786W        W13079  29.148  19.623   3.841
40787W        W13080  10.144   5.849   2.179
40788W        W13081  28.058  25.183   1.449
40789W        W13082  12.209  25.637   3.836
40790W        W13083   4.752  34.874  14.431
40791W        W13084   7.391  19.109  14.508
40792W        W13085  39.972  30.916  13.950
40793W        W13086  13.839  32.140  14.502
40794W        W13087  12.779  44.349  14.504
40795W        W13088  42.906  36.092   2.760
40796W        W13089  25.575  39.498  14.853
40797W        W13090  24.704  30.954   1.915
40798W        W13091  36.399  36.570   3.195
40799W        W13092  33.109  22.008  10.469
40800W        W13093  10.155  29.454   1.814
40801W        W13094  22.539  35.024   4.152
40802W        W13095  24.609  36.867  13.347
40803W        W13096  10.224  23.156  11.860
40804W        W13097  19.131  11.797  10.536
40805W        W13098  32.581  40.031   3.264
40806W        W13099  39.344  27.979   3.309
40807W        W13100   3.891  33.081  11.926
40808W        W13101  21.168  33.474   0.447
40809W        W13102  40.391   6.370   1.447
40810W        W13103  43.903   0.980   0.773
40811W        W13104  41.908  41.998  11.127
40812W        W13105  44.945   9.293  14.372
40813W        W13106   6.870  28.943  14.790
40814W        W13107   1.772   0.835   2.696
40815W        W13108  20.652  18.234  12.053
40816W        W13109   0.744  11.827   3.146
40817W        W13110  41.873  29.092   2.825
40818W        W13111  18.590  25.993  14.760
40819W        W13112  43.418  22.524  13.964
40820W        W13113  20.268  10.798   1.234
40821W        W13114  37.833  18.087  14.492
40822W        W13115   7.305  25.104  13.527
40823W        W13116  35.531  28.454  13.372
40824W        W13117  24.060  34.885  11.923
40825W        W13118   0.852   6.424   4.295
40826W        W13119  30.487  22.114   3.222
40827W        W13120   9.342  22.720   2.343
40828W        W13121   3.758  35.532  11.502
40829W        W13122  15.759  38.988   1.227
40830W        W13123  42.908  17.557   3.279
40831W        W13124  16.807   2.923  13.425
40832W        W13125  35.867  17.741  11.918
40833W        W13126   0.407  17.586  13.961
40834W        W13127  32.974  30.924   2.752
40835W        W13128  28.473  36.019  12.851
40836W        W13129  15.232  42.959   0.838
40837W        W13130   3.388  16.145  12.980
40838W        W13131  39.354  24.214   0.418
40839W        W13132  43.368  21.236  13.929
40840W        W13133   1.959  10.273  10.498
40841W        W13134  36.347  24.128   4.314
40842W        W13135  44.380  14.141  14.983
40843W        W13136   5.862   4.387  11.857
40844W        W13137  25.517  39.820  10.448
40845W        W13138  25.117  23.679   2.694
40846W        W13139  36.870  42.439  13.343
40847W        W13140  34.481  26.638  13.537
40848W        W13141  30.517   1.263   3.863
40849W        W13142   0.394   2.362  11.521
40850W        W13143  32.912   8.822   2.883
40851W        W13144  27.172  25.675   3.718
40852W        W13145  12.852  24.637   0.950
40853W        W13146  35.986  29.592  14.006
40854W        W13147  33.436  18.740  12.963
40855W        W13148   1.964  39.374   0.968
40856W        W13149  36.052  29.957   0.369
40857W        W13150  31.124  27.577   1.871
40858W        W13151  17.576  42.846   3.373
40859W        W13152  38.473  32.094  14.998
40860W        W13153  34.436  23.184  11.506
40861W        W13154  19.655   4.289  11.099
40862W        W13155  36.942  12.616  12.366
40863W        W13156  21.066  39.512   4.149
40864W        W13157   5.273   3.349   3.705
40865W        W13158  30.940  40.386   3.651
40866W        W13159   5.319   0.808  13.038
40867W        W13160  39.541  33.475  11.911
40868W        W13161  17.070  40.970  10.598
40869W        W13162  19.721   4.395  14.954
40870W        W13163  37.009   8.846   3.283
40871W        W13164   2.394  32.002   1.756
40872W        W13165   5.390  43.847   4.299
40873W        W13166  40.836  44.399  11.512
40874W        W13167  21.231  37.053   3.162
40875W        W13168  21.604  11.648   3.365
40876W        W13169  35.414  24.689   0.911
40877W        W13170  24.624  28.671   4.145
40878W        W13171   5.919  17.235  11.951
40879W        W13172   3.916  34.549  14.916
40880W        W13173  38.420  36.485  13.834
40881W        W13174  13.800   4.805  12.580
40882W        W13175  14.654   4.263  11.006
40883W        W13176  43.785  38.557  12.995
40884W        W13177  16.613   8.202   2.297
40885W        W13178  10.729  40.335   2.856
40886W        W13179  11.190  27.065   3.220
40887W        W13180  32.466   1.738   3.664
40888W        W13181  34.118   1.253  12.827
40889W        W13182  10.301  28.636  13.342
40890W        W13183  19.553  21.547  13.382
40891W        W13184  34.005  11.267  12.478
40892W        W13185  42.937  41.851   2.197
40893W        W13186  41.480  28.071  10.531
40894W        W13187  32.056  27.589  11.481
40895W        W13188  11.283  19.573  11.380
40896W        W13189   1.407   2.362   4.142
40897W        W13190  22.738  43.501  14.832
40898W        W13191  17.795  16.588   0.446
40899W        W13192  32.513   8.281  11.611
40900W        W13193   5.318  12.777  14.284
40901W        W13194  15.090   5.258   3.788
40902W        W13195   9.238  32.987  10.628
40903W        W13196  22.734   3.884  12.920
40904W        W13197  33.954  35.914  12.570
40905W        W13198  22.663   6.776  13.949
40906W        W13199  21.175  37.497   3.316
40907W        W13200  31.961  21.584  11.430
40908W        W13201  22.015  12.702   3.643
40909W        W13202   2.830  44.999   2.210
40910W        W13203  12.798   8.287   4.628
40911W        W13204  27.959  32.622   1.212
40912W        W13205   3.343  22.639   0.849
40913W        W13206   2.371   8.314  13.931
40914W        W13207  16.653  10.633   0.259
40915W        W13208   7.347  17.750   2.259
40916W        W13209  26.570  29.533  14.281
40917W        W13210  19.604   4.926   0.279
40918W        W13211  23.512   0.268  13.968
40919W        W13212  12.227   7.389   4.124
40920W        W13213  19.651  43.494   1.713
40921W        W13214   9.251  30.144   4.670
40922W        W13215  15.799  43.826   1.318
40923W        W13216   4.301   7.242   3.178
40924W        W13217  23.198  39.873  11.557
40925W        W13218  23.169  39.324   1.338
40926W        W13219  39.453  41.898  13.394
40927W        W13220  23.048  32.442  14.432
40928W        W13221   1.382  19.116   2.889
40929W        W13222  13.831  40.889   4.170
40930W        W13223   4.280  22.207   1.839
40931W        W13224  10.701  38.358   0.273
40932W        W13225   5.359  18.768  12.548
40933W        W13226  11.794   1.360   1.743
40934W        W13227  15.254  38.467  11.906
40935W        W13228  37.997   9.348  12.532
40936W        W13229  25.628   1.784   3.163
40937W        W13230  33.404  41.845   1.428
40938W        W13231   3.915   0.250  12.958
40939W        W13232  15.735  32.392   2.727
40940W        W13233  37.864   5.328  11.948
40941W        W13234  31.619  13.341   1.328
40942W        W13235  13.344  21.621   1.347
40943W        W13236  13.185  26.207   4.132
40944W        W13237  23.630   8.725   1.933
40945W        W13238  27.037   4.891   4.342
40946W        W13239   7.862  14.220  12.938
40947W        W13240  30.028  17.161  12.853
40948W        W13241  28.657  42.282  14.320
40949W        W13242   4.793   4.228   1.281
40950W        W13243   6.791   8.871  11.039
40951W        W13244  19.676  36.062   3.635
40952W        W13245   0.883  30.155  14.960
40953W        W13246  42.004  12.644  13.966
40954W        W13247  17.558   4.276   0.413
40955W        W13248   5.194  36.866  12.519
40956W        W13249   5.230   7.776  10.925
40957W        W13250  44.816  44.449   2.694
40958W        W13251  44.338   0.344   1.383
40959W        W13252  37.975  18.581   2.329
40960W        W13253  20.231  38.543  11.589
40961W        W13254   3.937  17.142   1.400
40962W        W13255  32.600  23.134  12.095
40963W        W13256  13.748  30.435   1.922
40964W        W13257  28.564  29.079   1.347
40965W        W13258  43.855  14.328  13.441
40966W        W13259  20.107  33.951   4.260
40967W        W13260  18.136  36.953  12.495
40968W        W13261  25.986  28.077  12.061
40969W        W13262  10.195   2.446  11.526
40970W        W13263  42.834  13.205  11.025
40971W        W13264  41.802  10.849   1.732
40972W        W13265  44.001  36.405   3.779
40973W        W13266  19.172  15.274  11.062
40974W        W13267  44.284   0.446  12.914
40975W        W13268  43.403  27.016   1.354
40976W        W13269  21.023  42.017  11.896
40977W        W13270  19.237   2.884   2.281
40978W        W13271  32.495  24.068  14.968
40979W        W13272  44.274  29.514  14.812
40980W        W13273  21.573  13.706   1.696
40981W        W13274  37.403  29.561  11.051
40982W        W13275  17.079  38.536  12.994
40983W        W13276  22.250   1.876   1.222
40984W        W13277  19.582  30.066   4.705
40985W        W13278  35.988  38.955  10.424
40986W        W13279   4.352   5.721  11.585
40987W        W13280  19.229  16.722   2.296
40988W        W13281  26.678  12.279   1.417
40989W        W13282  33.556  24.600  14.306
40990W        W13283  23.598  29.493   3.242
40991W        W13284  12.341   4.738   1.866
40992W        W13285  23.657  23.521  12.088
40993W        W13286  43.816  39.450   0.927
40994W        W13287  11.177   1.912   3.802
40995W        W13288  10.670   5.272  12.541
40996W        W13289  10.227  19.175  11.606
40997W        W13290  29.665  35.921  10.567
40998W        W13291   5.213   2.800  14.957
40999W        W13292  27.687  33.975   1.259
41000W        W13293  33.034  13.272  12.071
41001W        W13294  19.723  34.114  10.981
41002W        W13295   2.753  34.595   4.754
41003W        W13296  30.990   8.845   3.846
41004W        W13297  37.352  17.290   1.252
41005W        W13298  24.076   7.387   2.796
41006W        W13299  43.439  27.040   2.355
41007W        W13300  12.300  37.027  13.537
41008W        W13301   5.878  38.932  10.934
41009W        W13302  12.341  32.044  11.472
41010W        W13303  25.574  29.426  13.346
41011W        W13304  39.552  26.697   3.163
41012W        W13305   7.873  37.450  14.952
41013W        W13306  34.061  32.972   0.384
41014W        W13307  26.126   2.956   3.716
41015W        W13308   3.764   9.807  14.283
41016W        W13309   2.851   6.910   2.701
41017W        W13310   7.693  12.307   2.188
41018W        W13311  18.697   1.449   4.267
41019W        W13312  18.260  39.331  13.386
41020W        W13313  15.328  44.367  11.415
41021W        W13314   3.229  30.444   0.269
41022W        W13315  42.426  16.752   4.717
41023W        W13316   5.384  26.190   4.830
41024W        W13317   2.915   4.806   3.373
41025W        W13318  24.617  44.786  10.953
41026W        W13319   6.698  26.566  13.395
41027W        W13320  39.945  39.422  13.543
41028W        W13321  13.168  12.796  14.452
41029W        W13322  18.588  19.762   5.223
41030W        W13323  15.147  38.060   0.852
41031W        W13324   8.808   2.260   1.929
41032W        W13325  35.416   1.263  14.385
41033W        W13326  19.074  32.534   2.744
41034W        W13327  26.475  21.559   9.990
41035W        W13328  23.551   9.267   3.856
41036W        W13329  22.549  13.295   3.788
41037W        W13330  19.732  33.985  13.382
41038W        W13331  34.928  37.433   2.863
41039W        W13332  15.624  26.508   5.113
41040W        W13333   6.815  38.511   3.841
41041W        W13334  28.165  28.970   1.231
41042W        W13335  37.443  43.382   0.810
41043W        W13336  42.988  38.874   0.257
41044W        W13337  27.609  33.951   2.780
41045W        W13338   3.441  10.815  13.959
41046W        W13339  29.463   7.776  14.812
41047W        W13340  40.352  30.141  13.012
41048W        W13341  34.978   5.408  10.433
41049W        W13342   3.396   5.367   0.333
41050W        W13343  21.528  36.433  12.922
41051W        W13344  41.893  21.667  12.510
41052W        W13345  40.336   9.371  11.560
41053W        W13346   7.839   6.398   2.341
41054W        W13347  36.349  37.411  13.394
41055W        W13348  16.792  38.919   3.716
41056W        W13349  38.334  35.931  12.344
41057W        W13350  19.148  13.759  12.559
41058W        W13351   3.358  22.246   4.177
41059W        W13352  24.622  24.544  13.343
41060W        W13353   2.921  36.404  14.286
41061W        W13354  14.678  29.521  13.383
41062W        W13355  34.527  26.015  12.561
41063W        W13356   4.230  19.238   3.858
41064W        W13357  24.213  30.598   1.220
41065W        W13358  32.453  23.201  13.348
41066W        W13359  11.172  13.625  12.405
41067W        W13360  13.311   3.871  14.931
41068W        W13361  35.386  23.175  13.414
41069W        W13362  40.354  16.697  11.928
41070W        W13363  34.870  22.106   0.936
41071W        W13364  24.627  20.552  14.375
41072W        W13365  42.878  30.420   1.215
41073W        W13366   2.812  28.089  13.335
41074W        W13367  41.034  43.503  11.958
41075W        W13368  27.525  21.036   2.715
41076W        W13369  24.091  28.117   9.958
41077W        W13370  25.509  37.573   3.649
41078W        W13371  32.993   0.835  12.365
41079W        W13372  21.545  36.502   4.276
41080W        W13373  26.644  15.732  12.863
41081W        W13374  11.700  27.680   3.672
41082W        W13375  23.017  44.427  10.960
41083W        W13376  21.211  40.887   3.719
41084W        W13377  29.120   8.173   2.697
41085W        W13378  40.339  21.064   3.740
41086W        W13379  11.211  12.234   4.808
41087W        W13380  13.314  10.702  13.919
41088W        W13381  33.553  30.040   0.770
41089W        W13382  13.601   4.877  14.425
41090W        W13383  23.178  14.822   4.114
41091W        W13384  29.460  19.062  13.793
41092W        W13385  44.838  21.123   2.397
41093W        W13386  32.103  10.334   3.260
41094W        W13387  26.988  41.923   1.392
41095W        W13388  32.946  32.476   4.788
41096W        W13389  23.535  11.321   3.278
41097W        W13390  17.719  33.388  10.078
41098W        W13391  20.648   6.272   0.955
41099W        W13392  41.818  44.877  12.372
41100W        W13393  24.555  30.535  10.426
41101W        W13394  26.512  25.003   1.214
41102W        W13395  11.358  12.700  10.518
41103W        W13396  44.463  30.633   3.272
41104W        W13397  11.372  44.332  12.369
41105W        W13398  17.789  26.597   2.711
41106W        W13399  22.086  33.482   2.900
41107W        W13400  25.472  40.515   0.393
41108W        W13401  22.556  22.692  12.974
41109W        W13402  44.341  37.556  12.957
41110W        W13403  31.502   1.362   3.807
41111W        W13404  23.166  40.000   1.907
41112W        W13405  26.643   8.308   3.334
41113W        W13406  34.884  32.530  10.636
41114W        W13407  19.767  29.924   9.966
41115W        W13408  26.027  14.300  12.074
41116W        W13409  21.717  36.999   1.808
41117W        W13410   9.681   4.409   0.927
41118W        W13411   2.773  19.170  14.510
41119W        W13412   7.325  39.819  10.620
41120W        W13413  31.431  44.434  12.885
41121W        W13414  16.273  23.562  12.056
41122W        W13415  27.622  40.409  13.509
41123W        W13416  36.072  21.103   4.285
41124W        W13417  19.686  24.485  10.481
41125W        W13418   2.323  23.653  11.021
41126W        W13419  13.830  12.286  11.503
41127W        W13420  14.790  44.491  14.349
41128W        W13421  25.066   0.431   3.629
41129W        W13422  34.562  12.832  11.036
41130W        W13423  19.705  41.502   2.854
41131W        W13424  13.112  31.123   4.816
41132W        W13425  30.507   9.230  11.502
41133W        W13426  29.951  32.970   2.743
41134W        W13427   0.402  35.450  11.123
41135W        W13428  44.007   3.268  14.343
41136W        W13429   5.710  11.234   2.210
41137W        W13430  17.074  24.094   3.821
41138W        W13431   5.271   0.972   3.667
41139W        W13432  19.281  23.638  12.385
41140W        W13433  14.303  16.615   0.399
41141W        W13434   4.342  25.190   3.705
41142W        W13435  39.455  13.785  13.927
41143W        W13436  34.926  36.856   0.468
41144W        W13437  28.092  11.362   2.884
41145W        W13438  17.217   7.844   2.821
41146W        W13439  13.688  22.586  11.396
41147W        W13440  20.714  20.185   1.265
41148W        W13441   8.300  28.068   1.824
41149W        W13442  20.051  40.389   1.907
41150W        W13443   9.232  40.435  13.314
41151W        W13444  13.751  21.132   0.372
41152W        W13445  36.850   1.245   3.714
41153W        W13446  11.286  39.941   4.711
41154W        W13447  26.018  43.492   0.467
41155W        W13448  40.432  16.783  11.502
41156W        W13449  24.035   0.933  13.321
41157W        W13450  21.531  29.645   3.827
41158W        W13451  19.665  35.089  11.516
41159W        W13452   5.831  33.904  12.834
41160W        W13453  10.211  32.399   0.440
41161W        W13454  36.045   7.346   3.854
41162W        W13455  29.461  18.102  10.549
41163W        W13456  25.474  41.391   2.178
41164W        W13457  21.147  14.260   0.780
41165W        W13458  30.976  36.071  11.927
41166W        W13459   1.332  38.870   2.858
41167W        W13460  36.051  30.935   5.257
41168W        W13461   6.807  22.199  10.516
41169W        W13462  41.349  30.569  11.594
41170W        W13463  25.488   2.278   9.665
41171W        W13464  33.498  25.979  11.565
41172W        W13465  17.698   6.394   4.604
41173W        W13466  41.515  40.518  10.963
41174W        W13467  43.283  24.642  11.570
41175W        W13468  19.252  11.793   0.268
41176W        W13469  20.195   7.386  14.295
41177W        W13470   1.345  10.189  12.347
41178W        W13471  37.898  26.485   1.933
41179W        W13472  41.018   2.383   2.358
41180W        W13473  36.938  32.044   0.900
41181W        W13474  21.039  42.450  12.995
41182W        W13475   5.931  20.597   3.279
41183W        W13476  22.093  17.611   4.759
41184W        W13477  25.531   0.744   2.784
41185W        W13478  44.798  42.520  10.501
41186W        W13479  18.643  43.275   3.185
41187W        W13480  22.049  15.154   0.835
41188W        W13481  24.125   8.191   4.193
41189W        W13482  24.037   3.920   4.813
41190W        W13483  40.810  35.553   4.695
41191W        W13484  24.074  34.120   0.841
41192W        W13485   1.954  29.465  10.523
41193W        W13486   4.861  42.806   4.647
41194W        W13487  36.451  37.336   1.928
41195W        W13488   6.783  42.950   1.843
41196W        W13489  17.285  32.429  12.010
41197W        W13490  12.303  43.914  14.984
41198W        W13491  34.389  44.479   3.771
41199W        W13492  19.625   4.240   1.791
41200W        W13493  25.501  17.124   4.202
41201W        W13494  18.752  42.833  13.009
41202W        W13495  10.193  35.005  11.991
41203W        W13496  30.551  20.636  13.417
41204W        W13497  26.981  20.265  12.544
41205W        W13498  40.472  42.927   4.597
41206W        W13499  17.249  32.486   2.399
41207W        W13500  31.632  34.585   3.800
41208W        W13501  17.557  21.737   4.148
41209W        W13502  39.414  37.339   0.474
41210W        W13503  42.789  12.625  12.053
41211W        W13504   2.930  37.460  10.950
41212W        W13505  25.623  32.900  11.425
41213W        W13506  24.614  21.137   2.348
41214W        W13507  30.624  24.635   0.854
41215W        W13508  22.512   0.315  10.044
41216W        W13509  27.118  13.318  14.010
41217W        W13510  16.753  12.765   3.192
41218W        W13511  26.627  11.790  12.874
41219W        W13512  42.417  18.074  13.826
41220W        W13513  33.099  15.788  10.955
41221W        W13514  15.601  41.353   4.827
41222W        W13515  24.574  21.666  13.865
41223W        W13516   5.432  26.679  11.054
41224W        W13517  22.136  20.620  11.919
41225W        W13518  12.193  21.675  10.532
41226W        W13519  34.591   6.685  12.408
41227W        W13520  15.194  32.393  12.414
41228W        W13521  27.037  36.996  14.890
41229W        W13522  44.439  12.850   0.396
41230W        W13523   4.751  12.831   2.191
41231W        W13524  29.021  34.550  14.516
41232W        W13525   0.411  23.673   1.770
41233W        W13526   2.355  41.497  14.423
41234W        W13527  19.605   4.228   3.233
41235W        W13528  30.154   9.746  13.432
41236W        W13529   8.188   0.365   4.699
41237W        W13530  42.823  24.592   2.418
41238W        W13531  36.885   3.764  11.603
41239W        W13532  32.977   6.388  13.339
41240W        W13533  25.166  31.646  11.411
41241W        W13534   1.427  22.249  12.369
41242W        W13535  21.234  11.804   5.232
41243W        W13536  14.731  38.530  13.871
41244W        W13537  13.608   7.200   1.821
41245W        W13538  32.086  31.153  14.841
41246W        W13539  38.021   0.292  14.947
41247W        W13540   4.782  27.679   4.806
41248W        W13541  40.046   5.266   1.237
41249W        W13542  41.000  23.140   1.778
41250W        W13543  10.223  34.526  13.032
41251W        W13544  20.195  27.155  10.940
41252W        W13545  12.715  33.885   0.874
41253W        W13546  38.396  24.694   4.316
41254W        W13547  21.511  31.546   2.673
41255W        W13548  16.644  24.536   1.327
41256W        W13549  41.443   5.406   3.251
41257W        W13550  21.219  29.064   1.860
41258W        W13551   3.221  30.074  10.643
41259W        W13552  37.442  24.062   1.298
41260W        W13553  37.903  31.527  14.505
41261W        W13554  12.119  24.043   1.841
41262W        W13555  36.492  13.164  14.475
41263W        W13556   0.383  14.691   3.642
41264W        W13557  23.538  13.784  11.062
41265W        W13558   2.927  40.512   3.283
41266W        W13559  14.118  35.053   4.188
41267W        W13560  43.298  29.039  12.851
41268W        W13561  15.239   1.316  12.344
41269W        W13562  17.142  31.586  14.282
41270W        W13563  28.119  17.665   0.825
41271W        W13564  10.673  26.497  14.003
41272W        W13565  39.823  28.119   4.199
41273W        W13566   2.231  24.152  10.959
41274W        W13567  13.819  30.056  13.483
41275W        W13568  30.412  33.105  14.384
41276W        W13569   9.864   4.268  11.071
41277W        W13570  29.948  33.443   0.348
41278W        W13571  44.930   8.329   1.380
41279W        W13572   2.899  33.055   1.317
41280W        W13573  43.499  14.688  10.465
41281W        W13574  32.549  27.629   4.740
41282W        W13575   1.376   5.904  10.627
41283W        W13576   1.455   8.247  10.527
41284W        W13577  38.467  22.153   3.653
41285W        W13578   5.223  14.211   1.366
41286W        W13579  19.158  10.160  10.901
41287W        W13580  14.670  33.122   3.780
41288W        W13581  16.121  41.344   1.827
41289W        W13582  27.004  20.266   0.865
41290W        W13583  28.932  10.151   4.733
41291W        W13584  36.365  40.409   0.277
41292W        W13585  33.474  39.844   0.875
41293W        W13586  26.688  29.984   1.694
41294W        W13587  27.966   4.350  10.891
41295W        W13588  27.058  36.585  10.431
41296W        W13589  27.951  10.190  14.013
41297W        W13590  39.349  38.455   1.250
41298W        W13591  38.923  18.782   1.761
41299W        W13592  42.782  14.242  12.008
41300W        W13593  13.205   5.201  10.562
41301W        W13594  42.992  34.491   3.699
41302W        W13595   2.243  34.945   0.854
41303W        W13596  11.749  14.601  11.090
41304W        W13597  11.352   1.786  12.973
41305W        W13598  34.066  31.521  14.986
41306W        W13599  34.519   7.307   2.288
41307W        W13600  33.929  38.920   1.424
41308W        W13601  38.027  21.084   1.290
41309W        W13602  43.996   6.317   2.752
41310W        W13603  33.926  36.041  13.969
41311W        W13604  31.137  37.870  10.990
41312W        W13605   8.865  33.005   0.341
41313W        W13606  22.109  28.147   4.179
41314W        W13607  35.946  36.364  13.439
41315W        W13608  25.707  39.971  14.880
41316W        W13609  26.016  12.256  11.035
41317W        W13610  42.920   8.805  12.465
41318W        W13611   9.230  39.985  10.945
41319W        W13612   3.396   4.403  13.370
41320W        W13613  27.637  21.087  11.116
41321W        W13614  27.962  43.914  14.308
41322W        W13615   7.300   7.254  10.981
41323W        W13616   8.234  20.037  12.989
41324W        W13617  20.732  39.532  11.464
41325W        W13618  38.005  20.635  11.440
41326W        W13619  27.004  38.553  14.497
41327W        W13620  14.142  39.377   1.355
41328W        W13621  20.699  22.250   0.411
41329W        W13622   1.925  40.912   4.183
41330W        W13623  13.766  28.104  11.493
41331W        W13624  24.520  32.533   2.276
41332W        W13625   2.876  33.394  11.580
41333W        W13626  28.981  12.340   0.884
41334W        W13627  17.578  42.327  13.949
41335W        W13628  25.024  21.612   3.760
41336W        W13629  19.777  37.949   2.319
41337W        W13630   7.351  10.340  14.910
41338W        W13631  21.180  38.347   0.965
41339W        W13632  22.233   5.343  14.385
41340W        W13633  19.560  40.387   4.668
41341W        W13634   1.842  36.043   1.315
41342W        W13635  40.354  13.782   4.703
41343W        W13636  15.789  44.364  12.553
41344W        W13637   3.408   3.734   3.749
41345W        W13638  29.563  44.460  12.406
41346W        W13639  28.060  43.913   1.391
41347W        W13640  44.356  18.577   4.642
41348W        W13641  37.475   5.259  13.432
41349W        W13642  26.963   5.351   1.869
41350W        W13643  33.037   1.330  14.787
41351W        W13644  17.606  32.015   0.369
41352W        W13645  31.441  22.613  12.914
41353W        W13646  27.626   2.409  14.316
41354W        W13647   9.156   6.354  13.522
41355W        W13648   5.347  10.661   0.803
41356W        W13649   7.791  32.937   0.396
41357W        W13650  10.212   2.357   3.637
41358W        W13651  42.832  38.428  10.116
41359W        W13652  12.781  26.207   1.877
41360W        W13653  39.968  40.458   1.931
41361W        W13654  41.851  32.421   2.773
41362W        W13655  18.217  38.077  14.911
41363W        W13656   0.457  13.829  14.445
41364W        W13657   4.295  18.786   4.780
41365W        W13658  20.609   4.343   2.828
41366W        W13659  13.243  40.336  11.556
41367W        W13660  17.128  15.820  11.078
41368W        W13661  24.143   8.724   4.153
41369W        W13662  35.424  11.750   1.766
41370W        W13663   5.803  15.617  11.397
41371W        W13664  38.012  37.486   2.396
41372W        W13665  36.889  27.578   0.839
41373W        W13666  32.027  26.583  14.000
41374W        W13667  37.418  16.662  10.928
41375W        W13668  21.182  39.829  14.856
41376W        W13669  29.955  32.014   3.685
41377W        W13670  27.190  34.892  14.894
41378W        W13671   4.735  30.414  12.032
41379W        W13672   0.438   0.912   2.239
41380W        W13673   8.819   1.433  11.932
41381W        W13674  14.728  13.689   0.391
41382W        W13675   3.265   2.413   1.437
41383W        W13676  37.349  29.017   4.783
41384W        W13677  42.945  12.298   2.295
41385W        W13678   3.222  39.359   1.421
41386W        W13679  15.278  25.056  12.568
41387W        W13680  29.017  31.601   4.604
41388W        W13681  16.576  26.160  10.404
41389W        W13682  26.529   8.324   2.731
41390W        W13683   9.834   6.357  12.013
41391W        W13684  12.666  41.318   0.742
41392W        W13685  23.171  13.184  11.613
41393W        W13686   9.734  37.921   3.777
41394W        W13687  42.366   5.870  14.305
41395W        W13688  30.969  43.776   1.353
41396W        W13689  16.253  31.542  13.396
41397W        W13690  40.475  28.035   0.429
41398W        W13691  27.094  30.939  13.519
41399W        W13692   0.811  12.654  12.012
41400W        W13693  42.297  20.231   4.175
41401W        W13694  39.058  22.616  12.518
41402W        W13695  14.328   3.934   5.314
41403W        W13696  40.344  21.189  11.118
41404W        W13697   9.730  21.245   4.241
41405W        W13698  36.419  32.442   1.335
41406W        W13699  42.440  37.862  10.593
41407W        W13700   4.350  22.624  13.932
41408W        W13701  11.627  17.646  14.418
41409W        W13702  19.547  14.259  13.842
41410W        W13703   3.723  38.053   3.371
41411W        W13704  36.400  31.934   0.788
41412W        W13705  16.236  40.000   2.747
41413W        W13706  37.540  30.162   1.210
41414W        W13707   8.837  40.389   1.258
41415W        W13708   7.338   0.479  10.414
41416W        W13709  27.531   8.325  14.373
41417W        W13710  31.646  13.240  13.449
41418W        W13711  15.298  28.467   3.716
41419W        W13712  44.910   0.793  14.022
41420W        W13713  15.187  35.546   2.298
41421W        W13714  24.043  34.556  11.509
41422W        W13715  31.110   2.409  14.439
41423W        W13716  13.186  39.334  13.352
41424W        W13717   5.818  37.895  11.015
41425W        W13718  21.142   2.343  12.452
41426W        W13719  36.441  18.555   4.709
41427W        W13720  26.101  10.752   1.717
41428W        W13721  20.226   3.221   1.360
41429W        W13722  22.597  39.897   0.296
41430W        W13723  43.783  41.348   3.655
41431W        W13724  21.153  12.177   0.883
41432W        W13725   0.823   4.342   3.864
41433W        W13726  11.797  38.530   3.375
41434W        W13727   6.777  26.674  11.450
41435W        W13728  27.007  32.523   1.212
41436W        W13729   5.773  36.059   4.723
41437W        W13730  41.829  11.636  11.885
41438W        W13731  38.528  40.967  12.898
41439W        W13732  16.118   9.207   0.482
41440W        W13733  13.115   5.740  10.562
41441W        W13734  13.828  18.700  14.897
41442W        W13735  18.618   0.287  14.030
41443W        W13736  24.707   3.393   0.764
41444W        W13737   0.898   6.856  10.430
41445W        W13738  19.603  29.653  13.391
41446W        W13739   8.885   0.933  13.938
41447W        W13740  17.746  25.173   2.886
41448W        W13741  36.907   2.798  10.539
41449W        W13742  26.159  14.699  13.541
41450W        W13743  20.215  19.242  14.493
41451W        W13744  31.547   3.737  10.558
41452W        W13745  40.957  26.965   2.765
41453W        W13746   6.355  36.072   4.787
41454W        W13747  20.658  31.143  14.839
41455W        W13748  36.076  41.846  11.115
41456W        W13749  17.771   3.428  13.054
41457W        W13750   2.306  42.419   4.678
41458W        W13751  29.122  21.570   1.753
41459W        W13752  35.049   5.689  14.455
41460W        W13753  23.173  29.013   4.227
41461W        W13754   8.280  10.671  13.498
41462W        W13755   6.259  26.646   2.687
41463W        W13756  20.028  16.169   2.410
41464W        W13757  18.702  20.143   1.862
41465W        W13758   0.362  31.055   2.233
41466W        W13759  36.069  44.480   1.904
41467W        W13760  18.217  30.106   1.922
41468W        W13761  14.681  39.551   1.817
41469W        W13762  32.903  21.593  12.846
41470W        W13763  18.671  18.119   4.286
41471W        W13764   2.460  44.781   1.755
41472W        W13765  44.791   8.344  10.640
41473W        W13766  35.495   4.795   4.113
41474W        W13767  31.989   8.749   3.865
41475W        W13768  33.460  27.118   2.690
41476W        W13769  17.248  32.934   1.276
41477W        W13770  19.160  26.494  12.877
41478W        W13771  21.106   4.278   4.662
41479W        W13772  42.866  28.965   3.333
41480W        W13773  26.553  21.677   0.436
41481W        W13774   0.474   0.895   3.801
41482W        W13775  18.157  37.915   2.844
41483W        W13776  10.746  37.347  13.962
41484W        W13777   2.863  42.310   2.714
41485W        W13778  16.594   5.899   4.679
41486W        W13779  36.949  35.411  12.428
41487W        W13780  32.138   5.742  13.402
41488W        W13781  15.722  26.544   0.477
41489W        W13782  23.653  15.280   1.370
41490W        W13783  38.864  42.781   0.958
41491W        W13784  43.813  13.749   3.153
41492W        W13785  36.007   2.267  14.941
41493W        W13786  11.222  13.783   3.226
41494W        W13787  25.004  24.066  15.000
41495W        W13788  13.221   5.238  11.076
41496W        W13789   4.753  24.682  13.002
41497W        W13790  26.132  19.715  10.407
41498W        W13791  26.181   4.370  14.923
41499W        W13792   0.915   8.821  13.432
41500W        W13793  18.779   0.297  11.046
41501W        W13794  30.153  25.485   0.748
41502W        W13795  18.577  15.320   4.278
41503W        W13796  40.896  14.799   0.340
41504W        W13797  16.670  36.352  13.535
41505W        W13798  24.001  17.105   0.802
41506W        W13799  30.517  38.031  10.573
41507W        W13800  38.962  26.644   4.295
41508W        W13801  16.297   0.337  12.078
41509W        W13802   3.321  13.269  13.966
41510W        W13803  41.901   1.452  13.909
41511W        W13804  11.239  23.672  11.896
41512W        W13805   6.370  30.047  13.416
41513W        W13806  43.862  33.540   1.801
41514W        W13807  11.699  35.959  11.978
41515W        W13808  21.574   3.263  12.076
41516W        W13809  22.558  29.544   0.347
41517W        W13810  39.911  30.030  14.456
41518W        W13811  24.508   6.189   3.765
41519W        W13812  11.281   1.479  12.559
41520W        W13813  35.474  36.415   1.306
41521W        W13814   6.217  37.451  10.580
41522W        W13815  40.321  26.184   0.434
41523W        W13816   9.794   7.206  11.972
41524W        W13817  29.960   1.404   3.212
41525W        W13818   2.360  19.672   1.731
41526W        W13819  22.205  31.950   0.906
41527W        W13820  16.784  26.170   0.824
41528W        W13821  27.946  19.687   2.859
41529W        W13822   3.901   4.898  13.844
41530W        W13823  18.586  12.339  13.042
41531W        W13824  36.423   3.805  10.635
41532W        W13825  37.444   4.382   3.222
41533W        W13826  42.952  34.009   5.314
41534W        W13827  17.130  32.415   0.276
41535W        W13828   6.318  30.500   9.990
41536W        W13829  12.215  33.086   3.318
41537W        W13830  18.685  20.090   2.839
41538W        W13831  15.218  43.379  10.549
41539W        W13832  14.713  42.894   5.238
41540W        W13833  35.016  29.935  12.843
41541W        W13834   6.859  17.748   2.327
41542W        W13835  13.153   5.898  11.575
41543W        W13836  11.623  14.832   2.784
41544W        W13837  20.123  35.070  13.432
41545W        W13838   2.931  37.514   4.788
41546W        W13839   5.295  17.162  14.457
41547W        W13840   7.903  19.089  10.432
41548W        W13841   2.400  23.517   1.214
41549W        W13842  40.875  26.123   2.833
41550W        W13843   5.822  40.966  11.865
41551W        W13844  22.569  41.302   0.382
41552W        W13845  15.091  10.819  12.926
41553W        W13846   8.861  28.471   1.326
41554W        W13847  11.800  41.992  10.946
41555W        W13848  34.087   2.323   3.854
41556W        W13849  17.198  21.539   0.370
41557W        W13850  10.141  21.240   1.768
41558W        W13851   7.311   8.177  12.874
41559W        W13852  37.411  32.107  13.327
41560W        W13853  15.644  17.307   3.380
41561W        W13854  40.501  14.227   2.722
41562W        W13855  19.590  43.938   0.954
41563W        W13856   7.755   8.742  10.644
41564W        W13857  18.587  38.836  13.506
41565W        W13858  15.712  17.677  10.622
41566W        W13859  34.100  24.721   4.235
41567W        W13860   2.801  23.596  13.840
41568W        W13861   4.377  35.595  13.329
41569W        W13862  13.193  22.566  14.304
41570W        W13863  14.125  29.469   3.172
41571W        W13864  20.571   9.322  11.537
41572W        W13865   7.773  22.165  12.446
41573W        W13866  44.994  35.538   1.449
41574W        W13867   3.255   6.237  12.827
41575W        W13868  36.021   2.940   0.311
41576W        W13869  43.803   0.357  12.402
41577W        W13870  20.573  23.108   2.233
41578W        W13871  30.060  26.587   2.882
41579W        W13872  40.926  17.605   4.816
41580W        W13873   5.439  40.877   2.326
41581W        W13874  32.993  20.570   3.750
41582W        W13875  20.030  39.014   1.317
41583W        W13876  13.763  33.919   4.788
41584W        W13877  42.367   2.313   3.164
41585W        W13878  21.134   2.956   3.161
41586W        W13879  38.568   8.784  14.834
41587W        W13880  37.517  16.585   2.230
41588W        W13881  24.590   4.867   9.930
41589W        W13882  44.424  26.114  12.905
41590W        W13883  39.369   6.755  13.899
41591W        W13884  22.589  40.801   4.164
41592W        W13885  39.998  18.115  12.962
41593W        W13886  17.608  34.864   4.152
41594W        W13887  24.123   2.913   3.296
41595W        W13888  27.067  24.626  12.044
41596W        W13889   7.172   6.368  13.949
41597W        W13890  41.491   8.384  13.905
41598W        W13891   5.241  22.119   0.753
41599W        W13892  32.050  11.306  11.050
41600W        W13893   1.938  18.671   0.428
41601W        W13894  15.176   2.317  14.337
41602W        W13895  34.873  22.584   5.220
41603W        W13896  34.932  26.498   1.808
41604W        W13897  13.728  29.065  13.039
41605W        W13898  19.252  10.815  13.417
41606W        W13899  14.296  14.288  13.800
41607W        W13900  30.052  25.044  12.397
41608W        W13901  21.575  27.187  14.999
41609W        W13902  17.597  44.833   2.675
41610W        W13903  24.581   2.432  11.457
41611W        W13904  31.537  31.923   1.283
41612W        W13905  12.671  41.923  11.559
41613W        W13906  15.688   2.738  12.408
41614W        W13907  35.585  40.052   3.665
41615W        W13908  11.271  23.027   4.824
41616W        W13909  26.091  34.373   1.330
41617W        W13910  37.928   1.802   0.351
41618W        W13911  44.885  40.487  12.495
41619W        W13912  15.270  18.252   2.786
41620W        W13913  24.024  27.091  13.467
41621W        W13914  13.313  35.475   2.392
41622W        W13915  21.634  41.891   0.399
41623W        W13916  36.071  30.120  13.397
41624W        W13917  26.528   6.262  12.548
41625W        W13918  44.305  24.050   4.207
41626W        W13919  38.993  42.974  14.829
41627W        W13920  34.380  21.642   0.864
41628W        W13921   3.861  44.833  14.410
41629W        W13922  19.606  38.437  13.356
41630W        W13923  24.003   4.704   9.465
41631W        W13924  28.501  41.383   1.825
41632W        W13925  24.020  31.568   1.795
41633W        W13926   9.264  33.414  14.801
41634W        W13927  13.309  38.327  13.881
41635W        W13928  32.090  32.909   3.201
41636W        W13929  27.025  33.488  12.084
41637W        W13930  13.606   5.412  13.341
41638W        W13931  44.773  26.064   3.306
41639W        W13932  33.536  38.983  10.025
41640W        W13933  15.166  21.546   2.854
41641W        W13934  16.813  44.457   0.803
41642W        W13935   0.333  14.324  12.065
41643W        W13936  20.667  41.524  11.406
41644W        W13937  13.336  24.973   2.863
41645W        W13938  15.239  26.657  10.638
41646W        W13939   6.696  35.920  10.451
41647W        W13940  18.762  44.281   1.216
41648W        W13941  19.687  39.418  13.521
41649W        W13942  22.601  25.173   4.686
41650W        W13943  31.086  32.438  10.430
41651W        W13944  17.778  29.549  13.408
41652W        W13945  36.528  35.968  10.105
41653W        W13946  22.084  33.007  11.447
41654W        W13947  32.477  24.716   2.178
41655W        W13948   2.934  28.439  13.329
41656W        W13949  42.456  36.077  14.999
41657W        W13950  18.604   0.809  11.512
41658W        W13951  35.466  22.095   1.848
41659W        W13952  16.251  30.090  13.478
41660W        W13953  35.910  42.833   5.128
41661W        W13954  20.049   5.315   4.217
41662W        W13955  34.490  35.407   1.776
41663W        W13956  28.079  11.714   0.820
41664W        W13957  25.701  27.601  11.878
41665W        W13958  18.242  42.489   2.706
41666W        W13959  34.992  27.167  14.908
41667W        W13960  18.121  22.644  11.397
41668W        W13961  38.938  42.904  11.941
41669W        W13962  43.319  34.500  11.040
41670W        W13963  30.443  23.204  14.806
41671W        W13964   7.401  11.635   3.335
41672W        W13965  19.552  36.964   1.840
41673W        W13966  22.658   9.809   2.695
41674W        W13967   7.232  35.911   1.431
41675W        W13968  12.841  33.073  14.817
41676W        W13969  28.458  24.162  14.850
41677W        W13970  16.097   7.411   3.252
41678W        W13971   8.238  27.485   1.740
41679W        W13972   7.895  36.470   0.346
41680W        W13973   5.259   6.276  10.470
41681W        W13974  22.184  40.018  12.027
41682W        W13975  28.651  41.368  14.323
41683W        W13976  24.124  13.813   0.741
41684W        W13977  26.055  35.434  14.421
41685W        W13978  12.780   4.726  12.974
41686W        W13979  33.516  34.106   0.369
41687W        W13980  39.864  18.174   4.215
41688W        W13981  25.541  18.069  14.767
41689W        W13982  24.025   2.369  13.842
41690W        W13983  28.643   0.285  11.424
41691W        W13984  29.647   0.858   2.673
41692W        W13985   2.362  19.150  10.914
41693W        W13986   6.867  13.248   3.811
41694W        W13987  15.755  32.017  12.994
41695W        W13988  37.873   7.213   3.830
41696W        W13989  14.129  33.007  11.021
41697W        W13990  29.083  37.336  12.433
41698W        W13991   2.815  27.562  10.612
41699W        W13992  12.797  37.417   3.730
41700W        W13993  27.987  22.553  13.896
41701W        W13994  11.644  21.717  12.988
41702W        W13995  30.538  28.136  12.925
41703W        W13996  15.119  37.859  13.046
41704W        W13997   5.873  26.597   3.263
41705W        W13998   6.864  10.877  10.411
41706W        W13999  18.233  44.491  13.904
41707W        W14000  30.054  44.891   2.358
41708W        W14001  12.612   9.347   3.764
41709W        W14002  34.606  15.237  14.778
41710W        W14003  33.538  19.161   2.767
41711W        W14004  26.491  18.186   3.368
41712W        W14005  24.179  44.981   4.659
41713W        W14006  18.286  32.007  12.853
41714W        W14007   5.390  15.226  10.941
41715W        W14008  12.630  16.578  11.567
41716W        W14009   8.739  39.855   2.744
41717W        W14010   3.354  41.399  12.385
41718W        W14011  26.042  40.448   1.372
41719W        W14012   0.474   0.354  13.010
41720W        W14013  44.762  34.486   9.626
41721W        W14014   6.268  19.562   2.726
41722W        W14015  41.490  33.442  10.941
41723W        W14016  11.356  28.461  11.503
41724W        W14017  24.626   0.381   2.860
41725W        W14018  33.009  33.517   3.727
41726W        W14019   3.755  31.600   0.942
41727W        W14020   0.364  36.064   3.277
41728W        W14021  27.104  22.541   3.789
41729W        W14022  37.466  27.503  11.425
41730W        W14023   4.791   9.337   0.469
41731W        W14024  37.994  34.120  13.858
41732W        W14025  13.343  24.007   4.256
41733W        W14026  29.025  25.014  10.416
41734W        W14027  20.724  38.445  14.918
41735W        W14028  24.665   1.247  11.461
41736W        W14029  14.694   4.279   1.342
41737W        W14030  18.643   8.300   3.697
41738W        W14031  27.976  23.228   3.185
41739W        W14032  39.539  34.020  10.428
41740W        W14033  22.067   7.400   3.228
41741W        W14034  26.542  12.747   2.720
41742W        W14035  11.213   8.361   4.703
41743W        W14036  10.680  29.631  12.462
41744W        W14037  40.005   0.288  13.442
41745W        W14038   9.214  41.787  12.906
41746W        W14039   5.307  25.565  13.467
41747W        W14040  14.655  30.582  11.492
41748W        W14041  39.998  29.921  12.572
41749W        W14042  31.483  12.823   1.804
41750W        W14043   3.437  26.475  10.407
41751W        W14044  35.519  23.591   1.211
41752W        W14045  32.433  25.664   1.303
41753W        W14046  20.603  21.628   9.998
41754W        W14047  28.170  10.241   9.956
41755W        W14048  29.929  40.882   3.202
41756W        W14049  38.364   9.800  13.992
41757W        W14050   3.800   0.891   1.759
41758W        W14051  35.485  16.629   3.786
41759W        W14052  16.166   3.929  13.992
41760W        W14053  35.988  17.761   0.776
41761W        W14054  20.158  20.603  13.892
41762W        W14055   8.729  29.171   2.747
41763W        W14056   1.286  12.140  12.359
41764W        W14057  30.565  13.809   2.206
41765W        W14058  37.491  31.114  12.852
41766W        W14059   4.257  35.092   2.807
41767W        W14060   7.881  28.050   2.867
41768W        W14061  11.789  42.028  12.074
41769W        W14062  29.029   6.351  11.484
41770W        W14063  20.084   6.386  12.975
41771W        W14064  42.443   7.819  13.985
41772W        W14065  22.231  37.877  10.996
41773W        W14066   5.789   8.334  13.434
41774W        W14067   2.347  32.406  13.025
41775W        W14068  35.436  39.063   4.706
41776W        W14069   2.906   5.351   0.897
41777W        W14070  28.595   8.302   0.359
41778W        W14071  20.148  36.027   0.880
41779W        W14072   8.230  39.816   3.247
41780W        W14073  33.028  23.664  13.954
41781W        W14074  10.329  11.160  11.066
41782W        W14075  40.526   3.870   0.876
41783W        W14076  20.744  23.068   9.525
41784W        W14077  36.881  20.656  10.473
41785W        W14078  22.718  34.413  12.979
41786W        W14079  34.083  14.684   2.744
41787W        W14080  11.336  29.658   2.749
41788W        W14081  22.046  35.414   1.694
41789W        W14082  32.430  23.111   4.709
41790W        W14083  11.181   2.952   2.325
41791W        W14084  12.687  22.206  14.888
41792W        W14085  28.553  19.753  12.048
41793W        W14086  35.413  31.613   2.241
41794W        W14087  17.242  19.780  10.943
41795W        W14088   1.327   1.391   0.319
41796W        W14089  37.910   3.741  14.493
41797W        W14090  30.607  40.819   0.275
41798W        W14091  37.877  18.069  13.020
41799W        W14092  14.607  19.633  10.925
41800W        W14093  17.581  22.031   2.816
41801W        W14094  29.587  22.073  13.393
41802W        W14095   0.323  26.957   2.817
41803W        W14096  28.605   2.232  14.453
41804W        W14097  39.819  29.936   4.729
41805W        W14098  30.481  35.419  14.349
41806W        W14099  24.044  12.832   1.380
41807W        W14100  32.037  40.965  11.957
41808W        W14101  30.925  21.131  12.866
41809W        W14102  44.836  30.101   1.899
41810W        W14103  44.823  34.993  12.825
41811W        W14104  25.169  41.794  11.859
41812W        W14105  13.681  32.968   2.799
41813W        W14106  37.517  12.333  13.323
41814W        W14107   4.259  32.401   2.703
41815W        W14108  24.520   7.303  13.512
41816W        W14109  31.151  25.709  11.587
41817W        W14110  43.501  31.476  13.973
41818W        W14111   6.867  11.863  14.940
41819W        W14112  39.426   4.210   0.894
41820W        W14113   8.743  44.424  12.531
41821W        W14114   1.449  16.719  13.049
41822W        W14115  32.087  19.569   1.706
41823W        W14116  13.744  28.990  11.379
41824W        W14117  31.407  38.865  14.989
41825W        W14118  25.985  34.395  13.373
41826W        W14119  19.206  28.101   4.695
41827W        W14120   8.328  39.560  14.429
41828W        W14121  20.192  29.657   1.766
41829W        W14122  42.924   3.895  14.842
41830W        W14123  22.149  17.643  10.549
41831W        W14124  13.734  10.815  13.917
41832W        W14125  26.063  12.848  12.981
41833W        W14126  21.101  20.571   4.655
41834W        W14127  36.484  39.495  11.376
41835W        W14128   4.253  23.533   0.903
41836W        W14129  13.309  12.287  13.880
41837W        W14130  36.032  26.488  10.564
41838W        W14131  17.705  37.419   4.337
41839W        W14132  40.047  23.529   1.292
41840W        W14133  43.395  23.185   3.835
41841W        W14134  26.613   2.359  11.106
41842W        W14135  19.169  10.248  14.296
41843W        W14136  28.582  38.039   0.949
41844W        W14137  32.033  14.632  14.854
41845W        W14138  19.127  21.210  13.967
41846W        W14139  43.858  36.900  10.112
41847W        W14140  43.895  37.995   0.316
41848W        W14141   3.237  40.865   0.479
41849W        W14142  11.337   3.311  14.307
41850W        W14143  18.114  37.551  10.594
41851W        W14144  22.062   7.865   4.731
41852W        W14145  15.728   9.172  14.853
41853W        W14146  35.084   4.790   2.893
41854W        W14147  21.628  24.691   3.242
41855W        W14148   2.774   7.771   3.319
41856W        W14149  38.041  39.062   4.302
41857W        W14150  17.275  22.118   2.866
41858W        W14151  10.155  36.395  11.946
41859W        W14152   6.787  31.573   3.783
41860W        W14153   8.320  37.548   4.326
41861W        W14154  31.495  38.410   4.133
41862W        W14155  18.190  28.435   3.152
41863W        W14156  41.012   3.234   0.447
41864W        W14157  19.257  27.667  13.380
41865W        W14158  39.831  20.161   1.298
41866W        W14159  44.442  26.122   1.915
41867W        W14160  20.726  33.614  10.055
41868W        W14161  17.295   9.645   4.174
41869W        W14162   0.910   7.894   1.818
41870W        W14163   2.396  41.980   3.240
41871W        W14164  13.123  16.808   0.854
41872W        W14165  32.464  13.614   0.755
41873W        W14166  23.693  21.081  14.351
41874W        W14167  38.869   7.801   5.198
41875W        W14168   1.774  29.086   1.284
41876W        W14169  18.789  25.686   2.413
41877W        W14170  29.996  13.603  11.406
41878W        W14171  23.046  36.498   4.171
41879W        W14172  40.996  20.766   4.266
41880W        W14173  19.228   7.846  10.503
41881W        W14174  31.429  14.651   4.162
41882W        W14175   8.189  12.338  10.911
41883W        W14176  14.212  14.133   0.801
41884W        W14177   8.844  28.454  11.439
41885W        W14178  25.703  39.402  13.869
41886W        W14179  16.122  20.060   0.315
41887W        W14180  19.079  35.038  13.317
41888W        W14181  35.360  43.850   1.308
41889W        W14182  38.374  40.527   0.821
41890W        W14183  24.139   2.281   3.848
41891W        W14184  22.124  28.647  11.964
41892W        W14185  23.540   8.176   0.754
41893W        W14186  28.166  33.571  10.525
41894W        W14187   5.373  43.902  14.397
41895W        W14188  22.142   1.841  13.321
41896W        W14189  28.020  33.474  12.381
41897W        W14190   1.754  14.215   3.819
41898W        W14191  22.564  29.963  10.017
41899W        W14192   0.413  36.890   2.897
41900W        W14193  25.673  26.165   3.791
41901W        W14194  11.164  28.100   0.836
41902W        W14195  27.564   1.401  13.527
41903W        W14196   4.393  39.444  14.846
41904W        W14197  22.728  43.792   1.273
41905W        W14198  32.978  17.579  11.519
41906W        W14199   3.862  37.582  13.006
41907W        W14200  32.512  23.511  10.453
41908W        W14201  13.328   3.855  13.959
41909W        W14202   7.206   6.356   2.271
41910W        W14203  42.354  15.157  12.528
41911W        W14204  24.990  41.320   0.394
41912W        W14205  40.922  36.548   0.877
41913W        W14206  20.734   1.769  10.997
41914W        W14207   0.283  19.738  11.587
41915W        W14208   6.907  42.484  13.488
41916W        W14209  18.141  43.463  12.481
41917W        W14210   1.363  34.594   3.183
41918W        W14211  24.006  44.354  13.521
41919W        W14212  10.234   3.774   4.740
41920W        W14213  15.812  37.972   2.883
41921W        W14214  12.208  37.405  11.104
41922W        W14215  44.370  33.122   3.712
41923W        W14216  13.302  13.824   0.279
41924W        W14217  31.418  41.340   4.276
41925W        W14218   3.436  43.891   1.765
41926W        W14219  34.037  31.095   4.219
41927W        W14220  41.355  10.721   2.724
41928W        W14221  24.638   5.432  14.817
41929W        W14222  21.077   0.315  10.140
41930W        W14223  26.519  32.410   0.389
41931W        W14224   9.783  14.619   1.905
41932W        W14225  12.757  12.773  12.508
41933W        W14226  42.442  22.706  11.608
41934W        W14227  36.844  13.654  12.852
41935W        W14228  25.996  32.426  13.485
41936W        W14229  22.250  27.146   3.380
41937W        W14230  27.537  17.689   1.894
41938W        W14231   8.815   0.775   5.186
41939W        W14232  26.531  19.710   0.246
41940W        W14233  43.348  11.166   4.250
41941W        W14234  29.561   4.873   2.902
41942W        W14235  13.802  34.370  13.884
41943W        W14236   2.905   7.325  12.866
41944W        W14237  18.637  13.240  13.962
41945W        W14238  43.479  44.478  11.067
41946W        W14239  33.406   4.321   0.392
41947W        W14240  35.422  43.302   4.653
41948W        W14241  21.154  15.322   0.750
41949W        W14242   3.358  44.951   2.406
41950W        W14243  25.189  10.754  12.514
41951W        W14244   0.340   6.263   4.243
41952W        W14245  12.275  34.984  10.904
41953W        W14246   7.731  28.636   3.357
41954W        W14247  14.305   7.790  12.094
41955W        W14248  27.624   5.240  12.349
41956W        W14249  28.162   1.892  12.867
41957W        W14250  38.373  33.934  13.413
41958W        W14251  13.347   4.372   1.413
41959W        W14252  31.481  10.710  11.547
41960W        W14253  31.049  23.714   3.666
41961W        W14254  23.643   3.803   3.245
41962W        W14255  31.084   4.847   1.882
41963W        W14256   6.903  39.462   3.701
41964W        W14257  36.504   8.824  12.977
41965W        W14258  15.704  24.708  13.476
41966W        W14259  22.678  30.553  10.003
41967W        W14260   5.306  28.181   9.988
41968W        W14261  24.589   8.664  10.484
41969W        W14262  10.875  24.684  14.767
41970W        W14263   6.745  33.064   4.304
41971W        W14264  13.813   2.784  14.366
41972W        W14265   5.898   6.689  13.423
41973W        W14266  24.034  28.616  11.948
41974W        W14267  35.380  17.257  11.958
41975W        W14268  25.629  17.275  12.549
41976W        W14269   6.290  24.683   2.394
41977W        W14270  32.561   0.378   0.817
41978W        W14271  29.045   1.855  10.502
41979W        W14272   4.274   7.194  14.892
41980W        W14273  25.711  41.042  13.478
41981W        W14274   2.939  31.525   4.247
41982W        W14275   0.381  32.045  10.628
41983W        W14276  39.952  35.958   4.216
41984W        W14277  24.652  26.000   4.773
41985W        W14278  33.014  28.038  10.444
41986W        W14279  40.431  24.134  12.523
41987W        W14280  10.244  43.943   4.173
41988W        W14281  21.667  36.000   2.213
41989W        W14282  17.257  19.281  13.885
41990W        W14283  29.436  39.001   3.632
41991W        W14284   1.286  39.891  10.581
41992W        W14285  43.804  37.834   2.685
41993W        W14286  24.092  24.179   0.372
41994W        W14287   9.170   9.831   1.338
41995W        W14288  10.678  42.445   2.291
41996W        W14289  15.181  12.666  11.065
41997W        W14290  42.503  27.592   1.721
41998W        W14291  37.935  18.582   0.908
41999W        W14292  13.126  16.796   4.189
42000W        W14293  37.908  25.056   4.302
42001W        W14294  44.461   1.265  10.910
42002W        W14295  35.065  11.253   1.806
42003W        W14296  21.591  14.333   0.454
42004W        W14297   8.278  33.512  10.132
42005W        W14298  44.341  19.569   1.758
42006W        W14299  12.129  35.357  10.530
42007W        W14300  37.980  18.719  10.911
42008W        W14301  24.595   5.926  13.943
42009W        W14302   6.335   7.796   2.357
42010W        W14303  34.437  38.869   0.829
42011W        W14304  41.462  32.934   2.266
42012W        W14305  28.932   8.744   1.836
42013W        W14306   7.873   1.892   2.893
42014W        W14307  18.719  29.987  10.550
42015W        W14308  26.643  44.337   0.326
42016W        W14309  16.695  34.885  14.460
42017W        W14310   2.871   9.226  12.412
42018W        W14311  15.756   1.289   3.373
42019W        W14312  14.189  37.988   1.393
42020W        W14313  16.715  43.385  10.633
42021W        W14314  15.617  32.623  13.059
42022W        W14315   9.699   9.806  10.577
42023W        W14316  28.085  33.039  10.442
42024W        W14317  27.110  43.829   2.412
42025W        W14318  34.118  13.779  13.343
42026W        W14319   3.230  42.314  14.802
42027W        W14320  43.774  31.456  10.566
42028W        W14321  14.270  18.617  14.967
42029W        W14322  20.136  25.469   2.335
42030W        W14323  11.824   7.211  10.917
42031W        W14324  41.857   3.800   0.437
42032W        W14325  41.001  40.916   0.901
42033W        W14326   4.734  23.083  11.904
42034W        W14327   2.872  42.008   0.768
42035W        W14328   7.189   7.199  14.878
42036W        W14329  24.110  33.038   4.269
42037W        W14330  44.435  29.666   1.726
42038W        W14331  32.037  20.651  14.317
42039W        W14332  27.109  13.743  11.018
42040W        W14333  17.144  32.585  10.638
42041W        W14334  21.194   6.860   5.278
42042W        W14335  35.866  38.926  12.406
42043W        W14336  36.049  14.686   0.268
42044W        W14337  18.676   6.371   4.251
42045W        W14338   0.843  35.374   3.196
42046W        W14339  27.453  15.199   2.329
42047W        W14340  33.931  30.130   2.821
42048W        W14341  12.795  21.258  10.021
42049W        W14342   9.864   2.406   3.804
42050W        W14343   5.710  37.454  13.847
42051W        W14344  27.559  11.293  13.310
42052W        W14345   2.793  42.484  10.469
42053W        W14346  30.449   9.793   1.447
42054W        W14347  34.464  11.281   1.752
42055W        W14348   6.377  40.048   3.245
42056W        W14349  40.948  40.485   4.178
42057W        W14350   7.773  41.835  12.375
42058W        W14351  43.953  41.795   1.272
42059W        W14352  44.397  24.600   0.835
42060W        W14353  44.949  43.006   5.186
42061W        W14354  22.584  34.052   1.376
42062W        W14355   5.913  14.193   1.726
42063W        W14356   7.333  35.042   1.261
42064W        W14357  10.659  16.127  11.970
42065W        W14358  34.914  29.116   4.308
42066W        W14359  11.268  30.140   0.342
42067W        W14360   5.907   7.670  13.519
42068W        W14361  38.393  36.015   1.297
42069W        W14362   7.780  13.152  13.971
42070W        W14363   8.228  29.977   1.710
42071W        W14364   1.791  28.565  12.472
42072W        W14365   5.742  33.610  11.496
42073W        W14366   0.831   1.301   3.352
42074W        W14367  35.598  38.352  14.927
42075W        W14368   4.822  41.386  14.472
42076W        W14369  27.604  19.753  12.940
42077W        W14370  31.075   9.878  10.917
42078W        W14371  42.436   8.219  12.555
42079W        W14372  36.859  42.989  14.813
42080W        W14373  39.915  40.500  14.465
42081W        W14374  25.040  33.902  13.867
42082W        W14375  17.277  39.933   5.118
42083W        W14376  23.138  26.496  12.562
42084W        W14377  28.618  24.037   5.567
42085W        W14378  41.373  40.969   1.835
42086W        W14379  24.520  27.054   4.649
42087W        W14380  39.909   2.320  13.381
42088W        W14381  32.586   7.825   1.902
42089W        W14382  41.998  20.234  11.026
42090W        W14383  15.584  20.598   4.296
42091W        W14384  10.650  12.790  12.023
42092W        W14385  37.582  34.465   0.363
42093W        W14386  35.901  18.667  11.559
42094W        W14387  29.597  29.036  10.466
42095W        W14388  16.216  39.034   1.273
42096W        W14389  19.066  37.983  12.014
42097W        W14390  28.148  34.578  12.893
42098W        W14391  33.935  41.996   2.417
42099W        W14392  13.301  16.081   4.796
42100W        W14393  27.067  34.060  14.341
42101W        W14394  37.416  30.486   3.238
42102W        W14395  16.225  43.777   2.195
42103W        W14396  38.569  41.969  11.008
42104W        W14397  16.633   4.849  13.525
42105W        W14398   0.744  21.640  11.111
42106W        W14399  22.610   3.258   1.737
42107W        W14400  29.098  38.846   1.443
42108W        W14401  41.988  18.775  14.327
42109W        W14402  25.118  17.257  12.936
42110W        W14403  30.983   9.832  11.954
42111W        W14404  20.661  35.590  13.035
42112W        W14405   8.704  44.756  13.832
42113W        W14406  44.930  14.761   4.756
42114W        W14407  20.740  14.598   1.852
42115W        W14408  44.866  43.910  14.873
42116W        W14409  18.165   9.668  14.454
42117W        W14410  34.014  37.905  12.007
42118W        W14411  44.327  42.284  11.947
42119W        W14412  35.590  44.396   3.191
42120W        W14413  18.626  44.874   4.137
42121W        W14414  42.994  44.755  14.367
42122W        W14415  40.866  21.079   3.744
42123W        W14416  24.673  15.085  12.032
42124W        W14417  24.694   0.342  12.425
42125W        W14418  42.480   5.407   0.443
42126W        W14419  32.539  14.141   4.143
42127W        W14420  44.761  23.184  12.552
42128W        W14421  19.177  14.120  10.505
42129W        W14422  32.589  37.963   1.307
42130W        W14423   7.231  24.049   4.184
42131W        W14424  23.673  12.687  14.796
42132W        W14425  30.648   1.858  13.545
42133W        W14426  13.265  21.246  10.966
42134W        W14427  40.006   9.368  13.500
42135W        W14428  25.469   0.868   0.787
42136W        W14429   9.869  14.182   1.760
42137W        W14430   3.762  36.095  11.611
42138W        W14431  24.515   2.921   0.399
42139W        W14432   6.829  24.651   1.252
42140W        W14433  12.183  43.490   3.189
42141W        W14434  19.122  13.263  11.053
42142W        W14435  14.292  17.221  12.367
42143W        W14436  44.773   8.362   4.252
42144W        W14437  36.887  19.732   4.248
42145W        W14438  10.338  44.383   2.707
42146W        W14439   7.815   0.428   0.911
42147W        W14440  36.862  38.009   3.253
42148W        W14441  27.538  18.704  11.950
42149W        W14442   9.770  11.367   0.467
42150W        W14443  26.024  12.786   2.345
42151W        W14444  14.804  39.370  12.451
42152W        W14445   2.761   7.857   1.795
42153W        W14446  22.650  18.649  14.287
42154W        W14447  24.179  29.946  11.914
42155W        W14448  12.826   8.282  14.873
42156W        W14449   4.859  10.249   2.294
42157W        W14450  12.683  28.438   4.658
42158W        W14451   1.438  38.440   2.791
42159W        W14452  20.242  35.102  13.940
42160W        W14453  44.808  11.233  10.492
42161W        W14454   6.708  12.124   0.385
42162W        W14455  26.016  43.941  13.329
42163W        W14456  32.083   8.847   1.386
42164W        W14457  40.039  13.108  14.030
42165W        W14458  17.253  11.854  14.285
42166W        W14459  40.858  28.549   3.802
42167W        W14460  33.054  14.743   3.771
42168W        W14461  22.054  13.186  13.332
42169W        W14462   5.434  42.436   1.306
42170W        W14463  34.544   4.205   2.218
42171W        W14464  16.077  21.663  12.508
42172W        W14465  37.538  21.531  10.516
42173W        W14466  43.807   1.314  10.514
42174W        W14467  41.858  21.608  13.515
42175W        W14468  19.200   1.731   4.307
42176W        W14469  18.094   0.434   4.150
42177W        W14470  36.361  13.323  12.489
42178W        W14471  31.152  27.115  13.993
42179W        W14472  14.209   1.403  13.828
42180W        W14473  24.698   0.851   0.731
42181W        W14474   3.307  12.198   3.834
42182W        W14475   9.376  31.511   1.401
42183W        W14476  13.325  35.865   1.406
42184W        W14477  22.648  36.470   2.419
42185W        W14478  16.137   9.180  14.009
42186W        W14479  15.625  12.836  10.601
42187W        W14480  27.543  26.656  14.341
42188W        W14481  23.017  36.012   1.234
42189W        W14482   1.763   1.831  10.898
42190W        W14483   8.396  23.548  10.420
42191W        W14484  38.822  35.454  12.089
42192W        W14485  17.085  27.527  12.575
42193W        W14486  36.053  15.172   3.198
42194W        W14487  13.243  30.434  12.402
42195W        W14488  11.770  29.940  12.364
42196W        W14489  32.493  32.493  14.311
42197W        W14490  29.064  13.322   0.885
42198W        W14491  13.264  13.744  12.480
42199W        W14492   7.339   0.491   1.839
42200W        W14493  41.896  13.213  14.507
42201W        W14494  34.479  40.907  10.413
42202W        W14495   2.442  23.508   2.767
42203W        W14496   2.238  40.929   0.434
42204W        W14497   4.805  39.946   4.220
42205W        W14498  35.900  16.289   4.765
42206W        W14499  31.995  31.437   0.773
42207W        W14500  30.150  41.310  10.419
42208W        W14501  23.509  21.534  13.343
42209W        W14502  21.065   2.314  13.810
42210W        W14503  35.544   8.354   0.373
42211W        W14504  39.014   7.362  13.524
42212W        W14505  36.510   2.246   1.394
42213W        W14506  32.538  25.032   0.311
42214W        W14507  31.154  31.601  11.115
42215W        W14508  32.133  23.989  13.473
42216W        W14509  16.181   3.437   0.298
42217W        W14510  30.501  26.662  12.928
42218W        W14511  38.421  39.427   2.311
42219W        W14512  19.198  10.771   4.614
42220W        W14513  38.885  28.600   1.386
42221W        W14514  20.729  28.447  12.959
42222W        W14515  12.626  27.515   4.219
42223W        W14516  25.653  12.118  12.844
42224W        W14517  12.268  36.926   1.778
42225W        W14518  25.148  27.956   4.257
42226W        W14519  25.123  24.687   3.818
42227W        W14520  22.020   9.760  14.462
42228W        W14521  12.331  27.980  11.388
42229W        W14522  28.109  23.652   5.092
42230W        W14523  20.247   8.730  10.452
42231W        W14524  34.031  34.904   2.819
42232W        W14525  23.239   0.290  12.405
42233W        W14526   8.772   6.247  12.524
42234W        W14527  34.078  21.221  11.586
42235W        W14528  25.036  29.118  11.371
42236W        W14529  38.428   0.901   1.325
42237W        W14530  37.582  20.117  12.448
42238W        W14531  20.158  34.945   0.793
42239W        W14532  14.602   1.891  14.496
42240W        W14533  26.679  44.804  11.421
42241W        W14534  27.120  16.073   3.382
42242W        W14535  24.556  34.104   3.690
42243W        W14536  27.655  33.486   2.379
42244W        W14537  28.182   3.776   2.403
42245W        W14538   7.237  43.418   3.194
42246W        W14539  29.090  33.532   0.787
42247W        W14540  33.996  35.393  10.413
42248W        W14541   7.796  19.635  13.921
42249W        W14542  19.064  20.764  12.059
42250W        W14543  18.138   5.900   3.791
42251W        W14544   8.191  15.144   1.769
42252W        W14545  12.235   2.920   9.496
42253W        W14546  13.319  20.189   1.707
42254W        W14547  22.556  29.057  10.475
42255W        W14548  38.420  36.445  12.414
42256W        W14549  40.801   3.382  12.093
42257W        W14550  21.555  41.028  12.095
42258W        W14551  26.554  23.173   1.725
42259W        W14552   5.294   4.359   2.214
42260W        W14553  29.044  16.598  12.450
42261W        W14554  38.015  24.622   4.633
42262W        W14555  38.039  16.184   1.390
42263W        W14556  22.013  24.030  13.035
42264W        W14557  43.917  20.675  10.937
42265W        W14558  22.102  10.186  14.820
42266W        W14559  37.866  31.967   0.278
42267W        W14560  35.415   4.779   2.309
42268W        W14561   9.679   3.319  10.972
42269W        W14562  39.430  26.014  10.510
42270W        W14563  25.638  33.393  11.573
42271W        W14564   2.926  44.432   4.817
42272W        W14565  41.389  26.199  13.460
42273W        W14566  20.227   3.297  13.521
42274W        W14567  41.981  17.734   4.641
42275W        W14568  19.077  37.014   1.341
42276W        W14569  32.576  17.169   2.266
42277W        W14570  39.388   7.417  11.027
42278W        W14571  34.584  16.181  12.347
42279W        W14572   1.818  21.158   4.632
42280W        W14573  27.616   7.714  12.411
42281W        W14574  41.934  28.114  13.027
42282W        W14575  39.061  32.577  13.902
42283W        W14576  11.151   8.766  13.894
42284W        W14577  35.005  25.556  10.532
42285W        W14578   6.815  32.003  13.407
42286W        W14579  41.878  21.670  10.548
42287W        W14580   6.863  39.446   4.141
42288W        W14581  30.946  15.088   3.841
42289W        W14582  25.706  29.654   4.623
42290W        W14583  17.080  38.334   2.211
42291W        W14584  33.419   2.453  10.929
42292W        W14585  33.895  18.561  14.910
42293W        W14586  30.054  23.628   2.700
42294W        W14587  15.672  30.607  13.845
42295W        W14588   6.294  11.786  13.339
42296W        W14589   6.358  24.013   0.278
42297W        W14590  20.627  33.078  14.808
42298W        W14591  35.042  33.614   5.277
42299W        W14592  24.668  30.652   1.343
42300W        W14593  31.900  40.851   3.867
42301W        W14594  11.312  40.404  12.055
42302W        W14595  34.922  35.442   3.200
42303W        W14596  35.412  15.154   3.792
42304W        W14597   2.794  28.669   0.267
42305W        W14598   9.869  41.962  12.405
42306W        W14599   1.324  24.196   0.898
42307W        W14600  33.044   8.186  14.426
42308W        W14601   5.830  36.857  11.120
42309W        W14602  11.760  39.315   4.651
42310W        W14603   2.912  16.200  13.873
42311W        W14604  33.502  35.900  10.493
42312W        W14605  43.792  33.060  11.515
42313W        W14606   8.890  36.036   9.986
42314W        W14607  43.917  19.208   3.652
42315W        W14608  27.052  24.146  11.046
42316W        W14609  14.822  32.509  13.513
42317W        W14610  27.679  35.582   4.118
42318W        W14611  35.479  33.586   0.422
42319W        W14612  26.194  42.837  13.318
42320W        W14613  15.298  21.173  11.987
42321W        W14614   8.737  37.351   2.874
42322W        W14615  22.177  23.085  12.968
42323W        W14616  31.148  35.890   2.216
42324W        W14617  21.705  37.084  11.388
42325W        W14618   6.352  19.157   3.633
42326W        W14619  14.739  41.325   0.933
42327W        W14620  42.850  26.067   0.249
42328W        W14621  24.494  35.943   0.360
42329W        W14622  23.632  20.227   0.249
42330W        W14623  41.987  28.946  11.513
42331W        W14624   0.477  38.443  14.773
42332W        W14625   3.877   4.396  11.488
42333W        W14626  10.257   9.824  10.526
42334W        W14627   9.299  11.128  11.039
42335W        W14628  20.212  15.267  14.447
42336W        W14629  37.576  17.115  11.431
42337W        W14630  33.556  11.662   1.369
42338W        W14631   0.952  13.105  11.447
42339W        W14632  34.503  41.471   4.684
42340W        W14633   3.347  39.502  10.507
42341W        W14634  12.327  42.991  14.479
42342W        W14635  16.289  40.452   4.676
42343W        W14636  43.949  35.417  14.381
42344W        W14637  15.090   7.676   1.799
42345W        W14638  33.492  35.063   5.169
42346W        W14639   6.301  16.222   1.345
42347W        W14640   6.422  16.280   4.264
42348W        W14641  23.601  40.840   3.148
42349W        W14642  15.221   1.836   1.371
42350W        W14643  15.768  23.004  14.823
42351W        W14644   5.340  18.677  14.778
42352W        W14645  11.719   2.469   4.245
42353W        W14646  28.569   3.408  14.451
42354W        W14647   7.816   4.766  13.427
42355W        W14648  12.618  20.116   0.292
42356W        W14649  21.716   4.402  13.868
42357W        W14650  19.166  28.532   2.208
42358W        W14651  41.992  30.653   5.156
42359W        W14652  25.070  10.138   1.223
42360W        W14653  17.719  38.840   0.456
42361W        W14654   5.339  28.088  12.373
42362W        W14655  41.415  19.773  10.979
42363W        W14656  24.613   7.897  13.792
42364W        W14657  14.802   1.449  11.492
42365W        W14658   8.225  38.501   2.717
42366W        W14659  41.891  29.503   2.386
42367W        W14660  16.096  44.432   4.145
42368W        W14661  28.004  35.983  12.827
42369W        W14662  12.780  17.116   3.213
42370W        W14663  27.090  23.172   2.832
42371W        W14664  39.892   7.777   2.205
42372W        W14665  37.543  12.702   0.805
42373W        W14666  41.453  31.601   3.370
42374W        W14667  34.969  27.944  14.891
42375W        W14668  37.501  11.740   2.268
42376W        W14669  36.428  26.541   1.821
42377W        W14670   1.334  36.357   3.309
42378W        W14671  14.108  26.096  11.477
42379W        W14672   4.237  44.352   0.790
42380W        W14673  16.649  30.022   2.828
42381W        W14674   4.925  38.467   0.403
42382W        W14675  30.126  20.740  13.462
42383W        W14676  13.153  22.738  13.385
42384W        W14677  19.281  30.593   0.818
42385W        W14678  41.362   4.793  13.796
42386W        W14679  15.732  33.547  11.872
42387W        W14680   2.812  19.665  12.887
42388W        W14681  33.000  38.911  10.540
42389W        W14682  11.300  38.558  12.486
42390W        W14683  41.453  43.013   4.753
42391W        W14684  15.751  36.877   1.717
42392W        W14685  39.965  38.454   3.320
42393W        W14686  25.038   8.890   3.315
42394W        W14687  42.462   5.357   1.265
42395W        W14688  40.314  17.184  14.328
42396W        W14689   0.339  31.532  13.056
42397W        W14690  40.324  19.114  13.034
42398W        W14691  32.414  15.773   3.193
42399W        W14692  41.332   0.795   0.955
42400W        W14693  25.964  33.618   3.228
42401W        W14694  40.927  36.962   3.235
42402W        W14695  24.038   0.928   1.811
42403W        W14696  33.015  44.796   1.253
42404W        W14697  39.904  31.023  12.827
42405W        W14698  43.306  35.023  13.478
42406W        W14699   0.871  13.276  12.862
42407W        W14700   7.185  41.971  14.940
42408W        W14701  14.607  22.082   4.206
42409W        W14702  28.661  41.370  12.431
42410W        W14703  36.899   5.909   1.259
42411W        W14704  19.697  22.702  14.029
42412W        W14705   8.202  18.267  10.445
42413W        W14706  19.754  38.416   0.341
42414W        W14707  40.349  12.348   0.850
42415W        W14708  28.033   4.729   2.196
42416W        W14709  39.905  22.169  11.927
42417W        W14710  15.801  17.221   2.335
42418W        W14711  17.191   8.361   2.327
42419W        W14712  24.043  41.329   5.201
42420W        W14713  37.419  42.932   1.239
42421W        W14714   3.859   1.833  14.904
42422W        W14715  12.808  20.227  14.006
42423W        W14716   0.435  43.766   4.329
42424W        W14717  16.702  26.652  10.472
42425W        W14718  43.350  33.410  13.338
42426W        W14719  14.682  37.008  12.492
42427W        W14720  18.191  44.479   4.805
42428W        W14721   9.209  28.625   4.338
42429W        W14722  28.155   8.166   0.255
42430W        W14723  39.452   4.445  12.891
42431W        W14724   1.461  34.440   2.847
42432W        W14725  43.972   3.836   4.293
42433W        W14726  19.732  26.670  10.471
42434W        W14727  37.855   8.182   4.710
42435W        W14728   0.859  39.054  13.379
42436W        W14729   3.283  31.521   2.349
42437W        W14730  20.688  26.102   4.182
42438W        W14731  44.770  34.485  13.826
42439W        W14732   2.775  28.931   0.360
42440W        W14733  39.560  44.286   4.307
42441W        W14734  29.038  35.924  14.029
42442W        W14735  22.643  39.401  12.580
42443W        W14736  31.447  12.725  14.385
42444W        W14737  10.372  22.614   3.325
42445W        W14738  31.426  15.156  14.454
42446W        W14739  26.173  24.028   4.267
42447W        W14740  16.103  34.910   0.831
42448W        W14741  32.401   0.338  10.560
42449W        W14742  12.351  36.440   3.186
42450W        W14743  34.476  10.186   4.338
42451W        W14744  15.675  23.578   2.830
42452W        W14745  25.217  22.678   4.707
42453W        W14746  23.120  24.564  11.483
42454W        W14747   8.676  38.550   2.398
42455W        W14748   0.790  39.026  13.921
42456W        W14749  27.531  42.345  12.987
42457W        W14750  14.096  36.870   0.423
42458W        W14751  27.956  13.139  12.542
42459W        W14752  26.634  12.320  12.987
42460W        W14753  12.836  18.260  11.079
42461W        W14754  16.212  41.896  13.403
42462W        W14755  18.154   0.332  11.383
42463W        W14756  31.105   8.889   0.776
42464W        W14757  33.062  23.603  11.518
42465W        W14758  20.255  41.465  10.117
42466W        W14759  23.702  15.800   2.383
42467W        W14760  39.918  24.713   0.909
42468W        W14761  29.611  14.703   4.625
42469W        W14762   5.786   5.309   3.259
42470W        W14763   1.893  11.141   2.256
42471W        W14764  26.955  32.013   4.197
42472W        W14765  15.176  26.528   0.434
42473W        W14766   8.406  28.129  13.377
42474W        W14767  42.815  36.860   5.267
42475W        W14768  12.624  28.108   4.276
42476W        W14769  27.030  21.241  12.387
42477W        W14770  13.825  38.412   0.401
42478W        W14771  31.055  18.083  11.395
42479W        W14772   5.266  44.803  13.425
42480W        W14773  18.731  20.144  12.514
42481W        W14774  30.051   9.193  14.326
42482W        W14775  41.473  10.867  12.543
42483W        W14776  24.516   1.914  13.792
42484W        W14777  38.913  11.667   2.691
42485W        W14778  13.664   2.370   0.778
42486W        W14779   5.235  42.027  10.892
42487W        W14780  27.978  34.876  14.453
42488W        W14781   8.722  42.793  14.853
42489W        W14782  29.138   8.263  12.350
42490W        W14783  23.049  15.662   3.667
42491W        W14784  20.088  36.348   3.751
42492W        W14785  18.185  16.658  14.444
42493W        W14786  22.070  14.339  10.526
42494W        W14787  15.317  24.009  14.949
42495W        W14788  29.144  26.957   2.286
42496W        W14789  43.916  39.385  11.043
42497W        W14790  29.047  35.979  11.390
42498W        W14791  29.486   5.241  14.429
42499W        W14792   1.360  12.840  12.388
42500W        W14793   9.838  44.831   0.941
42501W        W14794  23.634  22.225  12.036
42502W        W14795  10.804  34.453   3.357
42503W        W14796  19.730  32.588  10.028
42504W        W14797  33.024  28.114  11.389
42505W        W14798  22.691  21.572  11.072
42506W        W14799   4.862  24.712  11.907
42507W        W14800   3.956   9.299  13.055
42508W        W14801  35.513  22.213  14.907
42509W        W14802  16.210  21.687   3.383
42510W        W14803  21.595   8.385   4.202
42511W        W14804  25.533  31.116   3.801
42512W        W14805   7.801  16.761   0.461
42513W        W14806  42.527  44.383  14.764
42514W        W14807  23.636   8.672  10.486
42515W        W14808  22.201  27.502   4.609
42516W        W14809  43.401  17.567   2.887
42517W        W14810  22.196  39.525  13.913
42518W        W14811  32.632   6.183   4.686
42519W        W14812   5.237  24.094  12.056
42520W        W14813  39.918   1.731  12.411
42521W        W14814   4.764   6.842  14.902
42522W        W14815   0.933  30.102   4.747
42523W        W14816  44.941   4.259  14.318
42524W        W14817  32.522  25.987   1.408
42525W        W14818   1.364  17.244   4.669
42526W        W14819  34.028  28.136  10.585
42527W        W14820  17.588  42.779   2.319
42528W        W14821  29.169  14.667  14.821
42529W        W14822  18.165  31.630   4.813
42530W        W14823   5.716  41.372  11.426
42531W        W14824  33.431  31.475   0.911
42532W        W14825   2.253   9.830  10.620
42533W        W14826  44.971  12.116   4.240
42534W        W14827  33.412  33.101  10.089
42535W        W14828  25.713  16.155   1.319
42536W        W14829  38.342   3.805   2.790
42537W        W14830  41.957  43.995   2.222
42538W        W14831  11.288  22.114  11.938
42539W        W14832  42.806   2.751  11.908
42540W        W14833  19.534  28.448   0.309
42541W        W14834   2.935  37.995  14.963
42542W        W14835  24.629  13.317   1.711
42543W        W14836  23.037  25.697   0.425
42544W        W14837  18.773  36.504   0.954
42545W        W14838  35.448  29.467  13.979
42546W        W14839  40.468  31.146   1.859
42547W        W14840  43.868  20.184   4.718
42548W        W14841  30.042  34.889   3.763
42549W        W14842  22.102  17.278   4.280
42550W        W14843  13.349  28.008   2.756
42551W        W14844  24.656  31.624   1.382
42552W        W14845  27.059  11.736  11.953
42553W        W14846  19.627  13.110  13.946
42554W        W14847  15.733  26.652  12.052
42555W        W14848  31.528  27.447  11.960
42556W        W14849  32.543  24.004   2.786
42557W        W14850  35.068  26.626  11.039
42558W        W14851   0.848  29.426  13.348
42559W        W14852  16.634   7.822   1.820
42560W        W14853   7.724  33.392  12.078
42561W        W14854  26.532  26.520  14.330
42562W        W14855  30.536  24.077   5.207
42563W        W14856  42.884   2.881  12.947
42564W        W14857   2.268   9.260  13.002
42565W        W14858   8.864  22.590  11.612
42566W        W14859  37.862  41.370   3.669
42567W        W14860  38.362  19.227  11.581
42568W        W14861  22.639  27.521   0.282
42569W        W14862  18.172  20.273   1.439
42570W        W14863  10.251  17.617   0.899
42571W        W14864  31.557  22.536   4.130
42572W        W14865  36.085  16.757  10.932
42573W        W14866   5.268   7.729  10.497
42574W        W14867  15.130   1.800  10.084
42575W        W14868  31.101  29.144  12.431
42576W        W14869  35.993  41.322   1.293
42577W        W14870  36.379   0.811  13.801
42578W        W14871  17.234  30.058  10.129
42579W        W14872  44.431  15.681  14.360
42580W        W14873   5.249  33.528  14.462
42581W        W14874  22.058  10.850   2.370
42582W        W14875  34.580  20.702   4.248
42583W        W14876  35.091  25.124  13.803
42584W        W14877  44.818   9.345  13.517
42585W        W14878  10.858  15.687  13.844
42586W        W14879  22.715  35.966  11.984
42587W        W14880   3.236   5.246   4.183
42588W        W14881  17.159  12.619  10.407
42589W        W14882  10.196  15.658   3.710
42590W        W14883  37.378  10.834   4.315
42591W        W14884   6.264  29.971   3.383
42592W        W14885   0.293  40.490   3.178
42593W        W14886  17.774  17.240   4.321
42594W        W14887  19.133  32.021  14.904
42595W        W14888  44.871   0.413  10.973
42596W        W14889  39.038  27.552   0.479
42597W        W14890  13.336  11.244   3.223
42598W        W14891  42.297  16.588  13.028
42599W        W14892  41.364   3.298   4.624
42600W        W14893   7.686  20.545   1.847
42601W        W14894  44.822   1.396  11.406
42602W        W14895   5.194  16.670   3.332
42603W        W14896  26.073  36.407   2.336
42604W        W14897  39.347  24.630  10.610
42605W        W14898  11.133  10.191  11.887
42606W        W14899  14.267  30.112  14.001
42607W        W14900  43.416  44.296  11.990
42608W        W14901  44.966   2.237  13.335
42609W        W14902  17.155  22.680  14.373
42610W        W14903  28.568  10.149   2.409
42611W        W14904  43.271   6.335  14.946
42612W        W14905   0.946   8.794   1.889
42613W        W14906  14.286   0.941   1.755
42614W        W14907  34.880  27.087   0.768
42615W        W14908  30.522   4.449  11.021
42616W        W14909   2.816  38.540   1.873
42617W        W14910  31.417  37.439   2.789
42618W        W14911   8.213   7.822  12.915
42619W        W14912  30.637  39.929   3.352
42620W        W14913   8.231  10.369  13.337
42621W        W14914  15.726  44.304  11.493
42622W        W14915  36.419   8.230  14.357
42623W        W14916  38.384  26.629   1.414
42624W        W14917  28.111  44.416   2.669
42625W        W14918   2.318  44.801  12.450
42626W        W14919  16.153  39.423   1.765
42627W        W14920  30.609   4.392   1.246
42628W        W14921  39.048  33.380   4.702
42629W        W14922  23.097  10.288  14.275
42630W        W14923  39.007   0.969  14.897
42631W        W14924   8.866   1.257  13.464
42632W        W14925  36.432  17.283  10.604
42633W        W14926   2.453  33.380  14.849
42634W        W14927  42.305  21.236  12.394
42635W        W14928  12.348  37.064   0.834
42636W        W14929  13.633  18.252   1.273
42637W        W14930  18.599  12.716  12.482
42638W        W14931  36.410  22.027  12.559
42639W        W14932   8.315  32.107  11.381
42640W        W14933  13.734  16.591   3.291
42641W        W14934  22.666  26.502   0.922
42642W        W14935   4.888  30.470   0.868
42643W        W14936  15.725  35.466   1.361
42644W        W14937  29.499  25.576  13.540
42645W        W14938  36.465  41.518   3.714
42646W        W14939  27.043   4.386  12.974
42647W        W14940  12.287  33.884   3.250
42648W        W14941  44.448  11.259  11.101
42649W        W14942  11.361  27.522   2.211
42650W        W14943   7.698  26.609  11.116
42651W        W14944  44.391  35.984  13.897
42652W        W14945  28.571  44.364   1.714
42653W        W14946  40.489   5.374   4.260
42654W        W14947  28.056  34.005   4.820
42655W        W14948  20.528  16.261   0.734
42656W        W14949  38.385  29.026   3.650
42657W        W14950   7.666  27.455  10.483
42658W        W14951  38.924  17.155   0.310
42659W        W14952  34.909  16.669   3.196
42660W        W14953  15.166  13.843   3.758
42661W        W14954  26.059  18.610  13.005
42662W        W14955  37.360  42.798  12.436
42663W        W14956   5.247  24.553  10.425
42664W        W14957  18.789  35.052  13.061
42665W        W14958   5.434  32.594  10.983
42666W        W14959  37.520  16.303  10.921
42667W        W14960  24.102   5.227  10.465
42668W        W14961  17.304  10.813   4.205
42669W        W14962  12.322   3.908  13.001
42670W        W14963  21.184  32.109  10.465
42671W        W14964   0.977  11.261  14.938
42672W        W14965   8.867   0.825  12.513
42673W        W14966  26.197  22.729   0.444
42674W        W14967  31.135  24.158  12.531
42675W        W14968  40.392  34.488   1.727
42676W        W14969  22.628  11.268   0.770
42677W        W14970  20.650  16.127  10.516
42678W        W14971  32.994  30.512   2.735
42679W        W14972  28.932  39.538  10.574
42680W        W14973  26.085  24.613  12.972
42681W        W14974  38.553   7.256   0.360
42682W        W14975  27.667   2.921  12.000
42683W        W14976   4.811   8.817   4.627
42684W        W14977   6.796  16.219   0.314
42685W        W14978  20.202  24.512  11.577
42686W        W14979  32.911  26.580  12.836
42687W        W14980  16.566  26.641  14.858
42688W        W14981  42.827   4.802  10.492
42689W        W14982  23.660  10.645  14.444
42690W        W14983  31.437   9.323  11.856
42691W        W14984  27.626   5.838  10.628
42692W        W14985  29.096   4.890   2.229
42693W        W14986   8.894  21.691  11.118
42694W        W14987  25.036  19.547  13.533
42695W        W14988   0.401  21.600   3.331
42696W        W14989  26.196   7.233  11.066
42697W        W14990   6.426  41.526  14.460
42698W        W14991  13.242  34.512  10.539
42699W        W14992   5.818  25.110   1.774
42700W        W14993  20.262  25.202   4.198
42701W        W14994  12.296  37.909  11.109
42702W        W14995  37.063   7.904  11.109
42703W        W14996  29.515   2.389   0.814
42704W        W14997  23.547  15.633   4.248
42705W        W14998  30.948   0.842  12.351
42706W        W14999  18.630  24.678   4.350
42707W        W15000  19.254   1.973   2.752
42708W        W15001   6.370  20.165   4.122
42709W        W15002   6.695  36.861   1.778
42710W        W15003  36.040  44.318  10.623
42711W        W15004  34.492  44.320   4.199
42712W        W15005  44.851  17.096   2.848
42713W        W15006  20.667  41.303  12.825
42714W        W15007  16.730  41.964   3.234
42715W        W15008  42.526  27.949   1.264
42716W        W15009   5.227  18.663  13.374
42717W        W15010   8.754  38.051  13.932
42718W        W15011  39.909  20.630   3.817
42719W        W15012  29.975  44.263  11.895
42720W        W15013  42.988  19.246  10.561
42721W        W15014  17.135  36.982   2.858
42722W        W15015  19.734  19.563  14.318
42723W        W15016  37.962  28.976  13.841
42724W        W15017   7.343  24.976   1.253
42725W        W15018  36.377  38.024   4.830
42726W        W15019  24.116  25.643   0.309
42727W        W15020   7.877  23.613   3.723
42728W        W15021  39.879  36.501   2.814
42729W        W15022  33.546  36.400  10.952
42730W        W15023  21.618  30.941  10.418
42731W        W15024  17.769  39.464  14.995
42732W        W15025  16.208  37.359   2.376
42733W        W15026   6.330  23.535   3.841
42734W        W15027  31.648   1.869  10.997
42735W        W15028  23.505   5.330   0.890
42736W        W15029  42.948  41.900   1.730
42737W        W15030  15.199  21.166   3.643
42738W        W15031   4.794  15.650  12.462
42739W        W15032  10.301  39.840   1.901
42740W        W15033   1.378  23.567   1.421
42741W        W15034  17.614  14.311  10.561
42742W        W15035   0.397   6.332  13.369
42743W        W15036  28.149  11.215   0.254
42744W        W15037   7.216   8.668  12.074
42745W        W15038  35.011   5.823   4.224
42746W        W15039   1.482  14.171  12.904
42747W        W15040  26.489  12.271   3.822
42748W        W15041  37.949  44.452  14.497
42749W        W15042  43.423   9.808   1.931
42750W        W15043  30.521   6.797  11.079
42751W        W15044  27.063  26.145  13.064
42752W        W15045  12.853   5.282  13.940
42753W        W15046  12.657  34.994   2.836
42754W        W15047  35.507  33.874  13.369
42755W        W15048   5.875  32.041   2.728
42756W        W15049   3.392   0.817  11.006
42757W        W15050   2.808   8.209  12.021
42758W        W15051  42.400  17.800  12.059
42759W        W15052   5.782  28.509   4.182
42760W        W15053  14.771  41.323   3.316
42761W        W15054  17.096  23.057   9.456
42762W        W15055  30.564  18.285   3.746
42763W        W15056  13.785  44.303   4.621
42764W        W15057  25.178  23.537   1.364
42765W        W15058  22.207  28.027  14.352
42766W        W15059  37.847   9.782   3.280
42767W        W15060  26.191  44.323  11.044
42768W        W15061  21.136   0.420  14.985
42769W        W15062  11.701  36.416  14.959
42770W        W15063  37.510   1.333  14.367
42771W        W15064  33.914  43.447   0.757
42772W        W15065  18.669   2.841   4.214
42773W        W15066  22.721  22.518  12.578
42774W        W15067  22.675  34.039   4.727
42775W        W15068  31.898   2.737  11.108
42776W        W15069  43.445  24.715  14.291
42777W        W15070  28.580   7.680   1.872
42778W        W15071  22.160  38.062   4.221
42779W        W15072   6.773  32.507  14.952
42780W        W15073   0.310  16.242  12.978
42781W        W15074   9.748  21.582   3.677
42782W        W15075  43.387  35.363   5.113
42783W        W15076  37.885  18.618   4.175
42784W        W15077  27.663   2.373  10.408
42785W        W15078  38.907  14.747  14.803
42786W        W15079  41.438  15.258   2.348
42787W        W15080   7.828   2.847   1.385
42788W        W15081   5.208   0.285  13.548
42789W        W15082  43.887  23.543   1.419
42790W        W15083   0.409   4.750  11.913
42791W        W15084  23.190  44.460  14.274
42792W        W15085  20.184  39.318  13.948
42793W        W15086  36.420   2.806  14.001
42794W        W15087  22.147  19.687   0.923
42795W        W15088  37.464  11.757  12.944
42796W        W15089  39.870   0.403  10.002
42797W        W15090  33.004  14.799  12.002
42798W        W15091  40.471  23.215  12.038
42799W        W15092   9.170   5.917   3.306
42800W        W15093  35.078   8.289   0.841
42801W        W15094  44.308   7.402   1.437
42802W        W15095   0.465  35.572   5.599
42803W        W15096  24.539   5.399   2.762
42804W        W15097  40.835  35.508  12.430
42805W        W15098  22.746  40.395  11.955
42806W        W15099  41.013  42.457  12.392
42807W        W15100  21.079  26.963  10.992
42808W        W15101  29.660  27.650  14.364
42809W        W15102   7.678  31.419   2.328
42810W        W15103  31.943  10.830  11.574
42811W        W15104   7.905  35.021   1.338
42812W        W15105   3.249  38.979  13.808
42813W        W15106  12.203  19.055   0.955
42814W        W15107  22.745  34.087   3.787
42815W        W15108  28.441  38.526  14.390
42816W        W15109  12.725  11.131   2.238
42817W        W15110  14.263   0.919  11.097
42818W        W15111  36.479  19.735  12.045
42819W        W15112  34.464  20.549   1.882
42820W        W15113   0.281   7.671   3.745
42821W        W15114  41.793  40.476  13.854
42822W        W15115   5.727  26.960  11.554
42823W        W15116  39.978  40.315  11.884
42824W        W15117   0.370  19.656  14.398
42825W        W15118  15.823  20.205  11.018
42826W        W15119  23.651  27.125  11.020
42827W        W15120  28.148  22.140  12.983
42828W        W15121  18.666  39.524   0.370
42829W        W15122  23.589  42.304  13.040
42830W        W15123  44.410   9.234  11.860
42831W        W15124  41.335   4.769  11.491
42832W        W15125  13.683   7.187  14.896
42833W        W15126  25.575  39.987  10.134
42834W        W15127  37.426  28.028   4.628
42835W        W15128   9.354  41.358   2.707
42836W        W15129  15.243   8.391  12.947
42837W        W15130  37.982   3.937   3.813
42838W        W15131   6.390   4.416  14.359
42839W        W15132  26.171   1.453   1.834
42840W        W15133  18.742  21.641  10.105
42841W        W15134  27.659  12.629   2.697
42842W        W15135  20.168  31.085   4.752
42843W        W15136  21.223   8.880   1.261
42844W        W15137  40.430   6.825  11.005
42845W        W15138   9.772  22.080   3.818
42846W        W15139   5.260  29.429   3.677
42847W        W15140  41.416  24.703   0.937
42848W        W15141   9.724   1.359  13.341
42849W        W15142  37.919  20.218   3.285
42850W        W15143   8.839  27.482  14.443
42851W        W15144   0.910  22.695  10.560
42852W        W15145  44.429  32.012   0.358
42853W        W15146  37.919  28.151   1.355
42854W        W15147   1.330  21.127  14.946
42855W        W15148   6.792  32.566  13.462
42856W        W15149  15.767  41.319   4.299
42857W        W15150  20.654  15.802  12.031
42858W        W15151  24.039  40.383  14.014
42859W        W15152   8.231  12.689  11.411
42860W        W15153  31.459  26.691   3.821
42861W        W15154  19.636  16.611   1.354
42862W        W15155  35.955  16.272  11.444
42863W        W15156   5.884  43.889  12.022
42864W        W15157   1.245   1.732  11.038
42865W        W15158  38.899  30.073  11.604
42866W        W15159  23.040  17.126  13.023
42867W        W15160  20.564  38.439  10.609
42868W        W15161   4.891  13.783   0.746
42869W        W15162  23.590  37.022  13.875
42870W        W15163   3.437  16.723  13.943
42871W        W15164   8.670  23.096   0.925
42872W        W15165   1.936  28.034  13.884
42873W        W15166   2.259  33.021  14.988
42874W        W15167   2.743  15.740  12.452
42875W        W15168  39.016   6.920  13.447
42876W        W15169   9.257  23.219   4.791
42877W        W15170   4.713  37.523  13.324
42878W        W15171   4.752  11.361   0.430
42879W        W15172  24.119  26.111   3.315
42880W        W15173  33.977  15.110   2.333
42881W        W15174  41.313   0.802   5.639
42882W        W15175   5.911   2.869  10.905
42883W        W15176   7.805  26.679  13.809
42884W        W15177   2.304  29.089   1.777
42885W        W15178  21.161  26.058   3.268
42886W        W15179  43.334   7.688  13.915
42887W        W15180  40.832  29.556  14.814
42888W        W15181  11.352  35.511  12.572
42889W        W15182  15.223   2.816   1.868
42890W        W15183  16.642   7.253  12.001
42891W        W15184  14.805  20.671   3.369
42892W        W15185   3.887  28.141  11.540
42893W        W15186   9.309  42.841   4.825
42894W        W15187  39.427  10.157  10.621
42895W        W15188   9.219  16.638  12.480
42896W        W15189   9.882  25.468   3.282
42897W        W15190  38.494   9.238  10.513
42898W        W15191  28.988  43.941   0.454
42899W        W15192  35.963  43.329   0.774
42900W        W15193  17.134  34.451  10.414
42901W        W15194  10.253  34.962  10.411
42902W        W15195  30.591  35.026   4.152
42903W        W15196  30.051  36.982   0.298
42904W        W15197  17.176  33.478  14.908
42905W        W15198  33.906  11.347   4.643
42906W        W15199   7.251  27.577   1.240
42907W        W15200  35.453  11.142  14.393
42908W        W15201  39.441  21.065  11.546
42909W        W15202   0.745  34.996  11.457
42910W        W15203   5.424  35.946  12.982
42911W        W15204   6.328  36.567   0.923
42912W        W15205   5.243  40.406   3.331
42913W        W15206  28.966  27.610   3.739
42914W        W15207  37.487  26.606   4.352
42915W        W15208  15.187  35.493   1.751
42916W        W15209  20.170  32.908   0.481
42917W        W15210  17.300  41.499   4.123
42918W        W15211  20.231  42.987   0.814
42919W        W15212  16.236  20.683   2.664
42920W        W15213  32.590  35.053  14.361
42921W        W15214   3.429  43.331   2.881
42922W        W15215   3.717  21.232  14.908
42923W        W15216  20.154  26.020   4.642
42924W        W15217   6.278  30.161  10.431
42925W        W15218  31.552  16.297   2.213
42926W        W15219  17.195   3.335   1.238
42927W        W15220  16.759  44.272   3.220
42928W        W15221  10.177   0.278  10.636
42929W        W15222  26.105  11.633   3.256
42930W        W15223  35.531   8.276   1.760
42931W        W15224   3.375  22.179   2.222
42932W        W15225  25.182  20.119   3.228
42933W        W15226  36.559  18.282  12.565
42934W        W15227  35.386  28.035   0.301
42935W        W15228   5.337  26.698   4.325
42936W        W15229  37.856  23.072  11.403
42937W        W15230  31.025   9.747  14.373
42938W        W15231  39.903  13.683  12.580
42939W        W15232  44.938  22.101   1.739
42940W        W15233  11.181  22.228   2.368
42941W        W15234   1.969   0.470   4.661
42942W        W15235  34.501   4.429   0.967
42943W        W15236  29.981  27.686   3.240
42944W        W15237  35.956  11.189   1.758
42945W        W15238  31.447   7.284   5.090
42946W        W15239  30.561  20.572   0.894
42947W        W15240  34.434  17.636  14.495
42948W        W15241  29.602  12.215   1.709
42949W        W15242  14.110  24.157   3.215
42950W        W15243   9.715  29.030   2.700
42951W        W15244  22.660  44.261  11.888
42952W        W15245  35.005  33.612  14.442
42953W        W15246  15.739  31.146  10.076
42954W        W15247   2.722  20.245   1.357
42955W        W15248  25.217   5.276   3.287
42956W        W15249  40.322  30.110  13.922
42957W        W15250  30.097  24.495  14.896
42958W        W15251  30.631  20.117   3.817
42959W        W15252  20.729  38.455   1.742
42960W        W15253  24.704  27.603   1.425
42961W        W15254  44.841  12.194   0.459
42962W        W15255  44.756  27.587   1.775
42963W        W15256  44.380  27.635  13.923
42964W        W15257   2.446  25.010   3.818
42965W        W15258  40.446  41.297   5.322
42966W        W15259  32.103  16.151  12.937
42967W        W15260  29.943  13.222  11.499
42968W        W15261  29.929  17.103   1.789
42969W        W15262  20.259  34.040   1.372
42970W        W15263  21.190  10.322  11.579
42971W        W15264  17.782  29.991   3.793
42972W        W15265  18.670   7.756   1.299
42973W        W15266  24.043  16.741   3.786
42974W        W15267   2.783  34.457   0.877
42975W        W15268   7.845   3.294  10.047
42976W        W15269  31.044  33.037  11.063
42977W        W15270   4.786  27.543   2.750
42978W        W15271  37.452  15.105   0.936
42979W        W15272  19.130   8.271   0.778
42980W        W15273  30.995  17.733   2.419
42981W        W15274  39.498  34.885   3.669
42982W        W15275  27.679   1.249  11.453
42983W        W15276  38.391  25.686   1.267
42984W        W15277   3.261   1.967  10.973
42985W        W15278  14.312  31.021   4.826
42986W        W15279  44.977   7.788   3.636
42987W        W15280   7.379  35.408   1.377
42988W        W15281  11.710  42.443  12.863
42989W        W15282  14.764  37.364  12.348
42990W        W15283  26.190  15.801  13.538
42991W        W15284  16.649  39.950  12.484
42992W        W15285  31.958  39.316   3.684
42993W        W15286  23.571   0.269   4.126
42994W        W15287  35.943  26.121   4.712
42995W        W15288  22.731  25.195  14.340
42996W        W15289  37.985   6.819  10.514
42997W        W15290  44.480  20.626  13.427
42998W        W15291   0.266  44.322  10.932
42999W        W15292  43.771  12.267  10.990
43000W        W15293  16.569  33.449   4.320
43001W        W15294   8.856   4.729  12.386
43002W        W15295   5.902  36.543  11.427
43003W        W15296  10.673  14.191  12.938
43004W        W15297  35.911  37.497  13.015
43005W        W15298   2.465  43.371   3.791
43006W        W15299  25.629  24.076  12.049
43007W        W15300   9.315  27.051   4.133
43008W        W15301  31.968  29.975   2.193
43009W        W15302   6.290  41.498   0.882
43010W        W15303  17.206  17.103  14.918
43011W        W15304  23.631  20.170   2.713
43012W        W15305   3.754  31.034  13.355
43013W        W15306   3.335  26.458  14.446
43014W        W15307  44.856  11.361   4.787
43015W        W15308  19.659  22.170  12.030
43016W        W15309  29.992  43.847   1.889
43017W        W15310  14.268  10.699  11.951
43018W        W15311  15.211  11.860   1.869
43019W        W15312  16.183  11.353  12.884
43020W        W15313  41.001   0.294   3.639
43021W        W15314  11.250  27.501  14.793
43022W        W15315  14.809   8.702   3.782
43023W        W15316   1.369  10.715  14.325
43024W        W15317  20.110   0.460   0.849
43025W        W15318  42.338   0.437  11.989
43026W        W15319  23.622  34.870  14.956
43027W        W15320  13.817   2.313  13.823
43028W        W15321  34.451  38.363   4.603
43029W        W15322  22.617  44.303  14.451
43030W        W15323  12.626  25.127   2.233
43031W        W15324  15.651  21.673  14.968
43032W        W15325   6.739  14.829   0.355
43033W        W15326  40.872  37.064  13.004
43034W        W15327  17.570  17.645  12.044
43035W        W15328   7.753  26.580   2.737
43036W        W15329  12.832  22.578   3.669
43037W        W15330   5.295  25.525   1.242
43038W        W15331   8.364  36.043  14.447
43039W        W15332  25.210  17.771   0.884
43040W        W15333   5.244  17.594  12.979
43041W        W15334  17.680  25.681  11.460
43042W        W15335  21.597  31.567   0.438
43043W        W15336  12.641   1.403  14.505
43044W        W15337   1.430  41.893  13.896
43045W        W15338   3.380   4.937   0.760
43046W        W15339  21.106  42.430   1.874
43047W        W15340  22.670  27.041   1.888
43048W        W15341   9.697   5.833   0.356
43049W        W15342  10.195  13.174   4.683
43050W        W15343  10.842   2.430   3.713
43051W        W15344  11.248  20.659   4.653
43052W        W15345   5.903   6.197   0.367
43053W        W15346   2.829  10.253  14.888
43054W        W15347  10.263   4.911   1.375
43055W        W15348   0.259  28.128  10.938
43056W        W15349  13.347  31.440  14.422
43057W        W15350  41.441  20.575   0.860
43058W        W15351  27.065   2.932   3.294
43059W        W15352   7.188  26.499   4.277
43060W        W15353  38.447   6.748  10.626
43061W        W15354  16.728  35.049   3.772
43062W        W15355  21.242  21.582  13.027
43063W        W15356   9.803  13.304  14.411
43064W        W15357  24.707  14.744  14.801
43065W        W15358  34.962  34.000   2.727
43066W        W15359  20.714  30.955  13.934
43067W        W15360  23.666  31.955   4.161
43068W        W15361   0.940  37.072  11.128
43069W        W15362  10.160  36.964  12.950
43070W        W15363  28.096  25.986  10.915
43071W        W15364  11.720  37.493  11.482
43072W        W15365   6.698  23.136   4.203
43073W        W15366  17.581   8.825   3.196
43074W        W15367  44.789   3.778  11.576
43075W        W15368  39.364  42.475   2.851
43076W        W15369  35.916  14.693  11.872
43077W        W15370  22.667  25.554   4.680
43078W        W15371   2.272  12.666  12.359
43079W        W15372   8.175  26.085   2.190
43080W        W15373  43.920  31.940  13.331
43081W        W15374  23.666  11.295   4.733
43082W        W15375  37.338  14.636  11.043
43083W        W15376  42.311  16.659   1.329
43084W        W15377  39.846  39.066   2.872
43085W        W15378  32.019  44.345   0.368
43086W        W15379  36.843   1.839   3.242
43087W        W15380  22.713  41.481   1.838
43088W        W15381  22.521   9.385   2.815
43089W        W15382  25.005   1.309  14.932
43090W        W15383  22.218  41.043  13.488
43091W        W15384  44.272  24.116   3.654
43092W        W15385  33.529  43.299   3.857
43093W        W15386  13.133   5.334  12.039
43094W        W15387  44.433  40.034   0.913
43095W        W15388  39.978  29.630  13.976
43096W        W15389   0.440  27.462   3.634
43097W        W15390  13.336  36.404  14.498
43098W        W15391  23.708  40.316   0.957
43099W        W15392  16.221  14.770  13.828
43100W        W15393  38.394  19.579   3.289
43101W        W15394   9.827   1.825  11.884
43102W        W15395  38.076  29.595   4.658
43103W        W15396  38.362  31.984   2.187
43104W        W15397  28.493  28.530   2.336
43105W        W15398  29.636   6.875  13.406
43106W        W15399  18.256  44.427   1.716
43107W        W15400  37.468  23.668   3.769
43108W        W15401  31.645  21.736   4.159
43109W        W15402   4.402   4.892  10.599
43110W        W15403   4.752  38.348   3.812
43111W        W15404   1.271   3.766   2.225
43112W        W15405  10.140  24.602  11.376
43113W        W15406  15.646  19.113  11.910
43114W        W15407  31.110  17.084   5.092
43115W        W15408   6.310  40.337   2.826
43116W        W15409  35.035   7.807  14.911
43117W        W15410  27.061  44.391   2.214
43118W        W15411  18.711  22.561   0.399
43119W        W15412  33.471  19.707   3.643
43120W        W15413  33.405  41.410   2.803
43121W        W15414  43.821  44.440   0.470
43122W        W15415  43.422  15.692   4.806
43123W        W15416  40.385  23.493  10.968
43124W        W15417  43.935   5.271   0.438
43125W        W15418  40.849  41.354  11.437
43126W        W15419  35.573  13.693  11.501
43127W        W15420   7.304  11.800  14.320
43128W        W15421  38.824  35.598  11.373
43129W        W15422  21.573  29.147  13.869
43130W        W15423  20.150  29.072  13.437
43131W        W15424  38.921  43.775  13.919
43132W        W15425  27.446  15.665  12.407
43133W        W15426  11.137  17.308   2.318
43134W        W15427  10.791  11.766   0.244
43135W        W15428  35.515  36.977   0.314
43136W        W15429  26.524  34.095   3.771
43137W        W15430  20.731  32.510   3.150
43138W        W15431  33.564  41.990  13.018
43139W        W15432  19.654  25.564  10.566
43140W        W15433  23.645   9.795   0.451
43141W        W15434  38.375   3.911   0.470
43142W        W15435  11.177  33.091  13.002
43143W        W15436  31.010  23.715  13.424
43144W        W15437   5.403  25.481   1.810
43145W        W15438  20.656  26.088   2.319
43146W        W15439   4.858  25.649   0.441
43147W        W15440   2.262  25.608  11.925
43148W        W15441  39.507  24.217  13.999
43149W        W15442   8.294  20.525  13.859
43150W        W15443  34.453  10.642   3.386
43151W        W15444  33.434   9.201   1.325
43152W        W15445  21.018   9.796   1.753
43153W        W15446  44.857  12.634  10.932
43154W        W15447  34.566  36.419   1.917
43155W        W15448  15.298  13.766  10.904
43156W        W15449  23.633   9.317   0.430
43157W        W15450  26.148  30.099   0.926
43158W        W15451  10.668  29.119   2.702
43159W        W15452  14.608  29.447   0.314
43160W        W15453  31.535  22.113   3.374
43161W        W15454   5.320  43.786  10.899
43162W        W15455   6.415  25.043  11.871
43163W        W15456   7.895   7.666   3.641
43164W        W15457  32.457  17.205   0.804
43165W        W15458   6.290   4.823  14.401
43166W        W15459  23.227  27.565  10.494
43167W        W15460  22.699  19.642   3.732
43168W        W15461   7.404  40.517  14.860
43169W        W15462  34.380  11.796   3.189
43170W        W15463  22.116  21.197  10.571
43171W        W15464   8.217   8.710   1.878
43172W        W15465   8.706  25.086   2.824
43173W        W15466  34.938   8.200   3.257
43174W        W15467  18.123  18.598   3.223
43175W        W15468   5.752  34.990   0.862
43176W        W15469   4.346  25.092  12.027
43177W        W15470  24.007  29.657   0.392
43178W        W15471  29.938   2.418  13.969
43179W        W15472  33.450  14.716  13.385
43180W        W15473   8.185  30.490   0.943
43181W        W15474  33.566  39.937  14.760
43182W        W15475   5.264  41.002   4.347
43183W        W15476   3.895  41.859  10.594
43184W        W15477  15.136  19.694   2.780
43185W        W15478  27.097   6.277  13.863
43186W        W15479  11.130  35.456   0.350
43187W        W15480  29.100  32.404   4.645
43188W        W15481   4.771   0.322  11.486
43189W        W15482  32.983   0.467   2.229
43190W        W15483  22.562  30.979  10.958
43191W        W15484  43.842  37.567   4.301
43192W        W15485  33.085  27.623  10.538
43193W        W15486  27.097  38.032   2.707
43194W        W15487  25.100  20.227  12.540
43195W        W15488  27.580   5.713  12.536
43196W        W15489   0.288  10.864  12.077
43197W        W15490  27.494  16.202  13.508
43198W        W15491   0.316  16.648  11.118
43199W        W15492  24.595  31.532  13.428
43200W        W15493  13.640  14.590  14.936
43201W        W15494  40.925   2.879  10.435
43202W        W15495  29.017  12.828   0.353
43203W        W15496  18.155  39.867   2.702
43204W        W15497  38.989  24.673   1.904
43205W        W15498  13.297  26.532   3.652
43206W        W15499  26.657  36.969   1.408
43207W        W15500  24.589  40.502  12.931
43208W        W15501   3.235  39.854  13.312
43209W        W15502  26.524  21.130  11.078
43210W        W15503  44.360  11.652  14.370
43211W        W15504   5.815  35.603  13.420
43212W        W15505  15.626   2.867  13.391
43213W        W15506  26.061  21.226   4.705
43214W        W15507  18.281  32.131   0.343
43215W        W15508  22.563  11.243  12.880
43216W        W15509  27.547  24.654   2.699
43217W        W15510  17.172  12.162   4.719
43218W        W15511  23.497  27.949   3.689
43219W        W15512  12.320  27.450   1.211
43220W        W15513  36.066   9.667  13.477
43221W        W15514  29.606  12.294   0.877
43222W        W15515   3.796  23.700   2.855
43223W        W15516  32.548  39.511  11.499
43224W        W15517  29.526  39.027  12.973
43225W        W15518  15.226  21.639   2.254
43226W        W15519   3.833  22.008   1.443
43227W        W15520  23.575  23.034  11.858
43228W        W15521  37.831  16.712  10.913
43229W        W15522  35.518  30.129  14.879
43230W        W15523  21.176  19.539  12.487
43231W        W15524  18.591  31.490   4.699
43232W        W15525  28.496   2.342  14.863
43233W        W15526   1.447  29.562  13.311
43234W        W15527  25.208  36.845  13.339
43235W        W15528  19.537  23.134   3.223
43236W        W15529  14.151  21.610  12.478
43237W        W15530  41.831  22.126  14.320
43238W        W15531  29.570  13.278  10.620
43239W        W15532  30.137  42.442  11.884
43240W        W15533   7.305  27.944   3.373
43241W        W15534  13.666   1.270   3.154
43242W        W15535   9.243  18.256   0.448
43243W        W15536  29.975  23.107  14.372
43244W        W15537  11.756  10.183   3.797
43245W        W15538   6.298  27.547   2.837
43246W        W15539  39.894  39.966  11.419
43247W        W15540   0.331  15.294   2.726
43248W        W15541  21.615   7.297  11.525
43249W        W15542  37.407  21.528  11.964
43250W        W15543   9.731  40.042   4.824
43251W        W15544   9.369  20.137  11.050
43252W        W15545   8.750   5.707   1.797
43253W        W15546   7.329   3.723  11.989
43254W        W15547   8.395  18.639   4.733
43255W        W15548  33.875  18.752  14.456
43256W        W15549  24.070  21.549  13.924
43257W        W15550  22.556   8.656   4.616
43258W        W15551  32.068   4.742   2.330
43259W        W15552  21.626  12.796   2.298
43260W        W15553  40.383   5.905  14.031
43261W        W15554  35.955  33.462  13.992
43262W        W15555  23.718  36.371   0.373
43263W        W15556   7.235  20.139   0.948
43264W        W15557  20.217  14.618   1.878
43265W        W15558  22.040  17.718   1.721
43266W        W15559  44.938  13.709  10.948
43267W        W15560   0.788  32.925  14.841
43268W        W15561   6.751   7.299  14.851
43269W        W15562  31.443  34.401   1.398
43270W        W15563  12.824  19.087  14.900
43271W        W15564  16.144  29.540   2.849
43272W        W15565  14.185  14.258   3.242
43273W        W15566  14.301  35.866   1.414
43274W        W15567  32.061  29.592   0.935
43275W        W15568  14.678  27.138   2.715
43276W        W15569   9.202  44.433  12.493
43277W        W15570   4.786   0.439  14.418
43278W        W15571  10.166  33.104   4.793
43279W        W15572  40.982  15.623   0.780
43280W        W15573  44.386  35.575   0.392
43281W        W15574   2.736  16.791  11.572
43282W        W15575  15.137  32.930   1.318
43283W        W15576   9.875  34.393  13.538
43284W        W15577  36.034  36.097   4.810
43285W        W15578   8.756   8.345   2.740
43286W        W15579  35.946  29.000  14.322
43287W        W15580  38.519   0.771  14.013
43288W        W15581  16.729   6.733   3.347
43289W        W15582  43.963  27.612  13.480
43290W        W15583   3.249  41.309   3.196
43291W        W15584  21.209   6.413   0.770
43292W        W15585  21.676  15.802   1.272
43293W        W15586  36.852  13.266  13.510
43294W        W15587  26.539  42.395  14.881
43295W        W15588  43.474  36.527   4.306
43296W        W15589  21.752  17.762  12.058
43297W        W15590  23.128  30.445  12.519
43298W        W15591  24.224  38.063   3.853
43299W        W15592  14.611   1.841  13.960
43300W        W15593   4.211   4.237   2.774
43301W        W15594  36.094  26.007  10.908
43302W        W15595  17.120   6.697   0.327
43303W        W15596  39.822  20.271   4.152
43304W        W15597  29.105  28.138   3.756
43305W        W15598  31.401  25.573   4.250
43306W        W15599   1.815  25.981   1.396
43307W        W15600  26.673  16.141  12.953
43308W        W15601   9.871  11.698   3.761
43309W        W15602   7.896  32.454   0.354
43310W        W15603  33.915  30.910  12.962
43311W        W15604  39.915  33.970  10.493
43312W        W15605  36.847   0.766   4.320
43313W        W15606   7.814  14.602   1.769
43314W        W15607  43.943  10.647  11.589
43315W        W15608   6.866   1.302  14.338
43316W        W15609  27.011  34.012   0.279
43317W        W15610  12.243  26.134   2.199
43318W        W15611  34.386  26.068  10.471
43319W        W15612  17.721  42.519  10.923
43320W        W15613  33.898  44.869  12.553
43321W        W15614  39.898  38.372   4.666
43322W        W15615  43.474  19.780  13.831
43323W        W15616  28.469  40.520   2.807
43324W        W15617   7.796  39.839  11.961
43325W        W15618  30.961  23.027   4.664
43326W        W15619  40.943  10.632  13.396
43327W        W15620   0.287  27.099   0.293
43328W        W15621  31.496  17.766   3.744
43329W        W15622  13.716   7.850  14.965
43330W        W15623   4.286  32.401   0.275
43331W        W15624  30.517  21.741  14.414
43332W        W15625  25.208   1.263  11.379
43333W        W15626  25.210   4.268   0.360
43334W        W15627  37.919  41.938  12.865
43335W        W15628  42.890  27.991  13.440
43336W        W15629  12.197  34.079   3.838
43337W        W15630   4.268  28.170  13.310
43338W        W15631   3.216  35.957  12.960
43339W        W15632  13.156  33.502  12.383
43340W        W15633   0.894  15.191  11.095
43341W        W15634  25.574  35.040  14.403
43342W        W15635   5.376  19.653  11.485
43343W        W15636  39.832  34.011  12.909
43344W        W15637  14.704  14.320   4.341
43345W        W15638  43.930   9.253   2.345
43346W        W15639  23.997   6.769  14.018
43347W        W15640  16.640  37.428   2.381
43348W        W15641  42.840  28.179   2.728
43349W        W15642   3.716   2.293  14.773
43350W        W15643  16.771   0.423   4.689
43351W        W15644   3.395  44.339   1.856
43352W        W15645  32.406  10.811   3.172
43353W        W15646  16.314  39.040  12.906
43354W        W15647  20.688   7.284  12.887
43355W        W15648  34.980   4.710   4.289
43356W        W15649  25.028   5.750   1.809
43357W        W15650  13.127  40.034   1.891
43358W        W15651  21.601  16.810   2.740
43359W        W15652  13.346  30.598   1.238
43360W        W15653   4.399  36.861  12.517
43361W        W15654   8.324   9.280  12.093
43362W        W15655  37.356   7.723   4.783
43363W        W15656   9.238  16.254  14.471
43364W        W15657  30.053  16.304  12.350
43365W        W15658  10.211  38.459   1.360
43366W        W15659   6.886  34.873   0.959
43367W        W15660   3.885  31.424  10.627
43368W        W15661   5.841  14.655  12.442
43369W        W15662  29.514  34.890  11.867
43370W        W15663   9.304   1.734   1.781
43371W        W15664  30.060   8.224   4.618
43372W        W15665  20.248  15.772   2.704
43373W        W15666  11.659  19.580   4.811
43374W        W15667  10.811  42.982  12.394
43375W        W15668  23.182  33.991  10.523
43376W        W15669  34.496   1.423   0.923
43377W        W15670  44.326   1.879   4.151
43378W        W15671  23.544  11.773   3.780
43379W        W15672   3.885  35.964   4.625
43380W        W15673   8.746  33.380   4.313
43381W        W15674  26.151  43.344  13.476
43382W        W15675  26.111  35.942  13.407
43383W        W15676  28.482  20.557  12.847
43384W        W15677  30.041  35.563   1.301
43385W        W15678  10.835   4.288   3.810
43386W        W15679   1.412  29.648   2.709
43387W        W15680  20.540  38.341   1.434
43388W        W15681  24.530  26.473  12.038
43389W        W15682  22.541  27.031   1.347
43390W        W15683  36.858  13.105   4.225
43391W        W15684  37.448  34.504   1.761
43392W        W15685  35.011  11.704  13.412
43393W        W15686  31.949  20.170   2.210
43394W        W15687  42.024  42.878   2.726
43395W        W15688  27.025   2.756  13.472
43396W        W15689  40.978  13.346  11.470
43397W        W15690   5.333  26.568   3.681
43398W        W15691  34.484  28.115   2.407
43399W        W15692  42.934   9.782   3.868
43400W        W15693  15.169  31.567  10.621
43401W        W15694  11.851  10.363  11.053
43402W        W15695  37.928  13.720  10.467
43403W        W15696  37.878  34.879  11.393
43404W        W15697  36.042  17.303  12.514
43405W        W15698   0.424   0.407   1.320
43406W        W15699  31.020  32.001   0.897
43407W        W15700  30.475  35.536   3.744
43408W        W15701  11.835  42.496   0.336
43409W        W15702   0.969  37.065   4.301
43410W        W15703  14.257   8.768   4.779
43411W        W15704  41.846   7.234   1.419
43412W        W15705   6.738   1.417  13.821
43413W        W15706  12.708  34.081  12.567
43414W        W15707  18.771  36.994   2.881
43415W        W15708  40.384   4.905  14.516
43416W        W15709  20.635  12.286   2.193
43417W        W15710  24.697  11.789  12.914
43418W        W15711  20.714  17.175   1.748
43419W        W15712   3.920  36.917  11.079
43420W        W15713   5.389   3.850  14.767
43421W        W15714  16.668   1.873   3.225
43422W        W15715   1.780  12.833   2.803
43423W        W15716  18.595  33.935   2.849
43424W        W15717   2.349  32.547   0.340
43425W        W15718  24.999  30.603   3.675
43426W        W15719  11.852  30.949   4.309
43427W        W15720   1.347  19.087  10.537
43428W        W15721  43.458  42.953  14.888
43429W        W15722  10.636  34.430  13.965
43430W        W15723  25.656  24.528  14.280
43431W        W15724  27.079  23.131  10.485
43432W        W15725  44.965  19.196  12.993
43433W        W15726  21.130   3.747  10.510
43434W        W15727   5.807  43.913   4.269
43435W        W15728  12.193   9.803   2.208
43436W        W15729  32.021  36.095   0.949
43437W        W15730  21.637   2.363   0.311
43438W        W15731   0.382  30.956   4.615
43439W        W15732  26.634  39.976   1.337
43440W        W15733  24.032  41.814   3.772
43441W        W15734  21.723   1.447  10.910
43442W        W15735  14.229  43.778  12.374
43443W        W15736  18.139  40.839   1.271
43444W        W15737  17.149  16.162  10.927
43445W        W15738  25.572   5.431  10.444
43446W        W15739   9.706   6.816   2.726
43447W        W15740  21.252  32.130   5.637
43448W        W15741  22.240  11.261  10.417
43449W        W15742   5.785  13.743   1.263
43450W        W15743  20.625  30.994  12.401
43451W        W15744  15.153  26.493  12.937
43452W        W15745  43.981   5.806   3.706
43453W        W15746   4.218  29.172  11.560
43454W        W15747  41.492  20.584  12.550
43455W        W15748   3.900  40.437  13.937
43456W        W15749  44.841   8.767   0.938
43457W        W15750  37.453   3.824  10.536
43458W        W15751   6.198  13.325   4.781
43459W        W15752  32.908  43.514  14.981
43460W        W15753  41.437  17.603  14.321
43461W        W15754  28.068  30.415   4.265
43462W        W15755   8.252  16.273   4.202
43463W        W15756   4.746   2.380   4.321
43464W        W15757   0.908  21.697   2.415
43465W        W15758  20.620  14.186  14.970
43466W        W15759  25.628  14.197  13.049
43467W        W15760  35.440  19.057  13.853
43468W        W15761   8.679  33.498   3.846
43469W        W15762   4.835  25.612  13.875
43470W        W15763  42.316  33.548  11.061
43471W        W15764  37.017  17.770   2.854
43472W        W15765  44.945  38.862   4.113
43473W        W15766  23.698  28.612   3.701
43474W        W15767  26.162  38.049   1.387
43475W        W15768  11.713  21.635   0.385
43476W        W15769  28.125  41.911  12.381
43477W        W15770  32.920  10.226   1.367
43478W        W15771   6.237  31.955  13.997
43479W        W15772  13.752   9.185   0.419
43480W        W15773  12.130   8.784  12.408
43481W        W15774  35.903  13.351  12.004
43482W        W15775  18.620  38.353   4.672
43483W        W15776  39.991  10.677  10.546
43484W        W15777  21.026   9.297   4.252
43485W        W15778  31.568   1.854  14.848
43486W        W15779  19.080  19.153   2.707
43487W        W15780  12.809  44.939  14.032
43488W        W15781   2.862   5.897   3.314
43489W        W15782  29.626  39.956  10.494
43490W        W15783   1.825  11.311  13.927
43491W        W15784  26.568  33.126   0.811
43492W        W15785   2.753  41.844   4.228
43493W        W15786   7.333   0.960  12.066
43494W        W15787  42.321   1.346   0.397
43495W        W15788  15.667  29.088   2.822
43496W        W15789  37.560  44.331   5.251
43497W        W15790  34.556  36.987  14.787
43498W        W15791   5.374   0.277   3.692
43499W        W15792  40.409  11.323  10.616
43500W        W15793  43.469  39.899   2.259
43501W        W15794  32.969  44.989  14.375
43502W        W15795  36.040   4.380  13.313
43503W        W15796  41.799  31.577   0.356
43504W        W15797   6.883  34.977  12.060
43505W        W15798  42.893  17.555  12.554
43506W        W15799   5.320   6.198  12.551
43507W        W15800   0.858   2.806   1.443
43508W        W15801  41.826  24.513   1.772
43509W        W15802  40.934  36.430   1.408
43510W        W15803  11.329  32.064  10.953
43511W        W15804  35.073  22.137  12.988
43512W        W15805  36.083  40.911   0.462
43513W        W15806   5.429  14.185  12.904
43514W        W15807  41.378  43.344   2.309
43515W        W15808  12.674  42.485   1.883
43516W        W15809  39.497  42.335   3.838
43517W        W15810   5.355  12.209   0.264
43518W        W15811  35.942  14.096  13.339
43519W        W15812  18.274  29.166   3.297
43520W        W15813  36.554  41.984   1.381
43521W        W15814  11.276  11.673   2.407
43522W        W15815   9.229   0.984  12.536
43523W        W15816   0.396   5.870   0.865
43524W        W15817  14.140  37.978  14.333
43525W        W15818  17.157  43.892   1.834
43526W        W15819  19.221  38.881  10.900
43527W        W15820   2.965   3.838   4.625
43528W        W15821  33.466   7.332   3.223
43529W        W15822  39.057  38.877   4.296
43530W        W15823  26.684  38.395  12.057
43531W        W15824  27.563   4.810  11.464
43532W        W15825  32.591  40.999   4.136
43533W        W15826  39.922  17.711   3.816
43534W        W15827  33.924   4.445  13.382
43535W        W15828   5.295  43.460   2.901
43536W        W15829   7.352  26.539   4.616
43537W        W15830   4.825   6.866   9.929
43538W        W15831  27.686   1.412   4.345
43539W        W15832  22.615  24.161   1.919
43540W        W15833  36.396   7.791   0.348
43541W        W15834  31.096  29.458   1.350
43542W        W15835   2.944   5.264  10.494
43543W        W15836  27.984  34.520   1.867
43544W        W15837  25.685  37.973  11.447
43545W        W15838  12.676  31.972  13.397
43546W        W15839  33.546  11.754   2.286
43547W        W15840  44.890  28.441  13.494
43548W        W15841  28.522  22.230  12.061
43549W        W15842   4.784  41.918  12.869
43550W        W15843   1.885  36.870  11.125
43551W        W15844  44.899  31.449  14.286
43552W        W15845  27.642  16.692   2.244
43553W        W15846   4.941  40.504  10.471
43554W        W15847  24.097  43.887   1.432
43555W        W15848   3.307  13.213   2.841
43556W        W15849  38.394   3.947   3.666
43557W        W15850   3.772  18.160   4.187
43558W        W15851  40.447  36.582  14.484
43559W        W15852  18.145  32.043  11.092
43560W        W15853  43.394  24.050   4.181
43561W        W15854  42.325  31.132  11.501
43562W        W15855  10.762  42.354  14.343
43563W        W15856  33.488  25.008  11.587
43564W        W15857   2.440  21.143  10.440
43565W        W15858  24.148  35.976   2.338
43566W        W15859  39.981  32.484  14.300
43567W        W15860  36.437   5.377   1.268
43568W        W15861  33.411  16.148  12.368
43569W        W15862  30.658  13.232  13.439
43570W        W15863  18.598  28.671  12.513
43571W        W15864   1.825  43.515   3.306
43572W        W15865  40.311  27.680   1.894
43573W        W15866  11.778  19.584   2.222
43574W        W15867  28.035   0.798   2.859
43575W        W15868  13.807  23.528  10.491
43576W        W15869   7.850  34.096   3.317
43577W        W15870   9.851  29.068  11.602
43578W        W15871  10.296   0.351   2.885
43579W        W15872  19.070   3.743   0.803
43580W        W15873  15.177  21.029   1.425
43581W        W15874  21.039  31.529  10.972
43582W        W15875  20.034  32.415  13.023
43583W        W15876  32.593  15.211   0.326
43584W        W15877  39.434  25.982  14.285
43585W        W15878  29.105  38.490  14.029
43586W        W15879  18.250  25.034   1.695
43587W        W15880  35.570  17.283   1.402
43588W        W15881  21.035  27.133   2.721
43589W        W15882  26.004  15.256   2.716
43590W        W15883  21.053  14.594  10.502
43591W        W15884  15.152   2.836  10.131
43592W        W15885  39.447  39.850  13.321
43593W        W15886  21.253  16.131   1.426
43594W        W15887  24.723   5.911  11.078
43595W        W15888  24.594  16.658   0.452
43596W        W15889  17.064   4.862   2.341
43597W        W15890  19.275   3.374   1.397
43598W        W15891  16.228  31.463  10.983
43599W        W15892   4.745  44.903  11.550
43600W        W15893  19.078  40.546   1.317
43601W        W15894  24.209  10.721  13.423
43602W        W15895  21.126  43.999   0.243
43603W        W15896  12.184  40.409  11.605
43604W        W15897  13.244  31.497   2.762
43605W        W15898  25.560  12.291   3.827
43606W        W15899  28.036  44.440  14.488
43607W        W15900  10.241  29.436   3.673
43608W        W15901  24.503   9.854   3.746
43609W        W15902  17.161   1.961  13.455
43610W        W15903  15.717  37.382   3.712
43611W        W15904  32.469   0.960  13.902
43612W        W15905  15.784  29.047   1.354
43613W        W15906  14.665  34.496   5.168
43614W        W15907  38.905  10.323  12.339
43615W        W15908  35.101   8.862  14.384
43616W        W15909   7.408  23.529  11.390
43617W        W15910   6.277  35.586  12.458
43618W        W15911   5.228  43.447  12.963
43619W        W15912  22.531   3.840  13.985
43620W        W15913  37.041  32.593  13.325
43621W        W15914  39.831  21.206   1.769
43622W        W15915  21.582   0.450  12.034
43623W        W15916  12.316  36.091   2.345
43624W        W15917  23.192  31.598  14.848
43625W        W15918  16.073  21.730  14.932
43626W        W15919  11.855  36.405  13.956
43627W        W15920  36.424  10.782   3.757
43628W        W15921   4.318  29.087  11.090
43629W        W15922  15.635  16.789  14.337
43630W        W15923  44.476  21.045  10.077
43631W        W15924  30.473  21.607   0.939
43632W        W15925  26.574  14.314   0.327
43633W        W15926  12.623  24.130   1.840
43634W        W15927  34.404  21.122  10.593
43635W        W15928  25.644  31.961   0.777
43636W        W15929  11.372  43.968   2.298
43637W        W15930  13.796  30.600  12.494
43638W        W15931  21.745  32.977  11.919
43639W        W15932   9.686  29.540   3.343
43640W        W15933  23.025   5.770   3.810
43641W        W15934   3.860  29.974  10.428
43642W        W15935   3.268   9.339  14.781
43643W        W15936  34.583  11.658   4.187
43644W        W15937   2.860  24.129  13.943
43645W        W15938   9.815  13.768   3.812
43646W        W15939  31.105  39.914   1.404
43647W        W15940   2.317  14.249  11.087
43648W        W15941  30.005  24.596  11.529
43649W        W15942  35.885  20.194   2.187
43650W        W15943  11.774  15.126  10.441
43651W        W15944  42.863  42.486   0.357
43652W        W15945   7.248  39.449  12.029
43653W        W15946  37.881  26.979   2.181
43654W        W15947  22.024  17.138  10.996
43655W        W15948  39.501   2.757   0.928
43656W        W15949  21.178   8.390  11.379
43657W        W15950  14.635   6.240  11.033
43658W        W15951  14.184  41.468  12.038
43659W        W15952   6.880  43.296  14.284
43660W        W15953   9.871  41.513   0.824
43661W        W15954   2.840  12.228  14.896
43662W        W15955  26.074   5.224  12.872
43663W        W15956  27.997  28.940  12.085
43664W        W15957  26.203   6.229  13.854
43665W        W15958  11.646   3.847  13.388
43666W        W15959  24.572  18.188  10.524
43667W        W15960  16.246  40.316   3.201
43668W        W15961  24.612  12.761   0.362
43669W        W15962   9.694  38.555  12.001
43670W        W15963  11.840   6.401   0.293
43671W        W15964  31.611   6.720   4.228
43672W        W15965   7.321   8.197   1.828
43673W        W15966  28.563  26.983  13.454
43674W        W15967  22.545  13.830  12.526
43675W        W15968  18.150   8.214   3.831
43676W        W15969  34.516   2.431   3.194
43677W        W15970   6.327  36.076   1.762
43678W        W15971   1.931  43.018   2.206
43679W        W15972  11.367  32.547  11.032
43680W        W15973  20.034  41.973  12.889
43681W        W15974  10.384  44.904   2.192
43682W        W15975  24.121  30.514  14.411
43683W        W15976  39.938  24.225  14.798
43684W        W15977   0.290  23.114  13.434
43685W        W15978   6.759  13.156  14.412
43686W        W15979   3.743  16.189   1.218
43687W        W15980  36.069   3.792  12.884
43688W        W15981  15.769  15.754   0.884
43689W        W15982  42.963  32.920  12.421
43690W        W15983  15.242  26.610  11.046
43691W        W15984  29.172  28.086   2.294
43692W        W15985  10.739  30.131  13.508
43693W        W15986  38.468  16.196   2.242
43694W        W15987   1.367  42.433   0.477
43695W        W15988  35.601  15.599   2.730
43696W        W15989   9.678  28.475   1.255
43697W        W15990  25.177  34.046   3.317
43698W        W15991   8.855   9.705  12.084
43699W        W15992  10.332  21.254  11.429
43700W        W15993  28.990  12.653   2.797
43701W        W15994   1.453  34.078  13.976
43702W        W15995  39.885  24.022   0.418
43703W        W15996   7.753  25.499  11.078
43704W        W15997  39.444  18.248  13.056
43705W        W15998  37.527  42.851  10.965
43706W        W15999  29.166  24.101   4.227
43707W        W16000  14.677  18.740   2.415
43708W        W16001  31.897  28.561  10.506
43709W        W16002  16.646  11.358  12.838
43710W        W16003  19.174  33.567  11.513
43711W        W16004  13.284   9.243  13.518
43712W        W16005  14.228  37.467   4.210
43713W        W16006  11.692  21.679   1.929
43714W        W16007  24.059  12.688  13.886
43715W        W16008  16.124  32.538   2.265
43716W        W16009  38.958  32.922   3.693
43717W        W16010  39.014  24.609  14.030
43718W        W16011  24.034  33.033  12.471
43719W        W16012  20.146  26.546  10.568
43720W        W16013  26.468  16.209   4.140
43721W        W16014  24.187  22.168   2.900
43722W        W16015  35.548  31.067  13.907
43723W        W16016  23.621   2.823  13.874
43724W        W16017  24.213  21.573  12.574
43725W        W16018  35.585  11.195   0.877
43726W        W16019  13.832   8.683   0.469
43727W        W16020  25.590  38.052   0.757
43728W        W16021  32.071  31.502   2.185
43729W        W16022  41.465  41.339  13.807
43730W        W16023  41.315  30.621  12.057
43731W        W16024   4.384   3.245  12.944
43732W        W16025  27.486  22.574  14.375
43733W        W16026  42.828   6.189   0.254
43734W        W16027   5.756  33.532   1.897
43735W        W16028   5.871  42.487   4.350
43736W        W16029  30.466  44.899  12.466
43737W        W16030   8.331  36.546  11.034
43738W        W16031  18.220  33.011  10.496
43739W        W16032  43.355  25.144   5.123
43740W        W16033  31.929  18.782  13.426
43741W        W16034  32.438  42.023  11.388
43742W        W16035  22.632  44.330  14.967
43743W        W16036   9.659  39.976  14.513
43744W        W16037   1.430  15.280  12.548
43745W        W16038  27.038   9.673  14.804
43746W        W16039  10.697  34.965  11.885
43747W        W16040  24.701  13.261  13.385
43748W        W16041  12.196   7.816   4.760
43749W        W16042  25.624  18.132   3.191
43750W        W16043   6.194  30.058  11.572
43751W        W16044  21.205  13.683  11.864
43752W        W16045  36.992  42.804   5.142
43753W        W16046  40.944   6.374  12.087
43754W        W16047  35.485   0.270  14.406
43755W        W16048   8.813  36.452  13.500
43756W        W16049  17.210   6.745   1.785
43757W        W16050  10.780  16.581  14.291
43758W        W16051  43.475  25.995   4.309
43759W        W16052  39.529   5.289  10.523
43760W        W16053  11.764  15.612   3.257
43761W        W16054   1.796  43.975  12.876
43762W        W16055  42.883  12.247  11.381
43763W        W16056  39.453  25.025  11.055
43764W        W16057  21.624  31.584   3.233
43765W        W16058   5.862   1.252   0.870
43766W        W16059  23.578  32.118   3.344
43767W        W16060  24.515  18.549   0.292
43768W        W16061  38.065  34.444  10.888
43769W        W16062  41.940  41.857  10.602
43770W        W16063  10.653  29.955   0.807
43771W        W16064  40.824   8.310   1.310
43772W        W16065  42.013  42.320   0.730
43773W        W16066  12.220  17.653   0.764
43774W        W16067  10.303  44.369  12.467
43775W        W16068  14.808  20.538  13.314
43776W        W16069  33.006   5.433   3.213
43777W        W16070  28.582  40.894  12.545
43778W        W16071  18.687  27.629  13.945
43779W        W16072  16.073  41.787   3.693
43780W        W16073  31.532  39.022  13.907
43781W        W16074  28.546  43.875   4.198
43782W        W16075   3.952  15.737   3.736
43783W        W16076  12.790  29.536   0.298
43784W        W16077   9.832   2.373   0.889
43785W        W16078   9.208   1.839  13.968
43786W        W16079   8.183   1.318  11.488
43787W        W16080  20.730  32.048  14.333
43788W        W16081   1.238  43.813  10.972
43789W        W16082  34.969  12.319   4.746
43790W        W16083  41.367  33.985   0.889
43791W        W16084  29.586   8.745  13.988
43792W        W16085  10.298  27.621  10.131
43793W        W16086  38.491   9.807  13.031
43794W        W16087  41.918  16.231   0.873
43795W        W16088   3.312  32.125   4.768
43796W        W16089  32.076   4.899   4.269
43797W        W16090  17.075  35.448  13.519
43798W        W16091  41.937  44.353   3.729
43799W        W16092  10.375   5.847  10.119
43800W        W16093  39.400  22.061  12.372
43801W        W16094  36.571  36.030  13.461
43802W        W16095   5.365   0.791   1.894
43803W        W16096   9.372  20.564   4.602
43804W        W16097  12.747   3.711   0.803
43805W        W16098  38.924   4.337   4.635
43806W        W16099   8.286  44.442  14.814
43807W        W16100   3.264  20.223  10.550
43808W        W16101   1.359  10.217  14.384
43809W        W16102  27.172   6.204  11.043
43810W        W16103  41.812  42.890   0.872
43811W        W16104  39.351  10.677  12.096
43812W        W16105  29.568  35.373   3.274
43813W        W16106  43.302  26.481  14.917
43814W        W16107  42.946  25.528  12.920
43815W        W16108  26.993  23.679   4.172
43816W        W16109   5.425  22.741  13.357
43817W        W16110   5.760  34.431  10.072
43818W        W16111  24.522   0.355  10.998
43819W        W16112  13.720  11.846   2.702
43820W        W16113  10.325  33.983   2.843
43821W        W16114  20.067  38.988   1.822
43822W        W16115  33.454  11.291   1.368
43823W        W16116  43.494  16.155   9.572
43824W        W16117  14.137  30.428   4.762
43825W        W16118   7.255  41.917  12.397
43826W        W16119  39.053  39.031  10.436
43827W        W16120   0.373  43.795  13.346
43828W        W16121   8.826   2.395   3.865
43829W        W16122  38.009  38.534   4.681
43830W        W16123  33.008  19.597  10.578
43831W        W16124   2.822  10.226   1.326
43832W        W16125  34.484  17.084  12.436
43833W        W16126  15.611  28.498  14.975
43834W        W16127  10.341   4.818   1.808
43835W        W16128  22.609  44.964   0.249
43836W        W16129  30.537   8.773   4.801
43837W        W16130   4.712   3.296  14.474
43838W        W16131  28.156   3.869  10.925
43839W        W16132  18.127  27.033   2.393
43840W        W16133  27.181  33.073  12.513
43841W        W16134  24.663  17.280  12.573
43842W        W16135  21.231  19.260   2.375
43843W        W16136  43.921  44.909   2.787
43844W        W16137  42.860  44.895   2.890
43845W        W16138   4.708   9.739  14.402
43846W        W16139   5.763  24.981  11.856
43847W        W16140  32.897  42.433  14.860
43848W        W16141  15.763  40.949  14.473
43849W        W16142   4.339  34.425   1.839
43850W        W16143   7.757  15.266  10.564
43851W        W16144  16.591  22.615  10.557
43852W        W16145  28.050   3.887   1.265
43853W        W16146  20.752  18.546   1.333
43854W        W16147  19.267  40.346   2.801
43855W        W16148  44.304  18.678   0.391
43856W        W16149  21.717  13.640  14.445
43857W        W16150  21.253  42.524   3.357
43858W        W16151  43.516   4.208   3.768
43859W        W16152  23.012  26.608  12.030
43860W        W16153  36.867  31.609   4.159
43861W        W16154  38.891  31.097   0.871
43862W        W16155  40.003  31.425  11.426
43863W        W16156  28.484   8.340  14.339
43864W        W16157  30.443  12.674   2.331
43865W        W16158  29.571  40.350  10.003
43866W        W16159  11.810  34.102   2.795
43867W        W16160  26.525  14.260  11.094
43868W        W16161  36.970  29.014   4.314
43869W        W16162  40.499  41.034   2.350
43870W        W16163  35.422  11.632   2.376
43871W        W16164   5.732  11.179  10.600
43872W        W16165  14.818  31.558  12.903
43873W        W16166  15.253   3.330  11.426
43874W        W16167   6.201  41.310  12.393
43875W        W16168  44.482  36.454  12.990
43876W        W16169   9.352  34.093   4.282
43877W        W16170  31.961  12.257   2.322
43878W        W16171  39.016  41.332   2.667
43879W        W16172   1.424   3.820   1.815
43880W        W16173  18.062  36.434  13.907
43881W        W16174  22.190   6.781   0.888
43882W        W16175  10.762  15.219   4.293
43883W        W16176  15.627  21.139  14.958
43884W        W16177  38.492   9.348  12.825
43885W        W16178   2.290  31.605   3.815
43886W        W16179  30.600   5.232   4.181
43887W        W16180  33.076  24.502  14.845
43888W        W16181  13.191  26.077   1.766
43889W        W16182  22.651  30.560   4.259
43890W        W16183  19.577  43.375   2.289
43891W        W16184  16.592  22.084   5.214
43892W        W16185  34.502  36.535  14.930
43893W        W16186  17.061  26.517   3.732
43894W        W16187  41.307  17.572   1.915
43895W        W16188  20.028  10.847  13.535
43896W        W16189  29.631   6.215   1.708
43897W        W16190   0.464  35.869   1.316
43898W        W16191  11.188  12.165   3.646
43899W        W16192   4.802  43.931   2.403
43900W        W16193   5.894  29.077  10.561
43901W        W16194  36.924  22.734  12.828
43902W        W16195   5.841   2.411  14.361
43903W        W16196  35.024  20.204   3.360
43904W        W16197  34.572  26.979   0.961
43905W        W16198  11.152   4.765  10.895
43906W        W16199   8.356  37.086   4.289
43907W        W16200  27.109  19.276  12.465
43908W        W16201  18.123  11.360  12.894
43909W        W16202  17.168   2.791   0.954
43910W        W16203  31.558  11.811   0.746
43911W        W16204  32.613  16.198  10.598
43912W        W16205  10.826  43.437  11.995
43913W        W16206  35.107  44.798   1.876
43914W        W16207   9.774  14.825  10.538
43915W        W16208  11.178  41.985  12.569
43916W        W16209  42.445  41.498   3.865
43917W        W16210   5.202   2.959  13.908
43918W        W16211  25.208  14.143   0.481
43919W        W16212  44.988  40.968   0.263
43920W        W16213  44.394  33.945   3.239
43921W        W16214  35.862   2.890  12.409
43922W        W16215  44.268   5.750  12.357
43923W        W16216  30.017   9.266  12.339
43924W        W16217  32.439  27.948  14.843
43925W        W16218  28.120  34.873  12.342
43926W        W16219  26.597  36.586   3.804
43927W        W16220  23.094   3.777   4.231
43928W        W16221  15.191  19.670  12.083
43929W        W16222   3.230   6.326   3.249
43930W        W16223   1.377  25.482   3.241
43931W        W16224  44.320   7.356   4.783
43932W        W16225  10.684  15.304   1.336
43933W        W16226  10.191  41.304  10.560
43934W        W16227  26.196  10.706  10.475
43935W        W16228  42.371  33.383   2.795
43936W        W16229   7.671  23.683   4.609
43937W        W16230  29.000  17.242  13.423
43938W        W16231   6.226  36.022   0.298
43939W        W16232  10.789   1.733  13.053
43940W        W16233   8.280  16.762  11.995
43941W        W16234  13.273  44.984   4.298
43942W        W16235   0.876  31.980   3.775
43943W        W16236  12.702  17.137  14.289
43944W        W16237  43.793  18.201  12.906
43945W        W16238  18.655   6.864   1.705
43946W        W16239  21.141  17.153   3.280
43947W        W16240  17.659   1.852  14.388
43948W        W16241  16.686  43.397   0.333
43949W        W16242  10.717  35.540   2.793
43950W        W16243  19.735   8.194   2.239
43951W        W16244  34.503  31.423  11.950
43952W        W16245  35.358  14.151  14.313
43953W        W16246   4.781   9.672  10.608
43954W        W16247  29.604   0.438  12.553
43955W        W16248  20.556  25.517  10.890
43956W        W16249  15.299  13.616  11.898
43957W        W16250  20.176  42.962  10.044
43958W        W16251  39.361  31.082   3.237
43959W        W16252  30.531  40.515  13.001
43960W        W16253  34.458  27.599   2.187
43961W        W16254  30.440  38.964  13.968
43962W        W16255   6.901  19.648   3.813
43963W        W16256  19.281   9.786   0.358
43964W        W16257  35.366  27.944   1.870
43965W        W16258   5.750  23.998  12.068
43966W        W16259   4.943  14.809  14.016
43967W        W16260  38.345  28.547   4.347
43968W        W16261  18.777  22.570  10.064
43969W        W16262  16.095   2.347   3.737
43970W        W16263  29.537  38.957   1.855
43971W        W16264   3.848  34.942  10.443
43972W        W16265   7.274  42.285   4.810
43973W        W16266  38.338  44.900  12.434
43974W        W16267  31.562  35.924  12.069
43975W        W16268  12.314  36.086   4.662
43976W        W16269  11.845  16.141   1.396
43977W        W16270  28.079  35.054   2.830
43978W        W16271  37.850   5.916   3.236
43979W        W16272  31.608  10.804  14.510
43980W        W16273  15.623  22.526  12.937
43981W        W16274   7.411  32.594   4.309
43982W        W16275  37.539   8.374   0.961
43983W        W16276  10.852  16.804  13.814
43984W        W16277  21.567  26.594  14.883
43985W        W16278  38.522  23.114  13.314
43986W        W16279  38.468  34.995   1.830
43987W        W16280  14.166  31.535   2.799
43988W        W16281  19.117  39.431   4.755
43989W        W16282  18.585  12.281   1.385
43990W        W16283  38.483   9.313  14.325
43991W        W16284  14.100  21.686  13.969
43992W        W16285   8.190  44.832   2.345
43993W        W16286  41.465   3.255  13.533
43994W        W16287   9.342   2.374  10.442
43995W        W16288  13.249   0.393   1.322
43996W        W16289   4.942  17.281  12.895
43997W        W16290   8.292   1.315   1.739
43998W        W16291   3.261  18.597  13.884
43999W        W16292  38.352  38.940  12.394
44000W        W16293  37.929  23.988   1.338
44001W        W16294  26.639   5.333   4.813
44002W        W16295  21.106  20.040   0.869
44003W        W16296  24.116  22.104  11.427
44004W        W16297  21.168  42.972  13.341
44005W        W16298  18.753  30.907  11.571
44006W        W16299  27.663   6.323  14.400
44007W        W16300  12.229  13.291  11.898
44008W        W16301  24.701   7.729  10.639
44009W        W16302  35.365  21.242   1.870
44010W        W16303  10.322  22.690   0.274
44011W        W16304  29.469  22.522  10.521
44012W        W16305   8.204  24.071   2.885
44013W        W16306  34.604  12.754  10.506
44014W        W16307   8.674   0.274  10.894
44015W        W16308  42.308  43.494  12.007
44016W        W16309  35.424  28.540  10.899
44017W        W16310   7.258   9.304   1.764
44018W        W16311  27.549   5.329   3.168
44019W        W16312  31.542  32.075  12.361
44020W        W16313  18.073   4.755  13.880
44021W        W16314  40.908  26.546  10.512
44022W        W16315  21.751  10.241   2.181
44023W        W16316  17.742  31.559  12.577
44024W        W16317  35.589  18.645  13.862
44025W        W16318   0.443  28.127   3.655
44026W        W16319  30.129  37.465   3.169
44027W        W16320  30.450  12.724  11.940
44028W        W16321  29.451  25.185   5.215
44029W        W16322   1.814  18.688  11.093
44030W        W16323   4.922  24.219  10.608
44031W        W16324  21.253  34.898   0.399
44032W        W16325  23.668  42.900  13.932
44033W        W16326  11.305  40.885  13.969
44034W        W16327  23.089   0.451  13.962
44035W        W16328  15.322  39.030   4.270
44036W        W16329   4.833  11.251   3.639
44037W        W16330  14.800   7.181   4.646
44038W        W16331  36.865  43.373   0.935
44039W        W16332  33.015  41.376   3.812
44040W        W16333  44.878  43.872  11.403
44041W        W16334  27.627  12.234   3.805
44042W        W16335  41.009  38.910   3.799
44043W        W16336  36.997  30.046  14.449
44044W        W16337  18.567   5.267  13.982
44045W        W16338   8.726  24.143   2.406
44046W        W16339  33.978  14.129   0.295
44047W        W16340  16.700   8.331  12.425
44048W        W16341  24.578   3.436   1.887
44049W        W16342  23.088  10.653   1.434
44050W        W16343  19.687  18.247   3.192
44051W        W16344  16.579  26.112   1.406
44052W        W16345  31.588  29.116  12.953
44053W        W16346  10.823  21.024   2.305
44054W        W16347  13.606   7.728  13.847
44055W        W16348   3.931  43.338  11.073
44056W        W16349   4.205  34.932  11.956
44057W        W16350  43.395  33.482   3.267
44058W        W16351  14.128  33.452  11.470
44059W        W16352   8.364  14.099  11.520
44060W        W16353  32.448  26.513   1.440
44061W        W16354   7.223   0.489   4.598
44062W        W16355   0.313  35.000   0.965
44063W        W16356  36.506  29.604   5.099
44064W        W16357  43.328  27.447  11.053
44065W        W16358  33.487  30.600  12.034
44066W        W16359   9.849  28.453  11.544
44067W        W16360  20.605   1.740  11.937
44068W        W16361  22.248  42.781  14.470
44069W        W16362  36.489   8.898   3.858
44070W        W16363  36.031  24.095   3.220
44071W        W16364  43.273  12.797   2.205
44072W        W16365   4.429   6.861  11.022
44073W        W16366  25.629  27.997  10.952
44074W        W16367  19.575  18.694   4.213
44075W        W16368  17.258  44.767   1.709
44076W        W16369  11.704  42.496  10.914
44077W        W16370  28.607  14.153  10.960
44078W        W16371  11.722   2.809   3.754
44079W        W16372   0.360  40.409   1.823
44080W        W16373  31.043  21.589   3.854
44081W        W16374   5.330  19.088  11.501
44082W        W16375   6.216  34.972   2.816
44083W        W16376  20.215  31.630   2.197
44084W        W16377   5.733  22.065  13.349
44085W        W16378  24.020  13.292  12.872
44086W        W16379  22.585   7.743   3.360
44087W        W16380  13.240  37.495   0.420
44088W        W16381  27.575  30.079  14.453
44089W        W16382  26.064  41.818   0.350
44090W        W16383  16.604  20.585   4.292
44091W        W16384  39.393  41.821  12.535
44092W        W16385  20.151  20.686   2.854
44093W        W16386  40.044   5.333  13.497
44094W        W16387  10.844  32.622  13.049
44095W        W16388   6.406  16.193   3.285
44096W        W16389   4.900  11.180   4.236
44097W        W16390  34.550  20.105  11.522
44098W        W16391  27.626  36.480   3.662
44099W        W16392  31.478  18.287   0.325
44100W        W16393  16.738  12.257   2.189
44101W        W16394  36.372  17.134  11.502
44102W        W16395  44.926  36.418  10.938
44103W        W16396  41.814  36.468   2.840
44104W        W16397  18.147  42.947  14.311
44105W        W16398  23.597  38.484  14.379
44106W        W16399   8.230   8.275   2.362
44107W        W16400   5.696   9.341   2.663
44108W        W16401  11.722  12.855  12.000
44109W        W16402  11.204  22.570   0.757
44110W        W16403  13.164  14.799   2.849
44111W        W16404  43.415  42.007  14.285
44112W        W16405  36.346  35.972  12.002
44113W        W16406  15.578  13.740  14.949
44114W        W16407  19.164  13.277  14.783
44115W        W16408  15.110  22.036   2.754
44116W        W16409  37.868  23.235   0.727
44117W        W16410  18.261  33.589   0.919
44118W        W16411  13.607  11.821  14.387
44119W        W16412  38.861  15.632   5.175
44120W        W16413  41.375   4.731  11.953
44121W        W16414  37.069  42.504  14.979
44122W        W16415  22.504  15.708  11.929
44123W        W16416   5.903  17.771  12.565
44124W        W16417  28.117  26.996   1.855
44125W        W16418  33.574  21.703   4.833
44126W        W16419  44.876   9.335   3.223
44127W        W16420  25.481  27.000  12.358
44128W        W16421  27.578   6.271   2.864
44129W        W16422  40.814  10.314  13.941
44130W        W16423  31.019  37.972   1.265
44131W        W16424   0.893  14.140  11.997
44132W        W16425  10.829  14.835  14.790
44133W        W16426  24.065  38.360   3.372
44134W        W16427  39.975  35.873   3.365
44135W        W16428  37.515  11.341  10.611
44136W        W16429  20.056  31.426  14.448
44137W        W16430  38.845  37.394  13.024
44138W        W16431  35.459  26.073  14.011
44139W        W16432  33.614  43.015   9.939
44140W        W16433  12.654  44.398  10.937
44141W        W16434  29.115   7.396  11.881
44142W        W16435  13.838  38.033   1.727
44143W        W16436  39.937  43.811  11.120
44144W        W16437  43.812   8.364   1.729
44145W        W16438  12.159  14.268  12.998
44146W        W16439  33.016  33.489  12.827
44147W        W16440  23.216   5.372  12.373
44148W        W16441  16.260   4.403  12.092
44149W        W16442  23.508  35.388  10.484
44150W        W16443  24.692  10.766  13.328
44151W        W16444  30.949  22.590   4.609
44152W        W16445   7.350  16.102  10.632
44153W        W16446  22.560  40.351   1.410
44154W        W16447  29.613  11.710   2.874
44155W        W16448   8.369  19.736   1.790
44156W        W16449   7.349   8.891   4.214
44157W        W16450   4.402  12.836  14.014
44158W        W16451   8.173   5.276   2.685
44159W        W16452   6.866  18.664  13.906
44160W        W16453   1.322  35.549  14.003
44161W        W16454  35.504   8.789  14.275
44162W        W16455  37.448  39.518  13.982
44163W        W16456   2.264  10.229  11.865
44164W        W16457  28.947  20.568  13.320
44165W        W16458  29.931  14.797   3.699
44166W        W16459   1.316  29.980   0.298
44167W        W16460   8.771   6.396  13.855
44168W        W16461   1.777  35.093  12.421
44169W        W16462  18.066  28.042   1.707
44170W        W16463  19.609  28.648  11.540
44171W        W16464  19.039   8.225   4.621
44172W        W16465  16.766  21.514  13.315
44173W        W16466  15.763  14.185   3.822
44174W        W16467  35.090   6.182   1.321
44175W        W16468  14.686   0.362  11.034
44176W        W16469  36.586  26.645  11.510
44177W        W16470   2.379  32.572   3.289
44178W        W16471  19.239  18.668   1.294
44179W        W16472   1.833  34.505  14.796
44180W        W16473  27.170  39.032   1.229
44181W        W16474  10.147  27.464  10.634
44182W        W16475  26.465  31.048   3.238
44183W        W16476  17.668  20.662  13.535
44184W        W16477  26.996   1.437  10.484
44185W        W16478  26.035  44.429  11.997
44186W        W16479  16.730  21.579   0.365
44187W        W16480  32.117   2.406  12.062
44188W        W16481   4.407  36.454   4.300
44189W        W16482   8.789  33.954  10.420
44190W        W16483  10.235  13.666   0.928
44191W        W16484  27.958  29.523   3.210
44192W        W16485  23.092   4.752  13.842
44193W        W16486  28.576  39.461   4.205
44194W        W16487  16.632  37.845  10.406
44195W        W16488   9.673  24.144   3.817
44196W        W16489  16.141  26.130  14.383
44197W        W16490  14.633  39.516   0.758
44198W        W16491  32.080  42.456  12.367
44199W        W16492   4.768  33.388  14.937
44200W        W16493  30.144   7.851   0.428
44201W        W16494   3.388  24.717   2.901
44202W        W16495   4.865  20.746   3.737
44203W        W16496  29.107   6.389  11.083
44204W        W16497  18.593  33.567   3.255
44205W        W16498  16.751   0.269  11.123
44206W        W16499  33.983  34.396  12.935
44207W        W16500  33.109  30.591   4.156
44208W        W16501  34.526  22.159   4.645
44209W        W16502   4.321  11.812  10.595
44210W        W16503   1.816  12.279  12.519
44211W        W16504   2.306   2.836  12.949
44212W        W16505  36.024  30.476   0.731
44213W        W16506  22.739   0.878   2.818
44214W        W16507  37.049  43.792   2.351
44215W        W16508  33.941  30.423  10.888
44216W        W16509  42.820  28.507  12.094
44217W        W16510  37.913  39.403  11.063
44218W        W16511  43.362  33.619   1.814
44219W        W16512  37.040  41.390   0.472
44220W        W16513  27.166  41.036  11.048
44221W        W16514  13.257  17.703   3.193
44222W        W16515   1.385  25.528   3.843
44223W        W16516  14.705   3.886  11.400
44224W        W16517  27.685  37.913   0.296
44225W        W16518  23.058  17.798  14.828
44226W        W16519  14.149  15.672   1.855
44227W        W16520  11.814  36.958   0.764
44228W        W16521   7.215  31.560   0.326
44229W        W16522   8.235  10.224   2.860
44230W        W16523  11.186   2.741  12.930
44231W        W16524  29.514  17.791   4.206
44232W        W16525  44.366  43.002  14.438
44233W        W16526  37.422  20.159   1.255
44234W        W16527   2.951  15.793   0.793
44235W        W16528  27.584  11.820   1.244
44236W        W16529  43.799   8.706  13.801
44237W        W16530  32.106   0.340   4.145
44238W        W16531  12.347  33.948  14.798
44239W        W16532   0.781  20.546   2.343
44240W        W16533  41.349   7.791   4.766
44241W        W16534   7.743   2.864  14.773
44242W        W16535  29.959  27.653   0.328
44243W        W16536  35.962  36.053  12.442
44244W        W16537  35.057  17.758   3.666
44245W        W16538  34.056   5.239  11.457
44246W        W16539  43.861  33.438   4.207
44247W        W16540   8.709  42.364  14.286
44248W        W16541  27.460   8.163   3.385
44249W        W16542  43.968  23.988  12.510
44250W        W16543  37.461  31.020  14.465
44251W        W16544  13.151  11.831   4.638
44252W        W16545  22.224   3.929  10.426
44253W        W16546  38.880  12.738  13.334
44254W        W16547  22.690  40.972  11.126
44255W        W16548  42.873  33.393  13.037
44256W        W16549  37.383  34.576  11.491
44257W        W16550  12.847   3.261  13.952
44258W        W16551  42.511   9.845   2.372
44259W        W16552  19.637  17.161  13.339
44260W        W16553  39.346  27.967  12.026
44261W        W16554  13.846  25.062   3.746
44262W        W16555  16.744  43.404   2.321
44263W        W16556   7.229  21.049   3.813
44264W        W16557  40.435   2.798  13.394
44265W        W16558  13.229   6.786   4.664
44266W        W16559   9.228   4.346  14.276
44267W        W16560  39.347   4.247  13.455
44268W        W16561  15.631  15.203   3.236
44269W        W16562  13.256  39.329  13.922
44270W        W16563  16.298  38.353   1.872
44271W        W16564   7.896   5.864  14.793
44272W        W16565  10.258  33.088  13.533
44273W        W16566  26.489  42.850  12.023
44274W        W16567  29.019  26.698   4.134
44275W        W16568  27.092  28.150  12.858
44276W        W16569  28.053  24.531   9.461
44277W        W16570  41.043  12.139   0.930
44278W        W16571   6.913  17.757  14.348
44279W        W16572  21.150  41.792   2.297
44280W        W16573  15.776  41.976   0.843
44281W        W16574  23.164  39.543  11.401
44282W        W16575  38.040  25.047   5.239
44283W        W16576   3.723  25.701  13.930
44284W        W16577  22.200  38.338  14.442
44285W        W16578  38.542   2.320   0.244
44286W        W16579  17.570  20.244   0.933
44287W        W16580  21.113   2.385  14.923
44288W        W16581  10.789  30.486   1.709
44289W        W16582   2.881  31.494  14.832
44290W        W16583  11.822  35.375   3.668
44291W        W16584  34.380  27.457  12.838
44292W        W16585  21.602  10.819  14.976
44293W        W16586  43.385  17.207  10.429
44294W        W16587  42.362  12.218   2.270
44295W        W16588  36.556  41.814   2.356
44296W        W16589  10.704  14.599   1.887
44297W        W16590  31.091  42.343   0.957
44298W        W16591   0.777  32.572   1.862
44299W        W16592   7.674   2.284  13.890
44300W        W16593  28.530  18.629   0.323
44301W        W16594  27.564  30.076   4.771
44302W        W16595   2.914  35.574   0.795
44303W        W16596  27.987   0.369  10.038
44304W        W16597  43.979  39.057  13.500
44305W        W16598  22.600  33.398   0.832
44306W        W16599  27.623  17.638  10.960
44307W        W16600  36.572   9.328  12.080
44308W        W16601   4.365   2.281  13.040
44309W        W16602  42.903   5.769  11.420
44310W        W16603   6.692  26.700   2.315
44311W        W16604  21.141  22.221   2.378
44312W        W16605  30.917  36.971   3.375
44313W        W16606  10.873   3.768  13.806
44314W        W16607   3.934  24.228  14.768
44315W        W16608   1.246  28.437  13.050
44316W        W16609   3.369  33.972  13.343
44317W        W16610   4.703  16.721  12.903
44318W        W16611  18.759   1.923   2.414
44319W        W16612  12.164  15.220  14.943
44320W        W16613  13.630   9.688  12.546
44321W        W16614  43.487  10.725   0.426
44322W        W16615  22.629  15.238   3.193
44323W        W16616  44.843  41.829  13.835
44324W        W16617  16.097   3.416   9.590
44325W        W16618   1.442  13.782  14.969
44326W        W16619   8.299  25.182   0.818
44327W        W16620  16.796  25.979   1.695
44328W        W16621  32.935  25.109  13.972
44329W        W16622   0.469  19.116   4.635
44330W        W16623   3.828   1.386   2.701
44331W        W16624  23.166  12.146  11.861
44332W        W16625  28.668  31.079  14.791
44333W        W16626   4.787  28.112  13.915
44334W        W16627  43.476   3.430  13.801
44335W        W16628  39.445  23.514   2.819
44336W        W16629   2.963   5.812  13.507
44337W        W16630  34.564  36.505  13.444
44338W        W16631  19.173  30.004   5.319
44339W        W16632  35.512  16.308  11.974
44340W        W16633  22.659   7.796   4.228
44341W        W16634   8.406  34.513   1.219
44342W        W16635   6.807  18.131  11.900
44343W        W16636   5.692  22.153   3.692
44344W        W16637  43.984  23.000   2.834
44345W        W16638   9.767   3.287  12.410
44346W        W16639  37.493  18.574   0.726
44347W        W16640  17.764  37.924  14.851
44348W        W16641  12.311   3.379   4.601
44349W        W16642  24.047  39.353  11.013
44350W        W16643  26.088  25.505   4.653
44351W        W16644  26.008  35.100  12.922
44352W        W16645   3.313  39.320   0.794
44353W        W16646   0.762  36.898   0.380
44354W        W16647  15.798   6.725   0.826
44355W        W16648   6.718  24.973  11.509
44356W        W16649  41.389  30.049  14.360
44357W        W16650  37.064  43.513  14.495
44358W        W16651  14.595  14.601   2.714
44359W        W16652   4.407  35.583  13.842
44360W        W16653  13.657  39.044  14.381
44361W        W16654  12.178  37.496   4.172
44362W        W16655   7.681  42.953  11.585
44363W        W16656   8.366   7.910  13.321
44364W        W16657  36.852  28.535  14.943
44365W        W16658  29.061  10.263  12.456
44366W        W16659  11.801  32.420   2.895
44367W        W16660  16.718  11.244   2.341
44368W        W16661  18.701   2.733   1.729
44369W        W16662  15.584   3.808   1.696
44370W        W16663  44.938  35.102  11.121
44371W        W16664  36.573   8.381   3.153
44372W        W16665  19.631  41.898   2.839
44373W        W16666   7.258  15.754  13.883
44374W        W16667  22.054  13.158   3.282
44375W        W16668   0.884  36.483   1.448
44376W        W16669  31.941  34.445   2.228
44377W        W16670  16.163   0.315   1.430
44378W        W16671   8.348  29.511  14.894
44379W        W16672  36.921  36.010  11.448
44380W        W16673   5.851  40.425  12.573
44381W        W16674   0.354   0.786   4.796
44382W        W16675   7.216  29.089   4.737
44383W        W16676  16.608  27.049   0.410
44384W        W16677  42.854  30.141  13.341
44385W        W16678  21.643  30.974   4.253
44386W        W16679  18.572  11.846   5.108
44387W        W16680  37.003  10.725  10.602
44388W        W16681   3.934  10.163   0.807
44389W        W16682   2.415  22.709  12.882
44390W        W16683  14.658  22.112   4.789
44391W        W16684  33.543   0.983   1.725
44392W        W16685  25.618   5.430  13.993
44393W        W16686  20.690  14.689   4.228
44394W        W16687   3.789  27.183   2.357
44395W        W16688  13.243  30.040   2.902
44396W        W16689  20.068  38.838  11.538
44397W        W16690  37.581  13.129   3.353
44398W        W16691  12.225  43.443   4.706
44399W        W16692   1.863  34.022  13.883
44400W        W16693  12.310  14.792  14.349
44401W        W16694  21.578  39.040  11.549
44402W        W16695  10.233   8.744   4.172
44403W        W16696   6.334  14.638   2.763
44404W        W16697  38.477  12.206   2.387
44405W        W16698  17.272  27.139  11.477
44406W        W16699   7.288  23.202   3.231
44407W        W16700   4.285  40.306  12.080
44408W        W16701   0.966  25.185   1.289
44409W        W16702  41.868  14.656  11.945
44410W        W16703  19.630  43.776   1.824
44411W        W16704  40.353  23.228  12.844
44412W        W16705  29.654  25.562  14.386
44413W        W16706  24.532  23.985  13.516
44414W        W16707  36.064  42.879   3.168
44415W        W16708  12.250   3.922   5.793
44416W        W16709  38.046   6.187  14.793
44417W        W16710  18.575  12.743   2.348
44418W        W16711  30.625  26.082  14.361
44419W        W16712  32.397  32.437   4.136
44420W        W16713  21.586  40.479  14.407
44421W        W16714   4.424   6.727   2.345
44422W        W16715  18.264  26.046   3.346
44423W        W16716  38.466  38.444   2.207
44424W        W16717  24.479   7.384   1.921
44425W        W16718  35.944  20.239   4.238
44426W        W16719   0.985  12.331   0.397
44427W        W16720  30.525   4.915   0.883
44428W        W16721  40.004  19.066  13.395
44429W        W16722  25.542  19.078  11.957
44430W        W16723  28.597  27.037   4.775
44431W        W16724  37.462  44.480  13.479
44432W        W16725   8.357  15.087   2.276
44433W        W16726  24.710  42.281  12.832
44434W        W16727  24.486   9.376   0.862
44435W        W16728  11.638   0.294  14.290
44436W        W16729   6.328   4.709   3.165
44437W        W16730  14.678  41.998  11.917
44438W        W16731   3.317  25.659  13.805
44439W        W16732  38.503  34.610  11.957
44440W        W16733  38.877  32.516   1.248
44441W        W16734   7.325  16.090   2.281
44442W        W16735  10.273   5.244   1.436
44443W        W16736  16.291  41.500  10.908
44444W        W16737  22.593   8.355  10.918
44445W        W16738  12.318  31.078  12.544
44446W        W16739  22.995  43.803   4.321
44447W        W16740  38.998  31.938  10.631
44448W        W16741  14.683   3.325   3.798
44449W        W16742  42.313  21.062  12.848
44450W        W16743  43.298   6.861   3.373
44451W        W16744   2.809  25.522   2.395
44452W        W16745  40.429  15.209   2.414
44453W        W16746  21.246  32.957   5.126
44454W        W16747  20.211  22.169   2.787
44455W        W16748  38.479  41.304   4.126
44456W        W16749  26.152  23.064   2.414
44457W        W16750  40.871  38.433  11.508
44458W        W16751  18.119  38.492  13.489
44459W        W16752  20.263   8.849   3.254
44460W        W16753   2.271  43.282  13.023
44461W        W16754  44.277  23.704  14.329
44462W        W16755  32.435  15.299  11.895
44463W        W16756  12.359   6.707  12.942
44464W        W16757   4.204  24.174   3.370
44465W        W16758  28.993  44.809   4.797
44466W        W16759  42.306  37.900   4.779
44467W        W16760  40.357  38.852  14.467
44468W        W16761  39.533  24.529   4.192
44469W        W16762   6.352  34.532  11.376
44470W        W16763  37.908  41.374  12.906
44471W        W16764  29.960  32.476  11.587
44472W        W16765  40.006  18.777   1.376
44473W        W16766  32.088   0.825  13.450
44474W        W16767  42.513  36.015   2.303
44475W        W16768   0.763  34.027   1.450
44476W        W16769  37.881  35.367   2.662
44477W        W16770  43.835  43.296   0.335
44478W        W16771   1.274  10.260  12.845
44479W        W16772  14.789  37.417  11.950
44480W        W16773  44.357  12.270   1.739
44481W        W16774  12.141   6.691  13.423
44482W        W16775  31.097  11.151  13.019
44483W        W16776   2.319  21.733   3.236
44484W        W16777  27.110  22.012  12.945
44485W        W16778   3.849   7.408  10.477
44486W        W16779   6.198   4.414  11.908
44487W        W16780  14.678  26.655  11.926
44488W        W16781  32.038   9.820   4.217
44489W        W16782   1.311  26.196  11.420
44490W        W16783   0.969   9.376   0.918
44491W        W16784  42.462   9.861  12.491
44492W        W16785   8.365   1.250  13.956
44493W        W16786  35.527  13.131  12.526
44494W        W16787  15.815   5.844  13.953
44495W        W16788  28.969   9.370  12.824
44496W        W16789  29.017  32.512  10.917
44497W        W16790  13.256  14.819  11.591
44498W        W16791  20.221   7.856  14.001
44499W        W16792  14.243   6.868   2.714
44500W        W16793  19.258  38.383  10.946
44501W        W16794  13.649  40.908   1.446
44502W        W16795  37.890  20.721  13.945
44503W        W16796  22.085  32.016  14.372
44504W        W16797  40.325  10.843  11.578
44505W        W16798   8.746  20.677  13.864
44506W        W16799  28.964  20.113   1.754
44507W        W16800   6.239  14.764   2.270
44508W        W16801  21.083  13.125   0.961
44509W        W16802  26.458  43.862   2.782
44510W        W16803   8.357   2.874   1.801
44511W        W16804  43.272  34.881   2.827
44512W        W16805  14.717  11.245  11.885
44513W        W16806   1.300  43.418   0.292
44514W        W16807  25.153  41.334   3.313
44515W        W16808   9.202  40.866   1.781
44516W        W16809  24.124   9.699  14.959
44517W        W16810  18.781  24.630   3.374
44518W        W16811   0.349  13.215   0.812
44519W        W16812  25.690   5.729  12.373
44520W        W16813   0.923  24.676   3.251
44521W        W16814  26.592   9.832  13.915
44522W        W16815  27.489  39.906  14.499
44523W        W16816  16.309  37.032   4.182
44524W        W16817   4.751  43.785   0.746
44525W        W16818   4.934  32.972   4.219
44526W        W16819  27.476  34.967  13.935
44527W        W16820   3.787  22.166   4.171
44528W        W16821  18.639  29.600   0.301
44529W        W16822  14.288  40.051   0.966
44530W        W16823   3.818  22.067  11.079
44531W        W16824   4.805  19.284   3.248
44532W        W16825  14.249  44.467   3.318
44533W        W16826  31.527  39.025   4.607
44534W        W16827  35.589  43.803   4.321
44535W        W16828  23.029  23.022   4.686
44536W        W16829   2.782  36.396  14.839
44537W        W16830  31.937  20.605   0.794
44538W        W16831   8.854  33.946   4.290
44539W        W16832  43.889  39.521   2.404
44540W        W16833  20.562  34.520   3.758
44541W        W16834  42.865   3.889   0.313
44542W        W16835   2.279  33.499  11.876
44543W        W16836  16.706  23.519   1.362
44544W        W16837   5.422  44.490   2.884
44545W        W16838   7.887  40.428  14.007
44546W        W16839   5.770  44.488   2.802
44547W        W16840  42.949  37.034   3.242
44548W        W16841  18.588  34.897   4.675
44549W        W16842  31.947   2.353  13.843
44550W        W16843  40.933  32.006   4.642
44551W        W16844  35.361  14.231   3.771
44552W        W16845  26.497  40.311   1.337
44553W        W16846  21.731  35.081  14.429
44554W        W16847  22.127  16.270   2.761
44555W        W16848  17.112  17.076   2.772
44556W        W16849  33.102   9.349   1.331
44557W        W16850  13.164  40.831   2.724
44558W        W16851  37.066  39.551   2.192
44559W        W16852  16.162  38.351  11.479
44560W        W16853   6.376  32.030  14.308
44561W        W16854  22.576   7.390   4.821
44562W        W16855  10.297  41.475  11.997
44563W        W16856  29.996  30.066   4.693
44564W        W16857   8.662  42.515  14.951
44565W        W16858  14.234  17.598   3.788
44566W        W16859  37.984  31.476  12.482
44567W        W16860   8.162  10.860  12.433
44568W        W16861  24.583  15.093  10.985
44569W        W16862  34.468  31.616  10.433
44570W        W16863  30.018   5.193  11.454
44571W        W16864   7.842   1.267   4.769
44572W        W16865  19.258  25.186   2.724
44573W        W16866  14.190  38.879  13.878
44574W        W16867  41.499   3.402  12.892
44575W        W16868  14.331  41.418  12.993
44576W        W16869  31.998  14.709  12.542
44577W        W16870  41.470  41.445  14.330
44578W        W16871  27.997  25.213   3.633
44579W        W16872  18.234  21.144   5.661
44580W        W16873  33.502  38.950  14.383
44581W        W16874  37.502  41.451  10.989
44582W        W16875  28.181  38.850  13.814
44583W        W16876  33.014  33.532  10.919
44584W        W16877  43.926  10.325   4.189
44585W        W16878  38.541  16.701  13.050
44586W        W16879  30.101  19.656  12.403
44587W        W16880  38.549  19.225   1.761
44588W        W16881  42.912  34.051  11.534
44589W        W16882  34.007  31.119  13.961
44590W        W16883  26.956  17.208   1.375
44591W        W16884  39.449  10.667  14.402
44592W        W16885   8.360  29.960  14.847
44593W        W16886   0.481  32.492  12.019
44594W        W16887   8.212  16.728   0.931
44595W        W16888  35.521  32.393  11.087
44596W        W16889   1.280   5.910   0.727
44597W        W16890  14.759   6.793   0.441
44598W        W16891  43.327  29.944   3.209
44599W        W16892   5.843  44.482  12.051
44600W        W16893   6.863   3.809  13.979
44601W        W16894  13.163  20.554  13.954
44602W        W16895   7.738  43.908   1.415
44603W        W16896  13.338   0.854   3.669
44604W        W16897   6.906  18.685   1.812
44605W        W16898  37.910  42.328   0.790
44606W        W16899  14.668  44.835  14.356
44607W        W16900  40.950  31.408   3.782
44608W        W16901  11.325   9.830   2.206
44609W        W16902  18.156  12.226  11.430
44610W        W16903   5.809   8.840   3.666
44611W        W16904  32.501  15.815  12.419
44612W        W16905  28.646   0.360   4.303
44613W        W16906  33.075  21.654   2.238
44614W        W16907  13.779   6.402  14.475
44615W        W16908  24.702  24.524   1.747
44616W        W16909  44.927  14.119   0.951
44617W        W16910   5.933  14.751  14.276
44618W        W16911  28.592  29.048  13.413
44619W        W16912  12.732  20.759  14.918
44620W        W16913  24.142  28.100  12.990
44621W        W16914  43.303  33.511  14.860
44622W        W16915  10.373  38.479   5.202
44623W        W16916   3.732  21.188   0.353
44624W        W16917  28.563  35.492   4.672
44625W        W16918  32.581  32.933   3.729
44626W        W16919  36.989  39.848   0.848
44627W        W16920  10.328  28.098   2.290
44628W        W16921  35.042  29.036   5.225
44629W        W16922   7.192  42.022  13.542
44630W        W16923  24.000  29.490   4.665
44631W        W16924  41.920  32.628   2.188
44632W        W16925   1.909  40.878  13.021
44633W        W16926   8.746  34.076   5.089
44634W        W16927  31.581  33.433   2.307
44635W        W16928  14.819  14.155   5.089
44636W        W16929  34.061  30.079   1.912
44637W        W16930  42.345   9.167   3.634
44638W        W16931  17.674  27.163  13.829
44639W        W16932  40.996  31.406  14.769
44640W        W16933  19.572   5.709   3.697
44641W        W16934  24.671  11.653   2.708
44642W        W16935  12.628  34.066  11.442
44643W        W16936  37.510  42.298  12.474
44644W        W16937  35.478  29.581   4.757
44645W        W16938  17.742   7.842   4.659
44646W        W16939  34.439  31.520   2.749
44647W        W16940   4.339  23.710  13.310
44648W        W16941  41.478  42.379   2.891
44649W        W16942  18.066  18.198  11.524
44650W        W16943  38.499  11.763  13.402
44651W        W16944  23.204  15.262   3.370
44652W        W16945  21.517  19.095   2.195
44653W        W16946  35.371  42.831   3.715
44654W        W16947  33.469   2.376   4.787
44655W        W16948  12.317   0.247   3.185
44656W        W16949  23.497   4.418  10.463
44657W        W16950   6.266  17.606  12.981
44658W        W16951  35.046  31.496   0.838
44659W        W16952  13.198  34.481  10.984
44660W        W16953  11.740   2.419   3.288
44661W        W16954  10.802  33.933   2.856
44662W        W16955  10.717  23.715  14.832
44663W        W16956   7.839  40.947  11.504
44664W        W16957  19.549  19.166   0.927
44665W        W16958  20.534  41.514   3.311
44666W        W16959   3.935  34.871   4.781
44667W        W16960   8.719   4.753   1.800
44668W        W16961  22.734  18.275   3.254
44669W        W16962   9.862   5.698  10.958
44670W        W16963  12.144  44.494   1.278
44671W        W16964  21.118  15.201  11.057
44672W        W16965  39.423  24.504   3.198
44673W        W16966   1.806  10.182   9.947
44674W        W16967  33.478  30.068  14.868
44675W        W16968  19.163  38.026   2.811
44676W        W16969  22.211  18.707  14.493
44677W        W16970  38.873  43.843   0.462
44678W        W16971  36.536   1.423   3.671
44679W        W16972   9.213  44.804  13.319
44680W        W16973   0.925  14.313  12.512
44681W        W16974  11.666  22.692   1.925
44682W        W16975  35.865   0.408  14.276
44683W        W16976   5.867  30.596   1.906
44684W        W16977  23.526  44.459  12.834
44685W        W16978  22.744  37.956  13.966
44686W        W16979   0.889  30.070  12.423
44687W        W16980   2.930   8.729  12.344
44688W        W16981  19.243  27.975  11.995
44689W        W16982  37.834  31.448   2.322
44690W        W16983  43.364  39.540  11.479
44691W        W16984  40.905  23.695  11.534
44692W        W16985  25.102  10.231   4.330
44693W        W16986  31.419   1.928   1.790
44694W        W16987  33.009  12.325  14.350
44695W        W16988  29.640   3.389   3.341
44696W        W16989  29.084   9.797   4.653
44697W        W16990  11.345  40.005  14.458
44698W        W16991   7.725  24.484  14.815
44699W        W16992   0.361  44.922   1.249
44700W        W16993  14.778  37.506   0.812
44701W        W16994  25.205  31.473  12.430
44702W        W16995  13.150  33.442   3.670
44703W        W16996   0.843  23.688   0.916
44704W        W16997   1.374  14.727  12.532
44705W        W16998  35.958  42.941  10.080
44706W        W16999   7.199  10.632  12.494
44707W        W17000  40.937   4.270  14.433
44708W        W17001  33.439  23.729   0.840
44709W        W17002  31.542   7.697   5.285
44710W        W17003  33.893  29.090  13.840
44711W        W17004  25.613  15.663  10.154
44712W        W17005  19.686  15.581  13.458
44713W        W17006  37.993  29.980   2.831
44714W        W17007  25.708   4.753   4.717
44715W        W17008  43.896   8.686   0.356
44716W        W17009  26.676  25.539  13.830
44717W        W17010   5.891   4.292  10.972
44718W        W17011  23.136  37.446   2.781
44719W        W17012  32.582   6.893  11.032
44720W        W17013  10.300  30.418  11.903
44721W        W17014  10.357  36.449   3.863
44722W        W17015  26.112   6.683   3.714
44723W        W17016  19.633  17.143   3.343
44724W        W17017  31.942  41.933  12.023
44725W        W17018  42.295  11.667   1.719
44726W        W17019  33.563  34.024   4.780
44727W        W17020  38.014   5.893  13.533
44728W        W17021  30.907  25.998  10.988
44729W        W17022  38.870  22.067  14.856
44730W        W17023  10.804  23.625   4.271
44731W        W17024  44.325  11.236   0.319
44732W        W17025  35.553  20.247   4.125
44733W        W17026   7.841  13.129  10.620
44734W        W17027  35.064  37.409   1.912
44735W        W17028  32.522   4.869  13.906
44736W        W17029  41.301   2.287  11.982
44737W        W17030  25.697  12.228  11.581
44738W        W17031  25.965  17.245   0.934
44739W        W17032   2.956   7.796  13.506
44740W        W17033  17.694  19.217   0.311
44741W        W17034  16.177  43.781   1.818
44742W        W17035  37.915   8.794  13.545
44743W        W17036  42.364  36.094   1.340
44744W        W17037  32.927   4.871   3.319
44745W        W17038  22.563   6.844   9.981
44746W        W17039   7.375  41.491  14.009
44747W        W17040  17.248  42.446   1.808
44748W        W17041   5.365  42.868  13.930
44749W        W17042  12.645  20.764  11.481
44750W        W17043  13.702   5.735  11.382
44751W        W17044   4.258  11.227   0.474
44752W        W17045  24.615  32.452   3.160
44753W        W17046   4.331  26.096  13.003
44754W        W17047  22.083  34.483  12.341
44755W        W17048  27.167   4.760  12.944
44756W        W17049  26.203  21.206  11.427
44757W        W17050   0.475  37.370  13.496
44758W        W17051  28.677  16.726  11.554
44759W        W17052  40.374   9.158   0.301
44760W        W17053  20.125  33.951  13.968
44761W        W17054   0.471  19.281   2.884
44762W        W17055   8.227   5.781  13.889
44763W        W17056  42.816  14.771   4.748
44764W        W17057  20.164  13.137  14.030
44765W        W17058  38.447  36.985   2.884
44766W        W17059  34.485   4.331  11.463
44767W        W17060  27.668  19.090   0.426
44768W        W17061  41.848  12.802  11.594
44769W        W17062  14.636  26.458   0.476
44770W        W17063   6.687  16.117   1.425
44771W        W17064  43.292  43.489   2.698
44772W        W17065  43.960  31.102   0.370
44773W        W17066  31.115  39.997  13.891
44774W        W17067  34.954   0.332   2.382
44775W        W17068  43.346   9.301  12.073
44776W        W17069  12.324  25.494  11.523
44777W        W17070   0.867  42.898   3.376
44778W        W17071  32.566   3.774  13.327
44779W        W17072  15.762  37.977  13.401
44780W        W17073  39.846  34.002  13.500
44781W        W17074  15.301  21.519   4.651
44782W        W17075  36.013   0.905   1.233
44783W        W17076   6.714  18.055   3.363
44784W        W17077  39.389  28.014  12.966
44785W        W17078  29.054  23.537   2.287
44786W        W17079  43.514  16.631   3.149
44787W        W17080  40.529  42.295   0.251
44788W        W17081  36.025  33.106  10.596
44789W        W17082  36.462   8.878  13.431
44790W        W17083   2.318  24.992  13.381
44791W        W17084  41.399   2.872  13.819
44792W        W17085  28.157  41.871  10.908
44793W        W17086  44.987  28.995   1.750
44794W        W17087  32.567  31.122  11.095
44795W        W17088  18.680   7.230  10.624
44796W        W17089  15.742   3.854   2.755
44797W        W17090  36.350  40.938  11.960
44798W        W17091  24.675  20.164  12.076
44799W        W17092  10.670  22.556   4.748
44800W        W17093   3.320  20.253  11.937
44801W        W17094  44.386  31.977  10.145
44802W        W17095  16.087   6.345  13.384
44803W        W17096  15.748   3.292   1.716
44804W        W17097  40.855  43.817   2.677
44805W        W17098  21.554   5.396  10.519
44806W        W17099  11.752  35.903  12.559
44807W        W17100  14.594  44.861  12.957
44808W        W17101  40.480  10.827   2.251
44809W        W17102  26.046  24.638  11.931
44810W        W17103  36.400  41.376  12.948
44811W        W17104   7.825  31.480  10.469
44812W        W17105  33.547  22.617  11.009
44813W        W17106  37.520  17.209  13.865
44814W        W17107  34.466  44.782   0.942
44815W        W17108  35.957  24.173  11.481
44816W        W17109  44.362  42.290  13.432
44817W        W17110  37.087  17.289  12.928
44818W        W17111  39.437  37.063  13.362
44819W        W17112  25.161  16.254  12.564
44820W        W17113   8.307  17.236  14.766
44821W        W17114  37.386  12.714  11.446
44822W        W17115  17.723  32.046   4.624
44823W        W17116  17.264  44.984  10.405
44824W        W17117  28.597   7.275  11.458
44825W        W17118  21.753  20.098  13.971
44826W        W17119  41.488   3.338  14.908
44827W        W17120  32.518  32.916  12.482
44828W        W17121   0.257  36.011  11.054
44829W        W17122  42.840  31.035   4.783
44830W        W17123  18.602   2.325   5.273
44831W        W17124  19.126  31.633  13.822
44832W        W17125  26.101  31.114  11.035
44833W        W17126  43.802  28.038  11.081
44834W        W17127  10.825  26.505   4.206
44835W        W17128   7.258  16.111   0.915
44836W        W17129  44.950  13.649   3.353
44837W        W17130  41.314   4.423  13.470
44838W        W17131  13.318  42.001  13.974
44839W        W17132   4.436  23.592  14.279
44840W        W17133   6.800  11.154  14.386
44841W        W17134  23.687  26.681  14.788
44842W        W17135  37.913  16.670  13.927
44843W        W17136  38.559  29.124  10.519
44844W        W17137   6.787  32.498  11.596
44845W        W17138   7.872  17.616  13.856
44846W        W17139  31.913  39.994  14.341
44847W        W17140  28.559  17.175   1.935
44848W        W17141  44.949  33.497  12.989
44849W        W17142  13.616  33.994  14.783
44850W        W17143  10.328   4.370  11.374
44851W        W17144  25.983  36.026   3.776
44852W        W17145  21.653  41.339   2.182
44853W        W17146  14.656   9.385  12.447
44854W        W17147  26.677  18.766  14.370
44855W        W17148  14.800  26.140  14.810
44856W        W17149  10.821  44.885  13.899
44857W        W17150  29.604  17.719  10.628
44858W        W17151  11.659  37.004   3.729
44859W        W17152  43.005  23.572  12.487
44860W        W17153  18.051  23.497   1.273
44861W        W17154  15.113  20.721   0.817
44862W        W17155  36.095  36.473  11.490
44863W        W17156  10.228   9.846  12.504
44864W        W17157  25.981  41.911   2.874
44865W        W17158   7.765   1.892  14.313
44866W        W17159   8.277  10.661  14.817
44867W        W17160  23.619   3.305  10.084
44868W        W17161  41.506   5.933  12.088
44869W        W17162   1.891  41.005   1.307
44870W        W17163   5.835  34.957  11.074
44871W        W17164  19.051  40.962  12.382
44872W        W17165   3.750   5.721  12.825
44873W        W17166  14.187   9.178   3.329
44874W        W17167  19.761  23.120   0.270
44875W        W17168   6.746  11.299  11.936
44876W        W17169  37.491  39.522  13.459
44877W        W17170  32.598  36.953   1.921
44878W        W17171   5.384  35.471   2.276
44879W        W17172  39.866  40.546   2.221
44880W        W17173   5.388  22.198  13.964
44881W        W17174  42.424  14.625  12.545
44882W        W17175  34.944  14.673   4.252
44883W        W17176  19.769  13.287  10.515
44884W        W17177  33.480  18.127  14.031
44885W        W17178   1.358  43.331   3.772
44886W        W17179  42.453  31.424   3.310
44887W        W17180  24.011  12.156   4.655
44888W        W17181   5.866   6.303   2.250
44889W        W17182  40.424  41.393   2.353
44890W        W17183  42.452  36.942  11.547
44891W        W17184  41.882  30.566  10.537
44892W        W17185   7.294  39.930  12.895
44893W        W17186  23.669  21.177   1.417
44894W        W17187  25.170  26.141   2.681
44895W        W17188  28.074  35.566  14.342
44896W        W17189  27.646  26.967  12.359
44897W        W17190   6.367  36.502   1.226
44898W        W17191  31.592   2.772  12.429
44899W        W17192  24.514  25.079  12.417
44900W        W17193  10.250   8.230  14.439
44901W        W17194  20.244  37.467  10.919
44902W        W17195  31.616  21.081  11.531
44903W        W17196  21.020  37.938   2.352
44904W        W17197   8.257   8.717  14.317
44905W        W17198  32.002  15.629   2.266
44906W        W17199  19.220  29.962   5.610
44907W        W17200  24.633   6.328  14.448
44908W        W17201  43.508  22.215   0.270
44909W        W17202  16.097  33.482  11.411
44910W        W17203  28.489  15.314   0.781
44911W        W17204  31.070   3.331  11.397
44912W        W17205  32.909   6.270   1.378
44913W        W17206  10.655   7.718  13.507
44914W        W17207   5.858  43.949  10.529
44915W        W17208  22.049  11.863  10.490
44916W        W17209  26.693   8.294   0.859
44917W        W17210  14.235   9.728   0.257
44918W        W17211  24.165  17.689  12.479
44919W        W17212   8.770   4.445   3.748
44920W        W17213  30.144  41.323   1.315
44921W        W17214  40.822   4.721  10.574
44922W        W17215  35.466  24.647   4.126
44923W        W17216  16.270  25.090   3.175
44924W        W17217  39.501   2.318  13.907
44925W        W17218  25.583   2.233   4.307
44926W        W17219   4.254  17.166  12.508
44927W        W17220  13.682   2.284  11.125
44928W        W17221  24.684  40.323  13.538
44929W        W17222  11.697  10.367  10.575
44930W        W17223  25.096  31.475   1.911
44931W        W17224  23.558   9.782  10.537
44932W        W17225  12.615   4.939  12.443
44933W        W17226  31.610   2.246   0.449
44934W        W17227   7.383  21.240   5.301
44935W        W17228  41.919  32.106  10.002
44936W        W17229  20.543  40.863  12.347
44937W        W17230  12.178  14.107  10.643
44938W        W17231   2.799  14.741  12.523
44939W        W17232  38.861  20.075   0.962
44940W        W17233  28.570   9.803  12.917
44941W        W17234  20.228  24.224   2.893
44942W        W17235   2.333   3.726  14.513
44943W        W17236  20.269  35.009   1.292
44944W        W17237  18.240  12.155  11.880
44945W        W17238  33.884  41.400  14.860
44946W        W17239  14.120  17.295  14.313
44947W        W17240  41.888  35.085  14.453
44948W        W17241  31.523   0.326  13.327
44949W        W17242   2.356   8.404   4.227
44950W        W17243  31.137  10.644   5.243
44951W        W17244  29.597  29.990   3.797
44952W        W17245  21.697   1.859  12.885
44953W        W17246  33.129  17.186  11.053
44954W        W17247  38.429  14.670   4.285
44955W        W17248   3.375  13.214   3.381
44956W        W17249  11.635  39.350   2.859
44957W        W17250  40.037  41.984   2.718
44958W        W17251  43.780  32.499   3.238
44959W        W17252  26.656  37.080  11.540
44960W        W17253  10.367  30.975  10.964
44961W        W17254  40.338  17.620   1.816
44962W        W17255  41.005  19.105  10.524
44963W        W17256  16.131  32.108   4.254
44964W        W17257  40.812  11.674   0.823
44965W        W17258  26.474  30.996  13.340
44966W        W17259  18.738  29.625   3.647
44967W        W17260  10.703   5.323   3.337
44968W        W17261  25.985  34.874   4.271
44969W        W17262   4.821  13.235  10.982
44970W        W17263  34.477  20.744   4.787
44971W        W17264   7.721  23.126   0.885
44972W        W17265  26.071  34.031   1.872
44973W        W17266  30.005  16.596  11.037
44974W        W17267  22.161  17.117  10.514
44975W        W17268  10.729  16.249   1.777
44976W        W17269  34.391  15.794  14.278
44977W        W17270  43.321  21.584  10.618
44978W        W17271  25.514  14.216   2.823
44979W        W17272   2.427   0.834   1.828
44980W        W17273  37.458  36.036  12.475
44981W        W17274  33.390  17.720  11.925
44982W        W17275   8.362  31.033   0.876
44983W        W17276  41.879  20.124   2.791
44984W        W17277  25.108  29.094  10.122
44985W        W17278   8.777  20.174   1.337
44986W        W17279  42.303   3.861  13.969
44987W        W17280  43.841   4.712  14.021
44988W        W17281   2.777  38.870  10.517
44989W        W17282  28.095  22.030   1.408
44990W        W17283  29.498   2.285  14.978
44991W        W17284   1.413  12.267  11.981
44992W        W17285  39.425  18.752  13.038
44993W        W17286  16.603  10.709  12.901
44994W        W17287  35.095  23.690  10.415
44995W        W17288  21.231  32.091  13.062
44996W        W17289  40.034   8.304   3.767
44997W        W17290  26.505  16.721   2.723
44998W        W17291  12.147  39.446  12.342
44999W        W17292  43.989  39.396  12.936
45000W        W17293  38.006   0.837  14.348
45001W        W17294  30.545  32.451  11.069
45002W        W17295  29.574  16.297  14.839
45003W        W17296  14.232   1.446   9.585
45004W        W17297   3.334  24.226   3.670
45005W        W17298  33.541  18.108   5.133
45006W        W17299  29.482  41.487   3.344
45007W        W17300   3.281  27.968   4.655
45008W        W17301  22.554  21.066  11.507
45009W        W17302  36.402  28.945   0.462
45010W        W17303   0.777   6.401   1.767
45011W        W17304  16.704   6.792   0.945
45012W        W17305   9.322  27.973  12.928
45013W        W17306   2.336  32.518  10.429
45014W        W17307  43.784  39.341  10.482
45015W        W17308  14.328   7.222  13.868
45016W        W17309  18.761  16.306  12.969
45017W        W17310  25.974  37.993  14.840
45018W        W17311   8.281   1.462  13.496
45019W        W17312  11.363  43.390   2.807
45020W        W17313  40.975   4.856  13.838
45021W        W17314   2.723  36.936   2.275
45022W        W17315   5.354  27.644  11.969
45023W        W17316  22.550  28.047  14.385
45024W        W17317  21.224  27.028   0.849
45025W        W17318   0.760  38.834   3.841
45026W        W17319  16.713  44.327  11.554
45027W        W17320  31.451  11.827  14.391
45028W        W17321   7.227  37.857  12.383
45029W        W17322  42.341  13.635   3.868
45030W        W17323  23.054   1.360  10.538
45031W        W17324  13.265  39.840  13.827
45032W        W17325  22.672  32.029   3.729
45033W        W17326   9.829  29.484   4.742
45034W        W17327  11.164  20.164  11.564
45035W        W17328   1.775   6.747   1.342
45036W        W17329   1.292  10.771  11.078
45037W        W17330  44.932  29.021   4.747
45038W        W17331  41.012   7.329   3.320
45039W        W17332  31.911  32.989   0.483
45040W        W17333  39.432  19.086  13.506
45041W        W17334   2.456  36.547  10.513
45042W        W17335  32.967  15.627  12.499
45043W        W17336  26.606   2.240  14.297
45044W        W17337  15.215  26.480   4.330
45045W        W17338  25.135   5.780   1.423
45046W        W17339  26.609   8.766   0.957
45047W        W17340  18.052   9.848   2.798
45048W        W17341  40.333  41.320  13.508
45049W        W17342  14.305  13.181   4.193
45050W        W17343   8.332   0.752  13.890
45051W        W17344  21.102   8.407   3.284
45052W        W17345  13.213  20.186  14.014
45053W        W17346  34.476  20.557  12.566
45054W        W17347   4.924  27.655  13.894
45055W        W17348  11.136  11.633  12.968
45056W        W17349  42.818  17.699   2.822
45057W        W17350  36.861   3.722   2.898
45058W        W17351   4.715  37.569  14.960
45059W        W17352  43.961   7.261  11.406
45060W        W17353  42.519  21.096   2.273
45061W        W17354  33.436  20.601   0.361
45062W        W17355  43.279  17.683   4.723
45063W        W17356  36.553  32.963   0.922
45064W        W17357  13.322  20.121   2.199
45065W        W17358  28.972   1.426   1.887
45066W        W17359  41.428  14.207  10.945
45067W        W17360  26.677  11.865   1.330
45068W        W17361   9.311  40.977  12.856
45069W        W17362  31.632  29.576   0.366
45070W        W17363  39.462  17.747  14.375
45071W        W17364  44.992  35.031   1.929
45072W        W17365  20.581  38.901   9.994
45073W        W17366   0.469  35.005  14.365
45074W        W17367   3.443  43.470  14.305
45075W        W17368  13.240  38.403   1.886
45076W        W17369  24.204  19.205   3.339
45077W        W17370  36.505   2.327   0.896
45078W        W17371  25.073  20.217   1.890
45079W        W17372   4.294   7.890   3.231
45080W        W17373  24.479  13.844   0.266
45081W        W17374  41.483  22.612   4.240
45082W        W17375  29.515  17.607  12.427
45083W        W17376  11.166  44.267   2.898
45084W        W17377  26.469  27.688   0.739
45085W        W17378  34.414   4.321   4.338
45086W        W17379  27.988  29.978   1.774
45087W        W17380  26.158  26.626  11.880
45088W        W17381  17.681   9.852  10.405
45089W        W17382  28.937  34.920   4.298
45090W        W17383  28.985  43.877  10.599
45091W        W17384   6.902  12.352   3.735
45092W        W17385  12.758  13.246   3.357
45093W        W17386  15.739  26.103  10.508
45094W        W17387  10.652  35.882   0.372
45095W        W17388  32.971   8.205  13.925
45096W        W17389  38.987  24.668  11.943
45097W        W17390  28.015  44.368   4.218
45098W        W17391   1.244  33.099  14.435
45099W        W17392   5.694  11.804  11.878
45100W        W17393   8.296  22.694   3.829
45101W        W17394  29.984  26.462  13.394
45102W        W17395  24.494  28.016  14.016
45103W        W17396   8.782  15.100  11.397
45104W        W17397  37.940  41.291   5.167
45105W        W17398  22.745   3.322   4.809
45106W        W17399  12.214  37.919  10.597
45107W        W17400  20.209  32.107   4.796
45108W        W17401  13.234  39.353   2.841
45109W        W17402  36.351  35.419  14.907
45110W        W17403   9.230  25.019   1.338
45111W        W17404  14.135  21.137   3.673
45112W        W17405  19.137   9.263  10.420
45113W        W17406  14.238   3.281  14.032
45114W        W17407   5.756  34.902  13.811
45115W        W17408   3.331   5.777   0.756
45116W        W17409  35.017  22.616   2.329
45117W        W17410   3.728  14.183  13.956
45118W        W17411  12.277  25.663  14.291
45119W        W17412  42.525  39.900  12.522
45120W        W17413  36.900   5.305   4.723
45121W        W17414   3.905  16.211   3.847
45122W        W17415  43.295  24.671   0.830
45123W        W17416  27.556  35.078   4.215
45124W        W17417  16.298  26.672  14.928
45125W        W17418  32.533   6.691   1.827
45126W        W17419  40.807  31.542   1.215
45127W        W17420  33.445  23.659   2.742
45128W        W17421  24.026  39.035   3.686
45129W        W17422  41.858  35.370  14.839
45130W        W17423  32.024  16.243  11.535
45131W        W17424  18.147  39.498   1.935
45132W        W17425  33.607   6.308  14.444
45133W        W17426  19.601  33.922  14.993
45134W        W17427  33.583  26.673   2.723
45135W        W17428  26.180  23.047   1.799
45136W        W17429  12.291  41.466  10.585
45137W        W17430  10.798  14.145   1.901
45138W        W17431  16.146   1.392   2.680
45139W        W17432  36.050  41.491   3.774
45140W        W17433  13.213  18.204   2.719
45141W        W17434  16.089  30.030   2.341
45142W        W17435  10.287  44.314  11.404
45143W        W17436  43.939  32.006  11.544
45144W        W17437  19.655  12.349  10.409
45145W        W17438  22.528  44.985  10.535
45146W        W17439  30.113  24.178   3.173
45147W        W17440  23.125  34.027   4.198
45148W        W17441  43.366  10.373  10.584
45149W        W17442  36.541  33.512   1.286
45150W        W17443  11.287  24.055   3.273
45151W        W17444   9.320  44.766   4.181
45152W        W17445  41.848   7.417  11.610
45153W        W17446  29.945  14.788  13.891
45154W        W17447  17.684   8.872   2.821
45155W        W17448  39.455  24.524  14.916
45156W        W17449  33.924  18.609  10.605
45157W        W17450  26.054  27.584  12.354
45158W        W17451   8.286  27.081  12.977
45159W        W17452  17.083  32.403  12.849
45160W        W17453  20.238   9.237   4.276
45161W        W17454  31.092   6.306   2.843
45162W        W17455  39.832  10.857   0.435
45163W        W17456   8.380  26.103  11.566
45164W        W17457  22.238   8.199   2.732
45165W        W17458   4.397  12.628   0.853
45166W        W17459  17.570  38.906   3.775
45167W        W17460  22.620  40.409  14.467
45168W        W17461   7.388  44.976  13.483
45169W        W17462  22.173  18.183   1.287
45170W        W17463   1.947   6.216   0.749
45171W        W17464  23.219  33.949   1.212
45172W        W17465  29.625  26.993   2.749
45173W        W17466  30.971  32.091   1.845
45174W        W17467  30.446  43.423  11.455
45175W        W17468  10.378  26.697  13.933
45176W        W17469  16.755  25.700   0.387
45177W        W17470  10.314   2.275  10.459
45178W        W17471  20.536  22.520   3.252
45179W        W17472   0.345  12.733   0.351
45180W        W17473  15.238  15.750  10.064
45181W        W17474  25.101  19.696   0.938
45182W        W17475  20.536  42.471  10.606
45183W        W17476  23.567   4.732   1.723
45184W        W17477  12.289  36.885  14.926
45185W        W17478  17.770  43.955   2.218
45186W        W17479  17.168  22.698   2.842
45187W        W17480  10.686  39.343  13.350
45188W        W17481  25.023  22.610  13.502
45189W        W17482   2.417   5.212   1.804
45190W        W17483  41.869  34.485  10.997
45191W        W17484  13.656   2.811   0.421
45192W        W17485  42.889  12.757  11.446
45193W        W17486  40.536  25.489  13.364
45194W        W17487  18.567  22.108   1.868
45195W        W17488   2.882  21.236  12.460
45196W        W17489  42.784   7.893   4.306
45197W        W17490  23.660  11.229  12.567
45198W        W17491   9.862  37.542  14.986
45199W        W17492  42.824  21.682  13.337
45200W        W17493  31.896  38.006  13.403
45201W        W17494  37.491  12.157  10.494
45202W        W17495  34.603   0.427  11.581
45203W        W17496   6.219  26.547  12.928
45204W        W17497  14.224  35.400  12.454
45205W        W17498  40.830  34.377   2.825
45206W        W17499  37.083   9.724   4.253
45207W        W17500   1.361   9.852   2.709
45208W        W17501  38.937  12.195  14.399
45209W        W17502   9.726   3.238  10.482
45210W        W17503  25.501  14.671  14.374
45211W        W17504  22.523  33.109  14.358
45212W        W17505   3.873  41.453  13.821
45213W        W17506  17.064  34.440   1.273
45214W        W17507  31.537  36.937  12.045
45215W        W17508  17.590   1.262  13.035
45216W        W17509  17.223  11.212   4.611
45217W        W17510  39.484   5.263   1.333
45218W        W17511  27.117   4.312   2.351
45219W        W17512  32.051  18.779   3.264
45220W        W17513   0.846  38.547  14.764
45221W        W17514  15.265  20.190  12.961
45222W        W17515  12.285  43.961  11.484
45223W        W17516  32.000  23.000   2.324
45224W        W17517  38.934  18.258   0.438
45225W        W17518  21.659  32.085   0.925
45226W        W17519  17.078  29.964  14.912
45227W        W17520  35.046  33.607   4.307
45228W        W17521  21.092   3.273  14.017
45229W        W17522  29.600  41.918  10.622
45230W        W17523   3.908   5.200   0.939
45231W        W17524  38.521  30.629   0.920
45232W        W17525  29.548   8.196   5.727
45233W        W17526  39.511  17.572  11.972
45234W        W17527   4.720  27.689   4.352
45235W        W17528  39.514  37.357   5.226
45236W        W17529   0.870   8.796   3.723
45237W        W17530  11.625  28.581  12.572
45238W        W17531   1.908  16.165  10.578
45239W        W17532  36.958  43.438  13.011
45240W        W17533  13.326   5.729   3.299
45241W        W17534  22.128   8.254   0.318
45242W        W17535  22.213  30.635   3.870
45243W        W17536  22.164  31.923   4.657
45244W        W17537  39.890  44.801  12.494
45245W        W17538  13.842   6.914   0.830
45246W        W17539  29.107   9.290  11.971
45247W        W17540  41.870  16.276   1.844
45248W        W17541  24.170  40.475   4.238
45249W        W17542  29.049   1.372  10.495
45250W        W17543  20.262  29.440  10.993
45251W        W17544  26.033   9.322  12.870
45252W        W17545  39.414  19.726   1.934
45253W        W17546   3.330  32.904   4.273
45254W        W17547  18.716  39.868  11.940
45255W        W17548  33.097  32.055   1.293
45256W        W17549  34.591  30.117   2.345
45257W        W17550  11.756   2.778  13.001
45258W        W17551   7.175  29.426   4.705
45259W        W17552  25.639   3.906  10.926
45260W        W17553  20.273  18.211   3.777
45261W        W17554  33.562  33.082  13.812
45262W        W17555  28.097  43.282  14.807
45263W        W17556  40.497  34.481   2.836
45264W        W17557  38.036  35.574  12.998
45265W        W17558   6.225  38.968  12.440
45266W        W17559  14.653  14.121   2.373
45267W        W17560  33.617   2.961  11.995
45268W        W17561  13.734   0.318   1.828
45269W        W17562  32.577  30.911   1.226
45270W        W17563  32.007  28.065  11.420
45271W        W17564  33.948   7.191  13.935
45272W        W17565  12.327   0.282  11.488
45273W        W17566  38.921  10.681  11.568
45274W        W17567  38.930  29.534  13.933
45275W        W17568  11.337  20.540  12.542
45276W        W17569   8.217   5.715   4.830
45277W        W17570  17.628  36.096  14.966
45278W        W17571  37.482  44.799   2.287
45279W        W17572  34.581  41.792   3.186
45280W        W17573  40.395  33.447  13.030
45281W        W17574  41.867  18.627   0.878
45282W        W17575  14.592   5.708   2.687
45283W        W17576  18.581  42.939  12.446
45284W        W17577  24.520  17.166  11.116
45285W        W17578   7.774   8.347  14.899
45286W        W17579  22.524  36.061  14.899
45287W        W17580  23.037  42.002   0.276
45288W        W17581  43.791  38.457  12.513
45289W        W17582  26.011  15.722   4.128
45290W        W17583  20.742  12.647   2.204
45291W        W17584  22.546  43.916   3.261
45292W        W17585   3.886   4.345   0.356
45293W        W17586   4.371  44.859  12.924
45294W        W17587  41.404  20.120   3.191
45295W        W17588  30.433  16.767   1.277
45296W        W17589  40.355   8.266  12.465
45297W        W17590  36.983   6.885  13.408
45298W        W17591  40.849  38.993  11.445
45299W        W17592  29.997  18.290   3.637
45300W        W17593  42.821  27.652  13.326
45301W        W17594  35.032  41.831  12.094
45302W        W17595  39.885   9.383  14.460
45303W        W17596  23.668  22.713  13.541
45304W        W17597   9.883  38.957   0.360
45305W        W17598   2.297  20.636  14.930
45306W        W17599   1.919  35.518  10.643
45307W        W17600   2.229  21.113  12.543
45308W        W17601   7.247  42.439  10.903
45309W        W17602  43.867  34.598  12.541
45310W        W17603  14.261  18.274  11.066
45311W        W17604  19.665  38.892   4.630
45312W        W17605   8.211  35.937  13.840
45313W        W17606  40.335  35.104  13.974
45314W        W17607  32.550  34.585  10.907
45315W        W17608  22.740  14.705   4.604
45316W        W17609  15.137  33.054   3.814
45317W        W17610  26.483  44.840   0.316
45318W        W17611  29.478  12.175   4.290
45319W        W17612  42.370  18.222   2.269
45320W        W17613  19.551  42.859   1.266
45321W        W17614  26.984  28.083  12.385
45322W        W17615  28.634  35.584   0.369
45323W        W17616  26.152  23.582  14.879
45324W        W17617  21.248  24.682  13.000
45325W        W17618  11.129  24.010  11.104
45326W        W17619  44.885   3.795  14.764
45327W        W17620  24.167  42.312  14.996
45328W        W17621  22.079  30.413   4.764
45329W        W17622  33.465   4.303  11.534
45330W        W17623  39.867  44.868   3.289
45331W        W17624  24.715   9.681  14.480
45332W        W17625  33.002  36.072  11.067
45333W        W17626   3.729  32.040   1.281
45334W        W17627  37.423  35.011   0.479
45335W        W17628   4.819  16.150  13.999
45336W        W17629  10.849  42.476   0.732
45337W        W17630  40.345  23.665   3.680
45338W        W17631   6.204   4.377  10.586
45339W        W17632  36.900  16.783   4.609
45340W        W17633   5.862  12.719   1.751
45341W        W17634  26.505  29.601  11.475
45342W        W17635   6.257   2.337  12.947
45343W        W17636  38.911   8.828   2.717
45344W        W17637  23.626  41.822  12.997
45345W        W17638  22.527  10.643   3.848
45346W        W17639  18.766  25.967  12.063
45347W        W17640  25.973  24.123  11.495
45348W        W17641   1.734  42.473  10.488
45349W        W17642  16.184  31.958  14.981
45350W        W17643  27.069   4.771   1.283
45351W        W17644   8.369  43.292  12.998
45352W        W17645  32.089  19.605   3.320
45353W        W17646  29.137   3.354   0.439
45354W        W17647  36.412  32.027  12.085
45355W        W17648  16.115   1.917  12.877
45356W        W17649  39.489  37.869   3.771
45357W        W17650   6.773  21.664  13.928
45358W        W17651   1.350  21.717   4.647
45359W        W17652  39.341   2.798  12.001
45360W        W17653   9.309  33.079  14.353
45361W        W17654  16.185  42.778   1.229
45362W        W17655  37.527  40.401   4.738
45363W        W17656  16.602  30.925  12.963
45364W        W17657  28.492   8.888  11.600
45365W        W17658  21.652  12.738   2.839
45366W        W17659   0.279  19.190   0.403
45367W        W17660  36.508  26.618   0.388
45368W        W17661  16.645  36.557  10.949
45369W        W17662  17.130  24.624  14.506
45370W        W17663  14.228   9.254   4.703
45371W        W17664  26.587  36.555  14.905
45372W        W17665   2.830  28.164   2.383
45373W        W17666   8.329  18.175  11.583
45374W        W17667   0.836  22.250  13.393
45375W        W17668  15.736  44.925   0.859
45376W        W17669  41.507  30.079  10.491
45377W        W17670  42.028   2.383   2.412
45378W        W17671  26.024   6.341   3.193
45379W        W17672  40.882   8.792  11.411
45380W        W17673  22.676   7.218  13.323
45381W        W17674  23.238  17.247   0.769
45382W        W17675  14.269  19.700  11.468
45383W        W17676   8.309  35.995   1.781
45384W        W17677  44.787  29.105   4.328
45385W        W17678   2.748  32.471  10.996
45386W        W17679  36.385  33.386   0.406
45387W        W17680  24.657  29.427   2.716
45388W        W17681  20.753  20.577   0.421
45389W        W17682  22.043  36.440   4.144
45390W        W17683  23.046  42.792   4.776
45391W        W17684  23.087  35.428   4.263
45392W        W17685  23.230  29.170   2.714
45393W        W17686  26.060  14.161  11.593
45394W        W17687  20.660  43.494   3.663
45395W        W17688  20.191  44.423  14.445
45396W        W17689   7.877  20.188  14.805
45397W        W17690  26.177   5.743   3.705
45398W        W17691  18.611  25.191   3.152
45399W        W17692  16.673  12.690  10.481
45400W        W17693  16.267   3.406  13.010
45401W        W17694  10.769   4.403  13.317
45402W        W17695  22.500  30.591   4.802
45403W        W17696  21.024  25.976  14.007
45404W        W17697   1.972   7.875  11.932
45405W        W17698  32.555  39.955  11.940
45406W        W17699  29.656  12.265  13.403
45407W        W17700  13.181   4.810  14.947
45408W        W17701   3.363  23.719  11.506
45409W        W17702   7.866  19.768  11.412
45410W        W17703   0.474  27.600  14.984
45411W        W17704  41.959  10.314   2.391
45412W        W17705  18.651  10.707  11.117
45413W        W17706  20.248  38.542   0.334
45414W        W17707  23.557  37.351   2.409
45415W        W17708  22.680  38.465  13.949
45416W        W17709  43.904  13.276   2.389
45417W        W17710  11.717  27.105   3.782
45418W        W17711  26.069  41.486   0.847
45419W        W17712  28.130  31.493   1.780
45420W        W17713  26.657  37.580   0.882
45421W        W17714  40.365  33.004   0.342
45422W        W17715  23.521   4.379   5.664
45423W        W17716   1.326  40.033  14.332
45424W        W17717  38.333   2.376   4.192
45425W        W17718  40.547  38.424  14.416
45426W        W17719   8.733  17.250   0.291
45427W        W17720  37.500  32.113   2.719
45428W        W17721  26.078  26.139  12.850
45429W        W17722  42.924   4.407   1.422
45430W        W17723  23.706  21.169  11.060
45431W        W17724   9.821  31.980   3.770
45432W        W17725  23.551  31.533   3.148
45433W        W17726   5.746   5.365   2.228
45434W        W17727  12.856  35.871  10.940
45435W        W17728  13.836   8.299   1.441
45436W        W17729  12.679   0.830   4.329
45437W        W17730  41.303  32.629   1.392
45438W        W17731  12.157   8.265   1.785
45439W        W17732  23.204  33.479  11.396
45440W        W17733  27.600  44.448  13.043
45441W        W17734   3.274  32.928  11.904
45442W        W17735  27.488  15.595  11.981
45443W        W17736   2.935  32.089  10.906
45444W        W17737  43.824  24.607   4.329
45445W        W17738   5.877  32.097   0.773
45446W        W17739   5.397  35.985  13.373
45447W        W17740  18.073   3.870   1.889
45448W        W17741  21.668  25.218  10.897
45449W        W17742  11.316  26.485  12.421
45450W        W17743  34.037  13.836   1.375
45451W        W17744  22.559   8.710   5.259
45452W        W17745   9.249  32.083  12.999
45453W        W17746   2.435  16.239   3.294
45454W        W17747  13.295  10.379  13.992
45455W        W17748  31.043  27.635   3.317
45456W        W17749  33.605   8.179   3.331
45457W        W17750   7.848   6.910   3.292
45458W        W17751  21.151  18.670  12.083
45459W        W17752  17.627   9.298   0.778
45460W        W17753  15.783  17.692  11.491
45461W        W17754  10.657  25.686   1.287
45462W        W17755  29.983  43.808  14.821
45463W        W17756  22.086  31.452  13.514
45464W        W17757  40.514  44.301   4.743
45465W        W17758  22.055  17.788   3.184
45466W        W17759   7.712  42.396   3.203
45467W        W17760  44.861   8.871  13.932
45468W        W17761  31.475   8.831  11.466
45469W        W17762  21.182  22.518   1.420
45470W        W17763  36.569  28.542   3.327
45471W        W17764  15.234   0.928   1.823
45472W        W17765   8.222  25.615   3.856
45473W        W17766  26.610  30.630  14.374
45474W        W17767  41.538   0.378  10.989
45475W        W17768  14.695  44.764  11.036
45476W        W17769  35.459  38.025  11.436
45477W        W17770  15.723  23.588  13.000
45478W        W17771  20.767  33.590   4.751
45479W        W17772   7.905   1.742  14.012
45480W        W17773  37.851  35.058   0.964
45481W        W17774   6.895  30.654  13.825
45482W        W17775  29.928  22.012   2.891
45483W        W17776  27.012   6.791  10.931
45484W        W17777  12.353  41.455   0.808
45485W        W17778  29.076  17.734   1.304
45486W        W17779   7.767  20.234  13.441
45487W        W17780  40.507  22.511  11.044
45488W        W17781  37.022  30.446   2.295
45489W        W17782  10.269  33.092  12.003
45490W        W17783   6.197  20.719  11.416
45491W        W17784  16.692   4.411  13.013
45492W        W17785  39.551  41.378   3.801
45493W        W17786  12.317  25.153  10.468
45494W        W17787  22.738  32.637   2.674
45495W        W17788   5.317   0.944  12.009
45496W        W17789  29.063  33.018  13.955
45497W        W17790  36.564  27.003  12.489
45498W        W17791  37.432  25.478   0.964
45499W        W17792   0.306  41.896  12.548
45500W        W17793   0.384  28.497  12.081
45501W        W17794  39.974  41.419  10.911
45502W        W17795  20.629  43.376   0.879
45503W        W17796  36.883   3.257   4.208
45504W        W17797  30.942  27.173   0.741
45505W        W17798  32.463  42.947   3.804
45506W        W17799   8.685  34.933  10.893
45507W        W17800   7.273  10.265   4.228
45508W        W17801  10.350  31.645   0.731
45509W        W17802  32.467  37.427   4.219
45510W        W17803  21.030  16.717  14.908
45511W        W17804  38.420  20.666   4.291
45512W        W17805  20.155  18.071  13.505
45513W        W17806  10.338  42.457  11.015
45514W        W17807  21.681   4.869   2.327
45515W        W17808  36.868   6.811  14.515
45516W        W17809  26.505  32.960   0.304
45517W        W17810  14.632  41.446   4.195
45518W        W17811  20.274  16.308   3.214
45519W        W17812   9.800  17.187   3.847
45520W        W17813  14.592   1.891   4.224
45521W        W17814  16.279  17.756  13.383
45522W        W17815   2.336  29.936  13.848
45523W        W17816   9.225   2.421  13.317
45524W        W17817  41.464  17.210   2.748
45525W        W17818  44.453  41.023   3.855
45526W        W17819  30.004  44.363   0.252
45527W        W17820  12.834  12.345   3.650
45528W        W17821  22.173   3.366   5.733
45529W        W17822  20.618  42.952   4.599
45530W        W17823  21.663  30.610   1.822
45531W        W17824  21.752   6.691   1.821
45532W        W17825  28.995  14.666   0.396
45533W        W17826  22.554  16.193   2.346
45534W        W17827  24.691  18.597   2.385
45535W        W17828  31.443   1.339   4.834
45536W        W17829  38.437   7.198  10.597
45537W        W17830  29.951  42.909   3.783
45538W        W17831   9.375  37.522   3.357
45539W        W17832  15.630   3.819   4.229
45540W        W17833  39.864  41.349  12.577
45541W        W17834  27.014  31.015  13.927
45542W        W17835  17.597  12.355  14.764
45543W        W17836  20.037  35.445   0.353
45544W        W17837  26.571  41.303   1.437
45545W        W17838  26.982  41.329  12.541
45546W        W17839  31.993  13.766   2.378
45547W        W17840  21.698  40.960   0.908
45548W        W17841   8.230  34.433  14.344
45549W        W17842  31.518  43.925  12.946
45550W        W17843   3.417   3.827   2.734
45551W        W17844  15.245  17.750  10.560
45552W        W17845  10.276  22.248   4.740
45553W        W17846  11.796   9.760  14.023
45554W        W17847  40.440  38.895   3.854
45555W        W17848   3.903  32.614  13.329
45556W        W17849   7.191  36.487   0.453
45557W        W17850  27.556   3.840  13.343
45558W        W17851  34.431  30.633  12.982
45559W        W17852  32.979  34.532  10.605
45560W        W17853   2.943  43.469   2.876
45561W        W17854   3.812  43.924  11.417
45562W        W17855  39.012  21.216  10.985
45563W        W17856   0.934   4.386   2.670
45564W        W17857  39.430  32.123  14.997
45565W        W17858   2.446  34.004  14.985
45566W        W17859  34.072  25.128   2.234
45567W        W17860   9.853  30.644   0.329
45568W        W17861   9.770  35.889   0.870
45569W        W17862  25.027  20.762   0.439
45570W        W17863   3.939  15.096  13.436
45571W        W17864  15.268  17.188   3.355
45572W        W17865  38.036   0.977  13.987
45573W        W17866  14.791  37.366  13.864
45574W        W17867  12.717  34.528   0.965
45575W        W17868  25.674  19.597   2.672
45576W        W17869   7.261  12.295  10.472
45577W        W17870  25.992  35.477  14.874
45578W        W17871  14.191  17.164   2.360
45579W        W17872   1.795   9.347   0.813
45580W        W17873  17.138  23.143   5.133
45581W        W17874   1.239  12.281  11.609
45582W        W17875  40.844  31.137   0.356
45583W        W17876  36.888   1.424   0.735
45584W        W17877   2.230  34.376  14.426
45585W        W17878   4.395  19.126  12.572
45586W        W17879  19.285  21.583  14.338
45587W        W17880  23.580  39.391  12.453
45588W        W17881  24.706  39.338  11.570
45589W        W17882  30.964  20.235  13.532
45590W        W17883  15.107  22.104  11.497
45591W        W17884  38.043  16.670   2.211
45592W        W17885  44.349  25.075  13.911
45593W        W17886  16.184  37.538   1.789
45594W        W17887  32.006   3.330  13.543
45595W        W17888  19.702  27.082   4.598
45596W        W17889  36.450  38.509  11.074
45597W        W17890  37.439  26.665  11.961
45598W        W17891  37.524  23.024  14.761
45599W        W17892   9.775  22.503   3.357
45600W        W17893  18.782  32.495  13.957
45601W        W17894  39.852  15.256  10.531
45602W        W17895  19.082  22.660   3.188
45603W        W17896  30.515  20.214  12.421
45604W        W17897  38.909  31.454   4.304
45605W        W17898  14.644  29.933   3.651
45606W        W17899   6.820   3.356  10.462
45607W        W17900  27.583  23.551   0.459
45608W        W17901  44.915   2.439   2.858
45609W        W17902  38.560   4.385   0.936
45610W        W17903  44.968  31.617   0.751
45611W        W17904  24.190  28.483  10.912
45612W        W17905  42.303   6.306  14.774
45613W        W17906   9.680  32.935  11.421
45614W        W17907  42.013  44.845   3.848
45615W        W17908  44.902  16.153  14.420
45616W        W17909  17.745  44.873   2.367
45617W        W17910   6.827   5.393  13.362
45618W        W17911  12.302  37.537  13.342
45619W        W17912  30.458   9.361   3.683
45620W        W17913  14.270  40.974   1.843
45621W        W17914  20.217  22.688  12.458
45622W        W17915  30.957  37.911   3.711
45623W        W17916  37.861  39.448  11.500
45624W        W17917  27.610  15.201  14.287
45625W        W17918  33.560  26.689   5.222
45626W        W17919   4.224  23.603  14.885
45627W        W17920  31.622  31.898   3.330
45628W        W17921  11.736  39.032   4.691
45629W        W17922  11.686   9.830  10.966
45630W        W17923  14.117  17.218   1.737
45631W        W17924  17.232  36.058  14.833
45632W        W17925  11.815  40.008   2.856
45633W        W17926   1.462  12.130  14.506
45634W        W17927  30.432  39.411   2.824
45635W        W17928  35.106  16.236   4.717
45636W        W17929  14.121   7.244  12.073
45637W        W17930   1.360  40.823  11.502
45638W        W17931  29.473  22.111   0.267
45639W        W17932  22.055  38.408  11.986
45640W        W17933  20.546   1.481  13.921
45641W        W17934   2.881  38.500   0.260
45642W        W17935  19.152  39.396   2.666
45643W        W17936  36.454  10.269   0.780
45644W        W17937  40.846   6.292   1.417
45645W        W17938   3.258  14.150   1.916
45646W        W17939   4.699   3.249  13.329
45647W        W17940  22.688  16.741   0.329
45648W        W17941  13.349  32.006   1.269
45649W        W17942  17.585  20.749  10.953
45650W        W17943  27.447  23.125   4.733
45651W        W17944  12.134   5.846  14.338
45652W        W17945   5.345  32.885   1.853
45653W        W17946  10.837   6.785  10.889
45654W        W17947  32.004  10.705   4.812
45655W        W17948   8.893   3.950  10.605
45656W        W17949  43.821  20.059   3.202
45657W        W17950  37.961  35.880  13.015
45658W        W17951  23.994  34.037  11.384
45659W        W17952  13.122   1.243  10.965
45660W        W17953  31.470  35.081   2.784
45661W        W17954  40.889  43.314   3.706
45662W        W17955  17.135  11.366   2.190
45663W        W17956  32.021   6.305  13.876
45664W        W17957   4.234  18.233   4.348
45665W        W17958  27.453  43.389   1.304
45666W        W17959  17.630  28.538   3.322
45667W        W17960   9.368  35.854   9.562
45668W        W17961  17.732  19.064   3.653
45669W        W17962  13.675  20.051  14.485
45670W        W17963  21.094  12.830   0.340
45671W        W17964  17.306   7.856   1.881
45672W        W17965  42.983   8.828  11.409
45673W        W17966  33.615  27.193   3.187
45674W        W17967   5.737  16.142   4.820
45675W        W17968   1.330   0.384  12.485
45676W        W17969  30.145  29.499  10.989
45677W        W17970  41.027   3.246   3.678
45678W        W17971  42.884  20.759   2.783
45679W        W17972   3.250  24.229   0.345
45680W        W17973  40.348   9.752   2.662
45681W        W17974  20.124  42.490  13.447
45682W        W17975   3.243  40.366  14.006
45683W        W17976  15.138  16.160   4.723
45684W        W17977  42.310  25.159  11.031
45685W        W17978  26.571  40.342   2.290
45686W        W17979  38.483   0.953   2.741
45687W        W17980   0.978   7.408   0.286
45688W        W17981  43.389  44.373  14.508
45689W        W17982  44.784  30.637   4.282
45690W        W17983  32.485  21.703   0.413
45691W        W17984  29.453  36.852  11.113
45692W        W17985  44.428  42.778  12.043
45693W        W17986  23.518  37.055   2.252
45694W        W17987  23.514  23.646   3.169
45695W        W17988  12.214   7.692   3.770
45696W        W17989  39.004  15.152  10.530
45697W        W17990   2.775  21.024  14.025
45698W        W17991  31.438  20.189  10.462
45699W        W17992  19.066  18.232  11.529
45700W        W17993   4.310  41.014  11.441
45701W        W17994  20.081   3.851   3.787
45702W        W17995  11.764  22.225   2.727
45703W        W17996   8.374   0.484  13.440
45704W        W17997  40.447   0.436   4.194
45705W        W17998  32.064  15.172  12.529
45706W        W17999   5.897   5.392  13.935
45707W        W18000  30.079   2.909  12.396
45708W        W18001  37.546  23.709   4.690
45709W        W18002  35.484  16.704   4.231
45710W        W18003  39.536   2.723   4.223
45711W        W18004  39.497  35.454  10.506
45712W        W18005  27.955  21.034   5.163
45713W        W18006  26.067   8.722  10.976
45714W        W18007  30.945   6.778   4.771
45715W        W18008  28.571  42.800   0.417
45716W        W18009  35.475  32.484   2.856
45717W        W18010  23.513   3.361  11.540
45718W        W18011   9.285  16.663  13.496
45719W        W18012  36.968   0.812  10.994
45720W        W18013  43.943  25.664  14.857
45721W        W18014  25.504  39.375   3.288
45722W        W18015   8.285  23.126  11.430
45723W        W18016  13.268   4.703   3.754
45724W        W18017  40.972  27.642   0.823
45725W        W18018   3.377  30.485   2.857
45726W        W18019  44.360  14.252  12.563
45727W        W18020  15.623  16.162   1.721
45728W        W18021   9.250  17.229   1.372
45729W        W18022  42.502   8.849   3.271
45730W        W18023  12.187  43.457   4.115
45731W        W18024  19.173   1.315  10.890
45732W        W18025  40.381   6.222  10.072
45733W        W18026  22.082  39.928  12.534
45734W        W18027  26.038  13.652  13.036
45735W        W18028  42.003  21.739   4.143
45736W        W18029  17.136  33.511   4.648
45737W        W18030  33.590  35.399  11.893
45738W        W18031  16.113  38.514  12.458
45739W        W18032  27.024  29.659   2.329
45740W        W18033  11.226  25.115   1.874
45741W        W18034  35.426  25.663  13.543
45742W        W18035  20.204  44.335  14.976
45743W        W18036  25.584   7.894  11.888
45744W        W18037   0.486  43.999   1.241
45745W        W18038  27.555   8.777  11.082
45746W        W18039  44.773  22.026  12.544
45747W        W18040   9.280  31.055   4.699
45748W        W18041  41.433  42.407   5.099
45749W        W18042  29.164  17.266   0.305
45750W        W18043  24.651  38.003  10.611
45751W        W18044   3.889  13.679  11.921
45752W        W18045  22.154   1.397  13.000
45753W        W18046  14.627  28.503   0.269
45754W        W18047  17.066  12.282  10.567
45755W        W18048  31.554  10.735   5.665
45756W        W18049  29.116  40.312   3.864
45757W        W18050  16.703  38.029   1.389
45758W        W18051  29.104  21.652   4.623
45759W        W18052  17.757  36.546   1.353
45760W        W18053  28.450  27.486  11.090
45761W        W18054  10.689  32.962   2.775
45762W        W18055  27.599  20.528  12.033
45763W        W18056  10.775  25.027   4.267
45764W        W18057  37.369   4.261   0.937
45765W        W18058  16.675   8.248   2.809
45766W        W18059   7.878  19.605  14.849
45767W        W18060   5.437  29.032  11.471
45768W        W18061  44.283  26.991   5.208
45769W        W18062   5.716  35.592   1.770
45770W        W18063  36.041  37.910  13.996
45771W        W18064  36.033  16.579   4.635
45772W        W18065  14.599  28.512   2.341
45773W        W18066  44.264   2.901   1.736
45774W        W18067  11.765  40.479  13.998
45775W        W18068  43.809   2.880  12.834
45776W        W18069  35.465  16.137   4.787
45777W        W18070  37.342  17.253   2.317
45778W        W18071  22.733   8.821  13.049
45779W        W18072  31.406  18.245  10.445
45780W        W18073   8.848  42.403   4.729
45781W        W18074  17.744   3.882  13.498
45782W        W18075  39.989  21.032  14.981
45783W        W18076  28.941   7.333  14.281
45784W        W18077  29.457  11.226  13.796
45785W        W18078  18.279  10.325  11.912
45786W        W18079  30.052  11.754  12.368
45787W        W18080  25.605  10.296   1.450
45788W        W18081   2.347  33.623  14.506
45789W        W18082  26.116  26.985   0.928
45790W        W18083  28.627  40.968   3.753
45791W        W18084   0.881  30.019   1.791
45792W        W18085  30.599  37.847  13.364
45793W        W18086  21.162   8.784   3.258
45794W        W18087  21.746  19.540  10.471
45795W        W18088  20.238  25.685   0.446
45796W        W18089  12.694  30.124   1.902
45797W        W18090  10.343  16.762  13.834
45798W        W18091  39.354  30.027   2.373
45799W        W18092  13.661  10.179  11.483
45800W        W18093  28.003  26.677   1.306
45801W        W18094  34.018  12.764   1.731
45802W        W18095   5.888  25.496  12.959
45803W        W18096  20.063  40.866  12.879
45804W        W18097  14.291   7.404   1.303
45805W        W18098  31.916   7.394   0.259
45806W        W18099  38.863   3.774   3.725
45807W        W18100  25.643  17.655  10.637
45808W        W18101  43.498   7.314   9.991
45809W        W18102  19.752  36.952  12.356
45810W        W18103  10.798  17.268  12.990
45811W        W18104  40.868  16.288  11.967
45812W        W18105  33.879   8.877   3.240
45813W        W18106   9.193  42.787  11.868
45814W        W18107  29.165  28.646   3.378
45815W        W18108  27.003  37.399   4.181
45816W        W18109  31.409  22.026   4.333
45817W        W18110  32.886  35.528   0.376
45818W        W18111   8.731   7.237   1.427
45819W        W18112  40.380   1.881   0.402
45820W        W18113  36.417   1.447  13.936
45821W        W18114  34.561   9.646   0.750
45822W        W18115  31.536   0.817  13.846
45823W        W18116   8.219  41.967  11.590
45824W        W18117  13.278  42.295   2.773
45825W        W18118  19.236  35.531   3.218
45826W        W18119  15.803   5.403   4.179
45827W        W18120  41.376  15.671  14.017
45828W        W18121  19.063  31.491   2.245
45829W        W18122  37.420  35.555   2.205
45830W        W18123  15.653   4.445   4.824
45831W        W18124   7.692  38.974  10.034
45832W        W18125  10.666  43.956   0.942
45833W        W18126   2.319  13.794   0.861
45834W        W18127  22.094  43.919   1.888
45835W        W18128  43.488  30.507   5.162
45836W        W18129  19.156   4.330  12.955
45837W        W18130  24.570  35.955   1.737
45838W        W18131  28.170  12.316   1.323
45839W        W18132  11.188  23.557  10.571
45840W        W18133  40.492  38.006   0.386
45841W        W18134  10.369  36.950  12.503
45842W        W18135  25.009  40.914   2.191
45843W        W18136  42.352   9.854   1.299
45844W        W18137   8.799  18.231   1.757
45845W        W18138  10.734  22.998  14.431
45846W        W18139  40.449  44.848  12.000
45847W        W18140  36.347  34.481  10.411
45848W        W18141  15.265  21.142   1.801
45849W        W18142  10.187   1.835   3.231
45850W        W18143  33.965   0.430   4.278
45851W        W18144  40.928   2.923   2.368
45852W        W18145  18.569  38.435   0.387
45853W        W18146  39.447   5.796  13.933
45854W        W18147  32.570  28.473  14.779
45855W        W18148  15.103  44.309  10.891
45856W        W18149   2.766  19.606   3.192
45857W        W18150  16.658  21.566   9.592
45858W        W18151  36.861  44.465  11.561
45859W        W18152  29.446  19.045   4.169
45860W        W18153  39.877  19.710   0.458
45861W        W18154  30.128  35.049  12.511
45862W        W18155  28.156  27.080   4.333
45863W        W18156   2.301   6.881   0.726
45864W        W18157  31.556  25.067  14.502
45865W        W18158  10.254  17.671   3.358
45866W        W18159   1.397   8.719  10.620
45867W        W18160   2.963  34.507   1.331
45868W        W18161  33.123  20.124   4.603
45869W        W18162  22.591  14.339   3.218
45870W        W18163  40.868  26.557   4.729
45871W        W18164  14.229   8.203   2.274
45872W        W18165  34.995   6.716  10.928
45873W        W18166  39.013   9.221  13.024
45874W        W18167   5.434   1.952  10.623
45875W        W18168  37.402  19.767   4.261
45876W        W18169  40.946  32.915   0.403
45877W        W18170  42.884  38.871  12.051
45878W        W18171  10.198  14.706  13.442
45879W        W18172  22.094  37.048   4.642
45880W        W18173  31.596   1.858   3.749
45881W        W18174   9.164  24.568   4.604
45882W        W18175   8.732  18.140   2.289
45883W        W18176  33.612  25.170   1.816
45884W        W18177  11.671  19.580  10.967
45885W        W18178  15.133   8.347   0.323
45886W        W18179  42.331  41.892   1.756
45887W        W18180  38.472  40.416   2.395
45888W        W18181   2.294  20.632   0.250
45889W        W18182  19.130   2.463   3.738
45890W        W18183  11.233  20.197   3.229
45891W        W18184  13.115  44.887   0.730
45892W        W18185  43.330   0.309   2.328
45893W        W18186  31.512  26.702   4.794
45894W        W18187  29.059  38.451   4.166
45895W        W18188  39.022  36.877  10.575
45896W        W18189  40.899  31.474   4.786
45897W        W18190  37.007  37.025   3.275
45898W        W18191   1.891   7.343   4.730
45899W        W18192  13.730  13.231  14.364
45900W        W18193  20.631  20.106   2.855
45901W        W18194  14.787  36.062  12.860
45902W        W18195  17.799  41.790   2.331
45903W        W18196  14.321  37.065  14.375
45904W        W18197  38.335  33.039  14.388
45905W        W18198   6.686   7.225  11.915
45906W        W18199  13.155  22.729  12.381
45907W        W18200  33.434  43.861  12.407
45908W        W18201  19.078  23.047  12.932
45909W        W18202  27.602  36.350  13.491
45910W        W18203   1.885   9.301  10.957
45911W        W18204  34.528  38.412   0.888
45912W        W18205  21.179  31.504   0.797
45913W        W18206  21.109  26.957  12.532
45914W        W18207  44.264  29.600   4.221
45915W        W18208  39.933  13.289   0.440
45916W        W18209  19.761  39.944   2.244
45917W        W18210   4.707  26.979  14.502
45918W        W18211  37.531  37.977   4.749
45919W        W18212  29.007  20.734   3.832
45920W        W18213  35.041  30.529  11.456
45921W        W18214  23.580  24.992   3.839
45922W        W18215  43.855  44.467  11.100
45923W        W18216  14.256  32.029   4.303
45924W        W18217   3.718   8.795  12.093
45925W        W18218  12.841  37.023  13.952
45926W        W18219   1.851  31.147   5.312
45927W        W18220   9.690   2.865   2.350
45928W        W18221  12.830  37.534  12.478
45929W        W18222  16.097  17.108   1.828
45930W        W18223   2.445  22.136  14.411
45931W        W18224  19.638  36.935  10.407
45932W        W18225  38.003   8.298  10.561
45933W        W18226  13.132  29.633   4.245
45934W        W18227  15.588  39.828   3.191
45935W        W18228   4.785  10.872   3.230
45936W        W18229  37.402   6.717   3.384
45937W        W18230  26.456  35.435  13.943
45938W        W18231  28.997   2.930  10.958
45939W        W18232  39.873  22.222  10.459
45940W        W18233  43.370  18.571   3.186
45941W        W18234   7.320  30.477  13.994
45942W        W18235   4.309  23.552  11.938
45943W        W18236  11.268  23.164  10.971
45944W        W18237   0.755  26.474  10.118
45945W        W18238  12.120  12.817   0.957
45946W        W18239  27.177  14.309   2.728
45947W        W18240  28.644  19.195   2.242
45948W        W18241  21.215  41.382  13.810
45949W        W18242   7.724  31.964   3.159
45950W        W18243  15.106   1.800  14.911
45951W        W18244   9.840  35.521   3.757
45952W        W18245  18.644  42.362   1.257
45953W        W18246  26.459  33.533   2.238
45954W        W18247  31.456  17.213   2.370
45955W        W18248   1.310  12.633  14.286
45956W        W18249  27.494  10.202   1.711
45957W        W18250   9.158  38.533   2.181
45958W        W18251  35.996  38.956  14.954
45959W        W18252  31.551  29.084   1.877
45960W        W18253  11.164  41.972   0.828
45961W        W18254  18.650  10.305   4.609
45962W        W18255  21.581  33.934   3.700
45963W        W18256  33.046  27.023   3.292
45964W        W18257  35.448  43.463   3.707
45965W        W18258   4.815  22.027   3.224
45966W        W18259  37.941  36.005  11.428
45967W        W18260  31.480  37.012   4.202
45968W        W18261  28.929  14.646   3.247
45969W        W18262  19.197  37.967  14.399
45970W        W18263  21.263   3.228  14.926
45971W        W18264   4.845  20.040  10.637
45972W        W18265  20.703   5.712  11.865
45973W        W18266   8.700  44.758   0.946
45974W        W18267   3.325  36.379  13.479
45975W        W18268  16.284   0.446  12.907
45976W        W18269  44.379  43.013   0.322
45977W        W18270  41.334  27.136   2.388
45978W        W18271   4.215  29.596   4.773
45979W        W18272  27.568  16.583   4.275
45980W        W18273   5.734  24.173  14.904
45981W        W18274   7.731   5.827   1.304
45982W        W18275  18.280   1.904   3.348
45983W        W18276  13.163  29.029  11.611
45984W        W18277  12.832   3.885  11.104
45985W        W18278  14.276  37.569  10.438
45986W        W18279  17.602  11.756  12.863
45987W        W18280   8.297  26.612  10.970
45988W        W18281  23.683   5.880  14.474
45989W        W18282  43.815  18.105  13.846
45990W        W18283  39.062  34.458  10.461
45991W        W18284  22.085  24.569  10.549
45992W        W18285   9.703  22.083   4.188
45993W        W18286  41.305   9.679  13.458
45994W        W18287   1.387  13.774  13.047
45995W        W18288  19.549  26.616   4.726
45996W        W18289  18.780  11.291  13.045
45997W        W18290   3.936  20.707  13.826
45998W        W18291  42.848  33.031   0.456
45999W        W18292   1.893  27.470  14.320
46000W        W18293  23.099  21.022   0.817
46001W        W18294  19.565   5.750  12.485
46002W        W18295  25.127  10.191   3.818
46003W        W18296  13.656  22.150  10.982
46004W        W18297  16.631  31.987  11.056
46005W        W18298  33.949   2.316  13.918
46006W        W18299   9.375  31.091   1.233
46007W        W18300  38.546  15.234   1.830
46008W        W18301  21.577  39.013   3.338
46009W        W18302  26.048  22.529   1.407
46010W        W18303  22.526  25.018   1.713
46011W        W18304  14.266   3.415  12.050
46012W        W18305  33.550  19.259   3.331
46013W        W18306  38.917   0.452   4.782
46014W        W18307   5.744  33.118   4.114
46015W        W18308  12.633  37.024  13.383
46016W        W18309   1.759  27.101  11.595
46017W        W18310  21.734  32.133  11.105
46018W        W18311  36.558  31.419  13.964
46019W        W18312  41.988  43.968   3.242
46020W        W18313   1.869  21.551   2.397
46021W        W18314  40.815  11.316   4.125
46022W        W18315  25.619   8.372   4.130
46023W        W18316  25.555  35.487   1.233
46024W        W18317   6.399  15.237  12.061
46025W        W18318  31.935  16.776  10.604
46026W        W18319  39.042   6.311  14.980
46027W        W18320  36.454  29.604   3.835
46028W        W18321  24.486  42.926   2.790
46029W        W18322  22.118  32.922   2.255
46030W        W18323   9.281  34.112   9.468
46031W        W18324   0.821  17.609  11.480
46032W        W18325  24.187  19.054   0.249
46033W        W18326  32.963  26.956  13.546
46034W        W18327  35.530  41.374  11.578
46035W        W18328  10.219  18.192   2.355
46036W        W18329  32.064  43.356  14.827
46037W        W18330   6.904  35.996   4.761
46038W        W18331   0.978   7.299   1.730
46039W        W18332  30.607   4.901   3.251
46040W        W18333   0.493  18.124   1.243
46041W        W18334  26.202  34.080   4.284
46042W        W18335  23.614  37.997   1.225
46043W        W18336   7.750  19.266   1.734
46044W        W18337  12.718  43.445  11.459
46045W        W18338  22.531  39.403   2.259
46046W        W18339  43.952  35.906   3.869
46047W        W18340  18.787   1.265  10.543
46048W        W18341  23.998   6.384   5.311
46049W        W18342   6.336  33.884   3.654
46050W        W18343  11.641  11.160   2.683
46051W        W18344  34.974  14.707   1.707
46052W        W18345  22.040  21.612  10.543
46053W        W18346  32.956  10.741   4.719
46054W        W18347  18.227  42.460   0.272
46055W        W18348  14.242  23.503   2.407
46056W        W18349  41.799  33.947   2.835
46057W        W18350  23.718   4.756  13.365
46058W        W18351   2.907  43.363   1.316
46059W        W18352   8.781  38.550  14.437
46060W        W18353  13.828  44.313   1.295
46061W        W18354  24.550  33.052  10.618
46062W        W18355  38.873   5.766   2.895
46063W        W18356  13.632  36.061   1.745
46064W        W18357  44.962   0.804  10.416
46065W        W18358  21.109  30.938   1.927
46066W        W18359  20.076  22.111   2.353
46067W        W18360  37.464   9.165   1.736
46068W        W18361  33.094  42.972  13.374
46069W        W18362  25.631  40.341  14.006
46070W        W18363  33.515  26.498  11.016
46071W        W18364   6.369  35.583   5.713
46072W        W18365  43.284  30.028  13.356
46073W        W18366  37.413  28.654  10.908
46074W        W18367   2.720  12.756  13.034
46075W        W18368   4.410  28.593  11.020
46076W        W18369  15.597  20.562  11.435
46077W        W18370  18.584  24.141   5.316
46078W        W18371  36.927  17.061  13.934
46079W        W18372  35.045  22.080  13.438
46080W        W18373  18.777  10.297   4.196
46081W        W18374  26.483   7.232   3.277
46082W        W18375  37.968  17.099   4.263
46083W        W18376  13.294   3.828   5.084
46084W        W18377   7.731   1.749   2.232
46085W        W18378  29.080  29.016   3.185
46086W        W18379   1.806  42.784  14.325
46087W        W18380   3.940  39.484  11.005
46088W        W18381   8.843  42.290   4.173
46089W        W18382  18.255  24.175  13.465
46090W        W18383  17.203   7.905   3.814
46091W        W18384  22.208  22.720  13.878
46092W        W18385  14.174  14.663  12.045
46093W        W18386   9.346   9.649   3.315
46094W        W18387   4.413  35.951   3.829
46095W        W18388  23.237  21.169   3.196
46096W        W18389  41.469  20.139  10.626
46097W        W18390  18.737  36.090   3.159
46098W        W18391   5.407  44.837   1.715
46099W        W18392   9.371  14.597  13.884
46100W        W18393  22.698   6.232   2.690
46101W        W18394   7.808  41.481  10.575
46102W        W18395  37.990  13.815  13.950
46103W        W18396  21.023  19.273   4.656
46104W        W18397   4.763  29.589   5.273
46105W        W18398  17.741  12.325  13.449
46106W        W18399  24.118  31.456  12.455
46107W        W18400   7.665  14.715   4.343
46108W        W18401  37.573  37.938   3.164
46109W        W18402   7.746  14.594   3.773
46110W        W18403  12.724  41.396   1.282
46111W        W18404   0.284  22.098   4.796
46112W        W18405  40.493  31.003  13.443
46113W        W18406   0.269  34.001   1.320
46114W        W18407  13.742  23.626  13.801
46115W        W18408  12.636  17.289   1.388
46116W        W18409  42.495  34.556  12.939
46117W        W18410  44.304   4.220   2.664
46118W        W18411  17.063   4.718   1.809
46119W        W18412  30.594  10.138   2.775
46120W        W18413  34.377  29.535  11.473
46121W        W18414  32.973  25.655   2.355
46122W        W18415  39.988  17.271  11.558
46123W        W18416  37.480   0.890   3.677
46124W        W18417  11.285  24.640   0.434
46125W        W18418   7.801  38.892   4.121
46126W        W18419  19.271  33.122  12.904
46127W        W18420   4.910  15.108   4.640
46128W        W18421   7.395   1.737  10.559
46129W        W18422  37.371  14.220   4.164
46130W        W18423  25.055  14.639  10.564
46131W        W18424  41.863  29.432  11.499
46132W        W18425  36.492  14.826  10.922
46133W        W18426   9.743   9.323   4.226
46134W        W18427  18.117   8.749  11.382
46135W        W18428  13.198   9.761   1.748
46136W        W18429  11.144  18.084   1.841
46137W        W18430   7.322  10.869   4.607
46138W        W18431  23.990   5.325   4.346
46139W        W18432  12.127  24.203   3.326
46140W        W18433  38.330  44.273   2.875
46141W        W18434  32.055  18.589   5.320
46142W        W18435   0.435   7.727  12.427
46143W        W18436  17.741  29.494  14.379
46144W        W18437  32.054  17.100  11.879
46145W        W18438  28.157  25.606  13.981
46146W        W18439  11.334  23.141   2.861
46147W        W18440  43.010  40.421   0.954
46148W        W18441   2.909  19.141  14.929
46149W        W18442  15.668  13.714  11.861
46150W        W18443  18.111  10.226   2.374
46151W        W18444  44.336  18.726   2.405
46152W        W18445  14.750  32.618  10.470
46153W        W18446  27.637  10.350  12.907
46154W        W18447   9.292  43.963  11.031
46155W        W18448  10.654   1.298   2.794
46156W        W18449  30.469  36.591   0.351
46157W        W18450  42.487  27.183  12.899
46158W        W18451  41.849  23.044   4.721
46159W        W18452   3.261  21.591   2.257
46160W        W18453  15.651  38.037  14.986
46161W        W18454  25.019  12.220   0.918
46162W        W18455   9.318  16.782  10.572
46163W        W18456   2.354  43.964  10.963
46164W        W18457  29.150  38.473   2.853
46165W        W18458   6.901  15.330  14.312
46166W        W18459  16.099  15.288  14.898
46167W        W18460   8.302  38.445  14.335
46168W        W18461  28.565  30.648  13.996
46169W        W18462  27.459  41.980  12.397
46170W        W18463  33.066  21.213   4.622
46171W        W18464   9.762  13.819   4.114
46172W        W18465  31.569  29.456  11.502
46173W        W18466  35.951   8.780  11.915
46174W        W18467  25.033  22.121  12.887
46175W        W18468  30.561  10.635   5.178
46176W        W18469  43.303  35.866  14.291
46177W        W18470   2.758   3.908  10.460
46178W        W18471  28.681  33.947  11.421
46179W        W18472   6.256  10.254  12.984
46180W        W18473  23.573  19.762  13.800
46181W        W18474  35.040  41.847   3.762
46182W        W18475  36.869  10.343   3.229
46183W        W18476  13.634  22.744  10.439
46184W        W18477   8.328   3.405  10.491
46185W        W18478  14.754   1.866  12.027
46186W        W18479  22.663  22.188   4.616
46187W        W18480  27.086   6.364  12.073
46188W        W18481  16.168  43.407   0.466
46189W        W18482   7.857  21.155   4.318
46190W        W18483  42.421  29.145   4.738
46191W        W18484  11.321  32.546   4.239
46192W        W18485  17.237  28.494  13.471
46193W        W18486  33.623   4.874  12.873
46194W        W18487   3.313  10.789   4.355
46195W        W18488  27.537  31.903   2.827
46196W        W18489  39.042  27.969   1.748
46197W        W18490  33.914  37.925  14.316
46198W        W18491   1.931  36.858  12.398
46199W        W18492  37.364  43.363   2.698
46200W        W18493  14.601  29.987  12.366
46201W        W18494  18.222  16.631   2.808
46202W        W18495  13.142  10.158   3.844
46203W        W18496   2.419  38.918  10.480
46204W        W18497  30.060  36.543  14.492
46205W        W18498   6.762  43.010  14.509
46206W        W18499  14.160  31.136  14.844
46207W        W18500   8.280   4.434   3.857
46208W        W18501   7.383   5.334  12.865
46209W        W18502  40.477  19.101  10.559
46210W        W18503  31.993  19.068  14.005
46211W        W18504  26.645  20.214  11.945
46212W        W18505  28.550  35.944   2.774
46213W        W18506  23.122  21.538   0.968
46214W        W18507  42.938  24.590  13.476
46215W        W18508  11.631   1.892   0.930
46216W        W18509  26.576  40.344   4.717
46217W        W18510  31.553   7.742  13.373
46218W        W18511   3.379   5.917  10.897
46219W        W18512  21.180  35.082   4.150
46220W        W18513  19.136  37.895   4.295
46221W        W18514   8.661  35.484   2.300
46222W        W18515  37.388  34.493   3.373
46223W        W18516  38.865   4.435   3.662
46224W        W18517  41.444   8.771  13.941
46225W        W18518  44.965  11.251  12.496
46226W        W18519  30.502  40.304   1.742
46227W        W18520  28.011  17.635   1.729
46228W        W18521  30.047   0.837   3.792
46229W        W18522  20.164  35.982  14.026
46230W        W18523   9.667  36.493  11.949
46231W        W18524   0.803  36.066  11.115
46232W        W18525  13.283  34.570   1.932
46233W        W18526  34.470  33.988  11.102
46234W        W18527   2.963   6.341  11.509
46235W        W18528  17.597  41.918   1.918
46236W        W18529  11.167  18.267   4.786
46237W        W18530  25.056   6.265  13.014
46238W        W18531  30.984  25.002   3.277
46239W        W18532   4.383  44.431  10.911
46240W        W18533  41.935   1.388  12.446
46241W        W18534  28.146  17.213   4.772
46242W        W18535  12.362  33.982   1.739
46243W        W18536  38.904  44.003  12.052
46244W        W18537  42.319  43.989   3.704
46245W        W18538  28.679   8.795  13.506
46246W        W18539  35.458  29.636   1.417
46247W        W18540  18.152   2.850   4.727
46248W        W18541  26.597  12.336   0.340
46249W        W18542  39.845  12.158   1.862
46250W        W18543  33.546  34.051   1.870
46251W        W18544   7.275  19.095   2.206
46252W        W18545  39.438  28.665   4.734
46253W        W18546   8.764  36.504  14.959
46254W        W18547  27.684  37.929  14.476
46255W        W18548  38.840  39.515   1.695
46256W        W18549   5.914   9.750   2.669
46257W        W18550  17.093  35.396  14.414
46258W        W18551   2.259  43.322  14.374
46259W        W18552  33.963  42.306   2.802
46260W        W18553  19.211  36.436   1.841
46261W        W18554  18.580  25.691  13.028
46262W        W18555  22.163  32.535  14.768
46263W        W18556  11.692  40.961   1.857
46264W        W18557  15.220  28.579   0.869
46265W        W18558  31.582  28.595   2.764
46266W        W18559   2.864  35.975  14.853
46267W        W18560   1.236  21.058  11.921
46268W        W18561   5.788  39.030  11.399
46269W        W18562   0.932  27.632  14.416
46270W        W18563  24.560  34.932   1.794
46271W        W18564  23.994  33.621   3.232
46272W        W18565  27.675   0.930  13.465
46273W        W18566  36.361  10.805   4.597
46274W        W18567   0.323  31.615   4.808
46275W        W18568  36.484  17.113   4.732
46276W        W18569  24.688  15.285  13.415
46277W        W18570  39.369  29.941   4.647
46278W        W18571  37.052  30.495  13.435
46279W        W18572  29.578  11.135  12.981
46280W        W18573  14.791  18.137  13.031
46281W        W18574  33.501  44.315  14.511
46282W        W18575  27.482   4.759  14.938
46283W        W18576  12.302   9.872   1.403
46284W        W18577  14.178   8.765   0.425
46285W        W18578  30.614  30.572   2.282
46286W        W18579  30.523  14.728   0.393
46287W        W18580  35.106  30.013   1.837
46288W        W18581  38.490  10.809   3.646
46289W        W18582  25.203   6.329  14.970
46290W        W18583  39.414  25.195   3.365
46291W        W18584  25.510   7.188   5.151
46292W        W18585  10.722  23.529  10.547
46293W        W18586  42.818  26.099   1.893
46294W        W18587  21.551  10.316  10.445
46295W        W18588  23.227  35.432  12.397
46296W        W18589   4.266   8.310  14.436
46297W        W18590  26.501  37.499  11.063
46298W        W18591  31.968  39.897   4.648
46299W        W18592  30.963   7.202   3.377
46300W        W18593  20.685  27.093  12.544
46301W        W18594  13.300  31.981   4.679
46302W        W18595  25.535  23.160   2.749
46303W        W18596   6.280   4.750  11.950
46304W        W18597   1.367  27.668   4.240
46305W        W18598   6.328   5.258   2.183
46306W        W18599  16.247  20.560  13.831
46307W        W18600  30.496   2.933   2.776
46308W        W18601  29.978  10.336  11.593
46309W        W18602  12.612  40.027   2.374
46310W        W18603  40.905   7.310  11.514
46311W        W18604  43.368   0.479   3.361
46312W        W18605   6.835   5.729   2.219
46313W        W18606  42.340  12.261   4.339
46314W        W18607  23.596  36.417  11.073
46315W        W18608   3.850   2.860  11.894
46316W        W18609  33.994   2.878  14.827
46317W        W18610  36.398  35.502  14.514
46318W        W18611  10.783  22.655   1.856
46319W        W18612  17.566   0.774   2.662
46320W        W18613  27.493  36.481  14.773
46321W        W18614  18.787  37.079   3.724
46322W        W18615   9.821  21.756   4.631
46323W        W18616  34.491  19.536   3.185
46324W        W18617  20.599  20.108   1.887
46325W        W18618  41.303  13.242   3.788
46326W        W18619  35.486  19.059  10.415
46327W        W18620  20.107  39.974   0.917
46328W        W18621   2.321   1.954  10.463
46329W        W18622  42.843  25.136   4.200
46330W        W18623  42.992  36.043   0.480
46331W        W18624   7.836  18.778  13.811
46332W        W18625  30.923  21.526  14.938
46333W        W18626   0.343   7.693   4.209
46334W        W18627  12.255  13.151   2.742
46335W        W18628  22.742  23.608  13.395
46336W        W18629  37.991  30.098   4.333
46337W        W18630  11.851  11.849   2.700
46338W        W18631   3.262   0.248  11.493
46339W        W18632  43.277  19.737   0.860
46340W        W18633  13.317  21.092  13.927
46341W        W18634  28.602   1.291   1.226
46342W        W18635  37.429  35.527   4.303
46343W        W18636  21.576  15.188  12.404
46344W        W18637  28.668   8.833   2.835
46345W        W18638   8.809  44.264  10.907
46346W        W18639  25.538  16.710  13.924
46347W        W18640  31.044   8.832   5.184
46348W        W18641  27.690  17.290   2.236
46349W        W18642  20.036   8.295   3.768
46350W        W18643  17.672   9.384  11.954
46351W        W18644  26.580  42.844  13.900
46352W        W18645  25.099  39.924   2.763
46353W        W18646   0.391  36.023  14.795
46354W        W18647  25.636  43.850   1.844
46355W        W18648  44.440  27.545  11.396
46356W        W18649  26.535  32.118  11.038
46357W        W18650   9.344   6.237  10.595
46358W        W18651  37.831  24.707  14.502
46359W        W18652  41.969  39.389  14.984
46360W        W18653  15.823  20.654   3.805
46361W        W18654  10.639  10.668  12.544
46362W        W18655   7.242   5.693  11.863
46363W        W18656   9.762   7.334   3.371
46364W        W18657  22.017  37.486   4.761
46365W        W18658  35.372  10.852   3.210
46366W        W18659  31.051  19.737   1.846
46367W        W18660  11.867   3.379   1.225
46368W        W18661   0.326  21.589  11.532
46369W        W18662  20.152  38.944   0.442
46370W        W18663  39.016  16.803  10.543
46371W        W18664   2.242   0.429  14.878
46372W        W18665  22.641  36.978   2.245
46373W        W18666  10.256  29.945  14.515
46374W        W18667   7.665   9.241   2.686
46375W        W18668  15.102  19.102   0.391
46376W        W18669  33.412  19.724   1.713
46377W        W18670  34.576   0.841  13.982
46378W        W18671  21.662  41.832   0.935
46379W        W18672   8.312  11.712  14.363
46380W        W18673  18.730  32.044  14.504
46381W        W18674  26.159  20.073   1.369
46382W        W18675  42.972  22.559  13.816
46383W        W18676  19.279  29.593  11.878
46384W        W18677   1.449  39.009   0.481
46385W        W18678   9.344  15.801  10.481
46386W        W18679   4.760  11.269   0.910
46387W        W18680  36.513  16.245  10.439
46388W        W18681  29.615  25.050   0.959
46389W        W18682  20.608  40.474  10.634
46390W        W18683  19.661   3.792   4.607
46391W        W18684  33.919  13.723   0.865
46392W        W18685  37.973  38.383   0.788
46393W        W18686  31.440  14.639  13.507
46394W        W18687  13.195  35.935   0.413
46395W        W18688  35.518  36.569  10.520
46396W        W18689  14.817  25.696  10.523
46397W        W18690  42.827  40.348   4.709
46398W        W18691   6.892  10.810   1.222
46399W        W18692  40.961  38.882   2.839
46400W        W18693  27.466  12.730  13.351
46401W        W18694  30.618  12.206  14.337
46402W        W18695  27.671  44.426   1.418
46403W        W18696  16.291  44.976   1.336
46404W        W18697  35.033   9.735  11.949
46405W        W18698  43.494  25.589  14.883
46406W        W18699  27.569  19.166   2.667
46407W        W18700  39.324  26.457   2.801
46408W        W18701  33.505  28.463   1.317
46409W        W18702  17.680  28.501  14.874
46410W        W18703  19.215  18.679  10.954
46411W        W18704  29.554  20.575   2.231
46412W        W18705   8.366  34.564   4.730
46413W        W18706  19.712  29.953   3.382
46414W        W18707  30.915  10.673   1.231
46415W        W18708  20.122  22.518  12.086
46416W        W18709  23.144  38.537   0.967
46417W        W18710  32.567  31.071   3.797
46418W        W18711  12.799  26.087   1.213
46419W        W18712  32.400   0.380  13.027
46420W        W18713  15.798   7.331  13.930
46421W        W18714  18.123  20.656   2.229
46422W        W18715  30.502  37.069  11.595
46423W        W18716  15.787  43.485  14.275
46424W        W18717  18.686  21.597  12.528
46425W        W18718  33.886  41.864  10.506
46426W        W18719  11.367  43.798   2.857
46427W        W18720  33.441  14.109   4.328
46428W        W18721  43.303  36.453  14.305
46429W        W18722   5.289  12.118   4.212
46430W        W18723  10.721  18.291   0.947
46431W        W18724  32.591  13.774  12.047
46432W        W18725  24.561  41.952  14.378
46433W        W18726  31.474  25.136   3.371
46434W        W18727  31.518  43.804  11.091
46435W        W18728  17.187   4.840  11.873
46436W        W18729  10.307  19.645   4.760
46437W        W18730  24.482  31.937  13.805
46438W        W18731   0.849  25.541   3.717
46439W        W18732  41.402   2.757   2.794
46440W        W18733  14.810   7.197  13.491
46441W        W18734   5.261  27.066  14.327
46442W        W18735  24.721  33.074   3.183
46443W        W18736   8.303  27.602  12.569
46444W        W18737  21.071   6.910  11.576
46445W        W18738  27.093  44.831   0.955
46446W        W18739   2.346  39.039  10.076
46447W        W18740  40.952  19.116  11.070
46448W        W18741  20.569  24.492   1.830
46449W        W18742  26.551  24.990  14.018
46450W        W18743  10.255  12.211  12.567
46451W        W18744  40.871  32.443  12.348
46452W        W18745  21.206   7.357  14.472
46453W        W18746  13.248  30.565  10.955
46454W        W18747  43.870  11.726  14.488
46455W        W18748   0.865   0.869  11.065
46456W        W18749  26.551  19.718  11.557
46457W        W18750   9.219  39.320  12.949
46458W        W18751  35.877   4.775   2.744
46459W        W18752   0.929  28.180  13.309
46460W        W18753  38.991   7.246  14.864
46461W        W18754  25.197  40.434   3.228
46462W        W18755   9.245  42.897   2.864
46463W        W18756  43.781  29.971   0.420
46464W        W18757   0.349  29.928   2.763
46465W        W18758  29.014  31.026  13.918
46466W        W18759  20.592  32.039   3.696
46467W        W18760   6.702  33.504  11.052
46468W        W18761  36.985   1.951   4.240
46469W        W18762   3.734  32.526   1.748
46470W        W18763   6.903  26.049   3.203
46471W        W18764  32.063  43.428  10.998
46472W        W18765  22.143  23.548  11.511
46473W        W18766  17.636  24.072  14.431
46474W        W18767  40.380  15.194   1.932
46475W        W18768  43.417  32.509  14.803
46476W        W18769  17.580  38.824   1.930
46477W        W18770  33.074  24.032  11.129
46478W        W18771  12.795  15.277  12.870
46479W        W18772   3.396  36.460  14.848
46480W        W18773   0.488  35.386  12.827
46481W        W18774  44.484  14.733  10.423
46482W        W18775  26.046  13.726  11.879
46483W        W18776  23.223  20.066  12.936
46484W        W18777   7.331   9.723  11.894
46485W        W18778  20.145   1.378   4.295
46486W        W18779   3.767   9.279   3.811
46487W        W18780  22.121   7.907   4.198
46488W        W18781  36.573  42.950   1.232
46489W        W18782  19.555  43.996  14.823
46490W        W18783  25.090  29.950   0.782
46491W        W18784   5.754  41.306  12.848
46492W        W18785  32.426  29.967   1.750
46493W        W18786  21.135  19.537   4.795
46494W        W18787  38.864   1.777   2.851
46495W        W18788  16.625  12.204   2.783
46496W        W18789  44.870   4.842   3.298
46497W        W18790  44.867   4.325  13.793
46498W        W18791   0.761  16.721   4.135
46499W        W18792  25.169   2.289  14.334
46500W        W18793   8.660  35.483  11.500
46501W        W18794   9.681  34.098  13.415
46502W        W18795   2.734  23.503  10.477
46503W        W18796   7.321  29.605  14.334
46504W        W18797  13.307  24.576  13.799
46505W        W18798   1.934  23.532  12.464
46506W        W18799  35.076   6.765   2.403
46507W        W18800  17.703  37.430  14.941
46508W        W18801   2.402  21.098  13.048
46509W        W18802  19.710  30.641  11.977
46510W        W18803  14.233  14.140   4.244
46511W        W18804  32.533  40.908  11.959
46512W        W18805  20.159  14.102  10.546
46513W        W18806  40.972  12.216   4.793
46514W        W18807  14.727  14.161   4.640
46515W        W18808   1.823   2.811   3.733
46516W        W18809   7.746  18.601   0.763
46517W        W18810  41.827  27.088  12.924
46518W        W18811  34.479  12.611   4.669
46519W        W18812  26.156  35.043  10.467
46520W        W18813  28.991  44.932  14.931
46521W        W18814  42.973  34.404   4.669
46522W        W18815  38.886   1.783   3.311
46523W        W18816   2.885  18.631   1.253
46524W        W18817  28.652  39.918   3.280
46525W        W18818  33.970  39.998   0.294
46526W        W18819  16.254  23.619   1.420
46527W        W18820  26.019  31.475   1.849
46528W        W18821  24.043  18.713  11.119
46529W        W18822  30.956  24.544  13.366
46530W        W18823  14.734  23.641   5.266
46531W        W18824  35.500  15.795  13.949
46532W        W18825   1.447   0.959  13.491
46533W        W18826  13.156  37.360   1.284
46534W        W18827  30.479  27.018   1.705
46535W        W18828  28.938  34.050   3.786
46536W        W18829  21.644   9.800   0.957
46537W        W18830  26.599   6.389  14.354
46538W        W18831  36.031   6.919   3.297
46539W        W18832  31.424   6.283   3.312
46540W        W18833   3.412   1.471  10.971
46541W        W18834  42.295   6.239  12.565
46542W        W18835  24.090  28.039   2.384
46543W        W18836  24.669  28.559  12.023
46544W        W18837  38.061  34.039  12.023
46545W        W18838  42.517  44.285   0.321
46546W        W18839  42.321  27.511   0.305
46547W        W18840  33.979  19.610  14.918
46548W        W18841  33.539  25.973   2.404
46549W        W18842  43.811  35.526  10.012
46550W        W18843  18.281  26.102   3.857
46551W        W18844  33.409   9.285   9.928
46552W        W18845  42.781  12.180   1.216
46553W        W18846  16.146  33.909  11.919
46554W        W18847  38.487  30.941  11.866
46555W        W18848  18.791  41.954  10.943
46556W        W18849   2.416  14.785   2.868
46557W        W18850   5.369  19.565   2.375
46558W        W18851  41.356  14.254  14.500
46559W        W18852  42.875  19.147  13.548
46560W        W18853  37.868  30.417  12.467
46561W        W18854  20.156   6.910  11.099
46562W        W18855  18.122  17.561  13.820
46563W        W18856   5.842  28.546   1.784
46564W        W18857  29.923  17.135  14.347
46565W        W18858  33.075  16.236  12.016
46566W        W18859  44.775  37.546  14.500
46567W        W18860  13.637   4.852  14.826
46568W        W18861   3.216   1.256   0.304
46569W        W18862   9.294  35.363   1.779
46570W        W18863  27.614  36.522  14.404
46571W        W18864  43.803  43.844  11.057
46572W        W18865  34.914  42.447  12.997
46573W        W18866   8.690  30.561  13.491
46574W        W18867  30.426  37.561   3.205
46575W        W18868  19.549  28.665   4.331
46576W        W18869   8.710  41.501   1.266
46577W        W18870   5.897   6.353   1.262
46578W        W18871  24.705  26.058   0.437
46579W        W18872  43.812  31.989  11.106
46580W        W18873  15.668  41.950   1.807
46581W        W18874   9.742  10.739  12.554
46582W        W18875  23.685  32.580   1.873
46583W        W18876  20.086  19.162   2.242
46584W        W18877  16.763  32.568   2.735
46585W        W18878  32.600  31.013  10.507
46586W        W18879   4.715  16.748   3.304
46587W        W18880  36.039  31.577  12.414
46588W        W18881   4.930  24.625   4.686
46589W        W18882  14.218  39.471  14.277
46590W        W18883  15.739  40.810  14.925
46591W        W18884  40.995  29.146  14.823
46592W        W18885   3.343  38.331   2.715
46593W        W18886  10.841  12.321  12.957
46594W        W18887  25.590  39.368   1.923
46595W        W18888  35.953  19.273  13.475
46596W        W18889  41.530  16.141   4.686
46597W        W18890  40.980  42.904  12.520
46598W        W18891  32.047  33.509   1.922
46599W        W18892   1.829  29.961   1.764
46600W        W18893  17.110  17.226  14.313
46601W        W18894  39.373  34.563  14.934
46602W        W18895  43.386  38.868   0.384
46603W        W18896  22.670   3.811   4.285
46604W        W18897   6.319  26.072  13.031
46605W        W18898  23.188  10.718  11.402
46606W        W18899  28.989   1.914  14.385
46607W        W18900  27.526  40.479  11.938
46608W        W18901  38.451  15.667   0.434
46609W        W18902  28.940  21.529   3.375
46610W        W18903   3.836  36.967   2.393
46611W        W18904  22.725  24.099   0.428
46612W        W18905  27.519  17.197   3.752
46613W        W18906  14.230  32.949  10.520
46614W        W18907  35.458  10.232  14.895
46615W        W18908  28.978  35.377   0.402
46616W        W18909  43.334  32.122  13.506
46617W        W18910   5.367  21.682  14.989
46618W        W18911  37.018  19.049   4.335
46619W        W18912   3.215   5.740   1.300
46620W        W18913  35.535   2.805   0.304
46621W        W18914   3.764  33.504   3.156
46622W        W18915  40.838  26.593  14.380
46623W        W18916  20.174  34.964   4.252
46624W        W18917  34.386   9.318   0.406
46625W        W18918  36.908   7.750   4.207
46626W        W18919  32.500  34.465   1.726
46627W        W18920  25.618  19.133   2.413
46628W        W18921  41.832  14.201   2.866
46629W        W18922   5.278  30.466  14.415
46630W        W18923  34.405  34.480   0.873
46631W        W18924   3.774  18.255   3.241
46632W        W18925  16.659  12.208   0.801
46633W        W18926  31.638   3.241   0.482
46634W        W18927  19.661  17.640   4.278
46635W        W18928  27.993   9.704  12.431
46636W        W18929  18.125   2.327   2.267
46637W        W18930   3.755   1.940   4.338
46638W        W18931  37.846  37.571  10.477
46639W        W18932  44.837   8.898  12.048
46640W        W18933  27.454  26.011  10.509
46641W        W18934  28.516  43.469  12.509
46642W        W18935   0.305  22.504  12.481
46643W        W18936  23.137  42.963  12.471
46644W        W18937  15.647  18.611   4.224
46645W        W18938  24.002  38.446   4.165
46646W        W18939  12.671  28.058   4.745
46647W        W18940  34.435  41.832  14.514
46648W        W18941  42.809  13.669  12.025
46649W        W18942  18.238   5.788   4.628
46650W        W18943  10.337   6.221  12.887
46651W        W18944  20.113  21.564   5.588
46652W        W18945  27.971  42.286  10.983
46653W        W18946   8.717  29.663  13.835
46654W        W18947  33.526   8.754  13.014
46655W        W18948  13.829  24.069   0.960
46656W        W18949  20.707  19.592   2.223
46657W        W18950  35.918   3.951  14.903
46658W        W18951  15.130  29.635  13.320
46659W        W18952   9.241  35.507   9.944
46660W        W18953  15.166  31.945  11.860
46661W        W18954  31.946  36.981  12.352
46662W        W18955  24.982  25.690   0.737
46663W        W18956  41.821  38.372   2.209
46664W        W18957  42.461  26.575  12.018
46665W        W18958  42.951  35.591   3.268
46666W        W18959  44.864  21.726  10.432
46667W        W18960  42.311  25.667  12.523
46668W        W18961   9.354   8.741  14.453
46669W        W18962  25.635  42.502  10.492
46670W        W18963  23.497  13.784  14.786
46671W        W18964  43.898  44.940   3.845
46672W        W18965   0.325   8.756  12.465
46673W        W18966  31.151   1.856   2.263
46674W        W18967  25.552  14.754   3.734
46675W        W18968  29.518  27.063   1.253
46676W        W18969   0.946   1.958   3.354
46677W        W18970   5.345   3.884  13.464
46678W        W18971   2.339  32.111  14.353
46679W        W18972   8.279  29.667   1.921
46680W        W18973  43.338   8.215  14.796
46681W        W18974  31.127  25.205   3.779
46682W        W18975   3.432  40.443   2.378
46683W        W18976  37.540  31.055   1.249
46684W        W18977   9.883  22.707   1.374
46685W        W18978  10.743   3.253   4.619
46686W        W18979  32.984  18.668   2.344
46687W        W18980  18.607  20.661   1.435
46688W        W18981  29.657   4.889  14.369
46689W        W18982  37.870  31.998  11.477
46690W        W18983  44.922  29.541  11.095
46691W        W18984  40.872  42.431  14.841
46692W        W18985  24.612  35.107  13.891
46693W        W18986  17.189  29.468  13.511
46694W        W18987  22.039  30.052   4.329
46695W        W18988  22.556  29.545   1.777
46696W        W18989  16.756  31.427  13.322
46697W        W18990  40.912  44.309  13.349
46698W        W18991  40.989  19.179  14.388
46699W        W18992  21.256  14.150  11.081
46700W        W18993  31.515  17.720   4.693
46701W        W18994  35.572  16.259   0.965
46702W        W18995  30.989   0.747  12.972
46703W        W18996  42.880  27.115  11.452
46704W        W18997  40.879   8.838   1.887
46705W        W18998  16.072  43.500  10.622
46706W        W18999   4.826  34.869   2.196
46707W        W19000   7.903  19.540  11.929
46708W        W19001  27.611   9.227  11.069
46709W        W19002  22.210   2.422  14.481
46710W        W19003  36.900  39.993  14.935
46711W        W19004  19.698  37.457   0.758
46712W        W19005  19.739  29.612   1.920
46713W        W19006   9.320  33.948   2.226
46714W        W19007  23.679  16.208   0.324
46715W        W19008  27.114   3.269   4.284
46716W        W19009  21.042   3.928   4.326
46717W        W19010  22.087  41.788   4.701
46718W        W19011  20.064  30.144   4.693
46719W        W19012  39.903   1.876   2.876
46720W        W19013  44.922   3.261  11.915
46721W        W19014  21.215   7.779   0.751
46722W        W19015   0.256  33.099   4.216
46723W        W19016   6.367  32.946   1.768
46724W        W19017  39.340  32.113  14.419
46725W        W19018   6.730  25.108   4.650
46726W        W19019  31.959  19.674  11.389
46727W        W19020  28.469  40.447  13.453
46728W        W19021  33.552   0.954  11.041
46729W        W19022  41.342  13.740  13.998
46730W        W19023  44.990  20.654   4.696
46731W        W19024   8.899   8.773  12.434
46732W        W19025  21.589  19.045  12.562
46733W        W19026  18.583  34.531   3.746
46734W        W19027  27.166   7.311  13.491
46735W        W19028  39.418  15.240   2.861
46736W        W19029  40.811  25.116   0.762
46737W        W19030  36.910  37.483   1.422
46738W        W19031  41.486  32.951   3.372
46739W        W19032   2.901   7.343   4.167
46740W        W19033   0.782  22.715  13.510
46741W        W19034  30.980  29.569   2.237
46742W        W19035  41.420  16.223   4.262
46743W        W19036  30.637  26.504   0.468
46744W        W19037   2.789  33.562   3.309
46745W        W19038   0.398  19.753   4.286
46746W        W19039  44.410  32.458  10.997
46747W        W19040  40.889   9.659  12.967
46748W        W19041   5.319   7.344  10.992
46749W        W19042  26.478   6.383   1.782
46750W        W19043  11.205  34.894   3.294
46751W        W19044   1.360  13.185   0.836
46752W        W19045  11.638  43.946   2.389
46753W        W19046   8.697  39.978   1.290
46754W        W19047  19.142  20.763   4.771
46755W        W19048   9.264   8.723  13.830
46756W        W19049  21.544  28.663   0.758
46757W        W19050  23.133  14.639  10.534
46758W        W19051  35.913   9.684  11.412
46759W        W19052  26.671   7.717  14.405
46760W        W19053  41.845  19.213  11.007
46761W        W19054  44.330  44.370  14.806
46762W        W19055  14.697   3.228   4.210
46763W        W19056  12.807   6.188  11.379
46764W        W19057  44.769  38.333   1.407
46765W        W19058  43.826  44.423  11.941
46766W        W19059   8.665   6.415  13.356
46767W        W19060  31.099  27.187  11.032
46768W        W19061   1.801  27.017  11.974
46769W        W19062  15.218   3.771   2.401
46770W        W19063  40.330  10.356  13.027
46771W        W19064  44.379  11.324   2.684
46772W        W19065  21.716  26.585   5.198
46773W        W19066   0.834   7.756  14.285
46774W        W19067  23.642  36.379  13.057
46775W        W19068  30.597  33.117  12.450
46776W        W19069  33.427  15.616   4.630
46777W        W19070  18.292   7.793  11.394
46778W        W19071  21.653  16.293  12.532
46779W        W19072  14.153  15.625   4.730
46780W        W19073   9.816   8.877   0.399
46781W        W19074   5.891  29.454  12.065
46782W        W19075  23.695  19.153  11.112
46783W        W19076  24.542  17.178  12.057
46784W        W19077  26.164  37.540   0.914
46785W        W19078  42.306  27.070  10.892
46786W        W19079  20.619  17.676  12.480
46787W        W19080  12.734  16.087  13.339
46788W        W19081  40.534  36.087   1.716
46789W        W19082  40.967  42.833   3.677
46790W        W19083  22.200  25.546  12.909
46791W        W19084  13.186  17.683   2.353
46792W        W19085  37.020  16.574   2.332
46793W        W19086  27.569  10.382   2.293
46794W        W19087   6.895  38.890  14.797
46795W        W19088  21.130  17.137   1.935
46796W        W19089  20.182  38.531  13.053
46797W        W19090  32.512  15.269   4.124
46798W        W19091  14.735  16.230   0.792
46799W        W19092   5.862  17.773   3.666
46800W        W19093  26.003   9.663   4.229
46801W        W19094  17.779  30.467   2.750
46802W        W19095  29.082   1.890   1.331
46803W        W19096  20.076  25.598  11.887
46804W        W19097   8.884   4.837  13.805
46805W        W19098  13.126  23.704   9.967
46806W        W19099  33.008   9.840   2.413
46807W        W19100   9.200   7.858  11.920
46808W        W19101   8.265  12.633  13.348
46809W        W19102  22.693   1.379  14.329
46810W        W19103  10.243  40.403  11.611
46811W        W19104  17.170  41.320   4.808
46812W        W19105  25.107   7.890  13.393
46813W        W19106  24.716   0.889  10.505
46814W        W19107   6.386   5.286   3.738
46815W        W19108   6.825   8.854   4.801
46816W        W19109  12.193  37.556   3.660
46817W        W19110  34.558  11.187  13.883
46818W        W19111   7.738  35.482  14.457
46819W        W19112   4.866  12.123   4.185
46820W        W19113  16.101  24.506  12.567
46821W        W19114  14.146  21.713   3.328
46822W        W19115  17.609  37.987   0.423
46823W        W19116  24.723  21.059  11.940
46824W        W19117   9.749  38.029   1.406
46825W        W19118   1.966  31.602  11.608
46826W        W19119  28.999  17.141  10.469
46827W        W19120  19.749  33.423  11.499
46828W        W19121  24.575  25.218  12.955
46829W        W19122  17.183  38.052   3.841
46830W        W19123  26.487  24.135   0.925
46831W        W19124  26.061  44.948   1.702
46832W        W19125  35.898  32.102   2.672
46833W        W19126  34.942  31.083   1.900
46834W        W19127  37.934  27.069  13.904
46835W        W19128   3.434   6.247   4.344
46836W        W19129  42.303  29.557  13.795
46837W        W19130  37.035  39.447   3.255
46838W        W19131  34.067  18.075  12.575
46839W        W19132  30.945  29.629  12.876
46840W        W19133  27.001  43.899   0.471
46841W        W19134  43.390  32.408  11.601
46842W        W19135   2.322   1.949   5.220
46843W        W19136  29.554  20.687   4.710
46844W        W19137  18.649  22.635   4.302
46845W        W19138   2.380  35.938  10.978
46846W        W19139  23.647  16.177   1.317
46847W        W19140  23.173  33.123  11.889
46848W        W19141  17.773   5.394   0.479
46849W        W19142  29.607   9.367   3.346
46850W        W19143  43.976   7.337  13.497
46851W        W19144  41.924   4.714  12.075
46852W        W19145  16.596   2.802   0.760
46853W        W19146  21.513  39.412   1.233
46854W        W19147  28.488  10.748   2.409
46855W        W19148  40.547  27.967  11.559
46856W        W19149  34.570  39.442   2.824
46857W        W19150  16.593  27.047  14.942
46858W        W19151  27.003  10.686  12.040
46859W        W19152  31.949   2.251   4.192
46860W        W19153  44.776   3.900  13.916
46861W        W19154  42.420  25.514  11.877
46862W        W19155  39.479  41.007   4.189
46863W        W19156   3.411   1.355  12.569
46864W        W19157  32.499  41.487   3.325
46865W        W19158  37.538  14.216  14.437
46866W        W19159  16.077  21.544  14.396
46867W        W19160   5.881   1.272   3.645
46868W        W19161  30.016  35.375   0.243
46869W        W19162   2.366  21.033   4.618
46870W        W19163  40.384  44.314  11.496
46871W        W19164  14.763  43.009  14.969
46872W        W19165  11.311  29.940   0.957
46873W        W19166  34.879  25.044   2.340
46874W        W19167  20.117  41.955   0.934
46875W        W19168  20.645  31.003  10.471
46876W        W19169  23.207  42.512  13.917
46877W        W19170  31.617  37.971   4.235
46878W        W19171  15.216   4.206   1.301
46879W        W19172  33.960  44.399   4.685
46880W        W19173  38.460  41.853   1.312
46881W        W19174  39.409  26.207  14.913
46882W        W19175  22.732  15.687  13.007
46883W        W19176  15.222  31.491   0.298
46884W        W19177   0.974  23.555  12.952
46885W        W19178   9.827   1.937   1.889
46886W        W19179  40.318  36.421  10.975
46887W        W19180  43.330   1.241   3.810
46888W        W19181  32.123  23.184  12.928
46889W        W19182  28.157  37.563  14.919
46890W        W19183  24.489  23.623   3.656
46891W        W19184  39.402  38.025  13.819
46892W        W19185  26.997  24.148  12.847
46893W        W19186  18.117   6.289   0.403
46894W        W19187  15.784  40.370   4.243
46895W        W19188  42.433  44.295  12.356
46896W        W19189   9.820  26.047   4.776
46897W        W19190  18.286  29.431  13.468
46898W        W19191  12.151  18.738  11.525
46899W        W19192  27.167  29.038   1.849
46900W        W19193  24.136   6.247  13.875
46901W        W19194  34.881  39.057  14.958
46902W        W19195  42.854  36.377   0.941
46903W        W19196   5.422  38.898   4.217
46904W        W19197   3.386   5.309  13.399
46905W        W19198  25.054   5.863  13.531
46906W        W19199  43.317  43.996  11.997
46907W        W19200  24.043   3.774   9.920
46908W        W19201  38.948  43.011  14.021
46909W        W19202  37.425  26.119   1.827
46910W        W19203   3.367  17.585   2.416
46911W        W19204  24.517   4.239   4.706
46912W        W19205  38.435   6.258  14.000
46913W        W19206   0.866  31.447  14.872
46914W        W19207  40.488  35.453  13.965
46915W        W19208  14.176  42.324  12.978
46916W        W19209  23.986   9.168   1.755
46917W        W19210  31.098  27.643  13.501
46918W        W19211  15.583  22.091  10.561
46919W        W19212   7.736  25.100  11.442
46920W        W19213  16.685  24.514   3.367
46921W        W19214   8.289   3.277   3.732
46922W        W19215  11.790  11.849  10.915
46923W        W19216   6.194  11.309   3.871
46924W        W19217  19.672  18.151   2.764
46925W        W19218   7.340   7.314   4.710
46926W        W19219   4.900  13.316  13.797
46927W        W19220   7.834  31.049  13.494
46928W        W19221   8.329  36.862   3.705
46929W        W19222   6.267  20.193   1.763
46930W        W19223  10.344  31.928   2.197
46931W        W19224   1.303  16.242  14.969
46932W        W19225  16.596  35.058  12.001
46933W        W19226  11.311  17.081   3.696
46934W        W19227  33.083  16.162  11.494
46935W        W19228  43.444  22.554   0.262
46936W        W19229  15.671  20.084  14.867
46937W        W19230   0.940  12.621  10.519
46938W        W19231   6.904  10.834  10.903
46939W        W19232  40.949  39.481   0.783
46940W        W19233  21.047  12.336   1.803
46941W        W19234  11.158  26.162   3.262
46942W        W19235  13.621   6.688  10.525
46943W        W19236  26.471   6.873   4.758
46944W        W19237  19.220  43.927  12.903
46945W        W19238   4.732   8.849  10.141
46946W        W19239   9.851  25.580  10.622
46947W        W19240  17.273   3.413  13.052
46948W        W19241  10.775  16.689  13.500
46949W        W19242   8.325   5.377  11.065
46950W        W19243  29.548  42.931  10.080
46951W        W19244  12.220  16.245  11.451
46952W        W19245   4.771  39.884  12.346
46953W        W19246  15.262  37.906  14.847
46954W        W19247   3.741  33.423  10.013
46955W        W19248  21.739   4.376  13.388
46956W        W19249  12.803  20.125   1.906
46957W        W19250  27.166   4.844   2.211
46958W        W19251  18.194  27.600  11.023
46959W        W19252   2.363  23.083  10.954
46960W        W19253  35.546  43.829  12.518
46961W        W19254  17.715  10.685   3.337
46962W        W19255   8.773  26.587   0.418
46963W        W19256  13.305  39.989  11.985
46964W        W19257  35.081   1.829   1.928
46965W        W19258  31.541   6.428  10.468
46966W        W19259  12.358  28.981   4.341
46967W        W19260   8.680  12.156  12.021
46968W        W19261   0.395  23.167  12.494
46969W        W19262  11.749   3.943   0.770
46970W        W19263   0.972  38.513  13.859
46971W        W19264   8.385  34.486  14.839
46972W        W19265   1.820  34.551   2.718
46973W        W19266  34.974   6.897  12.576
46974W        W19267  30.975  40.903   4.212
46975W        W19268   6.795   8.899  10.627
46976W        W19269   6.867  24.614   3.812
46977W        W19270  10.868  40.373  12.036
46978W        W19271  38.071  30.940  11.883
46979W        W19272  23.041  26.157  11.524
46980W        W19273  29.074   9.248   4.230
46981W        W19274   2.865  40.902   2.783
46982W        W19275   5.720   9.777  12.398
46983W        W19276  32.540  19.763   3.851
46984W        W19277  31.467  25.042  13.032
46985W        W19278  20.672  23.522  14.853
46986W        W19279  41.963  20.154   0.434
46987W        W19280   7.815  14.828   3.166
46988W        W19281  19.646   9.686   4.635
46989W        W19282  31.089  44.377   3.839
46990W        W19283   4.762   4.718  12.577
46991W        W19284  20.634   3.813   1.900
46992W        W19285  26.668  20.034   1.755
46993W        W19286  42.869   4.811   5.226
46994W        W19287  39.532  43.787   4.807
46995W        W19288  19.705   2.876   0.816
46996W        W19289  27.059  43.395   2.215
46997W        W19290   3.809  31.897   4.751
46998W        W19291  32.101  10.701  10.426
46999W        W19292   3.711  44.395   2.394
47000W        W19293   7.697  28.980  14.428
47001W        W19294  13.729  10.331  10.930
47002W        W19295  18.052  23.240   9.510
47003W        W19296  17.296  21.073  13.500
47004W        W19297   8.732  23.545  11.099
47005W        W19298  23.727  27.468  14.486
47006W        W19299  24.133  33.940   0.407
47007W        W19300  12.816  25.144   3.636
47008W        W19301  31.483  41.395  13.345
47009W        W19302  39.957  23.613  13.853
47010W        W19303  14.304  11.281  11.985
47011W        W19304   1.926  39.909  12.407
47012W        W19305  29.631  18.117  11.075
47013W        W19306   4.394   5.398  10.618
47014W        W19307  22.608  36.982   0.777
47015W        W19308  44.983   7.193   1.763
47016W        W19309  39.525  10.204   2.714
47017W        W19310  13.312  29.535  14.884
47018W        W19311  32.574  15.699  10.595
47019W        W19312  27.058  17.263   4.832
47020W        W19313  34.531  27.533   4.186
47021W        W19314  34.937  24.528  14.374
47022W        W19315  44.798  25.500   0.355
47023W        W19316  29.546  25.962  12.477
47024W        W19317  28.470  34.086   4.778
47025W        W19318  17.213  24.068   9.982
47026W        W19319  31.493  13.666  13.980
47027W        W19320  27.628   8.248  14.980
47028W        W19321   2.781  41.824  12.478
47029W        W19322  10.875   4.791   4.829
47030W        W19323  17.144  21.626  12.361
47031W        W19324   8.766  33.108   2.228
47032W        W19325  15.711  41.470  12.381
47033W        W19326  42.354   1.277  11.583
47034W        W19327  43.959  42.408  13.443
47035W        W19328   5.891  19.635   2.798
47036W        W19329   4.725   0.870  11.526
47037W        W19330  44.474   6.392   1.888
47038W        W19331  44.406  31.916  11.945
47039W        W19332   2.462  27.637   3.341
47040W        W19333  27.966  20.613   2.840
47041W        W19334  26.096  15.605  11.921
47042W        W19335   5.909  20.238  12.553
47043W        W19336  15.276  20.094   0.806
47044W        W19337  38.937  36.358   1.423
47045W        W19338  12.734   2.310   3.318
47046W        W19339  38.846   3.927   1.861
47047W        W19340  38.345  20.194  14.430
47048W        W19341  15.715  27.001   3.757
47049W        W19342  23.056   1.340   2.369
47050W        W19343   1.892  17.605   2.885
47051W        W19344  10.797  17.252  12.415
47052W        W19345  27.150  15.801  14.416
47053W        W19346  15.188   4.447  12.003
47054W        W19347  44.269  22.070   3.671
47055W        W19348  18.547  26.032  13.509
47056W        W19349  41.507  24.093  13.379
47057W        W19350  31.548  10.876  12.838
47058W        W19351   4.279  16.072  12.858
47059W        W19352   3.863   9.269   4.725
47060W        W19353   1.900  16.768   1.277
47061W        W19354  18.144  23.575  11.588
47062W        W19355  16.659   1.794  10.620
47063W        W19356  32.914  25.536  11.100
47064W        W19357   9.794  36.061   1.814
47065W        W19358   5.291  22.676   2.895
47066W        W19359  15.768  20.068   1.697
47067W        W19360  34.982  15.589  12.484
47068W        W19361   7.307  32.955  10.074
47069W        W19362  43.843  33.034  12.391
47070W        W19363  24.059  17.718   2.263
47071W        W19364   8.791  34.080   1.838
47072W        W19365  24.708   1.803   3.649
47073W        W19366  26.142  30.414  13.487
47074W        W19367  36.408   5.808  13.420
47075W        W19368  25.671   7.695  12.544
47076W        W19369  37.046  26.157   1.884
47077W        W19370  31.961  35.528   3.856
47078W        W19371   1.873  43.395  13.976
47079W        W19372  44.867  17.555   5.125
47080W        W19373  15.764  42.899  11.115
47081W        W19374  39.911  27.172  12.953
47082W        W19375  30.108   0.750   2.679
47083W        W19376  23.570  24.670   4.311
47084W        W19377  23.567  34.083   4.280
47085W        W19378  16.705   3.878  10.439
47086W        W19379   1.470  15.182   0.779
47087W        W19380  35.931  37.035   0.842
47088W        W19381  35.941  25.477   2.877
47089W        W19382  18.674  17.129  11.461
47090W        W19383  18.146  27.100  11.877
47091W        W19384  27.046  44.450   4.196
47092W        W19385  35.522   1.317   4.605
47093W        W19386  21.522  38.992  10.949
47094W        W19387   1.758  26.110  10.468
47095W        W19388  21.739  22.526  13.813
47096W        W19389   1.867  38.916  13.856
47097W        W19390  22.075  42.949  12.375
47098W        W19391   4.844  39.042  11.934
47099W        W19392  12.633  11.287  14.823
47100W        W19393  11.290   7.694  14.426
47101W        W19394   8.303  28.505  13.451
47102W        W19395  23.681   8.208   2.734
47103W        W19396  15.601   5.418  14.354
47104W        W19397  15.221  44.304   4.682
47105W        W19398  15.231  35.395  11.114
47106W        W19399  44.380  29.000  10.634
47107W        W19400  28.642   4.300  13.985
47108W        W19401   1.256   0.482  11.063
47109W        W19402  25.568  36.405   3.214
47110W        W19403  31.117  32.631  14.837
47111W        W19404  33.981  22.013  10.476
47112W        W19405  41.980  43.950   1.210
47113W        W19406  22.229  23.087   4.219
47114W        W19407   5.741  25.497   3.862
47115W        W19408  12.611   9.284   2.227
47116W        W19409  16.746  22.596   1.390
47117W        W19410  31.072  37.437  14.501
47118W        W19411  28.170   8.702   3.772
47119W        W19412   9.643   5.817   1.921
47120W        W19413   1.900   4.744  14.387
47121W        W19414   0.471  23.001   2.825
47122W        W19415   7.784  40.311  12.504
47123W        W19416   7.305  28.022   4.823
47124W        W19417  32.472  43.831   1.326
47125W        W19418  39.471  19.650  11.982
47126W        W19419  43.423   4.248   2.681
47127W        W19420   3.363  15.750   5.270
47128W        W19421  36.478  31.940   3.339
47129W        W19422  28.490  30.985   0.830
47130W        W19423  13.280  28.488   3.350
47131W        W19424  37.051  25.626   4.197
47132W        W19425  25.589  10.318   2.361
47133W        W19426   9.289  34.569   9.590
47134W        W19427  32.994  32.504  11.557
47135W        W19428   8.760  20.138   1.893
47136W        W19429   9.713  32.008   3.267
47137W        W19430  25.046  38.962   1.354
47138W        W19431   4.402   2.436   1.860
47139W        W19432  11.762  36.432   3.650
47140W        W19433   9.834  13.750   1.803
47141W        W19434  41.958  10.384   3.813
47142W        W19435  21.632   4.719  10.031
47143W        W19436  18.549  41.980   5.104
47144W        W19437  44.994  40.939  10.465
47145W        W19438  22.116   7.232   2.882
47146W        W19439  36.375   9.879  13.391
47147W        W19440  43.375   3.909   3.172
47148W        W19441  29.941  16.704   4.600
47149W        W19442  11.629   8.686   1.348
47150W        W19443  16.184  27.104   2.202
47151W        W19444  32.963  19.534  14.949
47152W        W19445  16.263   4.372   4.124
47153W        W19446  32.009  41.355  13.014
47154W        W19447  20.061  43.990  10.938
47155W        W19448  34.051  29.096  12.029
47156W        W19449  44.491  29.152  14.843
47157W        W19450  40.375  28.096   5.108
47158W        W19451  39.322  24.488  11.987
47159W        W19452  20.638   3.921  12.846
47160W        W19453  28.945  31.122   0.835
47161W        W19454  44.402  39.376  11.427
47162W        W19455  41.031  24.633  12.340
47163W        W19456   1.382   4.711   1.360
47164W        W19457   6.863  34.026   0.267
47165W        W19458  38.350  12.251   2.667
47166W        W19459  24.008  21.155  14.996
47167W        W19460   0.830  40.806  12.416
47168W        W19461  33.491  43.013   3.231
47169W        W19462  12.174  13.843  14.772
47170W        W19463  11.660  14.315   0.946
47171W        W19464  37.398  18.739   1.353
47172W        W19465  41.943  29.056   4.644
47173W        W19466  38.042  38.570  13.960
47174W        W19467   4.216  39.037  12.880
47175W        W19468   9.739  43.906  10.405
47176W        W19469   1.437  36.400  12.423
47177W        W19470  24.202  13.150   0.244
47178W        W19471  26.626   5.865   3.683
47179W        W19472  26.046  11.226   2.837
47180W        W19473  35.597  37.430  12.088
47181W        W19474  37.980  22.555  14.958
47182W        W19475   2.793  13.148   3.242
47183W        W19476  41.816  19.248  12.393
47184W        W19477   6.414  40.928  12.516
47185W        W19478  33.874  34.969   2.217
47186W        W19479  21.705  22.243  10.532
47187W        W19480   4.735  25.967   3.712
47188W        W19481  22.540  31.634   0.441
47189W        W19482  11.664  14.813  14.781
47190W        W19483   1.470  34.996   1.835
47191W        W19484  43.788  19.108   4.222
47192W        W19485  15.794  21.240   2.209
47193W        W19486  25.141  30.913   4.213
47194W        W19487  28.965  29.470   2.253
47195W        W19488  23.687   5.377   2.716
47196W        W19489  32.537  39.369  14.817
47197W        W19490  21.558  13.245  14.400
47198W        W19491  34.878  39.327  13.884
47199W        W19492   1.322  27.190  13.806
47200W        W19493   6.271   0.797  10.598
47201W        W19494   1.312  37.990   3.640
47202W        W19495  24.669  11.696   1.354
47203W        W19496  10.209   4.329   3.203
47204W        W19497  23.226   6.365   4.138
47205W        W19498  15.799  28.131  11.033
47206W        W19499   7.684  13.776  12.954
47207W        W19500  23.709  39.844   1.363
47208W        W19501  34.406  34.090  13.395
47209W        W19502  18.285  23.218  14.294
47210W        W19503   6.871  24.212   0.772
47211W        W19504  18.197  18.086   3.726
47212W        W19505  36.907  22.121   1.409
47213W        W19506  36.501   5.239   0.319
47214W        W19507   0.814  16.768   3.717
47215W        W19508  30.481  19.154   3.685
47216W        W19509   1.468  15.324  11.055
47217W        W19510  13.129  33.425   0.410
47218W        W19511  13.329  28.561   0.380
47219W        W19512   0.809   8.169   4.211
47220W        W19513  31.048  36.524   4.329
47221W        W19514  35.898  43.769   2.214
47222W        W19515  31.429  30.096   0.815
47223W        W19516  26.016  25.977  13.822
47224W        W19517  17.587  28.098   4.320
47225W        W19518  29.981  16.702   2.199
47226W        W19519  35.904  43.336   4.691
47227W        W19520  37.419  33.395  14.813
47228W        W19521   7.304  29.539   0.308
47229W        W19522   9.327  42.305   4.719
47230W        W19523  29.047  10.169  12.829
47231W        W19524  14.784  38.874   2.281
47232W        W19525   9.862  32.500   0.421
47233W        W19526  29.539   6.422   3.231
47234W        W19527  44.326  33.989   3.705
47235W        W19528  31.932  14.178   3.186
47236W        W19529  38.873   3.371   1.220
47237W        W19530  41.815  30.570  13.915
47238W        W19531  42.924  32.442  13.430
47239W        W19532  12.264   9.847  11.022
47240W        W19533  33.508   5.869   4.695
47241W        W19534  38.496  14.249   2.213
47242W        W19535  43.955  13.740   3.834
47243W        W19536  34.511   2.834   1.808
47244W        W19537  43.326  22.547   1.246
47245W        W19538  19.255   8.193   2.389
47246W        W19539  27.572  44.269   0.827
47247W        W19540  37.964  39.551   4.168
47248W        W19541  37.873  38.050  10.560
47249W        W19542  42.030  33.478   3.238
47250W        W19543   0.313  15.604   4.755
47251W        W19544   2.943  16.623   0.774
47252W        W19545  23.988  16.281  13.418
47253W        W19546  28.012  34.595  11.098
47254W        W19547  10.857  15.181  10.626
47255W        W19548  13.136   3.856  10.642
47256W        W19549  11.291  38.460   1.723
47257W        W19550  42.962  24.528   1.868
47258W        W19551  14.619  24.719  13.404
47259W        W19552  36.583  28.497  11.944
47260W        W19553  11.804  33.045  13.998
47261W        W19554   6.914  28.615   0.850
47262W        W19555  25.967  18.701   2.241
47263W        W19556   0.763  20.243  13.406
47264W        W19557  30.590   6.234  11.391
47265W        W19558  32.959   0.844  11.037
47266W        W19559  12.120  43.924  10.547
47267W        W19560  27.009  33.611  10.455
47268W        W19561  20.060  26.481   0.956
47269W        W19562  29.460  37.883  14.921
47270W        W19563  16.789  26.154  13.369
47271W        W19564   1.317  34.374   0.406
47272W        W19565  35.518  20.539   0.361
47273W        W19566  14.246  42.987  10.466
47274W        W19567  35.853   0.812  14.019
47275W        W19568  15.813   6.863  10.917
47276W        W19569  25.167   9.389  10.578
47277W        W19570  12.258  17.662   3.347
47278W        W19571  27.682   8.802  12.957
47279W        W19572  29.628   2.338   2.260
47280W        W19573  25.974   7.244   3.755
47281W        W19574  16.812  13.145  11.377
47282W        W19575  20.592   3.807   0.336
47283W        W19576  19.058  37.335  14.926
47284W        W19577  13.761  27.645  12.999
47285W        W19578  37.513  32.544   2.846
47286W        W19579  10.869  19.056  14.800
47287W        W19580  37.895   5.428  11.461
47288W        W19581  31.928  33.892   4.725
47289W        W19582  32.580  11.644   3.268
47290W        W19583   6.730  11.783   0.887
47291W        W19584   7.375  19.610   2.798
47292W        W19585  14.278  43.899   0.892
47293W        W19586  12.225  18.611  13.445
47294W        W19587  36.073   5.364  10.505
47295W        W19588  43.783  24.016  14.482
47296W        W19589  13.144   7.245  10.026
47297W        W19590   7.752  25.609  10.610
47298W        W19591  42.891  14.112  12.876
47299W        W19592  13.794  22.716   3.643
47300W        W19593  13.186  28.554   4.315
47301W        W19594  40.907  28.645   0.420
47302W        W19595  18.614  25.590  12.557
47303W        W19596  33.525   3.295   0.825
47304W        W19597   8.858  20.723   2.864
47305W        W19598  19.607  10.661   0.324
47306W        W19599  10.834   2.766  13.834
47307W        W19600   8.848  35.906   5.248
47308W        W19601  11.152  35.068   3.803
47309W        W19602   3.378   6.198   3.851
47310W        W19603   9.853  20.226  12.499
47311W        W19604   4.315   2.967   0.402
47312W        W19605  24.619   2.728  12.038
47313W        W19606  38.873  44.454  10.616
47314W        W19607  10.331   5.897   4.661
47315W        W19608  24.645  19.224  13.968
47316W        W19609  15.109  31.549  11.023
47317W        W19610  13.630   6.681  11.003
47318W        W19611  21.031  40.315   0.935
47319W        W19612  11.627  39.941  13.044
47320W        W19613  21.736   0.417   1.427
47321W        W19614  36.475  18.291   2.865
47322W        W19615   0.777  20.726   4.214
47323W        W19616  14.669  18.676   2.864
47324W        W19617   9.721   8.706   2.895
47325W        W19618  18.129  33.530  13.883
47326W        W19619  30.420   0.963   4.335
47327W        W19620  32.011  44.363   3.853
47328W        W19621  40.460   3.918  13.975
47329W        W19622  45.000  10.799  10.586
47330W        W19623   9.172  20.122  11.481
47331W        W19624  10.639   8.852   2.831
47332W        W19625   4.356  34.520   0.398
47333W        W19626  35.525  36.445   0.370
47334W        W19627  39.940  39.372  14.768
47335W        W19628  18.109  32.115  10.470
47336W        W19629   5.315  23.111  12.924
47337W        W19630  12.191  13.263  10.891
47338W        W19631  16.166  35.458   3.341
47339W        W19632  12.287  31.638   3.331
47340W        W19633  23.530   4.754  14.440
47341W        W19634  16.278  33.475   2.341
47342W        W19635  15.096  23.075  13.400
47343W        W19636  35.940   8.819   4.740
47344W        W19637   1.297   8.222  14.994
47345W        W19638   8.850  20.651   2.348
47346W        W19639   6.822  11.786   4.121
47347W        W19640  35.448  40.990   1.770
47348W        W19641  35.419  39.465  12.419
47349W        W19642   9.267   4.324  10.443
47350W        W19643  33.951  10.731  14.516
47351W        W19644  29.654  34.390   4.153
47352W        W19645   2.805  30.909  14.778
47353W        W19646  44.850  33.564  13.474
47354W        W19647  26.965  25.211   4.125
47355W        W19648  38.003  15.108  14.919
47356W        W19649   2.407  18.128   4.181
47357W        W19650  17.775   4.235   4.231
47358W        W19651  27.041   0.456   3.285
47359W        W19652   5.696   1.331  14.012
47360W        W19653  40.491  18.175   2.352
47361W        W19654  23.590  32.536   2.663
47362W        W19655  24.513  19.175  13.061
47363W        W19656   3.233   1.420  11.863
47364W        W19657  34.439  13.702  13.422
47365W        W19658   0.377  13.272  11.544
47366W        W19659  30.117  29.147  14.973
47367W        W19660  34.597   1.814   3.295
47368W        W19661  20.736  28.110   1.833
47369W        W19662  11.314  23.683   0.844
47370W        W19663   6.850  26.532  11.116
47371W        W19664  22.562  23.195   3.780
47372W        W19665  18.715  41.518  12.472
47373W        W19666  10.206  20.187   0.402
47374W        W19667  17.155  43.809  11.101
47375W        W19668  42.371  31.009  10.454
47376W        W19669   2.249  12.177   3.386
47377W        W19670  13.106  16.231  14.364
47378W        W19671  30.940  16.747  12.944
47379W        W19672  33.539  22.714   0.746
47380W        W19673  17.216  13.149  12.999
47381W        W19674  13.164   4.289  12.932
47382W        W19675   6.767  13.774   2.204
47383W        W19676  25.495  40.853   3.211
47384W        W19677  24.511  37.019   1.287
47385W        W19678  37.577  35.579  12.094
47386W        W19679  20.592  44.344  12.577
47387W        W19680  20.743   3.420  10.971
47388W        W19681  17.711  43.896   3.716
47389W        W19682  41.518  31.519   1.773
47390W        W19683  24.116  28.596   1.447
47391W        W19684  39.966  21.695  11.028
47392W        W19685  22.029   0.331  14.942
47393W        W19686   5.355  17.070   2.328
47394W        W19687  29.920  21.257  13.824
47395W        W19688  36.411  10.220   1.333
47396W        W19689  16.310  18.622   1.253
47397W        W19690   8.302  17.758  12.383
47398W        W19691   4.281  18.142  10.580
47399W        W19692  17.094  18.683   2.289
47400W        W19693  24.124  20.763  11.426
47401W        W19694  21.076  12.263   4.706
47402W        W19695   2.825   7.245   1.720
47403W        W19696  33.609  18.614  10.499
47404W        W19697   3.437   3.891   4.239
47405W        W19698  35.426  24.544  14.003
47406W        W19699   4.818  42.906   4.139
47407W        W19700  38.939  35.511  10.103
47408W        W19701  43.330  22.226   0.861
47409W        W19702  31.494  40.531  10.932
47410W        W19703  31.961   2.819  10.606
47411W        W19704  25.652  16.261  12.026
47412W        W19705  37.893  13.237   4.780
47413W        W19706   5.705  44.961  11.572
47414W        W19707  17.733  33.895   0.729
47415W        W19708   1.313  20.612  14.998
47416W        W19709  37.885  38.961   3.650
47417W        W19710  24.993  33.553   4.262
47418W        W19711  32.619  17.063  12.976
47419W        W19712   1.774  29.462  13.920
47420W        W19713   8.794  38.558  11.984
47421W        W19714   8.836  35.957   4.648
47422W        W19715  33.013  20.706  11.596
47423W        W19716  39.402  30.551   3.378
47424W        W19717  42.930  39.475  13.374
47425W        W19718  28.150  44.296  10.544
47426W        W19719  39.376  28.113  10.446
47427W        W19720  38.000  32.918  12.532
47428W        W19721  16.256  31.153  12.477
47429W        W19722  36.439   0.273   4.252
47430W        W19723  30.613  16.671   1.808
47431W        W19724  30.092   7.796   2.667
47432W        W19725  19.073   1.752   3.218
47433W        W19726  15.816  13.813   3.805
47434W        W19727  20.197  17.612   2.317
47435W        W19728  13.167  33.938   1.697
47436W        W19729  37.087  40.856  14.863
47437W        W19730  38.342  37.541  14.876
47438W        W19731  43.840  10.173  13.017
47439W        W19732  31.405  23.720  12.387
47440W        W19733   1.246   8.248   1.778
47441W        W19734  15.735   5.689   4.191
47442W        W19735  11.228  14.335   4.796
47443W        W19736  29.477  13.111   2.738
47444W        W19737  21.541  33.471   3.306
47445W        W19738  19.612  19.757  13.500
47446W        W19739   1.968   1.787   1.881
47447W        W19740   5.909  35.459  11.894
47448W        W19741  39.554  18.284   5.299
47449W        W19742  10.698   1.755   4.321
47450W        W19743  42.987  35.482   2.774
47451W        W19744  32.487  31.112   4.793
47452W        W19745   5.292  21.043   4.257
47453W        W19746  22.613  12.277   1.272
47454W        W19747   9.273  32.493  12.005
47455W        W19748  22.662  34.545  13.357
47456W        W19749  34.387  18.642   1.868
47457W        W19750  12.192  40.421  14.960
47458W        W19751  19.680  16.790  10.550
47459W        W19752  34.086  40.922  10.456
47460W        W19753   8.231  29.131  12.410
47461W        W19754  12.207  40.406   0.388
47462W        W19755   0.836  41.438  14.844
47463W        W19756  28.544  36.922  10.430
47464W        W19757  10.345  16.583  10.108
47465W        W19758   0.940  11.719  11.521
47466W        W19759   3.461  33.003   2.688
47467W        W19760  28.539   0.769   4.749
47468W        W19761  44.971  33.007   3.258
47469W        W19762  34.002  40.310   4.275
47470W        W19763   2.856  23.611  12.075
47471W        W19764  28.963  19.751  11.559
47472W        W19765   6.384  27.018   1.293
47473W        W19766  28.616  34.047  14.801
47474W        W19767   8.797  21.579   0.321
47475W        W19768   2.838   8.383  14.458
47476W        W19769  34.025  24.029   0.397
47477W        W19770  17.739   8.213  13.330
47478W        W19771  12.161  43.346   1.264
47479W        W19772   9.155   3.375  14.411
47480W        W19773  18.236  30.927   5.160
47481W        W19774   0.458  37.014  10.981
47482W        W19775  12.805  13.615  10.927
47483W        W19776  31.985  19.207  11.934
47484W        W19777  43.275  28.972   3.156
47485W        W19778  33.610  41.856  10.491
47486W        W19779  19.754  37.985   5.189
47487W        W19780  23.658  25.025  13.339
47488W        W19781  43.908   0.934   3.681
47489W        W19782  30.060   2.374  14.350
47490W        W19783  32.607  20.057  13.358
47491W        W19784  43.916  32.134  14.816
47492W        W19785  12.159  14.690  11.111
47493W        W19786  23.059  37.374   0.926
47494W        W19787  39.866   9.868   2.391
47495W        W19788  25.543  20.708  12.909
47496W        W19789  10.871   2.312  11.377
47497W        W19790  31.532  38.939   0.468
47498W        W19791  19.160  10.713  14.001
47499W        W19792  32.415  27.167  12.861
47500W        W19793  34.402  40.317  12.940
47501W        W19794  32.940  44.497   4.651
47502W        W19795  30.633  27.941   0.385
47503W        W19796   8.267  39.970  14.489
47504W        W19797  13.319  10.852  11.863
47505W        W19798  36.995  15.291   3.357
47506W        W19799  25.558  30.053  12.926
47507W        W19800  21.742  44.329  14.791
47508W        W19801   3.738  16.191   2.741
47509W        W19802   6.873  31.507   0.421
47510W        W19803  37.901  19.767  13.332
47511W        W19804  22.729  15.254  10.901
47512W        W19805  30.494  39.032  13.338
47513W        W19806  44.457   5.711  13.989
47514W        W19807  34.387  42.777   4.224
47515W        W19808  35.494  22.049  13.334
47516W        W19809  17.756  31.927   0.866
47517W        W19810  15.735  29.920   2.263
47518W        W19811  10.283  29.970   4.695
47519W        W19812  34.905  28.597  14.971
47520W        W19813  37.999   4.823  11.430
47521W        W19814  43.864  42.782   4.269
47522W        W19815   2.775   4.355   4.752
47523W        W19816   3.757  32.138   3.274
47524W        W19817  19.126  10.154   3.356
47525W        W19818   3.847  43.765   0.800
47526W        W19819  41.325  38.865   3.191
47527W        W19820  32.922  41.356  14.008
47528W        W19821  25.512  40.479   2.885
47529W        W19822   7.241   9.191  10.988
47530W        W19823  32.010  37.867  13.893
47531W        W19824  25.569  19.165  12.975
47532W        W19825  44.867  40.872   3.264
47533W        W19826  37.375  12.340  11.513
47534W        W19827  38.507  18.574  12.998
47535W        W19828  30.493  18.596   0.420
47536W        W19829  10.175  13.160  11.009
47537W        W19830   9.322  20.034  14.907
47538W        W19831  27.072   4.349  13.400
47539W        W19832   7.720   7.244  13.542
47540W        W19833  43.416  43.344  13.042
47541W        W19834   0.953  19.703  10.576
47542W        W19835  12.728  29.079  12.555
47543W        W19836  38.474  20.046   3.696
47544W        W19837  18.197  35.526   4.181
47545W        W19838   9.734  11.181  13.851
47546W        W19839  12.726  31.934   1.920
47547W        W19840  16.695   9.363   4.750
47548W        W19841  31.572  23.161   2.295
47549W        W19842  11.330  32.034   5.124
47550W        W19843   2.265  38.380   2.882
47551W        W19844  25.543  33.404   1.878
47552W        W19845  21.623  21.222   0.393
47553W        W19846  40.905   4.928  12.048
47554W        W19847  40.494  35.926   0.963
47555W        W19848   3.783  37.932   1.829
47556W        W19849  43.017  13.813   1.749
47557W        W19850  12.250  22.120   0.941
47558W        W19851  16.799   6.384  14.325
47559W        W19852  40.854   4.921   2.396
47560W        W19853  36.985  13.618   2.273
47561W        W19854  16.183   6.814   3.717
47562W        W19855  37.491  37.975  11.923
47563W        W19856  24.517  27.464   2.823
47564W        W19857  13.726  27.012  10.958
47565W        W19858  26.530  30.057  11.598
47566W        W19859  25.505   0.284   1.268
47567W        W19860  24.658   3.311  14.351
47568W        W19861   9.230  31.019  14.916
47569W        W19862  31.900   6.915   2.758
47570W        W19863  19.776  14.094   2.301
47571W        W19864  34.514   7.324  14.958
47572W        W19865   3.426  44.829   1.409
47573W        W19866  38.502  13.779  12.479
47574W        W19867  10.167  39.556   1.780
47575W        W19868  29.660  33.968   4.611
47576W        W19869  15.588   7.792  10.107
47577W        W19870  25.539  43.433  10.996
47578W        W19871  14.314  17.287  11.381
47579W        W19872  26.188  17.775   0.788
47580W        W19873  30.057  42.799  12.447
47581W        W19874  20.191  12.138   1.716
47582W        W19875  12.185  18.630   1.400
47583W        W19876  41.369  33.621   1.342
47584W        W19877   6.786   7.699   1.292
47585W        W19878  39.516  11.200  14.469
47586W        W19879  43.282   4.837  10.892
47587W        W19880  43.924  42.316   3.722
47588W        W19881   0.903   0.354  13.502
47589W        W19882  39.050   1.946   1.271
47590W        W19883   0.842  23.148  14.349
47591W        W19884  21.231  33.436  14.511
47592W        W19885  20.594  26.655   1.427
47593W        W19886   0.298  41.320   4.730
47594W        W19887  21.222  22.047  12.075
47595W        W19888  30.437  32.630   4.240
47596W        W19889   9.709  23.103  14.356
47597W        W19890   8.182  34.010   3.760
47598W        W19891  20.041  38.823  13.360
47599W        W19892  17.572   4.834  12.524
47600W        W19893  23.630  19.280  14.436
47601W        W19894  14.245  32.108  13.851
47602W        W19895  38.064  42.021  14.475
47603W        W19896  22.173  30.491  11.073
47604W        W19897   1.264  18.119   4.623
47605W        W19898  20.624  13.657   2.883
47606W        W19899  11.817  29.530   2.388
47607W        W19900  33.972   4.921  11.005
47608W        W19901   5.922  37.968  13.015
47609W        W19902  36.512  35.108   1.854
47610W        W19903   5.711   7.303  14.965
47611W        W19904  30.604  15.086  13.405
47612W        W19905  24.209  35.029   3.241
47613W        W19906  28.590  15.799   1.433
47614W        W19907  24.576   5.865   2.228
47615W        W19908  29.109   1.809  11.040
47616W        W19909  10.774  39.897  13.321
47617W        W19910  15.707  28.079   1.280
47618W        W19911  41.414   2.831  12.075
47619W        W19912  31.948   5.761  14.805
47620W        W19913  42.927  27.495   0.849
47621W        W19914  15.775  13.280   0.842
47622W        W19915  17.749  22.523   3.376
47623W        W19916  44.367   7.844   4.633
47624W        W19917  25.192  14.756  14.326
47625W        W19918  39.974  39.005   4.722
47626W        W19919  19.175  12.791  14.848
47627W        W19920  26.679  12.278   2.187
47628W        W19921  37.995  27.629   4.743
47629W        W19922   5.433  23.103  10.930
47630W        W19923   2.357  14.130   4.160
47631W        W19924  13.165  20.628  12.994
47632W        W19925   3.382  25.168   3.744
47633W        W19926  18.187   0.791   2.276
47634W        W19927  39.952  30.149  10.445
47635W        W19928  26.059  35.501  11.967
47636W        W19929  40.827  28.182  14.450
47637W        W19930  21.078  35.090   5.217
47638W        W19931  31.916  42.781   2.273
47639W        W19932  26.033  37.491  10.543
47640W        W19933  18.690  23.632  10.459
47641W        W19934  26.458  33.493   0.457
47642W        W19935  12.662  19.707  14.300
47643W        W19936   5.739   7.870   2.732
47644W        W19937  15.820  24.102  13.913
47645W        W19938  33.445   5.875   2.761
47646W        W19939  30.092  41.487  11.059
47647W        W19940   6.393  22.148  12.492
47648W        W19941  39.928  37.527   3.868
47649W        W19942   1.310  42.883   3.283
47650W        W19943  37.510  25.573   2.326
47651W        W19944  21.160  29.565   3.749
47652W        W19945  41.940  17.709   1.291
47653W        W19946  12.228  23.733   4.320
47654W        W19947  20.118  13.674  14.887
47655W        W19948  23.029  30.459  14.323
47656W        W19949  30.080  37.007   3.785
47657W        W19950  42.451  43.363  14.418
47658W        W19951  13.769  38.484  11.373
47659W        W19952   8.812   9.724  14.980
47660W        W19953  36.022  42.350   4.203
47661W        W19954  44.352  39.478  11.884
47662W        W19955  42.821  42.913  14.956
47663W        W19956  31.948  36.398  14.975
47664W        W19957   8.269  10.811   1.228
47665W        W19958  14.661   4.873   3.346
47666W        W19959  10.751  13.215  14.346
47667W        W19960   3.843  21.217   4.720
47668W        W19961   1.975  44.849   0.732
47669W        W19962  17.286  30.153  13.950
47670W        W19963   9.272   7.324   2.206
47671W        W19964  17.594  24.616  12.037
47672W        W19965   8.708  36.358  12.083
47673W        W19966  33.481   9.274  13.855
47674W        W19967   9.190  35.421   0.871
47675W        W19968   1.909  22.691   4.339
47676W        W19969  29.003  33.067   1.385
47677W        W19970  17.703  12.666  13.828
47678W        W19971  21.609  42.973   3.728
47679W        W19972  11.862   5.890  13.930
47680W        W19973  27.962  23.547   9.455
47681W        W19974  36.923  40.453  10.991
47682W        W19975  39.944  18.098   0.252
47683W        W19976  29.469   5.800  12.097
47684W        W19977  16.163  24.603  11.072
47685W        W19978  28.519  34.057   0.869
47686W        W19979   3.870   4.250  13.818
47687W        W19980  39.555  34.594  12.923
47688W        W19981   6.787  40.384  11.425
47689W        W19982  38.336  24.530   3.250
47690W        W19983  34.439  11.822  11.033
47691W        W19984  44.774  38.463  14.766
47692W        W19985  28.461  41.537  11.452
47693W        W19986   6.399  44.888   3.242
47694W        W19987  28.473  30.084   3.359
47695W        W19988  34.450   6.825   0.935
47696W        W19989  24.517  26.039   3.205
47697W        W19990  30.922  25.497  13.341
47698W        W19991  21.546  35.548   1.215
47699W        W19992   7.278   1.838   2.410
47700W        W19993   2.949  27.086   1.291
47701W        W19994  29.665  13.834   0.335
47702W        W19995  41.971  11.265  14.926
47703W        W19996  36.439  34.529  13.873
47704W        W19997  41.334  34.429   4.211
47705W        W19998   5.744   3.862   0.952
47706W        W19999   8.171  21.219   1.861
47707W        W20000   7.819   8.713   9.940
47708W        W20001  38.002  10.280   2.870
47709W        W20002   0.462  32.116  10.917
47710W        W20003   0.943  12.203  10.442
47711W        W20004  24.155   3.886  13.368
47712W        W20005  23.026   9.231   2.769
47713W        W20006  23.729  31.401  11.017
47714W        W20007  34.963  12.664  10.156
47715W        W20008  43.943  36.848  11.081
47716W        W20009  42.777   2.729  11.439
47717W        W20010  22.018  41.795   2.380
47718W        W20011  33.928  12.681  14.813
47719W        W20012  37.564  43.882  13.531
47720W        W20013  38.570  18.582  13.880
47721W        W20014  14.151   3.331   1.874
47722W        W20015  33.479  14.614  11.120
47723W        W20016  38.876  23.109  12.068
47724W        W20017  29.958  40.840  12.888
47725W        W20018  17.660  32.989  14.884
47726W        W20019  14.194  29.034  13.866
47727W        W20020   0.293  28.992   1.895
47728W        W20021  14.627   9.802   0.858
47729W        W20022  34.066  22.671  13.822
47730W        W20023  15.720  19.188  10.416
47731W        W20024  19.560  37.529  11.861
47732W        W20025   3.765  32.115   2.863
47733W        W20026  32.547  37.397   2.405
47734W        W20027  15.811  31.074  11.501
47735W        W20028  36.502  10.664   2.664
47736W        W20029  43.769   4.234  13.890
47737W        W20030   5.321  38.013   4.712
47738W        W20031  28.975  23.098  13.027
47739W        W20032   4.295   5.400   3.667
47740W        W20033   2.890  18.661   0.446
47741W        W20034  26.580  11.865   1.888
47742W        W20035  40.473  13.161  11.395
47743W        W20036  17.655  26.603  11.554
47744W        W20037  39.055  37.835   1.736
47745W        W20038   7.833  33.119   2.745
47746W        W20039  26.080   8.232   1.424
47747W        W20040   5.808   4.790   4.316
47748W        W20041   1.814  12.187   0.242
47749W        W20042  42.287  31.084   4.260
47750W        W20043  32.447  33.443  14.887
47751W        W20044  42.398  15.722  14.864
47752W        W20045   6.892  28.595   1.831
47753W        W20046   1.325  28.066  10.614
47754W        W20047  37.087  17.744  14.275
47755W        W20048  20.683   2.314   0.946
47756W        W20049  26.687   2.745   1.294
47757W        W20050  44.954  18.675   0.308
47758W        W20051  21.022  29.057   3.792
47759W        W20052  28.124  11.703  13.945
47760W        W20053   7.344   4.851   1.699
47761W        W20054  16.634   8.809   4.632
47762W        W20055  33.997  22.168   1.228
47763W        W20056  24.721  24.669  10.617
47764W        W20057  23.531  24.160  14.477
47765W        W20058  43.913   7.187  13.846
47766W        W20059  33.035  24.202  14.843
47767W        W20060  41.854  19.645  10.626
47768W        W20061  38.045  25.998  11.904
47769W        W20062  13.655  20.224  11.057
47770W        W20063   1.753  42.875   3.284
47771W        W20064  20.109  34.053  11.499
47772W        W20065   9.775  44.407   1.235
47773W        W20066  40.007  30.577   0.403
47774W        W20067   2.811  30.657  12.828
47775W        W20068   6.216   0.902   4.177
47776W        W20069  34.040  23.630   2.339
47777W        W20070   5.749  19.623  11.523
47778W        W20071  27.626  31.072  12.401
47779W        W20072  22.540  39.996   2.812
47780W        W20073  39.064  19.748  11.907
47781W        W20074  13.660  15.649   2.895
47782W        W20075  27.635  42.508   4.717
47783W        W20076  14.739   7.818  10.420
47784W        W20077  29.632  38.902  10.136
47785W        W20078  22.999  32.987   0.319
47786W        W20079   3.775  35.945   0.440
47787W        W20080  17.128  12.768  14.774
47788W        W20081  34.542  43.469   2.359
47789W        W20082  26.693  18.098   0.481
47790W        W20083  39.450  35.600  12.494
47791W        W20084  22.694  15.150  14.472
47792W        W20085  19.579  33.390  10.605
47793W        W20086  13.126  33.530  14.462
47794W        W20087  33.392  44.836  14.824
47795W        W20088  42.449  23.031   2.369
47796W        W20089  34.107  41.791  11.398
47797W        W20090  34.878  11.748  12.998
47798W        W20091  17.273  17.140  10.938
47799W        W20092  27.454  39.378  13.491
47800W        W20093  37.936  29.555   0.822
47801W        W20094   5.417  12.785   3.721
47802W        W20095   9.730  31.048  10.639
47803W        W20096  40.018  34.534  13.474
47804W        W20097  38.070   0.303   4.787
47805W        W20098   4.445  38.952  11.510
47806W        W20099  36.862   7.677   2.724
47807W        W20100   7.733   6.822  11.027
47808W        W20101   9.246  15.234   3.785
47809W        W20102  26.565  24.014  11.088
47810W        W20103  30.139  18.720  14.367
47811W        W20104   6.308  15.774   4.682
47812W        W20105   4.813  42.511  14.385
47813W        W20106  22.037  26.192  11.104
47814W        W20107  18.072  22.592  12.434
47815W        W20108  22.230   0.345   1.795
47816W        W20109   4.441  10.359  14.464
47817W        W20110   7.899  24.686  11.003
47818W        W20111  32.585   5.885  11.529
47819W        W20112  17.712  34.110   2.328
47820W        W20113  37.358  26.177  10.458
47821W        W20114  43.809   1.334   2.386
47822W        W20115  12.713   1.855  11.495
47823W        W20116   1.906  40.496  11.439
47824W        W20117   4.286  25.619  13.425
47825W        W20118  36.949   9.231   2.811
47826W        W20119  39.377   8.777  14.352
47827W        W20120   8.774  38.493  10.115
47828W        W20121  27.052  43.979   3.359
47829W        W20122  43.319  17.145   4.717
47830W        W20123   4.236  31.487  11.429
47831W        W20124  28.955  14.811  12.841
47832W        W20125  43.795  32.533  10.597
47833W        W20126   5.822  20.717   4.319
47834W        W20127  27.027  25.066  10.455
47835W        W20128  36.500  35.903   4.323
47836W        W20129  21.065   1.811   4.723
47837W        W20130  27.667  43.309   0.455
47838W        W20131  41.309  22.030  14.828
47839W        W20132  31.536  14.227   0.929
47840W        W20133  16.263  22.159  11.515
47841W        W20134  17.674  42.503   1.327
47842W        W20135  15.140  19.184  12.392
47843W        W20136  13.301  28.642   3.632
47844W        W20137   6.815  22.564   3.664
47845W        W20138  32.537   9.273   4.772
47846W        W20139  31.530   2.901   2.734
47847W        W20140  26.186  38.947  13.917
47848W        W20141  11.773   1.752   2.699
47849W        W20142  24.060  18.234   0.846
47850W        W20143  30.601  36.972  13.005
47851W        W20144  39.553  27.971  14.978
47852W        W20145  12.764   9.261  13.402
47853W        W20146  39.930   4.340  14.906
47854W        W20147  33.609  20.205   3.292
47855W        W20148  33.519  18.227  11.880
47856W        W20149  19.746   8.686  13.799
47857W        W20150   9.362   0.819  13.894
47858W        W20151  31.553  34.934   3.269
47859W        W20152  41.001  40.945  12.565
47860W        W20153   2.802   0.343  11.969
47861W        W20154  35.438  34.605  12.981
47862W        W20155  26.550  30.111  12.993
47863W        W20156  31.533  10.244  12.839
47864W        W20157  23.532  11.837  10.478
47865W        W20158  35.380  23.114  13.993
47866W        W20159   3.909  22.025  11.585
47867W        W20160  11.841  26.990   4.217
47868W        W20161  21.522  18.263   0.911
47869W        W20162  19.678  21.740  10.455
47870W        W20163   6.278  12.286  10.613
47871W        W20164   0.962  24.537  11.500
47872W        W20165  31.625   7.906  12.050
47873W        W20166  23.082  19.189  14.418
47874W        W20167  35.989  11.299  11.119
47875W        W20168   8.354   1.762   4.792
47876W        W20169  28.031  36.407  13.856
47877W        W20170   7.416  19.215  11.065
47878W        W20171  31.007  24.100   2.308
47879W        W20172  25.171  29.012  10.423
47880W        W20173  24.058  39.833   4.283
47881W        W20174  16.090  32.966  12.527
47882W        W20175  25.994  19.185   1.404
47883W        W20176  18.271  29.168  10.527
47884W        W20177  31.505  24.667  12.381
47885W        W20178  25.590  44.432   0.735
47886W        W20179   0.776  40.886   2.247
47887W        W20180  11.715  33.965   0.257
47888W        W20181  36.008   3.801   2.719
47889W        W20182  28.038   0.396  13.447
47890W        W20183  14.289  30.056   0.792
47891W        W20184  22.635  12.621   3.789
47892W        W20185  22.136  17.097  12.565
47893W        W20186  38.895  20.661  11.987
47894W        W20187   9.264  33.037   2.274
47895W        W20188  41.465   9.179   3.777
47896W        W20189  30.659   5.740   0.289
47897W        W20190  41.514  29.948   4.804
47898W        W20191  11.713  15.298  13.330
47899W        W20192   9.737  22.612  12.042
47900W        W20193  21.652  18.709  11.528
47901W        W20194  30.479  42.829   0.448
47902W        W20195  22.083  36.572   2.277
47903W        W20196  34.413  26.009   0.380
47904W        W20197   9.329  36.436  12.830
47905W        W20198  40.865   8.654   1.387
47906W        W20199  17.727  15.582   3.375
47907W        W20200   4.775   9.644   3.364
47908W        W20201  19.249   4.398   3.273
47909W        W20202   5.758   4.363   0.757
47910W        W20203  41.442  21.685  10.637
47911W        W20204   7.331  18.194   1.767
47912W        W20205   2.365  29.614   4.235
47913W        W20206  17.104   1.482  14.815
47914W        W20207  23.590   9.380  11.874
47915W        W20208  24.596   1.399  12.945
47916W        W20209  23.728  22.102   4.334
47917W        W20210  15.674  18.186   9.974
47918W        W20211  42.473  26.132   4.199
47919W        W20212  28.136  15.234   2.899
47920W        W20213  41.402  24.485  11.549
47921W        W20214  33.013  41.955   3.749
47922W        W20215  20.214   3.749  13.335
47923W        W20216  19.625   1.799   3.354
47924W        W20217   7.184  36.516  12.009
47925W        W20218  25.508  38.457  12.370
47926W        W20219  21.181   3.410  11.924
47927W        W20220  41.354  37.988   0.967
47928W        W20221  43.441  19.225   3.374
47929W        W20222  15.667   2.404   1.911
47930W        W20223  10.729  24.588   0.298
47931W        W20224   4.699  26.187   4.727
47932W        W20225  29.536   8.272   1.794
47933W        W20226   3.258  19.778   3.656
47934W        W20227  35.484   7.753   0.470
47935W        W20228  10.238  37.534  13.011
47936W        W20229  41.931  27.156   1.903
47937W        W20230  30.951  35.574  12.077
47938W        W20231   0.485  34.408   9.660
47939W        W20232  14.245   5.328   4.184
47940W        W20233   6.737   0.829   3.800
47941W        W20234  20.085  24.095  12.049
47942W        W20235  12.696  43.467  13.430
47943W        W20236   9.251  23.074  13.542
47944W        W20237  10.752  19.679  10.467
47945W        W20238  37.355  30.458  11.977
47946W        W20239  26.686  21.178   0.865
47947W        W20240  19.768  36.040  10.480
47948W        W20241   8.234  18.611   2.857
47949W        W20242  28.016  12.257   3.378
47950W        W20243  11.668  10.855   1.237
47951W        W20244  11.838  37.980   4.653
47952W        W20245   9.286  39.388  12.045
47953W        W20246  23.146  28.019  12.944
47954W        W20247  19.618   3.930  12.544
47955W        W20248  42.395  32.608  11.460
47956W        W20249  17.668  22.023  13.013
47957W        W20250  24.084  38.931  13.328
47958W        W20251  19.275  44.483   0.346
47959W        W20252  27.065  25.179  12.857
47960W        W20253  12.833  34.581   4.755
47961W        W20254  17.079  14.168   0.327
47962W        W20255  25.983  22.638   2.766
47963W        W20256   2.733  23.000  13.836
47964W        W20257  41.942  27.613   0.826
47965W        W20258  28.521  21.186  12.541
47966W        W20259  13.638   9.851  13.523
47967W        W20260  34.070   2.243   2.882
47968W        W20261  22.206  31.588  11.497
47969W        W20262  30.578  17.199   0.936
47970W        W20263  41.370  41.323   4.838
47971W        W20264   2.296  12.292  11.536
47972W        W20265   1.920   5.386  10.445
47973W        W20266  42.523  22.066   0.861
47974W        W20267  16.207  19.597  14.281
47975W        W20268  12.632  42.825   1.855
47976W        W20269  14.680  43.845  13.017
47977W        W20270  40.487  43.503  11.447
47978W        W20271  37.891  41.994   3.160
47979W        W20272  30.135  27.169   2.834
47980W        W20273  30.920  26.614   3.757
47981W        W20274  40.843   4.267  13.541
47982W        W20275   5.240   1.343  13.367
47983W        W20276   4.901   2.759   3.762
47984W        W20277  20.223  11.244   2.882
47985W        W20278  40.924   2.809   3.279
47986W        W20279  29.481  24.517  11.483
47987W        W20280  18.056  20.671   5.185
47988W        W20281  22.165   0.902   0.855
47989W        W20282  28.059  33.545  10.919
47990W        W20283   9.338  44.796   0.894
47991W        W20284  37.897  18.610  14.879
47992W        W20285   0.773   4.287  14.283
47993W        W20286  16.115  24.179   4.272
47994W        W20287   9.807  26.690   1.422
47995W        W20288   7.198  10.708  13.315
47996W        W20289  33.976  24.213   4.605
47997W        W20290  10.266  33.081   3.327
47998W        W20291  15.245  14.632   2.820
47999W        W20292  30.079  26.093   4.119
48000W        W20293  40.876  39.498   3.297
48001W        W20294  43.942  43.015   2.357
48002W        W20295  44.875  21.585   3.822
48003W        W20296  16.607  21.522   1.816
48004W        W20297  37.037  35.932   2.757
48005W        W20298   9.253  10.781  11.608
48006W        W20299  26.472  23.139   2.806
48007W        W20300  44.348  28.498  10.592
48008W        W20301   3.277  29.156   4.351
48009W        W20302   4.792   7.763  12.407
48010W        W20303  44.972   5.841  11.063
48011W        W20304  15.263  28.442  11.002
48012W        W20305  10.355   4.899   2.401
48013W        W20306  40.961  27.124  14.912
48014W        W20307   0.988  30.486  13.054
48015W        W20308  42.785  43.766   5.215
48016W        W20309  29.969  31.091  14.448
48017W        W20310  20.763  41.030  10.565
48018W        W20311   8.871  12.736   0.271
48019W        W20312  17.188  17.194   2.202
48020W        W20313   3.419  23.720  10.913
48021W        W20314  12.157   3.783  11.400
48022W        W20315  11.180  25.512  13.509
48023W        W20316  44.774  23.656   5.176
48024W        W20317   4.781  34.419   0.776
48025W        W20318  40.431   9.243  14.278
48026W        W20319   7.839  30.045   2.890
48027W        W20320  19.549  33.980  11.954
48028W        W20321  33.029  13.274   2.180
48029W        W20322  33.502  12.160  12.556
48030W        W20323  28.939  43.834   1.868
48031W        W20324  28.674  19.643  11.537
48032W        W20325  29.474   9.856  11.870
48033W        W20326  44.376  18.140  10.080
48034W        W20327  24.037  43.003   3.156
48035W        W20328  18.184  25.526   0.862
48036W        W20329  12.647  13.324   2.694
48037W        W20330  22.084  32.420  12.020
48038W        W20331  37.532  26.593  12.942
48039W        W20332   3.383  42.964   4.642
48040W        W20333  12.323  19.631   4.198
48041W        W20334  38.405  33.127   2.245
48042W        W20335  32.499  10.810  14.884
48043W        W20336  33.575  24.981   0.745
48044W        W20337  15.713   1.867  12.073
48045W        W20338  40.946   0.780   3.249
48046W        W20339  43.368   1.473   1.403
48047W        W20340  36.016  13.125  14.348
48048W        W20341  10.751  39.470   2.414
48049W        W20342  41.532  18.585   3.759
48050W        W20343  42.454  43.460   5.211
48051W        W20344   1.467  25.123   4.335
48052W        W20345  38.569  26.534  13.872
48053W        W20346   3.752  20.264   1.276
48054W        W20347  41.848  14.603   1.747
48055W        W20348  18.785  22.143  13.993
48056W        W20349  18.104   5.199   0.472
48057W        W20350  10.633  42.862   2.768
48058W        W20351  13.636  12.682  11.608
48059W        W20352  18.069  11.780  14.488
48060W        W20353  28.011  14.249  12.379
48061W        W20354  36.525  31.124  11.958
48062W        W20355  37.490   2.287  13.309
48063W        W20356  32.444   6.247  13.807
48064W        W20357  39.398  39.853  14.959
48065W        W20358  24.014  10.297   9.941
48066W        W20359  39.336  27.049   0.264
48067W        W20360  16.737  12.697   1.434
48068W        W20361  29.143  25.099   3.841
48069W        W20362   2.741  26.167   4.826
48070W        W20363  18.772  35.893  13.473
48071W        W20364  30.105  24.982   0.842
48072W        W20365  12.304   9.182  11.081
48073W        W20366  20.648  31.440   0.268
48074W        W20367  13.706  36.919   4.636
48075W        W20368  39.432   2.894  12.454
48076W        W20369  18.620  43.819   1.763
48077W        W20370   3.909  32.469  14.462
48078W        W20371  10.635  25.195   0.831
48079W        W20372   4.258  10.720  10.910
48080W        W20373  42.856  39.453   1.774
48081W        W20374  10.220  25.197   4.135
48082W        W20375  12.739  29.642   2.337
48083W        W20376  33.105  38.881   2.280
48084W        W20377  40.920  32.615   1.721
48085W        W20378  29.559  44.888   1.751
48086W        W20379  43.376  28.578   4.141
48087W        W20380  42.520  43.950   0.354
48088W        W20381  28.048  24.035  13.896
48089W        W20382  36.525  36.348   0.790
48090W        W20383   3.441  35.451  10.971
48091W        W20384   2.330  12.337   1.762
48092W        W20385   3.389  38.430  14.792
48093W        W20386   6.858  31.536  12.422
48094W        W20387  15.688  29.926  11.889
48095W        W20388  13.607  43.916  12.413
48096W        W20389   7.687  31.494  12.875
48097W        W20390  43.485   9.182   3.652
48098W        W20391  21.565  37.512   0.937
48099W        W20392  42.363  36.392   1.398
48100W        W20393   7.228  12.854  13.026
48101W        W20394   3.391  41.462  14.017
48102W        W20395  30.450   5.914  14.460
48103W        W20396  27.521  11.759   0.758
48104W        W20397  17.616  34.476   3.655
48105W        W20398  43.980  35.881   1.358
48106W        W20399  26.560   4.943  10.505
48107W        W20400  32.976  28.676   3.146
48108W        W20401  37.405  11.194  11.457
48109W        W20402  19.166  15.617   3.752
48110W        W20403  32.437  34.560  13.805
48111W        W20404  28.611  24.134  10.961
48112W        W20405  23.201  24.139   2.406
48113W        W20406   8.316  38.392  11.600
48114W        W20407   0.987  24.226   0.434
48115W        W20408   6.830  14.330   2.820
48116W        W20409  36.880  42.988  12.870
48117W        W20410  38.957   9.318  14.495
48118W        W20411  26.995  11.709  14.824
48119W        W20412  11.190  26.962   0.475
48120W        W20413  38.045  41.452   4.815
48121W        W20414  11.316  13.755   0.848
48122W        W20415  27.041   3.454   4.660
48123W        W20416  42.434   5.293   2.668
48124W        W20417  40.361  11.296   2.284
48125W        W20418  36.582  40.433  12.894
48126W        W20419  17.592  14.186  14.285
48127W        W20420  15.779   4.918   0.352
48128W        W20421  41.825  11.323   1.826
48129W        W20422   3.808  30.942  12.504
48130W        W20423  12.682  39.326   3.238
48131W        W20424  15.668  15.207   2.755
48132W        W20425   7.725  10.301  11.586
48133W        W20426  31.077   5.708  10.470
48134W        W20427  17.155  28.111  10.566
48135W        W20428   6.805  38.003   2.872
48136W        W20429   2.875  30.029  12.567
48137W        W20430  41.506  34.923   1.901
48138W        W20431  32.396  27.091  10.915
48139W        W20432  42.384   4.836   0.729
48140W        W20433   8.722  41.959  14.337
48141W        W20434  31.504  27.488  10.440
48142W        W20435  24.693  33.413  14.856
48143W        W20436  39.545  39.339   0.728
48144W        W20437  12.824  23.071  13.488
48145W        W20438  11.658  27.088   2.805
48146W        W20439  27.032  32.950   1.892
48147W        W20440  19.075   1.416   1.212
48148W        W20441  34.981   6.262  12.060
48149W        W20442  33.428  32.530  13.517
48150W        W20443  34.452   7.795   1.264
48151W        W20444  13.802  13.259   4.644
48152W        W20445  27.948  39.993   0.824
48153W        W20446  34.889  16.287  12.042
48154W        W20447  17.230  33.959  10.536
48155W        W20448  39.913  10.730  12.082
48156W        W20449  17.774  19.179  12.872
48157W        W20450  11.131  25.486   4.181
48158W        W20451  41.928   8.791   2.696
48159W        W20452   5.361  10.815   1.268
48160W        W20453   0.330  11.855   4.327
48161W        W20454  28.994  24.487   3.794
48162W        W20455  39.922  20.640   3.238
48163W        W20456   0.337  35.021  12.984
48164W        W20457  25.634   4.821   3.813
48165W        W20458  25.683  15.686  10.409
48166W        W20459  43.395  41.301   0.825
48167W        W20460  30.113  39.392  11.395
48168W        W20461  29.117  31.622   3.669
48169W        W20462  16.102  10.377   4.799
48170W        W20463  25.034   3.380   2.715
48171W        W20464  35.570   6.361  13.937
48172W        W20465  18.750  13.672  13.436
48173W        W20466  44.851  35.407   5.739
48174W        W20467  33.579  44.768   2.300
48175W        W20468  14.240  24.706  14.844
48176W        W20469  20.217  30.497  11.460
48177W        W20470  19.605  35.865   2.898
48178W        W20471  42.831  10.291  14.508
48179W        W20472  32.604  25.587  12.367
48180W        W20473   7.315  38.037  10.637
48181W        W20474  32.463   5.311  12.891
48182W        W20475  35.471  21.746   2.877
48183W        W20476  29.098   5.812  12.853
48184W        W20477  11.699  22.020  12.504
48185W        W20478  33.105  30.414  11.527
48186W        W20479  40.884   9.762  10.510
48187W        W20480  26.518   1.931  11.015
48188W        W20481   9.804  12.135   1.736
48189W        W20482  27.101  10.720  10.506
48190W        W20483  18.081  33.615   4.341
48191W        W20484   0.452  27.963  10.492
48192W        W20485  34.925   4.407   0.477
48193W        W20486  12.795  35.989   2.708
48194W        W20487   6.417  34.078  12.934
48195W        W20488  36.592  44.462   3.855
48196W        W20489  13.785  29.638   2.838
48197W        W20490  39.821  37.440   1.367
48198W        W20491  13.204   3.800   4.339
48199W        W20492  31.629  44.899  13.309
48200W        W20493  28.035  14.185  10.490
48201W        W20494  27.956   3.757  12.425
48202W        W20495  10.721  29.074  13.980
48203W        W20496   4.867   4.233  12.484
48204W        W20497  11.313  24.980  10.464
48205W        W20498  29.030  35.388  11.485
48206W        W20499  29.651  29.461   2.714
48207W        W20500  31.915   9.688   2.323
48208W        W20501  18.076  36.516   2.230
48209W        W20502  15.774   2.422   5.273
48210W        W20503   0.769  12.203   4.288
48211W        W20504  23.984  29.115  13.309
48212W        W20505  19.566  23.011   3.731
48213W        W20506  34.385  23.094  10.571
48214W        W20507  32.996  12.846   2.768
48215W        W20508  36.911  44.312   4.327
48216W        W20509  20.623  16.571  12.541
48217W        W20510   6.256  10.234  14.846
48218W        W20511   2.801  42.431   0.875
48219W        W20512  15.648  19.247   3.742
48220W        W20513  33.090  29.624  10.938
48221W        W20514   7.884  21.022  10.559
48222W        W20515  25.056  42.001   5.092
48223W        W20516   8.657  38.992  11.028
48224W        W20517  20.728  25.601  14.459
48225W        W20518   0.253  33.089  12.952
48226W        W20519  39.986  23.654  13.419
48227W        W20520  42.345  23.635  14.985
48228W        W20521  10.768  25.050  14.359
48229W        W20522  25.621  11.664   3.185
48230W        W20523  29.585  19.622   5.151
48231W        W20524  32.050   0.252   3.685
48232W        W20525  32.913  13.284   0.894
48233W        W20526  19.552   3.248  13.971
48234W        W20527  11.358  39.440  13.856
48235W        W20528  40.931   2.389  13.510
48236W        W20529  43.776  38.057   1.853
48237W        W20530   1.335  12.627   4.629
48238W        W20531  15.584  24.636  11.608
48239W        W20532  19.627   2.346  12.073
48240W        W20533   3.823   0.401  12.029
48241W        W20534  13.256   1.951   4.323
48242W        W20535  31.512  39.365   3.219
48243W        W20536  11.167  27.648  14.298
48244W        W20537  37.929  26.146  10.453
48245W        W20538   0.372  31.433  11.597
48246W        W20539  28.089   9.173   0.775
48247W        W20540  43.483  29.644   3.783
48248W        W20541  12.734  42.015   4.755
48249W        W20542  24.004   9.169   2.387
48250W        W20543   6.911  27.123  14.896
48251W        W20544  28.488   0.316  10.571
48252W        W20545  31.441  17.707   0.340
48253W        W20546  19.187  11.640   3.364
48254W        W20547  44.834  27.492  11.080
48255W        W20548  22.678  15.628   4.231
48256W        W20549   7.209  40.536  10.496
48257W        W20550  31.028  14.773  10.916
48258W        W20551   5.861   3.852  13.310
48259W        W20552  38.991   1.343  11.897
48260W        W20553  36.889  34.001  11.061
48261W        W20554  36.456   3.372   3.660
48262W        W20555  23.623  18.295  14.800
48263W        W20556   3.258  31.908  10.608
48264W        W20557  21.533   6.373   0.251
48265W        W20558  27.177  18.059   3.867
48266W        W20559  27.649   0.335  13.431
48267W        W20560   1.850  13.728  12.865
48268W        W20561  41.994  15.592   1.422
48269W        W20562  18.274  37.364   3.699
48270W        W20563  23.148   9.216  11.545
48271W        W20564  33.560  17.599  11.555
48272W        W20565   7.887  24.521   0.366
48273W        W20566  35.541   6.376   3.786
48274W        W20567  13.253   2.376  11.435
48275W        W20568  19.673  39.485   3.263
48276W        W20569  22.184  27.969  12.551
48277W        W20570  18.054  37.880   4.690
48278W        W20571  26.518  25.606   3.739
48279W        W20572  11.166  17.614  13.315
48280W        W20573  26.003   1.804  11.531
48281W        W20574  20.269  19.617  10.432
48282W        W20575  12.121  27.061   1.379
48283W        W20576   6.388  43.469  13.980
48284W        W20577   2.446  23.735  11.551
48285W        W20578  12.852  12.719  13.329
48286W        W20579  20.639  16.738   2.409
48287W        W20580  17.624  17.288  10.468
48288W        W20581  33.397  37.372  12.459
48289W        W20582  14.628  31.910  13.897
48290W        W20583  27.169   1.425   2.371
48291W        W20584   3.292   4.396  11.011
48292W        W20585  27.507   8.309  11.434
48293W        W20586  25.587  34.377   0.423
48294W        W20587  20.592  19.243  10.443
48295W        W20588  17.569  42.407   2.258
48296W        W20589  21.724  33.978   4.254
48297W        W20590  37.555  33.443   3.233
48298W        W20591  32.552   4.799  13.361
48299W        W20592  44.419  34.511   4.193
48300W        W20593  35.978  30.425   2.260
48301W        W20594  34.115  17.629  11.431
48302W        W20595  18.178  11.718   1.920
48303W        W20596  29.650   9.672  12.922
48304W        W20597   0.972   3.336   1.889
48305W        W20598  18.604   4.264  12.942
48306W        W20599  17.756  44.297  12.057
48307W        W20600  41.457   7.286   0.429
48308W        W20601  36.394  30.521  14.314
48309W        W20602  27.172   7.748   4.724
48310W        W20603  36.975  11.753  14.359
48311W        W20604  29.023  21.535   5.093
48312W        W20605  40.803  29.535  10.523
48313W        W20606  33.506  16.786  13.020
48314W        W20607  14.834  40.476  10.449
48315W        W20608   4.404  26.618   0.380
48316W        W20609  31.040  24.164   3.639
48317W        W20610  19.058   2.396  12.965
48318W        W20611  41.883  23.985   3.786
48319W        W20612   9.867  26.178  10.935
48320W        W20613   8.367  44.382   1.359
48321W        W20614   5.740  20.703  11.883
48322W        W20615  24.015  27.495  13.521
48323W        W20616  33.943  20.672  14.900
48324W        W20617  27.466   9.273  14.416
48325W        W20618   2.227  31.468   1.830
48326W        W20619  31.136  43.021   1.816
48327W        W20620   4.883   8.233  12.416
48328W        W20621  12.338   1.451   4.765
48329W        W20622  17.775  32.540  10.433
48330W        W20623  42.315   1.452   3.833
48331W        W20624   9.853  13.164  10.557
48332W        W20625  36.026  37.903   2.675
48333W        W20626  36.476  32.504  11.586
48334W        W20627  23.727  28.034  12.497
48335W        W20628  11.848  38.876  14.459
48336W        W20629  25.513  36.492  13.399
48337W        W20630  30.146  12.839  10.537
48338W        W20631   5.289  22.525   0.775
48339W        W20632  27.543   0.311   0.959
48340W        W20633  21.031  44.764  14.332
48341W        W20634  14.117   4.212  13.929
48342W        W20635   3.885   3.226   1.395
48343W        W20636  19.219  13.727  13.025
48344W        W20637   8.898   5.829   1.298
48345W        W20638  25.502   6.315   0.376
48346W        W20639  27.527  15.154   0.753
48347W        W20640   8.385  35.440   4.731
48348W        W20641  18.204   0.450   3.224
48349W        W20642  30.092  24.008  14.911
48350W        W20643  42.856  27.640   3.707
48351W        W20644  43.882   3.941   4.799
48352W        W20645  12.728  32.095   2.688
48353W        W20646   8.795   4.356   0.825
48354W        W20647  35.365  30.446   2.778
48355W        W20648  28.023  14.150   2.418
48356W        W20649   3.906   5.775   2.324
48357W        W20650  11.245  29.490   4.227
48358W        W20651  10.645   2.397  11.861
48359W        W20652   3.351  23.528  12.568
48360W        W20653  27.579  26.549   3.216
48361W        W20654   1.439   9.353  12.093
48362W        W20655  38.882   0.950  13.995
48363W        W20656  37.943  17.683  11.601
48364W        W20657   9.645   5.412   2.753
48365W        W20658  16.105  16.791  14.816
48366W        W20659  12.238  44.884  10.516
48367W        W20660   5.256  12.690   1.762
48368W        W20661   3.773   2.871   1.270
48369W        W20662  31.552  28.560  14.780
48370W        W20663  41.980  33.919  14.895
48371W        W20664  13.645   8.290  12.031
48372W        W20665  28.164   6.367   0.331
48373W        W20666  27.573  30.989  10.907
48374W        W20667   6.415  33.490   0.794
48375W        W20668  23.048  28.170   3.368
48376W        W20669  25.200  27.571  14.392
48377W        W20670  24.617   7.366  11.933
48378W        W20671  22.087  22.114  14.810
48379W        W20672  18.547  13.223   3.670
48380W        W20673   4.218  13.220   0.464
48381W        W20674  16.777  24.658   2.384
48382W        W20675  27.622  37.373  11.422
48383W        W20676  21.616  11.831  14.466
48384W        W20677  27.181  28.932  12.417
48385W        W20678   8.879  35.570  12.456
48386W        W20679   2.457  31.954   4.703
48387W        W20680  42.469  43.813   2.374
48388W        W20681  29.532  16.675   2.724
48389W        W20682  13.117  15.754   1.806
48390W        W20683  15.131   7.221   4.168
48391W        W20684  24.618   7.705   4.804
48392W        W20685  15.661   8.842  13.048
48393W        W20686  25.129  44.450   2.303
48394W        W20687  20.124  15.255   4.144
48395W        W20688  22.067   7.329   1.277
48396W        W20689  29.035   3.922  13.793
48397W        W20690  41.482  10.384  12.898
48398W        W20691  39.918  23.131   0.955
48399W        W20692  32.498   3.388  14.024
48400W        W20693  34.455  37.951   0.245
48401W        W20694   1.243  10.217  12.049
48402W        W20695  41.405  42.958   4.175
48403W        W20696  44.755  31.150  13.969
48404W        W20697  41.401  33.975  13.344
48405W        W20698   0.905  25.991   2.877
48406W        W20699  32.891   1.768  12.340
48407W        W20700  24.715   9.883  10.583
48408W        W20701  10.825  28.112  14.851
48409W        W20702   4.888  20.659   0.396
48410W        W20703  24.705  16.228   2.710
48411W        W20704   5.432  36.050   2.383
48412W        W20705  32.939  24.653  11.522
48413W        W20706  44.909   4.438  11.903
48414W        W20707   0.900   8.762   4.338
48415W        W20708  30.485  33.622   0.310
48416W        W20709  36.402   8.668  11.922
48417W        W20710  31.485  34.487  13.894
48418W        W20711  24.567   4.308   1.743
48419W        W20712  35.100   0.907  11.398
48420W        W20713  10.731   6.804   1.328
48421W        W20714   7.301  38.007   2.818
48422W        W20715  37.965   4.232   4.212
48423W        W20716  19.542   5.297   0.478
48424W        W20717  38.887  37.836  14.008
48425W        W20718  40.519  34.933   4.171
48426W        W20719  15.815  35.910   3.262
48427W        W20720  32.086  14.767   1.442
48428W        W20721  15.617  23.198  14.016
48429W        W20722  18.650   7.706   0.394
48430W        W20723  19.537  25.475  12.896
48431W        W20724  38.387  28.136   3.648
48432W        W20725   2.854  17.143  11.066
48433W        W20726   1.850   9.339   1.891
48434W        W20727  24.114  26.150   1.756
48435W        W20728  15.602   1.771  13.043
48436W        W20729   7.317  17.249  13.980
48437W        W20730  29.939  30.935  13.388
48438W        W20731  10.782  44.005   3.368
48439W        W20732  24.105  26.095   4.831
48440W        W20733  21.656  30.972  12.084
48441W        W20734  36.357   1.434   0.727
48442W        W20735  21.095  29.065  11.461
48443W        W20736   1.759  35.553  14.808
48444W        W20737  43.008  42.497  12.957
48445W        W20738   6.190  31.030   2.810
48446W        W20739  18.211  23.704   9.480
48447W        W20740   8.171   1.826   1.218
48448W        W20741  22.104   4.769  10.978
48449W        W20742   4.358  39.975  10.465
48450W        W20743  22.655   2.942   5.690
48451W        W20744  38.547  16.302  10.518
48452W        W20745  24.021  33.040  11.007
48453W        W20746  14.207  36.519   0.912
48454W        W20747  39.989  11.752   3.247
48455W        W20748  14.247   1.419   2.724
48456W        W20749  44.317  41.509  10.979
48457W        W20750  20.219  26.641   0.480
48458W        W20751  20.035  35.602  14.847
48459W        W20752  23.218  23.674  13.329
48460W        W20753  14.662  21.067  12.000
48461W        W20754  10.681   0.438   1.405
48462W        W20755   5.829  30.014   3.340
48463W        W20756  18.562  14.201   9.952
48464W        W20757  27.679  22.149  11.537
48465W        W20758  11.643  34.538   3.335
48466W        W20759   0.970  15.671   5.152
48467W        W20760  27.997  25.555  14.404
48468W        W20761  21.088  35.496  10.596
48469W        W20762  33.489   7.858  11.491
48470W        W20763  28.934  31.527   3.203
48471W        W20764  33.398  11.692  12.893
48472W        W20765  40.950  33.906  12.389
48473W        W20766  16.225  27.457   2.392
48474W        W20767  28.112   6.183   0.892
48475W        W20768  17.062   6.233   4.713
48476W        W20769   0.458  37.904  13.926
48477W        W20770  10.354  12.714  11.445
48478W        W20771  11.850  14.158   3.296
48479W        W20772  13.208  11.728  12.361
48480W        W20773  11.829  16.227   2.740
48481W        W20774  19.649  43.933  13.416
48482W        W20775  44.284  10.863  12.400
48483W        W20776  12.240   0.766   2.794
48484W        W20777  35.932  21.626   0.804
48485W        W20778  43.974  22.655  14.469
48486W        W20779   7.836  24.168  14.858
48487W        W20780   3.811  15.092   4.640
48488W        W20781  17.602  36.980   4.633
48489W        W20782  44.285  14.231  13.837
48490W        W20783   7.389  37.520  14.479
48491W        W20784   9.808   3.758  13.922
48492W        W20785   0.864  33.447   3.646
48493W        W20786  24.529  20.133   2.332
48494W        W20787  31.469  30.132   3.709
48495W        W20788   8.223  44.479  14.497
48496W        W20789  11.302   6.760  13.405
48497W        W20790  10.865   2.739  14.329
48498W        W20791  27.501  32.629  12.528
48499W        W20792  13.149  13.138   1.817
48500W        W20793  14.171  38.029   0.820
48501W        W20794   2.360   8.756   2.299
48502W        W20795  22.671  20.241   2.664
48503W        W20796  36.519  25.649   0.479
48504W        W20797  40.956   7.274  10.990
48505W        W20798   2.801  32.889   4.598
48506W        W20799  34.391  14.168   5.203
48507W        W20800   9.247  24.613   0.886
48508W        W20801   7.833  11.861   1.437
48509W        W20802  17.287  23.014   3.270
48510W        W20803   5.370  16.115  10.936
48511W        W20804  18.619  38.416   1.274
48512W        W20805  20.229  20.694   1.794
48513W        W20806  30.612  41.318  11.011
48514W        W20807  32.140  40.843   4.285
48515W        W20808   2.245  26.652  11.977
48516W        W20809   0.859  22.656   3.236
48517W        W20810  19.108  21.083  10.552
48518W        W20811  33.974  32.902  12.458
48519W        W20812   7.744   8.828   4.643
48520W        W20813   6.223  24.551  11.946
48521W        W20814  16.255  33.078   4.292
48522W        W20815  34.995  34.484  11.857
48523W        W20816  31.119  19.668   2.814
48524W        W20817  34.576  22.036  12.952
48525W        W20818  18.148  24.228  10.592
48526W        W20819   3.753   7.761  13.844
48527W        W20820  33.434   1.793   2.317
48528W        W20821  17.680  15.694   1.332
48529W        W20822  38.405   5.402   2.267
48530W        W20823  37.452  28.522  12.049
48531W        W20824  21.543   4.813  11.111
48532W        W20825  29.600   9.808   9.556
48533W        W20826   7.269  43.771  12.462
48534W        W20827  12.167  38.933   2.899
48535W        W20828  44.400  30.071   2.664
48536W        W20829  21.614  15.226  14.018
48537W        W20830  33.945  44.279  12.894
48538W        W20831  34.034   9.208  13.907
48539W        W20832  41.472   2.907   3.168
48540W        W20833   3.753  17.166  10.482
48541W        W20834  31.452  29.538   2.880
48542W        W20835   5.846  26.477  10.488
48543W        W20836   9.864  22.518  12.944
48544W        W20837  11.315  13.732   4.153
48545W        W20838  11.161  19.591   0.296
48546W        W20839  12.717  33.059   1.384
48547W        W20840  37.875  44.266   4.136
48548W        W20841  31.635  39.924   0.374
48549W        W20842  23.731  35.508   1.238
48550W        W20843  38.892   6.255  11.936
48551W        W20844  30.078   6.347  11.477
48552W        W20845  18.729  21.674  13.893
48553W        W20846   2.897  42.321   4.308
48554W        W20847   6.888  44.346  11.073
48555W        W20848   8.358  36.930  12.522
48556W        W20849  11.216  38.471  11.001
48557W        W20850  32.581  24.201   4.612
48558W        W20851  10.300  27.488   1.275
48559W        W20852  34.898  37.950   0.919
48560W        W20853   4.732  37.449   2.256
48561W        W20854   2.466  10.770  12.017
48562W        W20855  33.105  34.434   1.321
48563W        W20856  30.604   1.461  13.993
48564W        W20857  20.030  40.419  13.435
48565W        W20858  21.234   4.299  13.364
48566W        W20859  29.523  37.044   2.852
48567W        W20860  28.444  40.928  13.450
48568W        W20861  44.458  17.118   1.258
48569W        W20862  38.366  24.186   1.754
48570W        W20863  22.508  25.629   0.295
48571W        W20864  17.191  13.145  12.400
48572W        W20865  19.551  28.003   2.803
48573W        W20866  39.848  10.820   4.828
48574W        W20867  24.999   6.723  14.319
48575W        W20868  44.488  41.833   4.795
48576W        W20869   0.404  25.043   1.449
48577W        W20870  42.935  43.403  12.912
48578W        W20871  28.639  13.183  11.548
48579W        W20872  14.826  32.479  14.949
48580W        W20873   6.809   6.756  14.985
48581W        W20874  25.196   3.457   3.206
48582W        W20875  38.898  28.183  13.409
48583W        W20876  17.119  11.264  11.566
48584W        W20877  39.556  44.859  10.543
48585W        W20878  23.562  34.962   3.367
48586W        W20879  41.411  26.964   0.935
48587W        W20880  11.846  42.828   0.835
48588W        W20881   8.291  10.186  14.028
48589W        W20882  16.790  13.229  10.900
48590W        W20883  43.994  13.305  12.450
48591W        W20884   4.205  15.597  11.923
48592W        W20885  10.217   9.337  12.474
48593W        W20886   8.242  27.604   3.766
48594W        W20887   4.750  34.891   5.099
48595W        W20888   4.819  37.887   2.843
48596W        W20889  34.405  30.552   4.337
48597W        W20890  13.147   0.264   4.138
48598W        W20891  39.422  30.542   3.646
48599W        W20892  35.085  37.548  10.604
48600W        W20893  44.930  30.056   0.381
48601W        W20894  36.462  17.703   3.734
48602W        W20895  21.525  28.162  10.966
48603W        W20896  40.316  30.615   3.371
48604W        W20897  31.635  27.514   2.282
48605W        W20898  43.904  18.720  10.970
48606W        W20899  40.510  17.706  12.984
48607W        W20900   1.887   9.228   4.231
48608W        W20901  40.391   9.362   3.818
48609W        W20902  20.542  32.424   2.326
48610W        W20903  19.088  34.601   1.296
48611W        W20904  21.017  20.160  14.928
48612W        W20905   5.335  42.021  13.364
48613W        W20906  23.123  28.483   3.237
48614W        W20907  37.961   5.764  11.435
48615W        W20908   0.824  11.622   0.461
48616W        W20909   3.437  19.758  10.935
48617W        W20910  38.497  31.135  14.015
48618W        W20911   8.388  25.018   3.237
48619W        W20912  30.148   1.347  11.868
48620W        W20913  13.759   0.457   2.275
48621W        W20914  32.892   3.281  13.054
48622W        W20915  29.474  32.939   0.775
48623W        W20916  18.272  12.638   4.333
48624W        W20917  18.249  43.325  14.459
48625W        W20918   8.888  28.081  10.562
48626W        W20919   0.926  41.457   1.801
48627W        W20920  43.377  15.095   3.778
48628W        W20921   6.890  34.960  14.437
48629W        W20922  22.239   7.810  11.546
48630W        W20923   5.815  42.476  10.429
48631W        W20924   5.302  15.218  10.484
48632W        W20925  20.051  10.768  11.078
48633W        W20926   3.776  19.729   1.770
48634W        W20927  43.933  37.013  14.302
48635W        W20928  16.681   1.373  11.398
48636W        W20929  40.410   4.250  11.437
48637W        W20930  10.718  21.632  14.782
48638W        W20931   8.712  15.580   4.125
48639W        W20932   1.953  42.000   1.862
48640W        W20933   7.228  33.556  14.337
48641W        W20934  21.648  43.963  12.885
48642W        W20935  34.963  15.098  12.023
48643W        W20936   8.247  26.008  13.996
48644W        W20937  22.670  17.618  13.438
48645W        W20938   7.890  35.016   2.807
48646W        W20939  22.127  25.665   0.407
48647W        W20940  23.099  34.516   2.352
48648W        W20941   9.845  32.984   2.346
48649W        W20942  11.833  23.498   2.195
48650W        W20943   8.893  15.821   3.318
48651W        W20944  38.870  24.153   1.285
48652W        W20945   3.346  24.094   3.201
48653W        W20946  30.540  20.029  13.945
48654W        W20947  36.407   1.931  13.962
48655W        W20948   7.742  23.148  12.016
48656W        W20949  19.087  29.949  10.961
48657W        W20950  13.252  27.451  10.946
48658W        W20951  11.273  18.262   2.269
48659W        W20952  39.980  19.249  14.864
48660W        W20953  14.330  26.160   0.879
48661W        W20954  19.090  42.946  14.981
48662W        W20955  25.031  40.872   2.667
48663W        W20956  25.177  25.040  11.560
48664W        W20957  14.223   7.405  11.079
48665W        W20958   9.771  39.052   0.830
48666W        W20959   0.818  43.460  14.760
48667W        W20960  39.048  36.513   3.282
48668W        W20961  10.701  11.858   2.725
48669W        W20962  20.203  21.521   1.831
48670W        W20963  24.109  21.621   2.667
48671W        W20964  17.660  42.384  11.974
48672W        W20965   4.812  43.991  13.992
48673W        W20966  35.511  14.781  12.370
48674W        W20967  23.088  32.443   1.768
48675W        W20968  32.588  42.889  11.550
48676W        W20969  24.991   4.395   1.370
48677W        W20970  33.055  33.995   0.378
48678W        W20971   4.304  14.307  13.515
48679W        W20972  10.719  35.522  13.968
48680W        W20973  33.983   7.796  14.851
48681W        W20974  24.055  26.982   0.901
48682W        W20975  39.893   6.398   4.771
48683W        W20976   9.869  29.960   3.221
48684W        W20977  13.127   3.843   2.282
48685W        W20978  29.942  14.204  10.475
48686W        W20979  19.725  13.325   0.794
48687W        W20980  40.956  11.826  11.871
48688W        W20981  10.802   9.684  13.037
48689W        W20982  22.577  30.954  13.386
48690W        W20983  40.379  28.509   0.353
48691W        W20984  12.119  43.997   2.724
48692W        W20985   1.952   8.356   1.852
48693W        W20986   2.727   7.821   3.713
48694W        W20987   1.965  34.863   4.689
48695W        W20988  21.140  40.962   0.952
48696W        W20989  23.108  12.688   0.895
48697W        W20990  17.307  20.584  13.363
48698W        W20991   2.938   2.931  13.492
48699W        W20992  28.981  29.654   0.396
48700W        W20993  13.277   4.841  10.505
48701W        W20994  26.541  12.634  13.917
48702W        W20995   5.217  21.705  10.526
48703W        W20996   6.835  14.696  12.929
48704W        W20997  29.019   6.417  12.852
48705W        W20998  39.519  37.560   2.215
48706W        W20999  34.566  32.494  14.455
48707W        W21000  27.506  24.146  14.768
48708W        W21001  35.092  21.162   3.220
48709W        W21002  25.996  36.441   2.714
48710W        W21003  36.005  30.462  10.466
48711W        W21004  40.332   0.884  13.351
48712W        W21005   6.697  19.713   0.457
48713W        W21006  29.495  30.538  13.911
48714W        W21007  28.450  24.484  12.093
48715W        W21008  13.347  26.647   5.113
48716W        W21009   3.227  15.671  11.431
48717W        W21010  17.132  26.019   1.863
48718W        W21011  28.653  35.889   3.715
48719W        W21012  10.679  18.576  12.414
48720W        W21013   3.841  30.529  12.557
48721W        W21014  25.590  39.947   1.305
48722W        W21015  25.539  26.617   0.964
48723W        W21016   1.442   9.749  11.528
48724W        W21017  33.025  40.471  12.462
48725W        W21018  22.122  15.652  10.446
48726W        W21019   1.785  26.626  11.104
48727W        W21020   5.708  28.571  13.311
48728W        W21021  33.982  28.999   3.725
48729W        W21022   4.865  43.891  14.892
48730W        W21023   4.242  30.909   2.871
48731W        W21024  31.132   9.819   2.410
48732W        W21025  39.961  30.467   2.720
48733W        W21026   0.981  27.951   1.397
48734W        W21027  26.048   8.213  10.438
48735W        W21028  20.168  24.680  11.958
48736W        W21029  11.853  28.944   2.811
48737W        W21030  33.592  37.511  11.999
48738W        W21031  13.307  40.975  13.972
48739W        W21032  26.609   6.740   2.896
48740W        W21033  35.086   8.806  13.049
48741W        W21034  10.300   2.799  14.000
48742W        W21035  30.480  22.586  10.416
48743W        W21036  32.895  44.836  12.560
48744W        W21037   9.675  40.405  11.038
48745W        W21038  36.420  33.408  11.029
48746W        W21039  31.075  11.239   3.705
48747W        W21040  17.285  20.717  10.126
48748W        W21041  21.226  43.288  11.548
48749W        W21042   4.707  28.652  11.036
48750W        W21043  39.478  15.133  13.481
48751W        W21044   8.275  21.531  12.371
48752W        W21045   4.308  23.084  11.456
48753W        W21046  26.018  28.572  13.506
48754W        W21047  44.829  19.167   4.717
48755W        W21048   5.781  39.347   3.180
48756W        W21049   4.756  35.402   2.685
48757W        W21050  30.465  25.590   3.727
48758W        W21051  40.863  17.270  12.850
48759W        W21052  28.942   5.755  13.420
48760W        W21053  17.086  20.050   2.294
48761W        W21054  17.086  21.069  12.854
48762W        W21055   2.795  43.360  14.022
48763W        W21056  10.201  22.192   0.727
48764W        W21057  42.440  15.770   3.844
48765W        W21058  42.886   1.800  12.079
48766W        W21059   6.294  12.851   3.696
48767W        W21060   3.388  42.808  14.939
48768W        W21061  29.121  41.377   1.718
48769W        W21062  38.364  24.567  12.426
48770W        W21063  31.406   5.797   3.190
48771W        W21064  23.580  20.208   2.377
48772W        W21065   1.393  23.019   2.749
48773W        W21066   7.843  41.850   2.826
48774W        W21067  29.623  22.652  12.868
48775W        W21068  41.318  33.415   0.778
48776W        W21069  20.036  13.745  13.821
48777W        W21070  28.124  28.596   2.268
48778W        W21071  18.561   4.881  11.592
48779W        W21072  39.530   5.299   1.812
48780W        W21073  29.003  33.573   3.823
48781W        W21074  27.659  16.652  13.511
48782W        W21075   5.284  41.930  11.401
48783W        W21076   8.173  22.222   2.796
48784W        W21077  27.460  25.623   1.410
48785W        W21078   0.774  18.105   2.787
48786W        W21079  30.431  32.123   1.823
48787W        W21080   8.381   1.763  14.788
48788W        W21081   9.800   4.811  11.476
48789W        W21082  20.663  11.329  12.922
48790W        W21083  34.608   1.255   4.245
48791W        W21084   7.771  43.764  13.813
48792W        W21085  15.175  24.993  11.538
48793W        W21086  29.664  16.192   0.820
48794W        W21087  15.651  20.063   0.862
48795W        W21088  27.079  32.012  14.776
48796W        W21089  41.300  29.152   1.704
48797W        W21090  17.720  36.924   1.294
48798W        W21091  27.959  29.152  11.515
48799W        W21092  40.041   6.737  14.987
48800W        W21093  33.881  22.608   2.368
48801W        W21094  40.406   0.366  13.342
48802W        W21095  29.121  41.488  11.014
48803W        W21096   2.888   1.852  14.032
48804W        W21097  18.143  34.613   4.808
48805W        W21098   6.682  35.601   5.148
48806W        W21099  42.785  29.939   0.907
48807W        W21100   5.724  30.591   4.280
48808W        W21101  32.062  25.057  12.387
48809W        W21102   1.373   3.844  13.848
48810W        W21103  36.353   5.352  10.480
48811W        W21104  44.950  10.370   1.330
48812W        W21105  22.016  15.622   0.273
48813W        W21106  18.698  13.135   4.205
48814W        W21107  23.203   6.392   2.844
48815W        W21108  40.814  38.490   3.154
48816W        W21109  36.346  43.924  12.906
48817W        W21110  31.972  16.270  14.996
48818W        W21111  20.667  37.580   3.347
48819W        W21112  43.396  42.904  13.007
48820W        W21113  18.557  22.200  14.493
48821W        W21114  31.996  26.674   1.421
48822W        W21115   6.707  12.250  10.614
48823W        W21116  21.047  36.959  12.556
48824W        W21117  42.789  15.151  11.079
48825W        W21118  40.348   7.775  13.923
48826W        W21119  38.434  44.261  10.444
48827W        W21120  39.529  20.756  11.483
48828W        W21121  20.247  22.049   1.792
48829W        W21122  43.468  33.911  12.483
48830W        W21123  44.441  34.506  10.142
48831W        W21124  36.580  34.093  11.012
48832W        W21125  26.099   9.830   2.250
48833W        W21126  35.468  39.422  10.526
48834W        W21127   1.433  33.942   0.800
48835W        W21128  43.451  13.218  13.484
48836W        W21129  18.187   0.471   2.310
48837W        W21130  10.332  29.122   3.261
48838W        W21131  13.779  34.889  12.497
48839W        W21132  37.469  34.382  13.850
48840W        W21133   3.403   1.454  14.994
48841W        W21134  10.746   8.321   0.320
48842W        W21135  26.700   8.861  10.940
48843W        W21136  29.475  40.405   4.314
48844W        W21137  29.456   3.908   4.258
48845W        W21138  17.713   5.311   3.365
48846W        W21139   3.716  28.956   3.799
48847W        W21140  33.469   7.239   2.301
48848W        W21141  12.157   7.830  12.561
48849W        W21142   4.869  23.150   4.351
48850W        W21143   3.268  42.915  13.423
48851W        W21144   9.869  24.197  11.915
48852W        W21145  26.494  11.820  10.458
48853W        W21146  30.116  20.644   4.195
48854W        W21147  21.257  16.174  11.406
48855W        W21148  38.961   4.769  14.406
48856W        W21149   3.350  16.219   3.368
48857W        W21150  44.764  35.443   3.781
48858W        W21151  12.639   6.412  13.904
48859W        W21152  32.100   1.343  11.479
48860W        W21153  18.283  28.951   3.829
48861W        W21154   5.317  19.717   1.805
48862W        W21155   7.831  18.681   3.835
48863W        W21156  14.738  21.212   1.716
48864W        W21157  42.289  31.503   2.743
48865W        W21158  13.723   6.847  13.792
48866W        W21159  42.791  44.330   1.891
48867W        W21160  30.912  34.473  12.014
48868W        W21161  23.627  36.453  11.482
48869W        W21162  26.510  35.071   3.258
48870W        W21163  19.684  40.896   0.868
48871W        W21164  19.077  31.416  10.067
48872W        W21165  20.076  42.289   0.927
48873W        W21166  39.423  26.698  12.086
48874W        W21167  41.531  27.605   0.340
48875W        W21168  43.391   7.704  10.900
48876W        W21169  11.244  13.124   1.393
48877W        W21170  13.231   1.886   2.236
48878W        W21171  32.132  31.917   0.465
48879W        W21172  30.421  38.466  12.539
48880W        W21173   5.769  28.582  11.392
48881W        W21174  31.128  30.582   0.830
48882W        W21175   2.900  18.123  11.381
48883W        W21176  34.995  43.945   0.770
48884W        W21177  43.456  34.925   0.383
48885W        W21178  15.741  23.025   1.770
48886W        W21179   7.680  19.689   0.943
48887W        W21180   0.794   9.718   0.935
48888W        W21181  13.633  25.123   4.810
48889W        W21182  32.402  16.161  12.503
48890W        W21183  16.742  23.653  13.460
48891W        W21184   3.337  11.860   4.755
48892W        W21185  35.070  23.547   1.872
48893W        W21186   2.370  36.430   1.345
48894W        W21187   1.789  18.221  12.553
48895W        W21188  29.483  15.765   3.385
48896W        W21189  32.138  30.037  11.436
48897W        W21190  18.267  33.582   1.933
48898W        W21191  13.350  37.960  14.445
48899W        W21192   3.236  29.172  12.027
48900W        W21193  12.622  40.305   0.806
48901W        W21194  41.464  40.929  11.577
48902W        W21195   5.851  17.634   1.294
48903W        W21196   8.220  21.620   3.822
48904W        W21197  29.637  31.634   4.749
48905W        W21198  23.686  38.366   4.799
48906W        W21199  40.971   8.220   0.934
48907W        W21200  22.175  18.748   3.301
48908W        W21201  23.733  40.378   2.351
48909W        W21202  18.173  25.487  14.991
48910W        W21203  20.263  38.561  12.440
48911W        W21204  31.010   3.387   4.652
48912W        W21205  27.639  18.651   2.184
48913W        W21206  11.834  19.714  12.947
48914W        W21207  12.684  19.274   2.189
48915W        W21208  44.366  14.286  11.519
48916W        W21209  33.015  30.464   0.868
48917W        W21210  37.534   9.678   3.673
48918W        W21211   0.249  14.233  13.881
48919W        W21212   9.228  40.392  12.892
48920W        W21213  13.720  34.944   2.348
48921W        W21214  26.475   5.360   2.272
48922W        W21215  37.360  31.526   3.267
48923W        W21216  39.315  22.053   2.326
48924W        W21217  17.790   8.257  13.902
48925W        W21218  31.152   4.780  10.456
48926W        W21219  13.259  18.158   3.211
48927W        W21220   5.783  30.631   4.831
48928W        W21221  42.797  32.947  14.962
48929W        W21222  43.327  10.345   4.652
48930W        W21223  35.011   2.250  10.531
48931W        W21224  11.794  11.315  14.774
48932W        W21225   4.419  18.058   2.414
48933W        W21226  35.975  44.961   4.733
48934W        W21227  19.270  25.658  11.984
48935W        W21228  28.018  20.754   9.473
48936W        W21229  38.355  28.487  12.387
48937W        W21230  15.212  18.625  11.500
48938W        W21231  40.029  31.029  14.368
48939W        W21232  21.115  37.366  10.051
48940W        W21233   8.862  34.509   2.282
48941W        W21234  33.597  30.920   3.162
48942W        W21235  29.479  13.823  11.473
48943W        W21236   4.878  22.093  10.513
48944W        W21237  11.792   6.396  14.831
48945W        W21238  13.764  20.598   0.807
48946W        W21239   2.826  25.975  14.959
48947W        W21240  37.981   8.240   4.224
48948W        W21241   2.278  40.397   0.933
48949W        W21242   2.299  42.942   4.614
48950W        W21243  17.731  14.282  12.340
48951W        W21244  22.023  24.069   0.332
48952W        W21245  22.534  24.118  12.093
48953W        W21246   6.799  33.059  10.424
48954W        W21247   0.937  42.410   4.659
48955W        W21248  10.819  44.303  14.846
48956W        W21249  39.366  41.327  10.412
48957W        W21250  27.969   3.712  14.852
48958W        W21251  10.729  33.615  11.595
48959W        W21252  40.868  17.677  11.967
48960W        W21253  37.507  33.935  14.441
48961W        W21254  25.994  23.523  13.916
48962W        W21255  24.668  19.155  10.471
48963W        W21256   2.844  12.211  12.084
48964W        W21257  44.367  11.128   4.762
48965W        W21258  12.175  26.540  10.953
48966W        W21259   8.800  29.047   4.738
48967W        W21260   2.758  41.499   3.662
48968W        W21261  34.580   7.347   4.706
48969W        W21262  37.509  32.916   1.844
48970W        W21263  26.164   6.682   0.816
48971W        W21264   6.260  40.442  12.856
48972W        W21265   5.355  42.368  13.522
48973W        W21266   6.679   8.826  11.895
48974W        W21267  40.820   6.327   1.840
48975W        W21268  26.663   4.837   0.750
48976W        W21269   3.360  16.086   4.642
48977W        W21270  33.438  32.107  14.350
48978W        W21271   9.393   5.274   3.808
48979W        W21272  12.843   8.813   2.329
48980W        W21273   0.830  14.820   3.256
48981W        W21274   7.353  26.600   3.178
48982W        W21275  34.603   2.756   3.187
48983W        W21276  43.301  39.405  14.452
48984W        W21277  43.911  19.710  12.077
48985W        W21278  34.054  17.210  14.940
48986W        W21279  21.161  31.449   2.871
48987W        W21280  29.001  25.153  13.041
48988W        W21281  36.496   5.689   1.845
48989W        W21282  30.916  28.090   1.432
48990W        W21283  27.961  31.027   4.800
48991W        W21284  30.909  18.787   1.918
48992W        W21285  24.045  25.080   3.170
48993W        W21286  25.176  15.157  13.425
48994W        W21287  33.429  21.671  11.066
48995W        W21288   3.272  10.803  14.992
48996W        W21289   7.330  18.577   3.236
48997W        W21290  35.023  27.616   4.648
48998W        W21291  17.682  23.605  13.521
48999W        W21292   0.827  25.193  13.410
49000W        W21293  36.951  40.007   3.860
49001W        W21294  15.781  18.711  11.910
49002W        W21295  25.983  44.417   2.698
49003W        W21296  38.888  26.569  13.430
49004W        W21297   2.237  33.605   3.784
49005W        W21298  10.746   3.929  11.014
49006W        W21299   1.327  22.623   4.223
49007W        W21300   6.691  32.626  13.861
49008W        W21301   1.391   8.874  14.390
49009W        W21302  13.631   6.835   1.438
49010W        W21303  36.455   5.252   4.266
49011W        W21304   9.306  30.948   0.905
49012W        W21305  15.802  25.970   2.360
49013W        W21306  18.220  40.996  10.643
49014W        W21307  43.011  42.427   2.747
49015W        W21308  10.738  12.693   1.355
49016W        W21309  34.390  20.057   0.806
49017W        W21310  10.694   3.388   2.352
49018W        W21311  22.201  15.735   3.228
49019W        W21312  25.561  33.544   1.388
49020W        W21313  39.994  33.079   2.332
49021W        W21314  36.405   0.446   1.778
49022W        W21315  29.174  22.651   3.156
49023W        W21316  17.156  21.645  14.350
49024W        W21317  44.950  16.777  12.049
49025W        W21318  38.836  28.509   0.453
49026W        W21319  12.355   3.835  12.469
49027W        W21320   3.736  14.294   9.975
49028W        W21321   0.873  16.756  13.334
49029W        W21322  10.688  29.063  10.940
49030W        W21323   7.898  40.836   0.888
49031W        W21324  43.310  24.652  13.857
49032W        W21325  18.761  28.957  14.411
49033W        W21326  30.579   0.878   2.246
49034W        W21327  31.576  34.615  12.493
49035W        W21328   2.927  44.489   2.747
49036W        W21329  22.509  23.727  12.564
49037W        W21330  43.942  29.431   4.622
49038W        W21331   4.410  11.860   3.862
49039W        W21332  30.420   8.287   9.940
49040W        W21333   6.916  38.441   1.849
49041W        W21334  44.771  18.250   4.757
49042W        W21335  35.937  42.363   3.652
49043W        W21336  33.102  16.171   1.877
49044W        W21337  33.495  30.648   5.268
49045W        W21338  14.805   3.815  11.997
49046W        W21339  30.639  34.907   2.733
49047W        W21340  43.950   8.382  10.537
49048W        W21341  14.131  14.123   2.368
49049W        W21342  19.612   7.682  10.621
49050W        W21343   6.809  21.625   4.172
49051W        W21344  23.649  12.706   3.704
49052W        W21345   8.242  32.612   3.304
49053W        W21346  33.024  43.942   1.291
49054W        W21347  43.272  14.286   0.395
49055W        W21348  30.435  31.635   4.333
49056W        W21349   2.316  17.644  11.521
49057W        W21350  17.647  44.974  11.051
49058W        W21351  26.058  18.133   1.266
49059W        W21352  23.069  20.527  12.888
49060W        W21353   4.881  39.511   5.208
49061W        W21354  21.102  32.562  11.027
49062W        W21355  26.163  31.061  10.634
49063W        W21356   3.906  31.037   2.894
49064W        W21357   4.319  24.204  13.364
49065W        W21358   5.851   9.872  14.454
49066W        W21359  13.602  41.844   1.767
49067W        W21360  21.754  36.914   0.306
49068W        W21361  23.537   2.928  12.349
49069W        W21362  21.061   9.870   2.352
49070W        W21363  30.969   9.884  10.467
49071W        W21364  32.101   5.755   0.471
49072W        W21365  12.306  14.752  13.309
49073W        W21366  36.565   3.412   2.732
49074W        W21367  20.117  41.027   3.858
49075W        W21368   5.883  41.026   4.644
49076W        W21369  39.992  11.776  10.465
49077W        W21370  21.237  36.026   1.776
49078W        W21371  21.051  34.550   3.856
49079W        W21372  11.311  38.539   4.725
49080W        W21373  28.101  21.610   3.725
49081W        W21374  13.746  23.630  13.420
49082W        W21375  11.292  32.521  10.600
49083W        W21376  39.899  42.949  13.969
49084W        W21377   8.278  35.978   2.689
49085W        W21378  15.158  13.169   2.694
49086W        W21379   0.270  34.008   3.865
49087W        W21380  13.797  44.795   0.950
49088W        W21381  44.826   1.300   1.326
49089W        W21382  11.268  19.165  10.969
49090W        W21383  38.027  19.210  14.351
49091W        W21384  41.916  23.551   2.330
49092W        W21385  41.806  25.664  14.795
49093W        W21386  15.701  34.432   5.188
49094W        W21387  23.176  38.346  11.868
49095W        W21388  34.106  41.987   0.903
49096W        W21389  42.014  25.683   4.655
49097W        W21390  33.053  28.955  14.946
49098W        W21391  40.861  24.178   4.650
49099W        W21392   5.369  24.161   2.901
49100W        W21393  16.229  28.507   2.347
49101W        W21394  15.629  26.655  14.882
49102W        W21395  27.656  32.470   0.428
49103W        W21396  40.025  27.025   3.375
49104W        W21397  14.671  38.382   0.958
49105W        W21398  17.777   7.378  14.850
49106W        W21399  21.585  38.553  12.421
49107W        W21400  43.504  15.324   4.831
49108W        W21401   2.469  34.932   5.262
49109W        W21402  33.603   9.165  10.593
49110W        W21403  10.796  38.524   0.900
49111W        W21404  36.547  33.876  12.858
49112W        W21405   9.700  15.130  11.589
49113W        W21406  34.878   8.668   4.758
49114W        W21407   3.727  32.432  13.963
49115W        W21408  22.650  22.119  14.853
49116W        W21409  35.448  41.889   3.314
49117W        W21410  21.531   3.373  10.467
49118W        W21411   6.344  14.283   3.866
49119W        W21412  44.504  32.929  11.600
49120W        W21413   9.874  38.468  10.507
49121W        W21414  38.840  38.455  12.979
49122W        W21415  23.618  25.507   3.251
49123W        W21416  26.628  34.880   1.383
49124W        W21417   1.836   6.363   2.823
49125W        W21418  36.469  24.149   1.304
49126W        W21419  15.577   5.266   3.362
49127W        W21420  20.092  11.223  12.973
49128W        W21421  16.692  33.030  13.354
49129W        W21422  11.729  10.141   3.278
49130W        W21423  18.252  10.325   0.794
49131W        W21424   1.406  29.539   2.179
49132W        W21425  29.551   9.806  13.921
49133W        W21426  25.489  33.541  13.952
49134W        W21427   0.841  39.816   3.644
49135W        W21428  40.816  36.004  12.467
49136W        W21429  16.117  43.799  13.363
49137W        W21430  30.455  30.978   4.741
49138W        W21431  19.241  39.548  13.391
49139W        W21432  28.023  31.442   0.865
49140W        W21433  23.021  21.699  11.575
49141W        W21434  10.841  36.420   1.302
49142W        W21435  18.624  37.374  10.913
49143W        W21436  24.016   6.789  13.331
49144W        W21437  35.503   6.258  13.406
49145W        W21438  14.588  23.513  12.383
49146W        W21439  18.108   4.923   0.886
49147W        W21440   5.896  34.011   5.586
49148W        W21441  15.792  33.427   2.262
49149W        W21442  20.721   0.405   2.401
49150W        W21443  22.584  20.761   0.819
49151W        W21444  44.901   0.868   0.269
49152W        W21445  41.488  12.238  14.499
49153W        W21446  44.392   5.413   2.181
49154W        W21447   8.678  15.796  13.416
49155W        W21448  27.488  19.252   3.195
49156W        W21449   8.397  35.388   5.237
49157W        W21450  35.957   4.283  12.491
49158W        W21451   9.352  42.930   1.308
49159W        W21452  35.441  13.793  12.483
49160W        W21453  17.075  21.135   0.467
49161W        W21454  15.194   2.296   4.240
49162W        W21455  42.471   8.348  12.972
49163W        W21456   4.814   3.907   2.874
49164W        W21457  19.742  40.372  10.639
49165W        W21458   2.914  26.158   0.316
49166W        W21459  34.539  33.612  13.059
49167W        W21460  13.294  43.308   3.255
49168W        W21461  33.424  25.479   0.340
49169W        W21462  43.920  29.545  13.470
49170W        W21463  14.759  42.502   2.718
49171W        W21464  44.293  26.606  10.946
49172W        W21465   6.380  25.654   2.240
49173W        W21466  37.526  37.485  10.526
49174W        W21467  38.554  30.985  12.373
49175W        W21468  28.673  12.253  12.439
49176W        W21469  25.190   4.793   0.866
49177W        W21470   6.789  34.089   4.783
49178W        W21471   6.679  36.880  12.448
49179W        W21472  32.446  33.925   1.364
49180W        W21473  26.965  19.157  10.450
49181W        W21474   1.777   9.834  11.560
49182W        W21475   4.818  28.061   3.804
49183W        W21476   7.319  25.216  12.027
49184W        W21477  24.178  20.153   4.235
49185W        W21478   3.948  14.180  10.957
49186W        W21479  14.648   9.665  11.609
49187W        W21480  28.094   1.371   2.884
49188W        W21481  11.700  42.778   0.448
49189W        W21482   4.360   4.720  13.808
49190W        W21483  25.976  11.216   0.244
49191W        W21484  25.471   1.300  12.372
49192W        W21485   2.370  44.797  14.311
49193W        W21486  14.207  11.727  11.947
49194W        W21487  37.362  19.188   2.250
49195W        W21488  21.023  13.183  11.028
49196W        W21489  14.305  41.857   4.295
49197W        W21490  15.149  29.458  14.411
49198W        W21491  25.510  18.227   4.193
49199W        W21492  22.728   0.380  10.559
49200W        W21493   3.425  12.231   4.837
49201W        W21494  32.504  43.857  10.564
49202W        W21495  29.131  16.627   4.815
49203W        W21496   5.687  21.069   0.382
49204W        W21497  37.912  35.043   3.805
49205W        W21498  15.665  23.614   1.289
49206W        W21499  37.885  33.574  12.947
49207W        W21500  11.696  26.058   0.256
49208W        W21501  19.265  42.954   2.378
49209W        W21502  29.594  37.858  14.440
49210W        W21503   8.777  25.163   1.784
49211W        W21504  20.207  36.911   4.799
49212W        W21505  22.249   5.846  14.380
49213W        W21506  18.602  42.948  13.818
49214W        W21507  42.810  35.405  10.986
49215W        W21508  14.192  16.138   0.838
49216W        W21509   8.326   1.838  11.992
49217W        W21510  44.389  26.976  11.487
49218W        W21511  22.091   3.742   2.764
49219W        W21512  32.612  13.268   0.860
49220W        W21513   3.741  18.736  10.543
49221W        W21514  20.133  19.247  10.946
49222W        W21515  17.120   7.324  12.975
49223W        W21516  30.137  38.941   4.620
49224W        W21517  10.775  34.043   2.347
49225W        W21518  30.443  39.443   0.321
49226W        W21519   4.864  40.957  11.958
49227W        W21520  10.854  12.629  11.054
49228W        W21521  33.385  29.459   1.374
49229W        W21522  15.184  43.876   3.324
49230W        W21523   5.910   3.221  13.813
49231W        W21524  44.362  19.284   0.321
49232W        W21525  23.193  37.437  13.501
49233W        W21526  34.494  38.350   2.833
49234W        W21527  12.722  39.857  12.924
49235W        W21528  15.277  23.021  12.855
49236W        W21529  23.534   3.454  14.983
49237W        W21530  21.201  34.100  11.574
49238W        W21531  22.032  20.055   3.867
49239W        W21532  19.626  22.997  13.486
49240W        W21533  11.714   2.848  12.549
49241W        W21534  26.542  36.015   2.718
49242W        W21535  11.296  35.997   0.934
49243W        W21536   7.862  33.086  11.068
49244W        W21537  35.090  25.207  12.468
49245W        W21538   0.257  11.722  14.377
49246W        W21539  40.841  12.625  14.931
49247W        W21540  24.510  21.749   3.249
49248W        W21541   1.935  20.593  13.996
49249W        W21542  43.926  15.667  11.959
49250W        W21543  39.495  19.055  10.554
49251W        W21544  35.569  38.058   1.791
49252W        W21545  28.517  20.622  11.420
49253W        W21546   5.813   2.264   1.817
49254W        W21547  24.125   5.737   0.426
49255W        W21548  18.729  25.584  12.032
49256W        W21549  30.541   0.356  12.397
49257W        W21550  30.649   7.386   9.956
49258W        W21551  31.986  40.412   1.214
49259W        W21552  16.277  29.006   0.396
49260W        W21553  36.377  17.596   1.334
49261W        W21554  15.295  20.610  14.465
49262W        W21555   2.944  43.773   2.328
49263W        W21556  19.743  11.159  10.999
49264W        W21557   1.270   3.906   2.724
49265W        W21558  11.292  31.509   4.626
49266W        W21559  29.519  39.341   4.321
49267W        W21560  23.237  34.031  11.480
49268W        W21561  17.740  40.040  13.833
49269W        W21562  14.209  14.122   1.744
49270W        W21563   5.357  12.844  11.503
49271W        W21564   2.858   4.838  13.329
49272W        W21565   5.843  35.900   0.345
49273W        W21566   8.369  19.665   3.836
49274W        W21567  44.797  22.584  13.378
49275W        W21568   5.862  33.547   4.283
49276W        W21569  18.085  37.524  12.439
49277W        W21570  25.106   2.783  14.407
49278W        W21571  31.106  16.731   0.871
49279W        W21572   3.783  20.538   3.851
49280W        W21573   1.324  29.016  14.483
49281W        W21574  32.427   6.224   3.742
49282W        W21575   6.746  31.030   1.380
49283W        W21576  10.661  24.713  11.463
49284W        W21577  24.093   5.223   2.839
49285W        W21578  25.501  38.046   4.793
49286W        W21579  11.773  30.110  12.882
49287W        W21580  16.116  12.631   4.244
49288W        W21581  34.095  38.912  13.914
49289W        W21582  39.008  29.528  11.121
49290W        W21583  43.456   8.831  14.024
49291W        W21584   5.712  38.039  14.992
49292W        W21585  34.921  10.275   4.753
49293W        W21586  26.002  15.125  11.052
49294W        W21587  17.252  35.564   4.238
49295W        W21588   1.949   9.310  10.570
49296W        W21589  29.561   0.412  14.919
49297W        W21590  16.296  26.038   2.674
49298W        W21591  36.391  40.375  12.063
49299W        W21592  25.589  22.670   3.723
49300W        W21593  44.832  23.623   3.200
49301W        W21594  29.621  35.981  14.470
49302W        W21595   3.950  18.153   1.349
49303W        W21596  41.406  27.085   0.434
49304W        W21597  42.300  28.043   3.741
49305W        W21598  42.988  25.680   3.765
49306W        W21599   5.871  30.063  13.506
49307W        W21600  12.298  17.267  11.610
49308W        W21601   8.216  11.174   1.299
49309W        W21602  23.998  37.563   2.803
49310W        W21603  34.994  15.785  11.864
49311W        W21604  36.886   0.305   1.412
49312W        W21605   5.289  41.339  12.513
49313W        W21606  23.000  26.067  10.561
49314W        W21607  25.633  21.674  14.916
49315W        W21608  25.611   7.178   2.329
49316W        W21609   4.824   6.887   2.701
49317W        W21610  16.302   0.470  13.495
49318W        W21611  42.015  30.004  13.536
49319W        W21612   6.746   0.986   1.248
49320W        W21613  17.742  23.069   5.567
49321W        W21614   9.273  34.954  13.322
49322W        W21615  36.860  22.172  11.466
49323W        W21616  10.288  12.277  12.852
49324W        W21617  38.554  14.800  13.320
49325W        W21618  24.697  42.971  11.968
49326W        W21619  19.618  22.661  14.907
49327W        W21620  41.316   7.320  12.433
49328W        W21621  18.177  30.654  11.382
49329W        W21622   0.808   7.900  10.492
49330W        W21623  19.161  11.625   1.279
49331W        W21624   2.752   4.757  12.859
49332W        W21625  15.217  18.709   1.730
49333W        W21626  44.317  22.173   1.253
49334W        W21627  35.393  16.271  13.922
49335W        W21628  24.525  13.786  12.956
49336W        W21629  33.427  17.097   4.154
49337W        W21630  26.557  38.559  13.393
49338W        W21631   7.761  13.761   1.297
49339W        W21632  34.974  17.253   4.629
49340W        W21633  18.198   0.797   4.352
49341W        W21634  26.114  34.376   0.256
49342W        W21635  34.909   3.760  14.907
49343W        W21636   4.324  20.047   4.636
49344W        W21637  43.988   2.408  13.063
49345W        W21638  42.957   0.987   1.752
49346W        W21639  24.496  36.441  10.428
49347W        W21640  10.780  19.127  11.958
49348W        W21641  41.857   2.890   2.204
49349W        W21642   2.815  20.597   2.390
49350W        W21643  22.731  37.856   2.244
49351W        W21644  29.081   4.842   3.297
49352W        W21645  44.414   8.724  13.426
49353W        W21646   0.946  17.213  11.952
49354W        W21647  41.914  18.111   4.683
49355W        W21648  17.175  15.325   2.328
49356W        W21649  31.583  22.556   1.269
49357W        W21650  16.663  40.988   1.874
49358W        W21651  23.706  44.349   1.414
49359W        W21652  35.070  11.720   3.301
49360W        W21653  36.989  11.676  10.428
49361W        W21654   4.399  10.257   4.597
49362W        W21655  30.583  25.039  11.495
49363W        W21656   3.269   6.756  11.493
49364W        W21657   6.367   5.423  12.459
49365W        W21658  41.846  38.072  13.834
49366W        W21659   9.214  27.507   3.805
49367W        W21660  11.222  21.207   1.299
49368W        W21661   4.713  38.069   4.640
49369W        W21662  24.534  34.949  14.923
49370W        W21663  21.719  36.449   3.781
49371W        W21664  32.080  28.656  14.946
49372W        W21665  15.642   4.940   3.807
49373W        W21666   5.705  25.592   0.844
49374W        W21667  22.194  35.560  13.319
49375W        W21668  34.994  22.638   2.841
49376W        W21669  12.144  39.006  14.321
49377W        W21670  35.003  13.245   0.896
49378W        W21671  36.352  15.600  10.969
49379W        W21672  32.045  25.000   2.199
49380W        W21673  43.342  24.683   2.266
49381W        W21674  36.033  19.724  11.551
49382W        W21675  33.559  18.692   4.781
49383W        W21676  21.536  17.716   3.365
49384W        W21677  31.607   2.317  11.937
49385W        W21678  37.894   3.890   1.212
49386W        W21679  41.853  35.859  12.499
49387W        W21680  29.615  17.564  14.307
49388W        W21681  18.617  29.979   0.390
49389W        W21682  38.525  28.615  14.860
49390W        W21683  42.383  37.059  11.103
49391W        W21684  43.468  11.812  14.891
49392W        W21685  39.434  19.653   2.813
49393W        W21686   4.221   3.817   2.783
49394W        W21687   3.909  37.021   0.363
49395W        W21688  39.487   5.419   4.233
49396W        W21689  44.861  35.504   4.769
49397W        W21690  10.173  26.483  14.516
49398W        W21691  16.703   8.164   1.217
49399W        W21692  41.943   5.424   2.190
49400W        W21693  43.926   2.873   3.731
49401W        W21694  44.778  29.112  13.370
49402W        W21695  17.232   0.408   2.315
49403W        W21696  11.252   2.338   0.747
49404W        W21697  15.283   9.319   0.756
49405W        W21698  13.105  39.972   1.428
49406W        W21699  25.017  32.989  11.401
49407W        W21700  26.538  11.858  11.058
49408W        W21701  24.105  19.601   5.102
49409W        W21702   2.793  34.885   1.877
49410W        W21703  28.619  43.461  13.045
49411W        W21704  41.908  43.335  13.903
49412W        W21705  23.131   6.745   4.180
49413W        W21706   8.249   7.739   1.906
49414W        W21707  36.918  30.540  14.981
49415W        W21708   1.442  25.682  12.446
49416W        W21709  17.785  39.933   0.249
49417W        W21710   4.823  44.829   3.684
49418W        W21711  28.605  11.218  13.048
49419W        W21712  29.039  28.101   2.810
49420W        W21713  35.895  43.483  11.417
49421W        W21714   5.372  16.774   2.377
49422W        W21715  40.315   2.383   3.382
49423W        W21716  27.689   2.790   2.299
49424W        W21717  20.204  30.973   9.464
49425W        W21718  43.321  32.566   3.838
49426W        W21719  37.916  10.693  12.975
49427W        W21720   2.904  34.890  10.951
49428W        W21721   8.307  29.587   4.134
49429W        W21722  17.634  34.457  14.388
49430W        W21723  34.865  30.552   5.210
49431W        W21724  22.507  33.127   0.935
49432W        W21725   1.864  42.835   2.844
49433W        W21726   8.699  14.669  14.975
49434W        W21727   1.426   7.417  10.436
49435W        W21728   9.773  22.646  14.885
49436W        W21729  33.116  10.799  12.934
49437W        W21730  21.193  23.703  13.366
49438W        W21731  41.534  13.260   0.786
49439W        W21732   3.381   2.275  13.026
49440W        W21733  29.603  21.700   3.853
49441W        W21734  13.626  32.491   0.803
49442W        W21735  17.683  15.807   4.222
49443W        W21736  27.958  29.931  10.473
49444W        W21737  13.300  33.980   1.418
49445W        W21738  43.945  12.183   3.343
49446W        W21739  38.438   6.766  13.369
49447W        W21740  44.346  10.817   4.350
49448W        W21741  16.769  14.224  10.495
49449W        W21742  20.555  25.130   1.777
49450W        W21743  23.216   7.338   0.774
49451W        W21744  15.766   8.355  13.901
49452W        W21745  16.669  40.877   1.289
49453W        W21746  17.723  23.037   9.610
49454W        W21747  40.895  33.622   4.640
49455W        W21748   9.390   8.678   5.244
49456W        W21749  14.756  22.088   0.777
49457W        W21750  28.933   5.798   0.968
49458W        W21751  21.529  23.665  11.426
49459W        W21752  11.297  43.297   1.403
49460W        W21753   8.735   2.253   0.757
49461W        W21754  36.937  14.802  14.354
49462W        W21755  11.859   3.873  10.969
49463W        W21756  10.861   0.877  11.067
49464W        W21757  18.765  14.643  10.959
49465W        W21758   2.858   3.714   3.754
49466W        W21759   3.833   2.818  13.004
49467W        W21760  25.489   9.341  13.338
49468W        W21761  12.717  25.504  14.398
49469W        W21762  10.733  33.443  10.468
49470W        W21763   8.872  24.215  10.497
49471W        W21764  41.899  10.833   4.704
49472W        W21765  16.673   7.362   4.640
49473W        W21766   9.335  12.639   2.701
49474W        W21767  31.041  19.214  13.431
49475W        W21768  10.741  44.985   0.943
49476W        W21769  10.756  12.204  13.377
49477W        W21770  42.834  39.918   3.671
49478W        W21771  34.889  24.005   4.607
49479W        W21772   7.699  15.753   5.113
49480W        W21773  29.035   4.717   2.875
49481W        W21774  39.035  32.998   4.651
49482W        W21775   7.396  34.010   4.770
49483W        W21776  19.765  16.582  14.795
49484W        W21777  19.128  14.113  11.915
49485W        W21778  40.994  19.652  14.413
49486W        W21779  35.584   1.950   4.605
49487W        W21780  36.364   6.783  14.782
49488W        W21781   7.229  36.950   1.439
49489W        W21782  27.582  16.314   4.766
49490W        W21783   5.193  42.805  10.640
49491W        W21784  42.473  28.636   0.368
49492W        W21785  36.905  40.017  11.540
49493W        W21786  12.195  43.867  11.019
49494W        W21787  13.151  31.105  12.009
49495W        W21788  33.129  39.937   4.830
49496W        W21789  23.558  14.681  14.968
49497W        W21790  15.580  20.246  12.088
49498W        W21791   6.855  37.439  12.017
49499W        W21792  41.894  38.886  12.947
49500W        W21793  43.274  41.398   2.386
49501W        W21794  36.868  21.189   2.330
49502W        W21795  16.612   7.707   2.882
49503W        W21796  20.155  19.733  13.346
49504W        W21797  31.095  44.972  13.008
49505W        W21798  26.175  12.275   1.217
49506W        W21799  31.031   4.217   1.411
49507W        W21800  19.596   3.379  12.929
49508W        W21801  23.096  40.889   3.305
49509W        W21802  36.592  36.374  11.549
49510W        W21803  21.653  41.486   3.254
49511W        W21804  16.304  36.558  11.052
49512W        W21805  21.540   0.876   0.354
49513W        W21806   8.863  34.059   0.947
49514W        W21807  17.657  24.671   1.424
49515W        W21808  43.464  20.724  13.387
49516W        W21809  36.931  35.061   2.218
49517W        W21810  19.606  34.951  14.411
49518W        W21811  20.193   3.375   1.857
49519W        W21812  18.192  10.773  10.583
49520W        W21813   9.392  43.970  11.476
49521W        W21814  37.562  31.472   0.825
49522W        W21815   7.689  31.466  13.512
49523W        W21816  31.640  20.723  12.348
49524W        W21817  18.051  24.076  14.014
49525W        W21818  40.974  20.113   1.875
49526W        W21819   8.242   9.314   3.154
49527W        W21820   9.681  41.383  11.008
49528W        W21821  15.261  33.500  13.994
49529W        W21822   2.863  42.924  11.115
49530W        W21823  13.830  28.449  14.460
49531W        W21824  33.426  26.542  12.910
49532W        W21825  34.029  15.283  12.345
49533W        W21826  31.044  27.074   0.326
49534W        W21827   0.898   0.934   0.763
49535W        W21828  20.710   9.753  10.557
49536W        W21829   5.811  21.529  11.412
49537W        W21830  14.760  28.090   4.141
49538W        W21831  33.980  31.929  11.599
49539W        W21832  37.578   5.699  11.968
49540W        W21833   7.696  36.365  12.028
49541W        W21834   6.309   2.264   0.808
49542W        W21835  25.635   8.693  10.428
49543W        W21836  40.480  37.374   4.180
49544W        W21837  20.581  33.034  11.587
49545W        W21838  17.619  42.999  12.823
49546W        W21839   6.760   9.838   3.727
49547W        W21840  23.720  29.065  14.488
49548W        W21841  23.187  13.699  13.024
49549W        W21842  30.917  34.470  14.484
49550W        W21843   9.713  17.272  12.541
49551W        W21844   2.390   4.354  11.524
49552W        W21845  40.461  29.521   2.264
49553W        W21846  29.529  27.013   3.378
49554W        W21847  41.294  42.874   5.283
49555W        W21848  41.827  39.928  13.896
49556W        W21849  43.280  24.033   0.733
49557W        W21850   2.949  15.157  13.494
49558W        W21851  43.983  13.304  10.630
49559W        W21852  18.283  22.567   3.724
49560W        W21853  40.841  41.292  12.072
49561W        W21854  34.541   6.853   3.828
49562W        W21855  13.162  37.903   4.830
49563W        W21856   0.824   1.967  14.935
49564W        W21857  24.550  13.834   4.295
49565W        W21858   6.268   0.429  13.467
49566W        W21859  30.457  27.009   3.669
49567W        W21860  14.712  43.811  14.776
49568W        W21861  33.075  13.686  13.806
49569W        W21862   2.740   6.820   2.388
49570W        W21863  20.629   6.796  10.478
49571W        W21864  38.364  34.595  12.893
49572W        W21865   1.474   2.281   3.648
49573W        W21866  43.478  12.362   4.760
49574W        W21867  33.437  19.082   1.422
49575W        W21868  18.173   2.373   4.171
49576W        W21869  42.507  12.279   3.782
49577W        W21870   5.421  40.489   3.832
49578W        W21871   7.222  43.515   1.346
49579W        W21872  30.649  11.733  12.062
49580W        W21873  41.904  26.021   1.328
49581W        W21874  35.526  25.974  14.393
49582W        W21875   3.870  10.152  13.341
49583W        W21876  12.786  44.789   2.810
49584W        W21877  12.222   2.874  13.427
49585W        W21878   2.767  17.723   2.349
49586W        W21879  34.531  34.897  14.987
49587W        W21880  42.792   8.660   3.245
49588W        W21881   2.941  12.627   0.887
49589W        W21882  14.339  18.745  11.486
49590W        W21883  17.680   5.267  11.912
49591W        W21884  20.193  21.257  13.537
49592W        W21885  23.182  26.059  12.940
49593W        W21886  40.517  12.307  13.469
49594W        W21887  25.587   9.855  14.806
49595W        W21888  28.648   9.766  13.886
49596W        W21889   9.682  16.224   1.238
49597W        W21890  44.004  22.076   4.253
49598W        W21891  19.640   2.397   2.355
49599W        W21892   1.421  37.494   1.227
49600W        W21893  30.121  11.867   1.910
49601W        W21894  28.149  18.570   2.717
49602W        W21895   9.153   3.861  10.632
49603W        W21896  39.910  29.009   1.747
49604W        W21897  25.161  28.104   2.360
49605W        W21898   1.820   3.837  12.449
49606W        W21899  13.335  27.666   4.822
49607W        W21900  31.644  44.806   4.707
49608W        W21901   2.747  18.631  14.442
49609W        W21902  38.058  27.027   4.251
49610W        W21903   9.872  37.057   0.393
49611W        W21904  30.641  13.327  13.011
49612W        W21905  19.538  36.874   0.473
49613W        W21906  34.500  16.199   0.893
49614W        W21907  12.810  37.475  12.899
49615W        W21908  35.395  28.975   4.324
49616W        W21909  42.368  25.167   1.267
49617W        W21910  24.658  43.924   4.208
49618W        W21911  13.787  38.360   3.650
49619W        W21912  11.714  40.037  10.990
49620W        W21913   3.355   1.819   4.727
49621W        W21914  10.815   9.764  14.356
49622W        W21915   1.966  14.277   1.349
49623W        W21916  29.950  27.541  14.478
49624W        W21917   7.240  18.553  12.352
49625W        W21918  19.738  36.466   1.368
49626W        W21919   3.886   6.388   2.411
49627W        W21920  18.747   6.794  12.843
49628W        W21921  36.979  40.338   1.893
49629W        W21922  19.223  32.439   5.225
49630W        W21923   9.309  13.178  12.912
49631W        W21924  38.509  22.057  14.391
49632W        W21925   9.324  15.298   4.793
49633W        W21926  32.536  32.062   0.343
49634W        W21927  38.383  20.644   3.700
49635W        W21928  26.483  30.532  10.580
49636W        W21929  16.087  18.237   1.354
49637W        W21930  10.175   0.948   0.401
49638W        W21931   8.759  34.882   4.695
49639W        W21932  10.248  40.306  13.805
49640W        W21933   4.286  15.195  12.966
49641W        W21934  24.616  16.170  12.865
49642W        W21935  15.676  29.998   1.398
49643W        W21936  25.488  35.931  13.486
49644W        W21937  18.786  27.598  12.888
49645W        W21938  41.297   1.761   3.703
49646W        W21939   3.438   9.375  11.409
49647W        W21940   0.955  42.790   1.850
49648W        W21941  39.940  13.197   1.381
49649W        W21942  20.272  41.370  14.448
49650W        W21943  24.719  14.763  12.378
49651W        W21944  28.113  28.536   1.404
49652W        W21945   7.831  30.119   4.778
49653W        W21946  27.567  42.024  14.456
49654W        W21947   4.798  42.423   4.819
49655W        W21948  26.995  20.136   3.650
49656W        W21949  20.148   3.925  14.511
49657W        W21950  22.528  23.163   0.954
49658W        W21951  29.961  13.121   1.827
49659W        W21952   8.766  34.542   4.347
49660W        W21953   4.795   5.882  14.972
49661W        W21954  39.913  27.997   1.789
49662W        W21955   4.875   1.455  14.800
49663W        W21956  40.366  15.705  14.287
49664W        W21957  43.460  34.929   3.706
49665W        W21958  20.053  33.069   3.184
49666W        W21959  25.492   0.941   3.803
49667W        W21960  41.443  10.209   4.768
49668W        W21961  16.667  34.373  14.904
49669W        W21962  40.476   1.803   0.923
49670W        W21963  43.962  29.604  12.984
49671W        W21964  31.522  37.987   3.752
49672W        W21965  17.219  22.252   3.781
49673W        W21966  24.545  32.484  12.949
49674W        W21967  25.118  11.647  14.885
49675W        W21968  43.830  33.946  10.120
49676W        W21969   2.375  15.132  14.967
49677W        W21970  13.714   2.940   2.732
49678W        W21971  44.397  36.083   2.774
49679W        W21972  18.698  31.460   4.215
49680W        W21973  13.192   5.290   3.305
49681W        W21974  16.677   5.226   4.778
49682W        W21975  39.369  43.839   2.418
49683W        W21976  13.681  41.409  14.837
49684W        W21977  36.406  26.118   3.276
49685W        W21978  39.959  20.577  13.546
49686W        W21979  33.441  13.141  13.390
49687W        W21980  29.948  12.243   0.462
49688W        W21981  15.740  32.912   0.319
49689W        W21982  36.591  36.030  12.365
49690W        W21983  30.119  24.679   1.239
49691W        W21984   8.784  29.141  14.861
49692W        W21985  36.968  24.106  14.981
49693W        W21986   7.674   6.274  13.934
49694W        W21987  24.012  29.643   3.839
49695W        W21988   4.318  42.404   3.165
49696W        W21989  19.132  30.527   4.139
49697W        W21990   5.329  43.839   0.467
49698W        W21991  23.528  43.914  14.003
49699W        W21992  33.383  27.679   2.675
49700W        W21993  34.573  16.295   2.209
49701W        W21994   3.389   9.652   0.429
49702W        W21995  44.821  31.542  14.805
49703W        W21996  36.041  16.616  13.902
49704W        W21997   6.697  43.331   3.757
49705W        W21998  17.115  36.921  10.126
49706W        W21999   4.439  28.108  12.392
49707W        W22000   3.350  32.087  12.866
49708W        W22001  27.138  30.006   2.680
49709W        W22002  37.958  14.311  14.354
49710W        W22003   9.362  34.566  12.033
49711W        W22004  28.448  26.611  14.337
49712W        W22005  33.083   1.891   4.644
49713W        W22006  14.337  25.673  12.509
49714W        W22007   0.894  24.197   3.713
49715W        W22008  29.669  16.272  11.950
49716W        W22009  32.069  24.136  11.391
49717W        W22010   0.385   9.802   0.813
49718W        W22011   8.672   8.717  13.860
49719W        W22012  44.388  32.476  14.506
49720W        W22013  16.145  16.609  14.452
49721W        W22014   2.414  33.040   2.293
49722W        W22015  32.467   0.827  11.538
49723W        W22016  39.963  27.120   2.330
49724W        W22017  11.641   9.661   4.279
49725W        W22018   5.330  16.278  11.377
49726W        W22019  25.117  25.007   1.271
49727W        W22020  22.124  21.678   0.900
49728W        W22021  23.571  11.857  13.359
49729W        W22022  15.212  35.872   0.371
49730W        W22023   0.951  16.106   4.157
49731W        W22024  26.045  11.751  14.794
49732W        W22025  20.210  39.019  10.955
49733W        W22026   7.291  17.743  13.532
49734W        W22027  40.453  22.514  13.979
49735W        W22028  41.416  39.428  12.868
49736W        W22029  41.487   3.824  14.935
49737W        W22030  44.479  38.413  12.420
49738W        W22031   7.844  24.190   5.135
49739W        W22032  14.312  41.355   4.191
49740W        W22033  14.299  14.742   2.663
49741W        W22034  35.014  33.419  10.025
49742W        W22035   2.457  39.366   3.711
49743W        W22036  36.563  30.981   0.426
49744W        W22037  19.051   1.288  10.615
49745W        W22038  38.946  33.016  12.547
49746W        W22039  21.589  14.324  11.033
49747W        W22040  32.996  21.677  12.510
49748W        W22041  14.209  15.801  13.060
49749W        W22042   4.203  26.991   0.895
49750W        W22043  20.540  15.616   3.792
49751W        W22044  21.229   0.493  14.446
49752W        W22045   2.365   7.368   0.343
49753W        W22046  31.477   5.759   3.733
49754W        W22047  12.769  40.542   4.188
49755W        W22048  16.708  40.396  10.490
49756W        W22049  34.536  16.789   2.666
49757W        W22050  41.504  23.670  12.469
49758W        W22051  24.713  17.572   0.380
49759W        W22052  28.637  34.966   2.272
49760W        W22053  38.497  23.187   1.745
49761W        W22054  23.220  22.662   1.263
49762W        W22055  36.935  26.157   1.365
49763W        W22056   6.858   2.957  12.085
49764W        W22057  13.297  38.915   2.767
49765W        W22058  17.067  36.422  13.367
49766W        W22059  42.990  40.408   2.388
49767W        W22060  30.092  36.349  11.042
49768W        W22061  16.080  23.561  11.490
49769W        W22062  30.599  33.075   2.879
49770W        W22063  17.586  29.096  14.304
49771W        W22064  12.272  26.111  13.311
49772W        W22065  41.883  31.560  13.038
49773W        W22066  37.491  25.105  14.854
49774W        W22067  20.062  14.144   2.284
49775W        W22068  37.084  20.200  13.039
49776W        W22069  41.461  11.323  12.368
49777W        W22070  36.547  15.106  13.540
49778W        W22071  28.594  11.269  10.533
49779W        W22072  17.123  39.922  10.061
49780W        W22073  24.479   6.821   0.840
49781W        W22074   6.234  40.854  12.040
49782W        W22075  37.433  24.991   0.393
49783W        W22076   4.357  30.113   1.708
49784W        W22077  41.820  43.310  13.308
49785W        W22078  36.381  35.983   0.270
49786W        W22079  30.652  24.077  12.966
49787W        W22080   0.302  41.318  11.562
49788W        W22081  29.493   9.210   5.123
49789W        W22082  20.142  37.453   3.741
49790W        W22083   2.864  28.058  12.904
49791W        W22084  18.194   8.312  14.950
49792W        W22085  41.525  28.179   0.261
49793W        W22086  34.950   9.336   0.428
49794W        W22087  40.031  43.926   0.780
49795W        W22088  21.026  13.739   1.888
49796W        W22089  17.137  24.068   4.706
49797W        W22090  40.009  21.138   3.805
49798W        W22091  13.821  11.632  10.449
49799W        W22092  28.514  10.660  14.331
49800W        W22093  13.669  30.037   0.869
49801W        W22094   2.852  43.869  13.424
49802W        W22095  18.713  24.035  13.501
49803W        W22096  35.448  10.211  11.417
49804W        W22097  10.335   4.720   0.854
49805W        W22098  28.930  44.389  11.597
49806W        W22099  21.223   4.707  11.531
49807W        W22100  17.616  17.280   2.837
49808W        W22101   5.404  29.629   4.246
49809W        W22102  32.930   3.421   3.277
49810W        W22103   3.367   0.317  13.540
49811W        W22104  16.596  30.001  11.011
49812W        W22105  23.068  40.542   0.294
49813W        W22106   5.825  29.151   3.652
49814W        W22107  39.417  38.896  12.534
49815W        W22108  25.007  20.155   2.298
49816W        W22109  35.965  20.235   0.464
49817W        W22110  38.516  33.939  14.031
49818W        W22111   3.864  32.070  14.826
49819W        W22112  24.658  22.612  13.487
49820W        W22113  29.425  30.029   1.712
49821W        W22114   9.772  21.111   3.631
49822W        W22115  43.403  19.270  12.531
49823W        W22116  18.275  29.605   4.808
49824W        W22117   6.256  43.279   4.700
49825W        W22118  30.485   6.845   3.169
49826W        W22119   5.307  17.212   1.449
49827W        W22120  22.702  41.415  13.422
49828W        W22121  38.358  11.325   4.166
49829W        W22122   9.341   6.377   3.843
49830W        W22123  13.214  26.018   2.740
49831W        W22124  26.527  12.345  14.376
49832W        W22125  23.127   6.869  14.338
49833W        W22126  19.232  30.055   1.778
49834W        W22127  27.997   1.919  11.941
49835W        W22128  26.537  22.106   5.278
49836W        W22129  27.993  20.268  13.038
49837W        W22130  36.587  31.925   5.263
49838W        W22131  10.831  12.635  12.497
49839W        W22132   6.362  38.977  11.863
49840W        W22133   9.376  26.141  12.523
49841W        W22134  41.396   7.412  13.350
49842W        W22135  39.877  40.979  14.288
49843W        W22136  33.547  14.228   0.465
49844W        W22137   2.739   4.262   1.935
49845W        W22138  11.234  14.669   1.436
49846W        W22139  17.205   6.792  11.117
49847W        W22140  21.643  44.382  13.913
49848W        W22141  13.686  41.853   1.329
49849W        W22142  42.987  12.835   2.691
49850W        W22143  30.493  28.179   2.306
49851W        W22144   7.750   8.294   1.230
49852W        W22145   1.431  24.533   1.802
49853W        W22146   1.872  39.541  13.902
49854W        W22147  44.280  40.452   3.162
49855W        W22148  32.449  23.637  10.107
49856W        W22149  38.073  27.085   2.826
49857W        W22150  44.386  37.074   0.918
49858W        W22151  41.850  24.513   4.824
49859W        W22152  39.977  36.992  12.889
49860W        W22153   8.776  40.919  13.857
49861W        W22154  24.523  30.445  11.390
49862W        W22155  11.356   3.785  10.909
49863W        W22156  41.916  32.618  11.024
49864W        W22157  35.076  33.962  11.459
49865W        W22158   8.755  34.569  10.900
49866W        W22159  14.172  32.925  13.490
49867W        W22160   9.161  23.723  11.896
49868W        W22161  22.241  40.429  12.074
49869W        W22162  36.967   8.324  13.868
49870W        W22163   4.300  36.035  10.956
49871W        W22164  24.669  33.944  14.018
49872W        W22165  37.370   0.771  13.020
49873W        W22166  31.491  29.981  13.020
49874W        W22167  20.664  15.625  13.928
49875W        W22168  27.472  12.157   3.292
49876W        W22169  15.248  13.241  11.064
49877W        W22170  18.663  40.015   2.815
49878W        W22171   7.192   8.859   2.664
49879W        W22172  43.918  16.812   0.304
49880W        W22173  12.261  16.148  11.929
49881W        W22174   2.268  10.833   0.803
49882W        W22175  30.627  38.002  10.894
49883W        W22176  44.892  44.367   3.377
49884W        W22177  30.594   4.847  13.878
49885W        W22178  12.801  14.315  12.525
49886W        W22179  18.594   1.919   4.329
49887W        W22180  41.451  39.476  13.800
49888W        W22181  11.229  24.674  13.815
49889W        W22182  13.698   0.928   2.261
49890W        W22183  13.776   7.843  10.587
49891W        W22184  38.830  32.901   0.940
49892W        W22185  35.975  23.550  11.563
49893W        W22186  28.963  38.352  10.572
49894W        W22187  27.955  12.288  13.485
49895W        W22188  36.589  26.547   3.795
49896W        W22189  27.957   4.377  11.561
49897W        W22190   5.392  12.259  11.027
49898W        W22191  42.357  14.592   4.329
49899W        W22192   5.689   7.770   1.842
49900W        W22193  28.631  20.031   4.119
49901W        W22194  34.874  10.712   3.736
49902W        W22195   3.261   6.766   4.234
49903W        W22196  28.505  39.026   4.172
49904W        W22197   5.272  36.376   0.244
49905W        W22198  34.994   4.876  14.010
49906W        W22199   8.278   3.440   4.300
49907W        W22200  32.933  29.010   0.847
49908W        W22201  25.188   5.219   2.779
49909W        W22202  30.446  29.057   2.203
49910W        W22203  36.481  42.310   4.637
49911W        W22204  20.580  35.523  11.964
49912W        W22205  21.071  17.586   1.450
49913W        W22206   7.737   9.237  14.825
49914W        W22207  33.074   0.763  13.793
49915W        W22208  17.652  40.867   3.303
49916W        W22209  29.098  32.456   0.367
49917W        W22210  37.444  28.632  13.457
49918W        W22211   6.278   9.781  11.861
49919W        W22212  18.566   3.843  14.980
49920W        W22213  15.666  21.033  11.956
49921W        W22214   4.421  10.840  11.877
49922W        W22215  32.583  19.255   0.910
49923W        W22216  35.496  25.998  13.457
49924W        W22217   3.905  40.965   1.788
49925W        W22218  20.136  28.671  12.058
49926W        W22219   8.678   6.859   4.331
49927W        W22220  32.048  44.417  14.890
49928W        W22221  17.746  21.742   1.698
49929W        W22222  38.941  13.760  12.446
49930W        W22223  31.597   1.956   4.210
49931W        W22224  17.220  22.163  11.051
49932W        W22225  30.421  28.656   0.430
49933W        W22226  35.969  36.006   3.315
49934W        W22227  26.649  28.966   0.746
49935W        W22228  25.469  38.496   1.448
49936W        W22229  26.625  21.619   2.276
49937W        W22230  27.655  36.517   4.340
49938W        W22231   3.940  11.208  14.945
49939W        W22232  15.750   3.787   0.409
49940W        W22233  42.804   8.884  10.581
49941W        W22234   6.882  13.139  11.386
49942W        W22235   3.265  18.187  13.420
49943W        W22236  13.282   7.752   4.251
49944W        W22237  19.194  11.206  11.880
49945W        W22238  31.409  34.055  14.976
49946W        W22239  33.929  43.979  11.975
49947W        W22240  28.974   7.799  11.088
49948W        W22241  41.001  32.595   2.879
49949W        W22242  23.025   7.370   4.709
49950W        W22243   3.217  13.249  11.860
49951W        W22244  43.452  36.966  13.504
49952W        W22245  14.808  28.949  11.880
49953W        W22246  25.568  38.440   1.825
49954W        W22247  11.278  40.807   3.309
49955W        W22248  42.289  23.143  13.477
49956W        W22249  33.962  17.182   4.218
49957W        W22250  31.027  10.145   9.625
49958W        W22251  25.112   1.817  12.489
49959W        W22252  31.538   9.219   0.810
49960W        W22253  13.679  41.908  14.391
49961W        W22254  15.634  15.764   1.876
49962W        W22255  37.019  19.281  14.507
49963W        W22256  33.612  39.902   4.224
49964W        W22257   5.353  17.730   3.764
49965W        W22258  36.425  20.274  11.954
49966W        W22259  20.274   7.776  10.442
49967W        W22260   8.817  36.491   5.776
49968W        W22261  25.116   0.959   0.435
49969W        W22262  44.308  23.023  11.402
49970W        W22263   8.329  31.008  10.442
49971W        W22264   7.735   1.343   0.767
49972W        W22265  28.126  30.627  13.831
49973W        W22266   2.421  23.025  12.096
49974W        W22267  44.294  28.559   3.773
49975W        W22268   4.892  35.509   1.225
49976W        W22269  18.581  32.075   4.611
49977W        W22270  31.051  18.598  11.541
49978W        W22271  14.737   6.799   3.293
49979W        W22272  21.726  13.304  10.451
49980W        W22273  19.057  20.564   1.785
49981W        W22274  18.258  37.028   3.206
49982W        W22275  43.357  24.173  10.410
49983W        W22276  34.488  24.011   0.866
49984W        W22277  13.743  32.406  13.546
49985W        W22278  22.052  36.954  11.511
49986W        W22279  15.577  38.488  14.762
49987W        W22280  24.016   2.277   1.742
49988W        W22281  22.056   9.820  10.578
49989W        W22282  31.063  20.766  12.559
49990W        W22283  38.884  15.692   3.773
49991W        W22284  15.642  17.705   3.385
49992W        W22285  43.414  42.838   4.706
49993W        W22286   1.749  25.150  10.514
49994W        W22287  43.825  42.905   4.773
49995W        W22288  36.076   7.348   0.923
49996W        W22289  17.232   5.843  14.333
49997W        W22290   8.222  31.637   2.277
49998W        W22291  23.612  13.116  14.874
49999W        W22292   3.273  44.962  13.543
50000W        W22293  40.499  31.153  11.934
50001W        W22294   1.745  43.788   2.366
50002W        W22295  17.243  34.955   3.848
50003W        W22296  39.366   1.299  13.948
50004W        W22297   4.372  17.611  10.909
50005W        W22298  43.910  34.613   2.882
50006W        W22299  44.985   5.325   4.606
50007W        W22300  16.713  13.694  13.922
50008W        W22301   5.688   4.843  14.897
50009W        W22302  15.632  22.692  13.795
50010W        W22303  40.475  32.972   4.306
50011W        W22304  30.487   4.415  14.456
50012W        W22305  21.021   2.241  11.519
50013W        W22306  17.116  25.533   4.282
50014W        W22307  39.523  11.242   1.231
50015W        W22308   6.762   2.403  11.464
50016W        W22309  25.683  22.249   2.674
50017W        W22310  13.661  18.729   4.272
50018W        W22311  28.018  44.422  12.417
50019W        W22312  34.002  41.310   1.355
50020W        W22313  25.664  31.564  11.109
50021W        W22314  35.555   7.881  11.889
50022W        W22315  17.622   0.316   2.292
50023W        W22316   3.745  32.900   1.343
50024W        W22317  37.470  10.642   0.251
50025W        W22318   6.715  18.173   1.751
50026W        W22319  17.167   8.829   2.411
50027W        W22320   7.306  31.143  14.348
50028W        W22321  33.951   9.786   2.723
50029W        W22322  40.009  17.147   2.871
50030W        W22323  21.536  34.115   1.329
50031W        W22324  37.055  13.631   1.447
50032W        W22325  12.850  29.632   3.382
50033W        W22326  33.968  24.550  14.005
50034W        W22327  44.989  32.611   4.313
50035W        W22328  37.878  18.279   1.231
50036W        W22329   2.275  16.257  14.982
50037W        W22330  23.029  36.525   4.703
50038W        W22331  42.937  16.759   0.842
50039W        W22332  14.817  18.556  12.347
50040W        W22333  18.230  16.790  12.384
50041W        W22334  25.965  18.752   0.959
50042W        W22335  39.930  23.687   1.732
50043W        W22336  13.318  30.562  10.040
50044W        W22337  25.112  28.654  14.974
50045W        W22338   5.875  33.981   1.306
50046W        W22339  10.195  43.489  13.000
50047W        W22340  19.742  20.695  12.569
50048W        W22341  22.646   7.879  11.958
50049W        W22342  21.212   5.741  12.482
50050W        W22343   5.922  18.671   1.908
50051W        W22344   2.812  13.659  12.352
50052W        W22345   8.901  28.113   4.752
50053W        W22346  42.478  30.591   2.735
50054W        W22347  22.519  23.169  10.938
50055W        W22348  40.988  17.276   3.631
50056W        W22349  27.164  31.558   2.801
50057W        W22350  28.653  40.811  14.913
50058W        W22351   4.799  11.258  12.047
50059W        W22352  32.932   4.384   1.871
50060W        W22353  22.075  19.222   3.854
50061W        W22354  17.244  20.219   1.881
50062W        W22355   6.397  24.623  10.625
50063W        W22356  44.450  20.090  11.039
50064W        W22357   4.717  37.502   4.207
50065W        W22358   6.339  26.093  13.468
50066W        W22359  39.445  20.037   2.218
50067W        W22360  37.020  34.427  11.964
50068W        W22361   7.301  35.500  10.451
50069W        W22362  34.564  16.292   4.837
50070W        W22363  30.003  36.957  14.834
50071W        W22364  18.062  44.836   3.154
50072W        W22365  10.733   9.273   0.389
50073W        W22366  13.341   8.268  12.565
50074W        W22367  21.704  35.516   4.306
50075W        W22368  33.899  31.973  14.980
50076W        W22369   2.766  30.526  14.321
50077W        W22370   1.759  41.005  11.976
50078W        W22371  16.075  35.377   1.406
50079W        W22372   0.860   9.742  12.034
50080W        W22373  31.092  19.215  12.823
50081W        W22374  21.178   2.356   1.875
50082W        W22375  40.427  41.457   2.814
50083W        W22376  15.688  16.281  14.347
50084W        W22377  36.991  20.629  11.972
50085W        W22378  14.154   4.873  13.796
50086W        W22379  32.903   1.276   4.612
50087W        W22380  34.974  40.983  10.418
50088W        W22381  23.072   6.716   3.831
50089W        W22382   7.229   3.843  14.339
50090W        W22383   0.888  41.386  10.430
50091W        W22384  26.639  25.987   4.833
50092W        W22385  43.896  23.226  14.969
50093W        W22386   9.360  27.180  14.351
50094W        W22387  14.182  41.325  10.625
50095W        W22388  41.531  27.076  14.804
50096W        W22389  37.918  42.293   1.703
50097W        W22390  25.569  22.153  13.331
50098W        W22391  35.503  28.601  12.482
50099W        W22392  22.638   1.476   3.235
50100W        W22393  38.952   6.729   2.697
50101W        W22394  39.475  35.879   4.763
50102W        W22395  28.057  20.654   3.638
50103W        W22396  15.694  36.492  13.463
50104W        W22397   7.296   7.720   4.619
50105W        W22398   5.719   4.344   0.309
50106W        W22399   8.801  28.505  13.418
50107W        W22400  36.484  31.134   1.263
50108W        W22401  28.112  10.786  12.926
50109W        W22402  29.974  18.163  14.504
50110W        W22403  14.785  30.004  11.902
50111W        W22404   0.772   3.405   5.094
50112W        W22405  29.050   1.353   4.718
50113W        W22406  14.825   4.355   3.262
50114W        W22407  13.113  19.174  11.436
50115W        W22408  40.408  37.578   5.229
50116W        W22409  34.109  19.754   0.380
50117W        W22410  18.158   3.803  14.763
50118W        W22411   2.803  27.657  12.876
50119W        W22412   0.464  18.133   3.702
50120W        W22413  31.010  12.154  12.391
50121W        W22414  43.829  15.260   1.434
50122W        W22415   2.730   0.289  11.610
50123W        W22416  10.632  19.646   3.264
50124W        W22417  28.149   6.241  11.588
50125W        W22418   4.805  39.466   0.266
50126W        W22419  30.104  39.412   3.248
50127W        W22420   3.359   5.434  11.042
50128W        W22421  32.441  16.759  12.545
50129W        W22422   4.745   4.810   3.736
50130W        W22423  35.368   1.371  10.567
50131W        W22424  25.564  32.504   2.746
50132W        W22425  38.513  21.230   0.799
50133W        W22426   4.869  32.582  11.551
50134W        W22427  30.614  29.567   1.844
50135W        W22428   3.791  38.382  14.897
50136W        W22429  39.443  12.247   0.386
50137W        W22430  34.469  44.293   0.955
50138W        W22431   9.838   9.837  14.792
50139W        W22432  11.137   4.828   0.334
50140W        W22433  38.056  41.874  13.829
50141W        W22434  42.404  18.238   0.959
50142W        W22435  29.997   8.699  11.030
50143W        W22436  18.144  42.883   0.398
50144W        W22437  14.200  41.802  14.452
50145W        W22438  21.684  27.116   0.426
50146W        W22439  24.678  42.970  11.565
50147W        W22440  23.068  30.120   3.297
50148W        W22441  16.146  15.682   4.707
50149W        W22442  19.253   6.879  12.977
50150W        W22443   5.794   7.855   4.672
50151W        W22444  16.740  38.948  10.575
50152W        W22445   6.410  19.700   2.219
50153W        W22446  21.083  36.516  10.949
50154W        W22447  39.984  19.284  11.543
50155W        W22448   6.688  13.347   1.265
50156W        W22449  18.192  24.634   0.346
50157W        W22450  31.037  22.195   2.188
50158W        W22451  39.913   2.282   1.355
50159W        W22452   6.776  36.988   3.148
50160W        W22453   6.322   9.771  14.936
50161W        W22454  11.788   1.785   1.276
50162W        W22455  31.014  19.590   0.372
50163W        W22456  39.817  43.421  11.544
50164W        W22457  13.672  32.620   2.217
50165W        W22458  10.755  38.877   0.379
50166W        W22459  19.545  10.267  11.422
50167W        W22460  29.576  16.153   0.348
50168W        W22461  14.136   1.280  11.915
50169W        W22462  15.735  40.983   2.316
50170W        W22463  36.444  34.062   0.413
50171W        W22464   0.942  14.647   4.236
50172W        W22465  18.700  19.142   4.168
50173W        W22466  23.586   9.709  11.011
50174W        W22467  33.096  21.201  11.429
50175W        W22468   0.484  14.670  14.012
50176W        W22469  39.499  16.588   3.149
50177W        W22470  16.571  19.747  12.483
50178W        W22471   5.849  42.524  10.989
50179W        W22472  29.442   7.811   2.273
50180W        W22473  15.158  26.048  14.984
50181W        W22474  44.927  19.722   4.760
50182W        W22475   5.808  18.722   1.315
50183W        W22476  18.557   7.703  12.843
50184W        W22477  32.902  40.494   0.925
50185W        W22478  44.367  11.718  10.112
50186W        W22479  27.681  11.234  12.507
50187W        W22480  16.115  39.024  13.531
50188W        W22481   7.351   8.693  13.824
50189W        W22482   0.957  37.931  12.444
50190W        W22483  39.942  37.351   2.699
50191W        W22484  17.101   3.296  14.516
50192W        W22485  18.163   0.283   3.804
50193W        W22486  41.360  12.769  14.005
50194W        W22487   0.433   9.275   3.806
50195W        W22488   3.304  43.886  10.520
50196W        W22489   0.359   5.436   4.780
50197W        W22490  12.613   0.321  11.456
50198W        W22491  42.485   7.840  14.777
50199W        W22492   0.952  33.983  14.840
50200W        W22493  12.752   1.244   1.849
50201W        W22494   1.804  19.165   3.313
50202W        W22495  16.615  30.080   0.456
50203W        W22496  14.672  27.055  13.484
50204W        W22497   3.457  36.849   4.138
50205W        W22498  40.433  12.656   3.707
50206W        W22499   8.835   4.710   2.375
50207W        W22500   6.272  10.856  13.328
50208W        W22501  13.715  40.018  12.526
50209W        W22502  16.257  13.239   3.771
50210W        W22503  43.493  10.754  12.571
50211W        W22504   6.391  17.599   1.336
50212W        W22505  28.076  20.238  13.464
50213W        W22506  24.585  21.717   3.761
50214W        W22507  19.705   3.457   4.801
50215W        W22508  34.058  10.691  11.584
50216W        W22509  27.056   9.269   2.853
50217W        W22510  13.310  37.353  10.151
50218W        W22511  28.945  25.673   0.808
50219W        W22512   9.684   2.407   3.332
50220W        W22513  17.657   6.337   4.325
50221W        W22514  18.066  31.096   0.316
50222W        W22515  28.463  39.890  14.969
50223W        W22516   8.750  37.009  13.837
50224W        W22517  13.632   8.182  11.508
50225W        W22518  29.102  21.195  12.835
50226W        W22519  19.055   6.327  10.539
50227W        W22520   8.818  10.200  12.837
50228W        W22521  10.154  25.634  13.450
50229W        W22522  10.255  44.386   4.271
50230W        W22523  16.633  44.978  13.816
50231W        W22524  15.733  11.206  11.930
50232W        W22525   4.273  31.408  14.330
50233W        W22526  15.600  13.822  12.382
50234W        W22527  26.690  44.502   2.326
50235W        W22528  42.517  42.318   5.097
50236W        W22529  13.128  39.516   3.222
50237W        W22530  36.085  15.734   4.156
50238W        W22531  18.093  27.574   3.676
50239W        W22532  26.475  36.514  10.437
50240W        W22533  36.972   9.817  12.064
50241W        W22534  17.792  14.793   1.821
50242W        W22535  28.676  31.133   3.711
50243W        W22536  39.884  42.293   4.676
50244W        W22537  17.608   4.913  14.837
50245W        W22538  20.189  19.656   1.697
50246W        W22539  23.535  30.155   3.693
50247W        W22540   2.740  37.081   2.681
50248W        W22541  41.458  39.003  13.461
50249W        W22542  33.397  36.987  14.809
50250W        W22543  20.154  18.228  11.110
50251W        W22544  30.525   7.240  13.491
50252W        W22545  20.645  21.524  13.875
50253W        W22546  21.169   8.283  13.002
50254W        W22547   8.168  44.803   2.874
50255W        W22548   9.883  24.682   4.644
50256W        W22549  37.399   9.208  14.790
50257W        W22550  27.014   9.734  11.576
50258W        W22551  39.320  30.008  11.409
50259W        W22552   6.333   3.388   1.216
50260W        W22553   3.871  33.106  10.543
50261W        W22554   8.249  23.223  13.417
50262W        W22555  38.466  27.661  14.029
50263W        W22556   8.748  19.719   1.881
50264W        W22557  17.254  30.615   0.465
50265W        W22558  15.171  27.642  12.407
50266W        W22559  42.874  21.564  11.913
50267W        W22560  24.685   2.874   3.287
50268W        W22561  13.607  17.298  12.411
50269W        W22562  25.487  36.423  13.058
50270W        W22563  37.967  29.434   0.480
50271W        W22564   7.813   7.274   1.932
50272W        W22565  23.572  12.340   2.843
50273W        W22566  21.189  43.460  14.451
50274W        W22567  15.745  30.948   1.371
50275W        W22568  31.478  22.661  15.000
50276W        W22569  31.520   6.831   0.772
50277W        W22570  14.817  20.529   0.425
50278W        W22571   0.746  38.492   3.663
50279W        W22572  17.619  30.946  10.448
50280W        W22573  26.674   6.689   2.228
50281W        W22574   8.684   7.365  10.609
50282W        W22575  14.781   2.863   2.368
50283W        W22576  40.314   8.281   2.738
50284W        W22577  15.626  35.412   0.266
50285W        W22578  33.051   7.380  13.902
50286W        W22579   5.736  21.585   4.751
50287W        W22580   7.217  11.645  13.903
50288W        W22581   4.385  17.307  10.569
50289W        W22582  16.691   2.940  14.794
50290W        W22583   5.313  28.124  14.388
50291W        W22584  23.706  35.381  14.001
50292W        W22585  14.636  14.289  11.472
50293W        W22586  38.905  25.641   2.246
50294W        W22587  39.890   0.843   1.366
50295W        W22588  39.419   6.405   0.771
50296W        W22589   5.220   2.865   3.302
50297W        W22590   0.802   1.424  10.937
50298W        W22591  11.843  11.700   3.816
50299W        W22592  15.762  13.153  12.075
50300W        W22593   0.362  44.480  14.413
50301W        W22594  12.683  10.366  12.914
50302W        W22595  14.115   3.352   3.181
50303W        W22596  32.953  37.522   3.801
50304W        W22597  14.823  37.445  10.987
50305W        W22598   3.390  38.552   2.338
50306W        W22599  20.606  13.721  14.496
50307W        W22600  38.872  16.801   3.202
50308W        W22601  44.895   2.319   4.690
50309W        W22602  39.037  38.873  10.980
50310W        W22603  38.059  26.120  14.952
50311W        W22604  32.483   6.806   3.354
50312W        W22605  26.696   2.353   3.199
50313W        W22606  19.645  32.618   4.745
50314W        W22607  39.509  35.001  10.974
50315W        W22608  26.468   1.884  12.513
50316W        W22609  29.932  23.564  10.157
50317W        W22610  30.043  15.807   2.710
50318W        W22611  30.461  25.471  14.869
50319W        W22612  32.531  31.903   4.619
50320W        W22613  20.736  21.689   5.613
50321W        W22614  12.633   0.784   2.732
50322W        W22615  22.740  22.158   1.929
50323W        W22616  15.114   5.900  14.280
50324W        W22617  16.658  31.979   5.239
50325W        W22618  29.621  19.088   3.729
50326W        W22619  19.102   4.703  11.993
50327W        W22620  30.155  18.144   1.774
50328W        W22621   2.432  31.642  11.958
50329W        W22622  39.521  32.025   0.253
50330W        W22623  24.663  10.878   2.797
50331W        W22624   5.235  33.495   4.282
50332W        W22625   5.929  22.624  13.980
50333W        W22626  41.972  38.028  11.084
50334W        W22627  29.589   9.733   1.367
50335W        W22628  21.191  32.613  12.572
50336W        W22629  22.120  18.121  13.523
50337W        W22630  17.665   5.810  11.554
50338W        W22631  31.402  27.451  12.943
50339W        W22632  18.237   9.790  11.101
50340W        W22633  10.872  44.882   2.750
50341W        W22634  23.183  20.636  13.500
50342W        W22635  32.055  28.024  13.379
50343W        W22636  36.399   4.270  12.087
50344W        W22637  37.008  24.010   0.954
50345W        W22638   4.215  21.652   2.878
50346W        W22639  22.690   5.700   3.263
50347W        W22640  27.124  14.229  14.470
50348W        W22641  29.067  20.226   1.240
50349W        W22642  27.090  28.090   0.919
50350W        W22643  30.009  37.491  13.945
50351W        W22644   9.699  13.130   2.208
50352W        W22645  15.822   6.785  12.989
50353W        W22646  11.128  36.923   0.410
50354W        W22647   3.745  32.585  12.897
50355W        W22648  15.771  13.311   2.719
50356W        W22649  22.659  37.490   9.969
50357W        W22650  31.450  36.469   0.335
50358W        W22651  36.459  19.709   2.270
50359W        W22652  43.424  35.899  10.095
50360W        W22653   8.855  16.729  14.474
50361W        W22654  35.411  11.721  11.865
50362W        W22655  22.566  28.514   0.275
50363W        W22656   8.309  13.122   0.824
50364W        W22657  17.652  10.173  12.358
50365W        W22658  16.299  40.386   2.880
50366W        W22659   0.356  33.988  10.946
50367W        W22660  33.584  21.232  13.047
50368W        W22661  32.593  27.145   1.233
50369W        W22662  22.214  34.091   0.911
50370W        W22663  31.577  26.046  12.960
50371W        W22664  36.496  27.052  12.914
50372W        W22665  19.658  10.635  14.978
50373W        W22666  19.671   5.379  13.965
50374W        W22667  28.047  41.522   3.712
50375W        W22668  12.344  28.026   0.329
50376W        W22669   6.254  25.711   4.197
50377W        W22670   6.239  32.574  13.011
50378W        W22671   8.787   1.901   4.326
50379W        W22672   0.898   2.413  14.855
50380W        W22673  39.971   3.275   4.183
50381W        W22674  15.186  39.460  12.460
50382W        W22675   3.234  10.745   0.730
50383W        W22676  27.061  11.777   1.891
50384W        W22677  16.164   6.260  14.403
50385W        W22678  38.491  17.170   0.336
50386W        W22679   1.816  12.265   1.231
50387W        W22680   6.819  36.073   1.279
50388W        W22681  17.287  25.490   4.833
50389W        W22682  20.584  39.425  13.810
50390W        W22683  38.386  13.165  12.517
50391W        W22684  32.963  10.202   3.332
50392W        W22685  24.598   3.327  14.978
50393W        W22686   8.343  15.150  11.109
50394W        W22687   9.248   7.344   0.753
50395W        W22688   7.405  28.565   4.730
50396W        W22689  40.472   8.285  11.127
50397W        W22690  17.065  40.833   4.317
50398W        W22691  21.025  17.164  12.551
50399W        W22692  36.508   4.826  11.102
50400W        W22693  41.957  14.321  14.993
50401W        W22694  38.942  42.911  14.317
50402W        W22695  20.564  12.180  10.575
50403W        W22696  17.087  26.662   1.232
50404W        W22697   8.293  24.503   1.323
50405W        W22698  10.189   3.889   1.748
50406W        W22699  12.737  27.648  11.973
50407W        W22700  13.332  33.568  13.317
50408W        W22701  20.698  29.053   4.794
50409W        W22702  24.230  23.140  11.423
50410W        W22703  40.410  39.321   0.816
50411W        W22704   9.730  32.914  14.481
50412W        W22705  18.563  40.540   2.684
50413W        W22706  22.248  26.183   1.917
50414W        W22707  15.699  35.359  10.483
50415W        W22708  43.388  30.162  12.042
50416W        W22709  18.256  31.971  12.006
50417W        W22710  33.045   7.279   2.714
50418W        W22711  18.052  28.605   1.329
50419W        W22712  40.316  22.710  12.363
50420W        W22713   2.815   7.706  12.069
50421W        W22714  19.585  32.113   9.990
50422W        W22715  41.866  16.802   9.945
50423W        W22716   1.465  30.587   1.301
50424W        W22717  44.270   4.387   0.875
50425W        W22718   0.979  34.888  11.071
50426W        W22719   8.237   3.434  11.996
50427W        W22720  17.083  28.479   2.383
50428W        W22721  34.482   3.448   2.816
50429W        W22722  16.098   3.758   2.741
50430W        W22723  10.702  15.585   2.405
50431W        W22724  18.697   4.268  10.942
50432W        W22725   7.817  11.853  13.912
50433W        W22726   1.760  20.227  11.068
50434W        W22727   2.265  13.672   2.232
50435W        W22728  38.417  32.429   0.890
50436W        W22729  42.380  44.930   0.750
50437W        W22730  12.170   7.370   3.783
50438W        W22731  40.462  33.061  13.832
50439W        W22732  43.290  43.957  14.919
50440W        W22733  38.073  15.212   4.184
50441W        W22734  35.927  34.924  14.818
50442W        W22735   4.767  12.355   3.693
50443W        W22736  41.834  41.395   2.728
50444W        W22737  26.640  16.802   2.401
50445W        W22738  36.882  18.136   2.245
50446W        W22739   7.880  42.784  11.868
50447W        W22740  14.728   8.375   4.263
50448W        W22741  22.645  34.457   1.306
50449W        W22742  44.009  44.936   2.396
50450W        W22743  41.895  36.407  13.516
50451W        W22744  30.948   2.359   3.203
50452W        W22745  12.230  29.941   4.212
50453W        W22746  24.984  32.488   3.344
50454W        W22747  40.428  25.704  12.025
50455W        W22748  36.355   4.334  14.900
50456W        W22749   6.318  14.145  12.041
50457W        W22750  39.356   4.421  12.540
50458W        W22751  34.072   6.231   1.738
50459W        W22752  13.142  44.338  11.890
50460W        W22753  19.657  20.074   1.331
50461W        W22754  43.335   7.841  13.514
50462W        W22755  21.031  26.990  13.476
50463W        W22756  23.195  12.330  14.502
50464W        W22757  31.016  43.010   4.788
50465W        W22758   2.874   4.289  14.474
50466W        W22759  17.128   6.249  10.549
50467W        W22760   2.962  16.148   3.205
50468W        W22761  25.039  15.207  13.850
50469W        W22762   1.301   4.257  10.624
50470W        W22763  42.283  37.509  13.829
50471W        W22764  12.309  32.577  13.826
50472W        W22765   2.378  21.731  11.928
50473W        W22766  16.286   0.278  14.802
50474W        W22767  42.938   3.712  12.463
50475W        W22768  16.658   1.419   4.271
50476W        W22769  24.021  27.683   4.216
50477W        W22770   7.246   9.839  13.051
50478W        W22771  30.075  31.462   3.858
50479W        W22772  28.083  42.839  14.007
50480W        W22773   0.888  10.774  14.790
50481W        W22774  41.333  43.484   5.134
50482W        W22775   0.354  17.719   0.410
50483W        W22776  18.583  14.132   3.168
50484W        W22777   7.689  12.626  10.136
50485W        W22778  32.635  18.096  11.415
50486W        W22779  21.251  13.608  13.039
50487W        W22780  32.521   2.909   0.291
50488W        W22781  25.065  33.938  10.527
50489W        W22782  12.165  27.957  13.829
50490W        W22783   8.684   3.949  14.417
50491W        W22784  33.954  26.695  13.000
50492W        W22785  39.356   2.264  10.579
50493W        W22786  34.101  37.341  10.516
50494W        W22787   9.769  34.474  14.437
50495W        W22788   9.155   2.397   3.652
50496W        W22789  33.394  44.397   4.260
50497W        W22790  21.032  29.958   0.329
50498W        W22791   9.190  16.669  14.012
50499W        W22792  23.174  11.149  12.961
50500W        W22793  44.010  36.463   2.825
50501W        W22794  31.582   6.424  14.293
50502W        W22795  24.678  37.549  11.960
50503W        W22796   1.412  33.904   0.296
50504W        W22797  26.611  28.668   3.848
50505W        W22798  44.397  32.434   2.291
50506W        W22799  36.895  39.893   3.162
50507W        W22800  11.259  28.171  13.489
50508W        W22801  11.369  23.586   2.707
50509W        W22802  25.502  30.916   3.268
50510W        W22803  34.387  12.743   3.810
50511W        W22804  43.430  12.813   1.848
50512W        W22805   4.266  33.900  14.282
50513W        W22806  18.699  39.013   5.255
50514W        W22807  24.628   5.727  12.956
50515W        W22808  40.055  28.077  13.497
50516W        W22809  26.624  40.829   4.176
50517W        W22810   0.801  38.541  13.352
50518W        W22811  23.717  16.165  13.816
50519W        W22812   9.797   4.431  13.893
50520W        W22813  32.498   7.192   0.749
50521W        W22814  41.841  35.601  11.496
50522W        W22815   6.825  30.145  14.794
50523W        W22816  35.054   0.788  12.342
50524W        W22817  26.515  26.177  12.495
50525W        W22818  29.480  30.014  13.309
50526W        W22819   6.763  33.490   3.859
50527W        W22820  38.426  16.600   3.295
50528W        W22821  16.266  35.048  11.996
50529W        W22822  34.529  42.327  11.375
50530W        W22823  27.660  19.226   1.772
50531W        W22824  10.243  35.887   5.291
50532W        W22825  13.692  10.817  14.513
50533W        W22826  18.217  21.145   1.344
50534W        W22827  17.144  13.341   4.683
50535W        W22828  30.488  18.663  14.007
50536W        W22829   2.818  11.856   1.882
50537W        W22830  22.512   2.312   3.347
50538W        W22831  23.718   7.801  13.899
50539W        W22832  19.163   2.472   2.411
50540W        W22833  20.157  41.935  11.425
50541W        W22834  37.999  20.183  10.985
50542W        W22835   1.815  38.935   4.217
50543W        W22836  25.156  27.620   2.404
50544W        W22837  13.316   1.838   3.695
50545W        W22838  20.031   7.200  14.811
50546W        W22839   7.694   8.179  10.642
50547W        W22840  29.930  33.385   1.790
50548W        W22841  29.930  40.851  10.475
50549W        W22842   6.314  11.692  12.984
50550W        W22843  16.247   0.951   4.822
50551W        W22844  42.968  16.278  12.952
50552W        W22845  19.654  26.119  12.901
50553W        W22846  38.987   9.775  12.046
50554W        W22847  18.101   5.775   1.745
50555W        W22848   2.373  17.660   3.148
50556W        W22849   9.367  26.003   1.697
50557W        W22850  38.846  36.014   3.838
50558W        W22851   9.392   4.699  10.446
50559W        W22852   3.831  32.395  10.507
50560W        W22853  23.067  33.494  14.317
50561W        W22854   8.875  17.729  11.522
50562W        W22855  10.284  22.545   2.733
50563W        W22856  11.729  27.680   3.207
50564W        W22857  34.524   0.403   0.877
50565W        W22858   8.675  28.668  10.638
50566W        W22859  43.422  28.023   3.326
50567W        W22860  20.635  40.334  12.468
50568W        W22861   0.337  22.114   0.881
50569W        W22862  17.571   7.805   2.859
50570W        W22863  25.507  42.977   1.764
50571W        W22864  32.914   4.864   4.730
50572W        W22865  42.449  42.891   2.716
50573W        W22866   6.217  41.970  14.976
50574W        W22867   6.371  26.473  12.384
50575W        W22868  22.595  29.628   2.407
50576W        W22869   5.248   4.279   3.816
50577W        W22870  28.439   3.748  10.556
50578W        W22871  35.466  31.912   0.731
50579W        W22872  37.560  41.492   1.784
50580W        W22873   6.343  29.519   4.182
50581W        W22874  27.975  26.144  14.469
50582W        W22875  35.867  38.361   1.373
50583W        W22876  21.225  29.539   5.155
50584W        W22877  20.124   4.940   3.634
50585W        W22878  33.469  20.672   2.395
50586W        W22879  21.597   1.458  14.293
50587W        W22880  23.001   2.925   3.650
50588W        W22881   1.332   5.367  13.429
50589W        W22882  21.026  28.041  10.642
50590W        W22883   8.264  19.165   4.661
50591W        W22884   0.353  18.705  13.027
50592W        W22885  20.193   2.792   0.470
50593W        W22886  25.056  27.146   3.825
50594W        W22887  15.126  34.115   2.246
50595W        W22888  22.006  31.069  11.418
50596W        W22889  36.432   8.400  12.897
50597W        W22890  14.810   9.862   3.869
50598W        W22891  25.099   6.318  10.636
50599W        W22892  27.979   9.646  14.890
50600W        W22893  23.657  19.709  12.518
50601W        W22894  18.207  14.793  11.080
50602W        W22895  16.286   6.828  11.408
50603W        W22896  10.296  43.427   4.825
50604W        W22897   6.345  44.801  13.374
50605W        W22898  42.344   1.767   1.730
50606W        W22899  30.143  37.339  11.103
50607W        W22900  41.884  25.962   4.709
50608W        W22901  25.592  13.178  12.578
50609W        W22902  16.616  24.487   3.807
50610W        W22903  35.966  36.993   3.844
50611W        W22904  44.437   5.732   2.234
50612W        W22905  44.349   7.907  12.473
50613W        W22906  23.157  34.488  11.436
50614W        W22907  31.925  18.115  13.968
50615W        W22908  31.411  37.566  13.833
50616W        W22909  21.587  42.343  12.368
50617W        W22910  44.978  16.168   4.745
50618W        W22911  41.990  37.377   1.830
50619W        W22912  21.622  22.740   0.461
50620W        W22913  17.802  41.404  11.591
50621W        W22914   8.707   9.788   0.902
50622W        W22915   0.350  29.116   3.687
50623W        W22916  37.502  17.221  14.404
50624W        W22917  17.181  20.100   1.308
50625W        W22918  40.965  13.761  12.955
50626W        W22919  11.243  20.231   4.686
50627W        W22920  36.449  22.012   2.406
50628W        W22921   1.938  22.570   0.803
50629W        W22922  16.677  23.550  10.470
50630W        W22923  34.067   3.863   2.353
50631W        W22924   4.739  26.554   5.090
50632W        W22925  13.115  30.426  12.890
50633W        W22926  39.971  16.647  12.358
50634W        W22927  29.933  15.170   3.159
50635W        W22928  22.705  25.662  11.472
50636W        W22929  33.113  18.729  11.060
50637W        W22930   0.856  42.868  10.980
50638W        W22931  21.535  31.073   1.318
50639W        W22932  20.580  27.467   4.153
50640W        W22933  44.889  43.408   4.627
50641W        W22934  27.495  31.997  12.848
50642W        W22935  21.144  14.813  12.969
50643W        W22936  21.749  41.042   0.472
50644W        W22937  11.698   7.912  10.951
50645W        W22938  18.128  40.878   1.913
50646W        W22939   7.885   2.829   1.879
50647W        W22940   1.863  26.039  11.521
50648W        W22941   9.807  17.641  13.512
50649W        W22942  24.717  39.527  12.481
50650W        W22943  44.931  34.396  12.395
50651W        W22944  10.853  15.212  11.016
50652W        W22945  20.198   9.187   2.398
50653W        W22946   2.317  22.639   0.285
50654W        W22947  44.402  44.371   2.366
50655W        W22948  16.701  29.512  10.989
50656W        W22949   5.407   3.280  11.893
50657W        W22950  25.630  28.585   4.709
50658W        W22951  10.790  27.617   0.890
50659W        W22952  42.967  33.084   3.647
50660W        W22953  22.019  42.952   1.935
50661W        W22954  19.104  20.719  14.976
50662W        W22955  24.699   4.273  13.874
50663W        W22956  28.024  28.133  13.539
50664W        W22957  32.393  31.967  10.940
50665W        W22958  18.158   8.215  12.971
50666W        W22959   5.252   6.807   3.369
50667W        W22960  27.995   1.313   4.183
50668W        W22961  12.265  28.514  13.469
50669W        W22962   2.458   7.878  12.459
50670W        W22963  14.336   6.363   1.746
50671W        W22964  40.454  29.468  13.927
50672W        W22965   3.866  31.923   2.274
50673W        W22966  43.301  34.023  13.006
50674W        W22967  15.193  38.398   4.215
50675W        W22968  41.301  21.024  12.534
50676W        W22969  15.094  22.233   3.806
50677W        W22970  31.588  17.745   1.869
50678W        W22971  42.525  14.245   4.722
50679W        W22972  11.822  44.965  12.840
50680W        W22973   1.920   8.305   4.748
50681W        W22974  39.898  40.935   0.841
50682W        W22975  15.239  36.511   0.353
50683W        W22976  34.993  10.848   2.853
50684W        W22977  38.487  38.390   3.190
50685W        W22978  11.295  21.222  12.530
50686W        W22979  35.588  35.860   4.691
50687W        W22980  34.528  44.870  11.965
50688W        W22981  31.968  10.829   0.314
50689W        W22982  26.183  35.541  10.936
50690W        W22983  23.991  28.570   2.250
50691W        W22984  24.651  25.143   3.322
50692W        W22985  39.836   2.274  12.525
50693W        W22986  17.609  38.374   3.856
50694W        W22987  34.106  35.101  12.560
50695W        W22988  20.684  33.386  11.423
50696W        W22989  27.633  41.449  13.415
50697W        W22990  17.138  36.889  10.424
50698W        W22991  31.465  34.931   4.626
50699W        W22992  30.651  32.974  13.311
50700W        W22993   9.701   4.439   1.354
50701W        W22994  25.663  41.946  14.990
50702W        W22995  24.025  19.755   4.273
50703W        W22996  19.126  31.106  14.385
50704W        W22997  42.962   6.199   4.149
50705W        W22998  28.591  15.809   4.670
50706W        W22999  43.805  25.217  14.920
50707W        W23000  25.631   8.221  13.968
50708W        W23001  13.132  30.610   0.413
50709W        W23002  33.071  18.147   0.466
50710W        W23003  12.635   7.293   4.351
50711W        W23004  11.832  21.540   4.325
50712W        W23005  21.018  25.039  12.049
50713W        W23006  10.328  40.970  12.004
50714W        W23007   9.154   1.367   3.319
50715W        W23008  38.482   8.822  12.537
50716W        W23009  23.640  37.045  10.965
50717W        W23010  22.660  42.972  10.641
50718W        W23011  40.820  25.089  13.360
50719W        W23012   8.249  40.426   1.804
50720W        W23013  44.499  22.151   2.251
50721W        W23014  22.714  26.208  13.852
50722W        W23015  11.359   6.839   1.912
50723W        W23016  30.440   0.318  11.544
50724W        W23017   1.840  40.883   2.316
50725W        W23018  38.567  32.098   3.174
50726W        W23019  18.550  22.603  10.603
50727W        W23020  38.851  39.343  11.946
50728W        W23021   6.284  16.699   2.802
50729W        W23022  43.858  19.275   2.696
50730W        W23023  24.191  10.722  12.922
50731W        W23024   1.851  44.910  13.985
50732W        W23025   6.198  35.934  12.003
50733W        W23026  34.911  27.555   1.849
50734W        W23027  43.822  22.037  13.037
50735W        W23028   1.947  31.973  11.963
50736W        W23029  13.689  30.926   2.276
50737W        W23030  22.228   2.399   4.767
50738W        W23031  41.330   9.391  11.041
50739W        W23032  13.624  25.141  12.018
50740W        W23033  34.578   7.876  12.087
50741W        W23034  14.636  23.620   2.256
50742W        W23035  18.665   0.877   1.344
50743W        W23036  24.173  13.677  13.536
50744W        W23037  40.834  20.691  12.013
50745W        W23038   4.783  21.047  13.053
50746W        W23039  14.725  38.408   2.375
50747W        W23040  33.130  38.436  10.965
50748W        W23041  22.020  19.157  13.437
50749W        W23042  36.382  26.098   4.224
50750W        W23043  16.754  22.551   4.319
50751W        W23044  16.712  18.247   4.688
50752W        W23045  40.353  23.611  10.153
50753W        W23046  13.826  31.474  14.990
50754W        W23047   1.393   1.817   0.350
50755W        W23048  36.941  15.642   4.289
50756W        W23049   7.836  27.058  13.341
50757W        W23050  34.393   3.836  11.545
50758W        W23051   2.342  42.836  11.551
50759W        W23052  13.145  24.480   0.805
50760W        W23053  36.889  14.175   0.475
50761W        W23054   9.298   8.164  11.081
50762W        W23055  34.504  40.318  10.503
50763W        W23056  35.908   7.714  11.089
50764W        W23057  16.612  37.027   3.320
50765W        W23058  15.127  23.025  14.849
50766W        W23059   2.400  17.622   1.237
50767W        W23060   3.824  44.821  13.539
50768W        W23061  13.307   8.406   3.271
50769W        W23062  41.519  16.621   3.382
50770W        W23063   3.855  28.086   2.833
50771W        W23064   7.714  12.675  14.836
50772W        W23065  11.813  13.144   5.210
50773W        W23066  27.546   2.441   2.841
50774W        W23067   9.866  42.027  14.993
50775W        W23068  19.281  30.582  12.845
50776W        W23069  27.532  21.166   1.731
50777W        W23070  32.083  12.303  11.607
50778W        W23071  18.752  37.999  11.888
50779W        W23072  12.784   8.322   0.946
50780W        W23073  18.694  37.530   5.287
50781W        W23074   7.696  44.333  12.095
50782W        W23075   5.931  34.910  10.477
50783W        W23076  25.493  15.740  14.417
50784W        W23077  25.067  36.390   0.796
50785W        W23078  38.918   9.814  10.574
50786W        W23079   6.203  29.038   9.956
50787W        W23080  15.302  34.386   3.378
50788W        W23081   8.674   6.287   2.196
50789W        W23082   8.754   7.401   0.371
50790W        W23083   3.426  12.341   1.758
50791W        W23084  30.998  35.004  11.975
50792W        W23085   4.244  44.933  11.125
50793W        W23086   1.296  16.602  10.974
50794W        W23087  22.554  35.948   4.781
50795W        W23088  29.505  18.555   0.894
50796W        W23089  27.579  26.159   2.386
50797W        W23090  41.389   6.206   0.730
50798W        W23091  31.504  44.973  11.988
50799W        W23092  34.399  32.607  11.924
50800W        W23093  16.123   5.246  13.512
50801W        W23094  26.636  28.120  12.041
50802W        W23095  25.631  24.088  13.474
50803W        W23096  44.339  42.907   2.351
50804W        W23097  44.915  28.572   2.741
50805W        W23098  30.603   8.718  10.506
50806W        W23099   1.846  10.654  12.055
50807W        W23100  28.536  37.566  14.376
50808W        W23101  12.231   3.838  12.084
50809W        W23102  26.015  11.786  14.502
50810W        W23103  19.737  17.109   4.751
50811W        W23104  29.495   9.175   2.225
50812W        W23105  36.423  25.153   1.867
50813W        W23106  22.681  44.813  11.445
50814W        W23107   2.272  30.976  11.533
50815W        W23108  21.580  31.147   4.598
50816W        W23109  28.446  11.647   4.709
50817W        W23110  23.176  34.972   3.178
50818W        W23111  44.914   4.754   0.399
50819W        W23112   6.248   0.952   3.864
50820W        W23113  14.733  41.309  11.399
50821W        W23114  21.229  16.593   1.330
50822W        W23115  36.449   9.257   2.874
50823W        W23116  16.586  29.633  10.434
50824W        W23117   9.206  10.682   2.191
50825W        W23118  14.818  23.156   4.602
50826W        W23119  30.564  12.327   2.668
50827W        W23120   4.287  41.523  12.060
50828W        W23121  44.337   9.657  13.491
50829W        W23122  25.470  13.145   2.820
50830W        W23123   1.304  10.821  13.496
50831W        W23124  35.994  16.773   1.698
50832W        W23125  27.114  32.984  11.076
50833W        W23126   6.777  27.525   4.626
50834W        W23127   4.432   3.854   0.400
50835W        W23128  24.062   0.484   1.269
50836W        W23129  43.320  35.496  13.811
50837W        W23130  27.595  24.532   4.799
50838W        W23131  38.963  38.922   3.833
50839W        W23132  12.134   6.371   4.226
50840W        W23133  36.085   5.796   2.842
50841W        W23134  20.625  27.503  11.441
50842W        W23135  22.741  10.369  10.427
50843W        W23136  20.253  16.753  13.808
50844W        W23137  29.653  36.452  14.882
50845W        W23138  23.031  13.618   2.212
50846W        W23139  21.137  17.287  13.318
50847W        W23140   3.402  23.667   2.276
50848W        W23141  19.204   3.850  14.982
50849W        W23142  17.152  26.108  13.886
50850W        W23143  39.937  43.399  10.935
50851W        W23144  29.012  27.070  10.450
50852W        W23145  41.428  11.756  12.931
50853W        W23146  23.672  17.130   4.652
50854W        W23147   6.854   7.345   0.293
50855W        W23148  14.336  38.436   3.335
50856W        W23149  17.236  26.664   0.358
50857W        W23150  35.998   4.351  14.433
50858W        W23151  27.563  13.146  11.460
50859W        W23152   9.780  31.020  14.962
50860W        W23153  24.576  13.316   0.328
50861W        W23154  13.350  15.146  10.956
50862W        W23155  34.502  12.804   4.131
50863W        W23156  10.384  23.040   0.823
50864W        W23157  31.949   2.367  13.541
50865W        W23158  27.577  34.584  14.476
50866W        W23159  30.519  27.012  13.381
50867W        W23160   7.326  26.193   4.157
50868W        W23161  42.028  14.309  11.889
50869W        W23162  14.826  34.612  13.922
50870W        W23163  43.774   2.742  14.839
50871W        W23164   1.360  20.543   3.226
50872W        W23165  14.606  23.568  13.506
50873W        W23166   4.743  33.457  10.521
50874W        W23167  18.116  35.881  11.889
50875W        W23168  29.465  43.424   1.329
50876W        W23169  32.113  16.589  14.341
50877W        W23170  20.051  24.102   1.379
50878W        W23171   3.789  10.673  11.904
50879W        W23172  26.115   9.885   2.806
50880W        W23173  36.487  26.969   2.682
50881W        W23174  31.522  40.538   0.326
50882W        W23175   9.724  32.394  11.437
50883W        W23176   1.786  33.493  10.945
50884W        W23177   4.746  43.310  10.968
50885W        W23178   8.177  28.453  10.644
50886W        W23179  28.177  23.659   3.165
50887W        W23180  33.546   6.253  14.829
50888W        W23181   8.656  17.725   4.699
50889W        W23182  44.286   6.220   0.863
50890W        W23183   0.487  12.755   4.172
50891W        W23184   0.839  32.509   1.403
50892W        W23185  15.692   4.832  10.032
50893W        W23186   7.300   6.359   3.682
50894W        W23187  34.993  10.197   3.245
50895W        W23188  40.475  39.032   4.726
50896W        W23189   3.305   1.977   3.792
50897W        W23190   2.374  28.646  14.939
50898W        W23191   5.728  44.011   4.753
50899W        W23192  28.023  20.255  10.003
50900W        W23193  15.097  38.016   3.230
50901W        W23194  11.780  12.329   1.295
50902W        W23195  28.573  43.952  13.366
50903W        W23196  44.337  27.104  14.959
50904W        W23197  18.090  35.901  11.428
50905W        W23198  25.194  26.045   3.386
50906W        W23199   2.925   6.869   3.341
50907W        W23200  11.667  37.046   1.725
50908W        W23201  42.785  26.978   1.742
50909W        W23202  11.669   8.678  11.972
50910W        W23203  38.382  18.782  13.340
50911W        W23204   7.760  20.660  13.972
50912W        W23205  19.253   6.318  12.413
50913W        W23206  34.606  20.072  10.415
50914W        W23207  12.711   4.230   1.298
50915W        W23208  40.897  27.067  14.433
50916W        W23209  21.659  36.377  10.513
50917W        W23210  24.197  27.482  12.455
50918W        W23211  16.284   6.265   1.432
50919W        W23212   1.857  39.410   0.436
50920W        W23213   4.757  13.174   2.734
50921W        W23214  15.670   8.784  12.047
50922W        W23215  31.086  21.585   1.802
50923W        W23216   7.832   8.189  14.334
50924W        W23217   3.457  25.655   4.200
50925W        W23218  22.688   4.753  11.940
50926W        W23219  18.785   8.385  13.865
50927W        W23220  35.863   1.360  10.620
50928W        W23221  39.542  35.086   2.729
50929W        W23222  15.227  11.184  11.930
50930W        W23223  11.854  25.543  14.420
50931W        W23224  28.017  18.614   3.360
50932W        W23225  41.795  14.189  13.328
50933W        W23226   0.351   7.304   1.210
50934W        W23227  30.446  36.896   1.918
50935W        W23228   2.941  13.711  13.793
50936W        W23229  25.630  35.050   3.673
50937W        W23230  39.533  25.168  13.829
50938W        W23231  40.850  19.675   1.824
50939W        W23232   3.331   1.942   1.858
50940W        W23233   8.212  22.717  14.379
50941W        W23234  24.608  15.278   0.255
50942W        W23235  30.452  31.614   2.806
50943W        W23236  24.087  32.023  14.810
50944W        W23237  11.135  22.242  12.892
50945W        W23238  20.188  35.567  10.531
50946W        W23239   1.927  41.850  13.454
50947W        W23240   2.305  22.012   4.132
50948W        W23241  22.241   2.960  12.001
50949W        W23242  31.039  11.312  14.831
50950W        W23243   1.821  22.575   3.196
50951W        W23244  29.540   9.757  10.473
50952W        W23245  29.476  41.980   3.254
50953W        W23246  40.812   8.810  13.836
50954W        W23247  17.079  23.604  14.993
50955W        W23248  22.040   4.221   1.837
50956W        W23249  36.505  14.162   0.957
50957W        W23250   1.386  44.388   1.428
50958W        W23251  21.118  28.013   3.733
50959W        W23252  44.455  29.527  12.875
50960W        W23253   1.248  30.036   2.294
50961W        W23254  19.558  13.144  14.430
50962W        W23255  33.602  22.031   5.170
50963W        W23256  26.051  42.797  10.049
50964W        W23257  29.669  30.619   1.391
50965W        W23258  26.605  30.955  14.975
50966W        W23259  42.800  42.973   3.790
50967W        W23260  35.886  38.472   0.304
50968W        W23261  38.893  43.334  11.559
50969W        W23262  27.014  30.090   3.240
50970W        W23263  26.579   7.188  12.048
50971W        W23264  14.288   5.725  11.910
50972W        W23265  43.908  25.521   4.212
50973W        W23266  31.911  40.377   4.234
50974W        W23267  37.473   9.165  12.074
50975W        W23268  37.361  41.835  12.444
50976W        W23269  29.934   1.276   0.838
50977W        W23270  33.431  27.015   1.852
50978W        W23271  31.414  24.524   4.311
50979W        W23272  22.010  31.627  10.545
50980W        W23273  42.971  18.149   0.394
50981W        W23274  39.339  43.900   1.342
50982W        W23275   9.651  37.963  12.522
50983W        W23276   2.235  37.886   3.703
50984W        W23277   8.304  35.001  11.519
50985W        W23278   4.876  27.471  10.996
50986W        W23279  19.205  39.384   0.782
50987W        W23280  34.948  26.603  10.600
50988W        W23281  29.599   0.463   3.822
50989W        W23282  36.020   0.887  12.463
50990W        W23283  23.005  37.423  14.842
50991W        W23284  28.000   3.768  12.982
50992W        W23285  19.184  32.106   4.702
50993W        W23286  18.068   3.382   3.766
50994W        W23287   2.938   3.347   1.694
50995W        W23288   2.416  17.676  10.521
50996W        W23289  24.538  24.565   2.711
50997W        W23290  26.172   9.361  11.567
50998W        W23291  16.688   0.816   1.767
50999W        W23292  15.811  37.347  11.459
51000W        W23293  31.932  40.976  12.919
51001W        W23294  42.356  44.829   2.865
51002W        W23295  27.533  40.006   4.777
51003W        W23296  12.749  30.930   0.340
51004W        W23297  39.065  30.503   0.301
51005W        W23298  12.750  14.281  14.801
51006W        W23299  32.451  24.117   1.924
51007W        W23300  20.549  13.170   3.701
51008W        W23301  42.821  14.191   4.775
51009W        W23302   8.708  30.014   1.394
51010W        W23303  39.521  18.110  10.518
51011W        W23304   3.781  12.792   4.798
51012W        W23305  18.260   4.856  14.439
51013W        W23306  41.530   0.951  14.485
51014W        W23307  41.927  40.412   4.760
51015W        W23308  32.011  26.678  14.807
51016W        W23309   8.818  28.997   3.378
51017W        W23310  39.468  42.874  13.333
51018W        W23311   1.744  19.571   4.190
51019W        W23312  38.968  14.201  10.113
51020W        W23313  37.845  15.229   0.911
51021W        W23314  11.243  18.634   4.744
51022W        W23315   8.879  13.791   3.157
51023W        W23316  22.550  26.183   4.825
51024W        W23317   7.235  37.070  10.595
51025W        W23318  25.468  41.010  14.976
51026W        W23319   9.318  31.450  14.898
51027W        W23320   8.383  17.661  11.051
51028W        W23321  32.920   5.216  13.380
51029W        W23322  25.971  16.132  11.868
51030W        W23323  25.574  37.006   3.782
51031W        W23324  39.868  29.500   1.776
51032W        W23325  28.036  26.574  13.898
51033W        W23326   8.353  20.171  14.277
51034W        W23327  21.668  21.215  10.580
51035W        W23328   6.238  38.969   0.482
51036W        W23329  23.008  27.055   1.753
51037W        W23330  13.235  41.795  13.396
51038W        W23331  33.622  42.333  10.554
51039W        W23332  22.560   4.888  12.880
51040W        W23333  36.571  37.477   3.713
51041W        W23334  21.184  31.122   1.256
51042W        W23335   0.910  30.001   1.382
51043W        W23336   7.825  22.111   1.329
51044W        W23337  44.855  26.456  12.902
51045W        W23338   7.692   3.405  13.830
51046W        W23339  38.923  27.537   4.220
51047W        W23340  44.403   9.711  10.901
51048W        W23341   3.792  10.281   4.299
51049W        W23342  35.368  43.962   3.845
51050W        W23343  30.927   3.774   1.907
51051W        W23344   2.856   8.168  13.954
51052W        W23345  23.601   6.802   1.930
51053W        W23346   5.804  38.065  14.010
51054W        W23347  35.473   4.333  14.345
51055W        W23348  25.130  18.734  13.821
51056W        W23349  32.591   3.268   4.218
51057W        W23350  29.053   6.348  14.277
51058W        W23351   1.816  40.523   2.830
51059W        W23352  41.328  31.955   4.273
51060W        W23353  15.260  34.000   4.191
51061W        W23354  19.545  17.252   2.751
51062W        W23355  26.117   8.325   4.737
51063W        W23356   3.804  42.005   4.662
51064W        W23357  23.062  16.084   1.711
51065W        W23358   3.724  32.117  12.359
51066W        W23359  14.226   0.938  11.574
51067W        W23360  43.439  34.436  10.142
51068W        W23361  21.107  14.301   3.227
51069W        W23362  42.791  21.077  14.477
51070W        W23363  16.133  13.702  10.566
51071W        W23364  26.458  32.042   1.840
51072W        W23365   8.885  22.631  11.880
51073W        W23366  24.034   2.848  10.906
51074W        W23367   8.820  34.510   0.457
51075W        W23368   3.231   0.405  14.443
51076W        W23369  20.263   8.195  14.761
51077W        W23370   8.715   9.752   4.714
51078W        W23371  38.875   4.919   5.189
51079W        W23372  27.646  14.609   4.753
51080W        W23373  18.632   2.761  11.855
51081W        W23374  36.867   2.291  13.364
51082W        W23375   7.864  34.468   2.704
51083W        W23376  13.653   9.149   3.784
51084W        W23377  21.522  13.256   2.688
51085W        W23378  16.603   4.265   2.768
51086W        W23379  43.912  25.471  12.412
51087W        W23380  17.770  17.209  12.924
51088W        W23381  20.140  35.440   1.294
51089W        W23382  21.095  27.034  10.643
51090W        W23383  21.575   2.752   3.707
51091W        W23384  37.564  37.421   2.247
51092W        W23385  39.557  34.006  12.489
51093W        W23386  12.855  43.346  10.989
51094W        W23387  37.021   6.336  11.381
51095W        W23388   9.817  34.864  11.459
51096W        W23389  30.466  22.716  14.809
51097W        W23390  40.850  30.982   1.854
51098W        W23391  15.757   5.259   3.822
51099W        W23392  12.712  21.215  11.478
51100W        W23393  29.574  20.247   4.162
51101W        W23394  17.217   2.385   4.333
51102W        W23395  14.107  11.670   1.407
51103W        W23396   2.759  41.472  11.456
51104W        W23397   9.312  36.014   1.837
51105W        W23398  13.228  43.874   3.828
51106W        W23399   6.687   4.292  14.826
51107W        W23400  34.431  38.374   3.676
51108W        W23401   2.736  29.431   3.831
51109W        W23402  13.720  36.910   0.248
51110W        W23403  27.135  30.634  14.440
51111W        W23404  44.849   1.934   3.780
51112W        W23405  18.286  30.516  14.311
51113W        W23406  38.011  12.273  12.496
51114W        W23407  20.652  24.098   4.834
51115W        W23408  20.615   3.279   2.375
51116W        W23409  10.676   3.426  13.034
51117W        W23410  18.671  12.267  14.477
51118W        W23411  17.790  19.158  13.471
51119W        W23412  31.408  24.034  12.460
51120W        W23413  27.642  43.314   2.284
51121W        W23414  25.087  15.695  10.511
51122W        W23415  28.142   0.469   2.670
51123W        W23416  40.476   9.379  12.520
51124W        W23417   1.891  24.562  12.037
51125W        W23418  19.084  18.688  14.851
51126W        W23419  39.049  10.241  13.415
51127W        W23420   9.302  30.911  14.020
51128W        W23421  12.132  16.129  13.342
51129W        W23422  39.450   8.878   1.888
51130W        W23423   7.369  32.425   0.352
51131W        W23424  34.924  36.964   2.760
51132W        W23425  35.395   8.673  10.556
51133W        W23426  30.551  20.165  14.294
51134W        W23427   9.770  28.625  13.448
51135W        W23428  21.542  39.880  11.599
51136W        W23429   2.362  40.422   2.808
51137W        W23430  39.327  36.050  11.077
51138W        W23431  42.460  37.503   1.733
51139W        W23432  34.089   9.158   0.853
51140W        W23433  42.976  10.270  13.335
51141W        W23434  21.195  15.157   4.117
51142W        W23435  27.525  26.173  11.422
51143W        W23436  33.561  25.688  12.453
51144W        W23437  10.703  43.480  12.966
51145W        W23438   1.373  30.624  11.019
51146W        W23439   2.753  32.069   3.383
51147W        W23440  25.980   9.365  10.926
51148W        W23441  27.619  17.637  12.940
51149W        W23442  22.555  39.879  10.960
51150W        W23443   1.953   3.411  12.965
51151W        W23444  34.108   0.804  12.996
51152W        W23445  22.505  43.847   3.765
51153W        W23446  24.977  22.141  10.984
51154W        W23447  28.980  20.110  13.896
51155W        W23448  23.238   6.409   1.414
51156W        W23449  10.668  41.536   3.330
51157W        W23450  27.122  38.426   1.245
51158W        W23451  22.201  26.119  10.537
51159W        W23452  33.614  38.974   3.216
51160W        W23453  15.173   9.388  12.960
51161W        W23454  16.097   1.253  13.948
51162W        W23455  13.150  13.207   4.165
51163W        W23456  41.943  32.395   4.301
51164W        W23457  34.609  23.098   3.640
51165W        W23458  29.152  44.821  12.904
51166W        W23459  17.567  10.148  14.981
51167W        W23460  17.224  13.608   1.868
51168W        W23461  30.503  27.497   2.338
51169W        W23462  37.971  31.934   1.447
51170W        W23463  11.368   8.345  13.897
51171W        W23464  34.969  41.407  12.071
51172W        W23465  34.961  21.069   2.834
51173W        W23466  25.054  16.140  12.999
51174W        W23467  13.828  20.535   2.285
51175W        W23468  39.933  28.533  11.102
51176W        W23469  31.528  44.355   4.320
51177W        W23470   2.240  10.231  13.458
51178W        W23471  30.127   6.782   4.779
51179W        W23472  34.121  41.516  10.539
51180W        W23473  42.291  21.564  13.897
51181W        W23474   5.881  30.607  11.026
51182W        W23475  34.542  14.806  13.831
51183W        W23476  28.129  16.207   2.861
51184W        W23477  18.695  34.969   9.942
51185W        W23478  36.500  16.755   3.848
51186W        W23479  16.150   7.833   3.852
51187W        W23480   3.315  17.691  11.012
51188W        W23481  17.184  28.091   3.359
51189W        W23482  42.932  29.570   0.368
51190W        W23483  16.191   7.266   3.666
51191W        W23484  27.943  11.832   1.857
51192W        W23485  21.024   3.832   0.943
51193W        W23486  31.578   0.967   1.377
51194W        W23487   3.299  38.546   3.290
51195W        W23488   3.818  29.051   3.146
51196W        W23489  25.646  33.007  12.824
51197W        W23490  27.962  44.422  11.499
51198W        W23491  42.001  19.752   2.754
51199W        W23492   1.756  13.768   4.703
51200W        W23493  16.686  24.184  14.019
51201W        W23494  20.037  37.079  11.585
51202W        W23495  43.385   8.691   4.617
51203W        W23496  23.001  34.112  13.372
51204W        W23497  26.534  13.195   1.760
51205W        W23498  30.555  36.045  14.869
51206W        W23499  19.583   3.939  14.293
51207W        W23500  40.935  29.573   1.930
51208W        W23501   1.755  24.155  12.491
51209W        W23502  30.129  39.819  10.560
51210W        W23503  43.873  30.480   1.326
51211W        W23504  19.709  12.612  12.532
51212W        W23505  41.385  36.972   2.836
51213W        W23506  30.039  43.005  13.307
51214W        W23507  29.983  15.814  12.527
51215W        W23508  17.074   6.791  12.085
51216W        W23509  18.063  35.488  12.840
51217W        W23510  35.548   7.771   1.849
51218W        W23511   0.425  24.075  11.119
51219W        W23512  43.379  32.461  12.566
51220W        W23513  39.948  35.996  14.884
51221W        W23514  27.006  23.663   2.197
51222W        W23515  40.828   5.879   2.312
51223W        W23516  33.609  20.531   1.927
51224W        W23517  26.574  28.449  13.461
51225W        W23518  26.989  33.890   1.860
51226W        W23519  11.325  23.699  13.973
51227W        W23520   4.936   0.886   2.719
51228W        W23521  10.355  37.560   5.223
51229W        W23522   8.881  40.802   4.213
51230W        W23523  25.686   4.251  11.878
51231W        W23524  23.638  40.921   0.748
51232W        W23525  36.460   4.818   1.713
51233W        W23526  43.474   8.327  13.458
51234W        W23527  21.222  40.397   2.901
51235W        W23528   7.793   2.389   0.823
51236W        W23529   9.358  14.185   0.727
51237W        W23530  40.914  24.015  13.484
51238W        W23531  18.625  25.176  13.825
51239W        W23532  31.589  42.020   4.780
51240W        W23533  34.016  26.590  13.956
51241W        W23534   5.866  23.173  14.993
51242W        W23535  35.954  35.422   4.727
51243W        W23536   8.768  33.881  13.018
51244W        W23537  36.576   7.402   1.792
51245W        W23538  21.600  29.122  11.397
51246W        W23539  14.648  10.771   4.284
51247W        W23540  36.459   3.275   1.818
51248W        W23541   4.292  16.194  12.088
51249W        W23542  42.017  41.917  14.857
51250W        W23543   9.339  36.842  14.963
51251W        W23544  43.366  43.436  11.023
51252W        W23545   0.874  21.047   4.324
51253W        W23546  29.562  13.166   4.163
51254W        W23547   4.716  18.144   2.778
51255W        W23548  22.590  15.664  12.481
51256W        W23549  17.671  37.033  13.502
51257W        W23550   3.937  25.143  11.075
51258W        W23551  16.315   7.236   2.245
51259W        W23552   0.981  29.509   0.916
51260W        W23553  37.516   0.469   1.341
51261W        W23554  15.184  39.944   3.229
51262W        W23555  17.153  40.891  12.031
51263W        W23556  21.188  30.128  14.885
51264W        W23557  40.304  30.012  14.368
51265W        W23558  16.185  28.978  14.803
51266W        W23559  35.039  34.456  12.858
51267W        W23560  25.467  13.673  11.388
51268W        W23561  41.521   2.861   3.804
51269W        W23562   7.187  35.934  13.040
51270W        W23563  32.612   3.439   0.467
51271W        W23564  14.817  14.623   4.616
51272W        W23565  11.149  32.980   1.353
51273W        W23566  21.144  21.101   2.290
51274W        W23567   8.854  25.556   1.927
51275W        W23568  13.161  18.221   4.819
51276W        W23569  19.262  27.003  13.414
51277W        W23570  34.461  26.586   3.717
51278W        W23571  32.029  25.195  10.609
51279W        W23572  14.756  42.438   0.760
51280W        W23573  13.760  10.695  11.053
51281W        W23574  15.179  37.363  11.044
51282W        W23575   9.374  21.651   4.760
51283W        W23576  43.865  19.098   2.216
51284W        W23577  31.568  30.029  14.438
51285W        W23578  27.530   9.801  14.919
51286W        W23579  15.259  20.110   1.328
51287W        W23580  43.019  15.179  11.414
51288W        W23581  44.928  28.101   4.598
51289W        W23582  27.099  19.687   1.337
51290W        W23583  23.065  29.589   3.386
51291W        W23584  44.353  22.656   0.917
51292W        W23585  12.714  28.998  14.368
51293W        W23586  35.969  20.175  12.022
51294W        W23587  41.378   9.836  11.901
51295W        W23588   3.908  40.539   2.286
51296W        W23589  31.074  13.329   3.282
51297W        W23590  41.792  30.478  10.977
51298W        W23591  15.606  33.933   3.782
51299W        W23592   2.939  40.401  10.433
51300W        W23593  21.723   0.924  13.312
51301W        W23594  13.700  24.128  14.443
51302W        W23595  39.342   2.889   2.355
51303W        W23596  18.267  15.709  13.490
51304W        W23597   9.863  31.040   3.154
51305W        W23598  27.985   5.714   1.792
51306W        W23599  25.202  30.091   3.339
51307W        W23600   7.870  14.298  12.090
51308W        W23601  34.567  43.304  12.854
51309W        W23602  19.715  21.621  13.971
51310W        W23603  35.109  33.051  13.950
51311W        W23604  24.977  37.883  11.982
51312W        W23605   7.771  41.407   1.353
51313W        W23606  36.584  38.376  11.975
51314W        W23607  30.545  17.247  14.769
51315W        W23608  26.503  37.014  14.869
51316W        W23609  23.242  20.754  11.563
51317W        W23610  11.759   8.836  10.489
51318W        W23611   3.442  14.255  11.052
51319W        W23612  31.567   3.831   0.842
51320W        W23613  40.484  14.707  12.969
51321W        W23614  10.167  10.148   1.895
51322W        W23615  39.457   5.193   3.761
51323W        W23616  38.446  30.149   1.222
51324W        W23617  35.601   9.839   3.320
51325W        W23618   1.827  30.491   0.908
51326W        W23619   5.827  12.710  14.989
51327W        W23620  39.394  25.679   4.205
51328W        W23621  34.998  36.041   4.127
51329W        W23622  25.590  24.227   4.305
51330W        W23623  19.090  41.848  14.008
51331W        W23624  39.012  40.829   4.255
51332W        W23625  24.055  25.563  13.930
51333W        W23626  36.910   6.802   4.778
51334W        W23627  13.196  34.928  14.887
51335W        W23628  18.700  35.494  13.944
51336W        W23629  23.186  15.690  12.418
51337W        W23630  16.670  24.027  12.921
51338W        W23631   1.257   0.415  14.829
51339W        W23632  42.479   0.845   0.450
51340W        W23633   4.782   8.854  10.893
51341W        W23634   4.941  13.720   1.716
51342W        W23635  15.171  27.678  13.992
51343W        W23636  21.616  23.501  14.857
51344W        W23637  25.701   9.775  11.543
51345W        W23638  10.257  20.640  13.494
51346W        W23639   0.853  27.006   2.215
51347W        W23640  37.943  20.692   0.736
51348W        W23641   7.778   0.486  13.422
51349W        W23642   5.428  36.093   4.685
51350W        W23643   2.375   8.284  11.471
51351W        W23644   8.782  36.456  11.513
51352W        W23645  41.470  39.435   1.847
51353W        W23646  42.808   6.234   4.814
51354W        W23647  26.678  22.024  10.994
51355W        W23648  15.675   7.382  11.422
51356W        W23649  22.036  15.240  11.034
51357W        W23650  10.207  23.065  12.532
51358W        W23651  16.110  13.216  13.473
51359W        W23652  17.081  12.302  14.372
51360W        W23653  19.652  36.023   0.963
51361W        W23654   3.876  44.985   2.224
51362W        W23655  37.487  38.443  11.992
51363W        W23656  11.639  39.457  11.065
51364W        W23657  37.025  18.160   1.783
51365W        W23658   1.889  31.982  14.997
51366W        W23659  33.009   8.841  12.426
51367W        W23660   6.885  31.950  11.524
51368W        W23661  13.809  28.102  14.277
51369W        W23662  27.562   8.305  13.865
51370W        W23663  33.447  21.558  14.500
51371W        W23664  22.662  27.148  14.399
51372W        W23665   9.708  15.115   4.299
51373W        W23666  11.240  22.063   4.255
51374W        W23667   4.296  12.137  11.522
51375W        W23668  14.682  39.451  11.396
51376W        W23669  35.064  31.500   1.739
51377W        W23670  41.959   1.458  13.486
51378W        W23671  28.581  32.074   0.373
51379W        W23672  35.014  43.296   1.356
51380W        W23673  25.172  44.957   3.344
51381W        W23674  18.569  44.414  13.824
51382W        W23675  21.607  11.848   0.385
51383W        W23676   9.213  25.526   3.802
51384W        W23677   3.916   0.361  12.377
51385W        W23678  16.674   8.871  12.514
51386W        W23679  14.704   8.231  11.006
51387W        W23680  25.633  42.426   2.704
51388W        W23681  18.051  26.040   4.624
51389W        W23682  27.947  13.700  11.499
51390W        W23683  15.236  10.780   4.773
51391W        W23684  33.038  13.344   1.338
51392W        W23685   7.668  33.934   0.731
51393W        W23686   1.955  39.874  11.895
51394W        W23687  38.990   5.778   3.762
51395W        W23688  34.991   7.406  10.964
51396W        W23689  12.225  12.704  12.081
51397W        W23690  42.374  25.064  14.497
51398W        W23691   2.306  43.793   3.737
51399W        W23692   7.710   5.350  13.876
51400W        W23693  23.551  30.945  11.601
51401W        W23694   6.782  10.246   4.144
51402W        W23695  18.766  13.182  11.385
51403W        W23696  20.061  30.610   1.243
51404W        W23697  37.848  19.634   4.829
51405W        W23698  38.000  44.415   1.400
51406W        W23699   5.285  40.307  11.116
51407W        W23700  18.653  20.528   0.849
51408W        W23701  31.908  23.012  14.890
51409W        W23702  31.937  24.995   4.614
51410W        W23703  25.598   8.874  13.809
51411W        W23704  28.107  24.151  14.967
51412W        W23705  40.042  34.436   3.749
51413W        W23706   1.385  14.600  11.875
51414W        W23707  28.182   0.317   4.286
51415W        W23708   9.234  16.590   2.317
51416W        W23709  23.538  24.995   5.156
51417W        W23710   6.837  17.146  13.830
51418W        W23711  20.149  28.938   9.990
51419W        W23712  34.609  30.052  12.961
51420W        W23713  36.051  15.197  10.462
51421W        W23714  40.052  19.559  11.608
51422W        W23715  18.591  28.515  12.023
51423W        W23716   0.425  20.188  12.980
51424W        W23717   1.945  39.963  10.599
51425W        W23718   5.280  41.023   4.706
51426W        W23719  14.784  13.257   3.234
51427W        W23720  40.839  16.251  11.399
51428W        W23721   1.886  38.908   3.791
51429W        W23722  32.397   1.379   3.693
51430W        W23723  38.993  29.577   0.771
51431W        W23724  43.893   3.934  13.492
51432W        W23725  21.152   5.364  11.609
51433W        W23726   6.839  27.082   1.328
51434W        W23727  41.466  32.016   1.443
51435W        W23728  26.581  32.588  13.347
51436W        W23729  12.794  36.845  12.935
51437W        W23730  19.766  13.201   0.263
51438W        W23731  20.111  23.199  11.409
51439W        W23732  12.268  33.387   1.928
51440W        W23733  26.965  23.656   5.290
51441W        W23734  33.483  38.565  12.027
51442W        W23735  31.501  10.706   1.728
51443W        W23736   0.816  23.149  13.334
51444W        W23737  25.710  43.292  14.820
51445W        W23738  29.498  23.091  10.054
51446W        W23739  10.859  29.104   1.924
51447W        W23740   3.742  40.003   2.841
51448W        W23741  13.806  15.804  14.306
51449W        W23742  17.074  30.119   3.253
51450W        W23743  34.050  32.603   0.815
51451W        W23744   4.344  42.294  11.587
51452W        W23745  19.583   0.879   3.685
51453W        W23746   1.786   2.388  14.814
51454W        W23747  32.133   4.892   0.268
51455W        W23748  10.789  37.420   1.772
51456W        W23749  37.911   4.876  14.013
51457W        W23750   0.780   7.349   2.349
51458W        W23751   2.782  13.682  10.964
51459W        W23752  34.414   4.732   4.643
51460W        W23753  17.625  16.151   2.213
51461W        W23754   3.327  42.332   1.733
51462W        W23755  12.843  24.107  12.399
51463W        W23756  44.941  19.768   2.382
51464W        W23757  28.082  44.407   3.166
51465W        W23758  10.769   1.334  14.381
51466W        W23759  40.880  41.963  12.520
51467W        W23760  23.709  14.657   0.275
51468W        W23761  37.966   8.349  10.965
51469W        W23762  35.946  14.834  14.874
51470W        W23763  26.126   6.875  13.382
51471W        W23764  11.357  43.294   2.357
51472W        W23765  15.213  25.080  10.991
51473W        W23766  18.622  10.706   4.290
51474W        W23767  29.988   5.261   1.752
51475W        W23768   6.423  30.119   2.806
51476W        W23769   5.694  31.586  10.915
51477W        W23770   6.907  13.758  13.875
51478W        W23771  27.980   1.320   1.848
51479W        W23772  37.427   5.837   1.756
51480W        W23773  39.974  23.584   4.740
51481W        W23774   1.436  36.494  14.903
51482W        W23775   6.376   1.399   4.267
51483W        W23776  36.899  21.721  13.884
51484W        W23777   6.342  32.965   0.260
51485W        W23778  38.382   2.739  11.975
51486W        W23779   9.859  39.904   1.898
51487W        W23780   1.270   3.944   3.201
51488W        W23781   1.966  34.417   1.277
51489W        W23782  21.569  24.106   3.214
51490W        W23783  16.128   2.753  13.822
51491W        W23784   9.395  10.228   3.185
51492W        W23785  31.115  38.344  12.888
51493W        W23786   4.227  40.898   0.782
51494W        W23787   5.407  29.511   4.760
51495W        W23788  18.161  15.212   4.180
51496W        W23789  11.183  37.388   0.421
51497W        W23790  11.317  29.000  10.609
51498W        W23791   9.871  35.519  13.018
51499W        W23792   9.738  32.410   3.153
51500W        W23793  22.597  42.282   0.761
51501W        W23794  38.952  36.479  12.491
51502W        W23795  16.268  31.094   3.271
51503W        W23796  44.378  37.886  14.486
51504W        W23797  13.164   6.875  11.529
51505W        W23798  18.152   4.377  13.975
51506W        W23799  40.916   6.743   4.113
51507W        W23800  15.650  34.494  10.931
51508W        W23801  27.006   1.787   1.895
51509W        W23802   2.785  36.466  11.445
51510W        W23803  32.470  17.597  12.930
51511W        W23804   3.830  38.978  12.860
51512W        W23805   8.399  42.341  14.899
51513W        W23806  36.412   9.348   3.173
51514W        W23807  32.114  38.965   3.212
51515W        W23808  34.970  16.744  14.895
51516W        W23809  12.826  16.620   2.274
51517W        W23810  30.545  40.354  11.041
51518W        W23811   3.315  38.056   2.274
51519W        W23812  30.984  35.587  13.375
51520W        W23813  39.441   3.858   1.307
51521W        W23814  38.888  34.091   3.247
51522W        W23815  25.010   3.784   0.951
51523W        W23816  40.392  17.205  13.504
51524W        W23817  14.702  24.198  13.353
51525W        W23818  14.593  29.539   1.743
51526W        W23819  11.232  28.003  10.982
51527W        W23820  39.878  40.816  13.001
51528W        W23821   4.206  22.540   2.871
51529W        W23822  20.215  23.655   5.609
51530W        W23823  27.649  10.356  13.403
51531W        W23824  27.043  34.982   0.289
51532W        W23825  27.445  32.552   2.348
51533W        W23826  21.100  19.704   3.204
51534W        W23827  19.164   3.779   2.844
51535W        W23828  38.941  41.443  12.391
51536W        W23829  43.816  17.120   3.162
51537W        W23830  15.204   4.233  13.348
51538W        W23831  37.074  42.960  13.826
51539W        W23832  18.751   5.873  13.925
51540W        W23833   7.259  17.619   4.177
51541W        W23834  27.470  14.730   2.769
51542W        W23835   3.385   6.271   5.241
51543W        W23836  38.957  15.609  14.844
51544W        W23837  37.356  23.040   2.707
51545W        W23838  13.652  32.941   0.349
51546W        W23839  24.713   4.737   3.300
51547W        W23840  31.935   6.894  14.781
51548W        W23841  19.708   6.231  10.483
51549W        W23842   4.339  44.804   0.269
51550W        W23843  25.649  41.887   2.901
51551W        W23844  43.872  35.062  14.979
51552W        W23845   1.445   2.283   0.862
51553W        W23846  36.412  19.623   2.877
51554W        W23847  28.545  15.152   2.882
51555W        W23848   8.654  24.651  10.920
51556W        W23849  26.116  30.068   2.191
51557W        W23850  33.070  11.357   0.824
51558W        W23851   3.896  30.101   2.734
51559W        W23852   0.425  34.579   5.305
51560W        W23853  16.576  31.028   2.737
51561W        W23854  24.123  17.799  12.858
51562W        W23855   2.784  36.515   3.313
51563W        W23856  32.089  36.583  12.071
51564W        W23857   2.453  37.919  13.837
51565W        W23858  24.155   8.712   1.828
51566W        W23859  16.662  44.413   1.901
51567W        W23860  36.053  13.302  14.951
51568W        W23861   0.456  25.694   3.299
51569W        W23862  30.448   1.931   0.953
51570W        W23863  15.771  12.295  12.087
51571W        W23864  28.149  13.738  14.868
51572W        W23865  30.588  14.678   3.648
51573W        W23866  34.398  38.067  14.372
51574W        W23867  37.350  30.927  11.028
51575W        W23868   0.310  32.575  12.976
51576W        W23869  35.049  32.443  10.894
51577W        W23870  44.416  29.940  10.634
51578W        W23871  19.246  18.768  14.326
51579W        W23872  40.419  43.941   3.657
51580W        W23873  35.435   7.737   0.790
51581W        W23874  17.081  10.635   2.220
51582W        W23875  40.314  33.440   2.386
51583W        W23876  13.800  17.775   2.244
51584W        W23877  37.567  37.077  14.991
51585W        W23878  38.908  41.501  10.042
51586W        W23879  39.356  37.403   1.231
51587W        W23880   6.809  38.429  13.806
51588W        W23881  23.212  27.125   2.805
51589W        W23882   6.253  21.255  10.968
51590W        W23883  35.562  28.546   3.639
51591W        W23884  15.187   7.336   3.646
51592W        W23885  31.589  36.413   2.803
51593W        W23886  40.343  27.532  14.447
51594W        W23887  38.395  19.771   4.776
51595W        W23888   0.916  24.654  12.475
51596W        W23889   9.210  34.864   5.666
51597W        W23890   9.727  34.526   1.288
51598W        W23891   8.895  28.067  13.934
51599W        W23892  37.348  17.210  14.904
51600W        W23893  26.026  25.499   3.837
51601W        W23894   6.277  12.281  14.826
51602W        W23895  10.383   4.344  12.044
51603W        W23896  35.922  18.545   2.900
51604W        W23897  30.164  25.082   3.860
51605W        W23898  38.507  40.798   0.434
51606W        W23899  39.829   3.437  13.872
51607W        W23900  32.035  39.437  11.395
51608W        W23901  23.027  37.568   1.238
51609W        W23902  24.654  10.302   4.116
51610W        W23903  42.295  24.046   3.702
51611W        W23904  31.023   4.767  12.468
51612W        W23905   4.892  39.347   4.712
51613W        W23906  37.417  11.741   4.292
51614W        W23907  22.026  44.977  14.784
51615W        W23908  16.275  36.967  12.367
51616W        W23909  19.042  44.843  11.070
51617W        W23910   4.901  23.224  11.410
51618W        W23911  12.176  26.503   3.803
51619W        W23912  19.079   1.821  11.589
51620W        W23913  35.521   4.775  11.562
51621W        W23914  31.585  40.386  13.437
51622W        W23915  31.907  19.651   0.298
51623W        W23916  18.151  23.096   0.400
51624W        W23917   0.951  13.708   3.353
51625W        W23918   4.914  39.917   1.325
51626W        W23919   4.826  39.919   5.256
51627W        W23920  39.399  11.148  13.053
51628W        W23921  43.395  21.242   5.175
51629W        W23922  17.560  39.853   2.235
51630W        W23923  12.249  31.928   4.185
51631W        W23924  28.079  16.602   4.733
51632W        W23925  25.520  30.057   0.843
51633W        W23926  27.027  16.644   3.811
51634W        W23927  36.489  14.134   2.816
51635W        W23928   9.661   4.768   3.754
51636W        W23929  21.603  15.668  14.812
51637W        W23930   0.907  23.993  11.874
51638W        W23931  27.495  40.368   0.294
51639W        W23932   4.839   4.240   4.747
51640W        W23933  28.656   5.427  14.023
51641W        W23934   4.291  13.155   2.821
51642W        W23935   0.360  36.008   1.753
51643W        W23936  25.194  35.072   0.870
51644W        W23937   4.710   5.787  11.891
51645W        W23938  32.129  28.148   1.715
51646W        W23939  18.122   1.404  13.368
51647W        W23940   3.230   8.390   1.904
51648W        W23941  39.890   8.163   2.855
51649W        W23942   0.414   4.889  10.408
51650W        W23943  27.979  14.831   4.250
51651W        W23944   6.203   4.820   1.244
51652W        W23945   7.222  34.978  10.904
51653W        W23946  18.206   4.752   0.308
51654W        W23947  18.664   8.186  11.007
51655W        W23948  20.075  19.577   5.286
51656W        W23949  18.284  23.985   0.795
51657W        W23950   2.929   3.794  12.882
51658W        W23951  37.001   3.282  11.923
51659W        W23952  16.649  17.161  14.511
51660W        W23953  40.332  37.402  14.768
51661W        W23954  22.582   0.772   4.179
51662W        W23955  26.102  19.546  13.982
51663W        W23956  27.645  40.861  13.806
51664W        W23957  14.621  22.015  13.917
51665W        W23958  12.148  30.155   3.192
51666W        W23959   6.389  23.085   3.331
51667W        W23960  26.001  32.027   2.364
51668W        W23961  39.839  23.159  13.497
51669W        W23962   5.919  17.727   2.391
51670W        W23963  15.639   0.934   3.148
51671W        W23964  14.157   6.871  10.591
51672W        W23965  42.282   0.464   1.413
51673W        W23966  38.049   4.718   0.262
51674W        W23967   5.834   3.244  12.079
51675W        W23968   8.807  17.086   2.736
51676W        W23969  38.944  16.603  12.887
51677W        W23970  21.112  15.670  11.577
51678W        W23971  18.778  17.205   4.798
51679W        W23972  21.588  40.418  13.307
51680W        W23973  36.472  20.236  14.387
51681W        W23974   7.307  32.527   3.239
51682W        W23975  26.550  17.594   0.417
51683W        W23976  35.527  28.438   4.160
51684W        W23977   4.788  39.408   3.823
51685W        W23978  17.092   8.806   4.311
51686W        W23979  28.090  14.758   2.742
51687W        W23980  31.637  24.620   0.792
51688W        W23981  21.018  44.320   5.204
51689W        W23982  25.210  18.201  13.527
51690W        W23983  29.627  18.142   1.872
51691W        W23984  32.030   4.235   3.268
51692W        W23985   8.250  12.307  11.500
51693W        W23986   4.265   2.358   3.312
51694W        W23987  29.051  21.221  10.577
51695W        W23988   4.442  14.289   2.679
51696W        W23989  43.350  31.962   1.906
51697W        W23990  24.570  19.204  14.886
51698W        W23991   8.875  27.114  10.477
51699W        W23992  31.127  24.007  14.978
51700W        W23993  36.946   1.907   2.677
51701W        W23994  13.616  39.927  11.531
51702W        W23995  42.990  12.694   0.890
51703W        W23996  17.675  41.427   3.355
51704W        W23997  25.531  22.682  11.014
51705W        W23998  13.795  15.723  12.848
51706W        W23999   0.265  29.043   1.271
51707W        W24000  27.487  23.210   4.294
51708W        W24001  36.876   2.420   0.861
51709W        W24002  14.756  31.151   1.699
51710W        W24003  18.624   6.889   2.235
51711W        W24004  33.032  23.006  13.031
51712W        W24005  14.191  20.215  13.498
51713W        W24006  19.766  30.101   0.826
51714W        W24007  14.713   6.368  10.593
51715W        W24008   5.225   4.755   3.328
51716W        W24009   4.813  23.723  12.037
51717W        W24010  38.904  18.136   4.642
51718W        W24011  25.689   2.369   2.795
51719W        W24012  42.009  34.058  10.642
51720W        W24013  10.262  25.059   0.947
51721W        W24014   4.766  14.127   5.219
51722W        W24015  37.376  14.335   3.303
51723W        W24016  22.602   4.337  13.962
51724W        W24017   8.310  39.522   3.790
51725W        W24018  21.086   3.282   3.159
51726W        W24019  14.762  19.690   2.195
51727W        W24020  16.613  30.649  10.447
51728W        W24021  42.822  11.688  12.578
51729W        W24022  43.774  40.498   3.844
51730W        W24023  40.824  37.078  10.959
51731W        W24024  22.641  35.517   1.242
51732W        W24025  13.188  12.227   4.630
51733W        W24026  14.307  22.098  11.563
51734W        W24027  29.544  21.683  13.416
51735W        W24028  16.672   3.432   1.359
51736W        W24029   6.715  41.432  12.880
51737W        W24030  34.552  21.085   2.674
51738W        W24031  35.100  13.623  10.439
51739W        W24032  18.183  28.932   4.290
51740W        W24033  14.119  23.546  11.417
51741W        W24034  15.625  22.642  10.534
51742W        W24035  43.365  15.608  13.530
51743W        W24036  38.528   3.446  13.853
51744W        W24037   7.791  25.688  13.520
51745W        W24038  38.451  42.908  12.565
51746W        W24039   5.350  13.342  11.429
51747W        W24040  11.634   4.225   9.921
51748W        W24041  12.156  16.305   0.295
51749W        W24042  16.310  23.634   4.762
51750W        W24043   5.205   3.347   1.875
51751W        W24044  18.676  38.390  10.947
51752W        W24045  17.217  30.050  14.495
51753W        W24046  44.388  30.492   4.677
51754W        W24047  36.544  33.596   9.976
51755W        W24048  43.788   8.224   0.359
51756W        W24049  37.920  22.649  14.312
51757W        W24050  39.008  13.261   1.307
51758W        W24051  24.624  38.392   2.673
51759W        W24052  11.364  27.960   0.446
51760W        W24053  23.569   1.327   0.879
51761W        W24054   5.713   2.397  11.419
51762W        W24055  12.188  22.610  12.369
51763W        W24056  36.974  41.396   3.343
51764W        W24057   0.874  35.082   1.275
51765W        W24058  36.090  43.821  14.282
51766W        W24059  12.708   0.481  14.024
51767W        W24060   6.222   2.831   3.687
51768W        W24061  26.054  32.533  14.787
51769W        W24062   9.804  12.245  12.842
51770W        W24063  18.256  19.554  12.917
51771W        W24064   9.322  14.736  11.570
51772W        W24065  33.605  23.172  13.973
51773W        W24066  39.407   4.360   2.767
51774W        W24067  28.555  30.635  14.310
51775W        W24068  20.562  24.013   0.914
51776W        W24069  29.111   0.374  11.456
51777W        W24070  26.634  10.874   4.203
51778W        W24071  43.998  13.715   1.393
51779W        W24072  31.979  37.471  11.061
51780W        W24073  15.756  15.319  10.087
51781W        W24074  21.564  30.963   0.460
51782W        W24075  23.736  31.546   0.778
51783W        W24076  40.004   6.304   3.839
51784W        W24077  37.001  16.596  13.921
51785W        W24078  39.887  20.628   4.738
51786W        W24079  28.144  17.080  12.489
51787W        W24080  39.411  21.721   0.784
51788W        W24081  27.086  31.044  11.982
51789W        W24082  13.712  25.201  10.464
51790W        W24083  24.991  10.749  10.924
51791W        W24084  31.448  36.902  14.458
51792W        W24085  22.652  23.662   0.287
51793W        W24086  32.611  29.462  13.052
51794W        W24087   9.340   4.769   2.739
51795W        W24088  41.489  44.308  11.955
51796W        W24089  12.659  20.148  10.889
51797W        W24090   0.760  22.731   2.388
51798W        W24091  14.634  34.030  10.960
51799W        W24092  25.056  39.547   3.777
51800W        W24093  19.240  31.109   1.854
51801W        W24094  29.149   4.284  14.783
51802W        W24095  34.438  11.660   2.261
51803W        W24096   0.827   8.173   3.769
51804W        W24097  44.383  10.300   4.599
51805W        W24098  34.899  40.341  10.492
51806W        W24099  34.096  19.260   1.366
51807W        W24100  30.050  23.520  14.770
51808W        W24101  18.094  24.508   2.362
51809W        W24102  22.636  34.455  10.987
51810W        W24103  14.098  24.580  13.056
51811W        W24104  43.483   9.885  10.421
51812W        W24105   6.743  44.997  12.088
51813W        W24106   9.671  34.927   2.675
51814W        W24107  26.617  10.260  14.849
51815W        W24108   0.347  14.237  14.382
51816W        W24109  13.107  22.249  14.432
51817W        W24110  21.251   1.473   0.252
51818W        W24111  25.613  13.133  11.098
51819W        W24112  44.798   4.397   2.899
51820W        W24113  10.353  12.738   5.296
51821W        W24114  26.004   6.872  12.074
51822W        W24115  12.854  11.714  10.910
51823W        W24116  27.589   8.680  10.441
51824W        W24117   6.855  26.959  10.488
51825W        W24118  32.428  39.912  13.393
51826W        W24119  22.678  38.046   2.802
51827W        W24120   4.395  42.894   2.183
51828W        W24121  34.870  11.851  14.772
51829W        W24122  20.233  17.270   1.925
51830W        W24123  44.306  36.394   4.120
51831W        W24124  29.540  12.620   0.780
51832W        W24125  42.386  25.078   3.314
51833W        W24126   9.889   4.710   2.776
51834W        W24127  26.662  36.043  14.840
51835W        W24128  11.145  23.215   1.266
51836W        W24129  40.306  29.452  14.863
51837W        W24130  35.396  18.742  14.995
51838W        W24131  38.381  27.668   2.825
51839W        W24132  16.256  10.871  14.872
51840W        W24133   8.700  16.746   4.180
51841W        W24134  42.965  27.603  11.446
51842W        W24135  15.761  23.588   0.765
51843W        W24136  10.192  13.638  12.030
51844W        W24137  29.173   9.336   2.664
51845W        W24138  41.462   2.824  14.978
51846W        W24139  39.556  26.520   1.831
51847W        W24140  16.260  38.520  13.063
51848W        W24141  30.159  42.483   4.149
51849W        W24142  15.765  13.254   1.258
51850W        W24143   4.336  35.906  12.902
51851W        W24144   3.258   5.414   2.219
51852W        W24145   9.644  27.523  12.559
51853W        W24146   2.251  41.514  11.427
51854W        W24147  42.297   8.179  11.009
51855W        W24148  21.227   5.383   0.455
51856W        W24149  12.248  13.351   0.797
51857W        W24150  20.674  25.967   0.889
51858W        W24151  37.403   9.807   1.837
51859W        W24152  40.899  17.102  12.037
51860W        W24153   6.867   7.675   4.309
51861W        W24154  23.231  19.115   0.372
51862W        W24155   4.896  33.945  11.381
51863W        W24156  21.124  32.009   4.244
51864W        W24157  36.860  13.616   3.268
51865W        W24158  16.200  33.970  12.561
51866W        W24159  24.057  41.825  11.864
51867W        W24160  14.188   1.872  12.455
51868W        W24161  27.962   7.182   0.957
51869W        W24162   0.839   8.804  14.408
51870W        W24163  22.501  13.692   3.849
51871W        W24164  10.784  27.454  10.558
51872W        W24165  42.470  44.956   1.279
51873W        W24166  37.952  26.521  12.056
51874W        W24167  37.519  12.667   2.700
51875W        W24168  31.509   7.261   4.776
51876W        W24169  16.577  14.622  14.488
51877W        W24170   4.723  23.609  10.915
51878W        W24171   1.922  41.988  10.559
51879W        W24172  40.039  32.928  14.903
51880W        W24173  18.668  23.690   0.301
51881W        W24174  15.150  18.738   1.404
51882W        W24175  10.184  18.091  13.959
51883W        W24176  28.091  34.024   3.728
51884W        W24177  14.315  37.457   3.229
51885W        W24178  39.374  38.887   0.380
51886W        W24179   5.775  11.349   1.755
51887W        W24180  23.105  36.055  13.544
51888W        W24181  20.039  25.974  13.928
51889W        W24182  27.508  24.687  14.762
51890W        W24183  21.144  20.195  13.394
51891W        W24184   7.302   7.326   2.755
51892W        W24185  34.953  26.134   1.401
51893W        W24186  29.998  30.059   0.320
51894W        W24187   0.275  40.881   2.184
51895W        W24188  27.036  29.649   4.272
51896W        W24189   0.458  16.236   3.685
51897W        W24190   3.832   9.810   3.215
51898W        W24191  40.397  34.934  12.486
51899W        W24192  20.731  10.869   3.636
51900W        W24193  42.446   5.695  13.861
51901W        W24194  16.801  36.385   2.231
51902W        W24195  33.031  35.870  10.420
51903W        W24196   8.200   8.680   0.942
51904W        W24197  33.977  10.745  14.981
51905W        W24198  11.807  40.496  14.787
51906W        W24199  20.031  17.157  11.009
51907W        W24200   9.842  25.529   2.262
51908W        W24201  26.477  23.020  14.878
51909W        W24202  28.069  19.140   2.773
51910W        W24203  38.476  21.547   2.404
51911W        W24204  24.085  40.947  11.058
51912W        W24205  19.597  21.171  10.099
51913W        W24206  22.680  11.158   9.992
51914W        W24207   0.905  37.474   3.819
51915W        W24208   8.721  33.114  12.351
51916W        W24209   6.281   7.774   4.221
51917W        W24210  43.830  33.499   0.897
51918W        W24211  13.332  12.160  12.381
51919W        W24212  11.189  11.325   0.958
51920W        W24213   9.390  12.721   4.837
51921W        W24214  32.024   9.654   3.741
51922W        W24215  41.330  14.665   1.424
51923W        W24216  36.886  16.248  13.984
51924W        W24217  34.528  34.899   0.250
51925W        W24218  17.264  22.572   5.148
51926W        W24219  29.516  15.223   2.825
51927W        W24220  31.988   9.357  12.092
51928W        W24221  36.095  35.965   4.122
51929W        W24222  34.546  34.435  13.960
51930W        W24223   1.750  28.046  11.958
51931W        W24224  19.605   5.208  12.073
51932W        W24225  21.164  14.325   0.316
51933W        W24226  34.535  32.425  13.470
51934W        W24227  31.003   7.816  13.798
51935W        W24228  37.445  20.699   1.228
51936W        W24229   3.318   2.240  13.842
51937W        W24230  42.511  42.789  11.866
51938W        W24231   2.957   2.877  14.492
51939W        W24232  23.207  44.766  11.401
51940W        W24233   3.898  39.984  11.087
51941W        W24234  35.382   6.904   2.292
51942W        W24235  36.897  18.551  13.483
51943W        W24236   8.833  16.616   2.188
51944W        W24237  13.750  32.134   1.916
51945W        W24238  41.831  10.263  13.971
51946W        W24239  25.012  36.549   4.177
51947W        W24240  26.600  38.001   4.291
51948W        W24241   2.381  16.778  13.974
51949W        W24242   8.732  22.718   3.370
51950W        W24243  19.123   0.350  13.917
51951W        W24244  25.608  38.458  11.544
51952W        W24245  30.550  19.671  13.856
51953W        W24246  23.503  28.605  11.970
51954W        W24247  39.969  11.641  12.074
51955W        W24248  28.620  11.839  10.967
51956W        W24249  30.151  27.647  10.573
51957W        W24250   1.958  27.467  11.956
51958W        W24251  42.820  29.538   2.240
51959W        W24252  21.735   9.793  12.847
51960W        W24253   7.787  25.612   1.239
51961W        W24254  41.024  41.815   4.284
51962W        W24255  24.149  22.718  12.088
51963W        W24256  39.531  12.183  14.274
51964W        W24257  18.561  15.187   2.668
51965W        W24258  22.007  39.815   2.888
51966W        W24259  23.062  43.386   1.242
51967W        W24260  24.679  37.380   3.825
51968W        W24261  39.967   8.799  13.334
51969W        W24262  17.749  29.642  10.958
51970W        W24263   9.301   6.232   3.366
51971W        W24264  16.769  40.830   4.770
51972W        W24265  21.177  32.528  14.025
51973W        W24266  44.273  28.593  14.848
51974W        W24267   8.785  31.428   4.648
51975W        W24268  34.928  38.432   3.780
51976W        W24269   3.814  35.909  13.015
51977W        W24270  22.128  21.589   1.766
51978W        W24271   7.852   2.377   0.254
51979W        W24272  29.054  41.989  12.545
51980W        W24273  37.349   8.289   4.273
51981W        W24274   9.269   4.261   0.806
51982W        W24275  23.582  13.190   1.390
51983W        W24276  41.534  42.981  12.532
51984W        W24277  44.899  32.523   0.795
51985W        W24278  31.063  39.981  14.816
51986W        W24279  31.444   4.370   0.769
51987W        W24280  18.551  19.046  11.512
51988W        W24281  44.473  23.038  10.067
51989W        W24282  16.668  41.399  12.986
51990W        W24283   4.289  23.646  10.917
51991W        W24284  15.792  32.951  12.508
51992W        W24285   8.716  17.179   1.731
51993W        W24286   0.939  20.055  14.946
51994W        W24287  17.104  42.967   4.320
51995W        W24288  16.195   6.889  12.355
51996W        W24289   5.765  28.114   1.381
51997W        W24290  33.083   1.816  12.840
51998W        W24291  39.872  40.904   0.469
51999W        W24292  40.451   3.893   1.813
52000W        W24293  35.434  20.620   3.215
52001W        W24294  37.472   5.265   3.305
52002W        W24295  42.381  25.692  12.890
52003W        W24296   9.206  41.911   4.180
52004W        W24297  35.534  21.743   3.322
52005W        W24298   6.816  27.167   2.675
52006W        W24299  38.989  30.993   9.939
52007W        W24300  24.721  10.812  14.783
52008W        W24301  38.474  17.244   4.129
52009W        W24302  41.500  35.458  11.867
52010W        W24303  29.172  23.658  12.844
52011W        W24304  22.622  42.342   1.757
52012W        W24305  43.477  14.222  12.986
52013W        W24306  15.143  25.072   0.911
52014W        W24307   0.319   0.935   1.392
52015W        W24308  34.916  33.460   3.305
52016W        W24309  16.127   9.777   1.929
52017W        W24310  10.865  36.888  11.518
52018W        W24311  22.527   7.828  12.416
52019W        W24312  41.999  24.197  14.899
52020W        W24313   7.215  22.660  11.915
52021W        W24314  19.771   1.763   1.429
52022W        W24315   4.788   4.804   2.399
52023W        W24316  10.645  14.119   4.710
52024W        W24317  25.206  10.363   2.288
52025W        W24318  21.175  21.524   2.402
52026W        W24319  33.952  41.025   1.253
52027W        W24320  30.538   6.715   2.747
52028W        W24321   1.418  22.120  12.017
52029W        W24322  25.166  33.876   4.608
52030W        W24323   8.823  12.680   3.232
52031W        W24324  10.799  11.225  13.052
52032W        W24325  37.914  27.030   3.736
52033W        W24326  22.547  40.531  11.399
52034W        W24327  23.654  15.163  11.890
52035W        W24328  16.271  24.109   2.765
52036W        W24329  39.927  14.289  10.967
52037W        W24330  15.178   4.757  11.405
52038W        W24331  33.496  22.643  14.954
52039W        W24332   4.927   1.817  11.531
52040W        W24333  43.356  43.778  13.849
52041W        W24334  11.161  43.926  13.914
52042W        W24335   2.952   9.283  12.861
52043W        W24336  29.492  27.125   0.375
52044W        W24337  29.527   4.814  13.477
52045W        W24338  35.923  13.133   4.249
52046W        W24339  23.146  16.627   4.309
52047W        W24340   0.433  29.087   2.843
52048W        W24341  18.643  40.393   4.141
52049W        W24342  37.445  42.481  14.762
52050W        W24343   3.783  34.958   0.284
52051W        W24344   4.761   0.274   1.875
52052W        W24345  22.171  18.785  12.048
52053W        W24346  29.088  21.600  10.968
52054W        W24347  29.637  32.078  12.531
52055W        W24348   9.215  27.152   2.873
52056W        W24349  29.519  10.760  13.815
52057W        W24350   1.465  39.373  13.515
52058W        W24351   1.864  33.913  11.527
52059W        W24352  41.307  22.514  14.886
52060W        W24353  21.739  10.250  13.866
52061W        W24354   2.773  39.856  11.064
52062W        W24355  11.336  26.575   0.801
52063W        W24356  40.885  16.278   2.187
52064W        W24357   9.193  27.956   0.916
52065W        W24358   4.918  37.922  11.069
52066W        W24359  25.541  18.744   0.465
52067W        W24360  44.857   4.938  12.009
52068W        W24361  13.168  19.258  14.431
52069W        W24362   0.460  38.850   3.705
52070W        W24363  18.696  37.480  10.022
52071W        W24364  31.621  14.700  10.449
52072W        W24365   9.339  32.596   4.142
52073W        W24366   4.351   0.989   0.439
52074W        W24367  20.767   9.343   4.136
52075W        W24368  20.717  19.273   3.811
52076W        W24369   2.879  31.978   1.336
52077W        W24370   0.327  15.699   0.260
52078W        W24371  26.106   6.189   1.343
52079W        W24372  37.984  36.989   2.236
52080W        W24373   9.360   8.659   2.393
52081W        W24374  40.867  14.314   0.750
52082W        W24375  27.060  30.549   1.400
52083W        W24376   7.343   1.890  13.385
52084W        W24377   7.262  24.053  11.124
52085W        W24378  25.099   5.766  10.933
52086W        W24379  17.604  41.393  14.408
52087W        W24380  17.758  42.890   1.338
52088W        W24381   7.676  32.908   5.699
52089W        W24382  12.281  34.489  10.623
52090W        W24383  13.752  17.191   1.438
52091W        W24384   8.377  36.854   1.254
52092W        W24385  36.909   6.409   0.347
52093W        W24386  40.937  35.359  11.971
52094W        W24387  41.342   8.180   2.193
52095W        W24388  25.636   3.746   5.637
52096W        W24389  20.748  24.563  12.852
52097W        W24390  37.908  43.867   4.333
52098W        W24391  36.887  40.968   4.230
52099W        W24392  34.597  42.800   3.379
52100W        W24393  21.611  25.575  10.443
52101W        W24394   7.764  27.957  11.444
52102W        W24395  41.941  39.489   2.396
52103W        W24396  22.746   4.814   2.725
52104W        W24397   7.333  39.526  14.007
52105W        W24398  10.779  10.167  13.481
52106W        W24399  18.189  23.188  10.603
52107W        W24400  25.651   2.291  10.562
52108W        W24401  34.567   1.905  14.453
52109W        W24402  38.534  31.033   0.889
52110W        W24403   9.747  12.205  14.893
52111W        W24404   7.867  22.233   3.209
52112W        W24405  34.972  32.038  10.642
52113W        W24406  29.970   4.367  11.382
52114W        W24407  41.500   4.900  12.924
52115W        W24408   5.299   3.239  14.012
52116W        W24409  16.697   2.911   1.903
52117W        W24410  10.834   5.424  13.850
52118W        W24411   4.886  32.988  11.462
52119W        W24412  36.541  18.146   1.438
52120W        W24413  23.580  41.386  14.764
52121W        W24414   1.328  21.036   1.212
52122W        W24415  18.603  10.671   1.448
52123W        W24416  25.050  36.465   4.606
52124W        W24417   8.277   9.262  13.357
52125W        W24418  43.015  32.077  12.029
52126W        W24419  11.867  16.088  10.423
52127W        W24420  32.491  14.194   0.956
52128W        W24421  24.707   2.226   3.316
52129W        W24422   4.429  13.197   1.330
52130W        W24423  16.606  18.673   3.803
52131W        W24424  18.655  18.662  12.568
52132W        W24425  39.938  30.970   2.732
52133W        W24426  18.554  37.943   2.185
52134W        W24427   5.332   1.259  11.911
52135W        W24428   2.780  28.972  12.841
52136W        W24429  25.106  36.409  10.491
52137W        W24430   4.337  37.343  11.606
52138W        W24431  35.047  33.457  12.055
52139W        W24432  31.572  39.924   2.257
52140W        W24433  12.791  35.525  14.374
52141W        W24434   7.866  32.088   0.369
52142W        W24435  21.178  37.950  11.943
52143W        W24436  27.572  11.723   2.836
52144W        W24437  20.157  26.954   2.735
52145W        W24438  16.648   5.859   2.182
52146W        W24439   0.451  40.344  10.622
52147W        W24440  15.780  34.615   4.239
52148W        W24441   1.785  39.865  14.376
52149W        W24442  38.066  14.302  12.354
52150W        W24443  24.481   6.203   2.377
52151W        W24444  37.550  26.486   3.787
52152W        W24445  12.287  35.857  13.870
52153W        W24446   3.350   8.889  11.442
52154W        W24447   5.248   9.752  10.424
52155W        W24448  40.435  34.403   1.369
52156W        W24449  29.144  33.090   1.922
52157W        W24450  34.882  43.286  11.922
52158W        W24451   9.227   8.165   3.782
52159W        W24452   9.838  43.833   1.221
52160W        W24453  44.406   6.793  14.344
52161W        W24454  19.104  21.097  10.917
52162W        W24455   3.274   5.749  13.009
52163W        W24456   2.408   3.950   2.237
52164W        W24457  36.883  13.223   1.359
52165W        W24458  26.543  39.524  13.871
52166W        W24459  21.550  20.609   3.697
52167W        W24460  16.215  42.430   4.747
52168W        W24461  31.120  41.497   4.726
52169W        W24462  11.242  28.579  10.614
52170W        W24463  30.572   5.823   0.785
52171W        W24464   6.366  22.665   2.689
52172W        W24465  11.293  31.140  10.614
52173W        W24466   3.724   6.905   2.831
52174W        W24467  30.542  37.413  13.914
52175W        W24468   1.813  36.427  14.950
52176W        W24469  34.414   6.196  14.823
52177W        W24470  12.616  33.491   4.708
52178W        W24471  32.926  30.651  10.429
52179W        W24472  25.018  29.089  13.340
52180W        W24473  42.486   5.819   2.664
52181W        W24474  35.078   0.412  10.949
52182W        W24475  26.189  36.550  12.053
52183W        W24476   9.167   3.290   1.341
52184W        W24477  17.793  13.828   2.854
52185W        W24478  33.528  11.357   4.299
52186W        W24479   5.245  10.272   2.788
52187W        W24480  34.874   5.290  12.906
52188W        W24481  33.045  29.658   4.263
52189W        W24482  25.550  40.985  12.422
52190W        W24483  29.458   1.735  13.056
52191W        W24484   8.328  33.070   2.748
52192W        W24485  18.662  28.064  11.447
52193W        W24486  42.361  41.029   4.126
52194W        W24487  34.026  24.050  11.414
52195W        W24488  13.631   0.881  13.822
52196W        W24489  32.507  41.380  12.072
52197W        W24490  35.033  28.978   0.835
52198W        W24491  12.640   6.262   0.797
52199W        W24492  30.088   4.709   1.357
52200W        W24493   6.791  30.121  12.829
52201W        W24494   6.761  13.229  11.057
52202W        W24495  30.913  18.695   3.677
52203W        W24496  19.621  37.020  14.289
52204W        W24497   3.762  22.086  10.622
52205W        W24498  32.105  18.285   2.842
52206W        W24499  37.360  31.034   0.732
52207W        W24500  41.396  31.079   4.312
52208W        W24501  14.683  34.007   1.723
52209W        W24502  14.328  27.505   4.798
52210W        W24503   4.317  18.598  13.455
52211W        W24504   8.662  33.901   5.628
52212W        W24505  15.139  10.209  12.354
52213W        W24506   2.257  16.726   0.727
52214W        W24507  40.047  42.861   2.408
52215W        W24508   1.762   8.806  11.533
52216W        W24509  24.149   2.394  10.059
52217W        W24510  22.026  37.910   0.875
52218W        W24511   4.240  27.075  10.917
52219W        W24512   3.873   2.764   0.414
52220W        W24513  20.610  30.529   3.656
52221W        W24514   8.173  36.062   5.182
52222W        W24515  22.515  40.314  14.817
52223W        W24516  29.474   9.166  13.935
52224W        W24517  22.615  14.803  12.873
52225W        W24518   1.347  12.633  10.574
52226W        W24519  31.970  27.941  10.471
52227W        W24520  42.305  43.418   4.775
52228W        W24521   5.366  41.817   3.791
52229W        W24522  29.558  35.490  13.981
52230W        W24523  26.954  29.477   4.724
52231W        W24524  10.792  34.521  14.423
52232W        W24525  33.566   1.815  13.389
52233W        W24526  36.534  38.053  11.532
52234W        W24527  36.511   5.388   1.899
52235W        W24528  22.038  27.519  12.351
52236W        W24529  14.783  36.573   3.802
52237W        W24530  44.488  41.803  10.502
52238W        W24531  30.643  10.308  13.514
52239W        W24532  39.342  11.801  11.533
52240W        W24533  17.176  37.502  14.972
52241W        W24534  31.588  41.384   2.296
52242W        W24535  28.587  33.100   3.860
52243W        W24536  30.633   1.312   0.466
52244W        W24537  22.706  26.169  12.862
52245W        W24538  37.424  43.379   1.425
52246W        W24539  29.105  20.188   4.238
52247W        W24540  18.613   4.327  12.436
52248W        W24541   4.433  19.216  10.944
52249W        W24542  25.476  34.588  12.006
52250W        W24543  33.441  12.639   3.635
52251W        W24544  38.459  26.551  14.882
52252W        W24545  38.917   9.153  11.120
52253W        W24546  24.585  27.601   3.838
52254W        W24547   1.283   7.295  13.400
52255W        W24548  21.154   5.789   1.816
52256W        W24549  29.064  22.713  14.356
52257W        W24550   0.445  41.008   3.371
52258W        W24551  10.657   7.386  14.441
52259W        W24552  24.017  33.952  13.859
52260W        W24553  12.744  39.904  11.951
52261W        W24554   1.470  26.040  14.772
52262W        W24555  41.805  31.927  13.917
52263W        W24556   3.714  11.139   0.833
52264W        W24557   4.312   4.754  12.093
52265W        W24558  25.610   1.848  12.899
52266W        W24559  24.024   1.880   9.568
52267W        W24560   7.760   3.271   1.387
52268W        W24561   7.333  40.893   2.312
52269W        W24562  26.129  39.424   3.714
52270W        W24563  42.297  26.131   2.188
52271W        W24564  13.656  28.511   2.824
52272W        W24565  10.346  10.703   1.794
52273W        W24566  33.104  41.466  12.016
52274W        W24567  39.017  29.624   1.865
52275W        W24568  35.975  10.831  12.905
52276W        W24569   3.369  21.226  13.415
52277W        W24570  15.769  34.991   0.391
52278W        W24571   0.266  20.045  10.611
52279W        W24572  26.521   9.793   1.857
52280W        W24573  36.517  26.646  12.090
52281W        W24574  42.332  35.446  11.096
52282W        W24575  12.630  13.287  12.946
52283W        W24576  10.859  31.920   2.891
52284W        W24577   5.394  34.483  12.884
52285W        W24578   2.948   2.441  13.862
52286W        W24579  41.016   7.747   2.771
52287W        W24580   2.839  24.622  11.519
52288W        W24581   0.926   6.399  14.424
52289W        W24582   3.423  30.626  12.981
52290W        W24583   2.951  32.535   2.740
52291W        W24584  26.547   4.270   2.819
52292W        W24585  41.830  35.493   1.410
52293W        W24586  29.553  12.669  11.416
52294W        W24587  25.634  16.163  14.817
52295W        W24588  41.473  36.470  10.962
52296W        W24589  17.206  10.866  12.967
52297W        W24590  24.000  37.981  13.328
52298W        W24591  30.615  14.174   0.935
52299W        W24592  23.575   5.439   4.681
52300W        W24593  29.932   8.662  13.432
52301W        W24594  28.599  44.478  11.462
52302W        W24595  16.774  19.616   1.703
52303W        W24596  11.629   5.722  10.910
52304W        W24597  27.117   1.951   4.628
52305W        W24598   9.240  41.352   1.858
52306W        W24599  37.561  12.240   0.308
52307W        W24600  41.979  38.422  11.996
52308W        W24601  27.661  16.634   3.688
52309W        W24602  32.925  26.545   0.301
52310W        W24603  32.460  32.538  12.898
52311W        W24604  11.149  24.642   4.269
52312W        W24605  42.979   3.305   3.174
52313W        W24606  27.026  14.777   1.349
52314W        W24607   0.798   5.885  14.030
52315W        W24608  11.856  29.935  14.964
52316W        W24609   1.380  27.523  14.946
52317W        W24610  20.551  42.862  14.783
52318W        W24611   2.355  15.150   4.718
52319W        W24612  28.946  39.406  13.414
52320W        W24613  28.569  39.858  10.479
52321W        W24614  36.589  15.152  11.077
52322W        W24615  14.300  37.338  14.331
52323W        W24616  40.936  38.076   3.867
52324W        W24617  20.546  33.058   5.149
52325W        W24618  36.434   4.274   1.792
52326W        W24619   1.895   7.676  14.956
52327W        W24620   9.173  36.544  13.489
52328W        W24621  38.828  32.583  14.777
52329W        W24622  33.384  15.197   3.275
52330W        W24623   4.437  19.581  11.082
52331W        W24624  32.970  13.274  14.510
52332W        W24625  15.755  35.988   0.767
52333W        W24626  15.637  20.553   1.323
52334W        W24627  20.180  30.078   1.315
52335W        W24628  20.264   1.298  10.957
52336W        W24629   4.292  23.646  12.560
52337W        W24630  28.467   8.349   2.713
52338W        W24631  16.282  29.519  10.615
52339W        W24632  11.205  18.136  13.410
52340W        W24633  32.466   5.707  11.989
52341W        W24634  23.632  37.545  12.039
52342W        W24635   4.805  44.303   2.670
52343W        W24636  12.800   8.857  11.025
52344W        W24637  30.048   7.669   1.759
52345W        W24638   3.249  28.655   3.231
52346W        W24639   0.386  10.296  10.458
52347W        W24640  20.128  26.020  11.506
52348W        W24641  23.658  17.105   3.796
52349W        W24642  26.597  40.353  10.417
52350W        W24643  39.496   1.332  12.919
52351W        W24644  26.531  36.926  14.383
52352W        W24645   5.411  18.670  12.866
52353W        W24646   1.795   4.794  14.975
52354W        W24647  44.266  13.244   3.253
52355W        W24648  33.474   3.228  14.852
52356W        W24649   8.170  27.447   4.798
52357W        W24650  17.085  36.066   5.166
52358W        W24651  44.439   8.688  10.939
52359W        W24652  19.183  19.637   1.315
52360W        W24653   0.457  17.252  12.366
52361W        W24654  14.630  15.818   2.816
52362W        W24655   3.828  44.314  11.928
52363W        W24656  11.698  39.450   0.941
52364W        W24657  44.280  20.209   3.742
52365W        W24658  20.129   5.329   2.413
52366W        W24659   1.761  13.178  14.941
52367W        W24660  43.914   4.359  12.020
52368W        W24661  37.513  31.412  14.828
52369W        W24662  16.717  20.039  14.903
52370W        W24663  28.482  31.091  13.917
52371W        W24664  21.242  30.914  13.312
52372W        W24665   8.172  10.302   0.918
52373W        W24666   3.326  11.283   3.258
52374W        W24667  42.438   1.273  13.353
52375W        W24668  29.033  40.304   4.597
52376W        W24669  38.860  31.075  14.810
52377W        W24670  41.958  37.492  12.843
52378W        W24671  38.046  18.073   4.304
52379W        W24672  13.698  24.565   2.779
52380W        W24673  29.982   2.471   2.288
52381W        W24674   0.782  43.297   0.357
52382W        W24675  18.106  28.521   1.800
52383W        W24676  38.485  33.395  12.859
52384W        W24677  18.237  10.851   4.621
52385W        W24678  23.691   6.734   0.775
52386W        W24679   6.429  26.056  11.479
52387W        W24680   9.849  31.983   1.314
52388W        W24681  31.061  42.843   1.287
52389W        W24682  31.506  26.195   4.338
52390W        W24683   2.241  29.586   3.735
52391W        W24684   2.802  34.606  13.896
52392W        W24685   5.337   7.799  13.988
52393W        W24686  42.030  33.035  11.953
52394W        W24687   7.274   6.424  14.873
52395W        W24688   8.385  31.091   2.695
52396W        W24689   0.915  29.106   3.236
52397W        W24690  35.361  11.326   2.415
52398W        W24691  37.894  36.570  14.434
52399W        W24692  13.277  27.965   3.654
52400W        W24693  38.540   2.965   3.305
52401W        W24694  19.229  22.643   0.464
52402W        W24695  26.591  15.708  13.501
52403W        W24696  13.280  36.410   1.830
52404W        W24697  24.165  26.154   3.631
52405W        W24698  21.105   5.903  11.523
52406W        W24699  26.034  30.603  10.479
52407W        W24700  38.409  31.603   4.284
52408W        W24701  14.770  28.544  10.468
52409W        W24702   5.842  12.829  12.823
52410W        W24703  37.864   3.722   0.864
52411W        W24704  36.527  14.106   3.634
52412W        W24705  32.616  12.712  12.833
52413W        W24706   1.867  43.818  10.475
52414W        W24707  41.514  13.730   3.655
52415W        W24708   5.255  21.683   4.597
52416W        W24709  39.951  23.538  10.442
52417W        W24710  41.311  11.678  13.958
52418W        W24711  15.724  24.480  10.439
52419W        W24712  37.033  40.859   1.236
52420W        W24713  43.500  37.969   4.249
52421W        W24714  18.558  23.157   3.629
52422W        W24715  31.509   3.736   1.878
52423W        W24716  12.325   2.860  11.049
52424W        W24717  14.137  20.099  14.918
52425W        W24718   5.764   9.163  14.319
52426W        W24719  21.108  39.501  13.400
52427W        W24720  13.190   7.697  11.384
52428W        W24721  24.689   3.904  11.116
52429W        W24722   0.791   2.252  10.952
52430W        W24723  16.800  19.042  10.575
52431W        W24724  22.724  29.140   0.914
52432W        W24725  28.552  32.076   0.847
52433W        W24726  23.030  31.115  11.970
52434W        W24727  31.947  37.928   5.115
52435W        W24728   2.726  21.087   1.914
52436W        W24729  22.544   2.338  11.874
52437W        W24730  14.809   0.446  14.876
52438W        W24731  11.644  39.367  12.539
52439W        W24732  37.959   2.932   2.255
52440W        W24733  43.002  39.435  12.903
52441W        W24734   3.253  38.526   3.803
52442W        W24735  11.831  17.248  12.474
52443W        W24736  17.677  26.001  14.382
52444W        W24737  37.490   7.821  14.463
52445W        W24738  23.132  34.994  13.324
52446W        W24739  22.557  33.105   0.402
52447W        W24740  16.164  24.580  12.976
52448W        W24741  11.782  25.531   2.285
52449W        W24742   9.370  12.188  12.528
52450W        W24743  34.872   4.882   0.753
52451W        W24744  22.156  21.020  14.767
52452W        W24745  18.756  32.942  12.927
52453W        W24746   7.804  20.728   4.314
52454W        W24747  18.178  25.695  13.495
52455W        W24748   4.287   5.382  11.894
52456W        W24749  43.912  18.059  11.070
52457W        W24750   0.278  35.483   5.159
52458W        W24751  38.038  18.596  13.797
52459W        W24752   2.835  13.766   0.469
52460W        W24753   5.312   2.930   2.771
52461W        W24754  19.128   8.833  13.038
52462W        W24755   0.491  20.532  12.942
52463W        W24756  25.029  43.970   0.823
52464W        W24757  17.625  38.474  10.992
52465W        W24758  25.981  41.006   2.341
52466W        W24759  32.895  43.943  13.320
52467W        W24760  40.363   7.793  12.005
52468W        W24761  17.748  26.073   4.140
52469W        W24762  27.620   7.244  11.873
52470W        W24763  16.160   2.227   4.327
52471W        W24764   3.363   7.823   0.896
52472W        W24765  16.747   1.733  14.340
52473W        W24766   6.820  35.472  12.385
52474W        W24767  25.121   3.441  14.782
52475W        W24768  22.672  37.389   0.822
52476W        W24769  27.586  23.664   9.998
52477W        W24770   4.277  40.411  14.889
52478W        W24771  14.798  15.222  11.571
52479W        W24772   4.220  15.182   1.404
52480W        W24773  15.141   0.250   3.766
52481W        W24774  11.674  13.703  13.345
52482W        W24775  43.772  44.948  11.126
52483W        W24776  43.852  17.775  11.567
52484W        W24777  12.637  16.258  10.968
52485W        W24778  20.693  19.178   0.841
52486W        W24779  18.634  11.643   2.741
52487W        W24780  15.299  17.739   1.447
52488W        W24781  32.508  32.896   4.743
52489W        W24782  31.045  39.371   0.820
52490W        W24783  28.518  37.932   1.341
52491W        W24784  21.205  23.528   4.834
52492W        W24785  36.372  29.038   0.775
52493W        W24786   4.844  33.392   1.728
52494W        W24787   0.433   0.377  10.640
52495W        W24788  30.461  43.274  10.892
52496W        W24789  33.577  13.153  14.972
52497W        W24790  13.282  13.216   3.731
52498W        W24791  38.411   9.809   3.692
52499W        W24792  17.743   2.397   4.693
52500W        W24793  28.035   2.954  11.055
52501W        W24794  38.997   3.418   0.454
52502W        W24795  33.459  25.594  10.443
52503W        W24796  36.913  37.941  10.972
52504W        W24797  39.438  22.208  10.985
52505W        W24798  19.178  11.828  13.908
52506W        W24799  27.950  26.551  10.492
52507W        W24800  10.262  30.034   1.839
52508W        W24801  14.644  41.843  13.438
52509W        W24802  20.221  16.745   2.293
52510W        W24803  25.179  20.210   2.832
52511W        W24804  23.030   2.843  11.916
52512W        W24805  31.953  24.172   4.264
52513W        W24806   0.333  31.423  11.976
52514W        W24807  35.922  20.636  12.367
52515W        W24808  18.052  31.896   2.864
52516W        W24809   4.260  25.059   4.769
52517W        W24810  31.590   2.860   0.411
52518W        W24811  28.088   1.907   0.861
52519W        W24812  20.137  10.302   1.833
52520W        W24813  15.131   3.901  14.006
52521W        W24814  26.499   1.902   1.328
52522W        W24815  41.379  15.104   3.221
52523W        W24816   0.365  18.081  10.898
52524W        W24817  40.047  41.984  12.031
52525W        W24818  13.843  30.475  13.359
52526W        W24819  26.550  16.161   2.262
52527W        W24820  40.480   7.189  13.910
52528W        W24821  27.598  19.534   0.335
52529W        W24822  23.579  33.427   4.287
52530W        W24823  26.090  16.075  11.090
52531W        W24824  15.208  30.021   2.307
52532W        W24825  30.031  29.643  11.920
52533W        W24826  23.188  12.129   0.802
52534W        W24827  36.902  39.440   4.682
52535W        W24828  11.150  38.550   2.862
52536W        W24829  38.861  12.269   3.864
52537W        W24830  32.917  16.281   0.734
52538W        W24831  13.651   2.882   3.374
52539W        W24832   9.351   9.342  11.053
52540W        W24833  24.516  19.039  11.082
52541W        W24834   8.300  10.673   3.350
52542W        W24835  37.387   0.335   2.856
52543W        W24836  28.081  38.404   3.244
52544W        W24837   6.398  18.766  13.816
52545W        W24838  39.363  30.650   2.319
52546W        W24839  15.184  37.486  11.865
52547W        W24840  33.943  28.522  13.431
52548W        W24841   6.809  22.068  11.915
52549W        W24842   0.774  38.354   2.390
52550W        W24843  22.642  21.611   4.336
52551W        W24844  18.269  17.269  13.471
52552W        W24845   9.345  11.668   0.408
52553W        W24846  11.776  10.336   9.953
52554W        W24847  28.117  17.801   4.181
52555W        W24848  44.877   2.419  11.995
52556W        W24849   3.322   5.728   0.271
52557W        W24850  30.485  16.239  10.603
52558W        W24851  32.086   3.234  11.874
52559W        W24852  36.415  14.830  13.448
52560W        W24853  39.428  14.143   0.265
52561W        W24854   6.221   3.352   2.686
52562W        W24855   1.323  39.559  13.052
52563W        W24856  21.590  42.798  10.615
52564W        W24857   5.897   9.700   0.834
52565W        W24858   3.923  15.594  12.443
52566W        W24859  30.982  37.997  12.077
52567W        W24860  16.754  29.149   1.445
52568W        W24861  37.389   3.914   2.687
52569W        W24862  37.509  31.503  12.997
52570W        W24863  40.470   4.821   4.601
52571W        W24864  33.115  10.720  11.511
52572W        W24865  23.213  29.929   3.733
52573W        W24866  35.937   3.342   4.341
52574W        W24867   9.169  26.478  11.397
52575W        W24868  10.745  14.717  12.560
52576W        W24869  35.102   2.814   2.321
52577W        W24870   1.785   7.234   3.376
52578W        W24871  16.700  32.021   2.770
52579W        W24872  44.327  15.098  13.062
52580W        W24873  28.586  28.556   4.782
52581W        W24874  34.893  24.533  10.602
52582W        W24875  42.957  43.911   1.435
52583W        W24876  16.083  41.860  12.403
52584W        W24877  38.878  21.252   5.175
52585W        W24878   0.917  40.377  11.497
52586W        W24879  33.582  42.285   4.148
52587W        W24880  12.201  30.472  13.869
52588W        W24881  17.683   5.913  14.279
52589W        W24882  24.151  14.236  14.305
52590W        W24883  19.120  15.248   2.292
52591W        W24884   3.887  27.559  12.489
52592W        W24885  28.572  29.113  14.961
52593W        W24886  29.072   7.372   3.296
52594W        W24887  39.521  21.123   3.859
52595W        W24888  15.653  43.485   3.312
52596W        W24889  19.206  41.507   3.377
52597W        W24890  38.042  32.564  11.037
52598W        W24891  32.955  35.383  13.950
52599W        W24892   9.793   2.899  14.325
52600W        W24893  19.578  35.097  13.412
52601W        W24894  20.601  23.516  12.525
52602W        W24895   5.784  15.693   3.678
52603W        W24896  35.577  37.490   2.891
52604W        W24897  23.198  19.550   1.422
52605W        W24898  11.648  30.090  12.031
52606W        W24899   2.749  41.424  10.450
52607W        W24900  24.553  12.725   3.155
52608W        W24901  26.693  33.458   0.808
52609W        W24902  35.579  36.882  14.928
52610W        W24903  33.918  15.154   1.314
52611W        W24904   6.327  38.076  10.973
52612W        W24905  34.439  35.905   2.231
52613W        W24906  43.330  39.877  14.478
52614W        W24907  33.012  40.840   1.291
52615W        W24908  29.629  27.657  14.020
52616W        W24909   7.320  22.173   4.722
52617W        W24910  18.178  21.022   1.741
52618W        W24911   3.919  29.428   1.339
52619W        W24912   8.697  27.598  13.953
52620W        W24913  18.145  32.546  13.002
52621W        W24914  16.209  18.088   1.865
52622W        W24915  42.906  20.120   1.398
52623W        W24916  27.034  39.335  13.448
52624W        W24917  12.684  42.914   0.864
52625W        W24918  17.095  31.624  13.058
52626W        W24919  31.938  30.441   2.346
52627W        W24920  42.918  24.506   0.796
52628W        W24921   2.925  44.354  12.383
52629W        W24922  11.717   1.344  11.861
52630W        W24923  25.114  38.945   2.251
52631W        W24924   6.182   7.694   1.800
52632W        W24925  43.498  20.663  12.486
52633W        W24926  18.136  20.145  11.021
52634W        W24927  20.052  31.057   4.256
52635W        W24928  26.021   8.829   2.736
52636W        W24929  23.596  39.975  13.938
52637W        W24930  11.208  13.628   4.755
52638W        W24931  13.213   6.232  13.818
52639W        W24932   9.712  41.506  13.329
52640W        W24933  44.392  23.652   1.737
52641W        W24934   9.716  29.491  11.038
52642W        W24935  18.677  33.893  14.392
52643W        W24936  43.922  32.940   3.652
52644W        W24937  20.650  29.092   2.373
52645W        W24938   5.763   1.799   3.870
52646W        W24939  18.730  15.703  14.846
52647W        W24940  25.541   4.277  10.079
52648W        W24941  11.675  35.103  12.046
52649W        W24942  35.987  17.747   4.262
52650W        W24943  25.634  43.305  10.416
52651W        W24944  36.993  23.185   2.695
52652W        W24945  27.495   4.705  13.328
52653W        W24946  41.467  10.666  14.504
52654W        W24947  10.316  25.177  13.853
52655W        W24948  32.577  25.497  10.492
52656W        W24949  35.906   4.886  12.937
52657W        W24950  42.927  21.574  12.519
52658W        W24951  37.456  26.964   3.841
52659W        W24952  17.747  40.420  13.024
52660W        W24953   5.850  44.481   4.805
52661W        W24954   0.955  42.984   3.765
52662W        W24955  42.817  35.973   9.934
52663W        W24956  37.837  26.056  14.499
52664W        W24957   0.930  20.103  13.793
52665W        W24958  20.733  11.324  14.402
52666W        W24959  39.898  22.215   4.626
52667W        W24960  22.239   4.251  14.448
52668W        W24961  39.463  17.142   1.293
52669W        W24962   0.860   0.952   9.983
52670W        W24963  38.837  13.183   4.217
52671W        W24964  13.615  21.615  14.989
52672W        W24965  17.154  34.911   4.777
52673W        W24966  16.300  23.629  10.999
52674W        W24967  39.395  25.503  11.563
52675W        W24968  42.343  17.248   4.202
52676W        W24969  35.387  40.965   4.145
52677W        W24970  43.846  27.173  12.453
52678W        W24971  26.581  44.263  13.010
52679W        W24972   2.232  39.824   4.771
52680W        W24973  43.332  21.115  14.822
52681W        W24974  10.648  33.934   0.777
52682W        W24975  13.654   2.237  12.475
52683W        W24976  41.398  31.541  13.952
52684W        W24977  34.019  41.846   3.152
52685W        W24978  13.200  23.533   3.641
52686W        W24979  35.032   2.755  11.538
52687W        W24980  34.499  26.568   3.253
52688W        W24981  26.023  22.251   3.766
52689W        W24982  40.021  41.936  13.337
52690W        W24983   8.287  16.296  12.400
52691W        W24984  29.650   5.723   2.419
52692W        W24985   6.233  28.047   2.371
52693W        W24986   4.699  24.181   4.155
52694W        W24987  30.071  25.660   4.762
52695W        W24988  10.338  41.842   0.390
52696W        W24989  10.786   7.408   4.285
52697W        W24990  36.586  26.048  13.878
52698W        W24991  35.580  37.339   1.275
52699W        W24992   4.260  39.367   4.336
52700W        W24993  35.508   1.293   0.928
52701W        W24994  13.128  34.895   0.739
52702W        W24995   0.431  44.999   2.304
52703W        W24996   8.823  28.661  12.912
52704W        W24997   5.707  23.614   0.477
52705W        W24998   2.901  30.469   3.701
52706W        W24999  36.545  34.950  10.464
52707W        W25000  31.613  13.349  13.999
52708W        W25001  29.139  16.169   0.425
52709W        W25002  18.670  17.556   1.220
52710W        W25003  33.884  32.022  13.999
52711W        W25004  37.005  13.328   1.697
52712W        W25005  39.449  14.778   0.378
52713W        W25006  13.812  36.940  13.983
52714W        W25007   6.881  25.962  11.012
52715W        W25008  44.869  20.675   1.716
52716W        W25009  35.865  20.549  14.800
52717W        W25010   6.395  18.088   0.730
52718W        W25011  31.512   7.399   2.187
52719W        W25012  12.844  25.095  13.889
52720W        W25013   0.971   0.468  11.459
52721W        W25014  11.797  26.147   2.254
52722W        W25015  34.396  13.112   3.372
52723W        W25016  23.566  43.900  11.052
52724W        W25017   4.739  15.700  11.410
52725W        W25018  33.619   5.204   1.307
52726W        W25019  34.415   5.252   3.147
52727W        W25020  21.113   3.826   3.642
52728W        W25021  39.454  24.156   2.811
52729W        W25022  14.163  43.367  13.893
52730W        W25023  18.279  24.147  14.760
52731W        W25024  43.826  43.426  12.966
52732W        W25025  28.597  44.835  12.397
52733W        W25026   4.334  34.924  11.113
52734W        W25027  25.131  22.646   3.340
52735W        W25028   4.351  32.462   0.790
52736W        W25029  10.813  37.509  11.075
52737W        W25030   2.254  10.241   3.227
52738W        W25031  41.000  41.295  13.995
52739W        W25032   5.239   5.764   1.302
52740W        W25033  17.132  33.970   1.712
52741W        W25034   7.692  10.292   0.767
52742W        W25035  27.072  28.938  10.535
52743W        W25036  43.770  30.045  14.278
52744W        W25037  44.360   7.216   2.779
52745W        W25038  17.571  22.596   4.836
52746W        W25039  43.917   4.732  11.591
52747W        W25040  31.006  14.714  14.807
52748W        W25041  21.198  34.951   1.787
52749W        W25042   1.469  22.062   4.679
52750W        W25043  16.672  30.639  11.503
52751W        W25044  29.624   1.366   4.671
52752W        W25045   8.730   2.875  13.885
52753W        W25046  38.846  10.155   0.764
52754W        W25047  37.341  23.568   2.804
52755W        W25048   2.768  40.346  11.054
52756W        W25049   5.880  27.629   3.368
52757W        W25050   1.805  25.162  13.428
52758W        W25051  22.057  29.042   4.139
52759W        W25052  13.631  27.479   3.737
52760W        W25053  33.067   2.908  11.985
52761W        W25054  34.608   0.273  12.011
52762W        W25055  15.241   5.207   1.854
52763W        W25056  10.322  26.549  11.053
52764W        W25057  42.952  30.659   2.307
52765W        W25058  26.474  25.649   0.754
52766W        W25059  39.066  39.468  12.908
52767W        W25060  44.403   3.411   4.758
52768W        W25061  15.277   6.819   0.964
52769W        W25062  22.201  37.944  14.759
52770W        W25063  29.976  36.502   3.667
52771W        W25064  29.166  39.945   0.309
52772W        W25065  17.094  16.255   4.219
52773W        W25066   7.738  37.493  13.054
52774W        W25067  31.444  10.216   4.808
52775W        W25068  16.105   0.340   2.812
52776W        W25069  22.087  29.010  12.949
52777W        W25070   8.209  34.081   5.122
52778W        W25071  36.074   4.896  14.452
52779W        W25072   5.747   7.207  14.011
52780W        W25073  33.041  32.494  14.989
52781W        W25074  16.143  19.662   2.848
52782W        W25075   3.387  42.434  14.308
52783W        W25076  21.715  24.566  13.854
52784W        W25077  25.059   8.788   0.966
52785W        W25078  41.306  13.649   0.815
52786W        W25079  15.247  23.610   4.316
52787W        W25080  16.279  36.081  12.075
52788W        W25081  31.577   1.340  12.532
52789W        W25082  43.442   4.259   3.160
52790W        W25083  35.427  42.833   3.290
52791W        W25084  21.604  34.511  13.545
52792W        W25085  36.042  27.965   4.679
52793W        W25086  12.791  28.544   0.818
52794W        W25087  24.568  25.541   1.877
52795W        W25088  39.557  15.267  13.809
52796W        W25089  13.209  27.465   3.642
52797W        W25090  28.489   0.971   3.657
52798W        W25091  27.546  15.740   2.673
52799W        W25092  10.720  41.990  14.999
52800W        W25093  40.920  26.668   4.276
52801W        W25094  34.555  12.248  10.890
52802W        W25095   6.778  40.389   1.810
52803W        W25096  41.394  42.941  13.384
52804W        W25097   7.762  10.638  13.930
52805W        W25098  14.253  40.472  10.570
52806W        W25099  39.852  44.400  13.329
52807W        W25100  10.790   5.817  11.950
52808W        W25101  35.928   0.406   3.354
52809W        W25102   9.862  25.556  14.376
52810W        W25103   8.865  44.806  10.621
52811W        W25104  20.120  12.721   3.639
52812W        W25105  18.649  37.890   4.201
52813W        W25106  16.693   7.357   1.410
52814W        W25107  39.953  32.988   3.737
52815W        W25108  23.572  41.467   4.740
52816W        W25109   7.406  27.517  10.448
52817W        W25110  42.303  19.623  12.068
52818W        W25111   8.855  41.000   3.725
52819W        W25112   5.360  22.694   3.726
52820W        W25113  22.082  36.934   1.372
52821W        W25114  43.962   5.360  11.066
52822W        W25115  16.801  12.786   4.292
52823W        W25116  35.044  37.969   3.651
52824W        W25117   5.345  22.997  12.525
52825W        W25118  30.057  13.756  13.445
52826W        W25119  32.612  20.739  13.010
52827W        W25120   9.783  37.502   3.651
52828W        W25121  33.618  20.055   4.331
52829W        W25122  29.542  37.480   2.418
52830W        W25123  39.044   5.762   4.314
52831W        W25124  22.066   0.403   3.189
52832W        W25125   5.429  19.058  12.963
52833W        W25126  26.509  41.899  14.346
52834W        W25127  37.571  39.015   3.248
52835W        W25128  42.481  23.642  11.895
52836W        W25129  21.027  19.690   0.333
52837W        W25130  20.167  14.313   0.892
52838W        W25131  36.929   5.261  13.374
52839W        W25132  37.498  32.139  11.085
52840W        W25133  35.566  35.378  12.052
52841W        W25134  14.103   8.771  11.058
52842W        W25135  28.623  18.202   0.380
52843W        W25136  15.749  14.777  13.851
52844W        W25137  35.398  35.019   4.830
52845W        W25138  19.561  36.400  12.063
52846W        W25139  42.843  15.234   0.393
52847W        W25140  17.564  30.146  11.502
52848W        W25141  10.266  12.763  13.834
52849W        W25142   0.836  32.491  13.400
52850W        W25143  23.585  19.626   2.895
52851W        W25144  15.185  34.973   3.360
52852W        W25145   5.723  34.081  14.951
52853W        W25146  43.350   7.177   5.164
52854W        W25147  12.227  22.013   4.263
52855W        W25148  12.238  29.065   3.322
52856W        W25149   8.229  40.822  13.381
52857W        W25150  30.161   9.714   2.697
52858W        W25151  24.117  14.196   5.183
52859W        W25152  41.437   1.934  10.403
52860W        W25153  22.635  17.151  13.368
52861W        W25154  29.651  17.681   1.415
52862W        W25155  31.045  10.239  13.898
52863W        W25156  27.135   5.811   0.460
52864W        W25157  37.353  37.948  14.996
52865W        W25158   4.728  25.590   3.656
52866W        W25159  17.226  28.976  11.952
52867W        W25160   9.302   1.893  10.968
52868W        W25161  22.110  21.087   2.762
52869W        W25162  27.627  39.965   2.754
52870W        W25163  10.262  20.188  12.515
52871W        W25164  38.041  27.606   2.859
52872W        W25165  20.050  14.151  12.046
52873W        W25166  23.573  42.865  14.938
52874W        W25167  10.234  43.302   3.676
52875W        W25168  32.515  10.752   5.683
52876W        W25169  35.011  42.972   1.399
52877W        W25170  22.104   5.402   1.329
52878W        W25171  44.818  36.367   3.660
52879W        W25172  41.980  44.299   2.864
52880W        W25173  30.486   5.322   2.874
52881W        W25174  22.158   9.232   1.696
52882W        W25175  16.266  11.726   3.260
52883W        W25176  32.035   8.251   0.338
52884W        W25177   4.375  16.765   4.815
52885W        W25178  13.137  41.869   0.755
52886W        W25179  31.434  29.082  13.410
52887W        W25180   9.877  27.068   2.880
52888W        W25181  10.677  10.197   2.802
52889W        W25182  22.500  21.583  14.384
52890W        W25183   0.853  10.878  13.493
52891W        W25184  12.338  14.763   2.871
52892W        W25185   5.255   2.796   4.289
52893W        W25186  23.206   1.831   5.291
52894W        W25187   8.226   9.237  10.924
52895W        W25188  15.127  29.486  12.391
52896W        W25189   2.820  24.987   0.912
52897W        W25190   9.347  43.987   1.754
52898W        W25191  10.846  31.598  13.804
52899W        W25192  12.664  27.617   2.743
52900W        W25193  37.018  18.639   4.764
52901W        W25194  34.543  17.584  13.377
52902W        W25195  19.577  22.181   1.221
52903W        W25196  23.581  20.149  12.572
52904W        W25197   5.388  14.293   0.452
52905W        W25198  36.574  26.018  14.944
52906W        W25199  10.296  42.026  12.857
52907W        W25200  33.573  22.204  12.983
52908W        W25201  14.747  18.782  14.987
52909W        W25202  34.943  22.052  10.459
52910W        W25203  21.606  39.395  11.566
52911W        W25204  38.040  17.714   0.739
52912W        W25205  37.054   1.390  14.466
52913W        W25206   4.883  29.933   1.698
52914W        W25207  27.093   4.789   1.727
52915W        W25208  40.488  15.082   3.385
52916W        W25209  40.493  31.015  12.424
52917W        W25210   3.397   9.664   3.181
52918W        W25211  11.341  28.186  12.519
52919W        W25212   3.316  12.227   4.200
52920W        W25213  15.181   2.253   0.340
52921W        W25214   8.701  11.194  12.870
52922W        W25215  18.756  30.163  12.868
52923W        W25216   0.913  23.079  11.079
52924W        W25217  29.124  40.947   2.209
52925W        W25218  15.151  34.046  13.436
52926W        W25219  25.536  35.457  10.954
52927W        W25220  33.605  31.517   1.449
52928W        W25221  42.362  17.279  14.004
52929W        W25222   6.205   7.256   2.293
52930W        W25223   5.435   0.912   4.709
52931W        W25224   6.853  42.979  10.590
52932W        W25225  21.726  31.586   3.829
52933W        W25226  34.881  28.166   2.178
52934W        W25227  33.953  21.195  12.891
52935W        W25228  26.586   6.274   2.710
52936W        W25229  23.693  15.815  14.375
52937W        W25230   9.176  31.515  12.499
52938W        W25231  24.613  16.694   1.291
52939W        W25232  40.398   8.191   2.412
52940W        W25233   2.853   8.732  12.016
52941W        W25234  12.339   9.181   1.443
52942W        W25235   8.343   7.174   1.879
52943W        W25236  17.234  11.127  12.040
52944W        W25237  28.941  41.825   1.876
52945W        W25238  25.476   5.331   5.101
52946W        W25239  43.811   5.295   1.427
52947W        W25240  44.962   8.668   4.704
52948W        W25241   8.816  14.336  13.956
52949W        W25242   4.863  30.964   3.856
52950W        W25243  34.488  39.419  10.971
52951W        W25244   4.934  28.485  10.626
52952W        W25245  16.572  38.569   0.460
52953W        W25246   3.384  25.040   2.311
52954W        W25247  32.620   5.252  13.528
52955W        W25248  22.165  26.075   4.124
52956W        W25249  34.523  29.131  12.343
52957W        W25250  16.260  12.775   3.217
52958W        W25251  22.152  37.010  13.799
52959W        W25252  24.095  40.519   2.243
52960W        W25253  22.996   8.401  12.825
52961W        W25254  28.103  35.934   1.857
52962W        W25255   6.902  29.063   4.762
52963W        W25256  43.797   1.788   1.277
52964W        W25257  33.036  28.642  14.803
52965W        W25258  36.964   5.745   2.771
52966W        W25259   8.804   7.799   1.277
52967W        W25260  44.314  20.623  12.977
52968W        W25261   0.831  22.702   4.171
52969W        W25262   9.647  31.523   3.253
52970W        W25263  35.023  23.638  11.483
52971W        W25264   6.235  13.736   3.756
52972W        W25265  30.941  32.018  10.055
52973W        W25266  14.205  25.515   3.188
52974W        W25267  38.895   7.190   3.857
52975W        W25268  25.710   3.863  10.502
52976W        W25269  34.516   5.291   0.878
52977W        W25270  11.192  26.192   3.741
52978W        W25271   4.394  42.820  14.387
52979W        W25272  37.835   7.224  13.398
52980W        W25273  27.001  17.175   1.829
52981W        W25274  24.586  13.833  11.528
52982W        W25275  37.391  35.027   1.385
52983W        W25276  22.560  44.832   1.424
52984W        W25277  19.666   0.442  11.044
52985W        W25278  34.582  17.651  11.514
52986W        W25279  14.112  39.955  13.484
52987W        W25280  21.161  30.010   1.223
52988W        W25281  11.845   7.394  12.423
52989W        W25282  36.488  21.247   3.694
52990W        W25283  16.768  11.832  10.892
52991W        W25284   4.434   3.417   3.209
52992W        W25285  16.672  14.690   3.167
52993W        W25286  30.915  42.891   0.929
52994W        W25287  26.150  20.101  12.536
52995W        W25288  23.128  31.505   3.638
52996W        W25289  36.380  41.472   2.383
52997W        W25290   5.276   3.846  13.941
52998W        W25291  38.937   6.757   0.730
52999W        W25292  16.808  27.579  13.520
53000W        W25293  11.289  27.490  11.526
53001W        W25294  10.668  23.585  11.099
53002W        W25295  33.531   6.273  12.345
53003W        W25296  44.841  37.412  11.128
53004W        W25297  44.301  12.280  10.578
53005W        W25298   2.728  22.094  14.428
53006W        W25299  27.474   7.766  12.051
53007W        W25300  37.903  31.474   0.290
53008W        W25301  29.173  36.553   3.372
53009W        W25302  12.158  41.392   3.191
53010W        W25303  36.854   7.692  13.441
53011W        W25304   5.841   9.872  12.932
53012W        W25305  28.065  18.602  13.317
53013W        W25306  13.728  11.861  12.916
53014W        W25307  27.075   9.328  10.425
53015W        W25308  28.456  34.986  14.819
53016W        W25309  10.270  16.210   1.930
53017W        W25310  19.227  39.851   0.944
53018W        W25311  24.686  26.056  14.304
53019W        W25312  10.363  11.161   3.704
53020W        W25313   8.364   7.734  14.510
53021W        W25314  22.733  22.055  10.593
53022W        W25315  36.436   7.282  13.954
53023W        W25316  29.028  44.348  10.904
53024W        W25317   8.812  27.950  14.979
53025W        W25318  12.817  22.537   2.350
53026W        W25319  22.515  10.692  11.398
53027W        W25320  25.468   0.752  13.811
53028W        W25321  38.882  27.541   3.737
53029W        W25322  29.661   8.363   5.184
53030W        W25323  23.098  24.495   4.663
53031W        W25324   9.820  33.534   0.731
53032W        W25325  42.493  31.082   1.865
53033W        W25326   2.894  37.084  13.010
53034W        W25327  40.382  19.736  14.304
53035W        W25328  35.472  22.662  13.022
53036W        W25329  16.751   7.297   2.819
53037W        W25330  16.714   9.881   2.669
53038W        W25331  21.100  18.230  12.849
53039W        W25332  41.361  29.112  11.124
53040W        W25333   2.353  13.813  13.817
53041W        W25334  36.085  13.719   4.246
53042W        W25335   0.472   2.416  10.615
53043W        W25336  14.262  34.045  11.115
53044W        W25337  24.124  41.491   4.674
53045W        W25338   8.743   9.354   2.385
53046W        W25339  41.929  32.914   2.224
53047W        W25340  23.727  41.328  13.994
53048W        W25341  27.066  35.502  13.968
53049W        W25342  15.193  11.667  10.551
53050W        W25343   4.208   0.845  10.573
53051W        W25344  31.903  13.110   2.282
53052W        W25345  31.514  17.587  10.636
53053W        W25346  34.499  41.306   2.196
53054W        W25347   1.913   7.862  11.446
53055W        W25348  24.227  16.719  14.968
53056W        W25349  39.437  43.509  11.516
53057W        W25350  34.489   0.983  11.976
53058W        W25351  30.013  14.713   4.825
53059W        W25352  31.118  20.245  10.509
53060W        W25353  24.717  14.323  14.436
53061W        W25354  33.485  19.168  14.901
53062W        W25355  32.461  17.801  14.792
53063W        W25356  30.534  36.449  14.498
53064W        W25357  24.168  21.241  14.350
53065W        W25358   3.237  10.862  14.287
53066W        W25359  37.900   3.260  14.921
53067W        W25360   0.968  25.968  11.453
53068W        W25361   5.375  14.116   4.340
53069W        W25362  39.327  33.436   2.290
53070W        W25363  44.442  35.004   2.675
53071W        W25364  29.169  12.308  12.990
53072W        W25365  20.233  31.120   3.699
53073W        W25366  10.163  15.582  12.515
53074W        W25367  43.487  30.536   0.872
53075W        W25368  25.116  10.144  13.418
53076W        W25369  18.707  19.217  14.400
53077W        W25370  42.296  35.961  11.977
53078W        W25371  32.450  32.943  13.471
53079W        W25372   4.843  36.951  10.413
53080W        W25373   3.431   4.214   4.624
53081W        W25374   8.706   8.825   0.427
53082W        W25375  33.607   3.287   3.770
53083W        W25376  20.768  13.298  10.601
53084W        W25377   2.427   8.805   1.274
53085W        W25378  17.767  22.048   0.773
53086W        W25379  26.979  32.885   4.158
53087W        W25380  27.559  22.668   3.277
53088W        W25381   8.840  32.421   0.474
53089W        W25382  17.137  40.330   1.251
53090W        W25383  10.869  38.442  13.054
53091W        W25384  13.657  34.448   3.754
53092W        W25385   1.873  40.356   5.313
53093W        W25386   9.753  39.316  10.542
53094W        W25387  11.801   2.927   4.218
53095W        W25388  11.646  34.602  14.805
53096W        W25389  18.640  26.464  12.405
53097W        W25390  11.133  18.225  14.306
53098W        W25391   6.343  17.221   5.129
53099W        W25392   5.283  10.329  13.368
53100W        W25393  31.503  30.593  13.475
53101W        W25394   4.779  39.522  10.605
53102W        W25395   0.405  30.474   2.248
53103W        W25396  14.247   8.704  14.876
53104W        W25397   8.753  44.797   2.791
53105W        W25398  13.772   9.768  12.091
53106W        W25399  44.773   8.834  14.344
53107W        W25400  22.708  24.990   2.780
53108W        W25401  16.712  34.442   0.377
53109W        W25402  29.544  29.147  10.074
53110W        W25403  21.562  12.857   0.359
53111W        W25404  43.310  24.115  11.562
53112W        W25405  30.088  21.742   0.260
53113W        W25406  29.483   1.750   0.329
53114W        W25407  21.719   6.232  12.440
53115W        W25408  33.465  42.968  11.034
53116W        W25409  31.146   5.848   0.248
53117W        W25410  37.343   3.861  11.496
53118W        W25411  12.154  12.755  12.868
53119W        W25412  23.124   3.314  14.502
53120W        W25413   7.389  19.221  10.605
53121W        W25414  13.242   5.399   4.271
53122W        W25415  37.418   2.871  12.968
53123W        W25416  41.876  37.868   0.844
53124W        W25417  19.157  29.138  11.961
53125W        W25418   3.352  24.574   4.694
53126W        W25419  42.363  23.614  13.347
53127W        W25420  36.095  44.364   2.206
53128W        W25421  18.645  16.658   2.894
53129W        W25422  35.875  10.321  12.892
53130W        W25423  37.364  44.818   4.691
53131W        W25424   2.759  14.154   2.897
53132W        W25425  17.683  37.484   0.467
53133W        W25426   7.201  23.047  12.556
53134W        W25427  34.024  44.269   2.311
53135W        W25428  25.197  39.511  14.761
53136W        W25429  34.010  31.567   1.806
53137W        W25430  19.751  15.622  11.574
53138W        W25431  11.798  30.543  13.530
53139W        W25432  36.024  23.727   3.285
53140W        W25433  17.268  12.345  11.413
53141W        W25434  17.110  10.280  11.389
53142W        W25435  22.234   2.227   2.236
53143W        W25436  29.472  39.869  13.863
53144W        W25437  36.976   4.303   2.206
53145W        W25438  31.135  39.559   0.283
53146W        W25439   5.757  31.896  14.768
53147W        W25440  33.961  10.150  12.900
53148W        W25441  38.559  13.662  14.841
53149W        W25442  26.072  18.785   1.306
53150W        W25443   6.293  31.096  13.990
53151W        W25444   2.928  19.082  10.498
53152W        W25445  30.518  37.882  12.513
53153W        W25446  20.574  32.967   1.365
53154W        W25447  23.628   8.372   1.330
53155W        W25448  42.297   7.266  12.442
53156W        W25449   2.260  11.749   0.361
53157W        W25450  24.130  39.467   3.630
53158W        W25451   2.929  37.430  14.905
53159W        W25452  33.532   2.458   2.305
53160W        W25453  22.550  44.417   2.662
53161W        W25454  16.670  35.396  10.544
53162W        W25455  44.818  36.373  13.034
53163W        W25456  27.122  34.070   3.153
53164W        W25457  10.350  11.684  11.051
53165W        W25458   7.254  42.511   2.877
53166W        W25459  27.580  44.777  12.029
53167W        W25460  15.584  44.801  10.998
53168W        W25461   8.192  32.894   1.811
53169W        W25462   7.397  33.964  10.471
53170W        W25463  41.526  11.280  13.825
53171W        W25464  10.725  42.448   4.629
53172W        W25465   5.734  12.800   2.415
53173W        W25466  14.159  42.474   1.861
53174W        W25467  18.151  44.858   3.650
53175W        W25468   5.897  43.790  14.777
53176W        W25469  40.824  23.182  14.372
53177W        W25470   4.778  39.461  11.533
53178W        W25471   3.305  30.924  12.932
53179W        W25472  25.140  35.542  10.541
53180W        W25473   1.972   5.362   3.771
53181W        W25474  38.378  26.671   4.772
53182W        W25475  37.383  27.501   4.767
53183W        W25476  28.629  11.199   0.408
53184W        W25477  34.467  13.352   2.840
53185W        W25478  19.656  10.736   2.334
53186W        W25479  13.218  27.496  12.080
53187W        W25480   3.881  12.685  11.104
53188W        W25481   0.852  39.321   4.324
53189W        W25482  29.533  23.077   0.812
53190W        W25483  17.093  24.985  14.436
53191W        W25484  39.380  25.206  14.929
53192W        W25485  30.544  38.546  14.446
53193W        W25486  27.638  28.078  10.985
53194W        W25487   6.698  33.977  14.516
53195W        W25488  11.223  22.212   1.694
53196W        W25489  38.327  35.925   1.821
53197W        W25490  33.510   4.893   3.727
53198W        W25491  12.293  28.557   3.773
53199W        W25492   8.715  16.589  13.331
53200W        W25493  10.316   0.745   2.766
53201W        W25494  44.404  14.283   3.650
53202W        W25495  37.841  25.081  14.413
53203W        W25496  19.176  32.612   2.366
53204W        W25497  17.182   8.828  13.955
53205W        W25498  20.051  11.351   3.296
53206W        W25499  19.277  41.340  12.348
53207W        W25500  14.107  34.514  14.391
53208W        W25501   8.835  35.925  14.406
53209W        W25502  27.687  11.292   2.232
53210W        W25503   4.419  38.543  13.877
53211W        W25504  18.188   0.357   0.726
53212W        W25505  26.495   1.779   9.988
53213W        W25506  33.117  38.950  13.849
53214W        W25507  15.775  32.399  10.462
53215W        W25508   5.820  12.362   0.883
53216W        W25509  12.796   9.841   4.306
53217W        W25510  44.353  41.800   2.187
53218W        W25511  28.038   0.824  14.978
53219W        W25512  31.920  31.608  14.378
53220W        W25513  44.841  42.878   9.987
53221W        W25514  15.823  13.129   1.876
53222W        W25515   0.313   8.292   1.831
53223W        W25516  29.161   5.715   4.623
53224W        W25517  18.053   9.153  11.407
53225W        W25518   8.819  23.671   0.900
53226W        W25519   8.679  29.649   3.640
53227W        W25520  44.878  39.974  10.598
53228W        W25521  18.248   6.795   2.830
53229W        W25522  40.418  14.250  12.550
53230W        W25523  41.804   5.707   4.256
53231W        W25524  25.639  27.022  14.781
53232W        W25525  20.752  16.673   0.347
53233W        W25526  28.681  26.153  12.538
53234W        W25527   1.330  25.068  12.052
53235W        W25528  13.731  43.489   1.413
53236W        W25529   5.285   7.185  13.450
53237W        W25530   8.364  37.541  12.053
53238W        W25531  23.665  43.949   3.865
53239W        W25532  35.464  34.961  13.338
53240W        W25533   2.864  15.084  13.923
53241W        W25534  21.081  23.115   1.307
53242W        W25535   2.411  36.971   0.245
53243W        W25536  19.641   3.300   2.727
53244W        W25537  39.473  29.944  12.363
53245W        W25538  31.440  14.110  11.382
53246W        W25539  31.054  32.136  12.373
53247W        W25540  44.859  41.465  12.477
53248W        W25541   6.715  25.083   4.275
53249W        W25542   5.281  21.099   3.744
53250W        W25543  23.703  36.994   4.213
53251W        W25544  33.950  19.176   0.862
53252W        W25545  15.582  27.467  12.476
53253W        W25546  19.071  41.036   3.634
53254W        W25547  20.538   7.741  14.983
53255W        W25548  42.349  25.981   0.447
53256W        W25549  16.718  27.174   3.712
53257W        W25550  27.116  23.530  10.131
53258W        W25551  12.135  25.209   1.900
53259W        W25552  33.088  44.458  11.568
53260W        W25553   5.275   6.209  10.902
53261W        W25554   9.201  39.953   4.723
53262W        W25555   5.409  35.910  11.042
53263W        W25556  32.885   2.757  13.423
53264W        W25557  16.705  10.779  13.999
53265W        W25558   0.903   1.933  13.962
53266W        W25559  20.605   9.695   2.718
53267W        W25560   7.228  33.981   0.242
53268W        W25561   3.393  32.428   4.335
53269W        W25562  44.500  12.620   3.215
53270W        W25563  25.695   4.773   5.765
53271W        W25564   4.235  11.840  14.399
53272W        W25565  13.728  36.365   0.376
53273W        W25566  39.388  19.231  13.904
53274W        W25567  38.897   7.400  12.839
53275W        W25568   3.265   3.853  10.963
53276W        W25569  21.597   5.410   1.422
53277W        W25570  17.206   7.737   0.257
53278W        W25571  40.010  14.337  12.573
53279W        W25572  32.546  12.277   4.301
53280W        W25573  40.974   9.813   2.687
53281W        W25574  13.823   7.232  10.457
53282W        W25575   4.338   3.397   4.211
53283W        W25576   9.204  21.640   0.259
53284W        W25577  22.650  35.867  13.425
53285W        W25578   4.942  14.647   0.264
53286W        W25579  28.011  23.668   2.895
53287W        W25580  38.436  19.124   4.196
53288W        W25581  23.189  12.644  13.906
53289W        W25582  44.794   1.392   4.346
53290W        W25583  28.952  12.222   4.247
53291W        W25584  17.719  17.672   3.204
53292W        W25585   5.769  40.429  12.009
53293W        W25586  24.503  13.307   0.961
53294W        W25587  10.187  32.028  11.881
53295W        W25588  40.323  34.015   2.791
53296W        W25589  13.683  40.926   0.261
53297W        W25590   3.305  18.294  11.873
53298W        W25591   3.353  14.173   1.429
53299W        W25592  27.483   0.329  12.067
53300W        W25593  11.833   6.206   2.861
53301W        W25594  17.595  19.227   4.766
53302W        W25595   7.299  29.563   2.385
53303W        W25596  33.538   9.246  13.514
53304W        W25597  41.329  32.548  13.463
53305W        W25598  11.851  25.117  11.886
53306W        W25599  42.432   6.420   3.800
53307W        W25600   6.687  19.752  11.433
53308W        W25601  32.014   5.779   1.834
53309W        W25602  19.606   5.421   3.150
53310W        W25603  24.041  12.243  11.129
53311W        W25604  43.504  26.073   0.880
53312W        W25605  40.473  14.234  14.493
53313W        W25606  39.815   6.693  12.851
53314W        W25607  18.594  39.411   3.779
53315W        W25608  11.251  28.659  11.879
53316W        W25609  36.047  33.475   0.274
53317W        W25610  20.585  25.209   4.597
53318W        W25611  11.361  14.637  10.538
53319W        W25612   7.888  16.159  11.906
53320W        W25613  24.493  21.741  12.534
53321W        W25614  44.354  12.163  10.991
53322W        W25615  16.082   7.690   4.816
53323W        W25616  42.999  33.587   3.810
53324W        W25617   7.705  23.490   4.229
53325W        W25618  22.109  20.145   0.260
53326W        W25619  26.612   5.305  10.540
53327W        W25620  41.823  42.025   0.865
53328W        W25621  15.683   1.469   1.721
53329W        W25622  32.536  16.577   2.247
53330W        W25623  23.220  19.560   4.714
53331W        W25624  29.970   7.334   2.766
53332W        W25625  14.236   1.363  12.830
53333W        W25626   0.448  43.367  12.478
53334W        W25627  12.822   2.250  10.606
53335W        W25628  26.079  36.058   4.138
53336W        W25629  10.227  24.226  12.495
53337W        W25630  28.040  26.160  12.081
53338W        W25631   5.865  44.372  12.879
53339W        W25632   2.769  33.623  13.419
53340W        W25633  40.989  37.517   0.255
53341W        W25634  13.191  20.562  12.365
53342W        W25635  23.044  39.507   4.166
53343W        W25636  42.440  10.782   4.173
53344W        W25637  12.227   4.700  13.805
53345W        W25638  12.287  21.109   4.688
53346W        W25639  29.582  11.730  13.855
53347W        W25640  17.708  22.046   2.216
53348W        W25641  29.482   7.309   3.732
53349W        W25642  35.546  32.401   1.926
53350W        W25643  13.348   8.375   2.765
53351W        W25644  17.657  24.611  10.419
53352W        W25645  41.044   8.668  12.064
53353W        W25646  20.615  23.627  14.493
53354W        W25647  29.997  17.697   0.849
53355W        W25648  14.756  30.550   3.369
53356W        W25649  32.610   8.180  12.580
53357W        W25650  16.208  23.072  13.336
53358W        W25651  31.897  17.587  10.998
53359W        W25652  25.157  37.943   3.713
53360W        W25653  43.775  21.662   0.775
53361W        W25654  13.323  24.526  11.960
53362W        W25655  43.990  21.691   1.429
53363W        W25656  24.545  21.245   2.858
53364W        W25657  21.593  11.717  11.891
53365W        W25658   7.727  40.460  13.397
53366W        W25659   3.291  18.177  13.053
53367W        W25660  14.713  31.405  13.926
53368W        W25661  33.614  37.911  10.609
53369W        W25662  41.356  31.060   2.711
53370W        W25663  16.195  18.254   0.270
53371W        W25664  12.209  43.860   4.260
53372W        W25665  28.086  37.879   2.212
53373W        W25666  39.349  15.234  10.594
53374W        W25667  14.663  13.249  11.509
53375W        W25668  10.757  11.741   0.774
53376W        W25669  35.032  12.346  14.413
53377W        W25670  41.952  11.130   3.654
53378W        W25671   4.838  26.027   0.923
53379W        W25672  15.775  40.453  10.940
53380W        W25673  10.265  26.052  13.904
53381W        W25674  19.683  43.852   4.833
53382W        W25675  39.405  24.036   4.599
53383W        W25676  30.459  14.695  12.936
53384W        W25677  20.251   8.254  11.523
53385W        W25678  33.074  27.609   4.312
53386W        W25679   2.759   5.928   1.235
53387W        W25680  15.712  24.686   1.381
53388W        W25681  19.554   8.207  14.341
53389W        W25682  18.555   2.356  10.496
53390W        W25683   0.250  13.685  14.773
53391W        W25684   9.320  11.367  12.031
53392W        W25685  13.839  40.435  13.811
53393W        W25686  30.544  16.228   4.140
53394W        W25687  21.073  29.095  10.606
53395W        W25688  29.123  41.002   3.231
53396W        W25689   1.429  22.240  10.994
53397W        W25690  18.158  16.266   1.435
53398W        W25691  42.882  27.955   3.262
53399W        W25692   0.878  36.548  13.385
53400W        W25693  25.161  31.036   3.368
53401W        W25694  34.575   7.414  12.888
53402W        W25695  17.789  32.523  11.434
53403W        W25696   2.733  14.700   4.661
53404W        W25697   7.906  41.943   0.279
53405W        W25698  24.675   3.848   0.463
53406W        W25699  19.135  41.378  11.007
53407W        W25700  32.548  10.141   3.337
53408W        W25701  19.616  39.391   0.825
53409W        W25702  39.336   7.749  12.978
53410W        W25703  25.592   7.738  14.785
53411W        W25704  21.117  18.550   0.843
53412W        W25705  21.721   1.776   3.215
53413W        W25706  37.919  30.925   2.399
53414W        W25707  39.525   6.765  12.045
53415W        W25708  13.335  22.683  12.885
53416W        W25709  16.646   0.266   3.352
53417W        W25710  14.754  10.803   1.841
53418W        W25711  13.179  26.664   4.771
53419W        W25712   8.284  40.337   4.708
53420W        W25713  30.114   3.899   2.886
53421W        W25714  11.357  28.652   0.918
53422W        W25715  15.152  27.542  13.508
53423W        W25716  18.220  32.634   4.311
53424W        W25717  10.383   5.803  11.610
53425W        W25718   7.702  35.076  12.389
53426W        W25719  37.888   3.809   0.354
53427W        W25720  11.827  41.816   0.866
53428W        W25721  36.588  11.357  13.003
53429W        W25722  37.936  16.158  13.824
53430W        W25723  41.397   3.805   2.689
53431W        W25724  33.593  37.437   4.124
53432W        W25725  32.583  40.941   1.769
53433W        W25726  15.634  36.896  14.422
53434W        W25727   4.917  17.097  12.000
53435W        W25728  43.939  29.006  14.504
53436W        W25729  22.556  38.388  12.461
53437W        W25730  21.206  32.058   2.828
53438W        W25731  34.865  13.314   2.716
53439W        W25732   7.682  17.114   0.864
53440W        W25733   8.747  21.211   2.873
53441W        W25734  17.586  43.932  14.871
53442W        W25735   0.343  10.355   2.802
53443W        W25736  32.139  16.744   3.633
53444W        W25737   8.353  43.347   3.814
53445W        W25738  12.345  17.682   4.624
53446W        W25739  34.006  24.082  12.473
53447W        W25740  14.184  38.569   0.413
53448W        W25741  17.670  31.954  13.909
53449W        W25742  23.195  43.845  11.484
53450W        W25743  11.749   6.891   4.239
53451W        W25744  40.905  21.214   1.450
53452W        W25745  37.402  41.806   3.785
53453W        W25746   8.227  29.623  13.952
53454W        W25747  36.411   5.765   0.757
53455W        W25748  23.163  44.822  11.949
53456W        W25749  11.780   3.332  13.460
53457W        W25750  18.757  33.576   4.804
53458W        W25751   1.403  31.642  14.406
53459W        W25752  42.287  20.710   3.378
53460W        W25753   4.391  34.889   4.200
53461W        W25754  43.270   6.194  11.931
53462W        W25755  17.302  22.037   2.284
53463W        W25756  40.310  18.222  10.493
53464W        W25757  38.350   0.294  12.851
53465W        W25758  12.326  23.665   2.730
53466W        W25759  23.011  37.887  12.932
53467W        W25760  24.089   7.789  11.497
53468W        W25761  36.973  12.640  11.978
53469W        W25762  13.763  10.299   2.395
53470W        W25763  27.558  27.080  14.798
53471W        W25764  27.555  33.072  12.433
53472W        W25765  31.535   5.260   2.835
53473W        W25766  10.658  28.680  14.863
53474W        W25767  34.437  26.176   3.381
53475W        W25768  14.178   0.483  12.068
53476W        W25769  29.165  43.844   3.172
53477W        W25770  30.558  42.942   4.347
53478W        W25771  21.689  30.556   2.794
53479W        W25772   0.812  23.514   3.834
53480W        W25773  23.623  35.463  12.958
53481W        W25774  15.662  17.731   3.672
53482W        W25775  35.958   5.828  12.827
53483W        W25776   0.854  29.509   1.402
53484W        W25777  10.662   8.195  12.008
53485W        W25778   5.373   4.340   1.809
53486W        W25779  11.686   3.308  10.526
53487W        W25780  26.698  15.771  12.437
53488W        W25781  40.955  20.083  14.482
53489W        W25782  30.940  12.628  10.410
53490W        W25783  35.440  22.510  13.842
53491W        W25784   8.728  43.409   2.894
53492W        W25785  27.191   6.273   1.254
53493W        W25786  37.054  44.401   0.253
53494W        W25787  36.381  16.237   2.230
53495W        W25788   1.770  29.601   4.747
53496W        W25789  44.462  39.313  14.424
53497W        W25790  12.363  30.595   4.183
53498W        W25791  12.120  18.687  12.505
53499W        W25792  33.126  35.960  13.064
53500W        W25793  37.575  11.203  11.887
53501W        W25794  33.488   3.826   1.375
53502W        W25795   2.278  28.957   0.471
53503W        W25796  15.100  13.780  14.796
53504W        W25797  41.454  24.691   4.153
53505W        W25798  15.649  32.550  12.443
53506W        W25799  16.793  22.585  12.989
53507W        W25800  22.166   6.402  11.594
53508W        W25801  44.906  44.882  13.359
53509W        W25802  35.969  27.606   4.680
53510W        W25803  13.653  10.238   1.927
53511W        W25804  27.990  27.153  14.364
53512W        W25805  41.006  21.217  11.939
53513W        W25806  44.996  14.822   0.941
53514W        W25807   1.479  14.166  14.955
53515W        W25808  44.452   8.284   1.884
53516W        W25809  19.760  11.636  14.923
53517W        W25810  32.426   9.856   1.245
53518W        W25811  27.184  35.590   1.760
53519W        W25812  24.172   3.294  13.862
53520W        W25813   4.404  39.826   4.321
53521W        W25814  20.266  40.454   0.744
53522W        W25815  12.157   2.377   3.701
53523W        W25816  21.242  34.597  11.936
53524W        W25817   3.757  41.878  14.311
53525W        W25818  44.469  35.597  12.479
53526W        W25819  42.966  31.930   0.945
53527W        W25820  23.704  27.165  12.369
53528W        W25821  12.611  29.560   0.799
53529W        W25822  11.345  42.921  10.928
53530W        W25823  36.381   9.382   1.703
53531W        W25824  38.912  14.653  12.998
53532W        W25825  19.667  13.811   0.749
53533W        W25826  40.927  23.683  14.784
53534W        W25827  20.732   9.312  12.035
53535W        W25828  32.572  11.817  14.331
53536W        W25829  29.512  30.068  14.458
53537W        W25830  41.501   2.750   1.269
53538W        W25831  30.585   2.329   0.728
53539W        W25832  16.606  40.973  12.034
53540W        W25833  10.752  12.854  13.026
53541W        W25834  10.226  21.121   3.322
53542W        W25835  33.021  33.536  11.960
53543W        W25836  42.361   2.795  11.934
53544W        W25837  17.727  25.542   4.752
53545W        W25838   7.744  11.688  12.884
53546W        W25839   9.740  42.301   4.255
53547W        W25840  16.597  32.129  10.549
53548W        W25841  30.524  25.976   0.377
53549W        W25842   6.857   9.767  10.921
53550W        W25843  42.917  37.488   9.988
53551W        W25844  41.347  34.520   1.833
53552W        W25845  31.932   3.238   9.977
53553W        W25846   6.277   8.777  10.018
53554W        W25847  41.410  22.690  14.450
53555W        W25848  33.900   4.435   0.257
53556W        W25849  44.756  29.930   3.345
53557W        W25850   7.233  29.047  14.279
53558W        W25851  14.601  10.350  14.897
53559W        W25852  10.807  35.066  14.881
53560W        W25853  42.911  35.585  11.516
53561W        W25854  42.440   6.416   4.718
53562W        W25855  29.973  22.527   2.266
53563W        W25856   1.823  14.639   4.299
53564W        W25857   0.302  11.137  14.916
53565W        W25858   9.875  13.635  10.626
53566W        W25859  25.505  16.700   3.787
53567W        W25860  32.907  36.429   3.330
53568W        W25861  23.559  37.506   3.828
53569W        W25862  32.888  18.780  11.440
53570W        W25863  14.620  12.611  12.864
53571W        W25864  21.154  40.968  12.357
53572W        W25865   5.827  13.665  14.772
53573W        W25866  14.610   4.353  13.941
53574W        W25867  44.979   0.268  14.910
53575W        W25868   9.281  22.568   3.297
53576W        W25869  12.354  10.633   0.856
53577W        W25870  39.402  30.140   1.775
53578W        W25871  28.142  15.726  11.918
53579W        W25872  43.437  43.501   5.773
53580W        W25873  31.641  27.528  14.307
53581W        W25874  37.940  34.588   2.690
53582W        W25875  20.573   7.350   0.756
53583W        W25876  21.636  44.440   2.360
53584W        W25877  19.047  16.702   4.288
53585W        W25878   4.890   0.808  14.330
53586W        W25879  26.977   5.885  13.050
53587W        W25880  34.583  44.774  11.028
53588W        W25881  31.981  11.774   2.722
53589W        W25882  21.128  39.866  14.333
53590W        W25883  21.735  14.129  13.882
53591W        W25884  34.394  43.506   3.362
53592W        W25885  21.183  35.065   0.743
53593W        W25886  12.696  24.548  12.912
53594W        W25887  17.713   1.333  12.462
53595W        W25888   8.347   4.401  12.960
53596W        W25889  34.031  39.555  13.415
53597W        W25890  10.652   8.177  12.510
53598W        W25891  11.695  38.973   0.943
53599W        W25892  14.179  11.223   0.957
53600W        W25893  44.493  33.415   9.649
53601W        W25894   1.962  10.743   3.642
53602W        W25895  28.064  13.620  13.933
53603W        W25896  42.032  21.027   1.258
53604W        W25897  13.165  36.390  10.914
53605W        W25898  23.014   7.676   4.171
53606W        W25899  41.535  12.679   2.417
53607W        W25900  42.858  37.512   0.399
53608W        W25901  41.483  37.954   2.724
53609W        W25902  29.928  10.370  14.430
53610W        W25903  19.558  12.635   4.340
53611W        W25904  34.887   9.773   1.402
53612W        W25905  23.548  10.382  11.092
53613W        W25906  32.446  33.925   3.259
53614W        W25907  39.925  41.833   0.836
53615W        W25908   4.362  32.407  12.414
53616W        W25909   5.367   2.302   0.324
53617W        W25910   8.745  29.601  13.395
53618W        W25911   9.791  23.693   0.366
53619W        W25912  34.010  12.276   2.869
53620W        W25913  40.869   2.454   1.280
53621W        W25914  32.024   6.890   0.810
53622W        W25915  34.103  17.571   2.814
53623W        W25916   1.810   8.270   3.262
53624W        W25917  10.141  33.412  14.413
53625W        W25918  24.688  12.155   2.392
53626W        W25919  39.392  12.331   4.279
53627W        W25920  38.531  26.490  11.548
53628W        W25921  40.818   3.765  13.900
53629W        W25922  31.909  25.585   2.825
53630W        W25923  27.165  30.482   3.778
53631W        W25924  18.166  10.728   3.870
53632W        W25925  22.109  24.563   3.334
53633W        W25926  35.049  39.928  12.424
53634W        W25927  23.239  15.221  10.412
53635W        W25928  21.582  28.493   3.716
53636W        W25929  36.868  12.837  14.367
53637W        W25930  35.077   3.835   2.380
53638W        W25931  20.621  42.024   0.418
53639W        W25932   3.394  41.938   2.693
53640W        W25933  32.039  40.392  12.364
53641W        W25934   2.352  20.702  11.982
53642W        W25935  33.962   3.952  10.927
53643W        W25936  39.488  11.648   3.769
53644W        W25937  41.339  32.460  12.436
53645W        W25938  10.739  12.182   1.717
53646W        W25939   7.908  41.860   4.703
53647W        W25940  15.199  17.578   3.322
53648W        W25941  42.365  28.039  10.910
53649W        W25942  25.122   2.824  11.092
53650W        W25943  12.775   2.726  10.006
53651W        W25944   5.920  21.139   4.318
53652W        W25945  12.282   3.352   3.245
53653W        W25946  34.383  41.419  11.980
53654W        W25947  39.038  17.664  12.895
53655W        W25948  20.106   2.311   1.358
53656W        W25949   9.271  25.484   2.209
53657W        W25950  11.831  44.824  14.975
53658W        W25951   3.950  33.024   2.882
53659W        W25952  44.848  26.162   0.938
53660W        W25953  26.192  34.507  13.881
53661W        W25954  10.220  44.808   0.845
53662W        W25955  28.128  11.220  11.024
53663W        W25956  30.636  33.016   0.804
53664W        W25957   7.801   4.736  14.443
53665W        W25958  28.621  30.569   0.901
53666W        W25959  40.862  13.259   4.207
53667W        W25960  41.822  33.961   1.787
53668W        W25961   8.737  16.238   0.785
53669W        W25962  27.679  25.162   5.096
53670W        W25963  44.823  13.251  10.978
53671W        W25964  21.169  16.211  14.362
53672W        W25965  44.292  29.012   3.268
53673W        W25966  44.466   4.392   3.653
53674W        W25967  22.152   8.706   2.336
53675W        W25968  40.328  24.113   0.362
53676W        W25969   2.746  37.864   1.366
53677W        W25970  26.191   9.282  10.630
53678W        W25971  40.381  32.525   2.770
53679W        W25972   9.742  12.129  13.838
53680W        W25973  17.085  27.035   4.769
53681W        W25974   9.836   4.266   1.865
53682W        W25975   9.671  29.159   1.748
53683W        W25976  42.303  42.004  11.969
53684W        W25977  10.213  34.429   1.803
53685W        W25978  33.905  41.429  10.964
53686W        W25979  22.614  38.061   1.776
53687W        W25980  34.397  11.764  11.577
53688W        W25981   4.346   1.327   2.315
53689W        W25982   0.777  26.544   0.847
53690W        W25983  15.131  11.274   1.909
53691W        W25984  32.417   0.780  14.785
53692W        W25985   0.401  44.937   2.801
53693W        W25986  29.460   0.751   1.912
53694W        W25987  13.719  40.944  12.493
53695W        W25988   2.829   7.413  13.951
53696W        W25989  43.950  38.819   4.833
53697W        W25990  27.070  34.085   3.781
53698W        W25991  19.608  26.108  11.534
53699W        W25992  34.470  13.193   4.172
53700W        W25993  39.376  33.577   3.832
53701W        W25994  22.742  13.805  10.577
53702W        W25995   3.870   7.760   4.159
53703W        W25996  33.533  31.095   4.313
53704W        W25997  38.994  14.648   3.184
53705W        W25998   9.855   4.349  12.486
53706W        W25999  20.082  18.136  14.369
53707W        W26000   1.255  17.179   3.858
53708W        W26001  17.556  27.528  11.895
53709W        W26002  15.580  18.545  12.455
53710W        W26003  10.646  22.516   0.914
53711W        W26004  36.980  33.485   4.687
53712W        W26005  27.192  41.351  11.390
53713W        W26006  16.798   0.335   2.179
53714W        W26007  34.591  32.892   2.711
53715W        W26008  13.285  15.328   4.649
53716W        W26009   9.387  26.040  12.059
53717W        W26010  14.210   8.699  12.380
53718W        W26011  19.092  30.047  13.444
53719W        W26012  18.598   2.920  13.880
53720W        W26013  23.079   7.406  11.100
53721W        W26014  23.061   5.320   3.675
53722W        W26015  43.335  20.547   1.384
53723W        W26016  41.474  23.108  10.615
53724W        W26017  22.196  10.265   0.866
53725W        W26018  36.491   1.750   4.278
53726W        W26019  19.758   8.372   0.837
53727W        W26020   2.358   5.897  11.867
53728W        W26021  36.435  21.579  14.491
53729W        W26022  44.780   6.756  12.058
53730W        W26023  42.889  16.079   2.369
53731W        W26024   2.861  15.240   0.265
53732W        W26025  36.908  12.352   3.304
53733W        W26026  38.465  10.233   2.275
53734W        W26027   2.440  29.967   2.854
53735W        W26028  40.517  17.181   5.232
53736W        W26029  15.091  12.246  10.971
53737W        W26030  44.440  27.564   1.724
53738W        W26031  36.035  41.041   0.788
53739W        W26032  29.014   4.258   0.264
53740W        W26033  40.811  13.636  11.415
53741W        W26034  25.599  43.990  14.807
53742W        W26035  16.632  31.145  14.431
53743W        W26036  26.555  35.991   1.279
53744W        W26037   5.417  15.244  12.393
53745W        W26038  35.903  40.425   0.851
53746W        W26039  14.226   6.422   2.364
53747W        W26040  21.256  31.553  10.001
53748W        W26041   0.877   1.285   0.310
53749W        W26042  29.101   1.875   1.808
53750W        W26043  25.979  22.095  10.143
53751W        W26044  10.865  35.874   2.204
53752W        W26045  36.980  16.606  10.497
53753W        W26046  33.068  11.213  14.508
53754W        W26047  16.232  31.600  13.844
53755W        W26048  15.125  33.113   0.801
53756W        W26049   8.209  21.091  13.809
53757W        W26050  18.217  27.085   0.369
53758W        W26051   3.877   2.846   3.230
53759W        W26052  18.096   5.338  11.452
53760W        W26053   9.239  28.467  11.404
53761W        W26054   4.312  38.985   4.212
53762W        W26055  41.951  31.071   4.249
53763W        W26056  24.154  25.135  13.796
53764W        W26057  41.984   2.369   0.931
53765W        W26058  41.036  23.616  12.095
53766W        W26059   0.771   7.833   3.818
53767W        W26060   7.374  13.254  12.067
53768W        W26061  39.517   7.678  12.570
53769W        W26062  35.452  36.562  12.403
53770W        W26063  15.768  29.569   4.753
53771W        W26064  22.677  23.001  12.074
53772W        W26065  28.544  44.801  11.422
53773W        W26066  14.287  44.931  11.901
53774W        W26067  17.064   2.470  12.912
53775W        W26068  16.630  35.016   4.310
53776W        W26069   7.674  40.031   2.861
53777W        W26070  34.497  26.663   2.229
53778W        W26071  36.006  32.012   0.749
53779W        W26072  43.946  27.455  10.627
53780W        W26073  16.630   5.272  12.978
53781W        W26074   7.248  39.389  11.096
53782W        W26075  27.616  44.942   2.889
53783W        W26076  11.335  43.354   3.813
53784W        W26077  22.706  22.156  10.130
53785W        W26078  39.952  19.139   1.701
53786W        W26079  32.625  33.948   0.474
53787W        W26080   4.215  18.076   1.730
53788W        W26081  19.758  38.067   4.634
53789W        W26082  37.852   3.805   2.200
53790W        W26083  26.695  18.208   1.866
53791W        W26084  30.000  42.029  10.454
53792W        W26085   0.472   3.769   3.165
53793W        W26086  28.998  41.373  12.429
53794W        W26087   8.277  34.404  13.522
53795W        W26088  31.032  44.378  10.431
53796W        W26089  12.644  12.818   2.777
53797W        W26090   4.944  43.919  11.912
53798W        W26091  43.923   1.382  14.328
53799W        W26092  31.498  35.594   3.329
53800W        W26093   8.705  44.983   3.839
53801W        W26094  43.300   8.314   3.667
53802W        W26095  26.059  38.912   3.237
53803W        W26096  34.033  33.623   0.268
53804W        W26097  30.027  25.656  12.979
53805W        W26098  32.932  35.462   2.349
53806W        W26099  38.568  43.017  12.978
53807W        W26100  36.011  22.538  13.909
53808W        W26101   7.847  28.542   2.254
53809W        W26102  43.515  32.617   4.782
53810W        W26103  36.013  18.274  12.447
53811W        W26104  39.350  42.024   3.841
53812W        W26105  20.681  35.586   2.386
53813W        W26106  30.960  30.151   0.250
53814W        W26107  12.851  44.274   0.437
53815W        W26108  24.652  44.804   3.378
53816W        W26109  24.054  42.352   4.122
53817W        W26110   7.677   2.282   3.810
53818W        W26111  17.628  18.133  13.954
53819W        W26112   4.872  33.500   0.919
53820W        W26113  38.937  40.947  12.393
53821W        W26114  21.563  18.248  13.852
53822W        W26115  27.066  24.529  12.902
53823W        W26116  19.666  21.207  13.852
53824W        W26117  20.064  26.962  14.907
53825W        W26118  25.149  37.874   0.435
53826W        W26119   7.194  36.532   9.944
53827W        W26120  16.225  30.525   2.828
53828W        W26121  19.672  42.372   1.344
53829W        W26122  32.096   3.794  11.438
53830W        W26123  21.538  34.926  11.484
53831W        W26124  13.671  38.340   2.769
53832W        W26125  16.730  35.898   2.829
53833W        W26126  36.004  10.776  13.812
53834W        W26127  39.020   7.884  14.472
53835W        W26128  22.219  42.423  11.024
53836W        W26129  18.271  13.803  12.968
53837W        W26130  42.924   1.350  12.568
53838W        W26131   7.338  38.980   1.720
53839W        W26132  14.217  23.731  11.990
53840W        W26133  34.050  43.344   4.718
53841W        W26134  35.423  38.393   3.646
53842W        W26135  44.318  16.752  14.299
53843W        W26136   9.214  33.931  14.385
53844W        W26137  17.138  15.663   2.777
53845W        W26138  23.555   3.240   0.484
53846W        W26139  19.768  14.638  14.028
53847W        W26140  38.896   9.761   4.805
53848W        W26141  25.698  10.663   0.246
53849W        W26142  20.764  11.184  13.480
53850W        W26143  28.087  44.344   4.736
53851W        W26144  44.798  36.433   5.669
53852W        W26145  35.475  12.129  13.400
53853W        W26146  37.452  18.555  11.015
53854W        W26147  24.611  26.133   3.740
53855W        W26148   8.765  16.646  11.576
53856W        W26149   1.838  17.126   4.229
53857W        W26150  22.033  23.093  14.489
53858W        W26151  21.541   5.720  12.556
53859W        W26152  43.472  28.144   2.253
53860W        W26153   8.330  37.581   2.771
53861W        W26154  43.924  36.418  10.449
53862W        W26155  36.926  36.964  10.907
53863W        W26156  18.148   4.256  10.416
53864W        W26157  16.111  21.670   2.368
53865W        W26158  13.702  36.841   1.762
53866W        W26159  41.865  21.094  14.372
53867W        W26160   4.787   7.379   1.832
53868W        W26161  10.869   1.894   0.807
53869W        W26162  33.898  26.529   2.730
53870W        W26163  32.605  43.952  14.358
53871W        W26164  34.583  22.685  11.005
53872W        W26165  38.332  36.999  10.414
53873W        W26166  26.653  33.971   0.264
53874W        W26167  14.758  26.679  13.526
53875W        W26168   5.925  12.189   4.838
53876W        W26169  38.947   1.368  12.925
53877W        W26170  28.569  11.264  12.524
53878W        W26171  38.445   4.833  12.860
53879W        W26172   2.290   3.872  13.050
53880W        W26173   0.825  12.644   1.403
53881W        W26174  22.157  21.700   3.212
53882W        W26175  19.094  12.119   1.803
53883W        W26176  23.591  27.053  13.934
53884W        W26177  15.270   0.796  14.343
53885W        W26178  25.555  27.994  11.416
53886W        W26179  38.069  20.103  11.545
53887W        W26180  27.041  25.617  12.571
53888W        W26181   9.685   6.900  12.886
53889W        W26182  24.137  34.951  11.487
53890W        W26183  35.899  20.118  12.488
53891W        W26184  20.254  27.990   3.180
53892W        W26185  26.043  22.111   2.787
53893W        W26186  37.515  41.963   2.861
53894W        W26187  38.506  12.818   1.345
53895W        W26188  33.383   6.844   2.311
53896W        W26189  39.494  34.950   0.886
53897W        W26190   9.343  38.966  11.970
53898W        W26191  31.102  27.566   4.701
53899W        W26192  43.321  30.536  11.494
53900W        W26193  24.596  10.210  14.903
53901W        W26194   1.429  23.210   0.416
53902W        W26195  14.629  29.045  14.454
53903W        W26196   7.785  10.153   3.661
53904W        W26197  44.285  15.770  11.903
53905W        W26198  23.556  27.012  10.620
53906W        W26199   9.794  17.582  14.504
53907W        W26200   4.772  44.417   1.813
53908W        W26201  30.145  26.185   4.810
53909W        W26202  34.991   3.281   4.152
53910W        W26203  12.333  30.453   0.333
53911W        W26204   0.376  39.020  14.001
53912W        W26205  22.746  32.939   2.744
53913W        W26206  31.568  30.106  11.042
53914W        W26207  11.716  35.909   4.791
53915W        W26208  28.165   0.361   1.887
53916W        W26209   8.704  16.279  12.451
53917W        W26210   5.390  34.051  14.930
53918W        W26211  34.958  38.893   3.157
53919W        W26212  38.037  19.692  13.018
53920W        W26213  44.397  13.143   3.784
53921W        W26214  35.947  33.915   0.471
53922W        W26215  41.872  35.383   2.228
53923W        W26216  15.639  16.758   4.750
53924W        W26217   2.869  31.544   1.281
53925W        W26218  39.855  15.648  11.938
53926W        W26219   9.871  24.978  14.993
53927W        W26220  38.957  18.097  13.923
53928W        W26221  11.843  39.476   3.699
53929W        W26222  15.707  19.536   0.938
53930W        W26223  40.963  21.521   0.886
53931W        W26224  31.080  34.099  12.894
53932W        W26225  35.435  33.081   2.366
53933W        W26226   4.731  25.180   4.289
53934W        W26227  31.988  23.060   3.340
53935W        W26228  28.506  30.067  11.058
53936W        W26229   3.846  42.472  13.920
53937W        W26230  22.171  10.153  13.370
53938W        W26231  17.192  43.770   2.342
53939W        W26232  18.690  18.252  10.641
53940W        W26233  35.401   1.830  14.833
53941W        W26234  31.087  31.942  10.459
53942W        W26235  37.431  32.434   1.398
53943W        W26236   7.738  42.848  10.014
53944W        W26237  43.480  37.430   3.224
53945W        W26238  13.676   1.888  11.599
53946W        W26239  40.531  25.046  12.989
53947W        W26240  27.079  36.402   1.862
53948W        W26241  38.909   3.776  12.008
53949W        W26242  41.926  41.955   3.780
53950W        W26243  35.440   1.402  11.012
53951W        W26244   6.357  38.494   3.869
53952W        W26245  12.669  10.727   4.798
53953W        W26246  12.346  44.434  14.367
53954W        W26247  39.468  27.494   0.257
53955W        W26248  34.478  44.405  11.074
53956W        W26249   6.228  41.975   0.269
53957W        W26250  43.349  23.556  13.040
53958W        W26251  41.805  25.995  12.968
53959W        W26252  25.008  20.050  12.843
53960W        W26253  32.127  38.516   2.777
53961W        W26254  19.182  39.516  12.470
53962W        W26255  30.491  11.744   4.660
53963W        W26256   1.927  27.457  12.436
53964W        W26257   0.911   1.345  14.799
53965W        W26258  18.151  30.652  12.571
53966W        W26259  19.608  32.949   4.145
53967W        W26260  38.454  43.921   4.312
53968W        W26261  12.250  41.918  14.304
53969W        W26262  31.486  13.728   4.715
53970W        W26263  31.588  10.789   4.808
53971W        W26264  25.532   9.206   3.175
53972W        W26265  15.659  22.072  13.395
53973W        W26266  30.934  32.952  12.008
53974W        W26267  20.718  13.323   2.228
53975W        W26268  26.586  24.155  13.883
53976W        W26269  21.552   7.204  14.880
53977W        W26270   6.679  24.074   3.858
53978W        W26271  14.830   6.310  11.510
53979W        W26272   6.913  24.644  12.451
53980W        W26273  22.185  18.730   0.428
53981W        W26274  18.149   9.328  12.907
53982W        W26275   3.900  11.746  13.461
53983W        W26276  42.004   3.769  12.454
53984W        W26277  30.122   7.303  12.373
53985W        W26278   0.788  25.217  10.622
53986W        W26279  29.024  40.954  13.403
53987W        W26280   4.934  40.466   1.451
53988W        W26281  40.017   0.461   3.673
53989W        W26282  32.401  20.247   2.762
53990W        W26283   1.888  43.415   1.351
53991W        W26284  29.534  30.129   0.468
53992W        W26285  12.688   5.395  13.455
53993W        W26286  11.128  16.586   4.741
53994W        W26287  44.333  38.567   0.286
53995W        W26288  25.485  35.887   3.349
53996W        W26289  13.700   8.317   2.692
53997W        W26290   4.857  36.540  10.979
53998W        W26291  20.042  35.423  13.895
53999W        W26292  18.584  23.631  14.291
54000W        W26293  20.550  39.826   2.237
54001W        W26294  10.269  26.970  10.492
54002W        W26295  10.749  37.362   0.794
54003W        W26296  30.503  32.595   2.855
54004W        W26297   1.356  15.711   3.741
54005W        W26298  43.499   6.373  10.615
54006W        W26299  29.947  44.783  14.304
54007W        W26300   9.202   3.888  12.343
54008W        W26301  28.650   2.954   3.712
54009W        W26302  16.576   6.869   0.249
54010W        W26303  18.107  22.012   4.264
54011W        W26304   9.807  20.072   1.858
54012W        W26305   9.812  31.030   3.816
54013W        W26306  32.511   8.296  12.063
54014W        W26307   2.861   0.785  14.859
54015W        W26308  44.347  43.992   0.483
54016W        W26309  25.018   5.203   0.462
54017W        W26310   3.721  31.422   1.806
54018W        W26311  13.277  39.354  12.848
54019W        W26312  43.360  16.075  11.498
54020W        W26313  26.058  30.103  10.611
54021W        W26314  20.762   8.844  10.950
54022W        W26315   0.481  36.843  14.361
54023W        W26316  27.628   7.243   4.818
54024W        W26317  23.692  27.151   4.224
54025W        W26318  17.264  36.476   3.686
54026W        W26319  40.827  12.167   1.352
54027W        W26320  21.516   4.723  14.372
54028W        W26321   7.683   5.220   3.287
54029W        W26322  18.683  27.574  12.571
54030W        W26323  17.078   8.337  11.101
54031W        W26324   6.877  10.330   0.453
54032W        W26325   5.842   6.422   3.258
54033W        W26326   3.955   2.800  10.642
54034W        W26327  36.941   0.402  14.947
54035W        W26328   1.401  29.575   4.154
54036W        W26329   5.306  36.989  10.422
54037W        W26330  16.291  24.573  10.595
54038W        W26331  14.596  17.769   3.330
54039W        W26332  12.755  31.641  10.567
54040W        W26333  26.014   1.928   2.234
54041W        W26334  44.471   5.906   3.261
54042W        W26335   2.826  24.487  12.339
54043W        W26336   0.255  28.021   1.424
54044W        W26337  11.277  19.778   1.913
54045W        W26338   5.376  32.430  14.858
54046W        W26339  21.241  21.172  10.441
54047W        W26340   8.326  22.229  12.457
54048W        W26341  12.159   8.359  10.639
54049W        W26342  37.958  18.556   1.290
54050W        W26343  37.944  24.545  12.505
54051W        W26344  25.530  14.204  11.613
54052W        W26345  17.598  29.606  11.891
54053W        W26346  35.069  13.601   0.365
54054W        W26347  31.542   5.839   2.815
54055W        W26348   1.327   5.409   1.226
54056W        W26349  37.922  33.062   4.655
54057W        W26350   1.389  31.946   3.236
54058W        W26351  13.613  10.256  13.880
54059W        W26352  38.047   1.801   2.295
54060W        W26353   2.440   2.308  14.330
54061W        W26354  15.814  22.219   3.146
54062W        W26355  37.514  30.607  11.481
54063W        W26356  32.431  26.564  13.059
54064W        W26357  32.953  16.688   1.330
54065W        W26358  38.400  18.706   2.188
54066W        W26359  10.199  25.637  14.828
54067W        W26360  20.658  13.708   0.835
54068W        W26361  20.081  33.505   1.701
54069W        W26362  22.726  17.611  14.309
54070W        W26363  21.159  41.308  11.102
54071W        W26364   9.885  26.006  12.075
54072W        W26365  11.194  25.629   0.741
54073W        W26366   5.323  43.438  13.862
54074W        W26367  31.633  20.156   1.886
54075W        W26368   5.389  10.659  13.403
54076W        W26369  27.607   6.238   1.908
54077W        W26370  42.310  15.715   3.317
54078W        W26371  14.294  11.159  13.998
54079W        W26372  37.553  31.405  14.496
54080W        W26373  22.674  36.886  12.374
54081W        W26374  31.459  23.518  11.437
54082W        W26375  33.996  26.552  11.469
54083W        W26376  23.499  44.290   4.181
54084W        W26377  28.127  23.218  10.457
54085W        W26378  20.179   4.384   2.226
54086W        W26379   1.474   3.413   1.849
54087W        W26380   0.783  22.530  10.079
54088W        W26381   8.673   5.817  10.510
54089W        W26382  15.307  36.569   3.305
54090W        W26383  14.701   2.749   1.262
54091W        W26384  13.832  20.030   4.708
54092W        W26385  44.433   6.701   2.267
54093W        W26386  19.681  31.414  11.960
54094W        W26387  36.412  25.552  14.975
54095W        W26388   0.387   9.768  12.026
54096W        W26389  28.641   9.298   1.798
54097W        W26390  29.637  43.350  13.936
54098W        W26391  30.976  18.766   4.185
54099W        W26392  36.454   4.433   4.296
54100W        W26393  25.493  24.214  14.769
54101W        W26394  13.200  18.765  12.352
54102W        W26395  31.939  14.740   0.966
54103W        W26396  30.138  12.194   2.767
54104W        W26397  14.702  12.338  10.554
54105W        W26398  20.636  12.740  14.421
54106W        W26399   7.797  23.664  12.541
54107W        W26400  13.153   4.788   4.179
54108W        W26401  27.026  35.953  11.041
54109W        W26402   2.801  30.996   0.806
54110W        W26403  36.855   4.419  14.454
54111W        W26404  12.773  40.526  13.508
54112W        W26405  16.791   5.841  13.400
54113W        W26406  22.237  38.024  10.491
54114W        W26407  15.128  20.711  13.488
54115W        W26408  13.330  37.907  10.493
54116W        W26409  29.135  14.694   4.260
54117W        W26410  36.456  18.547  14.408
54118W        W26411   5.836  42.010   4.343
54119W        W26412  34.505  43.951   0.746
54120W        W26413  40.532  35.428  11.971
54121W        W26414  12.177  37.938   0.403
54122W        W26415  13.292   4.311  10.050
54123W        W26416  11.771  33.897  12.078
54124W        W26417  21.544  20.615  13.809
54125W        W26418   8.735  38.924  14.901
54126W        W26419  22.690   1.832   4.319
54127W        W26420   8.406   8.348  10.900
54128W        W26421  13.661  30.504   4.116
54129W        W26422   2.230  26.093  14.780
54130W        W26423   3.889  37.372   2.669
54131W        W26424  26.616   5.750  13.007
54132W        W26425  12.178   6.217   0.319
54133W        W26426  27.945  23.676  14.429
54134W        W26427  18.192  30.566  11.915
54135W        W26428   7.266  43.488  14.351
54136W        W26429  16.125  17.769  11.421
54137W        W26430  19.089   3.820  13.032
54138W        W26431  27.972  26.603  10.958
54139W        W26432   1.957   5.312   2.252
54140W        W26433   3.392  43.974  11.088
54141W        W26434  19.243  13.803  10.932
54142W        W26435  24.013  25.519  14.506
54143W        W26436  21.657  17.105   4.672
54144W        W26437  21.239  37.501   2.192
54145W        W26438  41.798   0.401   3.783
54146W        W26439  12.157  20.536   1.706
54147W        W26440  33.084  31.566  11.587
54148W        W26441  11.793  41.355  14.000
54149W        W26442  23.590   2.915   1.231
54150W        W26443  36.466  24.711   3.641
54151W        W26444   4.327   8.732   4.162
54152W        W26445  14.305  21.166   2.182
54153W        W26446  18.167  37.554   2.803
54154W        W26447   1.305  11.694   1.709
54155W        W26448  34.997  43.780  13.427
54156W        W26449  27.669  28.970   1.398
54157W        W26450  38.919  26.523  11.419
54158W        W26451  29.158  19.239  11.907
54159W        W26452   1.747  34.607   4.240
54160W        W26453  31.113  34.379   2.390
54161W        W26454  42.981   1.289   1.743
54162W        W26455  13.272  19.709   3.178
54163W        W26456   6.912   7.719  13.915
54164W        W26457  13.696  44.367  11.597
54165W        W26458  14.804  16.639   3.867
54166W        W26459  14.691   7.860  12.940
54167W        W26460  36.450   7.197   3.803
54168W        W26461  16.311  40.330   3.640
54169W        W26462  28.155  29.552  13.809
54170W        W26463  37.970  19.644   5.171
54171W        W26464  19.622  13.122   4.287
54172W        W26465  20.119  15.196   1.279
54173W        W26466  17.745  44.491   1.242
54174W        W26467  29.670  14.752  11.017
54175W        W26468  29.632  28.636  11.055
54176W        W26469  31.565   2.337  10.448
54177W        W26470  38.369   0.293   3.255
54178W        W26471  14.786  27.662   2.800
54179W        W26472   4.819   3.797   1.739
54180W        W26473  30.612   3.822  12.845
54181W        W26474   3.311  32.565  14.799
54182W        W26475  12.329  10.787  10.474
54183W        W26476  16.779  22.052  12.580
54184W        W26477   0.363  38.912   1.279
54185W        W26478   4.726  40.997  10.572
54186W        W26479  40.436  41.524   0.275
54187W        W26480  22.151  26.547  11.057
54188W        W26481  29.936  19.095   0.426
54189W        W26482  13.259  19.580  10.504
54190W        W26483  39.008  33.893  13.823
54191W        W26484  44.982   3.952  14.441
54192W        W26485   6.228   2.834  12.041
54193W        W26486  28.097   0.757   2.249
54194W        W26487  29.947  41.891  10.912
54195W        W26488  14.624  27.111   4.645
54196W        W26489  10.216  35.595   2.882
54197W        W26490  25.992   7.817   1.927
54198W        W26491  15.588  39.929   2.701
54199W        W26492  22.686  12.656   2.304
54200W        W26493  17.089  33.408   5.093
54201W        W26494  17.702  35.968   3.328
54202W        W26495  12.763   6.679   4.312
54203W        W26496  22.557  34.109   2.891
54204W        W26497   5.718  23.168   0.927
54205W        W26498   0.299   3.414  10.437
54206W        W26499  44.976  27.133   3.233
54207W        W26500  13.629  35.416   4.720
54208W        W26501  30.532  36.450   3.297
54209W        W26502  20.070  19.759   0.442
54210W        W26503  40.511  12.355  14.407
54211W        W26504  19.721  35.378  11.555
54212W        W26505  16.313  30.548   0.316
54213W        W26506   3.362  12.169  14.947
54214W        W26507  13.730  37.491   2.364
54215W        W26508  26.019  12.637  14.376
54216W        W26509   0.878  40.933  14.475
54217W        W26510  10.180  22.033  12.959
54218W        W26511  20.143  13.237   1.394
54219W        W26512  36.048   5.888   0.303
54220W        W26513  21.590   6.305  10.455
54221W        W26514   5.367  28.453   3.168
54222W        W26515  32.448   2.942  10.505
54223W        W26516  21.587  27.678   1.262
54224W        W26517  34.572  43.843   0.246
54225W        W26518  20.718   2.747   0.397
54226W        W26519  40.332  34.026  14.367
54227W        W26520  41.883  15.660  10.057
54228W        W26521  26.465  28.609   5.229
54229W        W26522  30.589   5.270  11.543
54230W        W26523  34.416   9.288   2.755
54231W        W26524  43.921  29.153  14.983
54232W        W26525  42.351  12.654   4.308
54233W        W26526  23.615  35.578   0.902
54234W        W26527   6.681  26.116   0.899
54235W        W26528  42.477  31.028  14.394
54236W        W26529   1.906  34.439  10.482
54237W        W26530  24.548  38.328   2.369
54238W        W26531  25.165  15.265   1.294
54239W        W26532   6.373  40.894   4.635
54240W        W26533  25.116  41.976  12.968
54241W        W26534  34.444  36.952  14.477
54242W        W26535  11.801  28.952  12.923
54243W        W26536  35.572   5.834   2.746
54244W        W26537  22.661  23.026   4.220
54245W        W26538  29.054   0.378   0.753
54246W        W26539  20.263  37.369  10.541
54247W        W26540  27.165  38.072   1.783
54248W        W26541  20.108  29.165  11.478
54249W        W26542  39.013   8.727  13.963
54250W        W26543   5.248  39.954   3.692
54251W        W26544  20.259  30.578  13.913
54252W        W26545  17.271  31.597   4.623
54253W        W26546  18.279   3.936  13.425
54254W        W26547  24.201  37.486  10.134
54255W        W26548  29.160   8.165   1.829
54256W        W26549  40.534  40.502   1.404
54257W        W26550  27.985   1.957   4.193
54258W        W26551   2.275  14.331   2.285
54259W        W26552  11.863  38.925   2.663
54260W        W26553  29.011  21.070   2.875
54261W        W26554  11.323  12.278   2.881
54262W        W26555  11.246   9.215  12.422
54263W        W26556   9.199  12.142   3.237
54264W        W26557  23.551  37.845  13.378
54265W        W26558  41.797   3.847   3.361
54266W        W26559   3.308  40.348   0.289
54267W        W26560  20.174  17.699   3.824
54268W        W26561  34.589   7.806  12.569
54269W        W26562   8.709  36.000  12.451
54270W        W26563  20.167  31.955   1.394
54271W        W26564  39.056  38.481  14.418
54272W        W26565  36.914  16.783   3.258
54273W        W26566  19.701  21.039  12.051
54274W        W26567  23.730  38.009  10.454
54275W        W26568  23.533  30.090  10.550
54276W        W26569   9.296  44.271  13.877
54277W        W26570  20.588   4.886   3.252
54278W        W26571  24.130  13.333   2.280
54279W        W26572   7.883  19.585   1.391
54280W        W26573  28.161  18.197   2.720
54281W        W26574  26.689  10.197  12.862
54282W        W26575  20.063  20.162  13.984
54283W        W26576  40.345  28.950   5.200
54284W        W26577  17.781  18.688  13.893
54285W        W26578  24.588  23.065  13.023
54286W        W26579  23.506  16.605  13.948
54287W        W26580   3.895   8.839   2.226
54288W        W26581  20.604  18.215   3.193
54289W        W26582   0.793  39.838  13.947
54290W        W26583   1.299   1.807   2.744
54291W        W26584  10.773  32.434   2.805
54292W        W26585  22.690  34.446  14.296
54293W        W26586  24.546  38.354   3.378
54294W        W26587  13.189  11.717  13.505
54295W        W26588   8.838  25.066  11.560
54296W        W26589  11.717   6.842   3.823
54297W        W26590  39.866   1.472  12.360
54298W        W26591  11.672   3.405   1.844
54299W        W26592  24.602  12.812  13.987
54300W        W26593  12.238  17.560  13.961
54301W        W26594   8.173  13.153  12.832
54302W        W26595   0.890  39.886  12.852
54303W        W26596  31.403  32.933  14.808
54304W        W26597  25.974   3.788   3.752
54305W        W26598  43.781  33.574  11.441
54306W        W26599   0.784   0.301   1.772
54307W        W26600  23.616  15.205   2.246
54308W        W26601  41.524  17.635  14.918
54309W        W26602  31.938  10.262  10.404
54310W        W26603   3.346   5.291   3.704
54311W        W26604  28.954  23.712   5.669
54312W        W26605   8.374  23.588   4.321
54313W        W26606  12.848   9.771   0.462
54314W        W26607  31.971  22.674   2.330
54315W        W26608  24.619  28.179  14.277
54316W        W26609  39.527  37.403  11.019
54317W        W26610   5.792   0.908  13.371
54318W        W26611   8.838  40.022   4.319
54319W        W26612  25.036  33.394  14.474
54320W        W26613  37.527  18.207  12.519
54321W        W26614  35.017  28.516  12.027
54322W        W26615  28.667  23.718  11.012
54323W        W26616  11.793   1.928  14.310
54324W        W26617  23.572  37.972  11.919
54325W        W26618  17.264   3.315  13.975
54326W        W26619   9.248  13.765  12.435
54327W        W26620  33.419   7.845   1.424
54328W        W26621   1.873   0.262  13.910
54329W        W26622  11.240  18.664  13.509
54330W        W26623   3.769   2.852  13.510
54331W        W26624  43.818  41.956   1.805
54332W        W26625   5.907  11.294  12.895
54333W        W26626  43.455  21.179  10.979
54334W        W26627  26.209  18.641   2.742
54335W        W26628  21.750   3.890  12.359
54336W        W26629  37.478  17.718   0.447
54337W        W26630  18.711  17.713  11.121
54338W        W26631  26.199  44.461  14.944
54339W        W26632   6.200  25.174  11.115
54340W        W26633  42.341  26.488   3.289
54341W        W26634  18.607  34.067  11.936
54342W        W26635   6.292  39.372   1.232
54343W        W26636  43.012  13.794  10.466
54344W        W26637  28.629  34.515   1.323
54345W        W26638  35.967  18.122   0.482
54346W        W26639  12.853  31.413   2.818
54347W        W26640  24.174  23.201   3.172
54348W        W26641  14.338  16.155  13.851
54349W        W26642  25.533  31.950   2.254
54350W        W26643   5.248  13.243  13.448
54351W        W26644   8.285  27.989   4.731
54352W        W26645   1.345  39.431  10.600
54353W        W26646  33.883  13.342  14.794
54354W        W26647  34.872  40.356   4.688
54355W        W26648   2.264  44.810  13.929
54356W        W26649  35.010  41.507   4.718
54357W        W26650  28.492  28.440   1.888
54358W        W26651  38.023  28.670  13.868
54359W        W26652  43.957  28.647   3.671
54360W        W26653  18.093  15.140   3.664
54361W        W26654  32.918  36.507  14.342
54362W        W26655   7.408  39.065   4.711
54363W        W26656  28.969  24.022   4.670
54364W        W26657  10.802   2.450  10.604
54365W        W26658   4.401  32.408  12.843
54366W        W26659  26.592  10.838  11.476
54367W        W26660  14.211   1.757  11.107
54368W        W26661  15.659   7.200   0.412
54369W        W26662   3.354  42.410  10.418
54370W        W26663  30.491  30.451   4.341
54371W        W26664  15.107  10.655   3.282
54372W        W26665  22.058  40.827   1.395
54373W        W26666  44.264  29.593  13.510
54374W        W26667  26.072  29.460  14.001
54375W        W26668  23.011  14.743  14.423
54376W        W26669  12.260  27.170  11.054
54377W        W26670  29.580  29.093   2.725
54378W        W26671   6.391   4.778   3.829
54379W        W26672   7.731  19.202  11.109
54380W        W26673  34.387   8.183  13.488
54381W        W26674   3.950  19.715   3.776
54382W        W26675  35.038  27.135   1.922
54383W        W26676  32.085  26.669   4.790
54384W        W26677  29.504  11.766  11.560
54385W        W26678  25.629  13.193   2.302
54386W        W26679  14.604  41.901   3.253
54387W        W26680  22.196   1.870  12.529
54388W        W26681  33.458  16.309   1.698
54389W        W26682  14.597  11.282  12.550
54390W        W26683  21.685  26.066  11.960
54391W        W26684   3.293  40.940  10.992
54392W        W26685  39.818  44.295   3.721
54393W        W26686   3.220  44.855  11.927
54394W        W26687  19.654  37.975  11.450
54395W        W26688  27.080  18.654   3.676
54396W        W26689  31.556   0.401   3.190
54397W        W26690  18.590  14.679   1.234
54398W        W26691  15.192  19.264   3.273
54399W        W26692   5.856  28.503  14.380
54400W        W26693  39.976   1.826   1.914
54401W        W26694  33.075  38.051  12.976
54402W        W26695  34.478  16.573  10.469
54403W        W26696  43.459   3.418   3.779
54404W        W26697  30.526   3.335   4.796
54405W        W26698   5.206  20.589   4.775
54406W        W26699  37.028  38.993  13.479
54407W        W26700  21.131  44.942   2.759
54408W        W26701  13.200  17.061  10.892
54409W        W26702  29.566  25.968  13.016
54410W        W26703   6.923  30.934  12.020
54411W        W26704  19.236  16.752  14.415
54412W        W26705  40.879  44.809   0.809
54413W        W26706  14.740  25.588   2.794
54414W        W26707  12.726  31.430  14.822
54415W        W26708   4.385  24.112   1.305
54416W        W26709   4.748  27.057   1.810
54417W        W26710  20.714  38.996   4.218
54418W        W26711  28.149  30.430  10.415
54419W        W26712  42.905   0.936  10.988
54420W        W26713   4.828   1.433  12.859
54421W        W26714   0.832  10.718  12.557
54422W        W26715   9.318  21.572   3.276
54423W        W26716  42.518  35.437   3.731
54424W        W26717  28.080  25.193   3.207
54425W        W26718   1.420  33.882  11.883
54426W        W26719  26.580   6.417   2.387
54427W        W26720  30.127   7.822   3.707
54428W        W26721  38.885   6.410   4.170
54429W        W26722  33.401  10.177  14.397
54430W        W26723   7.769  20.681   0.245
54431W        W26724   0.813  32.030  11.563
54432W        W26725  31.997   0.929   5.110
54433W        W26726  11.275  37.562  13.900
54434W        W26727   2.931  24.524   2.189
54435W        W26728   1.335   6.259  11.077
54436W        W26729   3.929  31.898   0.895
54437W        W26730  18.208  42.371  11.510
54438W        W26731  22.693  12.314  12.515
54439W        W26732  37.579  17.241   2.767
54440W        W26733  19.657   3.223  12.438
54441W        W26734  22.713  19.704   1.301
54442W        W26735   1.426  13.737   3.854
54443W        W26736   9.149  13.293  11.007
54444W        W26737  41.808   8.828   0.281
54445W        W26738  42.313  18.054  11.989
54446W        W26739  43.402   1.294  12.059
54447W        W26740  42.014  30.969  11.469
54448W        W26741  32.633  30.104   3.794
54449W        W26742  31.960   8.886   2.245
54450W        W26743  13.775  44.300  10.645
54451W        W26744  44.495  13.836  10.613
54452W        W26745   2.839  26.572   0.464
54453W        W26746  15.661  28.452  10.937
54454W        W26747  15.166   4.896   3.264
54455W        W26748   6.806   1.921  10.926
54456W        W26749   6.329  43.874  12.488
54457W        W26750  22.596  15.808  14.281
54458W        W26751  19.275  39.339  11.894
54459W        W26752  39.340  21.698   4.784
54460W        W26753  20.571   1.745   0.894
54461W        W26754  18.250   6.324  13.468
54462W        W26755   0.869  22.554   3.776
54463W        W26756  26.963  14.103   0.760
54464W        W26757  13.296  12.188   3.216
54465W        W26758  15.653   3.744   2.376
54466W        W26759  38.394  27.064   2.727
54467W        W26760  33.582  11.360  13.060
54468W        W26761  17.614  40.014  11.906
54469W        W26762  39.824  38.907   0.854
54470W        W26763  12.321  10.142  12.840
54471W        W26764  31.413  14.695   3.260
54472W        W26765  14.252  11.258  13.016
54473W        W26766  31.427  13.628   2.240
54474W        W26767   4.869   1.285   3.267
54475W        W26768   6.322  23.022  11.858
54476W        W26769  41.402  23.734  11.899
54477W        W26770  30.132  24.562   3.214
54478W        W26771   0.476  12.734  14.015
54479W        W26772   2.347  37.413  12.434
54480W        W26773  14.322  36.545   4.316
54481W        W26774   2.317  17.071   2.749
54482W        W26775  43.875   5.906  14.783
54483W        W26776  44.333  23.632  12.077
54484W        W26777  28.447  33.890   1.717
54485W        W26778  27.538  12.262  11.418
54486W        W26779  28.601  42.407  13.857
54487W        W26780  20.065  30.596  12.012
54488W        W26781   3.949  23.720  11.111
54489W        W26782  41.911  24.023   3.292
54490W        W26783   3.286   9.329  11.067
54491W        W26784  30.009  30.532  12.970
54492W        W26785  37.067   3.300  13.971
54493W        W26786   3.322  23.073   1.763
54494W        W26787  11.676  30.507   2.752
54495W        W26788  23.144  26.175   4.228
54496W        W26789  17.761  44.993  14.019
54497W        W26790   8.392  34.076   9.547
54498W        W26791  32.433  35.891  10.633
54499W        W26792  26.463  42.813   2.404
54500W        W26793  32.108  11.840  14.331
54501W        W26794  34.582  40.338   3.636
54502W        W26795  12.721  33.535   4.170
54503W        W26796  44.981  29.554   2.733
54504W        W26797  23.081   2.319   0.964
54505W        W26798   4.749  23.032  14.481
54506W        W26799   9.761   8.208  12.938
54507W        W26800  41.921  43.385  12.058
54508W        W26801  13.261  44.282   0.393
54509W        W26802   2.460  36.528   0.280
54510W        W26803  35.996  33.989   3.855
54511W        W26804  42.507  13.690  12.041
54512W        W26805  33.445  36.848   9.938
54513W        W26806  14.671  12.699   2.700
54514W        W26807  10.309  44.496  10.465
54515W        W26808   6.735  40.981  12.939
54516W        W26809  20.142  33.963   0.893
54517W        W26810  44.465  27.075  10.635
54518W        W26811   4.364  39.926  13.927
54519W        W26812  37.578  43.996  14.962
54520W        W26813  33.511  12.336   3.812
54521W        W26814  43.356   0.901   0.770
54522W        W26815  37.542  12.654  14.279
54523W        W26816  32.537   4.247  13.364
54524W        W26817  11.783  17.687   2.206
54525W        W26818   4.315  15.705   2.821
54526W        W26819  43.387  10.768  10.938
54527W        W26820  30.164  36.543  14.915
54528W        W26821  21.736   4.215   4.753
54529W        W26822  33.875  33.062  10.458
54530W        W26823  22.147   4.442   9.623
54531W        W26824   3.218  42.014  11.005
54532W        W26825  43.980  21.738  14.886
54533W        W26826  41.847  26.970  10.413
54534W        W26827  13.809  25.022  13.395
54535W        W26828   6.345  18.268   4.231
54536W        W26829  35.511   3.928   4.648
54537W        W26830  15.130   6.209  13.060
54538W        W26831  37.863  19.762  12.398
54539W        W26832  25.208  43.343   3.364
54540W        W26833  15.325  15.297   1.798
54541W        W26834  31.041   0.464  13.004
54542W        W26835  14.258  32.053  11.403
54543W        W26836  21.677  11.131  13.326
54544W        W26837  23.693   6.694   1.401
54545W        W26838  28.180   5.359  11.985
54546W        W26839  43.826  39.896   1.855
54547W        W26840   4.431  14.681   3.791
54548W        W26841  35.394  36.006  10.492
54549W        W26842  32.598  17.290   4.797
54550W        W26843   4.341  30.956   0.420
54551W        W26844  28.010  10.837   3.325
54552W        W26845  12.228  32.494   0.396
54553W        W26846  44.296  37.501   3.644
54554W        W26847  29.920  38.907  11.578
54555W        W26848  27.969  41.313   3.307
54556W        W26849   4.706   6.325  10.639
54557W        W26850  21.636   9.697  14.790
54558W        W26851  29.105   1.953   4.608
54559W        W26852  36.369  44.356   0.887
54560W        W26853  42.889  17.109   1.404
54561W        W26854  17.093  17.129  11.865
54562W        W26855   3.745  24.041   1.227
54563W        W26856  39.852   2.910   3.257
54564W        W26857  43.791  28.153   4.297
54565W        W26858  13.690  31.006  14.337
54566W        W26859  28.471  24.096  11.535
54567W        W26860  26.097  22.163   2.350
54568W        W26861  13.324  22.685   0.381
54569W        W26862  19.100  23.490  11.120
54570W        W26863  28.009  28.106   3.234
54571W        W26864   6.898  28.471   3.712
54572W        W26865  41.478  40.827   3.706
54573W        W26866  24.974  35.937   0.733
54574W        W26867  12.720  33.926   1.896
54575W        W26868  41.851  10.711  11.511
54576W        W26869  39.331  18.109   3.201
54577W        W26870   6.778  16.271  13.364
54578W        W26871   4.738  27.136  12.500
54579W        W26872  13.738  39.357  12.556
54580W        W26873  31.610  23.624   2.815
54581W        W26874  39.416  43.306   3.759
54582W        W26875   3.852  17.124   4.289
54583W        W26876  35.580   4.828  13.443
54584W        W26877  43.415  39.484   3.362
54585W        W26878  17.750   8.879   4.748
54586W        W26879  28.584  21.136   9.437
54587W        W26880  32.605   5.786   1.260
54588W        W26881   0.900  25.027  12.830
54589W        W26882  26.599   2.958   1.846
54590W        W26883  44.832  10.752  11.373
54591W        W26884   0.829  44.890  12.469
54592W        W26885  18.732  17.611   2.866
54593W        W26886   6.412  14.191  11.115
54594W        W26887  44.869  19.169  14.419
54595W        W26888  15.319   5.734  10.953
54596W        W26889  11.630   4.821  12.433
54597W        W26890  41.947  25.977   4.288
54598W        W26891  15.613   8.876  14.874
54599W        W26892  23.713  34.046  11.972
54600W        W26893  13.153   8.733  14.308
54601W        W26894  32.470   2.472  13.869
54602W        W26895  12.346  12.697  11.529
54603W        W26896  25.024   3.253  13.036
54604W        W26897  36.480  19.154   3.376
54605W        W26898   3.276   2.421  11.964
54606W        W26899  10.769  31.557  12.439
54607W        W26900  44.875  23.189   2.309
54608W        W26901   7.895  13.162  14.497
54609W        W26902  28.571  14.803   0.265
54610W        W26903  33.988  25.501   1.818
54611W        W26904  26.600  25.661   2.258
54612W        W26905  15.256  38.888   1.798
54613W        W26906  14.159   8.862  12.853
54614W        W26907   3.378  30.635  13.386
54615W        W26908   8.251  25.557   2.277
54616W        W26909   8.300  21.678  10.941
54617W        W26910  17.742  33.046  11.071
54618W        W26911  29.601  28.490   3.852
54619W        W26912  23.021  29.130  14.927
54620W        W26913  11.799  32.908   0.317
54621W        W26914  16.102   0.346   4.834
54622W        W26915   1.966  12.832  11.971
54623W        W26916  17.252   8.899  10.443
54624W        W26917  15.289  33.594   4.765
54625W        W26918   0.809  12.739  14.278
54626W        W26919  22.561  23.233  13.316
54627W        W26920  22.547   8.300  12.359
54628W        W26921  35.078   3.831   1.256
54629W        W26922  27.539   1.467   1.711
54630W        W26923  18.112  35.599  13.394
54631W        W26924  39.980  35.428  10.493
54632W        W26925  28.651  27.961  11.551
54633W        W26926  26.640  20.576  12.450
54634W        W26927  33.927  27.109   4.821
54635W        W26928  32.392  25.183   1.781
54636W        W26929  29.586   5.857   4.220
54637W        W26930  35.074  11.621  12.341
54638W        W26931  33.510  25.201  11.083
54639W        W26932  10.760  32.966   4.830
54640W        W26933  11.796  34.866  14.278
54641W        W26934  24.511   0.366   0.944
54642W        W26935  26.104  38.007  12.927
54643W        W26936   6.898  20.037   3.174
54644W        W26937   4.285   4.241  14.275
54645W        W26938  23.530  16.277  12.091
54646W        W26939  40.853  11.219  11.391
54647W        W26940  14.800  30.143   4.780
54648W        W26941  33.903  27.142   1.353
54649W        W26942  22.023  31.537   0.327
54650W        W26943   2.374  17.300   0.907
54651W        W26944  30.934  37.836   0.936
54652W        W26945  19.617  21.745   3.185
54653W        W26946   2.283  11.789  12.371
54654W        W26947  22.221   1.283   2.191
54655W        W26948  16.652  13.165  14.866
54656W        W26949  43.016  13.248  14.333
54657W        W26950  11.721   3.393   3.688
54658W        W26951  18.055  18.249  12.859
54659W        W26952  30.108  38.493   3.190
54660W        W26953  31.598   4.699   4.767
54661W        W26954  13.264  40.974  14.787
54662W        W26955  40.546   8.377   4.291
54663W        W26956  20.645  14.229   3.349
54664W        W26957  22.124  26.458   0.828
54665W        W26958  43.294  21.613   2.362
54666W        W26959  38.455  44.885   4.308
54667W        W26960   2.781   9.222   4.769
54668W        W26961   2.735  29.661   1.715
54669W        W26962   5.804   7.872   0.313
54670W        W26963  20.034  23.730  11.402
54671W        W26964  44.278  18.717  11.431
54672W        W26965  37.911   3.365  14.445
54673W        W26966  39.974   9.854   3.250
54674W        W26967  17.637  22.720  13.860
54675W        W26968  42.809  28.440  10.644
54676W        W26969   1.332  15.579  14.861
54677W        W26970  37.399  16.734   3.285
54678W        W26971  10.155   5.809  14.821
54679W        W26972   1.800   5.758  13.387
54680W        W26973  30.629  39.014   3.313
54681W        W26974  32.398  30.076   0.853
54682W        W26975   6.693  30.431  11.507
54683W        W26976  18.575  17.672   0.959
54684W        W26977  33.942   1.336  14.832
54685W        W26978  12.308  24.647   4.244
54686W        W26979  33.587   2.314   0.327
54687W        W26980  30.476   3.713   2.301
54688W        W26981  22.573   4.383   1.811
54689W        W26982  43.392  31.638   2.212
54690W        W26983   9.301  22.547  12.833
54691W        W26984   5.717  35.513  10.052
54692W        W26985  39.506  37.559  12.926
54693W        W26986  10.809   0.802  12.422
54694W        W26987  20.030  16.092   1.737
54695W        W26988   0.284  15.235  13.037
54696W        W26989  24.225  10.732   1.888
54697W        W26990  11.770  22.209   1.392
54698W        W26991  27.498  33.878  14.013
54699W        W26992   5.265  35.389   4.348
54700W        W26993  33.572  41.438   4.294
54701W        W26994  40.440   2.901   2.398
54702W        W26995  10.199  32.015   1.392
54703W        W26996  34.111  27.604   4.714
54704W        W26997   6.208   6.294  14.440
54705W        W26998  16.794  23.042   0.763
54706W        W26999  24.650   3.724   2.302
54707W        W27000  38.410   7.746   3.642
54708W        W27001  12.828  25.012  11.895
54709W        W27002  42.478   0.385   0.840
54710W        W27003  30.499  35.854   0.765
54711W        W27004  30.482  31.521  12.372
54712W        W27005  32.422  23.499  14.018
54713W        W27006  19.178   5.882  14.450
54714W        W27007   5.887  20.204   0.750
54715W        W27008  36.386  32.602   3.271
54716W        W27009  41.423  22.168  11.594
54717W        W27010  15.226   6.796   1.277
54718W        W27011  11.719  27.581  13.836
54719W        W27012  13.739  25.131  12.579
54720W        W27013  11.824  16.086   3.702
54721W        W27014  15.621   3.380   4.730
54722W        W27015  31.134  15.763  14.411
54723W        W27016  23.511  10.824   2.202
54724W        W27017  14.713   7.826  12.436
54725W        W27018  16.293  24.566   2.808
54726W        W27019  29.085  38.035   0.418
54727W        W27020  13.808  44.481  13.882
54728W        W27021  11.709  41.863  12.501
54729W        W27022  34.524  22.042   3.676
54730W        W27023  41.355  28.475   0.813
54731W        W27024  19.663  19.741   4.598
54732W        W27025   1.740  40.047   0.752
54733W        W27026   8.728  34.595  10.462
54734W        W27027  42.828  33.971   2.255
54735W        W27028  41.423  21.593   4.190
54736W        W27029  26.456  25.004  14.348
54737W        W27030  38.373   8.693  10.490
54738W        W27031   2.947  39.813   1.819
54739W        W27032  36.069  31.044  14.373
54740W        W27033  16.782  26.467   1.382
54741W        W27034  12.856  44.976  12.875
54742W        W27035   8.714  38.824   1.409
54743W        W27036  10.315  22.107   2.798
54744W        W27037   5.790  32.478  14.354
54745W        W27038  37.056  20.110  12.490
54746W        W27039  36.938  32.612   4.764
54747W        W27040  19.543  39.316  10.897
54748W        W27041   5.776  33.997  10.636
54749W        W27042  24.224  14.254  12.473
54750W        W27043  41.373   2.285   0.831
54751W        W27044  34.442  39.476  14.515
54752W        W27045  27.561   1.384   4.812
54753W        W27046  44.430   9.221  13.871
54754W        W27047  17.570  11.646   2.667
54755W        W27048  43.996  38.462   0.307
54756W        W27049  41.827  23.655  14.505
54757W        W27050  12.307  44.300   0.784
54758W        W27051  12.330  22.191  11.115
54759W        W27052  14.667   8.684   4.231
54760W        W27053  33.961   8.846   4.230
54761W        W27054  26.665  17.579   4.204
54762W        W27055  38.506   7.215  14.352
54763W        W27056  19.220  20.127  14.422
54764W        W27057  17.760   2.772   1.315
54765W        W27058  23.148  38.830  10.622
54766W        W27059  22.098  40.920   3.323
54767W        W27060  11.355   8.731  10.445
54768W        W27061  39.489  14.255   2.295
54769W        W27062   0.342  41.896   1.259
54770W        W27063  11.690  43.287  11.410
54771W        W27064  12.647  36.087   0.820
54772W        W27065   6.693  41.803  11.886
54773W        W27066  18.199  44.321   1.248
54774W        W27067  40.882  21.568  14.916
54775W        W27068  40.910  18.150  12.996
54776W        W27069   0.450  11.202   0.773
54777W        W27070  40.019  31.057  14.861
54778W        W27071  34.920  31.576   2.699
54779W        W27072  10.292   0.280   5.144
54780W        W27073  14.318   2.451  11.113
54781W        W27074  31.109  41.502   3.771
54782W        W27075  17.657  30.951   2.700
54783W        W27076  13.345   4.788  12.953
54784W        W27077   9.883   4.282  14.779
54785W        W27078  34.023  29.946  11.119
54786W        W27079  22.114  39.408   1.446
54787W        W27080  33.935   1.885   2.902
54788W        W27081  11.756   1.811  10.470
54789W        W27082  30.935   2.386  12.361
54790W        W27083  29.020  25.997  10.616
54791W        W27084  19.693  41.396   1.816
54792W        W27085  14.304  44.328  10.534
54793W        W27086  36.549  28.989  12.556
54794W        W27087  30.625  31.032  10.516
54795W        W27088  29.017  23.150   3.710
54796W        W27089   0.347  18.119   0.248
54797W        W27090  17.669  26.037  13.902
54798W        W27091  44.272  30.981   1.778
54799W        W27092   0.893   2.459   4.247
54800W        W27093  10.832  28.626   3.255
54801W        W27094  18.056  34.596  14.893
54802W        W27095  35.482   0.889  13.385
54803W        W27096  22.609  28.085  10.629
54804W        W27097   4.770  14.832   5.287
54805W        W27098   4.724   0.894   3.342
54806W        W27099  44.301   2.360   3.848
54807W        W27100  13.267  13.256   2.246
54808W        W27101  40.007  39.488   1.719
54809W        W27102  29.466  35.395   4.615
54810W        W27103   9.705  17.700  14.890
54811W        W27104  42.785   8.304  11.486
54812W        W27105  29.030   4.828   0.836
54813W        W27106  10.168   7.363   0.772
54814W        W27107  16.142  22.203  11.936
54815W        W27108  26.067   3.813  11.411
54816W        W27109  39.323   8.309   0.919
54817W        W27110   8.271  44.455  13.978
54818W        W27111  36.574  13.235   4.767
54819W        W27112  25.649   1.850  14.896
54820W        W27113  37.545  12.854  12.503
54821W        W27114  31.550  40.506  14.459
54822W        W27115   5.824   2.325  13.888
54823W        W27116   4.448   0.477   1.827
54824W        W27117  30.071   2.393   3.274
54825W        W27118   9.751  21.094   1.316
54826W        W27119  11.727  32.962  11.922
54827W        W27120  42.315  40.545   3.197
54828W        W27121   9.806  25.004  13.541
54829W        W27122   9.272   0.892  14.805
54830W        W27123  21.069  34.518  11.048
54831W        W27124  32.540  37.489  14.982
54832W        W27125  33.031  10.863  13.990
54833W        W27126  17.778  44.992   0.331
54834W        W27127  20.205   8.375  11.106
54835W        W27128   2.740  14.801   0.845
54836W        W27129  27.072  13.161   1.796
54837W        W27130  29.471  14.281  10.928
54838W        W27131   4.326  24.992  12.569
54839W        W27132  38.865  40.831  14.790
54840W        W27133  43.375  27.963  14.476
54841W        W27134  20.635  40.361  10.957
54842W        W27135   4.288  44.834  10.546
54843W        W27136  27.196  20.115  10.508
54844W        W27137  28.668  30.130  14.514
54845W        W27138  10.275   5.362  10.122
54846W        W27139  42.846  29.669   2.880
54847W        W27140  14.742  11.144   3.379
54848W        W27141   8.389  30.652   1.800
54849W        W27142  42.432  40.515  12.959
54850W        W27143  40.885  17.173  13.373
54851W        W27144  15.631  40.513  13.024
54852W        W27145  28.651   7.182  12.030
54853W        W27146  10.674   7.869   0.464
54854W        W27147  28.103  38.051   0.899
54855W        W27148  20.077   0.986  14.331
54856W        W27149   7.329   9.826   2.228
54857W        W27150   2.438  21.651  11.610
54858W        W27151  38.942  22.530  10.446
54859W        W27152   8.872  20.701   1.925
54860W        W27153  29.110  12.706   2.342
54861W        W27154  37.016  19.537   4.701
54862W        W27155  11.310  20.205  14.859
54863W        W27156  14.256  16.212  12.470
54864W        W27157  43.970  24.572   2.770
54865W        W27158  31.942  18.263  12.037
54866W        W27159  21.667   0.897   2.828
54867W        W27160  20.627   7.684   4.760
54868W        W27161  19.543   8.166  13.043
54869W        W27162  38.446  17.263  14.027
54870W        W27163   1.947  38.523   3.775
54871W        W27164  18.104  37.335  11.060
54872W        W27165  16.751  27.191  12.366
54873W        W27166  24.483   7.809   1.918
54874W        W27167  11.810   8.742  13.976
54875W        W27168  15.788   7.319   4.209
54876W        W27169  19.584   5.797   2.337
54877W        W27170  23.536  11.348   1.341
54878W        W27171  27.543  12.209   4.333
54879W        W27172  32.505   3.894   0.822
54880W        W27173  32.967  32.069   5.265
54881W        W27174  34.086   0.975   0.950
54882W        W27175  44.285   6.806   3.735
54883W        W27176  24.227   0.413   2.749
54884W        W27177  15.295   8.846  13.398
54885W        W27178   5.932  43.945   1.428
54886W        W27179  33.583  22.045  12.028
54887W        W27180  16.112   6.721  11.112
54888W        W27181  10.338  27.578   4.836
54889W        W27182   8.805  32.518   3.858
54890W        W27183  35.082  43.304  13.526
54891W        W27184  41.818  36.952   0.307
54892W        W27185  26.114  24.129  12.567
54893W        W27186  15.607  41.939  12.940
54894W        W27187   7.255   9.701  13.398
54895W        W27188   4.700  38.075   3.706
54896W        W27189  33.903   3.739   0.324
54897W        W27190   9.159  13.763   1.705
54898W        W27191  21.527  11.234   4.733
54899W        W27192  34.965  22.705  14.383
54900W        W27193  41.820  15.301  13.310
54901W        W27194  13.288   0.756  11.537
54902W        W27195   6.270  18.276  12.080
54903W        W27196  39.933  41.459  14.493
54904W        W27197  24.686  32.137  12.376
54905W        W27198   9.217  23.190  11.959
54906W        W27199  40.512  39.808  12.483
54907W        W27200   5.811  27.047   4.698
54908W        W27201  18.050   2.343   3.207
54909W        W27202  42.962   4.849   3.838
54910W        W27203  31.060  26.959   1.756
54911W        W27204   9.354  32.516   2.819
54912W        W27205  13.147   5.834  12.461
54913W        W27206  37.879  36.990  14.330
54914W        W27207  26.630  33.456   1.375
54915W        W27208  44.496   6.789  11.939
54916W        W27209  44.269  39.942   3.706
54917W        W27210  44.482  37.570  14.881
54918W        W27211  38.500   7.183  11.978
54919W        W27212  30.581  43.770   0.314
54920W        W27213  43.391  28.512  13.041
54921W        W27214  25.573  44.425   2.337
54922W        W27215   8.324   6.198  10.566
54923W        W27216   7.309  41.473   1.731
54924W        W27217  37.391  31.116   4.599
54925W        W27218   8.185   1.429  14.997
54926W        W27219  16.182  22.645  11.111
54927W        W27220  24.486  42.502   0.376
54928W        W27221  35.069  40.306  13.444
54929W        W27222  38.518   3.841   4.818
54930W        W27223  20.573  39.555  14.872
54931W        W27224  19.228   4.450  10.928
54932W        W27225  13.262  17.092   5.162
54933W        W27226  14.220   1.927   5.288
54934W        W27227  17.725   8.250   4.652
54935W        W27228  28.482   1.471  13.914
54936W        W27229   2.294   9.652  14.854
54937W        W27230  22.180  25.043   1.451
54938W        W27231  24.999  10.209  10.629
54939W        W27232  28.605  43.015  13.806
54940W        W27233  41.414  24.697   0.481
54941W        W27234   8.826  16.081   2.314
54942W        W27235  38.393   2.463  10.897
54943W        W27236  14.103  35.453   4.626
54944W        W27237  24.984  20.640  10.453
54945W        W27238   1.405   1.758   0.826
54946W        W27239  25.996  26.017   3.688
54947W        W27240  30.643  30.059   0.248
54948W        W27241  40.516   3.450  10.637
54949W        W27242  31.409  17.618  10.898
54950W        W27243  38.402  14.775   1.300
54951W        W27244   0.424   8.828  14.968
54952W        W27245   8.871  24.551  12.859
54953W        W27246  10.636   5.722  11.054
54954W        W27247  18.772  14.699  12.882
54955W        W27248  29.063  28.941   0.799
54956W        W27249  39.488  41.934  10.613
54957W        W27250  26.665  37.506  10.079
54958W        W27251  27.569  25.055  12.369
54959W        W27252  39.033  18.734   1.396
54960W        W27253  27.448  16.265   2.348
54961W        W27254  11.842   8.853   3.709
54962W        W27255  10.319   7.906   3.387
54963W        W27256   9.219  21.052  14.810
54964W        W27257  11.342  29.656  13.886
54965W        W27258  42.801  42.869  13.404
54966W        W27259   1.411  26.155   1.918
54967W        W27260  42.890   4.936   0.463
54968W        W27261   8.279  17.262  13.059
54969W        W27262   6.860  31.603   3.371
54970W        W27263  44.865  29.079   0.422
54971W        W27264  16.657  44.928   2.363
54972W        W27265  35.037  44.852  12.063
54973W        W27266  22.098   9.292  14.452
54974W        W27267  12.275   7.393  11.916
54975W        W27268  43.281  31.528   0.797
54976W        W27269  28.557  11.224   1.802
54977W        W27270  10.341  16.686   1.867
54978W        W27271  24.069  28.051   0.301
54979W        W27272  32.055  14.108   0.378
54980W        W27273  40.371   4.714  14.993
54981W        W27274  16.692  27.627  11.877
54982W        W27275   8.233  21.131  13.057
54983W        W27276  31.003  44.883  14.504
54984W        W27277   4.224  35.856  13.542
54985W        W27278  13.612   5.213   3.862
54986W        W27279  26.630  39.895   1.869
54987W        W27280   8.745  18.623   4.838
54988W        W27281  28.966  40.992   1.425
54989W        W27282  20.753   2.310  14.836
54990W        W27283  15.591  27.971   0.818
54991W        W27284   3.426  23.666  10.644
54992W        W27285  15.752  37.022  11.100
54993W        W27286  18.734  38.876  11.903
54994W        W27287  18.293  13.181  12.543
54995W        W27288  11.815  17.760   4.698
54996W        W27289  32.918  36.381   2.202
54997W        W27290  17.198  10.735  12.382
54998W        W27291   7.328  44.791  11.929
54999W        W27292  40.431  24.205  14.372
55000W        W27293  34.401  37.447   2.321
55001W        W27294  12.189  23.660  14.790
55002W        W27295   8.183  40.876   3.231
55003W        W27296  18.548  10.186   5.097
55004W        W27297  25.051  15.255  10.554
55005W        W27298  19.665  20.567   4.758
55006W        W27299   9.671  21.643   1.232
55007W        W27300  31.056  40.464  11.603
55008W        W27301  12.210  16.198  12.456
55009W        W27302  18.230   6.903  13.981
55010W        W27303  11.637  37.886  14.002
55011W        W27304  40.400   8.762   0.257
55012W        W27305  27.575  37.059   0.328
55013W        W27306  35.543  42.432  13.365
55014W        W27307  40.927  26.471  11.547
55015W        W27308  20.051  35.923   2.185
55016W        W27309   7.284   0.438  12.965
55017W        W27310  38.335  31.110   4.183
55018W        W27311  26.650  26.656   3.235
55019W        W27312  30.100  24.619   4.208
55020W        W27313  24.157  32.944  14.771
55021W        W27314  23.617  24.056  13.027
55022W        W27315   3.790  16.787  10.894
55023W        W27316   3.879   2.241  12.041
55024W        W27317  25.031  44.001   4.773
55025W        W27318  20.532  40.529   0.782
55026W        W27319   0.793  32.409   0.373
55027W        W27320  41.389  17.566   0.408
55028W        W27321  34.586  25.179   3.267
55029W        W27322  39.507  14.634   2.860
55030W        W27323  21.640  16.744   4.335
55031W        W27324  26.552  21.569  12.004
55032W        W27325  38.534   4.398   2.246
55033W        W27326  12.764   8.335   0.445
55034W        W27327  42.957   2.951   3.205
55035W        W27328  28.546  12.767   1.926
55036W        W27329  34.922  23.119  13.361
55037W        W27330   3.330  36.470   2.321
55038W        W27331  22.715   2.449   2.772
55039W        W27332  39.321  35.983  13.959
55040W        W27333  25.566  20.100   1.912
55041W        W27334  20.712  29.562  11.096
55042W        W27335   1.352  41.446   1.301
55043W        W27336  30.092  14.744  11.890
55044W        W27337  43.897  34.445   0.874
55045W        W27338   9.390  14.094  12.826
55046W        W27339  26.471   7.196   4.670
55047W        W27340  16.099  44.982  14.478
55048W        W27341  21.637  19.665   0.954
55049W        W27342  34.915  36.994  11.390
55050W        W27343  14.727  19.619   3.770
55051W        W27344  31.564  29.668  13.421
55052W        W27345  19.570  19.660   2.714
55053W        W27346  36.886  24.135  12.901
55054W        W27347  27.469   1.255   1.293
55055W        W27348  20.525   6.209   2.307
55056W        W27349  12.789   6.743   3.307
55057W        W27350  43.773   2.303  13.810
55058W        W27351  33.527  39.379   9.953
55059W        W27352  34.895  30.954  14.319
55060W        W27353  17.179  29.599  13.922
55061W        W27354   7.758   7.841   0.414
55062W        W27355  33.625   8.670  11.523
55063W        W27356  15.739   1.892  11.491
55064W        W27357  17.255  21.152   1.424
55065W        W27358  13.782  35.600   3.288
55066W        W27359   5.818  41.038   2.664
55067W        W27360   2.448   5.688  12.370
55068W        W27361  17.086  22.587  13.347
55069W        W27362  30.939   7.356   2.787
55070W        W27363   2.427  30.527  12.929
55071W        W27364  38.059  12.714  12.928
55072W        W27365  33.504  34.036  11.884
55073W        W27366  22.036  18.550   3.806
55074W        W27367  34.866  10.645  13.827
55075W        W27368  44.282   4.705   0.742
55076W        W27369  14.786   3.345   4.772
55077W        W27370  32.986  31.487   0.243
55078W        W27371  24.132  19.599   3.162
55079W        W27372  23.016  27.032  14.909
55080W        W27373   1.972  39.886   3.830
55081W        W27374   2.231  31.103   1.340
55082W        W27375  42.789   8.345   2.748
55083W        W27376   9.334   8.339   1.448
55084W        W27377  35.490  32.102  11.020
55085W        W27378   3.450  31.505  11.969
55086W        W27379  20.188  23.184   4.214
55087W        W27380  36.078   7.358   2.853
55088W        W27381   7.383  12.338  11.000
55089W        W27382  41.885  31.968  13.376
55090W        W27383  24.627   3.781   4.624
55091W        W27384  30.577  25.144   1.414
55092W        W27385   9.791  16.805   3.839
55093W        W27386  24.719  34.969  11.392
55094W        W27387  10.373  25.990  12.393
55095W        W27388  27.132  40.489   4.148
55096W        W27389  32.029  35.109   2.400
55097W        W27390  42.888  34.047   4.123
55098W        W27391   1.939  16.179   1.929
55099W        W27392  33.428  35.593  14.020
55100W        W27393  22.015   4.310  12.352
55101W        W27394  21.720  17.570   0.287
55102W        W27395   3.723  19.672   5.286
55103W        W27396  23.685  14.272   4.196
55104W        W27397  35.865  40.531  12.872
55105W        W27398  40.330  23.642  12.840
55106W        W27399  43.913   9.842  11.106
55107W        W27400  43.848  34.083  13.407
55108W        W27401  39.857  20.689   1.886
55109W        W27402  20.747  17.673  12.993
55110W        W27403  44.445   7.238   4.261
55111W        W27404  18.722  39.815  14.912
55112W        W27405  35.926  33.085   3.227
55113W        W27406  43.307  20.263   0.966
55114W        W27407   1.379  18.621   1.229
55115W        W27408  41.945  22.520   3.764
55116W        W27409  11.704   8.403   3.657
55117W        W27410  25.111  14.616  12.960
55118W        W27411  22.239  21.064  14.335
55119W        W27412  18.209   4.306  12.566
55120W        W27413  10.319  27.173  10.933
55121W        W27414  29.155  24.530  14.976
55122W        W27415  13.153  41.452   3.147
55123W        W27416  39.903  21.061  13.018
55124W        W27417  44.477  14.757   1.275
55125W        W27418  42.906  13.322  13.876
55126W        W27419  43.349  19.768  11.099
55127W        W27420  41.370  23.551  13.524
55128W        W27421   4.878   7.871   1.817
55129W        W27422  16.613  15.732   4.711
55130W        W27423   5.849  41.497   4.119
55131W        W27424  38.469  19.739   0.926
55132W        W27425  29.044  25.159   1.349
55133W        W27426  38.566   6.279  10.974
55134W        W27427  15.742  20.525   0.860
55135W        W27428   0.434  27.658  10.564
55136W        W27429   0.907   9.748  13.029
55137W        W27430  44.960  12.787  13.366
55138W        W27431  42.357   4.767   1.234
55139W        W27432  22.230  14.214   4.707
55140W        W27433  37.044  35.567  14.504
55141W        W27434  36.987  27.576  10.914
55142W        W27435  33.015  32.457   3.682
55143W        W27436  24.689  41.878   2.893
55144W        W27437  35.883  10.145  14.760
55145W        W27438  35.007   8.811  13.533
55146W        W27439   0.256  19.644  14.783
55147W        W27440  11.816  21.155   2.849
55148W        W27441   8.888  26.089   0.842
55149W        W27442  26.627  41.362  13.472
55150W        W27443  44.769   3.933   4.793
55151W        W27444  28.053  32.132  11.490
55152W        W27445  29.971  42.354  10.616
55153W        W27446  25.503   6.368   4.118
55154W        W27447  30.571  44.361  14.305
55155W        W27448   0.816   5.728   3.220
55156W        W27449  19.157  18.764  13.960
55157W        W27450  43.980  40.407   0.426
55158W        W27451  13.221  19.045   0.305
55159W        W27452  13.710  36.451  10.416
55160W        W27453  23.658   7.185   1.396
55161W        W27454  33.475  17.157  13.413
55162W        W27455  42.412   5.823   4.803
55163W        W27456  14.687   8.161  12.453
55164W        W27457   7.879  38.919  14.330
55165W        W27458  29.622  24.678  12.056
55166W        W27459   3.373  40.469   0.808
55167W        W27460   0.816  14.113   3.694
55168W        W27461  20.753   6.748  10.963
55169W        W27462  38.336  29.477  14.931
55170W        W27463  29.122   0.468   4.257
55171W        W27464  30.958  22.557  13.477
55172W        W27465  27.107  16.192   2.264
55173W        W27466  18.739  43.352  10.496
55174W        W27467  33.904  19.241   1.846
55175W        W27468  22.500   5.768  10.598
55176W        W27469  26.519  21.198  14.295
55177W        W27470  19.189  44.887   0.769
55178W        W27471   4.206  34.904  12.341
55179W        W27472  25.216  37.400  14.026
55180W        W27473  22.010  11.796  13.953
55181W        W27474  36.451  38.031  12.424
55182W        W27475  27.613  14.329   1.279
55183W        W27476  33.001  26.588   2.693
55184W        W27477  17.151  11.324   0.309
55185W        W27478   4.862  36.354  14.491
55186W        W27479  15.677   6.705  10.536
55187W        W27480  43.801   8.680   3.787
55188W        W27481  30.033  26.973  12.403
55189W        W27482  22.644  32.940   3.175
55190W        W27483   3.793   9.254  11.505
55191W        W27484  37.389  22.127  14.439
55192W        W27485  23.633  42.481  13.458
55193W        W27486  33.112  38.430   0.940
55194W        W27487  22.103  25.529   3.649
55195W        W27488   7.837  32.408   2.258
55196W        W27489  43.776  28.175   2.810
55197W        W27490  26.071  41.328   1.368
55198W        W27491  14.111  32.567  11.947
55199W        W27492  13.139  42.525   4.339
55200W        W27493  15.701  30.094  10.549
55201W        W27494   0.817  18.191  10.924
55202W        W27495  18.267  10.757   1.819
55203W        W27496  13.751   7.350  13.046
55204W        W27497   2.370   9.383   4.838
55205W        W27498  10.162  26.688   3.676
55206W        W27499  20.757  14.692  11.923
55207W        W27500  23.099  20.209   0.425
55208W        W27501  39.890  17.081  10.522
55209W        W27502  25.472   0.925   1.260
55210W        W27503  26.141  34.560   0.854
55211W        W27504  40.488  24.994  13.405
55212W        W27505  11.823  42.821   2.704
55213W        W27506  11.357  18.226  11.563
55214W        W27507  44.381   2.375   1.311
55215W        W27508   3.340  37.352  14.420
55216W        W27509  30.589  13.792   1.257
55217W        W27510  35.571  21.046  14.939
55218W        W27511  15.597  24.537  13.930
55219W        W27512  34.509  44.419  14.847
55220W        W27513  16.667  41.940  14.904
55221W        W27514   5.816  10.723   4.766
55222W        W27515   2.399  30.964   4.327
55223W        W27516  31.105   6.897  13.792
55224W        W27517  12.708  28.566   3.782
55225W        W27518  29.424  15.710  13.312
55226W        W27519  11.236  27.480  12.915
55227W        W27520   0.775   4.915  14.378
55228W        W27521  16.289  33.511  13.525
55229W        W27522  33.597  18.220  12.492
55230W        W27523  34.904  40.998   1.823
55231W        W27524   8.390  22.565  14.952
55232W        W27525  42.500  29.610   4.249
55233W        W27526  24.154  31.586   3.336
55234W        W27527  16.190  34.478   4.684
55235W        W27528  21.152  41.480  11.607
55236W        W27529   4.903  38.829  14.895
55237W        W27530  20.104  34.056   0.266
55238W        W27531   4.431   8.803  13.041
55239W        W27532  35.590  40.840   1.305
55240W        W27533  30.445  32.605   3.861
55241W        W27534   5.761   1.451   4.119
55242W        W27535  41.509  13.670   3.351
55243W        W27536  19.551  42.010  10.451
55244W        W27537  28.633  30.087   2.391
55245W        W27538  30.541  14.751  10.531
55246W        W27539   6.367  37.908  13.467
55247W        W27540  38.445  22.052   1.910
55248W        W27541  19.191   9.729   2.897
55249W        W27542  20.638  12.270  11.448
55250W        W27543  31.467  11.318  12.449
55251W        W27544   8.664  30.438  11.488
55252W        W27545  16.309  10.748   0.849
55253W        W27546  12.325   6.725   3.861
55254W        W27547   1.440  18.562  11.126
55255W        W27548  28.941  33.938  11.011
55256W        W27549  16.125  20.161  12.536
55257W        W27550  20.261  40.016  14.784
55258W        W27551  12.801  26.131  13.410
55259W        W27552  28.951  42.858   2.207
55260W        W27553  34.578  24.554  12.844
55261W        W27554  11.358   1.345   0.845
55262W        W27555  36.971  15.775   0.444
55263W        W27556  40.021   5.890  13.799
55264W        W27557  43.811  15.258   4.331
55265W        W27558  18.137   8.370   0.457
55266W        W27559  19.655   1.745   2.747
55267W        W27560  14.274  15.744   3.757
55268W        W27561  16.810  29.488  12.063
55269W        W27562   1.299  18.787   0.856
55270W        W27563   1.424   4.248  14.819
55271W        W27564  10.184   8.886  14.471
55272W        W27565  18.715  23.667   4.696
55273W        W27566  31.901  12.798   0.755
55274W        W27567  43.434  44.389   3.208
55275W        W27568  35.480   6.410   4.121
55276W        W27569  21.665   9.338   4.704
55277W        W27570   4.308  29.504  13.805
55278W        W27571  14.660   5.264  13.827
55279W        W27572  39.911  31.537   2.830
55280W        W27573  18.701  19.752   1.276
55281W        W27574  24.984   8.702  12.849
55282W        W27575  22.995  22.996  12.904
55283W        W27576   8.715  26.207   0.244
55284W        W27577  28.002  38.543   3.696
55285W        W27578   7.228   2.932   3.257
55286W        W27579  43.965  36.527   1.847
55287W        W27580   7.204  40.526   1.335
55288W        W27581  35.031  28.574  10.960
55289W        W27582   1.463  37.569  12.527
55290W        W27583   1.941  20.120   1.325
55291W        W27584   4.804  35.033  10.959
55292W        W27585  43.804  25.216  12.067
55293W        W27586  31.123   3.276   3.791
55294W        W27587  24.144  36.506  14.021
55295W        W27588  33.607  28.983   3.160
55296W        W27589  14.142  16.586  11.397
55297W        W27590   2.451  21.543   3.806
55298W        W27591   0.841  21.611  13.987
55299W        W27592  25.686  42.381   2.280
55300W        W27593  29.149  37.994   2.787
55301W        W27594  33.953  35.995   3.658
55302W        W27595  16.105  44.330  11.060
55303W        W27596  30.023  34.417  14.808
55304W        W27597  27.687  18.137   1.856
55305W        W27598  18.609  31.025   5.743
55306W        W27599  13.298   0.797  13.038
55307W        W27600   1.240   3.928   0.869
55308W        W27601   7.825   5.370   3.668
55309W        W27602  20.580  32.471  13.875
55310W        W27603   7.700   9.343   1.770
55311W        W27604  22.033  10.154   3.255
55312W        W27605   0.438  31.553  14.013
55313W        W27606  15.193  33.382   2.373
55314W        W27607  22.665  39.934  14.924
55315W        W27608  25.109  12.822  13.959
55316W        W27609  26.960  24.688  10.495
55317W        W27610   7.829  22.995  11.050
55318W        W27611   5.312  15.169   2.706
55319W        W27612  15.703  15.152  11.425
55320W        W27613  33.456   5.286   4.300
55321W        W27614  26.651  44.777  14.966
55322W        W27615  38.937  12.793  12.390
55323W        W27616  11.719  33.451  12.474
55324W        W27617  33.100   8.377   2.734
55325W        W27618   0.940   2.902  12.355
55326W        W27619  29.570  32.121  14.845
55327W        W27620  10.826  24.214   3.725
55328W        W27621  18.749  37.374   1.921
55329W        W27622   5.848   0.466   4.173
55330W        W27623  28.131  17.119   1.245
55331W        W27624  34.591  26.025   1.771
55332W        W27625   9.850   3.314   1.302
55333W        W27626  42.001  11.349  13.334
55334W        W27627   6.264  38.558  14.447
55335W        W27628  32.493   1.481   4.675
55336W        W27629  28.103  31.499  13.423
55337W        W27630  19.226  16.672   3.719
55338W        W27631  16.190  40.943  14.284
55339W        W27632  33.941  29.651  13.431
55340W        W27633   3.833  23.539  13.881
55341W        W27634  17.598  38.474   4.158
55342W        W27635  10.208   0.903  10.576
55343W        W27636  19.246  29.453   3.838
55344W        W27637  16.316   0.818  11.509
55345W        W27638  43.952  26.048  12.852
55346W        W27639  39.354  33.588  10.520
55347W        W27640  32.590  35.440   2.249
55348W        W27641  15.178  31.148  10.600
55349W        W27642  17.083  41.301  11.080
55350W        W27643  21.581  43.448  13.334
55351W        W27644  14.766  23.043   3.207
55352W        W27645   7.827  31.479   4.201
55353W        W27646  38.891   0.900  12.887
55354W        W27647  26.037  40.872   2.717
55355W        W27648   6.705   1.867  13.059
55356W        W27649  15.626   0.754  13.874
55357W        W27650  43.824  17.290  11.416
55358W        W27651  32.947   9.226   9.531
55359W        W27652  22.024   9.775  12.972
55360W        W27653  31.449  14.308  11.941
55361W        W27654  41.858  41.532  11.989
55362W        W27655  33.874  17.735   3.235
55363W        W27656   2.804  13.800   1.871
55364W        W27657  15.819  19.134  14.358
55365W        W27658  26.506  35.861  10.459
55366W        W27659  10.696  18.104   1.701
55367W        W27660  30.130  17.777  10.464
55368W        W27661  25.075   0.757   2.791
55369W        W27662   3.327  43.507   3.780
55370W        W27663  28.592  35.472  11.856
55371W        W27664  16.693  39.982   4.314
55372W        W27665  28.135  17.269  14.003
55373W        W27666  35.499  21.570  11.089
55374W        W27667  33.888   2.444   2.334
55375W        W27668  31.933  43.423   3.711
55376W        W27669  27.997  33.955   0.271
55377W        W27670   0.980  10.739   0.435
55378W        W27671  11.196  34.432   3.258
55379W        W27672  35.999  18.561   3.698
55380W        W27673  31.099  31.050  13.393
55381W        W27674  24.195  35.004   0.814
55382W        W27675  16.804   9.241   3.642
55383W        W27676   2.260  31.024  13.034
55384W        W27677  25.160  32.050   3.779
55385W        W27678  12.192   2.958   0.267
55386W        W27679   9.687  36.926   2.307
55387W        W27680  16.208  11.315   4.682
55388W        W27681  44.808  40.520   2.382
55389W        W27682  30.160  24.216   1.418
55390W        W27683  36.913  11.810   4.610
55391W        W27684  21.173  36.572  12.858
55392W        W27685  25.093  41.936  11.492
55393W        W27686  18.702  15.810   3.209
55394W        W27687  34.033  12.837   0.823
55395W        W27688   8.697   5.838  11.610
55396W        W27689  13.613  40.368  12.932
55397W        W27690  42.330  17.711  12.498
55398W        W27691   3.346  27.538  10.513
55399W        W27692  31.050  20.158  14.513
55400W        W27693  43.376  32.037   1.335
55401W        W27694   9.241  28.651  13.863
55402W        W27695   1.963  14.159  14.345
55403W        W27696   8.711  32.114  12.063
55404W        W27697  38.973   2.869  12.474
55405W        W27698  27.614  15.253  14.775
55406W        W27699  18.137  40.492   1.324
55407W        W27700  32.519  15.696  14.993
55408W        W27701  35.853  20.065   3.794
55409W        W27702  25.660  30.041   4.744
55410W        W27703  14.809  40.320   4.801
55411W        W27704  10.794   1.892   2.403
55412W        W27705  16.072  40.466   2.346
55413W        W27706   0.938  35.929   3.664
55414W        W27707  26.511  41.357  11.432
55415W        W27708   6.399  14.644  13.382
55416W        W27709  33.016  37.371   1.361
55417W        W27710   4.446  30.499  13.863
55418W        W27711  24.642   5.704   1.901
55419W        W27712   9.802   9.193   2.726
55420W        W27713  30.437  27.190  13.018
55421W        W27714  30.516  10.329   5.629
55422W        W27715  35.466  19.098   0.430
55423W        W27716  44.357  17.181   5.316
55424W        W27717  30.450  13.766  11.536
55425W        W27718  19.178  37.895  14.876
55426W        W27719  19.772  16.781  13.433
55427W        W27720  17.616  34.607  11.561
55428W        W27721  39.547  22.545   1.311
55429W        W27722  23.508  38.403   1.835
55430W        W27723  18.108  14.110  13.388
55431W        W27724  40.406  40.371   0.413
55432W        W27725  12.844   6.262   4.265
55433W        W27726   5.223  18.736   2.683
55434W        W27727  42.961   7.343  11.502
55435W        W27728  14.636  38.819  11.899
55436W        W27729  42.289  23.116  11.856
55437W        W27730  14.183   5.426  10.912
55438W        W27731  15.312   7.339   0.885
55439W        W27732  27.480  44.320  14.840
55440W        W27733  22.739   9.763   0.357
55441W        W27734  26.017  16.628   4.625
55442W        W27735  35.984  28.938   3.222
55443W        W27736   9.880   3.946  10.411
55444W        W27737  32.942  13.721   2.305
55445W        W27738  14.322   1.841   4.706
55446W        W27739   1.470  15.629  11.982
55447W        W27740   0.443  31.963  13.319
55448W        W27741  17.749  33.520   4.237
55449W        W27742  16.576  28.449   0.349
55450W        W27743  24.680  10.326  10.532
55451W        W27744  28.977  24.210  13.958
55452W        W27745  27.486  14.761  10.971
55453W        W27746   1.769  36.559  14.002
55454W        W27747  34.404  26.103  14.923
55455W        W27748  17.143  34.086  14.351
55456W        W27749  43.813   9.708  13.418
55457W        W27750  31.955  34.451   9.927
55458W        W27751  24.058  33.521   0.325
55459W        W27752  39.441  27.000   3.758
55460W        W27753  17.236   7.704   4.799
55461W        W27754   3.283   4.300   3.817
55462W        W27755  44.965  31.496  13.366
55463W        W27756  10.321  11.334   3.323
55464W        W27757  31.539  32.536  10.537
55465W        W27758  16.767  39.018  14.423
55466W        W27759  33.485  30.627  12.904
55467W        W27760  10.809   6.807  14.939
55468W        W27761  25.564  43.295  11.912
55469W        W27762   5.414   2.736   0.411
55470W        W27763  42.474  42.823   5.572
55471W        W27764  10.778   6.678  12.929
55472W        W27765  26.166  43.960  10.505
55473W        W27766  44.457  27.952  14.470
55474W        W27767  12.335  25.150   3.191
55475W        W27768  42.312   3.859   0.849
55476W        W27769  31.598  37.494  10.619
55477W        W27770  26.576  36.551  13.861
55478W        W27771   7.669  22.014  11.458
55479W        W27772  30.127  44.893   4.322
55480W        W27773  30.640   5.788  14.890
55481W        W27774  22.076  18.611   4.783
55482W        W27775  14.225  40.451  11.954
55483W        W27776  17.082  14.311   4.222
55484W        W27777  36.877  17.129   1.875
55485W        W27778  26.519  22.184  10.161
55486W        W27779   3.356  44.295   2.895
55487W        W27780  44.796  36.371  11.411
55488W        W27781  40.304   4.732   5.221
55489W        W27782  38.883  40.524  11.874
55490W        W27783  44.285  43.937   5.123
55491W        W27784   2.769  15.743   4.188
55492W        W27785  40.488  18.760   4.610
55493W        W27786   6.330   4.933  13.003
55494W        W27787  12.320  29.998   0.868
55495W        W27788  11.233  27.000   1.412
55496W        W27789  22.536  21.665   2.199
55497W        W27790  20.540  41.962   1.933
55498W        W27791  25.166  11.753   2.730
55499W        W27792   1.461  40.343   2.324
55500W        W27793  13.334  32.138  13.314
55501W        W27794   3.373  26.030  12.907
55502W        W27795   0.839  28.001   5.268
55503W        W27796  22.065  41.901   4.242
55504W        W27797  44.323  22.136  14.873
55505W        W27798  32.533  44.985  11.884
55506W        W27799  37.530  29.442  14.968
55507W        W27800  28.156  22.603   4.764
55508W        W27801  25.019   2.250  13.518
55509W        W27802  27.689   2.465   0.391
55510W        W27803  34.497   2.738  11.397
55511W        W27804   5.244  30.132  12.369
55512W        W27805   9.377  22.584   1.438
55513W        W27806  38.032   3.874  12.367
55514W        W27807  29.459  41.300  12.976
55515W        W27808   1.330   9.324  14.777
55516W        W27809  37.544  12.152   0.853
55517W        W27810   9.677  16.762  11.920
55518W        W27811  21.644   3.427  13.392
55519W        W27812   3.773  43.434   0.289
55520W        W27813  13.236  24.996  10.593
55521W        W27814   6.842  18.684   0.909
55522W        W27815  38.940  21.097  12.940
55523W        W27816  43.409   6.385   3.258
55524W        W27817  38.435  20.097   3.347
55525W        W27818  31.465  26.975   1.931
55526W        W27819   8.712  40.019  10.533
55527W        W27820   1.795  31.594  13.915
55528W        W27821  15.236  44.280  13.790
55529W        W27822  28.475  12.124  11.452
55530W        W27823  17.226  43.946  13.903
55531W        W27824  25.966  22.617   2.201
55532W        W27825  35.968   9.342   4.327
55533W        W27826  40.856  14.159  14.797
55534W        W27827   4.219  19.698   2.414
55535W        W27828  16.803  32.550   3.260
55536W        W27829  14.210  37.900   3.816
55537W        W27830   8.231  26.568   1.767
55538W        W27831  21.612  13.741   3.841
55539W        W27832  31.945  21.088  12.341
55540W        W27833  19.611  23.565   5.084
55541W        W27834  38.374  41.838   0.375
55542W        W27835  12.623  11.191  12.403
55543W        W27836  19.107  14.104  12.432
55544W        W27837  17.271  23.734   0.857
55545W        W27838  10.765  12.292   4.806
55546W        W27839   4.332  38.374   0.392
55547W        W27840  15.582  25.081   2.855
55548W        W27841   7.259  42.907  10.604
55549W        W27842  40.310  35.020  13.381
55550W        W27843  26.200  26.692  11.545
55551W        W27844  21.560   4.371   3.225
55552W        W27845   1.967  42.399  13.864
55553W        W27846  16.692  42.282  12.350
55554W        W27847  14.182  30.983  10.484
55555W        W27848   1.406   5.761   2.788
55556W        W27849  44.007  34.040   2.767
55557W        W27850  42.838  36.559   9.652
55558W        W27851  21.618  13.676   0.355
55559W        W27852  15.597  33.518  10.434
55560W        W27853  25.045  18.256   3.206
55561W        W27854  32.557   9.731  14.368
55562W        W27855   9.260  17.745   4.706
55563W        W27856  33.050  43.827   1.744
55564W        W27857  16.287  36.908  11.978
55565W        W27858   8.216  13.200   3.730
55566W        W27859   6.340  25.532  14.889
55567W        W27860  39.007   1.903  10.632
55568W        W27861  39.376  38.913  10.643
55569W        W27862   5.266  25.134  13.424
55570W        W27863  27.157  35.445  13.370
55571W        W27864  29.995  17.688  12.352
55572W        W27865  44.331  17.616   2.817
55573W        W27866  29.011   1.823   0.399
55574W        W27867  33.563  31.927  13.851
55575W        W27868  44.386   3.883   3.278
55576W        W27869  22.628  10.246   5.115
55577W        W27870  28.435  12.303  14.918
55578W        W27871  28.984   5.338  13.406
55579W        W27872  33.555   1.973  10.442
55580W        W27873  13.345   5.841  11.115
55581W        W27874  12.825  41.839   3.708
55582W        W27875   6.329  31.068  12.571
55583W        W27876  36.939  18.775   0.790
55584W        W27877  20.746  10.295   3.212
55585W        W27878  22.526  36.580  11.944
55586W        W27879  13.615   7.781  13.503
55587W        W27880  30.435  44.903  14.441
55588W        W27881  24.222  13.730  10.982
55589W        W27882  31.114  13.764  13.806
55590W        W27883  12.749   4.343  14.945
55591W        W27884  29.940   8.816   1.440
55592W        W27885  12.748   6.229   1.885
55593W        W27886  17.097  22.606   0.741
55594W        W27887  15.102  19.226   0.952
55595W        W27888  25.576  12.617  12.385
55596W        W27889  43.860  37.840  14.778
55597W        W27890  13.646   6.782   0.445
55598W        W27891  39.335  40.864   3.699
55599W        W27892  35.559  29.627  10.538
55600W        W27893  38.057  10.718  13.836
55601W        W27894  40.512  27.609   4.204
55602W        W27895  27.956  39.328   0.442
55603W        W27896  43.804  39.042   2.219
55604W        W27897  41.919  30.485   4.650
55605W        W27898  28.158  38.996  14.868
55606W        W27899  42.318   6.737   4.717
55607W        W27900  36.931  38.485  14.906
55608W        W27901  22.217  42.001   1.857
55609W        W27902  12.700  29.593  10.457
55610W        W27903  13.114   1.378  14.377
55611W        W27904  27.995   3.882   0.804
55612W        W27905   5.864  29.522  13.484
55613W        W27906   9.375  21.021  11.936
55614W        W27907  14.312   5.423  11.956
55615W        W27908  11.359   4.798  12.352
55616W        W27909  20.042  30.962  11.997
55617W        W27910  19.553  42.810   2.788
55618W        W27911  44.935  42.521   0.337
55619W        W27912  18.788  11.855  11.877
55620W        W27913   4.268   5.877   1.915
55621W        W27914  12.729  30.114  14.804
55622W        W27915  37.935  37.551  12.431
55623W        W27916   1.277  32.066  13.542
55624W        W27917  26.679  16.667  11.933
55625W        W27918  34.964  35.933  13.334
55626W        W27919  34.865  38.362   2.692
55627W        W27920  27.668  29.985   1.434
55628W        W27921  21.655  21.198  13.321
55629W        W27922   7.870  37.842   3.145
55630W        W27923  13.674  12.696   0.868
55631W        W27924  24.985  32.475   0.797
55632W        W27925  34.532  12.709   1.423
55633W        W27926  33.957  34.967   0.323
55634W        W27927  19.273   1.923   4.685
55635W        W27928  42.502  12.794   3.761
55636W        W27929  14.826  30.123   0.346
55637W        W27930   2.929  27.628   4.778
55638W        W27931  24.614  22.598  12.455
55639W        W27932  34.560  14.743  12.874
55640W        W27933  38.900  34.873  12.863
55641W        W27934   2.814   8.253  12.865
55642W        W27935  37.561   8.877   4.760
55643W        W27936   8.895  21.152   4.160
55644W        W27937   4.717  30.472  10.571
55645W        W27938   0.905   5.695  12.537
55646W        W27939  35.097  31.040   3.725
55647W        W27940   6.750  40.540  10.489
55648W        W27941  41.388  29.920  13.382
55649W        W27942  44.791  41.899   0.938
55650W        W27943  32.009  10.256   4.128
55651W        W27944  10.288  17.628  11.050
55652W        W27945  11.220  15.235  11.449
55653W        W27946  21.704  31.112  14.926
55654W        W27947  19.177  27.150   4.205
55655W        W27948  35.510   5.836  11.104
55656W        W27949  23.059  11.159  13.885
55657W        W27950   8.720  20.063  13.374
55658W        W27951  37.040  12.665   2.728
55659W        W27952  20.636  39.939  10.996
55660W        W27953   7.858  15.177  12.385
55661W        W27954  19.554  27.529  11.996
55662W        W27955  15.099   3.423   4.796
55663W        W27956   9.241  41.470   1.374
55664W        W27957  16.800  33.451  14.898
55665W        W27958  28.549  12.244  13.806
55666W        W27959  32.129  23.523  11.920
55667W        W27960  26.197  37.505   1.758
55668W        W27961  15.297   5.929  13.489
55669W        W27962   9.217  17.719  14.029
55670W        W27963  27.055  13.661  14.913
55671W        W27964  12.834  17.195   3.754
55672W        W27965   8.863  38.324   4.227
55673W        W27966   1.468  32.964   0.476
55674W        W27967  28.441  12.668   3.794
55675W        W27968  25.118  12.817   4.711
55676W        W27969  38.500  32.616   3.826
55677W        W27970  26.013  43.942   4.143
55678W        W27971  18.190  34.959   4.140
55679W        W27972   9.235  44.793   1.254
55680W        W27973   7.881  39.559   2.801
55681W        W27974   1.332   3.323   3.263
55682W        W27975  19.542  38.476  11.052
55683W        W27976  16.646  11.238  13.434
55684W        W27977  30.960   7.197   1.259
55685W        W27978  42.488  23.148  14.406
55686W        W27979  31.607  26.673   1.393
55687W        W27980  23.722  24.653  10.569
55688W        W27981  33.985  21.669   4.192
55689W        W27982  13.783   3.726  14.943
55690W        W27983  42.830  35.923  14.974
55691W        W27984  16.698  27.521  10.624
55692W        W27985  44.959  43.399  11.590
55693W        W27986  35.035  36.093  12.914
55694W        W27987  33.954  33.883  13.407
55695W        W27988   8.341  35.554  11.068
55696W        W27989  15.720   1.876   1.441
55697W        W27990  36.091  18.184   3.733
55698W        W27991  36.507   4.212  11.464
55699W        W27992  33.014  36.452  10.976
55700W        W27993  44.972  13.114  12.446
55701W        W27994   4.943  28.158  14.931
55702W        W27995   4.851   8.269   3.386
55703W        W27996   5.344  10.313  10.117
55704W        W27997  40.805   1.321   2.385
55705W        W27998  41.443  24.573  10.888
55706W        W27999  39.316  23.161   1.772
55707W        W28000  38.017  17.222  14.488
55708W        W28001  39.426  24.507   3.862
55709W        W28002   7.290  11.693   4.811
55710W        W28003  27.185  24.027   4.178
55711W        W28004  44.923   7.862  13.433
55712W        W28005  10.776  20.670  13.307
55713W        W28006  10.153  17.697   1.273
55714W        W28007  25.575  17.760  12.454
55715W        W28008  23.609  23.012   1.425
55716W        W28009   5.932  35.601  13.881
55717W        W28010  17.589  27.614   3.832
55718W        W28011  18.635   9.156  13.428
55719W        W28012  40.460   1.421   2.215
55720W        W28013  11.158  19.261  11.530
55721W        W28014  29.501  26.506   4.761
55722W        W28015  33.899   7.276  11.991
55723W        W28016  12.642  31.526  14.011
55724W        W28017   5.905  35.043   3.362
55725W        W28018  28.489  15.585  10.526
55726W        W28019  15.190   3.222   2.669
55727W        W28020  22.560  40.414  10.153
55728W        W28021   0.869  31.625  12.511
55729W        W28022   8.182  39.347  13.888
55730W        W28023   5.414  36.062  14.883
55731W        W28024   7.384  31.996   2.832
55732W        W28025   8.306  27.099   2.357
55733W        W28026  11.335  41.042  12.474
55734W        W28027   4.877  33.068  14.972
55735W        W28028  13.740  17.133  11.090
55736W        W28029   2.333  28.035  14.981
55737W        W28030   1.466  33.463   3.216
55738W        W28031  13.323   7.302   0.857
55739W        W28032  31.471  42.966  13.849
55740W        W28033  13.752   5.433  11.070
55741W        W28034  32.123   1.915   1.778
55742W        W28035  37.349  32.942   3.702
55743W        W28036  25.191   2.853   3.384
55744W        W28037  15.302   8.263   1.885
55745W        W28038  36.422  33.558  11.556
55746W        W28039  38.381  12.288   3.820
55747W        W28040  14.637   5.923  10.982
55748W        W28041  33.580  37.011  12.044
55749W        W28042   7.407  25.595   2.336
55750W        W28043  32.992  26.016   0.762
55751W        W28044  24.511   4.336  12.012
55752W        W28045  11.688  25.511  11.385
55753W        W28046  31.405  39.047  11.070
55754W        W28047  12.188  29.079  14.449
55755W        W28048  35.517  14.674  12.835
55756W        W28049  18.161  28.593  10.963
55757W        W28050  31.550  12.172   3.290
55758W        W28051   9.770  41.794  14.465
55759W        W28052  43.843  14.285   1.237
55760W        W28053  44.791  32.546  12.842
55761W        W28054  30.493  12.817   3.630
55762W        W28055  31.572  42.886   0.418
55763W        W28056  34.905  38.484  12.385
55764W        W28057  16.787  42.018  11.983
55765W        W28058  31.485  23.729  13.980
55766W        W28059  16.075  13.771   4.204
55767W        W28060  18.109  31.028   4.723
55768W        W28061  27.118  44.481  13.929
55769W        W28062  20.546  41.359  10.906
55770W        W28063  31.064  14.729   2.203
55771W        W28064   2.774  17.145  12.539
55772W        W28065  41.908  30.066  10.420
55773W        W28066  39.559  21.517   2.359
55774W        W28067  41.340  13.670  11.965
55775W        W28068  28.455  28.141   1.826
55776W        W28069  24.216   3.775   5.086
55777W        W28070  33.101  30.096  12.043
55778W        W28071  36.536  35.567   3.782
55779W        W28072  10.774  21.080   1.284
55780W        W28073  36.384  41.501   5.216
55781W        W28074  27.031  10.203  12.496
55782W        W28075  10.324  37.866  14.392
55783W        W28076  29.106  41.455   0.461
55784W        W28077  33.040  30.150  10.479
55785W        W28078  33.008  33.997  14.846
55786W        W28079   9.862  42.832   4.698
55787W        W28080   9.351  13.254   4.326
55788W        W28081  19.572   5.886  11.528
55789W        W28082  19.161  41.331  13.503
55790W        W28083  13.817  42.309   0.271
55791W        W28084  20.049  21.137  10.474
55792W        W28085  41.822   2.946  11.485
55793W        W28086  31.964  40.521   0.250
55794W        W28087   6.222  43.286   3.681
55795W        W28088  28.481  14.248   1.266
55796W        W28089   5.438  10.333  12.442
55797W        W28090  41.980  25.634   3.373
55798W        W28091  29.154  39.913   0.747
55799W        W28092  13.232  22.190   2.288
55800W        W28093  25.042  39.023  12.839
55801W        W28094   5.708  13.126   4.162
55802W        W28095   4.371  31.022   3.273
55803W        W28096  14.215  31.988   1.750
55804W        W28097  15.191  39.818  10.634
55805W        W28098  29.156  26.504  12.505
55806W        W28099  34.960   2.338   3.309
55807W        W28100  34.063  38.005   4.787
55808W        W28101   3.822  20.531  14.957
55809W        W28102  43.426  22.699  11.566
55810W        W28103  13.643   7.261   0.963
55811W        W28104   6.720  38.499   2.367
55812W        W28105  36.552  43.478  14.937
55813W        W28106  26.560   3.460  10.052
55814W        W28107  20.176   3.340  13.802
55815W        W28108  27.687  23.586  10.548
55816W        W28109  44.309  26.482   5.129
55817W        W28110   1.899  17.301   0.751
55818W        W28111  28.146  13.608   3.686
55819W        W28112   7.673  33.010  13.438
55820W        W28113  13.220  26.621  10.921
55821W        W28114  27.615   9.750   2.316
55822W        W28115   2.317  28.505  10.456
55823W        W28116   0.412   6.686   1.255
55824W        W28117   3.339  28.026   2.291
55825W        W28118  36.002   7.822  12.883
55826W        W28119  34.422   9.238  13.989
55827W        W28120  21.511  29.656   1.226
55828W        W28121  10.846  15.731  13.379
55829W        W28122  33.548  13.725   4.215
55830W        W28123   8.184  43.402  14.498
55831W        W28124   8.801   9.319   3.208
55832W        W28125   7.397  18.763  10.890
55833W        W28126  26.548   4.317   3.814
55834W        W28127  41.431  38.480  10.418
55835W        W28128  16.613  23.520  12.387
55836W        W28129  23.577  40.476   1.411
55837W        W28130  20.241  38.006  11.501
55838W        W28131  17.087  18.059  14.831
55839W        W28132  37.469  31.554  10.535
55840W        W28133   8.368  13.657   3.169
55841W        W28134  20.764  35.476   2.762
55842W        W28135  22.708  42.447   2.362
55843W        W28136   9.383  42.913  13.488
55844W        W28137   4.730  22.539  13.057
55845W        W28138  18.080  12.791   1.297
55846W        W28139  43.942  22.024   0.265
55847W        W28140   9.364   0.813   0.266
55848W        W28141  25.696   2.963   2.372
55849W        W28142  16.297  25.670  13.031
55850W        W28143  13.620   3.944   0.808
55851W        W28144  34.002  43.492   0.354
55852W        W28145  11.289  14.105   4.159
55853W        W28146   0.893  22.505  14.980
55854W        W28147  40.885  37.891  10.894
55855W        W28148  38.948  12.789  11.026
55856W        W28149  13.175  44.493   5.286
55857W        W28150  40.941  31.967   4.255
55858W        W28151   7.702  21.542  10.494
55859W        W28152  12.747  39.035   3.300
55860W        W28153  18.707  34.614  10.991
55861W        W28154  15.601   9.270   4.262
55862W        W28155   2.409  29.130  13.542
55863W        W28156  31.002  39.390  11.984
55864W        W28157   2.794  30.132  10.615
55865W        W28158  44.943   9.267  14.001
55866W        W28159  34.983  36.500  10.406
55867W        W28160  12.350  32.628  10.975
55868W        W28161   2.466  17.194   3.808
55869W        W28162  41.491  21.159   2.809
55870W        W28163  30.010  19.559  12.018
55871W        W28164  19.764  10.713  12.848
55872W        W28165  38.335  41.414   1.274
55873W        W28166  25.048  31.475  14.303
55874W        W28167   8.773  17.571   0.857
55875W        W28168  26.991  42.907  14.941
55876W        W28169  23.025  17.605   3.154
55877W        W28170   8.870   6.912   1.294
55878W        W28171   1.960  12.683  14.380
55879W        W28172   9.270  44.337  14.776
55880W        W28173  11.837  12.733   2.818
55881W        W28174  16.724  28.484   4.128
55882W        W28175  15.698  26.181  11.377
55883W        W28176  17.563  13.842  13.493
55884W        W28177  38.469  35.578   4.207
55885W        W28178  12.683   7.787   2.829
55886W        W28179  11.337   7.274  11.910
55887W        W28180  34.481   8.727  11.606
55888W        W28181  22.545  12.253  14.422
55889W        W28182   1.473   4.355  12.826
55890W        W28183  34.093  35.582   0.926
55891W        W28184  42.513  27.452   3.298
55892W        W28185  15.221  21.036  14.005
55893W        W28186  39.977  44.502  10.422
55894W        W28187   0.894  33.616  14.776
55895W        W28188  11.706  12.686   1.774
55896W        W28189  21.524   4.242  10.889
55897W        W28190  29.484   2.371  12.986
55898W        W28191  36.854  27.142  14.008
55899W        W28192   4.441  20.037   3.780
55900W        W28193   1.256   0.260   0.480
55901W        W28194   6.391  10.140   5.162
55902W        W28195  15.265  13.768   2.689
55903W        W28196  35.370  16.095   1.704
55904W        W28197  38.543  19.282   1.310
55905W        W28198  43.846  20.617   2.364
55906W        W28199  24.080   1.731   2.669
55907W        W28200  15.580  32.931   3.296
55908W        W28201   8.334  27.079   3.291
55909W        W28202  36.544  27.625  13.798
55910W        W28203   4.280  20.597   3.260
55911W        W28204  29.604  11.835  12.934
55912W        W28205  17.285  33.100   2.271
55913W        W28206  40.986   2.801  14.925
55914W        W28207  22.162   0.294  11.057
55915W        W28208  14.771  42.470  10.489
55916W        W28209  20.755   6.739   1.861
55917W        W28210  14.817  29.983   0.767
55918W        W28211  16.639  43.009   2.242
55919W        W28212  27.577  42.521  11.033
55920W        W28213  21.045  40.455   1.335
55921W        W28214  14.663  35.558  11.115
55922W        W28215  44.498  36.904  14.893
55923W        W28216  25.110  33.565   4.610
55924W        W28217  30.117  13.672   4.781
55925W        W28218  31.561  44.844   3.773
55926W        W28219  37.477  22.617   2.756
55927W        W28220  21.184  30.616  14.867
55928W        W28221   6.391   6.752   3.864
55929W        W28222  37.025  40.032   2.833
55930W        W28223  16.608   2.359  12.403
55931W        W28224  40.510  44.820  13.035
55932W        W28225   3.245  12.260   1.431
55933W        W28226  30.044  37.461  12.996
55934W        W28227  18.772  25.037   4.165
55935W        W28228  18.140  16.769  11.970
55936W        W28229  36.926   1.363  12.401
55937W        W28230   5.833  12.816  13.874
55938W        W28231  34.119   1.801   3.345
55939W        W28232  10.664  15.777  11.417
55940W        W28233  16.719   8.847   4.142
55941W        W28234  17.657  33.045   4.693
55942W        W28235  18.582   5.345   2.244
55943W        W28236  32.955  23.622   0.828
55944W        W28237  42.871  27.451   1.805
55945W        W28238  18.679  34.370  10.569
55946W        W28239  32.588  16.600  14.015
55947W        W28240  19.730   0.866   5.304
55948W        W28241  23.101  16.680  14.347
55949W        W28242  18.725  25.505   3.850
55950W        W28243  12.848  14.806   2.819
55951W        W28244   6.922   3.741   4.653
55952W        W28245   8.677  17.749   2.202
55953W        W28246  36.842  38.458   0.426
55954W        W28247  12.738  41.022  13.848
55955W        W28248  37.906  19.078   3.851
55956W        W28249   4.869  39.966   3.299
55957W        W28250  40.466  32.038   0.799
55958W        W28251   4.390   2.950   1.743
55959W        W28252  24.055   0.320   4.694
55960W        W28253  35.053   0.470  14.897
55961W        W28254  12.224  17.666  10.586
55962W        W28255  42.493  42.383   0.945
55963W        W28256  18.780  13.667   3.219
55964W        W28257   2.776   8.244   1.385
55965W        W28258  29.080  41.813  14.859
55966W        W28259  13.239  22.658   2.384
55967W        W28260  23.225  40.529   2.212
55968W        W28261  41.975   4.335   1.212
55969W        W28262  21.240  44.852   1.717
55970W        W28263  31.923  13.303   4.726
55971W        W28264   0.922  38.025   3.310
55972W        W28265  21.576  40.020  13.904
55973W        W28266  41.527  24.534   1.325
55974W        W28267   8.797  23.493  14.854
55975W        W28268  25.582  23.638  13.968
55976W        W28269   0.906  30.997   3.183
55977W        W28270  32.447   4.918  11.432
55978W        W28271   1.871   8.668  10.409
55979W        W28272  23.201  26.534  10.070
55980W        W28273  31.928  27.046   4.685
55981W        W28274  41.483   1.932   4.233
55982W        W28275   0.818  34.005   4.807
55983W        W28276  25.681  28.499  10.568
55984W        W28277   6.424  22.996  13.995
55985W        W28278  27.626  34.549   1.245
55986W        W28279  40.927   4.376   4.642
55987W        W28280  39.965  21.094   3.218
55988W        W28281  12.333  25.630   0.440
55989W        W28282   9.743  40.437  14.995
55990W        W28283  29.065  34.447   0.732
55991W        W28284   2.393  16.786  10.636
55992W        W28285  35.595  29.063   0.968
55993W        W28286  33.445  41.000   3.772
55994W        W28287  28.521  30.068  13.998
55995W        W28288   3.859   0.410  11.576
55996W        W28289  36.407   9.255   1.412
55997W        W28290   5.705  32.588   1.915
55998W        W28291  13.290  44.006   0.366
55999W        W28292  37.533  11.222  14.938
56000W        W28293  18.790   6.291   4.764
56001W        W28294   0.957  14.619   0.795
56002W        W28295  33.485   1.880  11.910
56003W        W28296  30.489  13.787  13.453
56004W        W28297  11.769  33.081  14.370
56005W        W28298  34.932  39.056  13.449
56006W        W28299  24.019  21.208   0.416
56007W        W28300  43.003  19.061   2.676
56008W        W28301  30.951   1.805  10.557
56009W        W28302  32.482  41.838  10.890
56010W        W28303  23.538  19.094  14.845
56011W        W28304  25.010  14.783  11.002
56012W        W28305  13.157  15.677  13.856
56013W        W28306  23.514   6.359   4.245
56014W        W28307  33.921   9.223   2.726
56015W        W28308  24.143  23.655   1.757
56016W        W28309   0.366  38.985   2.364
56017W        W28310  34.614  14.763  12.029
56018W        W28311   7.254  32.944   4.779
56019W        W28312  31.475  16.572  13.450
56020W        W28313  11.685  27.578  14.384
56021W        W28314  27.551  34.449  11.917
56022W        W28315  28.573  22.202  14.351
56023W        W28316  22.017  37.372  10.123
56024W        W28317  37.026  26.128   4.806
56025W        W28318   1.840  20.152  14.815
56026W        W28319  38.356  28.657   0.463
56027W        W28320   9.239  36.571   2.326
56028W        W28321  41.296  24.081  12.574
56029W        W28322  44.899  41.998  12.998
56030W        W28323  10.632   2.729   0.819
56031W        W28324   5.366  25.609   0.320
56032W        W28325  14.203  12.844   3.761
56033W        W28326  20.583  43.971  13.021
56034W        W28327  25.696  43.978  12.969
56035W        W28328  40.314  14.762  11.948
56036W        W28329  26.479  20.206   1.251
56037W        W28330  12.857  17.240   0.257
56038W        W28331  13.703  25.134  14.791
56039W        W28332  30.537  24.578  11.004
56040W        W28333  30.953  15.752  14.799
56041W        W28334  12.655  27.556   4.806
56042W        W28335  23.542  26.180  12.909
56043W        W28336  43.893  33.520  13.866
56044W        W28337  43.317  41.889  13.034
56045W        W28338   5.263  31.566   1.865
56046W        W28339  12.162  39.461   1.268
56047W        W28340  27.957   5.350  13.919
56048W        W28341  35.455  27.174   4.717
56049W        W28342  29.975   8.374  10.416
56050W        W28343   8.684  31.139   5.182
56051W        W28344  36.997  20.267  13.468
56052W        W28345   2.920  38.393  13.841
56053W        W28346  15.144   9.677  14.281
56054W        W28347  43.855  24.098   0.863
56055W        W28348   9.200  29.452  11.855
56056W        W28349   5.263  28.668  13.942
56057W        W28350  19.730  41.870   4.319
56058W        W28351   5.912  36.944  14.929
56059W        W28352  20.238  35.489   2.375
56060W        W28353   1.335  20.070  13.928
56061W        W28354  20.610  26.953   0.928
56062W        W28355  40.922  12.711  12.890
56063W        W28356  18.105  15.792  11.546
56064W        W28357  17.135  41.882  13.976
56065W        W28358  27.020   7.403  11.983
56066W        W28359  18.274  39.059  12.483
56067W        W28360   4.386  37.518  13.355
56068W        W28361   2.788   4.374   2.783
56069W        W28362  19.164  39.017   1.741
56070W        W28363  44.465  28.656  11.515
56071W        W28364  28.062   8.800  12.925
56072W        W28365  11.212  19.674  13.455
56073W        W28366  13.247  44.799  13.424
56074W        W28367  21.176   8.283  10.438
56075W        W28368  21.249  13.256   3.303
56076W        W28369  24.986  38.458   1.873
56077W        W28370  24.509  30.005   0.432
56078W        W28371  39.405  24.167   1.247
56079W        W28372  22.565  26.166   2.284
56080W        W28373  26.648   7.795   2.748
56081W        W28374   2.905  18.658  11.560
56082W        W28375  27.629  23.490   2.203
56083W        W28376   3.356  22.547   5.265
56084W        W28377  30.108  40.494   4.254
56085W        W28378  21.173  39.316  12.095
56086W        W28379   1.371   4.926   0.447
56087W        W28380  16.294  32.623   1.307
56088W        W28381   2.898  23.001  14.806
56089W        W28382  24.219  16.673   2.781
56090W        W28383  24.560  31.008   3.194
56091W        W28384   1.934   2.468  14.482
56092W        W28385  40.509  12.624  12.936
56093W        W28386  16.753  31.934  14.282
56094W        W28387  24.128  42.826  14.797
56095W        W28388  35.059  13.243  12.449
56096W        W28389  36.423  35.901   4.807
56097W        W28390   2.726  35.985  14.475
56098W        W28391   8.810  28.607   0.254
56099W        W28392  42.846  23.661   3.272
56100W        W28393   8.255  31.154   4.146
56101W        W28394   2.434   6.688   4.135
56102W        W28395  14.830   2.378  10.947
56103W        W28396  29.984  11.360   1.886
56104W        W28397  29.612  11.638  10.041
56105W        W28398  17.663   9.824   0.837
56106W        W28399  36.052  42.471  12.921
56107W        W28400   0.280  21.540  10.407
56108W        W28401   9.644  43.361  12.534
56109W        W28402  12.179  26.515   2.787
56110W        W28403  35.913  16.686   0.915
56111W        W28404  44.858   3.812   1.231
56112W        W28405  18.650  19.056   1.831
56113W        W28406   1.839  43.318   2.243
56114W        W28407  24.992   5.206   4.765
56115W        W28408  23.716  14.156   2.690
56116W        W28409  29.134  19.072   3.660
56117W        W28410  22.591  31.041   3.761
56118W        W28411  42.984  36.947   4.199
56119W        W28412  38.390  14.645   3.178
56120W        W28413  42.809  11.332   2.730
56121W        W28414  44.854   2.322  12.937
56122W        W28415  39.854  21.511  13.879
56123W        W28416  16.607  35.033  13.477
56124W        W28417  12.747  22.594   3.250
56125W        W28418  34.949  21.245   0.404
56126W        W28419  20.180  21.743  12.490
56127W        W28420  24.090  14.801   3.149
56128W        W28421  18.230  25.573   4.351
56129W        W28422  13.315  25.193   0.283
56130W        W28423   6.427  14.240   1.808
56131W        W28424  31.035  40.366  11.026
56132W        W28425   1.244  44.878  11.536
56133W        W28426  26.048  20.043  13.940
56134W        W28427  16.675  20.040  14.396
56135W        W28428  35.937   3.363   1.420
56136W        W28429   5.888   2.734  14.868
56137W        W28430  27.454  26.473  14.770
56138W        W28431  21.581   2.382  13.447
56139W        W28432   0.319  33.915   4.290
56140W        W28433  31.966  41.429   4.602
56141W        W28434  31.586  16.649  11.959
56142W        W28435  15.309  41.469   1.447
56143W        W28436  20.697  18.136  14.997
56144W        W28437  30.655  32.975   4.116
56145W        W28438   1.869  28.621  13.376
56146W        W28439  19.600  26.636  13.343
56147W        W28440  33.508  30.582   1.397
56148W        W28441  42.836   8.840  12.077
56149W        W28442  44.822   3.313   0.908
56150W        W28443  18.699  41.456   1.910
56151W        W28444  21.100   9.670  11.420
56152W        W28445  13.780  24.167   4.189
56153W        W28446  43.446  25.166   1.806
56154W        W28447  29.923   0.830  14.828
56155W        W28448   7.392  23.999  11.537
56156W        W28449  24.593  13.192  12.863
56157W        W28450   5.913  27.636   0.895
56158W        W28451  44.443   4.369  14.004
56159W        W28452   1.881  23.727  14.784
56160W        W28453  29.997   8.682   3.845
56161W        W28454  22.243  42.991   2.352
56162W        W28455  26.202  31.051   3.158
56163W        W28456  12.789  43.384   0.451
56164W        W28457  26.059   8.218   2.260
56165W        W28458  38.493  12.612  11.876
56166W        W28459  27.659  13.619  14.820
56167W        W28460  18.226  21.519  13.991
56168W        W28461   0.816  41.011  11.560
56169W        W28462  14.121  40.545  13.893
56170W        W28463  30.987   1.399   0.883
56171W        W28464  17.676  14.194   2.690
56172W        W28465  34.059  33.971   3.207
56173W        W28466  10.325  26.204  14.856
56174W        W28467   3.406   3.913  12.963
56175W        W28468  36.414  38.965   4.629
56176W        W28469  18.264  14.604  11.391
56177W        W28470  41.321  44.273  12.949
56178W        W28471   4.345   7.351  12.864
56179W        W28472  42.512  36.397   0.835
56180W        W28473  35.500  25.591   1.791
56181W        W28474  16.133  14.294  14.331
56182W        W28475  14.789  24.204   4.178
56183W        W28476  38.333   4.409  13.937
56184W        W28477  15.142   5.721  12.412
56185W        W28478  13.115  43.475  11.381
56186W        W28479  18.624   2.335   0.856
56187W        W28480  20.160   6.400   4.758
56188W        W28481   7.721  24.507   1.411
56189W        W28482  35.578  14.200   4.750
56190W        W28483   3.364  26.000  13.489
56191W        W28484   5.429   8.343   0.828
56192W        W28485  20.657   1.365   0.803
56193W        W28486  30.076  15.131  11.053
56194W        W28487   0.396   3.890  14.855
56195W        W28488  28.647   1.741  11.952
56196W        W28489  44.332  20.086   3.218
56197W        W28490  16.227   1.950   2.834
56198W        W28491  35.951  41.951   4.203
56199W        W28492   4.781  15.092  14.986
56200W        W28493   0.886  36.412  10.117
56201W        W28494  41.457  33.411  14.406
56202W        W28495  26.134  25.216   1.774
56203W        W28496  29.116  27.954  12.569
56204W        W28497  44.444  42.363   3.693
56205W        W28498  17.244  34.037  13.389
56206W        W28499  44.796  21.658  14.320
56207W        W28500   7.214  40.812   4.187
56208W        W28501  27.556  36.456  12.517
56209W        W28502  43.775  10.652  10.465
56210W        W28503  32.100  15.582  12.844
56211W        W28504   3.226  15.107  14.507
56212W        W28505  26.494  22.172  14.802
56213W        W28506  39.487  41.824  13.945
56214W        W28507  23.581  39.862   2.853
56215W        W28508  26.060  40.922   3.290
56216W        W28509  37.466  19.588   0.833
56217W        W28510  44.982  42.361  12.072
56218W        W28511  26.112  19.224  11.044
56219W        W28512  42.956   3.260  12.925
56220W        W28513   6.690  25.511   0.782
56221W        W28514   8.330  21.243   4.321
56222W        W28515   1.925  37.349   4.707
56223W        W28516  31.501  26.494   1.926
56224W        W28517  39.413  11.627  12.918
56225W        W28518  12.355   9.813  10.580
56226W        W28519  12.216  18.654   4.638
56227W        W28520   1.388   6.880  10.620
56228W        W28521  33.128  33.991   4.635
56229W        W28522   8.208  16.760   3.169
56230W        W28523   4.350  41.004  12.417
56231W        W28524   4.920  23.138   2.886
56232W        W28525  15.275  28.627  11.593
56233W        W28526   7.912  22.698  14.958
56234W        W28527   1.953  18.775  14.886
56235W        W28528  27.135  42.006  11.415
56236W        W28529  26.996  32.129   4.640
56237W        W28530   6.347  10.795  13.916
56238W        W28531  26.999  31.622  14.935
56239W        W28532  14.186  39.844  11.609
56240W        W28533   9.261  34.539  12.573
56241W        W28534   2.794  40.850   4.701
56242W        W28535   5.268  13.819   3.864
56243W        W28536  30.967  44.351  14.972
56244W        W28537   2.450  39.938  11.010
56245W        W28538   2.385   9.879   4.623
56246W        W28539  19.042  20.028   2.199
56247W        W28540  39.436  34.371  12.495
56248W        W28541  22.079  42.344  14.313
56249W        W28542  14.241  25.544   4.288
56250W        W28543  28.010  37.431   4.143
56251W        W28544  13.201  43.353   2.393
56252W        W28545  11.175  33.479   0.920
56253W        W28546  35.523  25.533  10.524
56254W        W28547  19.576  13.833  11.573
56255W        W28548  20.180  44.381   9.976
56256W        W28549  28.512  20.201  14.959
56257W        W28550   3.447   8.758   3.375
56258W        W28551  29.603  25.034   1.304
56259W        W28552  17.123  17.724  14.780
56260W        W28553   0.444  38.939   9.930
56261W        W28554  25.562  34.945   1.736
56262W        W28555  19.649   5.216   1.881
56263W        W28556  32.959  29.141  11.519
56264W        W28557  16.170  13.777  11.947
56265W        W28558  40.020   2.849  11.885
56266W        W28559  37.363  21.708   3.742
56267W        W28560  20.668  16.665  13.400
56268W        W28561  18.785   3.223  12.980
56269W        W28562  23.121  17.298  12.482
56270W        W28563  17.214  34.511  14.480
56271W        W28564  38.913  33.112  10.988
56272W        W28565  32.542  38.994  12.897
56273W        W28566  15.211   6.870  13.859
56274W        W28567  41.493  33.003  12.480
56275W        W28568  42.841  35.376   0.353
56276W        W28569  14.202  36.026   2.287
56277W        W28570  30.578  23.640   4.198
56278W        W28571  41.523  42.331   0.879
56279W        W28572  37.500  28.082   4.276
56280W        W28573   3.215   2.310   3.777
56281W        W28574   8.860  24.515   2.688
56282W        W28575  39.395   0.867  12.891
56283W        W28576  32.577  31.471  12.826
56284W        W28577  35.503   2.254   3.322
56285W        W28578  13.186   9.658  10.530
56286W        W28579  20.127  26.627  14.030
56287W        W28580  22.620  41.417  14.280
56288W        W28581  10.261  20.062  12.908
56289W        W28582  44.502  41.895   4.165
56290W        W28583  20.228  26.611   1.329
56291W        W28584   8.238  19.114   3.249
56292W        W28585  18.646  32.974   9.463
56293W        W28586  15.787  30.969  14.303
56294W        W28587  30.569   2.769   1.798
56295W        W28588   6.864  17.681  11.464
56296W        W28589  41.933  19.741  13.012
56297W        W28590  37.934  35.971   4.694
56298W        W28591  31.061  11.195   4.703
56299W        W28592  10.347   7.326   3.808
56300W        W28593  31.540  44.479  10.480
56301W        W28594  30.908  41.806  14.801
56302W        W28595  24.592  16.084   3.772
56303W        W28596  30.494  10.329   3.272
56304W        W28597  42.472  40.515  11.431
56305W        W28598   5.258  19.269   0.936
56306W        W28599  16.077  16.243   3.870
56307W        W28600   7.853  21.026   3.380
56308W        W28601  41.012  15.600  10.576
56309W        W28602   3.445  17.620  11.477
56310W        W28603   7.894  33.498  13.500
56311W        W28604   5.914  41.927   2.413
56312W        W28605  27.460  43.377  11.917
56313W        W28606  11.305   3.224  13.377
56314W        W28607  32.977  37.471   2.683
56315W        W28608  25.964  20.743   4.660
56316W        W28609  19.605  25.047  11.506
56317W        W28610  35.041  36.889  11.950
56318W        W28611  23.629   5.241   9.996
56319W        W28612   9.165  25.154  11.079
56320W        W28613  25.518  38.896   4.281
56321W        W28614   0.826  35.515   2.888
56322W        W28615   0.394  29.172  12.413
56323W        W28616  40.407   7.824  14.894
56324W        W28617  18.060   8.767  12.504
56325W        W28618  16.100  28.122  12.506
56326W        W28619  14.195  32.134  11.859
56327W        W28620  44.275  11.627   1.843
56328W        W28621  17.243  31.559   2.281
56329W        W28622   3.880   6.688  13.989
56330W        W28623  17.217  36.031  12.848
56331W        W28624  26.190  10.749  11.982
56332W        W28625  36.063   9.185  13.314
56333W        W28626  25.151  41.296  12.409
56334W        W28627  24.660  43.384  11.077
56335W        W28628   2.789   1.472  12.993
56336W        W28629  33.959  16.239  14.830
56337W        W28630  33.537   6.244   1.897
56338W        W28631   4.702  26.000   1.254
56339W        W28632   5.737  16.318  13.923
56340W        W28633  13.750  26.964   2.798
56341W        W28634  37.869  42.909  13.003
56342W        W28635   7.880  37.440   1.330
56343W        W28636  43.306  26.552   3.265
56344W        W28637  12.677  15.755  11.986
56345W        W28638  42.500  13.762  13.434
56346W        W28639  39.464  44.781   3.311
56347W        W28640  12.162  12.254   1.217
56348W        W28641  31.435  35.911  12.487
56349W        W28642  34.964   1.971  13.367
56350W        W28643   4.210  26.465  11.569
56351W        W28644  28.620  27.956  11.952
56352W        W28645  15.799  15.121   2.227
56353W        W28646   1.916  14.244  12.536
56354W        W28647  19.241  44.314   4.318
56355W        W28648  35.514  19.592  14.335
56356W        W28649   3.460  29.968   3.216
56357W        W28650  33.937  23.698   4.150
56358W        W28651  41.364  11.843  10.625
56359W        W28652  36.508  31.901   0.453
56360W        W28653  34.955  23.641  10.148
56361W        W28654  35.879  12.661  12.005
56362W        W28655  21.560  30.106  12.829
56363W        W28656  42.447  44.756   3.748
56364W        W28657  35.973  37.501   2.403
56365W        W28658  17.166  38.993  12.966
56366W        W28659  38.535  25.980   0.758
56367W        W28660  30.098  12.672  13.495
56368W        W28661  20.682  20.062  10.942
56369W        W28662  41.481  20.717  11.474
56370W        W28663  15.300   1.759   4.812
56371W        W28664  28.676  10.349   3.809
56372W        W28665  19.567  21.091   1.887
56373W        W28666  33.561  43.394  11.416
56374W        W28667  15.257  44.459  14.317
56375W        W28668  40.990  18.124   2.210
56376W        W28669   5.370  23.011   2.753
56377W        W28670  27.613  44.956  11.102
56378W        W28671  29.954  30.005  10.563
56379W        W28672   7.396  29.065  11.584
56380W        W28673  30.101  10.293   5.760
56381W        W28674   4.247  17.124  14.515
56382W        W28675  35.945   5.435   1.255
56383W        W28676  15.328  40.357   1.259
56384W        W28677  40.368  34.456  12.881
56385W        W28678   0.818  10.239   3.282
56386W        W28679  21.140  23.094   0.768
56387W        W28680  29.514  24.077  12.825
56388W        W28681   6.357   4.813   0.384
56389W        W28682  31.962   1.868  14.829
56390W        W28683  22.542   5.839  14.975
56391W        W28684  10.876   7.775  13.027
56392W        W28685  41.021  29.528  11.594
56393W        W28686   8.276   7.226   3.702
56394W        W28687  21.624   7.828  10.423
56395W        W28688   0.747  32.581  12.428
56396W        W28689  19.180  30.420   4.724
56397W        W28690   7.900  21.054  10.944
56398W        W28691  38.471  32.564  13.063
56399W        W28692  15.798  37.859   1.410
56400W        W28693   1.935   0.947   4.197
56401W        W28694  43.399  13.309  14.407
56402W        W28695  21.249  40.883  13.376
56403W        W28696  40.976   6.897   3.701
56404W        W28697  11.845  40.387  12.939
56405W        W28698  25.190  20.548  12.824
56406W        W28699  20.028  33.930  13.479
56407W        W28700  36.545  28.985   2.184
56408W        W28701  23.698   6.389  12.479
56409W        W28702   3.419   9.160   4.289
56410W        W28703  37.464   3.303   3.845
56411W        W28704   3.369  16.627  13.462
56412W        W28705  19.084  15.278   4.217
56413W        W28706  11.749  18.616  14.277
56414W        W28707  21.190  25.991   1.867
56415W        W28708  12.631  27.133   3.165
56416W        W28709  17.627  23.711   0.410
56417W        W28710  14.335   4.253   5.637
56418W        W28711  18.575  19.543   0.255
56419W        W28712   0.411  30.030  12.360
56420W        W28713  18.217  12.145  14.969
56421W        W28714   1.428   8.183   1.388
56422W        W28715   6.320  18.148  13.338
56423W        W28716  17.656  28.053   4.830
56424W        W28717  22.250  27.648  12.095
56425W        W28718   7.706  14.284  14.477
56426W        W28719   5.731  32.098  13.403
56427W        W28720   4.228  33.425  12.479
56428W        W28721   4.863   8.849   1.349
56429W        W28722  25.566  30.025  10.531
56430W        W28723  40.354  39.361  14.387
56431W        W28724  28.128  15.226  10.580
56432W        W28725  44.489   3.900  13.827
56433W        W28726   5.754  10.706  13.456
56434W        W28727   0.880  35.565  12.501
56435W        W28728   3.406  10.151  11.032
56436W        W28729   6.854  16.643   2.280
56437W        W28730  39.423  44.909  12.004
56438W        W28731  15.607  22.037  11.075
56439W        W28732   3.949  31.991  13.872
56440W        W28733  37.364  29.481  10.559
56441W        W28734  22.214  24.649  11.535
56442W        W28735   8.324   9.178   2.758
56443W        W28736  14.638  43.773  14.290
56444W        W28737  31.416  12.355  11.122
56445W        W28738  16.190  32.011  12.443
56446W        W28739  23.569  26.597  11.375
56447W        W28740   8.193  19.062   0.314
56448W        W28741  28.993  42.844  14.972
56449W        W28742  35.020  41.924  14.372
56450W        W28743  31.450  23.185  13.429
56451W        W28744  14.693  30.929   0.282
56452W        W28745  17.228  27.685   2.858
56453W        W28746  19.243  27.048  10.951
56454W        W28747   2.362  39.411   1.779
56455W        W28748   5.845   4.437   1.250
56456W        W28749  36.458  26.996  10.601
56457W        W28750  43.443  41.393   2.826
56458W        W28751  19.125  17.653   0.331
56459W        W28752  18.660  26.050   4.748
56460W        W28753   3.369   3.392  11.432
56461W        W28754  18.581  36.427  13.464
56462W        W28755  38.414   4.797   3.815
56463W        W28756  34.090  44.764   4.731
56464W        W28757  24.648  28.596  14.891
56465W        W28758  14.713   8.703  13.849
56466W        W28759  44.379  15.093  10.937
56467W        W28760   0.747   3.410  14.831
56468W        W28761  29.598   3.337   1.723
56469W        W28762  32.905  44.981   0.358
56470W        W28763  16.605  27.520   1.782
56471W        W28764  11.364  17.100  12.503
56472W        W28765  23.230  38.000  12.456
56473W        W28766  11.804  38.356  14.010
56474W        W28767  29.925  15.590  14.508
56475W        W28768  20.186  34.444   4.140
56476W        W28769   0.951  11.698   2.786
56477W        W28770  17.159   1.873  11.099
56478W        W28771  14.605   4.304   0.446
56479W        W28772  30.993   1.399  11.042
56480W        W28773   4.438  36.914  12.055
56481W        W28774  27.656  34.947  10.630
56482W        W28775  20.607   9.694  11.464
56483W        W28776  12.345  44.274  11.396
56484W        W28777  35.427  28.560  14.303
56485W        W28778  23.522   9.317  14.310
56486W        W28779  22.245   8.723  11.584
56487W        W28780   4.282   9.309   0.348
56488W        W28781   0.338  24.497   4.152
56489W        W28782  11.755  16.616  13.367
56490W        W28783  12.268  17.086   1.789
56491W        W28784  39.469  16.650   2.313
56492W        W28785  30.456   3.922   0.467
56493W        W28786  40.390  22.047  10.426
56494W        W28787  11.632  23.217  14.829
56495W        W28788  23.191  31.037  14.417
56496W        W28789  22.998   1.411   3.357
56497W        W28790  39.521  38.491  10.993
56498W        W28791  41.367   1.737   3.350
56499W        W28792  41.369  38.431  12.475
56500W        W28793   6.890   7.256   4.249
56501W        W28794  20.232  11.272   0.958
56502W        W28795  28.120  23.985  11.502
56503W        W28796  33.965  43.939   3.733
56504W        W28797  23.019  15.163  12.392
56505W        W28798  41.529   4.875  10.992
56506W        W28799  33.501   5.387   1.869
56507W        W28800  17.714  26.686  12.908
56508W        W28801   1.428   4.838   3.688
56509W        W28802  30.152  35.984   2.751
56510W        W28803  17.152  34.610   2.328
56511W        W28804  16.158  42.321   3.696
56512W        W28805  31.985  31.526  11.881
56513W        W28806  29.508  38.878   4.791
56514W        W28807  35.000  30.956   0.351
56515W        W28808  32.142  32.120   4.209
56516W        W28809   2.314  38.369   3.851
56517W        W28810  30.146  10.829   3.649
56518W        W28811   2.285  37.457  10.000
56519W        W28812   5.418  17.126   3.152
56520W        W28813  42.285  41.970   0.772
56521W        W28814  39.420  35.458   1.309
56522W        W28815  29.000  18.646  12.939
56523W        W28816  36.544  38.513   1.893
56524W        W28817  18.234  33.424   2.735
56525W        W28818  17.275  37.048   3.149
56526W        W28819  34.992  25.477   3.861
56527W        W28820  21.605  15.629  14.374
56528W        W28821  13.250  21.046  14.874
56529W        W28822  21.708  37.440  14.936
56530W        W28823  17.570  43.404   0.768
56531W        W28824  22.173  10.187   2.876
56532W        W28825  24.650  44.968  14.836
56533W        W28826  42.797   6.327  14.815
56534W        W28827  44.993   8.247  14.827
56535W        W28828  23.213  26.138   1.241
56536W        W28829  18.593   2.258  12.519
56537W        W28830  13.619  44.386  10.910
56538W        W28831  19.060   6.726   2.901
56539W        W28832  27.949  24.630   4.191
56540W        W28833  35.535  17.637  13.823
56541W        W28834  35.858  40.468   1.439
56542W        W28835  10.335  31.924  14.979
56543W        W28836  12.704   5.193  11.096
56544W        W28837  10.793  20.694  11.442
56545W        W28838  42.008  29.530   0.371
56546W        W28839   2.472   2.943   4.669
56547W        W28840  11.332  34.083  10.564
56548W        W28841   4.848  40.358   4.185
56549W        W28842   4.872  25.636  13.014
56550W        W28843  32.019  34.946  10.896
56551W        W28844  37.990  43.015  12.409
56552W        W28845  27.577  28.659  12.043
56553W        W28846  30.141  40.426  11.498
56554W        W28847   6.193  28.671   3.172
56555W        W28848  10.757  36.427   4.202
56556W        W28849  42.527  44.408   3.347
56557W        W28850  30.949   0.267  10.618
56558W        W28851  13.216  21.127   5.245
56559W        W28852  22.205  15.312   4.270
56560W        W28853  18.234  29.923  11.524
56561W        W28854   0.428  14.218   3.346
56562W        W28855   5.896   0.362   4.761
56563W        W28856  19.714  35.374   1.871
56564W        W28857   4.411  16.074  10.469
56565W        W28858  11.772  42.871  14.422
56566W        W28859  36.011  25.973  12.509
56567W        W28860   8.275  34.038   1.434
56568W        W28861  41.365  42.504  10.110
56569W        W28862   8.716   0.977  11.977
56570W        W28863  40.493  18.137   1.739
56571W        W28864  38.037  32.430  13.800
56572W        W28865   2.902   9.812  13.500
56573W        W28866   9.345  15.703   1.246
56574W        W28867  12.642  25.581  12.971
56575W        W28868   7.804  10.220  14.407
56576W        W28869   1.873  11.129  14.422
56577W        W28870  18.591  39.529   1.309
56578W        W28871  34.009  31.086  10.474
56579W        W28872  31.438  41.866   1.835
56580W        W28873  14.666  27.067   2.182
56581W        W28874  39.853  20.607  11.902
56582W        W28875  22.104  35.359   2.662
56583W        W28876   0.317  17.178   4.300
56584W        W28877  35.599   6.851   3.341
56585W        W28878   6.751  33.930   5.779
56586W        W28879  31.639  25.006   0.857
56587W        W28880   2.426   6.701  11.460
56588W        W28881  24.991  27.099  13.908
56589W        W28882  24.094  22.185   0.308
56590W        W28883  44.456  34.120  12.979
56591W        W28884  37.885   2.388  11.556
56592W        W28885  39.881  20.660  14.824
56593W        W28886  25.494  36.953   1.857
56594W        W28887  31.557  39.383  12.003
56595W        W28888  25.133   5.786  13.062
56596W        W28889  23.192  18.760   3.756
56597W        W28890   2.866  18.555   3.691
56598W        W28891   3.792  22.084   4.699
56599W        W28892  38.464   6.305  13.486
56600W        W28893  20.656  22.031  14.921
56601W        W28894  14.118  38.407   2.884
56602W        W28895  41.890  19.146  13.493
56603W        W28896  22.240  27.013   4.212
56604W        W28897  20.582  23.650   0.431
56605W        W28898  24.159  35.102  12.483
56606W        W28899  38.846  11.297   3.790
56607W        W28900   9.724  14.212   3.309
56608W        W28901  11.209  36.498   0.253
56609W        W28902  42.895  36.544   1.277
56610W        W28903   4.301  43.464  10.922
56611W        W28904   7.811  43.469   2.873
56612W        W28905   8.792  36.581   4.708
56613W        W28906  21.204   4.346  10.012
56614W        W28907  28.123   6.903   4.293
56615W        W28908   3.913  27.966  12.523
56616W        W28909  41.398  11.195   1.405
56617W        W28910  41.932  20.165   1.895
56618W        W28911  21.234  24.141   2.866
56619W        W28912  24.623  11.833   3.177
56620W        W28913  20.566  14.190  11.387
56621W        W28914  20.741  32.595  12.485
56622W        W28915  42.819   9.778  11.600
56623W        W28916  37.380  20.127  14.886
56624W        W28917   2.312  33.948  12.932
56625W        W28918  44.372  28.090  13.876
56626W        W28919  13.679  38.354   1.704
56627W        W28920  30.637  21.537   0.251
56628W        W28921  12.805  21.194  14.277
56629W        W28922  17.713  38.562  11.997
56630W        W28923  13.238  38.028   4.299
56631W        W28924  31.137  42.899   3.360
56632W        W28925  34.440   8.351   4.799
56633W        W28926  11.850  43.394   0.281
56634W        W28927  10.199   8.394   1.233
56635W        W28928  15.191  33.465  13.335
56636W        W28929  27.120   2.241   2.188
56637W        W28930  21.140  19.256  13.505
56638W        W28931  13.245  30.965   1.245
56639W        W28932  42.496  35.586  10.536
56640W        W28933  44.849   6.218   0.363
56641W        W28934   3.384  13.308  11.032
56642W        W28935  22.151  27.528  11.127
56643W        W28936  14.816   6.408  12.090
56644W        W28937  41.460   6.763  12.384
56645W        W28938   0.971  20.631   3.782
56646W        W28939  32.477  42.865  13.375
56647W        W28940   1.336  31.140  13.322
56648W        W28941  23.151  13.845   3.254
56649W        W28942  41.955   5.321  11.895
56650W        W28943  31.937  20.686  12.365
56651W        W28944  19.728  24.604  10.970
56652W        W28945   9.173  29.492   3.323
56653W        W28946  11.852   1.878  12.955
56654W        W28947  31.607  29.426  11.866
56655W        W28948  22.718  42.288  11.980
56656W        W28949   4.293  26.174   2.806
56657W        W28950  37.977  22.021  13.835
56658W        W28951   3.426  13.109  13.036
56659W        W28952  24.659  29.602   2.361
56660W        W28953   0.402  22.121   0.331
56661W        W28954  44.298  13.679   2.767
56662W        W28955   2.255  32.624   3.816
56663W        W28956  23.621  33.100  12.454
56664W        W28957  34.925  13.264  14.828
56665W        W28958  18.709  40.841  12.375
56666W        W28959  17.799  17.137   2.310
56667W        W28960  12.640  19.053   3.692
56668W        W28961  26.111  40.542   0.760
56669W        W28962  18.063  33.612  10.045
56670W        W28963  33.933  19.159  10.603
56671W        W28964  35.519   2.286   0.256
56672W        W28965  38.029  42.891  13.902
56673W        W28966   5.827  22.247   0.264
56674W        W28967  33.960  43.452  13.808
56675W        W28968  37.935  37.454   4.792
56676W        W28969   2.445  13.627  14.312
56677W        W28970  33.502  30.982  12.455
56678W        W28971  38.398   7.846  12.363
56679W        W28972  26.490  13.627   3.319
56680W        W28973  16.167  12.133  14.012
56681W        W28974   1.319  37.340   3.193
56682W        W28975  17.078  29.125  14.877
56683W        W28976   5.323  32.470   1.740
56684W        W28977   5.933  22.127  14.321
56685W        W28978  22.112  37.394  12.020
56686W        W28979  39.972  26.124  13.405
56687W        W28980  42.903   2.459  13.386
56688W        W28981  19.157  38.513  12.510
56689W        W28982  31.151  44.450   5.107
56690W        W28983  18.054  12.686  12.973
56691W        W28984   0.967   4.749   2.298
56692W        W28985  16.650  16.219   4.794
56693W        W28986  41.380   6.870   3.196
56694W        W28987  35.070  43.995   3.224
56695W        W28988  17.140   5.708   2.319
56696W        W28989  38.829  10.248  11.411
56697W        W28990  29.116  36.509   1.784
56698W        W28991   8.373  20.198   0.400
56699W        W28992  42.387  11.740   2.183
56700W        W28993  35.421  24.185   4.667
56701W        W28994  12.808  37.543  10.491
56702W        W28995  24.663  25.646   0.362
56703W        W28996  33.069   7.729   0.372
56704W        W28997  17.660  28.507   0.298
56705W        W28998  25.571  17.125  10.122
56706W        W28999  35.500  44.399  14.802
56707W        W29000  21.750  43.919   1.293
56708W        W29001  37.577  30.418  14.832
56709W        W29002  32.519  20.668   3.743
56710W        W29003  15.602   0.290   4.612
56711W        W29004  29.490  31.066   2.278
56712W        W29005  35.588   2.456   4.240
56713W        W29006  41.459  18.289  11.450
56714W        W29007  40.420  44.991  11.421
56715W        W29008  30.524  15.760  11.474
56716W        W29009  33.984  40.344   0.444
56717W        W29010  23.654  34.378   4.274
56718W        W29011   3.431  15.819   0.422
56719W        W29012  23.214  29.027   0.948
56720W        W29013  39.874  26.576  12.455
56721W        W29014  12.611   4.882   1.311
56722W        W29015  26.702  33.012   1.816
56723W        W29016  34.929  35.515  14.368
56724W        W29017  31.042  43.940   4.706
56725W        W29018  17.306  44.456   2.689
56726W        W29019  21.260  33.083   2.803
56727W        W29020   1.311   9.808   1.370
56728W        W29021  29.428  40.012   0.320
56729W        W29022  32.634  41.865  12.909
56730W        W29023  24.634  38.927  11.886
56731W        W29024   2.960  42.891  12.959
56732W        W29025  10.767   5.748   1.385
56733W        W29026  31.529  22.558   3.290
56734W        W29027  43.377  30.931   0.922
56735W        W29028  15.679   5.200  14.952
56736W        W29029  10.634  26.682  12.459
56737W        W29030  44.938   0.266  13.997
56738W        W29031   3.869  35.855   4.208
56739W        W29032  18.766  20.636   3.747
56740W        W29033  39.011  12.138  12.360
56741W        W29034  38.827  10.863   4.835
56742W        W29035  43.893  34.581  13.882
56743W        W29036  10.831  13.611  11.434
56744W        W29037   2.427  28.071   5.318
56745W        W29038   0.419  28.024  11.936
56746W        W29039  39.895  23.556   0.833
56747W        W29040   6.375  42.366  12.521
56748W        W29041   0.967  15.738  12.068
56749W        W29042  32.109  12.249   0.835
56750W        W29043  25.574  34.099   4.667
56751W        W29044  28.164  23.051   2.823
56752W        W29045  19.226  19.598   4.786
56753W        W29046  40.518  34.372   4.128
56754W        W29047   2.461   2.413   2.259
56755W        W29048   8.336  27.045   0.937
56756W        W29049   5.281  29.592   3.348
56757W        W29050  25.994  13.340  10.553
56758W        W29051   0.424  40.425   4.121
56759W        W29052  41.038  27.603   2.257
56760W        W29053  31.573   3.788  13.367
56761W        W29054   3.837  35.398  13.379
56762W        W29055  37.460   8.312   4.781
56763W        W29056  26.533  19.609  12.085
56764W        W29057   3.745  40.942   1.277
56765W        W29058  36.843  37.979  13.486
56766W        W29059  43.380  27.680  14.823
56767W        W29060  15.245  33.113   0.398
56768W        W29061  24.482   8.798  10.938
56769W        W29062  36.544  14.186   4.216
56770W        W29063  25.695  23.119  11.096
56771W        W29064  12.772  26.474   2.348
56772W        W29065   5.366  43.853  14.875
56773W        W29066  27.073  31.917  10.524
56774W        W29067  11.162  11.217  13.482
56775W        W29068   2.910  28.994   1.251
56776W        W29069  24.153   8.668  11.903
56777W        W29070  21.653   8.702   4.650
56778W        W29071  22.145  42.895  14.993
56779W        W29072  20.718  24.090   0.245
56780W        W29073  11.821  18.149   0.731
56781W        W29074  20.638  29.657  14.803
56782W        W29075  32.082  20.560   4.612
56783W        W29076  25.013  31.017  12.423
56784W        W29077  34.014   7.362  13.047
56785W        W29078  23.027  35.599   3.171
56786W        W29079   6.339  21.150  12.505
56787W        W29080  23.219  24.481   1.801
56788W        W29081  19.116  21.092  12.462
56789W        W29082   3.459  41.431   3.848
56790W        W29083   0.794   5.408   4.799
56791W        W29084   3.709  14.124  11.394
56792W        W29085  19.612  40.001   0.462
56793W        W29086  21.093  13.750   2.726
56794W        W29087  36.096  28.598   2.815
56795W        W29088  31.593  34.120  10.569
56796W        W29089  29.938  36.453   2.249
56797W        W29090  29.525   4.207   1.259
56798W        W29091  30.561  39.482   3.178
56799W        W29092   6.391  19.710  11.550
56800W        W29093   6.849  21.227  11.009
56801W        W29094  23.012  17.744  13.417
56802W        W29095  32.930   0.777  12.920
56803W        W29096  20.080  31.444   2.903
56804W        W29097  33.501  12.225  10.557
56805W        W29098  38.011  11.156   1.881
56806W        W29099  11.829  35.420  12.490
56807W        W29100  19.271  29.961  12.013
56808W        W29101  27.102  39.856   1.924
56809W        W29102  16.639  39.440   4.723
56810W        W29103  28.577  29.588  12.576
56811W        W29104  43.356  26.090   2.868
56812W        W29105  17.197  25.559   0.940
56813W        W29106  28.561  28.563   2.711
56814W        W29107  25.962  39.448   4.610
56815W        W29108  43.394  33.505   0.408
56816W        W29109   6.711  43.411   2.783
56817W        W29110  28.991  32.586  12.861
56818W        W29111   4.253  10.199  11.402
56819W        W29112  39.498  38.886  14.397
56820W        W29113   9.229   3.784  13.460
56821W        W29114  13.176   9.219  12.873
56822W        W29115  35.413   5.410  13.933
56823W        W29116  33.491  39.902  13.045
56824W        W29117  19.240  30.506   9.489
56825W        W29118  18.791  27.615  11.544
56826W        W29119  22.016  14.813  11.394
56827W        W29120   7.306   3.866   1.778
56828W        W29121  32.579   3.767   2.272
56829W        W29122  23.036  42.367  10.914
56830W        W29123  14.145   1.966   1.915
56831W        W29124   6.197  39.323   4.293
56832W        W29125  43.345  18.288   1.282
56833W        W29126   5.391  11.210  10.567
56834W        W29127  20.241  38.406  14.835
56835W        W29128  31.501  44.845   2.846
56836W        W29129   5.390   7.696   1.274
56837W        W29130  43.360   6.793   4.289
56838W        W29131   8.406  30.122   4.720
56839W        W29132  42.938   5.772   2.762
56840W        W29133  23.125   0.479   0.864
56841W        W29134  23.043  40.446   4.192
56842W        W29135   2.438   6.194   1.440
56843W        W29136  31.627  17.601   2.299
56844W        W29137  12.199  12.718  14.851
56845W        W29138  11.279  39.814   0.282
56846W        W29139  35.976   2.818  11.389
56847W        W29140  27.604   3.896  14.500
56848W        W29141  11.348   0.338  14.854
56849W        W29142  12.304  17.177   0.872
56850W        W29143  41.439  38.343   2.185
56851W        W29144  26.960  34.959  12.550
56852W        W29145  12.717  41.852  13.407
56853W        W29146  39.061  15.613   1.899
56854W        W29147  27.547  29.934   0.477
56855W        W29148  24.190  33.891  12.501
56856W        W29149  20.200  33.540  11.036
56857W        W29150  40.534  22.572  11.580
56858W        W29151   6.370  44.908  12.408
56859W        W29152  24.507  40.307   0.280
56860W        W29153  22.085  17.068  11.523
56861W        W29154  37.865  30.055  10.526
56862W        W29155  35.946  17.708   4.611
56863W        W29156  11.817  11.825   0.774
56864W        W29157  27.007  29.445  14.865
56865W        W29158  11.859  10.862   3.377
56866W        W29159   2.392   3.745  13.948
56867W        W29160  18.574  29.449   2.857
56868W        W29161   9.824  21.225  14.499
56869W        W29162  28.661   4.789   4.225
56870W        W29163  24.530  44.978   0.859
56871W        W29164  15.147  43.289  14.810
56872W        W29165  15.776  32.487  14.908
56873W        W29166  28.160  40.822  10.508
56874W        W29167  16.768  15.611  11.129
56875W        W29168  11.169  10.197  10.415
56876W        W29169  30.106  37.347   4.194
56877W        W29170  24.067  41.469  12.484
56878W        W29171  37.007  27.987   4.142
56879W        W29172  24.665  20.739  10.499
56880W        W29173  43.774  21.040  12.930
56881W        W29174  37.562  10.873   3.149
56882W        W29175  11.199  30.933   4.333
56883W        W29176  21.241   1.928  12.496
56884W        W29177  41.426  23.220   2.688
56885W        W29178   4.909   7.685  12.873
56886W        W29179  44.776  23.026   4.350
56887W        W29180  36.887  23.076   1.856
56888W        W29181   0.338  44.353   4.355
56889W        W29182  21.651  27.941  13.943
56890W        W29183   7.909  42.440  12.870
56891W        W29184  23.543  31.054   1.837
56892W        W29185   4.928  30.911   2.686
56893W        W29186  35.905  28.063  12.846
56894W        W29187  23.495  37.505  14.303
56895W        W29188  39.875   6.916   2.717
56896W        W29189  36.580   1.238   2.827
56897W        W29190  27.963  37.494   2.374
56898W        W29191  32.911  22.659   0.949
56899W        W29192  37.505  28.603   0.325
56900W        W29193   2.742   4.318  14.801
56901W        W29194  38.902  29.608   9.983
56902W        W29195  14.207  21.145  10.475
56903W        W29196   1.792   7.195   2.202
56904W        W29197  24.067  43.286  13.939
56905W        W29198  37.852   8.881   4.184
56906W        W29199  23.095  22.640   1.743
56907W        W29200  17.744   8.192  11.559
56908W        W29201  32.999  39.913  13.468
56909W        W29202  21.592   0.787   4.664
56910W        W29203  38.989  25.149  13.349
56911W        W29204  22.101  27.535  10.516
56912W        W29205  32.004  36.885   4.264
56913W        W29206   5.770  40.403   1.348
56914W        W29207  33.440  17.094  14.978
56915W        W29208   1.732  15.701   1.430
56916W        W29209   2.457  10.873  13.319
56917W        W29210  16.600  22.159   9.981
56918W        W29211  44.906  36.961  11.492
56919W        W29212  39.420  27.641   4.121
56920W        W29213  41.292   0.802   9.646
56921W        W29214  42.457  33.940   1.305
56922W        W29215  22.577  41.857  12.851
56923W        W29216  44.278  28.615  11.102
56924W        W29217   5.391  15.101  13.945
56925W        W29218   7.776  11.715  11.976
56926W        W29219   2.927   7.184  14.330
56927W        W29220  40.906  37.573   4.650
56928W        W29221  30.148  39.560   2.867
56929W        W29222   6.709  27.122  13.369
56930W        W29223  33.397  38.008   4.659
56931W        W29224  43.392   2.961   1.930
56932W        W29225  16.787  12.670  13.858
56933W        W29226   2.789  26.154   3.692
56934W        W29227  44.426  20.671   4.291
56935W        W29228  41.380   8.228  11.905
56936W        W29229   3.851   3.294   5.118
56937W        W29230  29.127  33.467   4.274
56938W        W29231  41.832  12.170  13.365
56939W        W29232   0.894  33.882   3.249
56940W        W29233  42.893   8.380   0.301
56941W        W29234  32.562  29.657  10.609
56942W        W29235  23.985   3.897  12.837
56943W        W29236   4.848   9.759   2.236
56944W        W29237  13.706  24.581   2.373
56945W        W29238   2.863   7.819  12.976
56946W        W29239  29.168  21.655   9.640
56947W        W29240   2.453  16.775   1.271
56948W        W29241  21.028  28.626  13.931
56949W        W29242  15.275   8.273   2.391
56950W        W29243  35.405  34.590   4.657
56951W        W29244  22.526  38.894  14.952
56952W        W29245   9.340  36.586   4.278
56953W        W29246   8.162  40.968  12.445
56954W        W29247  43.488  17.190  14.292
56955W        W29248  41.498  36.361  12.878
56956W        W29249  26.562   5.284  13.335
56957W        W29250  19.256   2.352   4.304
56958W        W29251   8.862  14.627   5.241
56959W        W29252  35.490   9.795   2.364
56960W        W29253  17.193  13.779  11.871
56961W        W29254  27.033  40.367   3.167
56962W        W29255  35.107  23.027  12.348
56963W        W29256  26.091  21.153   1.796
56964W        W29257   8.310  25.546  12.066
56965W        W29258  27.590  21.116  12.877
56966W        W29259  38.546  10.241  11.425
56967W        W29260   4.848  20.609  11.920
56968W        W29261  24.648  39.362  14.470
56969W        W29262   9.763  25.700   4.689
56970W        W29263  40.377  17.149   9.976
56971W        W29264  24.096  12.642   4.185
56972W        W29265  32.935  13.113   3.344
56973W        W29266  38.893  21.753   2.225
56974W        W29267  34.480  11.154  12.933
56975W        W29268  27.562  11.741  12.443
56976W        W29269  31.150  28.941  13.837
56977W        W29270  44.819  35.906   5.258
56978W        W29271  13.777  25.544  14.851
56979W        W29272   3.732  25.165  13.004
56980W        W29273  25.219  42.311  14.453
56981W        W29274  43.478  21.084   0.744
56982W        W29275  41.987  24.107   2.875
56983W        W29276  15.241   2.413   4.735
56984W        W29277  35.995   4.290  10.518
56985W        W29278  33.434  17.743   0.448
56986W        W29279  22.206  15.286  12.468
56987W        W29280  44.433  24.042  10.485
56988W        W29281  44.426  27.106  12.918
56989W        W29282   8.720  41.962  12.454
56990W        W29283   4.349  13.675   0.846
56991W        W29284  35.577  22.246  12.345
56992W        W29285   2.347  34.580  14.914
56993W        W29286  18.673  41.478   0.435
56994W        W29287  21.626  28.540   4.765
56995W        W29288   2.883   0.758   3.803
56996W        W29289  26.471  18.257   1.303
56997W        W29290   4.755   8.338   0.474
56998W        W29291  26.028  29.924   0.306
56999W        W29292   9.652  29.429  14.298
57000W        W29293   8.701   0.903  11.440
57001W        W29294  32.956   0.921   2.326
57002W        W29295  27.573  33.573  11.108
57003W        W29296   4.380   0.481   0.962
57004W        W29297   2.306  37.830  10.487
57005W        W29298  26.988  12.286   4.223
57006W        W29299  20.069   1.897   0.343
57007W        W29300  21.618  14.283  14.981
57008W        W29301  22.118  29.460   0.394
57009W        W29302  12.654  10.375   0.795
57010W        W29303  17.598  32.987  11.429
57011W        W29304  24.103  20.079  10.906
57012W        W29305   0.397  23.649  13.531
57013W        W29306  25.713  13.661  12.418
57014W        W29307   7.888  29.453  14.897
57015W        W29308  39.866   4.890  14.791
57016W        W29309   1.346  22.657   2.665
57017W        W29310  12.238   8.213   2.774
57018W        W29311   1.895  43.345  11.392
57019W        W29312  43.822   2.751  10.430
57020W        W29313  11.746  37.467   1.750
57021W        W29314  42.842  10.321  11.859
57022W        W29315  25.998   3.735  12.906
57023W        W29316  19.571  34.443   1.295
57024W        W29317  25.085  40.907   3.354
57025W        W29318   6.327  30.061   0.778
57026W        W29319  24.043  37.907  11.106
57027W        W29320  12.273  28.029   3.261
57028W        W29321   6.226   3.934  11.377
57029W        W29322  23.011  22.557   3.167
57030W        W29323  32.532  44.466  13.841
57031W        W29324  28.660  33.947   3.829
57032W        W29325  37.043   6.705  10.606
57033W        W29326  23.196   5.328  10.940
57034W        W29327   5.254  44.394   0.944
57035W        W29328   4.404  33.553   0.749
57036W        W29329   4.797  27.982  12.397
57037W        W29330  17.281  29.614  11.882
57038W        W29331  33.472  37.891  12.414
57039W        W29332  21.070  44.992   4.312
57040W        W29333  42.352   8.892  12.883
57041W        W29334  40.987  21.169  12.560
57042W        W29335  23.110   7.183  11.554
57043W        W29336  18.722  41.814  10.450
57044W        W29337  25.585  23.495   3.341
57045W        W29338  14.162  32.627  12.883
57046W        W29339   0.304  32.449  13.841
57047W        W29340  42.403  32.088   3.163
57048W        W29341  29.567  10.325  11.469
57049W        W29342  11.153  19.763   1.218
57050W        W29343  12.221   0.319   0.255
57051W        W29344  15.249  43.315  11.061
57052W        W29345   8.297  38.465  14.020
57053W        W29346  17.073  33.018   3.841
57054W        W29347   0.859  29.977  13.990
57055W        W29348  32.005  27.047   4.316
57056W        W29349  13.755  32.905   4.688
57057W        W29350  30.606  23.072   4.314
57058W        W29351  15.612  36.058  10.150
57059W        W29352  43.443   4.350  11.117
57060W        W29353  20.123  33.564   2.233
57061W        W29354  34.962  33.442   0.380
57062W        W29355   1.928   8.831  13.859
57063W        W29356   9.369  39.343  10.904
57064W        W29357   0.256  43.342   2.805
57065W        W29358  20.565  42.296  13.877
57066W        W29359  14.276  38.921  13.387
57067W        W29360  33.070  29.497  14.032
57068W        W29361   8.235  22.549   0.854
57069W        W29362  20.264  29.631   3.765
57070W        W29363  21.621  22.159  14.840
57071W        W29364  14.614  25.505   4.668
57072W        W29365  34.020   8.250  11.058
57073W        W29366  44.005  24.056  13.026
57074W        W29367  35.963  31.558  12.880
57075W        W29368  12.228   1.467  14.483
57076W        W29369   3.223  21.074   1.274
57077W        W29370  26.670  28.615  10.588
57078W        W29371  10.676  40.517   1.228
57079W        W29372  40.053   7.404  12.410
57080W        W29373  10.225  12.149   4.239
57081W        W29374  12.275  42.393  11.098
57082W        W29375  16.622   1.375  14.897
57083W        W29376  35.584  17.165   0.762
57084W        W29377  31.948  41.806   2.344
57085W        W29378  23.546  33.992   3.152
57086W        W29379  25.015  32.982   1.851
57087W        W29380  18.198  27.576   2.218
57088W        W29381   6.274  39.866   4.277
57089W        W29382  12.715  13.759  12.421
57090W        W29383  10.839   4.705   0.406
57091W        W29384  23.194  39.544  13.351
57092W        W29385  43.812  32.624   1.277
57093W        W29386   7.784  41.327  12.088
57094W        W29387  44.822  22.573  10.471
57095W        W29388  20.531  42.308   2.298
57096W        W29389   2.879  20.256   0.444
57097W        W29390   8.829  41.810  14.933
57098W        W29391  12.259  25.710   2.855
57099W        W29392  27.159  32.001  11.967
57100W        W29393  42.983  30.922   3.750
57101W        W29394   2.770   1.417  13.498
57102W        W29395  25.138  18.592  11.065
57103W        W29396  43.321  30.628  14.423
57104W        W29397  12.677   4.406   2.790
57105W        W29398  32.143  26.022  13.874
57106W        W29399  40.991   6.226   4.728
57107W        W29400  20.720   3.347  10.564
57108W        W29401   7.310   7.357  11.900
57109W        W29402  31.555  22.518  12.015
57110W        W29403  27.112  12.204  13.497
57111W        W29404  32.076  21.617   0.359
57112W        W29405  22.599  30.658  12.448
57113W        W29406  42.412   4.751  11.607
57114W        W29407  32.536  25.637   0.756
57115W        W29408  14.317  12.249  12.935
57116W        W29409  25.617   7.690   2.393
57117W        W29410  35.034  27.094   0.256
57118W        W29411   4.353  10.313   0.786
57119W        W29412  35.947  25.175   4.684
57120W        W29413  21.630  12.310   0.753
57121W        W29414  20.045  40.873  11.048
57122W        W29415   6.851  15.601  11.522
57123W        W29416   7.402  22.194   3.252
57124W        W29417  25.179   3.395   4.627
57125W        W29418  23.989   3.243   0.286
57126W        W29419  43.935   3.453  11.455
57127W        W29420  15.788  14.811   3.665
57128W        W29421  25.581  14.642  11.569
57129W        W29422  19.553  13.828   3.785
57130W        W29423  13.600  20.122  11.542
57131W        W29424  24.190   6.737  12.994
57132W        W29425  18.714  44.951  11.377
57133W        W29426  31.151   7.401  11.413
57134W        W29427  42.378  30.524   0.300
57135W        W29428  15.132  17.244   2.281
57136W        W29429   7.248  23.219  12.074
57137W        W29430  41.882  25.511  12.898
57138W        W29431  28.149  18.708  11.006
57139W        W29432   3.392   9.154   1.829
57140W        W29433   8.328  38.896   3.862
57141W        W29434  27.034   6.221  12.924
57142W        W29435  35.852  24.634   3.701
57143W        W29436  17.115  13.259   2.800
57144W        W29437  32.107  31.043   0.296
57145W        W29438  21.198  43.780  10.920
57146W        W29439  13.134   0.327   0.811
57147W        W29440  24.147  26.197  14.387
57148W        W29441   7.808  31.610   1.342
57149W        W29442   1.275   8.257  12.911
57150W        W29443   3.955  17.717  12.001
57151W        W29444  19.762  31.413   5.292
57152W        W29445   3.313  37.335   1.403
57153W        W29446   0.907  28.107   3.385
57154W        W29447  42.817   7.842  13.876
57155W        W29448  37.054  15.814   2.294
57156W        W29449  28.965   3.306  10.487
57157W        W29450   3.216  23.073  14.448
57158W        W29451  29.568  10.260  10.905
57159W        W29452  34.536  18.167   2.235
57160W        W29453  26.036   4.844  10.110
57161W        W29454  20.707  35.581  11.410
57162W        W29455   2.895  21.139  10.891
57163W        W29456   7.363  27.017   2.898
57164W        W29457   2.442  31.407  14.334
57165W        W29458  30.549  11.243   4.339
57166W        W29459  21.563  42.822  14.278
57167W        W29460   4.230  33.877   2.685
57168W        W29461   4.236  30.511  10.948
57169W        W29462  17.212   9.344  10.894
57170W        W29463  39.491  23.507  11.487
57171W        W29464  32.501  33.027   0.927
57172W        W29465   6.769  31.494   0.795
57173W        W29466   4.705  11.196  11.446
57174W        W29467   8.178  41.935  12.429
57175W        W29468  20.744  35.449   0.460
57176W        W29469   9.676  30.506   4.173
57177W        W29470  19.739  32.003  14.458
57178W        W29471   8.314  44.931  10.552
57179W        W29472  21.582  22.576  12.542
57180W        W29473  13.618  21.076   3.238
57181W        W29474   2.317  43.770  12.415
57182W        W29475  16.314  19.076   1.785
57183W        W29476  31.462   5.860   2.393
57184W        W29477  26.500  39.829  10.947
57185W        W29478   1.362  15.253  11.408
57186W        W29479   2.961  36.900  11.119
57187W        W29480   5.196  39.029   3.760
57188W        W29481  16.214  14.219  14.848
57189W        W29482  40.988  25.566   1.887
57190W        W29483   2.828  38.510   4.301
57191W        W29484  15.210  30.937   1.875
57192W        W29485   2.431  20.531   1.243
57193W        W29486  14.664  27.624   4.668
57194W        W29487  16.311  15.304   0.407
57195W        W29488   1.333  31.062  13.968
57196W        W29489  10.859  10.756   1.840
57197W        W29490  31.412  40.910  10.917
57198W        W29491  14.808  12.766   1.825
57199W        W29492   9.370  28.442   2.269
57200W        W29493   5.764  21.621  12.030
57201W        W29494  10.857  43.271   2.695
57202W        W29495  42.918  38.884  13.419
57203W        W29496   0.493  15.680  10.637
57204W        W29497  25.099  40.834  14.924
57205W        W29498  14.157  31.059  13.453
57206W        W29499   2.247   5.909   0.434
57207W        W29500  40.345   0.914  14.411
57208W        W29501  14.300  25.097  10.412
57209W        W29502  25.706  34.110   0.931
57210W        W29503  43.386  30.070   2.784
57211W        W29504   5.365  42.818   0.928
57212W        W29505  42.303  10.262   2.856
57213W        W29506   6.375  19.767   0.437
57214W        W29507  15.131  37.351  14.988
57215W        W29508  31.964  20.117   4.158
57216W        W29509   2.454  15.234  11.409
57217W        W29510  35.036  12.691  14.460
57218W        W29511  30.493  30.980  12.038
57219W        W29512  26.616  16.752  13.014
57220W        W29513  31.113  35.039   5.183
57221W        W29514  42.860  17.710   3.745
57222W        W29515   9.738  43.006   0.788
57223W        W29516  31.942  35.026   3.724
57224W        W29517  34.042  43.339  14.809
57225W        W29518  33.951  35.389  12.831
57226W        W29519  16.186  41.982   0.855
57227W        W29520  12.755  25.484   2.286
57228W        W29521  37.379  26.663  11.110
57229W        W29522  22.117   3.248   1.795
57230W        W29523  11.643  27.615   4.831
57231W        W29524  43.407  44.268  10.628
57232W        W29525  41.305   9.674  11.075
57233W        W29526  44.399   0.386   4.736
57234W        W29527   3.428  30.025   0.770
57235W        W29528   8.225   0.454  14.318
57236W        W29529  24.492  18.190   2.413
57237W        W29530   9.234   8.795   1.287
57238W        W29531  38.857  12.831   0.852
57239W        W29532  40.477  24.505   3.381
57240W        W29533  21.625  32.439  13.518
57241W        W29534  23.502   2.861   2.712
57242W        W29535  13.769  28.993   0.373
57243W        W29536  21.152  22.528   2.859
57244W        W29537  40.894  34.520  10.633
57245W        W29538  15.751  28.080  12.340
57246W        W29539  34.884  23.103  11.874
57247W        W29540  15.165  27.139  14.446
57248W        W29541  36.447  25.500  13.046
57249W        W29542  40.922   4.273   3.670
57250W        W29543  10.782  18.289  13.824
57251W        W29544  37.943  24.610   2.757
57252W        W29545  14.758   2.924   1.861
57253W        W29546  44.338  44.472   2.737
57254W        W29547  41.377  31.951   2.387
57255W        W29548  28.050  29.449   3.650
57256W        W29549  13.134  39.489   4.704
57257W        W29550  15.821  27.975   0.481
57258W        W29551   5.755  42.931   0.375
57259W        W29552  10.824   9.689  13.868
57260W        W29553  33.613   1.898  14.311
57261W        W29554  28.003  29.138   0.765
57262W        W29555   1.875   6.261   1.846
57263W        W29556   4.842  21.529   0.458
57264W        W29557   0.954  23.580   2.878
57265W        W29558  40.042   3.830   2.889
57266W        W29559  38.340  17.602   4.178
57267W        W29560  14.179  18.743  12.534
57268W        W29561  17.694   3.398  13.399
57269W        W29562  20.135  43.933  13.471
57270W        W29563  26.699   5.796  14.938
57271W        W29564  11.850   4.366   2.418
57272W        W29565  36.863  38.386  12.986
57273W        W29566   6.425  35.468   1.289
57274W        W29567  38.930  26.504   1.894
57275W        W29568   5.276  35.882   1.751
57276W        W29569  14.664  20.107   1.868
57277W        W29570  38.833  33.117   4.300
57278W        W29571  43.960  33.934   5.233
57279W        W29572  14.790   4.782  12.447
57280W        W29573  42.373  19.056  12.486
57281W        W29574   1.882  11.854   4.767
57282W        W29575  34.978  25.077   1.784
57283W        W29576   4.304   3.712  14.433
57284W        W29577  34.918  44.933   3.259
57285W        W29578  29.634  22.097  10.077
57286W        W29579  18.158  33.129   2.879
57287W        W29580  29.555   7.396   1.298
57288W        W29581  25.484  21.587   2.738
57289W        W29582  27.962  36.404  14.490
57290W        W29583  35.497  39.863   4.780
57291W        W29584   4.370  21.053   1.831
57292W        W29585  28.107  29.040  13.385
57293W        W29586  16.769  11.196   3.149
57294W        W29587  35.900  43.867  13.335
57295W        W29588   6.788   1.871  13.818
57296W        W29589  19.196  38.406   0.275
57297W        W29590   5.777  41.924  12.974
57298W        W29591   4.393   6.343  13.498
57299W        W29592   5.286  27.041  14.912
57300W        W29593   2.842  19.098   2.697
57301W        W29594  22.230  38.472   2.795
57302W        W29595  43.005  29.034   2.191
57303W        W29596  21.604  42.304   0.795
57304W        W29597  18.186  20.713   3.630
57305W        W29598  36.573  32.003  12.857
57306W        W29599   3.298  28.975   0.830
57307W        W29600  40.005  23.187  10.619
57308W        W29601  12.171   4.941  14.512
57309W        W29602  26.995  10.667   0.910
57310W        W29603   9.804   0.455  11.939
57311W        W29604  16.239   2.886   3.320
57312W        W29605   4.726  32.502   0.461
57313W        W29606  19.779  18.214   2.203
57314W        W29607   4.424  28.968   4.794
57315W        W29608  36.847  11.850  10.987
57316W        W29609  44.993  17.228  11.572
57317W        W29610   8.833  29.513   2.300
57318W        W29611  17.792  33.385   3.155
57319W        W29612  33.544   7.209  12.965
57320W        W29613   3.941  11.714   1.717
57321W        W29614   9.257   0.783   1.744
57322W        W29615  13.160  44.004   1.300
57323W        W29616  26.538  11.750  13.982
57324W        W29617  15.291  41.337   0.890
57325W        W29618   9.809   7.399   4.145
57326W        W29619   9.350  16.692   4.241
57327W        W29620  15.809  38.503  13.510
57328W        W29621  26.696   4.851   9.929
57329W        W29622  33.607   3.461   4.201
57330W        W29623  25.616  22.678   3.167
57331W        W29624  23.712  18.072  11.072
57332W        W29625  25.005   1.382   0.287
57333W        W29626  19.066  36.906  12.497
57334W        W29627   6.194  29.513  12.579
57335W        W29628  30.991  43.945   4.207
57336W        W29629  42.932  14.639   3.298
57337W        W29630  40.805   0.938   2.755
57338W        W29631  24.992   7.704  14.282
57339W        W29632  41.528  33.877  14.463
57340W        W29633  27.673  33.449  12.579
57341W        W29634  44.805  18.588   1.747
57342W        W29635  42.479  10.338   3.288
57343W        W29636  36.885   8.843   1.772
57344W        W29637  30.055  23.064  10.613
57345W        W29638  11.642  21.719   0.767
57346W        W29639   1.272  36.422   2.897
57347W        W29640  17.649  44.276   3.797
57348W        W29641  25.058   1.376   1.786
57349W        W29642  17.189   7.891   1.307
57350W        W29643   1.812  43.474   4.202
57351W        W29644   5.778  28.627  12.911
57352W        W29645  24.982   2.829   9.654
57353W        W29646  35.882  29.131  11.441
57354W        W29647  20.152  29.531  14.842
57355W        W29648   2.860  15.112   2.324
57356W        W29649   1.820  36.044   3.338
57357W        W29650  28.545  20.649  11.992
57358W        W29651  40.034  26.035  10.418
57359W        W29652  21.648  27.591   0.294
57360W        W29653  41.900  43.302  10.043
57361W        W29654  39.343   9.704  14.309
57362W        W29655  43.285   1.737   0.363
57363W        W29656  19.224  35.062   2.672
57364W        W29657  19.628  10.647   4.676
57365W        W29658  27.013   2.904   0.373
57366W        W29659  35.422   0.890   2.269
57367W        W29660   9.158   7.819   3.749
57368W        W29661  27.668  41.801   3.365
57369W        W29662  29.588  25.524   2.349
57370W        W29663  14.181  10.302  14.910
57371W        W29664  31.605  44.838   1.238
57372W        W29665   7.397  40.386   3.722
57373W        W29666  23.124  33.440   4.135
57374W        W29667  26.019  36.097   0.799
57375W        W29668   4.410  21.206  13.815
57376W        W29669  39.473  37.074  11.953
57377W        W29670  35.403   5.429  14.990
57378W        W29671  27.533  35.025  11.474
57379W        W29672  21.031  10.781   1.281
57380W        W29673  33.991   7.758  11.063
57381W        W29674  27.025   6.681   2.789
57382W        W29675  26.198  15.264  11.378
57383W        W29676  15.759  43.400  11.989
57384W        W29677  18.677  37.483   4.198
57385W        W29678  38.939  14.750  11.990
57386W        W29679   6.273  30.911  10.437
57387W        W29680  18.778   5.310  14.904
57388W        W29681   2.867  33.415   0.268
57389W        W29682  38.832  16.745  13.541
57390W        W29683   3.731  35.491   4.790
57391W        W29684  39.053  34.903   2.240
57392W        W29685   9.228  26.989  12.968
57393W        W29686  31.427  40.815   4.305
57394W        W29687  18.775  33.957  10.978
57395W        W29688  26.975  22.034   4.257
57396W        W29689  17.613  20.150   4.641
57397W        W29690  34.441  18.707   2.728
57398W        W29691  20.603  35.977  14.987
57399W        W29692  29.443  25.103  12.002
57400W        W29693   3.858  13.159   1.863
57401W        W29694   3.847   1.248   0.400
57402W        W29695  44.352  28.032   3.749
57403W        W29696   4.726  21.598  10.934
57404W        W29697   6.879  19.196   2.665
57405W        W29698   6.349   9.751  12.422
57406W        W29699  28.664   6.788   4.650
57407W        W29700  11.713  43.948   2.693
57408W        W29701  42.519  17.203  14.778
57409W        W29702  44.345  18.696   4.293
57410W        W29703  11.172   6.196  11.946
57411W        W29704  23.203  39.495   0.831
57412W        W29705  19.248  33.114  13.881
57413W        W29706   1.362  11.635  11.529
57414W        W29707  32.543  37.577   1.401
57415W        W29708   6.200  16.728  11.054
57416W        W29709  10.282  11.202   1.393
57417W        W29710  29.533  40.496  13.026
57418W        W29711  42.902  37.440   5.115
57419W        W29712  34.870  21.046   1.853
57420W        W29713  25.606  39.430  11.124
57421W        W29714  43.880  17.157   1.328
57422W        W29715  13.175   0.278  12.507
57423W        W29716  31.465  16.626   2.873
57424W        W29717  18.198  35.884   1.785
57425W        W29718  29.653  20.045   3.157
57426W        W29719  44.990  10.190   1.770
57427W        W29720  24.650   2.868  13.998
57428W        W29721  26.990  13.175   2.286
57429W        W29722   1.945  30.417   3.271
57430W        W29723  25.539   2.907  14.830
57431W        W29724  44.340  12.211  14.828
57432W        W29725  23.506   8.204   2.337
57433W        W29726   3.843  44.962   4.740
57434W        W29727  37.335  33.016  13.399
57435W        W29728  39.902  14.131   1.403
57436W        W29729  30.643  25.637   1.871
57437W        W29730  18.182   1.844   4.823
57438W        W29731  16.729  37.446   3.783
57439W        W29732  28.657  14.144  13.336
57440W        W29733   9.244   0.862   4.799
57441W        W29734  21.203  17.249  11.612
57442W        W29735  22.634  43.769  11.591
57443W        W29736  33.919  28.945   2.731
57444W        W29737  11.168   6.786  10.499
57445W        W29738  16.771  40.922  10.618
57446W        W29739  18.184  21.245  11.458
57447W        W29740  30.025  30.501   0.467
57448W        W29741  13.683  10.335   0.330
57449W        W29742  37.024   3.783   2.192
57450W        W29743   8.668  13.306  11.124
57451W        W29744  38.844   5.290   2.872
57452W        W29745  37.014   7.665   1.332
57453W        W29746  16.594  25.060   2.347
57454W        W29747  36.074   5.350  12.027
57455W        W29748  18.174  40.035  11.546
57456W        W29749  22.165  20.686   2.329
57457W        W29750  18.100   9.262   3.202
57458W        W29751   2.415  31.518   3.348
57459W        W29752   4.275  26.058  13.366
57460W        W29753  21.755  42.495   3.288
57461W        W29754  26.565  11.176   0.247
57462W        W29755  43.017  39.829   4.338
57463W        W29756  28.489   0.984  11.128
57464W        W29757  30.016  14.248   0.927
57465W        W29758  40.441  42.510   1.406
57466W        W29759  41.934  37.517   0.736
57467W        W29760  41.837  20.157  13.033
57468W        W29761  14.607   8.263  13.926
57469W        W29762  11.719  28.434  11.446
57470W        W29763  41.329  43.924  11.569
57471W        W29764   2.849   4.405  13.344
57472W        W29765  19.634  40.858   0.480
57473W        W29766  26.129  21.174   3.849
57474W        W29767  39.965  16.092  11.565
57475W        W29768  43.321  44.495  14.778
57476W        W29769  16.764  17.288   2.722
57477W        W29770  17.206   3.811  12.565
57478W        W29771  11.148   3.307  13.829
57479W        W29772  36.050  21.592  13.947
57480W        W29773  33.923  30.487   4.273
57481W        W29774  28.453   4.830  10.921
57482W        W29775  38.999   2.237  12.366
57483W        W29776  43.775   6.706  13.802
57484W        W29777  44.810  37.858   3.311
57485W        W29778  18.604  34.865   2.267
57486W        W29779   2.443  24.571   2.377
57487W        W29780  33.566  25.182  10.040
57488W        W29781  17.117  38.967   0.426
57489W        W29782  34.055  29.132   0.259
57490W        W29783  38.410  26.196  14.988
57491W        W29784  26.011  31.453   4.688
57492W        W29785  44.971  34.900   4.318
57493W        W29786  20.172  24.725  12.902
57494W        W29787   9.303   3.741   2.792
57495W        W29788  14.146   7.310   4.123
57496W        W29789  36.035   9.174   2.833
57497W        W29790  14.766  40.322   0.836
57498W        W29791   2.325  18.294  10.597
57499W        W29792   3.329  34.467  14.510
57500W        W29793  17.113  20.755   4.636
57501W        W29794  25.090  20.564   0.905
57502W        W29795  11.132  33.567   2.345
57503W        W29796  40.983   8.344  10.498
57504W        W29797   3.768  23.725   3.311
57505W        W29798  13.125   0.409  13.945
57506W        W29799  30.948   6.273  13.362
57507W        W29800  11.638  28.175   5.233
57508W        W29801  27.446   5.889   4.799
57509W        W29802  42.831  33.532   1.761
57510W        W29803   9.332  20.527   3.635
57511W        W29804  31.503  39.051   2.237
57512W        W29805  42.938  22.249   1.341
57513W        W29806  24.077  38.967   0.280
57514W        W29807  38.342  18.685   0.483
57515W        W29808  32.448  10.375  11.094
57516W        W29809  40.324  43.811   2.382
57517W        W29810   2.792  28.659  13.027
57518W        W29811  26.048  21.071  11.083
57519W        W29812  44.842   5.333   3.328
57520W        W29813  31.959  42.292  10.491
57521W        W29814  16.192  38.912  10.538
57522W        W29815  36.584   5.724   0.348
57523W        W29816  27.135  25.132  14.808
57524W        W29817  32.960  31.572   4.269
57525W        W29818   9.676  37.880   2.793
57526W        W29819  38.022  15.657  13.994
57527W        W29820  30.034  15.709  10.575
57528W        W29821  15.234  40.861  12.989
57529W        W29822   0.366  26.026  14.323
57530W        W29823  14.611  36.461  14.015
57531W        W29824  38.333  36.487  11.438
57532W        W29825  12.625   6.747  10.434
57533W        W29826  31.616  40.005  13.816
57534W        W29827  19.562  37.913  14.925
57535W        W29828  15.229  11.180  12.573
57536W        W29829   6.718  15.178   1.321
57537W        W29830  32.600  15.637  12.938
57538W        W29831   2.845  38.452  13.022
57539W        W29832  42.332   1.381   9.511
57540W        W29833  24.719  10.811   2.411
57541W        W29834  13.628   4.426  14.995
57542W        W29835  44.470  44.779  14.000
57543W        W29836  17.707  40.520  11.119
57544W        W29837   3.829   4.733  10.478
57545W        W29838  29.076   9.252  13.809
57546W        W29839  17.201  27.018  14.805
57547W        W29840  41.920  44.360   4.630
57548W        W29841  39.468  42.495  13.881
57549W        W29842   1.459  11.676   3.700
57550W        W29843   9.176  26.027  10.987
57551W        W29844  19.544  13.724  13.529
57552W        W29845  41.915   4.780   0.440
57553W        W29846  39.928   3.913   4.769
57554W        W29847  14.122  38.394   1.283
57555W        W29848  10.209  14.170  11.896
57556W        W29849  29.657  15.118   0.383
57557W        W29850  25.072  19.060   0.866
57558W        W29851  32.583  39.316  14.288
57559W        W29852  23.000  36.446  13.993
57560W        W29853   2.250  43.322  13.530
57561W        W29854  29.653   6.903  11.505
57562W        W29855  38.881  17.564  11.860
57563W        W29856  42.916  33.578   0.731
57564W        W29857  24.091  29.573  12.415
57565W        W29858  15.675   5.803  13.533
57566W        W29859  42.492  22.648  14.935
57567W        W29860  19.746  44.780  11.379
57568W        W29861  27.061  20.651  12.950
57569W        W29862  44.772  39.343  12.858
57570W        W29863  31.458  39.409   0.360
57571W        W29864  34.104  28.668   4.601
57572W        W29865  27.658  28.182   1.700
57573W        W29866  31.405  35.053  11.057
57574W        W29867   6.361  11.143  11.875
57575W        W29868  40.346   7.341   3.370
57576W        W29869  42.381   5.253  14.837
57577W        W29870   5.250  29.575  14.897
57578W        W29871  36.357  35.464  11.551
57579W        W29872  11.236  30.066   4.624
57580W        W29873  19.617  36.418  13.017
57581W        W29874  36.519  33.451  14.794
57582W        W29875  31.541  36.558  12.994
57583W        W29876  39.002  35.375   0.812
57584W        W29877  22.509  35.062   1.861
57585W        W29878  24.020  18.673  11.397
57586W        W29879  44.484   4.384  10.493
57587W        W29880  10.212  44.279   4.744
57588W        W29881  42.903   7.683   1.807
57589W        W29882  42.956  32.036  12.979
57590W        W29883  39.320  31.532   4.259
57591W        W29884  33.425  20.594   0.912
57592W        W29885  20.190  31.608   1.872
57593W        W29886   4.271  44.952   4.607
57594W        W29887  32.528  27.940  10.974
57595W        W29888  30.076  16.217   0.907
57596W        W29889  13.204  19.140  10.448
57597W        W29890  42.812   6.374   3.707
57598W        W29891  35.569  21.017  10.487
57599W        W29892  37.903  36.086  14.822
57600W        W29893  10.353  26.953   3.266
57601W        W29894  19.711   2.346   3.864
57602W        W29895  11.140  15.220  13.929
57603W        W29896   5.253  22.183  14.777
57604W        W29897  11.694  27.679  10.541
57605W        W29898  18.678   2.926  14.840
57606W        W29899   3.272  34.587  13.854
57607W        W29900  29.517  41.885  10.957
57608W        W29901  39.505  10.749   2.773
57609W        W29902  30.161  31.063   4.264
57610W        W29903   7.748  31.473   0.362
57611W        W29904  27.471  24.212  10.557
57612W        W29905  19.179  41.982  11.999
57613W        W29906  10.292  14.808   3.850
57614W        W29907  44.336  31.004  13.919
57615W        W29908   2.394  30.992   2.898
57616W        W29909  30.558  22.077   2.682
57617W        W29910   1.739  14.179  12.933
57618W        W29911  18.089  41.967   1.841
57619W        W29912  24.121  44.299  14.975
57620W        W29913   6.690   3.418   3.301
57621W        W29914  39.341   4.420  14.403
57622W        W29915  17.283  17.626   1.224
57623W        W29916  31.103  44.405   0.458
57624W        W29917  42.862   0.379   5.688
57625W        W29918  33.106  44.938  11.937
57626W        W29919  10.378  11.180  12.831
57627W        W29920  33.443  18.785  14.285
57628W        W29921  21.101  29.461   2.322
57629W        W29922  26.096   8.362  12.011
57630W        W29923  39.898   9.829   1.720
57631W        W29924  42.406  13.648  14.855
57632W        W29925  15.738  13.159   4.685
57633W        W29926  10.858  23.229  11.028
57634W        W29927  25.211   7.412  11.115
57635W        W29928  22.093  22.538   4.613
57636W        W29929  37.046  39.553  13.040
57637W        W29930   6.821  39.394  11.934
57638W        W29931  18.551  16.756   0.739
57639W        W29932  17.595  23.636   2.799
57640W        W29933  31.064  12.233  13.415
57641W        W29934   4.415  43.458  11.598
57642W        W29935  22.514  29.174   3.152
57643W        W29936   3.237  23.172   1.224
57644W        W29937  13.754  36.952   4.218
57645W        W29938  43.771  44.811   4.128
57646W        W29939  36.569  12.131   1.249
57647W        W29940  11.197   9.806   3.268
57648W        W29941  23.627  13.251  11.878
57649W        W29942   1.779   0.356   3.198
57650W        W29943   1.449   6.216   0.359
57651W        W29944   6.188  18.605   4.304
57652W        W29945   3.757  12.328  12.422
57653W        W29946  21.259  28.106   2.828
57654W        W29947  35.082  43.973   4.732
57655W        W29948  26.593  14.246   3.302
57656W        W29949  42.990   4.750   4.170
57657W        W29950  36.461  27.114  14.387
57658W        W29951   1.427  19.261   0.450
57659W        W29952  12.680  27.564  12.912
57660W        W29953  29.627  33.975   3.808
57661W        W29954  26.484  19.640   4.286
57662W        W29955  34.445   7.410   1.915
57663W        W29956   5.804   0.749  12.883
57664W        W29957  44.784   8.404   0.753
57665W        W29958  34.389  24.210  12.507
57666W        W29959  25.607   9.184   4.787
57667W        W29960  25.507  39.346   0.810
57668W        W29961   7.303  39.018  14.344
57669W        W29962  28.435  36.900  13.398
57670W        W29963  24.083  41.424  11.390
57671W        W29964   3.241  15.260   3.736
57672W        W29965   6.858  13.135   1.884
57673W        W29966  30.084  23.510   3.306
57674W        W29967  15.147  17.718  13.519
57675W        W29968   4.869  18.133   3.155
57676W        W29969  32.618  16.598  14.862
57677W        W29970   8.713  34.112  14.283
57678W        W29971  14.222   8.845  13.402
57679W        W29972  29.053  26.040   1.428
57680W        W29973  10.852   8.360  14.031
57681W        W29974  24.549  27.565   2.335
57682W        W29975  16.715  17.129   3.852
57683W        W29976   3.922   1.294  10.447
57684W        W29977  38.526   0.343  11.503
57685W        W29978  35.369  22.016  11.610
57686W        W29979   4.413  14.146  10.990
57687W        W29980  30.613  26.685  10.919
57688W        W29981  24.549   6.894  14.386
57689W        W29982  17.215   7.183  10.447
57690W        W29983   1.425  21.690  14.511
57691W        W29984  32.119   9.267  11.051
57692W        W29985  39.330  14.680  12.044
57693W        W29986   4.764   7.744  10.922
57694W        W29987  42.454  35.554   0.934
57695W        W29988   6.722   9.682  14.766
57696W        W29989  20.713  19.767   1.361
57697W        W29990  20.217  12.689  10.598
57698W        W29991  41.846  25.178  10.087
57699W        W29992  27.030   2.291   1.892
57700W        W29993  24.540  20.729   0.275
57701W        W29994  40.444  40.933  10.552
57702W        W29995  34.563   8.289   0.352
57703W        W29996  11.254   4.888   1.298
57704W        W29997   7.189  35.446   3.266
57705W        W29998   9.829   2.899   4.134
57706W        W29999  11.150   6.877  14.385
57707W        W30000  27.197  25.166  11.382
57708W        W30001  26.082  42.408  13.059
57709W        W30002  17.773  29.571   3.752
57710W        W30003  34.006  26.614   1.715
57711W        W30004  41.020  10.714   0.781
57712W        W30005  42.345  24.115   3.258
57713W        W30006   6.730  31.962   2.851
57714W        W30007  35.012  37.950  11.002
57715W        W30008  28.067  17.069  11.950
57716W        W30009  30.653  40.007  14.768
57717W        W30010  21.554  28.449  13.879
57718W        W30011  18.059  24.059   5.318
57719W        W30012  22.716  33.019  10.425
57720W        W30013  37.914  13.197  14.406
57721W        W30014  34.433  21.260   0.260
57722W        W30015  30.417   6.687  10.454
57723W        W30016  33.916   7.745   0.330
57724W        W30017  13.841  12.234   3.152
57725W        W30018   8.705  28.185   3.237
57726W        W30019  41.792   2.284   1.843
57727W        W30020   8.757  33.906  13.842
57728W        W30021  31.119  43.950   3.374
57729W        W30022  27.666  31.622  14.307
57730W        W30023  26.005  28.448   2.277
57731W        W30024  19.133  28.147   2.747
57732W        W30025   4.903  18.603  11.417
57733W        W30026  10.157  35.084   0.443
57734W        W30027  16.238  20.544  11.888
57735W        W30028   5.717  32.456   4.671
57736W        W30029  37.397   0.798   1.266
57737W        W30030  26.500  25.008   2.359
57738W        W30031  34.525   5.199  11.468
57739W        W30032  39.487   3.750   2.678
57740W        W30033  23.034  35.014  11.511
57741W        W30034   4.932  43.507  10.432
57742W        W30035  36.440  23.506   1.246
57743W        W30036  43.322  20.045   1.754
57744W        W30037  20.226   9.866  12.026
57745W        W30038  25.006  13.122   2.249
57746W        W30039   0.337   3.717   0.739
57747W        W30040   9.832  21.566  14.305
57748W        W30041   9.182  43.416   1.281
57749W        W30042   9.870  26.033   4.126
57750W        W30043  41.012  17.723  11.050
57751W        W30044  41.512  29.549   3.355
57752W        W30045   8.814  14.094   9.961
57753W        W30046  25.089  15.803  10.993
57754W        W30047   4.797  39.877   0.288
57755W        W30048  27.598  31.961  11.445
57756W        W30049  16.301   3.449   4.233
57757W        W30050   1.786  22.163  14.431
57758W        W30051  14.770  32.047  12.519
57759W        W30052  29.946  13.764  14.925
57760W        W30053   3.272   7.734   1.324
57761W        W30054   4.912   3.877  10.624
57762W        W30055  41.302  30.073  11.109
57763W        W30056  11.718   6.238  13.422
57764W        W30057   9.309   8.237  10.599
57765W        W30058  35.864  21.610  12.501
57766W        W30059   9.722  41.510   3.154
57767W        W30060   2.230  42.367  11.014
57768W        W30061  35.441  24.212  14.018
57769W        W30062  31.038  27.686   0.730
57770W        W30063  19.763  27.493  11.583
57771W        W30064  41.395  33.524   1.753
57772W        W30065  30.636   0.946   0.928
57773W        W30066  12.184  30.474  13.058
57774W        W30067  14.671  13.698  11.011
57775W        W30068  13.799   8.871  11.587
57776W        W30069   5.265  42.793   3.375
57777W        W30070  33.025  44.956   3.299
57778W        W30071  14.605  10.845  10.888
57779W        W30072  33.086  40.415  12.090
57780W        W30073  36.405  13.150  11.406
57781W        W30074   0.787  38.538  11.938
57782W        W30075  22.645  32.493  14.899
57783W        W30076   9.171   8.732  14.872
57784W        W30077  43.301  42.390   1.713
57785W        W30078  40.023   8.200  10.440
57786W        W30079  24.131  37.452   2.346
57787W        W30080  26.608  26.983   1.854
57788W        W30081   2.395  42.354   4.329
57789W        W30082  18.733  11.824  13.418
57790W        W30083  28.038   9.672  10.603
57791W        W30084   4.850   4.941  14.966
57792W        W30085  29.125  11.341   2.338
57793W        W30086  21.083   6.699   1.242
57794W        W30087  43.323  20.603  11.097
57795W        W30088  15.595  40.843   4.129
57796W        W30089   7.828  19.554   1.871
57797W        W30090  33.880  32.496   1.289
57798W        W30091  42.322  32.993  14.960
57799W        W30092  32.565  33.033  13.908
57800W        W30093  36.457  28.949  13.349
57801W        W30094  36.966  17.104   4.239
57802W        W30095  24.190  19.685   3.846
57803W        W30096  24.630   6.190   3.215
57804W        W30097  16.189  11.662  12.991
57805W        W30098  26.486  42.909   5.248
57806W        W30099  20.147  44.993  11.876
57807W        W30100  21.021  10.282  11.012
57808W        W30101  19.706   7.336  14.330
57809W        W30102   0.790  24.713   2.266
57810W        W30103  44.332   2.414  14.475
57811W        W30104  42.776   6.845  13.822
57812W        W30105  20.107  40.308   2.274
57813W        W30106  25.098   0.792   3.241
57814W        W30107  27.518  26.067  14.485
57815W        W30108   3.448   9.782  12.351
57816W        W30109  14.795  35.600   1.311
57817W        W30110   9.196  33.942  13.435
57818W        W30111   5.757   8.870  12.572
57819W        W30112  26.513  30.467  13.445
57820W        W30113  41.003  16.087  13.063
57821W        W30114  23.109  41.966   3.280
57822W        W30115  18.688  24.008  11.981
57823W        W30116  41.373  39.053   9.927
57824W        W30117  11.649  20.717   2.832
57825W        W30118  32.117   6.693   4.272
57826W        W30119   3.728  41.534  14.924
57827W        W30120   7.738   3.916  13.000
57828W        W30121  43.365  41.009   2.739
57829W        W30122   2.871   8.361   4.609
57830W        W30123   5.773   7.911  11.434
57831W        W30124   1.350   7.235   2.778
57832W        W30125   7.378  37.061   4.817
57833W        W30126  25.579  10.754  14.365
57834W        W30127   2.786  33.096  13.971
57835W        W30128   1.288  42.010  14.783
57836W        W30129  21.749   2.951  11.885
57837W        W30130  44.821  23.730   3.813
57838W        W30131  38.488  34.998   0.438
57839W        W30132  35.502  27.183   2.674
57840W        W30133  16.316  27.629  10.544
57841W        W30134  24.087   1.884   1.878
57842W        W30135  30.493  19.161  14.002
57843W        W30136  30.992  28.583   4.698
57844W        W30137  31.142  24.025  11.545
57845W        W30138  14.148  23.710  14.374
57846W        W30139  10.205  12.274   2.796
57847W        W30140  27.582  42.375  11.871
57848W        W30141  15.203  41.932  12.347
57849W        W30142   7.677  42.517  13.516
57850W        W30143  38.479  32.067   0.393
57851W        W30144  13.300  20.668   1.885
57852W        W30145  38.457  31.079   2.263
57853W        W30146  15.130  22.567  14.000
57854W        W30147   5.791  21.717   1.922
57855W        W30148  21.074  16.723   4.296
57856W        W30149  34.587  18.712  11.014
57857W        W30150  22.701  18.237   0.383
57858W        W30151   7.910  28.164  13.002
57859W        W30152  23.126   7.885  12.354
57860W        W30153  18.739  42.399  12.966
57861W        W30154  24.520  16.612  13.547
57862W        W30155  27.093  26.691  10.979
57863W        W30156  39.913  13.769   4.215
57864W        W30157  33.044  40.496   1.761
57865W        W30158  27.127  19.778   0.813
57866W        W30159   8.218  24.164  14.908
57867W        W30160   7.779  13.696  13.478
57868W        W30161  30.987  17.794   3.246
57869W        W30162  22.230  16.806   3.331
57870W        W30163  31.984   2.252   1.218
57871W        W30164  39.420   6.395  13.539
57872W        W30165   3.395  42.992   3.661
57873W        W30166  30.967   0.988  10.623
57874W        W30167  40.907  19.608  12.478
57875W        W30168  36.033  10.855   3.747
57876W        W30169  27.657  27.501   4.717
57877W        W30170  23.008  15.325  11.917
57878W        W30171  11.234  20.548  12.942
57879W        W30172  20.682   5.373   4.198
57880W        W30173   3.334  28.453  12.339
57881W        W30174   5.874  38.412   4.283
57882W        W30175  30.498   1.881  14.413
57883W        W30176  29.479  34.477   2.883
57884W        W30177   4.890  14.658  10.426
57885W        W30178  33.541  23.219   3.848
57886W        W30179  35.531  42.928   2.703
57887W        W30180  11.801  27.015  13.485
57888W        W30181  44.952   0.384   1.787
57889W        W30182  34.485   6.715  12.966
57890W        W30183   2.759  11.331  14.797
57891W        W30184   1.351   5.241  10.577
57892W        W30185  14.690  41.345  14.401
57893W        W30186  27.497  18.291   4.661
57894W        W30187  41.828  41.897   2.851
57895W        W30188  27.941  25.705   3.672
57896W        W30189  15.194   6.864  14.777
57897W        W30190  38.357  29.927   0.478
57898W        W30191  26.008  20.184  13.515
57899W        W30192  35.011  20.241  12.541
57900W        W30193  42.344  34.543   1.317
57901W        W30194   3.370  19.284   1.816
57902W        W30195  26.463  32.506   4.257
57903W        W30196  24.550  37.372   9.950
57904W        W30197  18.557  18.646  11.917
57905W        W30198  12.673  31.905   1.307
57906W        W30199   3.896  42.302  14.351
57907W        W30200  17.166  26.131   0.872
57908W        W30201  18.723  33.083   5.175
57909W        W30202   4.708  14.104   1.227
57910W        W30203  14.624  31.605  10.620
57911W        W30204  42.525  29.958   3.710
57912W        W30205  24.618  19.723  13.389
57913W        W30206  44.279  41.929  12.830
57914W        W30207  15.691  34.890   1.250
57915W        W30208  34.903   8.389   2.731
57916W        W30209  17.138  23.514   3.720
57917W        W30210  31.148  29.467   2.900
57918W        W30211  27.971  25.523  12.989
57919W        W30212   3.330  40.440  14.404
57920W        W30213  33.515  18.701   1.916
57921W        W30214   1.303  37.966  13.917
57922W        W30215  34.395   0.925  10.461
57923W        W30216  44.809  37.404   1.850
57924W        W30217  39.392  40.956   4.772
57925W        W30218  21.184   1.402  13.506
57926W        W30219  37.359  19.187  10.582
57927W        W30220   5.792  10.819   3.654
57928W        W30221  44.901  25.158   0.898
57929W        W30222   7.384   8.368   3.661
57930W        W30223  30.477  30.061   0.887
57931W        W30224  20.611   4.719   0.854
57932W        W30225  41.839  12.317  13.819
57933W        W30226  30.442  17.226   3.860
57934W        W30227  44.866  35.110   0.330
57935W        W30228  21.182  38.917   3.720
57936W        W30229  41.488  17.137  12.880
57937W        W30230  14.261   1.750  10.542
57938W        W30231  36.448  44.914   1.330
57939W        W30232  12.640   3.773   4.782
57940W        W30233  37.540  14.127   0.861
57941W        W30234  38.453   2.457   2.322
57942W        W30235  14.239  18.684   4.191
57943W        W30236   4.754   6.295  13.535
57944W        W30237  32.977  15.201   0.483
57945W        W30238  37.555   3.428   4.201
57946W        W30239   4.913  26.038   3.366
57947W        W30240  20.714  17.574   1.766
57948W        W30241   6.375  23.990   1.822
57949W        W30242  31.100  10.776   3.803
57950W        W30243   4.254   5.880  10.593
57951W        W30244  27.539  42.808  11.867
57952W        W30245   9.843  25.963   2.248
57953W        W30246  31.922  36.024  10.591
57954W        W30247  34.967  32.017  14.934
57955W        W30248  37.520  15.641   4.739
57956W        W30249  35.012  21.044  13.348
57957W        W30250  31.582  31.013   4.235
57958W        W30251  11.171  16.693   3.644
57959W        W30252   2.411   3.281  13.034
57960W        W30253  28.474  27.153   1.924
57961W        W30254  22.082  32.081  10.643
57962W        W30255  34.965  19.089  13.003
57963W        W30256   4.417  29.662   0.470
57964W        W30257  34.022  35.985  12.876
57965W        W30258   7.251   6.308   1.367
57966W        W30259  37.854   1.323  14.843
57967W        W30260  35.591  27.952  11.873
57968W        W30261  41.294  43.350  11.601
57969W        W30262  24.527  16.129   0.406
57970W        W30263  38.832   0.461  13.944
57971W        W30264  30.006  39.023  14.368
57972W        W30265  11.308  43.275   4.307
57973W        W30266  11.182   7.859  12.356
57974W        W30267   4.746  36.542  11.445
57975W        W30268  42.827  44.856  13.490
57976W        W30269   5.281  18.111   2.278
57977W        W30270   6.193  24.184   4.606
57978W        W30271  28.150   6.723  12.431
57979W        W30272   0.441  19.212  12.464
57980W        W30273   0.447  33.012   3.651
57981W        W30274  16.235  25.139   1.824
57982W        W30275   4.777   1.949  13.373
57983W        W30276  26.674  20.733  14.294
57984W        W30277  19.588   9.373  11.059
57985W        W30278  27.676  24.062  13.801
57986W        W30279  21.258  10.360   4.129
57987W        W30280   5.192  35.010   2.835
57988W        W30281  21.065  22.035  10.156
57989W        W30282  19.217  28.602   0.867
57990W        W30283  13.333  18.151   3.650
57991W        W30284  38.990  39.836   3.849
57992W        W30285  32.430  21.064   3.156
57993W        W30286  40.873  41.027  10.419
57994W        W30287   9.793  21.025   2.278
57995W        W30288  22.636  29.087   2.361
57996W        W30289  17.709  10.846   2.232
57997W        W30290  36.537  25.179  13.824
57998W        W30291  38.887  14.757  13.486
57999W        W30292   6.397  17.763  13.993
58000W        W30293   2.833  17.136   2.792
58001W        W30294   3.344  36.888  11.498
58002W        W30295  32.112  17.126   2.782
58003W        W30296  21.234  13.247   4.119
58004W        W30297  38.026  22.218  13.417
58005W        W30298  37.457  26.628   2.793
58006W        W30299  16.740   1.935  12.523
58007W        W30300   1.931  13.614   1.346
58008W        W30301  12.217   5.198   1.448
58009W        W30302  31.573  42.325   0.417
58010W        W30303  42.498  31.616  12.890
58011W        W30304  11.648  23.662  11.439
58012W        W30305  20.673   8.393  14.021
58013W        W30306  25.214   8.266  11.044
58014W        W30307  25.607  23.501  12.980
58015W        W30308  20.629  28.165  13.544
58016W        W30309   5.742  29.526  10.978
58017W        W30310   6.269  16.622   2.216
58018W        W30311  15.629   2.339   4.635
58019W        W30312  37.831  26.613   9.963
58020W        W30313  41.927  33.889   0.399
58021W        W30314  29.077  37.058  11.911
58022W        W30315  16.266  27.594  13.928
58023W        W30316   3.913  30.972   1.838
58024W        W30317  41.486  26.646   4.338
58025W        W30318  13.839  34.405  14.303
58026W        W30319   1.468  21.250  12.444
58027W        W30320  29.443  19.616  14.918
58028W        W30321  27.105   6.720   0.744
58029W        W30322  44.497  25.564   2.347
58030W        W30323  23.219  15.206  11.501
58031W        W30324  27.942  30.467  14.900
58032W        W30325   0.897   5.252   1.451
58033W        W30326  23.055  19.702   0.845
58034W        W30327  15.663  18.116  10.605
58035W        W30328  41.394  26.953  11.392
58036W        W30329   6.806   3.731   4.128
58037W        W30330  28.931  24.606   0.449
58038W        W30331  43.315  29.628   3.182
58039W        W30332  29.158  43.021   3.707
58040W        W30333  17.228   4.217   0.863
58041W        W30334  22.135   6.920   1.864
58042W        W30335  25.483  19.143   4.773
58043W        W30336   5.812  34.102  11.529
58044W        W30337  27.647  32.456   3.850
58045W        W30338  30.005  25.673  11.490
58046W        W30339  34.558  10.684  10.980
58047W        W30340  29.630  43.419  10.499
58048W        W30341  10.345  16.288   3.163
58049W        W30342   2.786  20.709   1.849
58050W        W30343   4.313  12.310  10.545
58051W        W30344  20.662  39.893   3.831
58052W        W30345  18.160   7.376  10.439
58053W        W30346   3.743  41.297  14.453
58054W        W30347  30.640  27.186   1.451
58055W        W30348  14.814  21.107   4.224
58056W        W30349  28.990  30.474  14.461
58057W        W30350  10.802  38.825   2.703
58058W        W30351  39.925  22.553  14.319
58059W        W30352  12.227   5.307  12.537
58060W        W30353  27.969   5.419  10.990
58061W        W30354  42.339  11.314   4.188
58062W        W30355   3.728  40.499  14.401
58063W        W30356  12.665  40.923  11.120
58064W        W30357  24.012  19.173  10.998
58065W        W30358  27.453  29.122  11.027
58066W        W30359  35.097  19.163   1.253
58067W        W30360  18.108   6.738   4.339
58068W        W30361  41.429  20.551   3.658
58069W        W30362  41.408  15.274  14.945
58070W        W30363   1.745   5.437  14.495
58071W        W30364   9.760  41.416   0.353
58072W        W30365  12.782  22.572  14.325
58073W        W30366   8.893  28.011   0.436
58074W        W30367  37.040  42.514  10.477
58075W        W30368  39.991   4.389  11.509
58076W        W30369  22.226  35.993  14.286
58077W        W30370  44.325   5.346  13.891
58078W        W30371  39.324  12.350   2.287
58079W        W30372   9.194   2.924   3.355
58080W        W30373  18.644  22.135   1.302
58081W        W30374  29.001  44.351  13.321
58082W        W30375  39.371  36.978  11.127
58083W        W30376  30.509  32.585  12.436
58084W        W30377  43.813  29.484   4.182
58085W        W30378  27.012  30.994  14.848
58086W        W30379  10.656  36.994   0.288
58087W        W30380   6.234  41.850   2.767
58088W        W30381  35.595  17.622  12.869
58089W        W30382  26.642  27.472  11.097
58090W        W30383  36.381   6.255  14.435
58091W        W30384  22.221  43.777   1.377
58092W        W30385  43.804  36.466   4.341
58093W        W30386  36.084  37.575   3.338
58094W        W30387  21.133  28.183  12.903
58095W        W30388  29.634   9.352  12.898
58096W        W30389  29.987  37.554  11.587
58097W        W30390  29.102  24.169   5.176
58098W        W30391  19.762  37.399   1.377
58099W        W30392  43.289  41.954  13.446
58100W        W30393   1.799   9.812  11.127
58101W        W30394  17.200  21.031   5.084
58102W        W30395  17.588  29.054   3.831
58103W        W30396  40.923  17.260  11.426
58104W        W30397  30.070  42.784  10.644
58105W        W30398   9.880  29.443  13.372
58106W        W30399  30.105  28.622  10.450
58107W        W30400  33.538  35.905  12.354
58108W        W30401  25.168  23.228   4.715
58109W        W30402   4.736  24.152  12.549
58110W        W30403  44.807  27.536   2.809
58111W        W30404  23.029   9.182  10.607
58112W        W30405  30.921   6.284   1.346
58113W        W30406  18.614  11.266   4.164
58114W        W30407  25.970  39.988  14.778
58115W        W30408  18.568  15.180   2.417
58116W        W30409  23.129  14.809   1.795
58117W        W30410  12.757  12.828   1.886
58118W        W30411  27.638   4.739  12.519
58119W        W30412  12.259  23.704   1.911
58120W        W30413  21.655  39.443   4.769
58121W        W30414  21.020   6.388  12.904
58122W        W30415  15.701  42.472   0.965
58123W        W30416  28.972   5.728   1.212
58124W        W30417  10.689  37.941   0.946
58125W        W30418  20.731  14.707   2.835
58126W        W30419  40.333  40.979   1.304
58127W        W30420  34.538  21.601   1.214
58128W        W30421  41.896   5.368   2.744
58129W        W30422  16.204   2.438   0.292
58130W        W30423   2.400   9.647  13.363
58131W        W30424  35.454  23.016  11.931
58132W        W30425  24.037  19.684  12.875
58133W        W30426  42.398  44.387   2.872
58134W        W30427  21.637  16.737  14.490
58135W        W30428  26.127  17.711   0.352
58136W        W30429  35.095  40.902  14.488
58137W        W30430  20.697  22.109   3.631
58138W        W30431  13.813   4.898   0.952
58139W        W30432  43.895   3.411   1.377
58140W        W30433   3.246  24.583  11.871
58141W        W30434  33.988   8.833   2.349
58142W        W30435   9.861  25.027   4.771
58143W        W30436  43.966  22.135  12.458
58144W        W30437  41.472   1.415   5.626
58145W        W30438  26.065  31.935  14.830
58146W        W30439  29.096   4.853  10.544
58147W        W30440  27.007   1.394  12.556
58148W        W30441   9.367  44.912   0.412
58149W        W30442  21.645  10.794  13.040
58150W        W30443   3.728  20.605   1.924
58151W        W30444   4.768  38.982   3.340
58152W        W30445  33.980   7.216  11.529
58153W        W30446  19.194   4.241  11.516
58154W        W30447  10.207  32.394   2.264
58155W        W30448  26.667  28.502   0.941
58156W        W30449  29.459  21.626   0.881
58157W        W30450  22.251  18.778   2.349
58158W        W30451  38.354  20.761  11.495
58159W        W30452   4.288  36.525   4.733
58160W        W30453  36.934  41.835  12.869
58161W        W30454   3.940   2.463  14.455
58162W        W30455  34.425   1.315   3.344
58163W        W30456  36.878  32.397  14.951
58164W        W30457  34.886  19.188  12.000
58165W        W30458   6.700  19.157  11.412
58166W        W30459   5.882   4.709   1.712
58167W        W30460  18.601  29.969   4.149
58168W        W30461  23.655   8.263   4.272
58169W        W30462  10.797  13.202  14.890
58170W        W30463  26.623  37.361  12.519
58171W        W30464   7.752  42.923   4.682
58172W        W30465  22.178  22.217   3.824
58173W        W30466  37.907   4.421  10.424
58174W        W30467  19.696  37.516  13.060
58175W        W30468  29.604   6.250  10.090
58176W        W30469   2.773  15.127   1.341
58177W        W30470  25.029  20.550  14.891
58178W        W30471   3.893   1.370   3.189
58179W        W30472  41.843   7.306  10.128
58180W        W30473   0.422  36.547  12.982
58181W        W30474   5.321   4.850  11.900
58182W        W30475  27.507  34.072   4.288
58183W        W30476  10.802  12.248   2.767
58184W        W30477  23.680  40.461  14.451
58185W        W30478  36.888  23.610   3.204
58186W        W30479  22.165  20.634   1.699
58187W        W30480  33.409   9.739   2.890
58188W        W30481  32.903   4.443   0.311
58189W        W30482  32.079  38.551   1.260
58190W        W30483  18.087   4.302  14.802
58191W        W30484   8.275  23.191  14.945
58192W        W30485  26.186  33.995   1.216
58193W        W30486  10.725  27.049   3.149
58194W        W30487  43.425  42.463   4.630
58195W        W30488  37.349   0.871  14.436
58196W        W30489   6.872  11.825   1.338
58197W        W30490   4.893   1.390  13.339
58198W        W30491   4.719   8.336   1.211
58199W        W30492  11.162  26.496   0.284
58200W        W30493  30.525  38.905  11.062
58201W        W30494  25.689   1.834  11.919
58202W        W30495  40.038  25.619  14.347
58203W        W30496  39.358   9.262   1.334
58204W        W30497  37.450  14.233  14.939
58205W        W30498  14.652  12.856  12.429
58206W        W30499  35.496   2.293  14.328
58207W        W30500   3.887  40.826   3.646
58208W        W30501   8.377  15.190   3.170
58209W        W30502  25.162  25.629   2.669
58210W        W30503  21.173  33.095   9.592
58211W        W30504   5.858  42.491   2.366
58212W        W30505   4.870  31.984   0.895
58213W        W30506  30.119  40.368   3.227
58214W        W30507  26.112   4.812  12.083
58215W        W30508   6.851  35.495  12.860
58216W        W30509  42.294  18.696   1.371
58217W        W30510  34.474  11.688  12.341
58218W        W30511   6.809  12.311  11.123
58219W        W30512  36.384  31.935   4.616
58220W        W30513   3.887  36.859   0.822
58221W        W30514  13.259  28.480  13.973
58222W        W30515  18.199   3.391   1.802
58223W        W30516  10.361  24.161   1.758
58224W        W30517  14.185  39.847   4.280
58225W        W30518  33.953  17.134  12.558
58226W        W30519  41.518  42.392   0.389
58227W        W30520  27.541  38.852   4.767
58228W        W30521  18.615   8.238  14.787
58229W        W30522  20.080  31.114   0.278
58230W        W30523  41.495   2.329   4.192
58231W        W30524  40.362  22.513   4.712
58232W        W30525  26.520  23.067  13.026
58233W        W30526  25.535  17.194   1.895
58234W        W30527   8.347   8.385   3.749
58235W        W30528  11.200  26.956  14.891
58236W        W30529  29.930  31.548  11.492
58237W        W30530  14.105  38.406  14.841
58238W        W30531  39.325  14.691   3.770
58239W        W30532  23.525   5.737   2.257
58240W        W30533  11.198   8.731   2.751
58241W        W30534  18.591  32.978  12.015
58242W        W30535   4.815   8.725  11.983
58243W        W30536  38.001  21.082  14.484
58244W        W30537  41.361  24.584  13.333
58245W        W30538  18.637   5.933  14.893
58246W        W30539  40.375   8.840   5.311
58247W        W30540  14.827   9.226  13.311
58248W        W30541  39.492  37.019   3.376
58249W        W30542   4.317  11.202   1.925
58250W        W30543  42.384  43.290   0.876
58251W        W30544  33.485  20.674  12.823
58252W        W30545   7.876   7.210  11.588
58253W        W30546  29.563  44.302  11.491
58254W        W30547  15.761   2.356   0.414
58255W        W30548  20.670  19.168   1.367
58256W        W30549  42.855  38.360  12.579
58257W        W30550  22.091  16.788  13.867
58258W        W30551  26.041   0.968  13.858
58259W        W30552  32.049   7.730   0.900
58260W        W30553  19.222   6.198   2.860
58261W        W30554  18.576  41.956   0.404
58262W        W30555  38.987   1.885  12.571
58263W        W30556   3.441  21.698   3.348
58264W        W30557  14.302   9.736  12.852
58265W        W30558  24.223  34.541   2.882
58266W        W30559  43.872  41.314   0.265
58267W        W30560  40.324  12.134   0.437
58268W        W30561  43.426  10.720   0.755
58269W        W30562  33.605   9.287  10.895
58270W        W30563  26.018   5.327   1.285
58271W        W30564  30.468  12.265   3.668
58272W        W30565   1.778  32.070  10.430
58273W        W30566  31.941  39.915   2.306
58274W        W30567  20.147   6.335   0.811
58275W        W30568  34.607  33.103  10.936
58276W        W30569  18.050  40.319   2.847
58277W        W30570  39.973  34.030   4.277
58278W        W30571   4.859  22.526   3.803
58279W        W30572  44.383  20.631  14.999
58280W        W30573   5.383  43.936  12.093
58281W        W30574  13.771  44.775  13.423
58282W        W30575  40.442  12.148  12.501
58283W        W30576   9.719  24.601  12.412
58284W        W30577  38.408   5.378   3.743
58285W        W30578  31.912   0.809  11.546
58286W        W30579  39.039  39.041  12.438
58287W        W30580  29.967  26.465   0.463
58288W        W30581  32.110  34.106  13.857
58289W        W30582  40.921  12.251  14.423
58290W        W30583  37.373  24.982  10.565
58291W        W30584  31.942  30.588  12.369
58292W        W30585  13.744   8.672   2.277
58293W        W30586  38.362  21.115   2.407
58294W        W30587   4.844  12.194  11.943
58295W        W30588   8.391   1.773   3.770
58296W        W30589  22.251  24.143  11.112
58297W        W30590  27.128  13.626  13.407
58298W        W30591  17.682  21.261   4.310
58299W        W30592  39.857  13.144   0.849
58300W        W30593  36.066  11.860   2.721
58301W        W30594   5.286   5.898  14.944
58302W        W30595   6.873  41.936  14.913
58303W        W30596  24.521   7.224  11.570
58304W        W30597  22.611  12.808  13.362
58305W        W30598  26.119  40.972   1.299
58306W        W30599  24.174  16.121  12.081
58307W        W30600  42.961   3.377   3.637
58308W        W30601  13.808  33.052  12.528
58309W        W30602   5.804  37.399   0.827
58310W        W30603  15.231  40.380  13.460
58311W        W30604  29.989  44.960  11.391
58312W        W30605   0.483  22.068  14.957
58313W        W30606  33.928  17.558  12.509
58314W        W30607   9.785   7.707   0.751
58315W        W30608  14.150  33.899  13.939
58316W        W30609  40.023  30.617   1.418
58317W        W30610  24.060  38.916   4.670
58318W        W30611  13.293  14.172  10.089
58319W        W30612  15.302  31.928   5.206
58320W        W30613  28.673   9.287  10.404
58321W        W30614  34.456   1.279   2.877
58322W        W30615  37.437   5.772  14.835
58323W        W30616   5.404  36.463  13.425
58324W        W30617   4.358  42.301  11.889
58325W        W30618   4.932  15.720  13.488
58326W        W30619  36.938  19.209   0.447
58327W        W30620   5.239   8.221   2.372
58328W        W30621   6.802  39.877  14.022
58329W        W30622   4.398  41.903   3.296
58330W        W30623  30.966  14.229  10.465
58331W        W30624  22.722   3.441  11.976
58332W        W30625  20.076   1.771  13.960
58333W        W30626  14.183  23.086  11.940
58334W        W30627  42.423  43.838   0.960
58335W        W30628  35.375  12.245   2.720
58336W        W30629  26.640  11.353  10.625
58337W        W30630   2.379  43.864   3.381
58338W        W30631   8.344  17.693   0.871
58339W        W30632  37.892  43.947  12.909
58340W        W30633  22.633  31.141  14.377
58341W        W30634  38.362  35.504   0.746
58342W        W30635  38.981  24.725  11.504
58343W        W30636   4.747  35.862   0.271
58344W        W30637   4.299   5.812  14.852
58345W        W30638  27.028  41.030  14.005
58346W        W30639  18.106   5.832  10.456
58347W        W30640  33.386   0.274   4.608
58348W        W30641  44.874  15.167   4.718
58349W        W30642  20.734   5.333   2.393
58350W        W30643  19.176  16.196   0.951
58351W        W30644  38.963   2.932   3.740
58352W        W30645  44.927  30.140   3.646
58353W        W30646  30.442  12.792  13.443
58354W        W30647  44.456  42.289   2.686
58355W        W30648   8.348  23.071  10.478
58356W        W30649  41.872  27.093  14.025
58357W        W30650  24.014  44.474   2.352
58358W        W30651  39.023  22.030   0.247
58359W        W30652  23.107  24.586  13.849
58360W        W30653  14.651  31.936   4.234
58361W        W30654  26.517  19.743  12.395
58362W        W30655  42.862  19.560  13.795
58363W        W30656  22.197   3.822   3.716
58364W        W30657  38.357   4.794  10.420
58365W        W30658  30.414  11.656  11.020
58366W        W30659  40.986  12.833   1.911
58367W        W30660  11.278  32.478   2.327
58368W        W30661   7.413  30.577  11.021
58369W        W30662   2.250  43.867  11.469
58370W        W30663  33.512  44.276   4.605
58371W        W30664  35.967  21.551   1.885
58372W        W30665  24.166   1.742  14.504
58373W        W30666  24.706  31.609   3.233
58374W        W30667  32.988  40.413  14.899
58375W        W30668  17.773  11.335  11.013
58376W        W30669  16.107   5.428  10.980
58377W        W30670  34.489  26.621  14.991
58378W        W30671  23.218   2.376   5.595
58379W        W30672  22.187   4.808   1.735
58380W        W30673   0.330  36.485   4.736
58381W        W30674  19.264   7.391  12.963
58382W        W30675  43.434  30.643   1.420
58383W        W30676  23.497  44.413   0.925
58384W        W30677  24.601  26.697   0.759
58385W        W30678   9.253   3.230  11.562
58386W        W30679  32.032  15.766  12.369
58387W        W30680   4.360   8.722  12.041
58388W        W30681  33.963  19.591  12.852
58389W        W30682  29.104   5.694  14.875
58390W        W30683  17.707  22.707   3.845
58391W        W30684  19.131  35.455  13.821
58392W        W30685  10.182  19.220   2.794
58393W        W30686  26.524  20.196   0.246
58394W        W30687  14.651  35.915   5.110
58395W        W30688  10.351  44.935   1.265
58396W        W30689  13.135  10.706   2.384
58397W        W30690  29.938  38.515  10.943
58398W        W30691  23.026  38.552  12.496
58399W        W30692  44.917  27.615   3.866
58400W        W30693  12.325  26.198   4.831
58401W        W30694  26.664  34.369   2.796
58402W        W30695  23.100  34.939  12.491
58403W        W30696  44.302  21.144  14.417
58404W        W30697  18.572  11.171   2.350
58405W        W30698  36.407  16.226   3.819
58406W        W30699   7.712  11.663   5.081
58407W        W30700  44.912  37.529  10.613
58408W        W30701  11.711  29.447  10.439
58409W        W30702  15.634  37.837  12.414
58410W        W30703  27.984  19.232  11.585
58411W        W30704  31.505  34.472  12.984
58412W        W30705  36.090  15.676  12.381
58413W        W30706  36.975  22.663   0.323
58414W        W30707  42.918  34.444  11.950
58415W        W30708  29.659  44.829   4.256
58416W        W30709  36.417  26.480  10.064
58417W        W30710  32.018  42.884  12.922
58418W        W30711   1.841  32.930  14.984
58419W        W30712  24.680  43.449  12.500
58420W        W30713  35.917  13.825  11.547
58421W        W30714  16.797   3.406   2.667
58422W        W30715  12.760  12.321  12.440
58423W        W30716   6.197   7.809  13.450
58424W        W30717  43.904   3.238   4.616
58425W        W30718  34.472  16.645  12.358
58426W        W30719   2.441  20.054  12.394
58427W        W30720   1.311  28.599   4.728
58428W        W30721   3.855  42.466  12.080
58429W        W30722   8.281   4.427   2.184
58430W        W30723   4.272   8.866  11.588
58431W        W30724  44.769  33.984   1.817
58432W        W30725   2.398  26.985  14.023
58433W        W30726  17.644  43.956  11.984
58434W        W30727  24.682  32.123   2.415
58435W        W30728  12.159  19.732   3.766
58436W        W30729  35.985   3.296   4.707
58437W        W30730  25.146  39.964  11.122
58438W        W30731  30.656  33.929  11.908
58439W        W30732  10.155  27.539  11.467
58440W        W30733  14.600  27.140  12.908
58441W        W30734  35.105   7.728   0.799
58442W        W30735  28.132  17.254   1.808
58443W        W30736  31.617  32.091  10.025
58444W        W30737   6.704  14.152  14.295
58445W        W30738  29.078  34.971   3.153
58446W        W30739  29.952  34.614  13.010
58447W        W30740   1.273  23.185  12.943
58448W        W30741  18.545   9.339   4.623
58449W        W30742   9.708   7.817   4.653
58450W        W30743  19.131  31.077  11.992
58451W        W30744  31.584  32.943   1.931
58452W        W30745   3.272  27.990  13.845
58453W        W30746  39.815   3.345   0.444
58454W        W30747  42.940  11.829  11.098
58455W        W30748  31.531   6.334  12.568
58456W        W30749  42.469  11.228  14.514
58457W        W30750   9.765  24.016  14.847
58458W        W30751  10.711  41.530   0.418
58459W        W30752  17.208  34.112   2.324
58460W        W30753  23.192  40.898  12.057
58461W        W30754  37.533  25.519  10.899
58462W        W30755  38.399   4.892   1.844
58463W        W30756  26.080  23.003   2.707
58464W        W30757  43.343  16.632   1.847
58465W        W30758  10.153  19.581  10.118
58466W        W30759  30.514  40.047  10.569
58467W        W30760  19.609   2.781   4.179
58468W        W30761  20.638  41.373  10.425
58469W        W30762  19.546  24.674  12.450
58470W        W30763   5.285  40.831   3.658
58471W        W30764   7.872   7.305   3.684
58472W        W30765  14.696  28.496  12.518
58473W        W30766  16.146   8.793   0.264
58474W        W30767  38.889  44.830   3.832
58475W        W30768   4.393  25.008   4.277
58476W        W30769  12.254  21.636  14.367
58477W        W30770  35.038  41.788   4.754
58478W        W30771   7.813  39.933   0.308
58479W        W30772  22.034  18.786  11.501
58480W        W30773  36.889  20.687  13.941
58481W        W30774  26.511  14.590   0.427
58482W        W30775   6.881   7.187  10.611
58483W        W30776  12.638  29.121   0.943
58484W        W30777  12.670  31.431  13.037
58485W        W30778   1.862   3.833  14.499
58486W        W30779   4.426  16.274   1.299
58487W        W30780  13.203  29.667   3.690
58488W        W30781  39.930   3.284   4.822
58489W        W30782  32.948  18.634   4.170
58490W        W30783  26.117  33.007  11.947
58491W        W30784  17.727  36.083   2.389
58492W        W30785   3.302  36.863  14.773
58493W        W30786  25.105  41.304   1.798
58494W        W30787   1.452  13.118  13.482
58495W        W30788  28.548  40.476   1.377
58496W        W30789   3.875  29.609  10.512
58497W        W30790  32.414  40.806  11.065
58498W        W30791  40.418  43.994  14.025
58499W        W30792  28.664  27.674   0.902
58500W        W30793  40.908  35.897   4.325
58501W        W30794   2.389   2.800   3.670
58502W        W30795  29.059  33.510  10.522
58503W        W30796   5.856   9.305  12.426
58504W        W30797  35.052   6.804   4.633
58505W        W30798  40.380  43.977  12.078
58506W        W30799  26.041  23.229  12.951
58507W        W30800  43.784   3.823  10.890
58508W        W30801  43.999  24.503   2.298
58509W        W30802  22.131  42.964  10.984
58510W        W30803  32.892   3.264  13.368
58511W        W30804   3.458  19.739  13.401
58512W        W30805  13.836  34.034  13.951
58513W        W30806   2.763  17.683  13.423
58514W        W30807   3.426  12.261  14.492
58515W        W30808   5.705  18.177  11.521
58516W        W30809  41.305  36.473  11.553
58517W        W30810   0.976  24.664  14.316
58518W        W30811  23.678  30.075   1.722
58519W        W30812  24.578  44.815   4.336
58520W        W30813  16.759  10.674   2.250
58521W        W30814  19.212  19.194   1.912
58522W        W30815  26.068  42.369   4.638
58523W        W30816  12.706  35.369  14.829
58524W        W30817  39.476  39.884  10.924
58525W        W30818   8.847   9.220  14.509
58526W        W30819  39.412   2.733   0.480
58527W        W30820  43.975  38.357   0.866
58528W        W30821   5.427  41.381   1.329
58529W        W30822  39.502  30.994   1.376
58530W        W30823  41.905   8.687   3.277
58531W        W30824   5.353  20.730  12.503
58532W        W30825  19.754   2.846  10.458
58533W        W30826  37.453  36.393  14.953
58534W        W30827   9.389  39.491   0.887
58535W        W30828  11.790   5.254   1.421
58536W        W30829  14.711   9.392   0.254
58537W        W30830  31.089   8.761   9.920
58538W        W30831  35.942   6.294  11.903
58539W        W30832  23.240  41.412   2.230
58540W        W30833  20.758  22.037  14.384
58541W        W30834  15.227  18.734  11.858
58542W        W30835  31.959   4.809  13.498
58543W        W30836   4.920  13.116   1.895
58544W        W30837  16.169  39.481  10.957
58545W        W30838  13.722  17.793  14.501
58546W        W30839   3.881  22.028  12.407
58547W        W30840   7.413   9.300  13.390
58548W        W30841  35.054  35.014   2.204
58549W        W30842  33.608  22.594   3.783
58550W        W30843  21.688  35.491  13.973
58551W        W30844  27.560  32.610  13.477
58552W        W30845  42.982  21.042   2.876
58553W        W30846  42.831   6.295   2.246
58554W        W30847  22.690  14.732  13.952
58555W        W30848  11.754  13.204   1.777
58556W        W30849  13.672   7.864  12.396
58557W        W30850  44.003  26.155   0.918
58558W        W30851  38.952   3.875  11.555
58559W        W30852  15.646  39.011  12.470
58560W        W30853  22.533  28.450   3.640
58561W        W30854  39.984  42.783   2.763
58562W        W30855   9.156  35.926   0.305
58563W        W30856   8.380  14.701  11.554
58564W        W30857   9.156  25.171  11.508
58565W        W30858  13.330  17.644   4.701
58566W        W30859  25.127   4.222   5.135
58567W        W30860  34.907   8.899   5.124
58568W        W30861  15.296  35.521   3.297
58569W        W30862   6.226  40.994  11.572
58570W        W30863  19.612   0.802   3.331
58571W        W30864  11.762  44.928   1.765
58572W        W30865   7.415   1.262  12.029
58573W        W30866  12.762  10.184  11.438
58574W        W30867  36.372   9.315   3.782
58575W        W30868  27.637  33.444   1.804
58576W        W30869  34.109   0.448  12.408
58577W        W30870   9.719  44.885  13.865
58578W        W30871  43.966  36.916  13.335
58579W        W30872   8.785  29.998   3.642
58580W        W30873  15.137  23.560   3.188
58581W        W30874  18.054  43.423   2.712
58582W        W30875   0.416  23.079  13.027
58583W        W30876  40.037   2.814   2.378
58584W        W30877  43.792  26.613   3.244
58585W        W30878  38.436  25.481   3.862
58586W        W30879  17.797   4.206  11.402
58587W        W30880  14.159  30.607   1.924
58588W        W30881  41.990  23.008   0.454
58589W        W30882  35.973  11.624   0.399
58590W        W30883  22.037  27.615   2.704
58591W        W30884  35.510   3.712  14.338
58592W        W30885  36.039  18.053  12.918
58593W        W30886  42.482  13.311   3.348
58594W        W30887  19.052  13.224   3.756
58595W        W30888  14.216   4.887   2.862
58596W        W30889   9.810  39.510  13.428
58597W        W30890  36.912  31.629  10.924
58598W        W30891  36.445   0.778   2.204
58599W        W30892   4.207  43.478   3.314
58600W        W30893  33.530  24.189  12.895
58601W        W30894  27.639  24.004  14.329
58602W        W30895   0.316  41.882  14.914
58603W        W30896  22.196  16.089   4.250
58604W        W30897  15.302   0.978  11.909
58605W        W30898   1.746  12.636   4.238
58606W        W30899  36.988   6.228   3.669
58607W        W30900  11.648  32.396   1.781
58608W        W30901  15.745  15.781   4.642
58609W        W30902  43.954  23.520  13.483
58610W        W30903  35.012  20.643   0.789
58611W        W30904  19.568   3.418  10.538
58612W        W30905  32.132  44.918  13.452
58613W        W30906  10.740  18.773   3.163
58614W        W30907   5.405  40.988   3.369
58615W        W30908  36.948  17.556  11.578
58616W        W30909  18.755  10.250   2.287
58617W        W30910  32.064   8.742  10.925
58618W        W30911   3.375  43.336   0.878
58619W        W30912   0.388   8.760   4.211
58620W        W30913  42.965  37.470  12.360
58621W        W30914  10.238  33.519  12.483
58622W        W30915   9.151  41.904  11.116
58623W        W30916  38.402  16.155   0.443
58624W        W30917   3.783  24.496   2.713
58625W        W30918   1.252  42.433  14.396
58626W        W30919   1.320  23.622   2.796
58627W        W30920   4.250  36.474   1.900
58628W        W30921  28.126  44.815   4.746
58629W        W30922  44.452  36.944  12.851
58630W        W30923  10.765  44.953  14.514
58631W        W30924  12.292   9.255  14.407
58632W        W30925  29.588  42.845   0.843
58633W        W30926  39.845  33.497   1.912
58634W        W30927  37.528  34.085   2.339
58635W        W30928   7.739  14.653  14.888
58636W        W30929   7.387  35.507  14.828
58637W        W30930  41.005  40.442  10.950
58638W        W30931  37.580  14.285   0.274
58639W        W30932  16.808  21.621  10.429
58640W        W30933  36.450  35.965  14.890
58641W        W30934  35.923  42.392   2.379
58642W        W30935  27.160  11.714  12.525
58643W        W30936  44.861  32.055  12.915
58644W        W30937  13.302  30.479   2.398
58645W        W30938   5.726  29.033   0.774
58646W        W30939  43.480  26.172   1.275
58647W        W30940  25.220  19.635  12.096
58648W        W30941   2.947  33.093   1.795
58649W        W30942  33.038  28.547  12.474
58650W        W30943  43.883  11.211   4.688
58651W        W30944  44.827   1.969   0.918
58652W        W30945   0.775   2.305  12.413
58653W        W30946  26.101  38.358   2.815
58654W        W30947   2.837  11.163  13.326
58655W        W30948  16.218   9.284   2.242
58656W        W30949  29.144  44.935  12.021
58657W        W30950  20.183   6.235   2.837
58658W        W30951  43.813  14.816   3.298
58659W        W30952  32.482   5.290   3.826
58660W        W30953  28.033  32.404  14.905
58661W        W30954  27.452  17.182  14.436
58662W        W30955  31.023  13.634  13.518
58663W        W30956  29.057  34.465  13.836
58664W        W30957   2.946  21.205   2.367
58665W        W30958   3.894  15.292  11.592
58666W        W30959   3.934  31.066  14.334
58667W        W30960  28.101  19.568   3.662
58668W        W30961  16.258  12.647   3.837
58669W        W30962   0.453  27.133   2.202
58670W        W30963  28.449  25.024  14.400
58671W        W30964  34.017  33.467   2.346
58672W        W30965  32.529  23.198   4.230
58673W        W30966  19.182   7.275   1.798
58674W        W30967  38.937  37.517   5.146
58675W        W30968  35.927   2.738  11.981
58676W        W30969  19.115  44.993  10.435
58677W        W30970  34.576  27.507   0.406
58678W        W30971  28.655  35.500   1.250
58679W        W30972  40.882   3.410   0.912
58680W        W30973   0.277  16.305  14.879
58681W        W30974  28.520  13.831   4.144
58682W        W30975  41.300  42.429  12.038
58683W        W30976  31.423   0.381   2.416
58684W        W30977  34.019   9.690   1.289
58685W        W30978  15.146  40.364  13.036
58686W        W30979  14.111  13.726  10.927
58687W        W30980  12.283  31.913  10.480
58688W        W30981  22.605  12.220   2.853
58689W        W30982   4.372  28.450   4.670
58690W        W30983   4.318  43.486  13.884
58691W        W30984  16.247   0.851   2.270
58692W        W30985  41.966  26.166   0.321
58693W        W30986  42.873  18.707   5.180
58694W        W30987   9.280  35.965  11.899
58695W        W30988  42.824  38.898   0.857
58696W        W30989  36.924  37.464  14.915
58697W        W30990   2.913  42.296  14.839
58698W        W30991  33.903  13.175   2.802
58699W        W30992   2.277  35.101   1.338
58700W        W30993   3.866  39.971   0.894
58701W        W30994  30.073  24.209   2.300
58702W        W30995  37.499  25.087   0.795
58703W        W30996  31.645  26.158  10.477
58704W        W30997  12.775  42.856   1.444
58705W        W30998  23.515  13.238   0.834
58706W        W30999   8.797  38.008   3.638
58707W        W31000  24.723  24.513   0.740
58708W        W31001  41.006  20.651   4.732
58709W        W31002  28.624  15.739   0.384
58710W        W31003  14.606  20.604  11.007
58711W        W31004   3.433  23.090   0.472
58712W        W31005  36.364  11.204   0.799
58713W        W31006  35.466  33.594  10.505
58714W        W31007   6.808  20.678   3.190
58715W        W31008  20.716  30.037   1.439
58716W        W31009  22.073   7.373  13.382
58717W        W31010  41.996  12.124   4.795
58718W        W31011   8.863  17.064  14.975
58719W        W31012  39.985  20.073   2.408
58720W        W31013   8.887  27.970   4.178
58721W        W31014  20.740  33.520  10.506
58722W        W31015  23.076  30.545  10.892
58723W        W31016  18.277  42.359   1.758
58724W        W31017  11.634  18.113  12.924
58725W        W31018  11.245   6.414  10.574
58726W        W31019  44.336  21.039  13.999
58727W        W31020  39.547  14.660  12.856
58728W        W31021  16.129  27.688   1.842
58729W        W31022  15.600  11.644   4.196
58730W        W31023  15.676   6.366  11.374
58731W        W31024  14.703  24.974   2.692
58732W        W31025   8.743  12.623  12.418
58733W        W31026  36.037  20.546   0.752
58734W        W31027   6.842  20.255   2.795
58735W        W31028  29.577  40.456   5.130
58736W        W31029  33.604  32.101   4.762
58737W        W31030  36.072  26.695  12.526
58738W        W31031   5.361  21.225  13.047
58739W        W31032  42.321  37.864  14.759
58740W        W31033  38.021  17.621  14.979
58741W        W31034  21.055  16.153  12.875
58742W        W31035  16.189   5.342   1.406
58743W        W31036  14.264   3.352  12.947
58744W        W31037   6.421  34.952   3.672
58745W        W31038  19.562  34.994   2.682
58746W        W31039  32.456  21.110  12.072
58747W        W31040  41.509  43.802   4.717
58748W        W31041  16.270  29.538   2.357
58749W        W31042  34.888  14.789  10.926
58750W        W31043  17.256  19.052  13.359
58751W        W31044  17.294  22.655   4.219
58752W        W31045  39.822  37.971   0.384
58753W        W31046  44.958  21.102   0.436
58754W        W31047  44.461  22.532  11.964
58755W        W31048  10.154  21.587   3.838
58756W        W31049  31.923   5.351   4.759
58757W        W31050  37.511  19.717   1.743
58758W        W31051  29.662  18.713   2.824
58759W        W31052  42.843  32.966   1.807
58760W        W31053  12.121  20.677   0.904
58761W        W31054  30.545  11.224   2.211
58762W        W31055   6.749   5.370   3.810
58763W        W31056  15.637  38.471   2.323
58764W        W31057  29.981  11.842  13.524
58765W        W31058  26.198  44.494   0.476
58766W        W31059   1.926   9.673   4.221
58767W        W31060  19.124  31.925  10.950
58768W        W31061  25.204  41.428   2.764
58769W        W31062  33.597   4.898  10.961
58770W        W31063  38.340  27.588  12.369
58771W        W31064  10.352  15.700  13.924
58772W        W31065   3.366   9.343   1.374
58773W        W31066  26.142  34.895   2.888
58774W        W31067  28.041  41.334  13.982
58775W        W31068  31.998  21.237   5.113
58776W        W31069  41.463  15.184  13.482
58777W        W31070   6.836   0.768  14.304
58778W        W31071   2.937  18.092   3.729
58779W        W31072  40.339  17.084   1.285
58780W        W31073   8.663  17.570  13.910
58781W        W31074   5.410  32.905  12.404
58782W        W31075   3.281  39.481  13.021
58783W        W31076  10.184  33.439  10.460
58784W        W31077  18.067  11.743  13.959
58785W        W31078  36.934  35.964   0.737
58786W        W31079   2.802  18.583   3.292
58787W        W31080  25.628  37.530  12.564
58788W        W31081   6.287  16.658   1.775
58789W        W31082  29.668  29.635  12.920
58790W        W31083  25.026   1.876   4.697
58791W        W31084   0.362  36.896   3.310
58792W        W31085  24.035  34.067   2.772
58793W        W31086  21.137  19.115  14.960
58794W        W31087   7.203  13.779   3.668
58795W        W31088  23.708   8.381  11.890
58796W        W31089  21.230  15.725  13.041
58797W        W31090  16.801  27.446  14.787
58798W        W31091  29.095   9.746   4.349
58799W        W31092   1.263   0.442   1.704
58800W        W31093  42.848  29.965  13.833
58801W        W31094  22.066  41.038  14.945
58802W        W31095   0.838  34.386  12.341
58803W        W31096  40.990  28.629  11.548
58804W        W31097  23.582   2.899  11.001
58805W        W31098   6.204   1.739   4.309
58806W        W31099  15.700   5.335   5.131
58807W        W31100  39.406  26.082   0.457
58808W        W31101  22.715  23.498  11.863
58809W        W31102  28.988  16.799  13.509
58810W        W31103  35.088  12.765  12.947
58811W        W31104   1.246  27.628  10.638
58812W        W31105  38.833  44.965  12.463
58813W        W31106  32.519  43.438  13.387
58814W        W31107  31.928  40.881   3.378
58815W        W31108  22.562   8.383   3.822
58816W        W31109  40.941  17.792  11.445
58817W        W31110  25.508  21.105   1.768
58818W        W31111  28.645  18.608  11.534
58819W        W31112  15.782  22.246   5.148
58820W        W31113  21.650  33.491   1.751
58821W        W31114  24.508  39.465  14.917
58822W        W31115  26.687  39.363  10.630
58823W        W31116  25.536  20.710  14.491
58824W        W31117   2.804  40.367  11.409
58825W        W31118  34.064  30.035  10.523
58826W        W31119  34.463   3.364   1.434
58827W        W31120  33.462  22.633  14.326
58828W        W31121   0.745   9.310  13.034
58829W        W31122  37.872  30.419   2.315
58830W        W31123  36.482  24.174  11.486
58831W        W31124   2.360  27.515  11.084
58832W        W31125  41.434  26.536   3.208
58833W        W31126   0.945  35.371   1.239
58834W        W31127  18.744  35.582  12.976
58835W        W31128   8.206  43.807  13.038
58836W        W31129  32.408  23.984  12.070
58837W        W31130  37.008  27.567  10.590
58838W        W31131  41.319  20.265   2.229
58839W        W31132  42.008   7.385   5.106
58840W        W31133  16.647  19.199  13.034
58841W        W31134  39.527  31.049   3.661
58842W        W31135   6.210  12.350  11.856
58843W        W31136  12.849  27.957   3.243
58844W        W31137  23.031   4.894   5.298
58845W        W31138  32.477  27.685   4.136
58846W        W31139  14.726  19.718  12.340
58847W        W31140  24.150  27.115  14.361
58848W        W31141  28.018  25.166  12.558
58849W        W31142  13.222  17.062  13.978
58850W        W31143  44.283  21.039   2.853
58851W        W31144  17.654  23.056  13.353
58852W        W31145  43.962  18.561   4.634
58853W        W31146  19.070  34.464   0.369
58854W        W31147  20.701  18.619   0.828
58855W        W31148  13.324  43.977  14.281
58856W        W31149  14.616  14.660   0.956
58857W        W31150  27.986  23.220   1.232
58858W        W31151  42.322  35.014   0.730
58859W        W31152   6.260  29.628   3.660
58860W        W31153  29.564  35.437   0.320
58861W        W31154  28.973  42.883  12.062
58862W        W31155   6.821  25.550  14.317
58863W        W31156   4.387  17.793   1.283
58864W        W31157  21.159   6.379  13.541
58865W        W31158  12.307  21.212  12.574
58866W        W31159  28.600   8.860  11.043
58867W        W31160   4.901  36.853   1.766
58868W        W31161  14.610  28.158  10.117
58869W        W31162  17.076  22.062   1.895
58870W        W31163  37.934  33.388   2.185
58871W        W31164   3.324  21.017   2.832
58872W        W31165  11.142   0.375   1.748
58873W        W31166  28.469  15.708   0.920
58874W        W31167  41.439  27.946  14.307
58875W        W31168   3.800  33.903   0.468
58876W        W31169   3.362  41.031  14.849
58877W        W31170  27.034   1.324   2.890
58878W        W31171   0.806  39.393   0.345
58879W        W31172   2.945  41.910   1.912
58880W        W31173  14.230   3.439  10.018
58881W        W31174  14.609  36.060   0.863
58882W        W31175  40.456   8.849  10.509
58883W        W31176  20.555  18.545   3.846
58884W        W31177   2.843  40.906   3.641
58885W        W31178  42.443  44.768  12.458
58886W        W31179  38.467   2.740   0.458
58887W        W31180   2.430   1.919   3.270
58888W        W31181  14.181  29.619  10.476
58889W        W31182  39.528   4.385  11.864
58890W        W31183  39.019  25.049   0.258
58891W        W31184  29.988   9.760   0.762
58892W        W31185  23.211  14.181   2.844
58893W        W31186  31.413  10.170  12.003
58894W        W31187  26.064  24.497  11.412
58895W        W31188  41.355  35.381  13.487
58896W        W31189  20.048  10.141  13.422
58897W        W31190  14.629  11.841   0.289
58898W        W31191   9.683  31.635  12.840
58899W        W31192  25.607  21.663   0.284
58900W        W31193  42.470   7.700   2.343
58901W        W31194  31.109  10.655   4.692
58902W        W31195   1.296  18.670  13.830
58903W        W31196  22.620   9.363  13.898
58904W        W31197  44.427  27.655  14.434
58905W        W31198  14.718   6.329  12.934
58906W        W31199  38.477  27.038  11.064
58907W        W31200  30.587   7.782   0.400
58908W        W31201  39.901  15.749   2.686
58909W        W31202  11.671   5.749   0.739
58910W        W31203  41.334  43.472   1.871
58911W        W31204  43.814  23.668  14.926
58912W        W31205  41.842  25.078   2.334
58913W        W31206  16.312  19.060   3.780
58914W        W31207  14.817   6.855   3.752
58915W        W31208  19.187   5.365  10.551
58916W        W31209   2.742  10.358   0.749
58917W        W31210  40.514  38.976   1.881
58918W        W31211  40.410  24.132  10.559
58919W        W31212  24.561  18.192   4.723
58920W        W31213  34.428   5.427   4.731
58921W        W31214  13.350  31.435  11.915
58922W        W31215  36.847   8.808   2.677
58923W        W31216  20.689  43.311  14.360
58924W        W31217   3.431  24.504   3.858
58925W        W31218  34.922   9.320  11.546
58926W        W31219  30.501  25.969  11.928
58927W        W31220  44.345  25.994   2.853
58928W        W31221   0.837  31.101  14.855
58929W        W31222   2.866   5.327   1.798
58930W        W31223  28.976   8.842  12.054
58931W        W31224  32.456  32.125  12.374
58932W        W31225   5.382   3.752   3.355
58933W        W31226  40.949  17.221   4.820
58934W        W31227   1.370  38.499   0.738
58935W        W31228  11.172  14.636   0.830
58936W        W31229  17.660  29.657  11.597
58937W        W31230  38.342  14.715  10.576
58938W        W31231   1.966   2.380   0.847
58939W        W31232  32.929   9.812  12.965
58940W        W31233  31.003  17.565   3.768
58941W        W31234  14.597  26.191  11.949
58942W        W31235  23.591  27.077  14.281
58943W        W31236   6.324  35.940  11.001
58944W        W31237  41.926   3.232   2.832
58945W        W31238  28.657   7.365   0.772
58946W        W31239  42.936  40.306  12.428
58947W        W31240   1.342  24.579   0.896
58948W        W31241  20.542  11.223   1.346
58949W        W31242  41.425  18.675   4.275
58950W        W31243  14.159   9.322  14.957
58951W        W31244   9.367  24.052  13.353
58952W        W31245  29.601  22.025   1.325
58953W        W31246  41.029  19.579   3.812
58954W        W31247  32.631  34.464   2.386
58955W        W31248  40.012  10.360   1.832
58956W        W31249  22.707  18.238  14.389
58957W        W31250  39.413  41.947  12.889
58958W        W31251  28.063  40.451   3.370
58959W        W31252  38.039   8.269   3.175
58960W        W31253   2.316  38.420   4.825
58961W        W31254  25.191  32.015   1.446
58962W        W31255  10.851  34.457   3.746
58963W        W31256  28.674  43.307  11.917
58964W        W31257  32.531   6.846   4.837
58965W        W31258  36.028   2.855   0.941
58966W        W31259  43.515  29.523  10.940
58967W        W31260  14.252   1.265   0.773
58968W        W31261  30.521   2.763  11.999
58969W        W31262   0.369  31.056  14.937
58970W        W31263  41.019  16.144   0.310
58971W        W31264   4.702  39.808  10.412
58972W        W31265   2.836  24.598  11.121
58973W        W31266  37.493  38.975   3.712
58974W        W31267  11.267   0.482  12.876
58975W        W31268  31.086  10.218   9.948
58976W        W31269  12.253  27.001   4.610
58977W        W31270  38.402  38.009   2.352
58978W        W31271  38.353  10.342  10.118
58979W        W31272  10.376  42.362   1.786
58980W        W31273   1.762  17.098  14.383
58981W        W31274  43.898  19.070   1.351
58982W        W31275  15.096  20.134   3.353
58983W        W31276   9.864   1.882   2.687
58984W        W31277  16.094  30.950  13.483
58985W        W31278  44.383   3.314   3.845
58986W        W31279  29.506  41.482   9.983
58987W        W31280  19.616  23.076  14.772
58988W        W31281  32.100  37.349   2.277
58989W        W31282  29.093   9.659  12.455
58990W        W31283  10.699  37.855   2.865
58991W        W31284  26.128  37.055   3.271
58992W        W31285   3.322  28.650   4.302
58993W        W31286  19.650  34.420  12.858
58994W        W31287  40.937  34.011   0.424
58995W        W31288  26.575  36.386  12.580
58996W        W31289   8.262  11.270   3.865
58997W        W31290  35.915   8.327  14.923
58998W        W31291  21.544  26.053   1.420
58999W        W31292  20.646  23.059  12.391
59000W        W31293  23.002  18.119  14.933
59001W        W31294  24.001  25.486   3.387
59002W        W31295   3.930  26.521   2.293
59003W        W31296  19.255  25.184   0.363
59004W        W31297  28.019  11.671   1.367
59005W        W31298   4.311  17.780   0.276
59006W        W31299  15.718  36.984   2.190
59007W        W31300  18.680   1.798  14.341
59008W        W31301   8.281  42.858   1.856
59009W        W31302  15.648  37.372   4.322
59010W        W31303  28.145   4.390  11.959
59011W        W31304   3.262  30.047   0.373
59012W        W31305  43.490  44.490   1.745
59013W        W31306   6.262  32.066  10.909
59014W        W31307  37.085  28.088  14.005
59015W        W31308   1.382  39.511  11.118
59016W        W31309  35.596  43.349  13.852
59017W        W31310  12.242  37.408  13.844
59018W        W31311  20.601  41.884  11.942
59019W        W31312  42.021  10.830   3.708
59020W        W31313  20.226  32.953   9.933
59021W        W31314  18.246  41.469   4.142
59022W        W31315   7.331  34.493  13.493
59023W        W31316  37.355   3.358   0.352
59024W        W31317  16.076   3.402   2.287
59025W        W31318  43.298  31.414  12.070
59026W        W31319   4.261  25.642  12.544
59027W        W31320  28.117  30.546  12.404
59028W        W31321  21.528  14.616   1.372
59029W        W31322  17.556  44.760   1.835
59030W        W31323  21.213  33.100   1.770
59031W        W31324  43.358  20.760   3.729
59032W        W31325  33.098  32.131  11.520
59033W        W31326  37.074   9.663  14.371
59034W        W31327  21.091  25.508   3.805
59035W        W31328  25.135  31.435   3.642
59036W        W31329  36.912  11.147  14.513
59037W        W31330  28.471  16.605  13.397
59038W        W31331   6.803  44.894  12.468
59039W        W31332  44.869  12.823  13.047
59040W        W31333  13.777   2.756   4.658
59041W        W31334  15.751  33.568  12.959
59042W        W31335  15.798   4.743  14.409
59043W        W31336  40.438   4.226   3.677
59044W        W31337  43.816   9.670   3.165
59045W        W31338   6.696   1.296  11.088
59046W        W31339   6.276   3.907   3.152
59047W        W31340   9.261   9.329   2.870
59048W        W31341  17.736  31.566  13.524
59049W        W31342   2.966  30.610  13.930
59050W        W31343   9.298  16.293  12.510
59051W        W31344  35.896  31.124  10.604
59052W        W31345  12.750  34.431   3.765
59053W        W31346  42.989   0.907  14.287
59054W        W31347  12.753  41.839  14.432
59055W        W31348   4.376  33.402  14.905
59056W        W31349  28.525  42.494   3.233
59057W        W31350  16.092   8.384   0.881
59058W        W31351  34.480  26.517   4.674
59059W        W31352  15.716  38.890  11.990
59060W        W31353  38.992  15.281  13.882
59061W        W31354  35.426  16.576   0.735
59062W        W31355  16.075   7.826   1.860
59063W        W31356   9.709  16.698  10.967
59064W        W31357  33.031  35.469  12.956
59065W        W31358  26.127   6.789  14.874
59066W        W31359  24.103  18.659  10.534
59067W        W31360  24.487  15.083   1.217
59068W        W31361  30.919  26.962  12.043
59069W        W31362  16.767  10.274   2.733
59070W        W31363  16.156  34.017  10.408
59071W        W31364  28.965   6.751   1.933
59072W        W31365  12.195  29.552   3.689
59073W        W31366  32.588  38.972   3.205
59074W        W31367  29.095  37.376   4.264
59075W        W31368  41.530  18.615   1.388
59076W        W31369  20.661   7.826  10.949
59077W        W31370  29.026  42.396  12.982
59078W        W31371  44.908  12.312   3.793
59079W        W31372  30.454  44.830   1.787
59080W        W31373   2.380  18.577   4.649
59081W        W31374  40.485  18.635   0.271
59082W        W31375  39.514  26.577  13.827
59083W        W31376  31.533  42.776  13.414
59084W        W31377  27.964  43.011  11.031
59085W        W31378   9.850  19.661   4.217
59086W        W31379  35.014  18.100   5.176
59087W        W31380  22.692  38.474  11.970
59088W        W31381  25.666   4.933  10.890
59089W        W31382   8.872   7.316  12.459
59090W        W31383  25.041   2.402   2.217
59091W        W31384   3.716   0.260   3.667
59092W        W31385   6.821  22.518   4.799
59093W        W31386   2.402  34.421  10.130
59094W        W31387   5.272  31.080   2.311
59095W        W31388  11.143  40.978  10.582
59096W        W31389  36.047  17.767  14.907
59097W        W31390  30.612  27.542   3.297
59098W        W31391   9.195   6.721   1.795
59099W        W31392  35.397  10.690   1.301
59100W        W31393  42.378  35.443  12.531
59101W        W31394  40.047  26.043  11.883
59102W        W31395   3.455   3.919   3.376
59103W        W31396  20.140  23.547  11.030
59104W        W31397  43.795  30.958  12.572
59105W        W31398  40.014   8.693  12.016
59106W        W31399  17.709  35.855  14.340
59107W        W31400  33.064  13.108  14.829
59108W        W31401  20.599  11.742   0.770
59109W        W31402  21.083  33.908   4.829
59110W        W31403  41.846   2.417   3.836
59111W        W31404  10.318  21.744   1.747
59112W        W31405  34.555  11.230  11.099
59113W        W31406  32.965  37.553   4.671
59114W        W31407  40.891  17.750  13.029
59115W        W31408  20.743   5.723  12.965
59116W        W31409  27.012  42.822  10.620
59117W        W31410  38.033  13.771   1.864
59118W        W31411  36.020  28.082  10.410
59119W        W31412  43.463  23.553  10.407
59120W        W31413   8.828  43.305  12.885
59121W        W31414  41.495  12.814  14.947
59122W        W31415  14.613   7.676   4.256
59123W        W31416   6.802  13.186   4.127
59124W        W31417  43.004  31.022  10.926
59125W        W31418  13.685  20.556   3.829
59126W        W31419  31.099  23.133   4.345
59127W        W31420  37.966   7.708   2.187
59128W        W31421   3.840  36.086  13.959
59129W        W31422  28.072  33.575  13.038
59130W        W31423  24.560   1.252  14.832
59131W        W31424   5.343  24.059   0.779
59132W        W31425  35.897  41.396  14.862
59133W        W31426   6.313  24.666  14.912
59134W        W31427  10.247  22.501  11.549
59135W        W31428   7.247   7.769  14.868
59136W        W31429   5.740  24.706   4.817
59137W        W31430  10.142  11.299   1.897
59138W        W31431  36.069  32.487  12.524
59139W        W31432  44.944  10.838  13.824
59140W        W31433  25.011  26.621  13.932
59141W        W31434   4.270  19.282  13.382
59142W        W31435  36.371  25.519  14.383
59143W        W31436   0.390  19.094   1.714
59144W        W31437  17.250  40.347  10.020
59145W        W31438  28.496   0.335  13.919
59146W        W31439  13.687  41.932  11.936
59147W        W31440  34.545  37.056  12.885
59148W        W31441  39.027   2.292   3.202
59149W        W31442  37.916   6.205   0.926
59150W        W31443  27.067  29.635   0.383
59151W        W31444  12.195  21.217  13.482
59152W        W31445  16.769   5.897  14.418
59153W        W31446  36.541  34.028   4.316
59154W        W31447  13.154  11.793  14.420
59155W        W31448   2.805  30.449   2.732
59156W        W31449  29.061  14.684  14.331
59157W        W31450  28.974  13.158  14.939
59158W        W31451   2.256  34.540  10.532
59159W        W31452  40.931  13.112  14.397
59160W        W31453  38.403  13.783  13.494
59161W        W31454  26.995  21.665   9.663
59162W        W31455   9.234  32.624   0.862
59163W        W31456   2.329  34.116  11.032
59164W        W31457  18.173   3.838  12.524
59165W        W31458   0.293  42.916  13.498
59166W        W31459  13.788  26.113   2.873
59167W        W31460  24.079  12.832   0.788
59168W        W31461  37.430  41.026   4.317
59169W        W31462  32.508  15.609   3.808
59170W        W31463  39.822  12.223   4.245
59171W        W31464  24.580  39.486  13.933
59172W        W31465   1.801  27.591   2.863
59173W        W31466  24.122  36.399  13.359
59174W        W31467   4.708  27.624   9.951
59175W        W31468  38.453   2.966   0.781
59176W        W31469  40.899   2.243  11.038
59177W        W31470  24.094  12.733   2.900
59178W        W31471  22.738   1.448   1.320
59179W        W31472  17.210  22.667   4.615
59180W        W31473  12.856  34.511  10.493
59181W        W31474  12.173  27.111  11.587
59182W        W31475  29.027  19.277   4.640
59183W        W31476  37.948   3.842  13.420
59184W        W31477  37.960  28.667   4.635
59185W        W31478  36.467   1.978  13.393
59186W        W31479  37.441  25.614   2.855
59187W        W31480  17.151   0.420  13.812
59188W        W31481  39.038   2.433   4.606
59189W        W31482  19.676   5.864  14.456
59190W        W31483  24.708   2.344   4.182
59191W        W31484  28.053  38.433   0.801
59192W        W31485  31.503   7.778   4.700
59193W        W31486  25.178  14.611  12.577
59194W        W31487  28.666  20.087  13.358
59195W        W31488   3.453  30.047   3.802
59196W        W31489  44.259  38.376  13.897
59197W        W31490  11.714  31.485   0.362
59198W        W31491  21.167  21.574  14.458
59199W        W31492  13.744  34.584   2.399
59200W        W31493   6.205   9.719   3.317
59201W        W31494  18.100  31.473  14.020
59202W        W31495   3.752  35.428  12.396
59203W        W31496  39.393  43.414   2.705
59204W        W31497  23.994  17.640  13.521
59205W        W31498   2.422  19.694   4.837
59206W        W31499  34.374   3.437   2.192
59207W        W31500  37.919  24.202  14.852
59208W        W31501  44.819  30.460  14.770
59209W        W31502  34.612   0.884   0.299
59210W        W31503   8.166   3.435   1.791
59211W        W31504  39.559   0.875  10.053
59212W        W31505  28.447   6.857   0.941
59213W        W31506  10.841  24.053  11.855
59214W        W31507  28.666  29.474  13.808
59215W        W31508  33.571  35.523  11.124
59216W        W31509  16.611  19.099  11.491
59217W        W31510  28.504   7.676   2.240
59218W        W31511  36.571  11.752   3.805
59219W        W31512  38.832  33.380  14.404
59220W        W31513  13.262  15.185   2.760
59221W        W31514  44.954  30.099  13.393
59222W        W31515  20.621  37.545  10.962
59223W        W31516  43.362  38.928  13.360
59224W        W31517  15.202  18.074   3.870
59225W        W31518  20.112   5.417   2.858
59226W        W31519  37.838  42.460  11.529
59227W        W31520  10.234  18.611   1.311
59228W        W31521   7.347  28.076  11.106
59229W        W31522  27.951  17.307   3.234
59230W        W31523  30.507  16.089   2.729
59231W        W31524  33.101  40.043  12.960
59232W        W31525   3.239  42.401  13.001
59233W        W31526  42.344  10.301   3.691
59234W        W31527  29.070   3.737   3.281
59235W        W31528  27.659   5.332  13.790
59236W        W31529  16.268  12.335  12.824
59237W        W31530  12.169  11.644   0.763
59238W        W31531  13.811  13.708  14.428
59239W        W31532  26.033   1.253   3.217
59240W        W31533  18.104  14.157  10.589
59241W        W31534  34.602  30.643  12.509
59242W        W31535   0.757  39.525   1.240
59243W        W31536  16.144   9.708   0.950
59244W        W31537  19.201  44.891   1.703
59245W        W31538  10.167  29.583  14.976
59246W        W31539  29.566  25.056  14.001
59247W        W31540  34.586  17.561   3.162
59248W        W31541   0.475  25.606  13.385
59249W        W31542   2.767  34.048   2.696
59250W        W31543  23.012  21.113  11.612
59251W        W31544  39.056  40.408  13.799
59252W        W31545  18.601  43.990   1.358
59253W        W31546  32.896   1.841  14.838
59254W        W31547  37.081  14.614   2.692
59255W        W31548   0.392  19.694   3.348
59256W        W31549  12.758  41.527   4.186
59257W        W31550  21.126  17.100   0.850
59258W        W31551   3.240  27.968  11.501
59259W        W31552  31.502   0.768  11.462
59260W        W31553  26.509  21.242  13.967
59261W        W31554  33.462  44.332  14.888
59262W        W31555  41.903   7.272   2.698
59263W        W31556   1.470  42.495  11.545
59264W        W31557  43.488   2.905  14.971
59265W        W31558  20.199   2.372   3.201
59266W        W31559  36.415  24.607   4.170
59267W        W31560  28.526   0.985  11.517
59268W        W31561  11.350  23.734  12.527
59269W        W31562  31.141  30.559  12.095
59270W        W31563  39.987  10.820  14.968
59271W        W31564  26.965   0.807   3.700
59272W        W31565   4.840   2.732   4.697
59273W        W31566  14.213   9.718   3.191
59274W        W31567  17.166  33.499   2.260
59275W        W31568  36.068   7.697  12.462
59276W        W31569   9.709  12.159   4.642
59277W        W31570  13.300  36.025   0.928
59278W        W31571  43.846   6.887   1.382
59279W        W31572  10.337  11.330  11.586
59280W        W31573   2.226  32.102   2.293
59281W        W31574  37.975   9.377   2.741
59282W        W31575  25.028  27.104  11.420
59283W        W31576  11.644  16.119  11.908
59284W        W31577   4.323  14.649   4.317
59285W        W31578  24.223  40.456   4.819
59286W        W31579  38.954  42.383   2.237
59287W        W31580   5.866  32.958   3.156
59288W        W31581  18.254  43.956  14.449
59289W        W31582   2.284  15.286   3.866
59290W        W31583   4.715  34.940   0.350
59291W        W31584  14.189  31.421  11.475
59292W        W31585  42.942  16.655   2.411
59293W        W31586  28.045  34.939  14.797
59294W        W31587  38.541  19.176   4.720
59295W        W31588   4.248  30.571   0.877
59296W        W31589  38.001  14.629  13.511
59297W        W31590   2.799  29.600   4.614
59298W        W31591  11.743  39.970  13.990
59299W        W31592   9.217  15.625   3.256
59300W        W31593  34.087  29.931   3.734
59301W        W31594  28.602  31.140  12.575
59302W        W31595  37.042  20.757  11.539
59303W        W31596  25.645  26.151  13.928
59304W        W31597  19.138  16.711   1.291
59305W        W31598   4.720   5.439  12.901
59306W        W31599  24.539  42.417  12.416
59307W        W31600  15.263  28.452   4.150
59308W        W31601   2.729  25.514   4.181
59309W        W31602   3.368  16.179   4.150
59310W        W31603  41.455  20.621   3.257
59311W        W31604  28.542  40.495   0.962
59312W        W31605   6.266   8.253  12.964
59313W        W31606  44.402  18.246  14.831
59314W        W31607  14.598  40.827  14.781
59315W        W31608  22.165  22.140  11.969
59316W        W31609  18.245  36.591  11.001
59317W        W31610  37.908   8.822   1.365
59318W        W31611   7.315  26.053   4.787
59319W        W31612   5.902  10.782   2.836
59320W        W31613  14.154  10.192  14.403
59321W        W31614  35.873  20.188  13.408
59322W        W31615  26.159  25.097  10.962
59323W        W31616  10.360  33.550   3.306
59324W        W31617   9.655  26.477   1.850
59325W        W31618  42.452  39.422  13.383
59326W        W31619  30.603  24.161  13.452
59327W        W31620  12.325  10.876   4.333
59328W        W31621  19.086  38.992  10.473
59329W        W31622   6.706  34.916  10.457
59330W        W31623   3.945  10.285  13.879
59331W        W31624  27.191   5.840  12.514
59332W        W31625   8.349   3.735  12.939
59333W        W31626  42.385  34.052  14.294
59334W        W31627  10.665  19.546  12.854
59335W        W31628  18.551  12.327  11.025
59336W        W31629   7.309  10.243   0.441
59337W        W31630  15.286   7.406  10.991
59338W        W31631  21.165  44.340   3.780
59339W        W31632  17.777  42.962  12.554
59340W        W31633  10.763  40.053   3.302
59341W        W31634  12.187  30.593  10.934
59342W        W31635  11.647  13.780  14.318
59343W        W31636  20.545   0.493  10.551
59344W        W31637  30.150  43.810  10.436
59345W        W31638  35.962  43.998   0.357
59346W        W31639  27.608   4.214   2.721
59347W        W31640  20.592  26.591   4.293
59348W        W31641  41.946  12.808   4.254
59349W        W31642  40.539  42.321  14.320
59350W        W31643   5.428   1.417  10.959
59351W        W31644   2.828  14.299   4.325
59352W        W31645   5.885  38.479  14.393
59353W        W31646  38.946  22.745   5.086
59354W        W31647  43.459   8.325   1.884
59355W        W31648  15.653  22.601   4.832
59356W        W31649  33.131  37.087   0.275
59357W        W31650  14.652  27.972  10.524
59358W        W31651  12.157  19.041   4.342
59359W        W31652   1.942  31.604   0.902
59360W        W31653  12.119  26.200   3.271
59361W        W31654  16.235   8.387  13.315
59362W        W31655  34.103  23.175   0.737
59363W        W31656  19.711  34.600   3.223
59364W        W31657   9.363  30.147  14.925
59365W        W31658  16.679  42.980  11.412
59366W        W31659  41.332  36.414  10.429
59367W        W31660  31.918  32.899  12.096
59368W        W31661  42.849  19.590   5.130
59369W        W31662  21.693  26.521  13.793
59370W        W31663   1.293   1.439  10.437
59371W        W31664  19.564  15.300  11.094
59372W        W31665  24.186  39.403  11.875
59373W        W31666  40.879  19.202   1.723
59374W        W31667  21.249  42.999   4.737
59375W        W31668   3.282   9.696   4.213
59376W        W31669  31.900   5.827  11.003
59377W        W31670  33.923  10.260   1.367
59378W        W31671  30.996  35.898   2.847
59379W        W31672   3.729  13.657   2.283
59380W        W31673  43.279   7.701   0.451
59381W        W31674  12.633  36.921  11.475
59382W        W31675  39.842  42.365   1.225
59383W        W31676   2.435  23.185  14.473
59384W        W31677  27.005   6.719   3.320
59385W        W31678  30.567   4.307  11.893
59386W        W31679  22.248   7.387  12.426
59387W        W31680  18.141  36.904   4.134
59388W        W31681  29.472  30.948   0.338
59389W        W31682  40.503  16.122   2.759
59390W        W31683  18.099  15.229  10.487
59391W        W31684  31.933  33.016  13.345
59392W        W31685  24.616  14.142  10.438
59393W        W31686  39.443  19.262   4.639
59394W        W31687   2.243  17.130   2.388
59395W        W31688  22.109  38.366  10.563
59396W        W31689   2.337  26.110   4.167
59397W        W31690  11.174  36.406   2.864
59398W        W31691  14.231  24.986   3.809
59399W        W31692  28.931  10.296  10.119
59400W        W31693  10.376  32.125   3.229
59401W        W31694  22.125  14.196   2.787
59402W        W31695   8.778  17.641  14.335
59403W        W31696  40.376  14.609   0.413
59404W        W31697  33.034  22.047  11.093
59405W        W31698  16.691  17.223  12.046
59406W        W31699  29.440  26.125  14.815
59407W        W31700  19.671  14.098   2.709
59408W        W31701  40.808  42.463   4.743
59409W        W31702  18.751  27.642   3.158
59410W        W31703  27.956  32.450   1.920
59411W        W31704  43.963  29.954   2.680
59412W        W31705  35.477  43.289  11.089
59413W        W31706  28.170  41.502  14.777
59414W        W31707  15.796  33.105   2.874
59415W        W31708  30.493  14.233  10.982
59416W        W31709  27.146  39.875  12.092
59417W        W31710  11.157  11.277   2.685
59418W        W31711  38.485   3.226   2.825
59419W        W31712   0.976   4.936  12.400
59420W        W31713  17.198   5.847   3.302
59421W        W31714  14.291  24.620  11.598
59422W        W31715  11.773  32.444  12.507
59423W        W31716  36.589   2.374  13.343
59424W        W31717  38.957  10.360   0.438
59425W        W31718   3.914  26.585  13.364
59426W        W31719  35.587  16.659   2.863
59427W        W31720  14.693  14.693   4.265
59428W        W31721   1.957  37.362   1.857
59429W        W31722  14.140  13.130   1.345
59430W        W31723  27.451  25.009   4.662
59431W        W31724  13.755  18.182  11.496
59432W        W31725  22.150  14.174  10.909
59433W        W31726  17.779  34.933   2.356
59434W        W31727  18.166  11.816   2.806
59435W        W31728  23.214  44.319  13.894
59436W        W31729  16.220  25.053   0.892
59437W        W31730  14.677  22.664  10.569
59438W        W31731  43.876  31.115  10.509
59439W        W31732  12.132   5.339   4.800
59440W        W31733  34.450  42.861  11.088
59441W        W31734   6.342  23.506   3.295
59442W        W31735  32.931  16.783   0.849
59443W        W31736   6.361  25.564  10.961
59444W        W31737   9.219  36.902   2.861
59445W        W31738  11.231  29.459  12.865
59446W        W31739  21.654  37.565   2.243
59447W        W31740  35.069   5.386  11.463
59448W        W31741  40.860  28.565   4.635
59449W        W31742  35.962  31.433   1.217
59450W        W31743   2.759   2.339   3.851
59451W        W31744  13.628  41.950   3.842
59452W        W31745  33.514  21.210   2.708
59453W        W31746  22.137  38.520   1.791
59454W        W31747   0.969  44.860  10.976
59455W        W31748  30.470  20.173  10.519
59456W        W31749  41.021  37.479  13.896
59457W        W31750  26.072  38.065   2.842
59458W        W31751  35.907  36.994   4.350
59459W        W31752  39.056  35.995   0.727
59460W        W31753  26.951  15.686  12.039
59461W        W31754  20.214  11.255   3.785
59462W        W31755   8.394   0.866  10.430
59463W        W31756  14.216   5.366  11.530
59464W        W31757  12.849  31.022   2.791
59465W        W31758   4.377  37.906  12.922
59466W        W31759  37.850  24.097   4.693
59467W        W31760  36.537  33.947   4.739
59468W        W31761  15.599  11.643  14.952
59469W        W31762  19.233  22.601   2.756
59470W        W31763  22.239  31.099  14.809
59471W        W31764   4.273  40.028  10.896
59472W        W31765  10.729   1.380   4.313
59473W        W31766  42.333  31.965   4.351
59474W        W31767  27.054  38.924  13.425
59475W        W31768  41.893  23.140  12.468
59476W        W31769  11.672   6.910   2.377
59477W        W31770  17.061  14.778   0.281
59478W        W31771  19.621   6.276   4.302
59479W        W31772  42.018   1.766   0.909
59480W        W31773  26.500   1.784  13.501
59481W        W31774  43.868   7.714   2.318
59482W        W31775  34.890  25.175  11.527
59483W        W31776   1.386  33.624   1.438
59484W        W31777  21.681   9.222  14.958
59485W        W31778  19.195  26.147   4.298
59486W        W31779  27.045   5.861   4.715
59487W        W31780  44.989  30.646   2.306
59488W        W31781   0.271  27.535  12.485
59489W        W31782   8.350  42.390   0.888
59490W        W31783  10.148   4.883  11.494
59491W        W31784  19.092  15.780   2.299
59492W        W31785   7.342  31.057  12.060
59493W        W31786  31.468  38.569   3.373
59494W        W31787  33.482  12.318  14.277
59495W        W31788  14.606  29.495   3.232
59496W        W31789  18.254  21.092  12.854
59497W        W31790  34.425  31.497   4.702
59498W        W31791  16.783   2.462   4.604
59499W        W31792  33.126  41.013  14.390
59500W        W31793  34.520  18.271   1.387
59501W        W31794  13.335  17.579   1.296
59502W        W31795   6.377  14.666   3.663
59503W        W31796   3.912  41.804   2.844
59504W        W31797  11.651   2.262  11.458
59505W        W31798  27.689   4.331  11.592
59506W        W31799  41.950  18.246  14.319
59507W        W31800  11.714   9.739   1.887
59508W        W31801  23.494  12.801   3.242
59509W        W31802   3.822  18.676  12.560
59510W        W31803  33.516  15.703  13.520
59511W        W31804  18.652  16.774  13.927
59512W        W31805  28.658  34.082   0.463
59513W        W31806  31.577   6.858   2.800
59514W        W31807   3.399  35.569   4.742
59515W        W31808  36.550  39.954   0.746
59516W        W31809  36.008  35.388  13.479
59517W        W31810  14.200  20.154   0.818
59518W        W31811  36.550  35.943  13.900
59519W        W31812  16.740  31.550   4.712
59520W        W31813  23.018  14.179   0.384
59521W        W31814  25.647  10.291  11.116
59522W        W31815  14.742  15.220   2.714
59523W        W31816  25.074  17.695  13.963
59524W        W31817  12.159   5.719  12.886
59525W        W31818  34.020   9.753  13.987
59526W        W31819  30.478  16.317  13.328
59527W        W31820   8.656  35.413  13.909
59528W        W31821  17.725  11.833  12.437
59529W        W31822  44.924  42.981   4.177
59530W        W31823  32.065   8.702  10.080
59531W        W31824   0.794  21.232   1.849
59532W        W31825  11.130   8.179  11.942
59533W        W31826  28.067  21.530   5.607
59534W        W31827  17.123  31.974   3.743
59535W        W31828  25.052   8.269   2.208
59536W        W31829   3.730  12.231  14.513
59537W        W31830  18.263   5.385  12.526
59538W        W31831  29.112   8.281   5.094
59539W        W31832  39.540  12.116  13.505
59540W        W31833   3.948  20.065  11.439
59541W        W31834  14.334  11.166   3.861
59542W        W31835   1.463  16.645  10.415
59543W        W31836  27.033  17.270   3.325
59544W        W31837  21.717  43.500  12.846
59545W        W31838  27.162  18.234   2.384
59546W        W31839   3.884   5.232   4.331
59547W        W31840  38.443  24.655  11.859
59548W        W31841  14.782  17.062  11.043
59549W        W31842  25.969  26.615   2.675
59550W        W31843  41.937  41.377   9.947
59551W        W31844  30.139  25.035   3.252
59552W        W31845  29.006  41.377   2.348
59553W        W31846   5.217  11.689  10.516
59554W        W31847  22.016   2.392   9.948
59555W        W31848   7.374  26.622   2.728
59556W        W31849  34.943  14.195  10.069
59557W        W31850  37.882   0.449  10.629
59558W        W31851   9.854  25.113  10.528
59559W        W31852  26.136  44.859  10.944
59560W        W31853  18.599  41.960   1.412
59561W        W31854  22.051  23.670   0.294
59562W        W31855  18.657  32.541   2.257
59563W        W31856  41.371  21.246  14.828
59564W        W31857  14.590  35.523  13.985
59565W        W31858  18.586  39.510  12.927
59566W        W31859   6.237  31.492   0.269
59567W        W31860  20.665  14.232   2.242
59568W        W31861   4.908  37.419  13.996
59569W        W31862  13.750  34.955  10.503
59570W        W31863  42.472  18.751  14.823
59571W        W31864  13.826   6.373  12.894
59572W        W31865   8.681  40.817  10.622
59573W        W31866  14.324   1.807   9.612
59574W        W31867   2.749   9.750   0.800
59575W        W31868   3.251  42.976   2.830
59576W        W31869  26.564  10.842   3.149
59577W        W31870  36.966  25.197  10.560
59578W        W31871  39.004  31.151   0.401
59579W        W31872  41.003  27.032  12.920
59580W        W31873  17.279  27.967   2.228
59581W        W31874  22.165  41.522  12.474
59582W        W31875  21.054  16.609  11.006
59583W        W31876  29.075  18.221   1.290
59584W        W31877  27.592  22.652  11.059
59585W        W31878  19.087  10.207   2.367
59586W        W31879   2.895  21.546  12.564
59587W        W31880   2.766  30.078  13.372
59588W        W31881  15.275  24.499  12.834
59589W        W31882   8.852  18.123   0.768
59590W        W31883  38.369  23.508  14.992
59591W        W31884  40.917   4.292  12.377
59592W        W31885   7.365  34.064  13.444
59593W        W31886  26.199   5.818  11.990
59594W        W31887   2.445  14.265   1.369
59595W        W31888  15.635   3.455   3.374
59596W        W31889  25.092  12.834  13.548
59597W        W31890  16.789  42.994  11.014
59598W        W31891   1.248  42.505   2.290
59599W        W31892  17.627  39.489   0.886
59600W        W31893  11.263  25.472  14.901
59601W        W31894  44.302  27.046   4.342
59602W        W31895  10.870  41.852   0.923
59603W        W31896  37.531  27.963   5.279
59604W        W31897  20.172  24.130  11.455
59605W        W31898  39.014  17.069   4.292
59606W        W31899  17.190  43.859  14.989
59607W        W31900  23.533  42.375   4.689
59608W        W31901  14.708  26.193  13.929
59609W        W31902   2.338  30.147   3.710
59610W        W31903   0.307  25.102   3.717
59611W        W31904  15.793  29.436   2.321
59612W        W31905  43.292  34.989   1.803
59613W        W31906  23.702  41.941   4.625
59614W        W31907  15.605  23.019   4.284
59615W        W31908  42.435  44.861   2.382
59616W        W31909  25.155   4.259  10.501
59617W        W31910  40.441  36.455  14.881
59618W        W31911   8.677  21.644  14.919
59619W        W31912  41.313   5.206  11.053
59620W        W31913  10.204  41.406  11.101
59621W        W31914  16.711  30.504   0.822
59622W        W31915  32.960  27.494   1.383
59623W        W31916  23.653  22.015  12.386
59624W        W31917  13.609  38.033  12.533
59625W        W31918  39.398   2.390  14.935
59626W        W31919  15.804  32.547   4.268
59627W        W31920  24.151  34.426  10.523
59628W        W31921  41.433   0.936  12.860
59629W        W31922  22.073  16.074  12.869
59630W        W31923  32.401  22.214   3.281
59631W        W31924  21.059  19.565   3.697
59632W        W31925  32.607   4.288  14.881
59633W        W31926   6.225  13.321  10.963
59634W        W31927  32.477   2.777  12.978
59635W        W31928  15.722  13.178   0.389
59636W        W31929  17.237   9.178   4.837
59637W        W31930  44.336   9.345   3.384
59638W        W31931  33.955  21.199   3.722
59639W        W31932  43.912  34.101   0.856
59640W        W31933  31.405   3.236  10.585
59641W        W31934   7.726  36.476   1.392
59642W        W31935  32.566  25.997   3.296
59643W        W31936  13.114   3.329  13.522
59644W        W31937   8.292   7.876   0.804
59645W        W31938  22.700  31.423  11.467
59646W        W31939  19.704   1.736  11.418
59647W        W31940  20.759  29.423  13.511
59648W        W31941  14.683  25.121   5.300
59649W        W31942  42.283  14.730   4.720
59650W        W31943  38.976  25.978  14.488
59651W        W31944  14.809  19.556  10.638
59652W        W31945  14.697  28.079   3.202
59653W        W31946  34.578  38.908   3.361
59654W        W31947  44.465  27.675   1.400
59655W        W31948  38.890  41.338   4.693
59656W        W31949  32.976  36.868  12.387
59657W        W31950  33.582  17.134   5.231
59658W        W31951  18.282  15.089  13.897
59659W        W31952  21.082  39.002  13.356
59660W        W31953  16.264  26.968   1.932
59661W        W31954   2.827  35.962   2.871
59662W        W31955   4.873  15.243  11.994
59663W        W31956  11.690  28.143  12.960
59664W        W31957  17.611  41.848   4.157
59665W        W31958  44.862  10.654   0.453
59666W        W31959  12.177   2.745   2.697
59667W        W31960  27.541  16.756   1.324
59668W        W31961  19.202  19.090   4.347
59669W        W31962  38.981  13.636  14.764
59670W        W31963  11.640   3.237  13.906
59671W        W31964   3.394  40.002   3.649
59672W        W31965  14.281   2.931   3.845
59673W        W31966   7.380  34.100   2.772
59674W        W31967  40.027  18.775   3.309
59675W        W31968  19.700   7.408  13.371
59676W        W31969   8.743   1.771  14.935
59677W        W31970   6.293  25.112   1.847
59678W        W31971  23.589  41.401   0.922
59679W        W31972   0.871  36.977   1.778
59680W        W31973  12.732  11.757  13.357
59681W        W31974   2.931   1.964  12.999
59682W        W31975  40.426  14.742   4.192
59683W        W31976  21.212  22.021  14.877
59684W        W31977  23.137  22.514   9.959
59685W        W31978  32.083  25.586  13.418
59686W        W31979  16.100  28.084  14.988
59687W        W31980  37.929  40.012  14.760
59688W        W31981  11.672  32.551   2.259
59689W        W31982  21.148  17.262   1.264
59690W        W31983   0.978  37.010  12.389
59691W        W31984  41.829  32.393   0.784
59692W        W31985   0.311  31.452  14.470
59693W        W31986  35.879  42.332   2.811
59694W        W31987  37.403  38.005   3.793
59695W        W31988  34.991  39.961  14.818
59696W        W31989  10.300  38.481   1.825
59697W        W31990   7.205  35.874  13.874
59698W        W31991  12.784  26.024   4.257
59699W        W31992  36.033   3.848   4.782
59700W        W31993   7.365  35.100   2.896
59701W        W31994  32.576  10.847  13.793
59702W        W31995  16.215  21.086  14.001
59703W        W31996   3.926  19.137   2.280
59704W        W31997  14.590  10.700  13.510
59705W        W31998  37.959   2.813   3.248
59706W        W31999  12.249  32.409  10.560
59707W        W32000  19.707  31.984  14.813
59708W        W32001  28.008  24.518  14.888
59709W        W32002  14.802  43.995   2.858
59710W        W32003  37.920  13.779  13.424
59711W        W32004   8.721  22.149   2.333
59712W        W32005  24.673   4.885   0.459
59713W        W32006   6.870  35.396   2.191
59714W        W32007  44.334  20.581   3.319
59715W        W32008  35.958  32.977  12.967
59716W        W32009  11.784  36.051   2.256
59717W        W32010  28.560  21.602   1.426
59718W        W32011  40.348  14.663   3.777
59719W        W32012   9.280  40.032  12.532
59720W        W32013  15.823  19.259  12.415
59721W        W32014  27.032  10.175   1.857
59722W        W32015  35.409  22.151   2.284
59723W        W32016  29.438  10.737  10.485
59724W        W32017  14.163  25.660   1.815
59725W        W32018   2.341  11.649  13.406
59726W        W32019  17.629  16.650   3.773
59727W        W32020  14.251   5.215  12.511
59728W        W32021  23.590  29.153  13.917
59729W        W32022  21.180  11.635  13.361
59730W        W32023  21.040  14.808   2.709
59731W        W32024  31.153  24.496  11.116
59732W        W32025   2.800   4.850  12.359
59733W        W32026   6.816  19.228  14.383
59734W        W32027  26.460  29.508  12.386
59735W        W32028  19.064   5.200  11.126
59736W        W32029  35.045  35.419   2.737
59737W        W32030   1.843   7.675   2.665
59738W        W32031  39.883  21.241  11.903
59739W        W32032  23.206   6.358   4.720
59740W        W32033  20.718   9.205  11.032
59741W        W32034  39.481  24.040   3.750
59742W        W32035  36.529  38.562   3.702
59743W        W32036   3.916   3.838  13.439
59744W        W32037   3.404  36.555  13.863
59745W        W32038  35.078  39.379   2.255
59746W        W32039   2.324  30.613   2.203
59747W        W32040  20.071  26.497  14.439
59748W        W32041  34.995   8.680   1.920
59749W        W32042  42.873  38.820   2.326
59750W        W32043  29.111   7.403  14.786
59751W        W32044  34.518  32.572   4.668
59752W        W32045  37.575  11.823   4.604
59753W        W32046  23.207  24.114  13.415
59754W        W32047  44.407   8.787   9.923
59755W        W32048   2.723  17.227  13.955
59756W        W32049  21.605  21.241   4.748
59757W        W32050  42.988  37.887   3.716
59758W        W32051  25.964  21.242  13.537
59759W        W32052  38.991   8.772  12.532
59760W        W32053  26.540  11.863   4.774
59761W        W32054  12.665  15.601  14.497
59762W        W32055  15.669  17.715   4.830
59763W        W32056   1.363  22.627   1.811
59764W        W32057  29.540   5.285  10.926
59765W        W32058  28.489  40.858   0.750
59766W        W32059  16.751  23.126   9.549
59767W        W32060  10.721  15.657   4.233
59768W        W32061  14.197  26.071   2.693
59769W        W32062  24.667  41.925   1.843
59770W        W32063  18.738  40.405   1.304
59771W        W32064  18.287  28.105   1.367
59772W        W32065   5.688  34.893   4.666
59773W        W32066   6.829   0.358   1.811
59774W        W32067  23.712  30.960   1.394
59775W        W32068  32.919  11.284  12.512
59776W        W32069  16.741  39.437  10.645
59777W        W32070  37.964  14.285   4.275
59778W        W32071   2.421  11.692  12.907
59779W        W32072   4.294  27.498  11.602
59780W        W32073  12.662  27.543   0.313
59781W        W32074  12.349  32.634  14.375
59782W        W32075  33.514   1.384  10.929
59783W        W32076  43.960   0.854   4.164
59784W        W32077  26.481   7.903   1.769
59785W        W32078  16.629  26.966   4.807
59786W        W32079  13.618  31.129  11.925
59787W        W32080  37.476   4.244   2.827
59788W        W32081  13.273  25.709  12.444
59789W        W32082  36.859  26.041  13.359
59790W        W32083  10.729  44.378  14.318
59791W        W32084  30.100   9.824   4.138
59792W        W32085  20.038  39.399  11.933
59793W        W32086   0.977   0.443   2.286
59794W        W32087   0.899  16.661   1.325
59795W        W32088  31.910  30.150  12.372
59796W        W32089  26.568  21.073  12.528
59797W        W32090  24.535   5.411  13.959
59798W        W32091  38.030   4.929  14.821
59799W        W32092  17.171  18.121   2.761
59800W        W32093  27.986  37.982   3.275
59801W        W32094  19.703  30.948   5.711
59802W        W32095  23.509   2.262   4.780
59803W        W32096   8.718   6.254  14.370
59804W        W32097  29.612  35.558   1.281
59805W        W32098  35.519   2.316   2.861
59806W        W32099  26.080  36.892  10.945
59807W        W32100   6.201  36.552  12.475
59808W        W32101   7.216  13.630  10.578
59809W        W32102  33.506  35.099   4.144
59810W        W32103  32.570  33.086   2.221
59811W        W32104   4.786  39.038  13.831
59812W        W32105  32.603  12.801   0.291
59813W        W32106  22.521   6.689   1.839
59814W        W32107  14.771   1.762   1.286
59815W        W32108   3.724  34.918  12.500
59816W        W32109  28.651  16.316   2.230
59817W        W32110  27.602  20.734  10.984
59818W        W32111  22.051  17.682   2.763
59819W        W32112  30.476   6.342  11.959
59820W        W32113  34.019  14.273  14.874
59821W        W32114  13.129  10.313   2.222
59822W        W32115  24.530  10.309   0.874
59823W        W32116  13.762  28.070  13.529
59824W        W32117  32.615   9.180   4.209
59825W        W32118  40.800  17.248  12.447
59826W        W32119  15.241  40.991  14.309
59827W        W32120  13.327   8.224  10.547
59828W        W32121   3.927  21.637   1.288
59829W        W32122   6.900   5.926   3.821
59830W        W32123  26.677  21.195   3.235
59831W        W32124  40.389  18.598  13.441
59832W        W32125  43.439  40.406   0.804
59833W        W32126   4.239  41.886   4.752
59834W        W32127  27.193  18.128  10.645
59835W        W32128  13.748  36.580   2.309
59836W        W32129  12.626  41.037   4.808
59837W        W32130   8.746  11.837   1.372
59838W        W32131  38.453  32.049   2.667
59839W        W32132  38.530  33.404  11.419
59840W        W32133  43.964  22.235   2.662
59841W        W32134  34.534  12.785  12.912
59842W        W32135  32.961   6.881  13.407
59843W        W32136  20.699   1.830   0.264
59844W        W32137  23.040   5.221  14.976
59845W        W32138   8.777  27.559   0.910
59846W        W32139  30.148  25.980   1.338
59847W        W32140  16.596  41.294  14.885
59848W        W32141  23.704  26.577   3.760
59849W        W32142  34.028   8.736  12.385
59850W        W32143  21.027  38.348  13.868
59851W        W32144   3.819  38.831  14.786
59852W        W32145   9.333   5.328   1.744
59853W        W32146  13.775   5.205  10.037
59854W        W32147   6.699  21.724   0.473
59855W        W32148  38.993  42.865   3.835
59856W        W32149  33.490  42.873  14.851
59857W        W32150  39.358  27.566  14.793
59858W        W32151  29.563  27.115   0.852
59859W        W32152   9.349  10.184  13.416
59860W        W32153   7.912  24.109  13.317
59861W        W32154   1.956  36.001   2.327
59862W        W32155  26.101  42.806   1.769
59863W        W32156  18.220  22.226  10.111
59864W        W32157   4.240  19.665  14.028
59865W        W32158  30.590   7.367   2.265
59866W        W32159   0.438  31.531   0.442
59867W        W32160  27.953   5.687   1.323
59868W        W32161  22.218  33.925  12.443
59869W        W32162   6.892   6.372  11.548
59870W        W32163  19.716   1.337  11.542
59871W        W32164  23.002   9.245  11.089
59872W        W32165  15.106  17.147  13.500
59873W        W32166  21.523  42.859  11.985
59874W        W32167  30.081   7.721   1.272
59875W        W32168  32.603  10.138  10.067
59876W        W32169  22.073  11.175   2.361
59877W        W32170  17.686  37.479  10.994
59878W        W32171   0.359  16.798  11.517
59879W        W32172  37.049  18.156  10.919
59880W        W32173  40.010  42.917  13.460
59881W        W32174  27.463  32.138   3.175
59882W        W32175  10.278  26.549  13.411
59883W        W32176  32.510  15.647   0.379
59884W        W32177  23.189  19.765  10.574
59885W        W32178  37.956  26.486   0.772
59886W        W32179   7.320  25.212  13.997
59887W        W32180  27.564  29.616   4.666
59888W        W32181   9.853  22.586   0.395
59889W        W32182   6.751  29.958  11.458
59890W        W32183  34.427  39.324  10.531
59891W        W32184  17.105  32.018   1.916
59892W        W32185  14.741  27.142  11.100
59893W        W32186  15.176  39.020  14.506
59894W        W32187  17.693  17.298  14.784
59895W        W32188  11.233  39.358   4.709
59896W        W32189  17.142   3.873  12.843
59897W        W32190  19.537  13.109  13.313
59898W        W32191   5.207   5.713  10.944
59899W        W32192  11.248   1.347   2.783
59900W        W32193  42.305  14.697  11.388
59901W        W32194  27.046   6.680   0.463
59902W        W32195  32.543   5.921  10.596
59903W        W32196   1.346  37.471   0.459
59904W        W32197  42.363  37.443  10.529
59905W        W32198  10.140  34.530   4.702
59906W        W32199  15.099  42.897   0.362
59907W        W32200   1.362   1.734  14.324
59908W        W32201  25.580   0.842   1.765
59909W        W32202  41.826  28.510   0.282
59910W        W32203  22.649  26.477   1.903
59911W        W32204  39.027  38.552   1.443
59912W        W32205  36.493  24.097   3.241
59913W        W32206  34.064   7.897  12.580
59914W        W32207   1.882  39.819  12.912
59915W        W32208  15.805  23.037  12.568
59916W        W32209  10.335  10.229  14.000
59917W        W32210  11.695  33.024   4.644
59918W        W32211  22.033  23.720  11.034
59919W        W32212  41.440   5.778  14.441
59920W        W32213   0.900  10.291   1.857
59921W        W32214  28.604  42.336   3.713
59922W        W32215   1.766  23.002   0.936
59923W        W32216  10.714  41.312   4.126
59924W        W32217  10.726   7.384   1.847
59925W        W32218   2.721   0.405   4.118
59926W        W32219  28.055  18.741   3.870
59927W        W32220  29.613  42.802  11.424
59928W        W32221   7.211  44.337   0.296
59929W        W32222  29.512  18.634  13.964
59930W        W32223   4.212   9.873   3.805
59931W        W32224  26.151   0.854   1.343
59932W        W32225  25.570   1.815   0.906
59933W        W32226   1.930   2.752  11.856
59934W        W32227  31.489   4.264   1.356
59935W        W32228  38.892  43.009  10.546
59936W        W32229  34.505  29.465   1.820
59937W        W32230  35.599   8.834   1.347
59938W        W32231  21.628  44.412  11.545
59939W        W32232  30.989  43.326   3.231
59940W        W32233  14.199  39.047   0.445
59941W        W32234  29.082  40.518   2.724
59942W        W32235   1.393  33.523   3.776
59943W        W32236  34.449  31.494  10.920
59944W        W32237  13.312   0.764  10.411
59945W        W32238   0.847  22.020   2.793
59946W        W32239  14.760  16.168   4.339
59947W        W32240  27.628  14.809  11.985
59948W        W32241  20.708  16.722   3.235
59949W        W32242  33.127  14.593  14.870
59950W        W32243   5.214  36.423  14.946
59951W        W32244  12.275  16.287   1.289
59952W        W32245  34.400  13.179  14.940
59953W        W32246  43.285   2.256   4.772
59954W        W32247  13.647  12.786  13.842
59955W        W32248   3.306  42.505  11.602
59956W        W32249  21.180  21.709   1.746
59957W        W32250  17.628  38.836  14.791
59958W        W32251   4.850   6.383   0.867
59959W        W32252   4.376   9.695   1.252
59960W        W32253  16.201  44.915   2.273
59961W        W32254  12.222  44.498  13.462
59962W        W32255  19.136  32.631   1.792
59963W        W32256  31.560  44.453   3.238
59964W        W32257  15.147  37.387  11.543
59965W        W32258   7.341   1.388   3.714
59966W        W32259  35.522   3.812   0.276
59967W        W32260  41.871  23.165  14.960
59968W        W32261  37.034  23.657   1.819
59969W        W32262  23.553  10.749   0.872
59970W        W32263   7.229   4.247  10.585
59971W        W32264  36.445  28.540   2.854
59972W        W32265   4.249  25.598   3.239
59973W        W32266  14.670  42.288  13.029
59974W        W32267   1.976  21.668  12.034
59975W        W32268  17.203  38.348   4.767
59976W        W32269  32.934  18.557  13.488
59977W        W32270  39.047   3.876  12.546
59978W        W32271   4.818  29.469  11.972
59979W        W32272  43.808  27.581  12.855
59980W        W32273  26.479  13.331  14.504
59981W        W32274  39.971  41.390   4.798
59982W        W32275  25.627  40.423  11.572
59983W        W32276  35.076  44.268   0.739
59984W        W32277  43.317  37.893   3.213
59985W        W32278  34.015  14.304   1.775
59986W        W32279  42.960  11.678   0.868
59987W        W32280  35.586  35.481   2.777
59988W        W32281  10.328  13.342  10.591
59989W        W32282  30.470  42.483   3.726
59990W        W32283  26.110  10.365   4.340
59991W        W32284   4.814  14.253  11.019
59992W        W32285   1.978  29.468   2.695
59993W        W32286   4.778  32.598  12.921
59994W        W32287  17.704  27.148  12.919
59995W        W32288   0.902  15.751   2.196
59996W        W32289   6.427   2.271  13.357
59997W        W32290  35.473  36.543  11.926
59998W        W32291   2.783  20.558   3.353
59999W        W32292  37.549  11.762  11.997
60000W        W32293  17.160  12.719   1.396
60001W        W32294   3.378   3.837  14.030
60002W        W32295   6.828  22.576  13.032
60003W        W32296  36.487  22.135  10.561
60004W        W32297  31.962  21.179  13.994
60005W        W32298  23.167  12.625   3.714
60006W        W32299  18.275  15.618  14.332
60007W        W32300  38.939  35.854  13.443
60008W        W32301   1.359  15.323  14.891
60009W        W32302   7.690   3.461  12.513
60010W        W32303  43.889   5.363   2.803
60011W        W32304  15.807  31.605  11.380
60012W        W32305  18.238  31.474   2.680
60013W        W32306  25.204  20.687   4.606
60014W        W32307  10.270   2.763  12.490
60015W        W32308  28.033   1.924   4.599
60016W        W32309   6.241   0.929  10.918
60017W        W32310  19.616  22.062  14.329
60018W        W32311  38.439  26.156  13.007
60019W        W32312  37.027   5.687   0.946
60020W        W32313  31.528  30.958   2.367
60021W        W32314  32.403  12.665   2.885
60022W        W32315  19.737  26.668  11.856
60023W        W32316  20.769   1.904  12.406
60024W        W32317  15.259  13.725   1.852
60025W        W32318  17.186   8.669   0.357
60026W        W32319   9.167  18.236  10.507
60027W        W32320  43.780  31.899  12.930
60028W        W32321  37.453  27.077   1.414
60029W        W32322  33.592  43.847  11.439
60030W        W32323  33.958  42.877  14.508
60031W        W32324  36.575   0.885   4.329
60032W        W32325  33.519  14.154   4.663
60033W        W32326  41.015  29.573  13.311
60034W        W32327  42.303  20.148   5.798
60035W        W32328  30.549  39.472  13.448
60036W        W32329  15.316  39.466   3.723
60037W        W32330   3.814  12.820  13.967
60038W        W32331  39.053  33.531   3.248
60039W        W32332  32.114   0.397  11.075
60040W        W32333  19.677  12.204   3.672
60041W        W32334  30.074  32.523   2.232
60042W        W32335  33.995  31.512   3.800
60043W        W32336  37.546   9.297   3.284
60044W        W32337  27.465  21.571  11.994
60045W        W32338  16.618  30.073   1.873
60046W        W32339   1.949  22.223   1.292
60047W        W32340  27.612  23.234   2.686
60048W        W32341  25.511  20.081  11.432
60049W        W32342  15.166  19.047   2.829
60050W        W32343  42.915  38.489   1.336
60051W        W32344   3.797   4.832   1.768
60052W        W32345  26.608  10.248   1.317
60053W        W32346  14.809  15.764  14.493
60054W        W32347  27.537  41.933   0.954
60055W        W32348  39.547  40.371  12.553
60056W        W32349  21.693   3.822  13.454
60057W        W32350  38.026  38.504  11.386
60058W        W32351  41.426   9.721   2.379
60059W        W32352  28.979  16.266  14.319
60060W        W32353  25.591   8.770  10.922
60061W        W32354  20.534  12.714  10.609
60062W        W32355  28.043  16.617  12.339
60063W        W32356  33.475  24.679   3.816
60064W        W32357   5.873  23.654  12.473
60065W        W32358  44.339  38.061  12.461
60066W        W32359  43.775  44.333  13.883
60067W        W32360  35.018  41.448  13.794
60068W        W32361  31.018   5.812   1.376
60069W        W32362  37.004  15.741   2.773
60070W        W32363  22.649  24.103  10.890
60071W        W32364  32.505  27.190   4.136
60072W        W32365  39.413   3.420  10.596
60073W        W32366   3.339   7.347  13.325
60074W        W32367  15.231  44.478  14.798
60075W        W32368  16.596  15.256   1.806
60076W        W32369  35.879  43.403  14.979
60077W        W32370  21.117  21.028   0.929
60078W        W32371  16.136  16.104   4.316
60079W        W32372  43.305  18.566   1.371
60080W        W32373  30.524  25.652  12.850
60081W        W32374   1.902  35.040  12.957
60082W        W32375  42.777  28.554   3.224
60083W        W32376  36.543   8.369  10.446
60084W        W32377  41.354  11.784  11.464
60085W        W32378  18.176  27.123   1.322
60086W        W32379  33.430  31.086  14.290
60087W        W32380  28.112  12.238   9.976
60088W        W32381  41.459  29.950   1.361
60089W        W32382  21.659  44.307  12.409
60090W        W32383  24.001  13.153   3.814
60091W        W32384  16.697   2.438   1.442
60092W        W32385  10.323   0.374  13.879
60093W        W32386  22.502  33.452  11.387
60094W        W32387   3.904  15.813   1.325
60095W        W32388  44.838  44.277  11.571
60096W        W32389  26.196  39.907   1.923
60097W        W32390  11.311   2.900  11.495
60098W        W32391  44.366   1.951  13.508
60099W        W32392  19.225   5.327  12.366
60100W        W32393   5.328  22.584   0.256
60101W        W32394  42.283  14.776   3.342
60102W        W32395   3.417  22.610  11.982
60103W        W32396  22.683  44.835  11.059
60104W        W32397  31.509   3.454  12.505
60105W        W32398   4.779  32.988  14.031
60106W        W32399  26.973  38.864   2.333
60107W        W32400  11.765  16.793   4.702
60108W        W32401  34.977  14.311  11.980
60109W        W32402  13.158  24.700  12.361
60110W        W32403  13.776   5.365   4.259
60111W        W32404   9.702  12.248  11.551
60112W        W32405  27.673  15.753   1.932
60113W        W32406  34.415  18.094   4.734
60114W        W32407  42.008  13.628   3.824
60115W        W32408  33.978  20.615  10.467
60116W        W32409  27.176  10.357  12.858
60117W        W32410  21.570  34.404   4.197
60118W        W32411  37.536  25.980   0.898
60119W        W32412  18.688  13.675  13.952
60120W        W32413   2.314  17.682  13.021
60121W        W32414  43.334  28.034   0.250
60122W        W32415   0.456  25.038  14.436
60123W        W32416  24.717  28.983   4.653
60124W        W32417  23.655  41.925   0.332
60125W        W32418   5.329  43.867   1.923
60126W        W32419  32.454   6.306   1.851
60127W        W32420   4.316  16.681   3.694
60128W        W32421  23.016  22.203   0.406
60129W        W32422   0.271   7.346  12.982
60130W        W32423  32.035   5.745   2.900
60131W        W32424  38.389  41.519  13.395
60132W        W32425  20.228  12.312  10.431
60133W        W32426  24.662   4.804   4.241
60134W        W32427  38.366   4.276  10.438
60135W        W32428   8.770  12.158   1.439
60136W        W32429  11.710  20.164  12.544
60137W        W32430   6.394  10.744   2.706
60138W        W32431   5.331  12.842  14.808
60139W        W32432  16.271  35.103   3.207
60140W        W32433  43.393   4.717  13.536
60141W        W32434  30.477   2.746  11.604
60142W        W32435  22.172  28.617   2.877
60143W        W32436   5.234  32.551   3.329
60144W        W32437   4.940  15.136   2.223
60145W        W32438  12.146  21.128  10.466
60146W        W32439   2.402  40.928   1.740
60147W        W32440  27.496  17.094   4.761
60148W        W32441   8.325  16.094   2.858
60149W        W32442  43.472  28.050  13.045
60150W        W32443  40.935   1.375  14.905
60151W        W32444  41.886  39.997  14.941
60152W        W32445  23.044  12.185  12.559
60153W        W32446  15.232  42.913  14.966
60154W        W32447  38.903  43.951  13.427
60155W        W32448   3.746  38.368   0.933
60156W        W32449  41.917  15.288  13.938
60157W        W32450  35.082  29.554   3.381
60158W        W32451  43.794  27.573   4.628
60159W        W32452   8.302  44.754   1.755
60160W        W32453  39.995  17.695   1.379
60161W        W32454  26.040   0.798  14.997
60162W        W32455  22.686   2.875  11.115
60163W        W32456  11.147  22.737   4.186
60164W        W32457  20.632   9.358   0.248
60165W        W32458  19.189  25.139  13.371
60166W        W32459  17.621  12.700  14.318
60167W        W32460  28.653  11.655   3.635
60168W        W32461  22.194  22.510   3.645
60169W        W32462  42.482  19.092   1.341
60170W        W32463   7.892   0.352   1.875
60171W        W32464  27.466   8.784   3.175
60172W        W32465  28.653  19.183  12.881
60173W        W32466  36.487   7.756  14.932
60174W        W32467  39.320   4.726   1.753
60175W        W32468  43.367  43.852   4.323
60176W        W32469  20.750  26.141  12.088
60177W        W32470   9.888   3.855  12.036
60178W        W32471  16.711  40.869  14.492
60179W        W32472  43.515   3.848   2.285
60180W        W32473   4.312  34.463   4.688
60181W        W32474  37.078  33.408  12.423
60182W        W32475  38.863  27.565  11.473
60183W        W32476  38.034  12.354  12.891
60184W        W32477  43.383  27.085  13.957
60185W        W32478  27.471  23.646  13.863
60186W        W32479  16.102  42.023   2.407
60187W        W32480   5.909  34.588  10.413
60188W        W32481  33.406  30.949   3.692
60189W        W32482   6.867  34.427  12.942
60190W        W32483  41.870  12.803  10.974
60191W        W32484  24.990  43.970   3.334
60192W        W32485  16.273  27.515  14.917
60193W        W32486  12.233  33.007   1.894
60194W        W32487  15.148  21.090   4.810
60195W        W32488  16.266  15.179  13.030
60196W        W32489  33.963  23.528  12.925
60197W        W32490   2.723  28.036  10.919
60198W        W32491   3.234   4.834  11.422
60199W        W32492   2.327  34.103   4.347
60200W        W32493  17.298  13.152   5.228
60201W        W32494  43.403  37.347  12.562
60202W        W32495   9.764  37.356   2.867
60203W        W32496  39.985  18.748   2.681
60204W        W32497  18.732  27.520   2.310
60205W        W32498  33.472  21.091  10.982
60206W        W32499   0.982  25.176   4.677
60207W        W32500  32.622   0.822   4.300
60208W        W32501  19.122   6.389  11.452
60209W        W32502  29.455  14.149   5.123
60210W        W32503  30.936  11.831   2.886
60211W        W32504  32.424   7.411  12.546
60212W        W32505  30.939  25.517   2.738
60213W        W32506  19.544  41.363   0.870
60214W        W32507  18.116  26.541  14.418
60215W        W32508   9.193  32.974   4.114
60216W        W32509  35.877  17.207   2.786
60217W        W32510  28.595  29.582   3.182
60218W        W32511  34.113  37.941   3.249
60219W        W32512  31.039  21.180   0.957
60220W        W32513  25.171  33.609  11.451
60221W        W32514  36.920  16.569  10.975
60222W        W32515  39.339  10.224   1.926
60223W        W32516   5.785  33.592   4.719
60224W        W32517   2.775  27.602   0.935
60225W        W32518  40.844  29.129  11.125
60226W        W32519   5.787  42.505  14.858
60227W        W32520  15.297  10.367  13.953
60228W        W32521  41.790  36.534  11.558
60229W        W32522  11.312  32.038   4.209
60230W        W32523  27.123   3.820   3.320
60231W        W32524  13.706   4.784   5.239
60232W        W32525  13.196  14.758   3.224
60233W        W32526  16.137  14.649  13.016
60234W        W32527  29.079   3.827  10.888
60235W        W32528   4.698  32.888  12.474
60236W        W32529   2.389  18.705   1.233
60237W        W32530  15.320  12.634  10.616
60238W        W32531  16.115  44.857   0.926
60239W        W32532  18.099  13.800   4.185
60240W        W32533  17.745  27.163  11.952
60241W        W32534  15.604  28.637  13.827
60242W        W32535  31.995  44.296  11.581
60243W        W32536  40.816  11.166  12.467
60244W        W32537  14.094  14.635  12.904
60245W        W32538  33.590  37.845   4.153
60246W        W32539  21.234  29.627   2.732
60247W        W32540  32.961   7.753  12.993
60248W        W32541  35.396  15.192   1.335
60249W        W32542   5.437  28.544   4.757
60250W        W32543   9.888  38.412   4.811
60251W        W32544   2.933   4.731   0.427
60252W        W32545   8.817  21.151  10.476
60253W        W32546  43.869  19.147  10.095
60254W        W32547  34.548  10.322  10.106
60255W        W32548  22.595  29.025  14.856
60256W        W32549  33.893  37.053   3.329
60257W        W32550  28.504  33.555  12.353
60258W        W32551  28.638  33.610   1.425
60259W        W32552  44.856  17.299  14.994
60260W        W32553   3.720   8.705   1.747
60261W        W32554  38.524  36.442   2.254
60262W        W32555  44.912  32.015   3.206
60263W        W32556  15.627  17.195  14.458
60264W        W32557   7.770  14.296   2.879
60265W        W32558  18.742  30.499  10.949
60266W        W32559  18.150  14.619  14.901
60267W        W32560  27.136  43.498   0.877
60268W        W32561  39.028   5.275   4.799
60269W        W32562  35.052  20.187  14.434
60270W        W32563  24.621   2.871  11.090
60271W        W32564  29.608  15.769  10.404
60272W        W32565  42.400  40.041   4.792
60273W        W32566   9.157  31.009   0.304
60274W        W32567  10.270  27.071  14.913
60275W        W32568  44.839  30.523   5.092
60276W        W32569  19.157  24.666   4.703
60277W        W32570  34.428  34.552   4.319
60278W        W32571  22.590  30.098  12.557
60279W        W32572   4.300  34.383  10.931
60280W        W32573  44.757  15.117   2.384
60281W        W32574  20.155   6.285  12.421
60282W        W32575  25.529  15.817   1.780
60283W        W32576  17.203   6.216   2.720
60284W        W32577  38.334  25.034  10.579
60285W        W32578  37.021   5.905   0.282
60286W        W32579  43.372   5.207  12.496
60287W        W32580   1.923   1.402  11.612
60288W        W32581  26.114   8.719  11.404
60289W        W32582   1.338  31.513  13.520
60290W        W32583   0.257   0.881  11.456
60291W        W32584  42.954  31.456   4.296
60292W        W32585   4.422  33.460  14.030
60293W        W32586  18.185   3.722  14.415
60294W        W32587  23.104  21.556   3.159
60295W        W32588  29.097   3.728  11.426
60296W        W32589  12.132  28.479  10.898
60297W        W32590  11.265   9.812   2.692
60298W        W32591  21.612  30.548   0.445
60299W        W32592   2.244  33.448   1.226
60300W        W32593  39.881  11.851   4.616
60301W        W32594  17.202  25.472   1.325
60302W        W32595   3.761  38.005   0.947
60303W        W32596  36.897   9.679   3.303
60304W        W32597  20.645  20.709  10.587
60305W        W32598   0.351   2.268  14.448
60306W        W32599  11.634  42.895  12.946
60307W        W32600  40.040  24.017  14.307
60308W        W32601  19.119  41.449   4.835
60309W        W32602  39.840  11.195  13.933
60310W        W32603  33.887   4.376   1.929
60311W        W32604  34.995  19.757  10.972
60312W        W32605   8.253  26.511   2.192
60313W        W32606  29.567   5.702   4.656
60314W        W32607   8.891  20.123  14.987
60315W        W32608  23.611   0.980   0.425
60316W        W32609  11.665   6.212   3.314
60317W        W32610  43.398  25.505  12.484
60318W        W32611  20.064  23.006  10.620
60319W        W32612  27.689  20.765   1.868
60320W        W32613  25.142  15.183  11.049
60321W        W32614  42.939  36.081  11.574
60322W        W32615  34.059  15.141  12.873
60323W        W32616  16.747  19.269   0.349
60324W        W32617  21.601  11.714  13.466
60325W        W32618   5.699  18.790   3.371
60326W        W32619  38.008   2.793   0.821
60327W        W32620  18.615   7.716  13.314
60328W        W32621  28.027  42.855  10.027
60329W        W32622  35.104   2.450   4.789
60330W        W32623  10.758   4.436   1.740
60331W        W32624  34.980  16.580   3.829
60332W        W32625   7.788  13.695  12.419
60333W        W32626  21.730  24.974  14.917
60334W        W32627  31.997  28.581  13.536
60335W        W32628  31.639  23.054   3.717
60336W        W32629  26.063  17.264  11.498
60337W        W32630  40.827  15.156  11.022
60338W        W32631  29.034  20.185   2.351
60339W        W32632  26.631   5.341   1.295
60340W        W32633  15.663  26.164   3.646
60341W        W32634   4.802  42.322   0.267
60342W        W32635  37.850  28.962   2.353
60343W        W32636   7.725  20.068   1.273
60344W        W32637  31.907  13.117   3.344
60345W        W32638  24.607  27.114  10.622
60346W        W32639  42.776  12.178  14.367
60347W        W32640  27.077  34.528  12.844
60348W        W32641  26.501   9.297  12.546
60349W        W32642  33.514   0.309   4.224
60350W        W32643  19.145  32.029   4.140
60351W        W32644  16.298  37.454   5.157
60352W        W32645  34.983  27.195   3.263
60353W        W32646  19.211   3.809  12.405
60354W        W32647   1.760   8.332  13.965
60355W        W32648  36.022  40.035  10.482
60356W        W32649   7.819   7.908   1.756
60357W        W32650  38.944  28.929  10.416
60358W        W32651  29.489  32.577  12.469
60359W        W32652  19.629  20.685   2.209
60360W        W32653  37.083   1.806  13.966
60361W        W32654  31.904  30.571  13.363
60362W        W32655  16.176  31.911   3.658
60363W        W32656  37.518   5.882   0.385
60364W        W32657  38.991  26.621   4.835
60365W        W32658  19.656   0.949   0.440
60366W        W32659   6.296  13.183  12.975
60367W        W32660   6.905  37.076  14.432
60368W        W32661  39.004   2.356   1.447
60369W        W32662  37.475  25.666   1.364
60370W        W32663  20.702  26.133  10.557
60371W        W32664  13.196   1.444   3.276
60372W        W32665  10.779  17.768   1.303
60373W        W32666  12.181  39.897  10.962
60374W        W32667  36.424  16.754  14.762
60375W        W32668  21.162  30.983  10.083
60376W        W32669  22.068  43.776  14.911
60377W        W32670  22.684   8.814   2.820
60378W        W32671  43.412  21.242   3.660
60379W        W32672  14.618  24.113  14.912
60380W        W32673  26.114  27.984  12.956
60381W        W32674   9.284  42.879   0.915
60382W        W32675  15.246  33.626  11.518
60383W        W32676  13.299  12.158   0.342
60384W        W32677  23.501  13.734   2.901
60385W        W32678   1.405  19.649   2.265
60386W        W32679  37.505   3.716   4.837
60387W        W32680  35.385  39.928   2.781
60388W        W32681  12.267  17.555  12.505
60389W        W32682  37.842   4.214  12.907
60390W        W32683  31.996  36.866   1.228
60391W        W32684   0.480   6.772   2.239
60392W        W32685  38.933  20.101  11.963
60393W        W32686  35.589  13.288  14.836
60394W        W32687  24.214   0.911   1.225
60395W        W32688  10.787  30.536   1.354
60396W        W32689  29.589  12.278   3.250
60397W        W32690  14.755  23.067   2.228
60398W        W32691  20.614  34.435  11.031
60399W        W32692   7.855  18.600  12.378
60400W        W32693  24.204  15.786   0.963
60401W        W32694   8.837  21.075  12.067
60402W        W32695   0.428  20.102  11.863
60403W        W32696   9.882  19.106   4.775
60404W        W32697   8.811  17.228  13.500
60405W        W32698   5.252  39.928   1.864
60406W        W32699  38.385  16.710   1.424
60407W        W32700  26.142  26.992   0.251
60408W        W32701  14.235  23.629   2.688
60409W        W32702  24.710  15.678  11.378
60410W        W32703   5.426  37.344   4.131
60411W        W32704  34.068   2.932  11.989
60412W        W32705  36.993  28.989   3.181
60413W        W32706  19.667  25.205  14.413
60414W        W32707  40.328  19.725   4.259
60415W        W32708   1.428  40.544   0.763
60416W        W32709  23.140  39.449  13.003
60417W        W32710   3.924  44.295   0.779
60418W        W32711  19.094  35.398  11.008
60419W        W32712   2.443   8.655  11.586
60420W        W32713  41.371  28.065   3.838
60421W        W32714  43.860  36.389  14.970
60422W        W32715  37.045   1.475   4.348
60423W        W32716  19.636   7.319  13.992
60424W        W32717  15.773  31.972  13.836
60425W        W32718  16.711  30.944   3.157
60426W        W32719   3.785  44.778  12.903
60427W        W32720  40.370   0.898   1.822
60428W        W32721  13.219  10.844  14.787
60429W        W32722   7.788  24.657  13.333
60430W        W32723  31.944   7.759  11.958
60431W        W32724  10.233  15.756   4.279
60432W        W32725  23.025  40.878   0.460
60433W        W32726   6.852   0.462   2.223
60434W        W32727  42.893  27.947  11.859
60435W        W32728  41.812   0.382  12.057
60436W        W32729  41.974  41.373   1.318
60437W        W32730  24.043  33.575  10.605
60438W        W32731  32.921   1.354  10.975
60439W        W32732  37.906  30.156  12.029
60440W        W32733  20.651  15.106  11.543
60441W        W32734  23.146  35.958  12.085
60442W        W32735  34.612  19.142   1.865
60443W        W32736  28.175   2.965  13.861
60444W        W32737  15.238  25.149  10.500
60445W        W32738  34.098  15.633   0.777
60446W        W32739  22.162  44.266  14.923
60447W        W32740  15.172  35.481  14.400
60448W        W32741  25.192  31.025  14.333
60449W        W32742  34.446  26.970   3.350
60450W        W32743  12.289  26.456   1.731
60451W        W32744  29.503   7.183  12.558
60452W        W32745  32.419  34.574   3.366
60453W        W32746  23.144  17.578   3.801
60454W        W32747  41.864  37.436  10.050
60455W        W32748  30.509  42.338   1.799
60456W        W32749  38.932  41.328  13.806
60457W        W32750  34.593  12.173  14.788
60458W        W32751  27.159  44.476   3.631
60459W        W32752   7.199  40.392  13.482
60460W        W32753  30.980  36.583  12.036
60461W        W32754   9.373  18.626  10.409
60462W        W32755  28.493  41.329   2.277
60463W        W32756   1.851  30.471   2.223
60464W        W32757  33.059  23.194   2.679
60465W        W32758  26.979  39.895   3.167
60466W        W32759  27.548  35.006  12.417
60467W        W32760  26.578  26.459   1.218
60468W        W32761  15.772  38.976  13.444
60469W        W32762  29.096  17.715  11.420
60470W        W32763   9.347  10.223  12.460
60471W        W32764   1.451  25.571   0.734
60472W        W32765  37.866   2.933  14.415
60473W        W32766   0.330  35.853  12.835
60474W        W32767  29.972   5.850  13.431
60475W        W32768  32.599  20.067   3.221
60476W        W32769  20.524  29.454   1.846
60477W        W32770  16.233  33.018   0.810
60478W        W32771  26.611  10.869  14.837
60479W        W32772  33.431  13.778   3.663
60480W        W32773   6.875   7.296   0.896
60481W        W32774  11.199  26.127  11.389
60482W        W32775  11.867  12.338  15.000
60483W        W32776  35.033  12.829   4.293
60484W        W32777  28.508  14.634   4.219
60485W        W32778  41.366  33.459  10.499
60486W        W32779  11.668  11.621   2.283
60487W        W32780  42.930  12.332   3.165
60488W        W32781  28.116  18.186  10.077
60489W        W32782  39.448  15.320   4.742
60490W        W32783  28.112   5.823  10.889
60491W        W32784  31.928  19.655  10.552
60492W        W32785  14.102   1.870  12.071
60493W        W32786  21.220  29.005   0.776
60494W        W32787   3.872  31.516   2.768
60495W        W32788  14.115   4.940   5.297
60496W        W32789  10.344  29.533   5.278
60497W        W32790  26.024   5.815  12.445
60498W        W32791  31.040  31.937   1.270
60499W        W32792  19.586  20.623  12.999
60500W        W32793  43.835  12.694  11.857
60501W        W32794   9.688   6.727   0.370
60502W        W32795  23.676  42.434  14.826
60503W        W32796  30.447  33.461  10.594
60504W        W32797  22.068  22.651  11.464
60505W        W32798  43.364   8.711   9.921
60506W        W32799   8.342  34.569   0.812
60507W        W32800  20.660  25.062  13.413
60508W        W32801  36.911   5.217   2.839
60509W        W32802  43.313  38.960   3.805
60510W        W32803  32.547  18.734   3.819
60511W        W32804  23.060  40.961   4.838
60512W        W32805  34.515   8.716  14.763
60513W        W32806  41.436   5.324  11.995
60514W        W32807  40.933  19.604  14.867
60515W        W32808  15.582  19.616  12.028
60516W        W32809  20.138  17.257  11.945
60517W        W32810  19.043  32.407   9.936
60518W        W32811   0.358  32.522  14.861
60519W        W32812  13.195  34.875  13.465
60520W        W32813  19.126  37.977  11.496
60521W        W32814   9.741   4.417  12.882
60522W        W32815  33.084  35.971   2.746
60523W        W32816  33.024   2.773   2.249
60524W        W32817  38.489  23.150   2.316
60525W        W32818  40.048  31.410   4.775
60526W        W32819   2.264   1.392  12.386
60527W        W32820  30.627  19.112  11.031
60528W        W32821  18.718  26.569  10.431
60529W        W32822  10.235  30.425  14.393
60530W        W32823  14.252   5.308  10.450
60531W        W32824  32.096  10.364   4.692
60532W        W32825   9.662  17.754   3.371
60533W        W32826  13.748  33.434   4.224
60534W        W32827  28.996   9.185   9.618
60535W        W32828  15.118  36.009  13.884
60536W        W32829  17.699  14.774  11.446
60537W        W32830  23.155  41.402  13.311
60538W        W32831   8.379   8.208   1.251
60539W        W32832   2.845  11.312  11.949
60540W        W32833  32.085  29.583  11.943
60541W        W32834  29.502  20.625  10.900
60542W        W32835  15.663  19.198   2.198
60543W        W32836  16.133  20.230  11.046
60544W        W32837  27.653   4.434   1.761
60545W        W32838   7.236  21.099  12.544
60546W        W32839  21.661  16.623   3.826
60547W        W32840  32.595  29.169  12.831
60548W        W32841  32.887   8.724   0.810
60549W        W32842  20.148   2.787   3.635
60550W        W32843  39.412  33.131  13.443
60551W        W32844  15.141  28.158  14.815
60552W        W32845  17.285  18.174   4.259
60553W        W32846  37.548  12.241   1.315
60554W        W32847  44.866  14.192  10.976
60555W        W32848   9.665   9.150  10.621
60556W        W32849  24.071   2.467   0.343
60557W        W32850  19.562  16.200  13.896
60558W        W32851   3.822  37.336  14.938
60559W        W32852  33.082   0.941  14.398
60560W        W32853  32.109  38.062   0.737
60561W        W32854  31.634   4.882   3.719
60562W        W32855   1.746   5.872   0.897
60563W        W32856   0.772  33.023   0.897
60564W        W32857  42.804  34.578  12.888
60565W        W32858  15.773  26.068   1.883
60566W        W32859  21.662  13.137  13.048
60567W        W32860  28.131  29.642  11.387
60568W        W32861  43.465  28.947   2.783
60569W        W32862  20.139   2.749   2.315
60570W        W32863   4.341  22.651   4.331
60571W        W32864  15.620   9.841  11.878
60572W        W32865  24.676  40.982  10.964
60573W        W32866  39.339  19.566  10.575
60574W        W32867  22.707   9.654   1.859
60575W        W32868  43.822  10.381  10.530
60576W        W32869  38.495   3.874   3.246
60577W        W32870  27.496  18.074   0.481
60578W        W32871  26.038  14.204  12.868
60579W        W32872  34.962  21.657   0.868
60580W        W32873   9.157  17.072  14.010
60581W        W32874  43.478  43.902   1.740
60582W        W32875   0.812  36.381  12.489
60583W        W32876  24.572   1.783   3.256
60584W        W32877   3.248  27.989   0.807
60585W        W32878  30.504  12.761   1.426
60586W        W32879  31.904   2.930  11.891
60587W        W32880  34.507   7.873   0.872
60588W        W32881  16.790  30.599  12.060
60589W        W32882  31.074  41.034   3.232
60590W        W32883   3.941  28.167  10.957
60591W        W32884  19.103  43.434  14.773
60592W        W32885  29.464   8.723  10.048
60593W        W32886  42.510  14.206  12.513
60594W        W32887  33.523   2.724   1.259
60595W        W32888  23.580   0.849  11.993
60596W        W32889  18.173  15.706   0.749
60597W        W32890  36.397   7.812   2.284
60598W        W32891  18.768  39.908  14.325
60599W        W32892   4.302  29.497   0.741
60600W        W32893  34.452   3.873   2.877
60601W        W32894  19.730  23.044   4.218
60602W        W32895  40.014  12.762   1.268
60603W        W32896  28.452   7.669   4.612
60604W        W32897  21.016  43.462   4.293
60605W        W32898  14.132  44.325   3.838
60606W        W32899   0.489  22.584  14.403
60607W        W32900  15.122   3.904   3.189
60608W        W32901  38.850  15.132  11.037
60609W        W32902  20.670  38.353  13.533
60610W        W32903  18.659   5.921  13.488
60611W        W32904   6.786  37.874  12.914
60612W        W32905  30.596   6.259   2.702
60613W        W32906  28.645  32.094  10.996
60614W        W32907   0.826  14.295  14.943
60615W        W32908   3.429  11.744  10.489
60616W        W32909  40.931   8.773   0.859
60617W        W32910  27.520  38.458  12.406
60618W        W32911  40.491  24.617  14.407
60619W        W32912  27.654  19.222  12.978
60620W        W32913   5.726  37.404   4.175
60621W        W32914  17.214  18.159  10.981
60622W        W32915  16.795   4.811  12.903
60623W        W32916   9.365   6.812   0.864
60624W        W32917  43.484  23.566  10.016
60625W        W32918  44.505  39.842  14.279
60626W        W32919  35.502  41.324   2.315
60627W        W32920  14.775  11.651   1.828
60628W        W32921   7.693  41.412   0.794
60629W        W32922  14.758  24.216  11.096
60630W        W32923  12.257  31.035   4.706
60631W        W32924  12.148  34.084  11.444
60632W        W32925  25.997  35.439  13.845
60633W        W32926  35.096  12.815  13.316
60634W        W32927  41.524   9.811   0.729
60635W        W32928  13.722   2.761  14.024
60636W        W32929  44.780  15.182   0.817
60637W        W32930  15.772   9.737   0.875
60638W        W32931  29.985  15.204  12.392
60639W        W32932  25.660  28.992  10.926
60640W        W32933  19.114  33.529   1.855
60641W        W32934  40.032  12.274  13.936
60642W        W32935  22.688   0.907   0.462
60643W        W32936  19.547  44.445  11.560
60644W        W32937  43.915  35.047  10.478
60645W        W32938  36.541  16.784  12.492
60646W        W32939  26.173  13.226   1.845
60647W        W32940  20.148  41.859   2.351
60648W        W32941  31.467  12.768  12.547
60649W        W32942   6.751   0.768   2.766
60650W        W32943  15.678  31.991  10.410
60651W        W32944   3.263  33.471   0.730
60652W        W32945   1.405   5.202   0.472
60653W        W32946  32.560   9.279   3.684
60654W        W32947   6.413  21.173  12.091
60655W        W32948  32.527  29.611  14.412
60656W        W32949   5.878  19.186   4.771
60657W        W32950  34.579  28.516  10.956
60658W        W32951  26.497  26.026  10.501
60659W        W32952   2.456  20.693  12.962
60660W        W32953  41.353  29.591   2.801
60661W        W32954   0.801  20.645  11.899
60662W        W32955  27.690   3.823   1.910
60663W        W32956  30.420  42.858   2.675
60664W        W32957  14.293   8.385  10.900
60665W        W32958   5.373   7.675  13.060
60666W        W32959  41.940  19.575  11.392
60667W        W32960  44.266  19.607  13.797
60668W        W32961  18.623  13.272   2.346
60669W        W32962   6.293  38.963   4.213
60670W        W32963  14.641  37.981  10.621
60671W        W32964  16.729  43.395  12.998
60672W        W32965  40.887  35.859   3.703
60673W        W32966  14.331  44.823   1.866
60674W        W32967  33.503  26.130  10.555
60675W        W32968  23.621  16.752  13.020
60676W        W32969  41.388  41.360   1.904
60677W        W32970  31.137  31.901   4.302
60678W        W32971  10.292  23.208   2.193
60679W        W32972  15.118   5.283  13.812
60680W        W32973  28.460  41.877   3.282
60681W        W32974  10.212   5.837   3.180
60682W        W32975  25.036  32.988   4.138
60683W        W32976  34.066  17.693   3.679
60684W        W32977  19.643  12.800  14.852
60685W        W32978   7.760  21.546   3.268
60686W        W32979  38.848   3.862  13.527
60687W        W32980   8.825  38.453   3.838
60688W        W32981  37.947  29.126   1.318
60689W        W32982  32.131   4.393  14.828
60690W        W32983  24.582  44.811   2.666
60691W        W32984  33.125  13.717   1.411
60692W        W32985  40.358   9.205   2.339
60693W        W32986  31.464  35.985   2.758
60694W        W32987  11.291  25.986   1.833
60695W        W32988  23.587   4.740  11.551
60696W        W32989  25.993  38.961   4.697
60697W        W32990   5.697   4.858   0.816
60698W        W32991  15.248   7.412   2.206
60699W        W32992  40.421  12.191  11.093
60700W        W32993  24.057   7.331   4.258
60701W        W32994  10.786  13.178   1.407
60702W        W32995   1.827  10.833  12.510
60703W        W32996   1.922  13.634  12.056
60704W        W32997   4.415  32.108   0.845
60705W        W32998  35.946  26.025   3.675
60706W        W32999  40.402  39.829  13.926
60707W        W33000  29.944  27.011  11.948
60708W        W33001   5.222  39.331  11.612
60709W        W33002  42.435  20.169   2.225
60710W        W33003   7.375  35.855   5.296
60711W        W33004  32.513   8.359   4.831
60712W        W33005  27.040  36.427  12.562
60713W        W33006  28.162  19.196  12.959
60714W        W33007  23.613  25.080   2.267
60715W        W33008  37.053  41.451  10.425
60716W        W33009   8.707   1.860   2.202
60717W        W33010  42.459  25.674  11.520
60718W        W33011   0.303   8.402  14.384
60719W        W33012  44.868  11.667  11.921
60720W        W33013  17.257  12.139   1.913
60721W        W33014   5.846  27.602  11.409
60722W        W33015  15.258  37.973   3.739
60723W        W33016   0.392  24.066   2.768
60724W        W33017  36.354  32.584   1.851
60725W        W33018  38.545  28.448   1.277
60726W        W33019   5.214  22.539  13.013
60727W        W33020  34.461  10.654   2.662
60728W        W33021  35.442   1.295   1.349
60729W        W33022   7.880  42.924  14.454
60730W        W33023  16.670  24.215  12.065
60731W        W33024   8.317  41.860   2.885
60732W        W33025   5.242   0.470   2.310
60733W        W33026  19.542  26.629   2.419
60734W        W33027  15.101  41.529  14.479
60735W        W33028  17.200   3.955  13.402
60736W        W33029  22.573  19.268   1.909
60737W        W33030   1.766  23.511   3.803
60738W        W33031  37.983  30.131  13.984
60739W        W33032  30.542  25.705   1.413
60740W        W33033  42.448   4.329   4.754
60741W        W33034  22.641  15.167   4.131
60742W        W33035  12.811   7.673  11.018
60743W        W33036  27.092  16.752   1.369
60744W        W33037  31.049  36.379  12.465
60745W        W33038  42.825  11.794  11.513
60746W        W33039   6.389  21.747   3.810
60747W        W33040   1.781  36.484   2.250
60748W        W33041  38.527  13.303   1.852
60749W        W33042  33.971  42.333  13.438
60750W        W33043  11.811  25.607  10.643
60751W        W33044   8.362  16.169   1.900
60752W        W33045   6.307   5.715   4.254
60753W        W33046   3.428  17.705   4.233
60754W        W33047  33.530   9.655   1.259
60755W        W33048  18.090  26.555  11.870
60756W        W33049  28.587  26.100   3.708
60757W        W33050  11.776   4.422  13.521
60758W        W33051  29.543   2.781  11.412
60759W        W33052  10.850   6.848  11.491
60760W        W33053  37.881   8.713   2.194
60761W        W33054  32.046  40.318   0.784
60762W        W33055   1.741  16.677   0.927
60763W        W33056  44.966  18.161   3.285
60764W        W33057   5.334  14.812  13.002
60765W        W33058  36.872  44.782  12.080
60766W        W33059  19.600  25.183   2.671
60767W        W33060  15.685  23.727   3.743
60768W        W33061  19.756  30.940  10.519
60769W        W33062   7.299  33.553   5.082
60770W        W33063  36.991   0.346  11.903
60771W        W33064  29.139  33.022  13.332
60772W        W33065   1.443  13.181  14.841
60773W        W33066   1.907  15.313  11.473
60774W        W33067  17.709  35.393  13.886
60775W        W33068  42.787  44.978   1.789
60776W        W33069  15.183   6.191  13.315
60777W        W33070  26.631  28.478   1.256
60778W        W33071  44.883  35.964  14.461
60779W        W33072  38.372  42.806   3.194
60780W        W33073   7.794  28.646   1.381
60781W        W33074  10.854  29.499  10.576
60782W        W33075  27.959  14.590  14.893
60783W        W33076  44.369  40.398  10.613
60784W        W33077  30.581  33.625   2.251
60785W        W33078  41.350  36.992  12.572
60786W        W33079  39.933  25.125  13.535
60787W        W33080   9.750   2.377   0.457
60788W        W33081  21.108  12.633   1.424
60789W        W33082  30.943  20.140   4.738
60790W        W33083  22.129  37.538  13.320
60791W        W33084  38.400  19.090   2.878
60792W        W33085  41.524  13.804  12.996
60793W        W33086  36.508  35.041  14.380
60794W        W33087  29.656   2.465   3.635
60795W        W33088   6.185  38.933   2.233
60796W        W33089  24.605  39.551   3.329
60797W        W33090  43.270  10.316   3.665
60798W        W33091  18.196  18.662   3.725
60799W        W33092  18.567  13.321   1.445
60800W        W33093  22.536  44.858  12.908
60801W        W33094  35.889  28.658  10.977
60802W        W33095  43.797   7.366  12.982
60803W        W33096   0.890  44.327   3.784
60804W        W33097   8.885  40.452  13.356
60805W        W33098  35.068  12.204  13.983
60806W        W33099   8.881  17.773  12.071
60807W        W33100  16.804   5.374   0.791
60808W        W33101  11.680  40.855   4.778
60809W        W33102  22.033  20.561  14.284
60810W        W33103  38.909  15.177   3.278
60811W        W33104  33.398  36.512  12.432
60812W        W33105  26.584  27.580  12.041
60813W        W33106  33.577  22.534   2.347
60814W        W33107  21.239   2.466   2.781
60815W        W33108  19.541  43.288   3.685
60816W        W33109   6.723  13.286  14.802
60817W        W33110  40.004  38.461   1.402
60818W        W33111   8.391  26.545   0.763
60819W        W33112  29.151  25.531   2.666
60820W        W33113  13.190  39.935  14.457
60821W        W33114  39.872  25.584  11.002
60822W        W33115   9.784  12.327   0.886
60823W        W33116  41.411   7.742  14.806
60824W        W33117  27.622   2.777   2.836
60825W        W33118   1.307  36.473   1.812
60826W        W33119  44.817  18.196   5.755
60827W        W33120   4.269  22.729   1.434
60828W        W33121   8.205  39.331   0.351
60829W        W33122  34.962  14.149  14.364
60830W        W33123  15.179   3.861   1.773
60831W        W33124   6.811  15.180   2.346
60832W        W33125  33.395  20.203  14.370
60833W        W33126  36.881  31.602   3.273
60834W        W33127  40.414  20.063   2.848
60835W        W33128  10.290  20.246   1.443
60836W        W33129  40.933  36.357  11.110
60837W        W33130  35.041  21.743   2.715
60838W        W33131  32.949  21.655  10.610
60839W        W33132  14.760  21.694  13.050
60840W        W33133  19.624  26.687   0.886
60841W        W33134  13.347  29.448  12.936
60842W        W33135  24.700  28.671  11.114
60843W        W33136  13.173   6.239  10.979
60844W        W33137  36.483  41.818   4.265
60845W        W33138   3.411  22.630   0.470
60846W        W33139  27.633  29.081   0.475
60847W        W33140  16.780  30.144  12.352
60848W        W33141  37.491  31.049   0.268
60849W        W33142  37.916   1.863   4.712
60850W        W33143  12.215  24.622  11.013
60851W        W33144  25.534  39.502  11.916
60852W        W33145  15.815  25.648   4.142
60853W        W33146   9.376  37.337  11.475
60854W        W33147   8.265  36.448  12.553
60855W        W33148  24.130  21.551  14.503
60856W        W33149  28.100  10.855  10.430
60857W        W33150   9.758  41.817  12.920
60858W        W33151  39.975  35.436   2.757
60859W        W33152   3.312  27.643   3.274
60860W        W33153  41.464   0.273   3.839
60861W        W33154   5.844  22.675   3.819
60862W        W33155  19.726  25.629  14.470
60863W        W33156   4.293  24.197  14.807
60864W        W33157   7.895  41.358   2.836
60865W        W33158  29.120  12.309  14.873
60866W        W33159  19.622  39.036   2.242
60867W        W33160  12.258  23.070  14.428
60868W        W33161  33.595  11.179   1.791
60869W        W33162   5.873  11.140   4.181
60870W        W33163   2.280  37.342   4.742
60871W        W33164  20.719  33.460   1.814
60872W        W33165   9.776  23.224  13.367
60873W        W33166  29.040  17.612   2.740
60874W        W33167   0.817   6.825  13.850
60875W        W33168  11.668  44.954  10.583
60876W        W33169  22.088  23.603   0.738
60877W        W33170  19.646   0.986   1.821
60878W        W33171  26.684   3.413  14.949
60879W        W33172   6.322   5.392  12.843
60880W        W33173  16.574  24.698  10.891
60881W        W33174  17.754  39.056  11.586
60882W        W33175  19.140  36.985  13.397
60883W        W33176  16.176   1.438   1.822
60884W        W33177  24.635  20.041  10.896
60885W        W33178  34.444  42.460   4.771
60886W        W33179  41.538  33.405   3.700
60887W        W33180  41.506  10.246  13.442
60888W        W33181  14.117  40.538   2.237
60889W        W33182  14.756  31.595   3.374
60890W        W33183  14.736  12.226  13.894
60891W        W33184   9.673  25.070  12.352
60892W        W33185   7.798  40.955  12.979
60893W        W33186  24.122  24.112  10.438
60894W        W33187  22.644  26.465   9.975
60895W        W33188  19.186  21.111   0.920
60896W        W33189  16.622   3.833   2.753
60897W        W33190  13.743  24.487  11.557
60898W        W33191  29.551   4.322   4.292
60899W        W33192  42.864   8.227   1.735
60900W        W33193  32.566   5.403  14.951
60901W        W33194   3.214  29.931  12.431
60902W        W33195  34.598  20.619  13.865
60903W        W33196  37.364   9.252   1.306
60904W        W33197   9.690  37.854   0.878
60905W        W33198  22.232  40.336   4.775
60906W        W33199  23.168  20.679  10.953
60907W        W33200  21.697  33.930   4.675
60908W        W33201   4.240  20.707   2.380
60909W        W33202  34.877  18.673   2.850
60910W        W33203  25.996  39.837  11.107
60911W        W33204   3.938  29.969  10.963
60912W        W33205  20.543  37.414   2.702
60913W        W33206   0.482  31.947  12.405
60914W        W33207  33.877  21.038   4.271
60915W        W33208  35.010   9.347  14.888
60916W        W33209  14.618  41.484  10.952
60917W        W33210   1.754  38.522  11.542
60918W        W33211  18.565   5.421  10.913
60919W        W33212  18.641  12.787   3.860
60920W        W33213  39.849  16.728   3.191
60921W        W33214  42.456  36.916  13.892
60922W        W33215  44.809  23.618   1.772
60923W        W33216   5.328   9.842  12.412
60924W        W33217  21.713  44.463   2.785
60925W        W33218  41.979  24.562   0.824
60926W        W33219  30.055  19.258  12.869
60927W        W33220  30.641  17.101  14.352
60928W        W33221  30.053  38.390  11.430
60929W        W33222  27.504  38.329  14.019
60930W        W33223   9.731  15.257  13.504
60931W        W33224  27.064  43.779   4.761
60932W        W33225  10.746  16.079  13.969
60933W        W33226  27.569  27.153   1.284
60934W        W33227  11.143  22.674  13.546
60935W        W33228  14.651  12.630   3.350
60936W        W33229  19.687  39.438  14.782
60937W        W33230  22.616  29.997   3.250
60938W        W33231   6.388  21.199   4.195
60939W        W33232  25.191  24.720  11.474
60940W        W33233  32.622  22.146  10.529
60941W        W33234  21.253  42.411   2.307
60942W        W33235  15.690  30.042  13.001
60943W        W33236  43.382  26.493  12.977
60944W        W33237  42.888  11.743  13.946
60945W        W33238  38.903  31.420   3.782
60946W        W33239  43.351   8.851  11.533
60947W        W33240  40.474  44.497   5.688
60948W        W33241  43.988  33.013   9.576
60949W        W33242  28.509  18.069  14.916
60950W        W33243   4.369   2.251   1.411
60951W        W33244   6.688  31.928   3.314
60952W        W33245  11.222  15.609   0.379
60953W        W33246  25.140  11.293   2.765
60954W        W33247   7.411   3.461  13.309
60955W        W33248  42.787   0.952   0.933
60956W        W33249  40.463  39.029  12.883
60957W        W33250  34.915  13.174  12.911
60958W        W33251  41.928  37.065   2.358
60959W        W33252  26.123  38.042  10.623
60960W        W33253  12.233   3.270   5.611
60961W        W33254  38.512   1.278   2.726
60962W        W33255  43.781  11.329   1.428
60963W        W33256  30.543  21.694  12.089
60964W        W33257  18.221   9.161  14.025
60965W        W33258   7.687  30.161  12.827
60966W        W33259  37.337  40.024  13.505
60967W        W33260  19.068  26.070  11.942
60968W        W33261  39.025  14.199   2.670
60969W        W33262  27.949  44.408   1.251
60970W        W33263  22.546   5.711   2.184
60971W        W33264  18.790   6.278  13.532
60972W        W33265  13.688   6.364   1.267
60973W        W33266   9.391   5.841   1.923
60974W        W33267  32.936   5.843  11.966
60975W        W33268  36.936  30.983   3.303
60976W        W33269  36.913  44.913  12.922
60977W        W33270  33.003  42.818   4.636
60978W        W33271  26.195  12.275   1.722
60979W        W33272  17.115  27.484   0.887
60980W        W33273  34.470  22.152  13.797
60981W        W33274   5.713  30.579  13.024
60982W        W33275  30.089  37.463   9.997
60983W        W33276  14.238  19.268  14.307
60984W        W33277   8.837  12.350   3.349
60985W        W33278  29.549  18.560  12.033
60986W        W33279  27.958  19.235  14.016
60987W        W33280  29.986   5.317   4.167
60988W        W33281  19.768  19.270  12.970
60989W        W33282  22.612   4.232   4.825
60990W        W33283  11.828  30.112   2.219
60991W        W33284  10.806  20.110   2.882
60992W        W33285  23.168  25.194   3.795
60993W        W33286  36.351  44.319  12.573
60994W        W33287   6.198  43.278  12.350
60995W        W33288  26.172  36.947   2.225
60996W        W33289   3.341   2.292   2.819
60997W        W33290   4.338   1.240  12.932
60998W        W33291  16.215  40.501   4.272
60999W        W33292  21.104   1.475   2.716
61000W        W33293  35.984  16.617  13.515
61001W        W33294  34.043  29.084   1.740
61002W        W33295  29.604  17.098   2.270
61003W        W33296  19.114  36.892  14.291
61004W        W33297  14.125  34.911  13.996
61005W        W33298  32.904  24.103  11.522
61006W        W33299  26.109   6.860   1.227
61007W        W33300  35.948   3.313   2.825
61008W        W33301  28.598   6.390   1.698
61009W        W33302   2.318  24.029   0.390
61010W        W33303   7.280  10.754  14.786
61011W        W33304  41.998  19.623   9.977
61012W        W33305   3.248   5.767   4.303
61013W        W33306  43.421  30.593  13.946
61014W        W33307  14.164  27.599  10.527
61015W        W33308  43.322  28.158  13.993
61016W        W33309  26.630   0.833  11.921
61017W        W33310   0.886  36.543   0.423
61018W        W33311  18.725  20.098   5.202
61019W        W33312  29.490  25.690  11.538
61020W        W33313  19.186   7.721   3.840
61021W        W33314  39.066  32.129  12.416
61022W        W33315  17.790   9.688   0.469
61023W        W33316  40.533  32.900   4.648
61024W        W33317  10.782  28.593  11.863
61025W        W33318  12.306  11.297   3.713
61026W        W33319   9.254   9.762  14.816
61027W        W33320   0.851  34.069   5.299
61028W        W33321  17.769  29.130   0.296
61029W        W33322   0.248   7.701  14.859
61030W        W33323   1.741   4.907  11.500
61031W        W33324  19.601   4.793   0.834
61032W        W33325   7.719   1.324   4.198
61033W        W33326  34.893  41.822  12.969
61034W        W33327  12.703  34.544   1.396
61035W        W33328   3.413  36.043   1.309
61036W        W33329  25.156  34.392  11.486
61037W        W33330  19.185  33.577  14.283
61038W        W33331  17.758  27.962   1.737
61039W        W33332  40.343   1.751  10.451
61040W        W33333   8.741  37.064  11.126
61041W        W33334   7.770  22.500   0.401
61042W        W33335   7.238   2.899   2.262
61043W        W33336   4.815  15.145   3.384
61044W        W33337  13.605   7.221   4.753
61045W        W33338  15.737  11.832   0.361
61046W        W33339   5.326  12.694  13.427
61047W        W33340  13.219  41.395   9.999
61048W        W33341  42.975  23.021   4.617
61049W        W33342  36.587  10.878   4.221
61050W        W33343  32.934  36.359   4.254
61051W        W33344   9.160  38.835  14.496
61052W        W33345  38.873  19.258   3.223
61053W        W33346  31.000  42.815   5.250
61054W        W33347   3.756  34.004  11.919
61055W        W33348  15.286  18.601   0.919
61056W        W33349  34.969   1.343  12.349
61057W        W33350   4.428   7.229  12.408
61058W        W33351   5.732  28.103   1.721
61059W        W33352   0.374  21.246  14.513
61060W        W33353   2.923  30.914   3.192
61061W        W33354   2.392  19.055   2.254
61062W        W33355  21.248  21.712   3.306
61063W        W33356  31.445  40.523   0.760
61064W        W33357  14.218  32.962  12.078
61065W        W33358   0.353  33.108  14.364
61066W        W33359  15.238   1.391  14.828
61067W        W33360  23.713   8.181  12.862
61068W        W33361  17.770  42.302   0.354
61069W        W33362  44.267   1.844   0.748
61070W        W33363   7.338  12.218   0.778
61071W        W33364  25.689   5.279   0.322
61072W        W33365  36.072  25.159  10.418
61073W        W33366  27.579  44.008  10.477
61074W        W33367  38.859   2.368   0.873
61075W        W33368  43.955  37.363   1.701
61076W        W33369  44.397  38.555  13.538
61077W        W33370  42.500  32.622  10.639
61078W        W33371  42.461  19.590   4.331
61079W        W33372  40.939  12.820  12.044
61080W        W33373   6.217  37.874   1.787
61081W        W33374  42.022  10.176   0.415
61082W        W33375   7.312   2.914   2.783
61083W        W33376  44.811  39.942   1.331
61084W        W33377  30.581  22.609   4.621
61085W        W33378  44.992  24.554   1.712
61086W        W33379  15.792   3.230   0.833
61087W        W33380  11.860  42.468   2.193
61088W        W33381   6.871  24.565  13.016
61089W        W33382   8.750   2.448  12.071
61090W        W33383  10.151  43.979   2.247
61091W        W33384  26.669   8.380  12.860
61092W        W33385  36.096  40.835  12.870
61093W        W33386  19.160   2.907   1.371
61094W        W33387  22.137   8.302  10.908
61095W        W33388  22.624  29.982  11.542
61096W        W33389  28.453  12.781   4.183
61097W        W33390  33.573  16.213  10.974
61098W        W33391   5.739   1.350  10.569
61099W        W33392   1.333  28.507  13.870
61100W        W33393   7.695  42.963   0.285
61101W        W33394  15.689  12.809  11.908
61102W        W33395  30.431  17.205  11.928
61103W        W33396  44.963  36.462  10.138
61104W        W33397   3.282   0.352  10.485
61105W        W33398  35.913  12.216  13.368
61106W        W33399  12.168  34.080   0.441
61107W        W33400   6.421  14.135   2.773
61108W        W33401  23.234  16.283  14.410
61109W        W33402  36.957   5.231   3.647
61110W        W33403  20.250  43.021  11.512
61111W        W33404  11.206  14.116   2.221
61112W        W33405   8.350  39.520  12.006
61113W        W33406   2.309  38.417  10.910
61114W        W33407  36.940   7.703  11.394
61115W        W33408  12.789  33.904   2.766
61116W        W33409  25.040  20.174   4.701
61117W        W33410  33.991  41.859  10.939
61118W        W33411  24.018  14.727  14.861
61119W        W33412  13.310  18.709   0.378
61120W        W33413   8.736  21.640  14.021
61121W        W33414  41.992  23.691   3.374
61122W        W33415  33.496  31.428   2.735
61123W        W33416  25.598   7.708  14.384
61124W        W33417  18.059  37.890  14.416
61125W        W33418  21.138   9.702   0.475
61126W        W33419  42.284  39.367  10.463
61127W        W33420  32.483  43.295  14.014
61128W        W33421   6.861  12.355  14.389
61129W        W33422  43.972  31.047   2.690
61130W        W33423  42.451  35.030  11.495
61131W        W33424  42.881  32.532   2.231
61132W        W33425  29.094  27.988  14.941
61133W        W33426  37.474  40.893  14.277
61134W        W33427  37.845  43.990   3.196
61135W        W33428  29.645  13.164  14.465
61136W        W33429  43.305  11.807   2.862
61137W        W33430   1.423  44.305   0.482
61138W        W33431  28.618  34.902   0.942
61139W        W33432  40.936  19.262  13.489
61140W        W33433  42.976  42.308  12.343
61141W        W33434  16.806  37.849   4.151
61142W        W33435  15.110  36.012  10.976
61143W        W33436  28.032   7.358   2.682
61144W        W33437  14.190  27.008   0.849
61145W        W33438  31.120   6.391  14.002
61146W        W33439  13.640   8.176  14.382
61147W        W33440  19.618  22.150   4.787
61148W        W33441  32.937  23.000  11.051
61149W        W33442  41.387  11.154   0.407
61150W        W33443  15.620   9.735  13.455
61151W        W33444  28.105  25.064   4.266
61152W        W33445  26.052   5.383  13.539
61153W        W33446  26.147   2.293  11.374
61154W        W33447   7.771  34.565   3.245
61155W        W33448  15.126   9.847   3.314
61156W        W33449  13.237  30.028  11.603
61157W        W33450  34.990  18.665   4.711
61158W        W33451  23.585   4.287  14.906
61159W        W33452   0.981  35.935   4.210
61160W        W33453  40.538  28.015  10.066
61161W        W33454  25.590   5.415   1.767
61162W        W33455  41.907  27.114  12.400
61163W        W33456  19.100  42.961  10.504
61164W        W33457  18.115  28.056  12.090
61165W        W33458  10.644  17.625   0.766
61166W        W33459  23.601   0.317  11.118
61167W        W33460   8.179   3.399   5.232
61168W        W33461  31.897  37.367  11.472
61169W        W33462  15.257  30.601  11.481
61170W        W33463  11.306  24.089   0.842
61171W        W33464  40.485  27.101   3.364
61172W        W33465   9.306  27.138  10.934
61173W        W33466  23.585  24.613   4.637
61174W        W33467   3.286  23.577   4.232
61175W        W33468  15.645  18.657  13.047
61176W        W33469  30.939  10.680   2.197
61177W        W33470  43.271  26.475   3.747
61178W        W33471   9.273  42.343   2.179
61179W        W33472  23.055  20.147  14.859
61180W        W33473  22.098  38.053   2.743
61181W        W33474  18.190  17.288   4.118
61182W        W33475  42.962  25.028  12.879
61183W        W33476  12.671   9.816  12.438
61184W        W33477  28.128  24.077  11.014
61185W        W33478  29.164  26.105  14.978
61186W        W33479   4.833   9.664   0.409
61187W        W33480  36.016  44.796   3.785
61188W        W33481  23.016  28.601  14.763
61189W        W33482   6.198  43.824   2.209
61190W        W33483  40.541  12.310  13.834
61191W        W33484  23.155  10.293  10.994
61192W        W33485  37.070   9.818   1.388
61193W        W33486  26.613   8.796   4.691
61194W        W33487  27.675  33.985   3.269
61195W        W33488   2.469  30.479  14.950
61196W        W33489  10.234  11.656  13.475
61197W        W33490  20.178  40.914   4.133
61198W        W33491  28.608  39.466  14.361
61199W        W33492  42.798  37.883   2.402
61200W        W33493   0.847  35.891   0.410
61201W        W33494  14.214  24.676   3.193
61202W        W33495   2.850  34.004  12.388
61203W        W33496  36.890  20.030   0.914
61204W        W33497  23.140  24.614   2.814
61205W        W33498   9.673  10.185   2.228
61206W        W33499  36.382  27.687  11.517
61207W        W33500   1.742  19.202  11.917
61208W        W33501   2.408  26.190  11.986
61209W        W33502  30.145  42.822  14.797
61210W        W33503  31.492  19.187   4.622
61211W        W33504  16.267  31.081  10.460
61212W        W33505  29.095   2.944  14.011
61213W        W33506  42.807   3.729   4.261
61214W        W33507  43.990  31.455  12.486
61215W        W33508   3.795  13.117   2.221
61216W        W33509  11.808   4.937  10.967
61217W        W33510  33.973   5.923  13.892
61218W        W33511   9.802   2.837  13.046
61219W        W33512  32.046  14.221  13.807
61220W        W33513   7.888  19.042  13.352
61221W        W33514  31.507  15.799  10.912
61222W        W33515  33.407  39.542  11.445
61223W        W33516  22.080  41.414   0.737
61224W        W33517  25.051   5.358  10.912
61225W        W33518  38.836  15.618  13.427
61226W        W33519   9.651  17.193  11.882
61227W        W33520  25.188   3.765   5.693
61228W        W33521  21.672   4.377  13.012
61229W        W33522  12.323   6.692   4.131
61230W        W33523  33.389  22.529  11.523
61231W        W33524   1.796  41.435   4.208
61232W        W33525  19.166  31.481  12.853
61233W        W33526   5.389  38.328  11.437
61234W        W33527  13.330  10.775   0.360
61235W        W33528  40.317  38.868   4.193
61236W        W33529  12.313  42.460  13.819
61237W        W33530  25.559   3.807  11.467
61238W        W33531  25.028  38.051  13.442
61239W        W33532   8.778  26.597   3.314
61240W        W33533  22.227  38.016   0.322
61241W        W33534  18.181  28.677  12.996
61242W        W33535  34.416  29.470  13.493
61243W        W33536   8.789  44.263   4.811
61244W        W33537   3.343  24.140   0.761
61245W        W33538   1.427  37.077   1.855
61246W        W33539   0.919  33.906   2.779
61247W        W33540  21.261  16.716   0.405
61248W        W33541   8.366  18.246  11.896
61249W        W33542  31.566  24.096   4.732
61250W        W33543  12.644   0.283   4.616
61251W        W33544  38.905  14.298  10.975
61252W        W33545  40.480  31.435   4.297
61253W        W33546  35.431   0.946  12.506
61254W        W33547   3.767  26.680   0.771
61255W        W33548  43.419  43.450  10.115
61256W        W33549  19.109  38.488  11.596
61257W        W33550  28.537   5.355   2.379
61258W        W33551  37.539  16.738  14.979
61259W        W33552   4.372  13.157  11.506
61260W        W33553   8.347  40.524  11.898
61261W        W33554  41.414  15.798   4.675
61262W        W33555  11.245   6.857   0.828
61263W        W33556  31.983  42.901   0.802
61264W        W33557   6.720   7.311   1.935
61265W        W33558   9.737  39.903  11.430
61266W        W33559  21.625  31.012  11.591
61267W        W33560  15.296  41.841   1.350
61268W        W33561  37.932  21.148   0.831
61269W        W33562  39.966  38.837   2.187
61270W        W33563  27.467  21.642   1.370
61271W        W33564  35.997  23.642  14.510
61272W        W33565  25.091  35.105  10.625
61273W        W33566  19.690   1.341  13.976
61274W        W33567  32.611   9.356   1.834
61275W        W33568   6.806   2.456   4.243
61276W        W33569  15.207  31.537   4.690
61277W        W33570  18.200  24.225   4.191
61278W        W33571  38.045  19.129  10.912
61279W        W33572  11.209  24.102  12.351
61280W        W33573  31.497  43.950   3.631
61281W        W33574  21.208   9.792   1.282
61282W        W33575   5.878   9.823  13.976
61283W        W33576   2.942   7.303   1.317
61284W        W33577  36.566  39.928  10.902
61285W        W33578  22.527   2.409   4.781
61286W        W33579  10.743  15.660   3.737
61287W        W33580  11.147  15.786  12.473
61288W        W33581  15.597  39.027   4.175
61289W        W33582   4.844  41.390   0.790
61290W        W33583  20.147  23.625   3.283
61291W        W33584   4.723  40.967  14.286
61292W        W33585  32.098  19.748   0.763
61293W        W33586  32.116  29.053   4.300
61294W        W33587  14.718   4.407   0.897
61295W        W33588  42.437  28.530   0.849
61296W        W33589   3.791  32.575   2.674
61297W        W33590   5.287  33.121   0.383
61298W        W33591  20.083  27.607  11.469
61299W        W33592   5.273  35.015  10.410
61300W        W33593  33.445   5.920  14.886
61301W        W33594  27.613  41.538  14.323
61302W        W33595  18.733  32.539   3.744
61303W        W33596   9.159  34.866   0.394
61304W        W33597  10.383   7.265   2.709
61305W        W33598  42.349   8.678  13.859
61306W        W33599  38.967  23.034   2.856
61307W        W33600   3.228  41.014  10.613
61308W        W33601  41.942  27.510   2.866
61309W        W33602   5.903  24.058  12.371
61310W        W33603  26.187  34.439   3.236
61311W        W33604  30.483  40.919   2.691
61312W        W33605  25.062  34.885   5.214
61313W        W33606   7.262  36.088  14.821
61314W        W33607  32.572  14.171   1.231
61315W        W33608  37.354  17.663   1.334
61316W        W33609  17.737  15.255  13.800
61317W        W33610  16.693  16.614   4.598
61318W        W33611  23.063  13.208   4.180
61319W        W33612  21.561  11.673   9.988
61320W        W33613  42.852   1.299   0.371
61321W        W33614  29.016   1.334  13.056
61322W        W33615  18.778  29.084  13.494
61323W        W33616   9.199  22.185  12.511
61324W        W33617   5.784  38.434  10.632
61325W        W33618  11.253   4.341   0.880
61326W        W33619   8.702  27.019   3.664
61327W        W33620  15.717   2.460   3.208
61328W        W33621  43.959  30.948  11.005
61329W        W33622  24.070  27.167   1.384
61330W        W33623  19.553  31.519  11.538
61331W        W33624  36.986  36.545  14.921
61332W        W33625  39.538   5.883   2.214
61333W        W33626  17.224  18.145   1.210
61334W        W33627  16.792  42.327  11.389
61335W        W33628   9.165  23.639  14.452
61336W        W33629  34.890  26.643  14.765
61337W        W33630  27.632  29.580   3.219
61338W        W33631   8.780  11.686  14.420
61339W        W33632   3.231  43.371  12.989
61340W        W33633  23.618  32.490  11.977
61341W        W33634  35.460   7.417  12.342
61342W        W33635  42.909  36.483   4.682
61343W        W33636  26.522  24.625  14.824
61344W        W33637  34.054  28.932  14.433
61345W        W33638   2.292  38.855  12.061
61346W        W33639  14.630  34.459   2.184
61347W        W33640  44.915  32.940  10.554
61348W        W33641  14.673   0.422  10.453
61349W        W33642  10.244  38.981   1.240
61350W        W33643   4.749  35.075  12.452
61351W        W33644  24.584  43.015   1.707
61352W        W33645  13.797   8.876  13.923
61353W        W33646  26.524  13.169  10.443
61354W        W33647  44.781  44.338  14.363
61355W        W33648   7.251  33.913  11.381
61356W        W33649  35.564  42.804  14.826
61357W        W33650  17.085   0.380   2.826
61358W        W33651   7.849  18.273  12.057
61359W        W33652  44.765  25.529   3.638
61360W        W33653  23.106   4.818   2.375
61361W        W33654   5.706  28.447   4.650
61362W        W33655  33.886  19.640   4.790
61363W        W33656  32.889  13.289  10.917
61364W        W33657   9.190  38.327  12.824
61365W        W33658  44.869   6.903  14.423
61366W        W33659   3.297   3.827   2.364
61367W        W33660   4.885  37.571  11.876
61368W        W33661  26.579  24.202  12.884
61369W        W33662  40.341  40.335  14.508
61370W        W33663  10.143  32.095  13.404
61371W        W33664  42.012  29.951  11.977
61372W        W33665  16.574  35.899   1.359
61373W        W33666  16.740  20.625   1.850
61374W        W33667   6.859  12.842   1.340
61375W        W33668  16.241  32.550   1.873
61376W        W33669   8.211  36.375   5.198
61377W        W33670  31.984   5.377  12.877
61378W        W33671  34.939  42.465   0.451
61379W        W33672  44.421  40.359  14.368
61380W        W33673  24.609  25.128   2.331
61381W        W33674   7.205   3.451  13.851
61382W        W33675  19.545   2.304   2.878
61383W        W33676  44.291  13.662   1.831
61384W        W33677  41.501  19.074  13.957
61385W        W33678  27.120  36.450  13.313
61386W        W33679  15.237  23.209  11.108
61387W        W33680  28.516  32.529   4.773
61388W        W33681  36.558   1.822  12.076
61389W        W33682  34.607  22.212   1.400
61390W        W33683  12.173  31.961   2.319
61391W        W33684  25.973  11.638  12.499
61392W        W33685  26.204  24.979  11.382
61393W        W33686  31.010  19.089   2.309
61394W        W33687   0.977   2.869   1.836
61395W        W33688  34.501   0.949   4.757
61396W        W33689  22.691  34.097  13.492
61397W        W33690   5.867  18.183  10.536
61398W        W33691   1.477   8.203  14.011
61399W        W33692  35.863  36.082   2.891
61400W        W33693   0.305  38.479   1.812
61401W        W33694  34.488   8.674   1.841
61402W        W33695  42.391  40.923  12.062
61403W        W33696  18.702  24.193  12.500
61404W        W33697  14.159   3.752   0.299
61405W        W33698  39.817  29.592   2.312
61406W        W33699  12.697  30.139  13.991
61407W        W33700  44.783  37.046   1.325
61408W        W33701   3.270  41.503   1.843
61409W        W33702  36.463   7.404  14.967
61410W        W33703  23.999  16.163  11.605
61411W        W33704  16.701  33.038  11.585
61412W        W33705  29.544  20.273  10.468
61413W        W33706  37.940  17.775   4.268
61414W        W33707  14.185  34.474  13.963
61415W        W33708  34.501  35.489   4.133
61416W        W33709  20.576  13.658   1.265
61417W        W33710  36.993  43.382   3.684
61418W        W33711   3.897  15.304  14.430
61419W        W33712  13.751   0.480   3.801
61420W        W33713  43.810   7.378   0.243
61421W        W33714  33.582  40.464   5.167
61422W        W33715  41.859   8.306   3.191
61423W        W33716  28.457  32.402  11.971
61424W        W33717  43.450  44.371   5.565
61425W        W33718  39.971  38.033   3.340
61426W        W33719  35.469  18.059   4.333
61427W        W33720  10.369  19.618  13.037
61428W        W33721  26.629  12.686  12.421
61429W        W33722  38.368  29.950   3.363
61430W        W33723  37.443  15.287   1.833
61431W        W33724  29.560  26.470   0.392
61432W        W33725  39.368  34.369  11.546
61433W        W33726  20.272  44.802  12.882
61434W        W33727  32.407  14.324  13.408
61435W        W33728  14.650  20.150   1.442
61436W        W33729  26.208  43.767  11.412
61437W        W33730  23.203  38.556  14.847
61438W        W33731   3.401   0.966  14.895
61439W        W33732  44.910   0.897  12.459
61440W        W33733   0.443  13.162  12.527
61441W        W33734  36.038  15.292  13.496
61442W        W33735  21.616  29.146   4.747
61443W        W33736   3.798  39.450   1.388
61444W        W33737  10.275  33.956  11.938
61445W        W33738  13.659  19.705   0.401
61446W        W33739  34.109   6.395  10.966
61447W        W33740  10.634   2.396  14.379
61448W        W33741  19.192  42.911   5.230
61449W        W33742  37.549  20.080  12.900
61450W        W33743  32.892  25.107  10.542
61451W        W33744   8.315   6.701  10.464
61452W        W33745  34.372  18.260   4.216
61453W        W33746  35.976  39.506  13.848
61454W        W33747  31.019  14.785   4.633
61455W        W33748  39.429  35.054   0.272
61456W        W33749  41.376   1.797   2.385
61457W        W33750  11.849  16.284   2.305
61458W        W33751  42.484  28.077   3.383
61459W        W33752  42.447  27.559   2.803
61460W        W33753  29.447  43.800   4.771
61461W        W33754  22.193  32.113   2.262
61462W        W33755   8.297  10.346   2.189
61463W        W33756  31.949   1.858   4.713
61464W        W33757  32.454  39.546   2.265
61465W        W33758   0.366  10.854   4.687
61466W        W33759  18.071  23.639   4.811
61467W        W33760  26.033  32.448  13.878
61468W        W33761   8.765  42.867   2.757
61469W        W33762  29.490  31.963  10.569
61470W        W33763  22.726  36.459  12.953
61471W        W33764   7.387  26.623   0.803
61472W        W33765  36.885  40.969  14.030
61473W        W33766  23.098  35.054   1.717
61474W        W33767  26.124  27.957   1.782
61475W        W33768  34.032  22.187  14.363
61476W        W33769  11.245  41.835  10.970
61477W        W33770   8.284  19.707  12.867
61478W        W33771  44.810  12.197  13.444
61479W        W33772  20.066   5.876  10.549
61480W        W33773  23.621  34.489   1.370
61481W        W33774  20.644  24.684   1.242
61482W        W33775  11.259  39.031  12.873
61483W        W33776  13.696  20.532   1.785
61484W        W33777  44.926  33.567   9.952
61485W        W33778   5.334  35.012  11.917
61486W        W33779   0.804  19.677  14.458
61487W        W33780  31.573  30.584   1.795
61488W        W33781  18.783  20.694  11.067
61489W        W33782  31.539   0.268  11.517
61490W        W33783  17.700  35.470  11.998
61491W        W33784  21.521  38.980   1.736
61492W        W33785  10.770  27.503  13.877
61493W        W33786   6.796  28.140  14.326
61494W        W33787  15.134   3.422   2.258
61495W        W33788  35.894  10.820   1.886
61496W        W33789  33.445  37.009   3.318
61497W        W33790  19.592  33.466   1.705
61498W        W33791  36.064   0.852   0.842
61499W        W33792  20.583  42.338   0.465
61500W        W33793  34.601  37.892  11.056
61501W        W33794   5.861  26.181   3.664
61502W        W33795  12.669   7.871   4.710
61503W        W33796   8.723  16.587  12.454
61504W        W33797  35.867   8.845   0.422
61505W        W33798  35.979  26.469   5.214
61506W        W33799   7.779  42.380   0.419
61507W        W33800  33.453   4.351   1.236
61508W        W33801   6.875  43.394   4.121
61509W        W33802  39.868   2.429   4.771
61510W        W33803   4.939  23.079  10.904
61511W        W33804  21.206   1.961  14.826
61512W        W33805  23.175  44.835  13.841
61513W        W33806  43.449   8.745   2.899
61514W        W33807   7.807  11.843  10.136
61515W        W33808   8.687  10.820  13.423
61516W        W33809   4.372  21.079   0.334
61517W        W33810  33.053  14.610   2.360
61518W        W33811  42.422  26.580  12.370
61519W        W33812   7.746  23.662   2.229
61520W        W33813   2.959  41.502  12.950
61521W        W33814  11.224  35.506  11.042
61522W        W33815   7.746   5.414  13.543
61523W        W33816  42.805  35.480  14.784
61524W        W33817   2.737   0.946  12.947
61525W        W33818  20.724  12.192  12.530
61526W        W33819  43.019  29.981   3.208
61527W        W33820  31.946  30.912   5.146
61528W        W33821  42.023   6.328  11.490
61529W        W33822  23.146  20.041   2.366
61530W        W33823  28.463  19.617  14.374
61531W        W33824   4.319  44.285   3.324
61532W        W33825  11.229  19.644  12.387
61533W        W33826  26.007  33.427   0.302
61534W        W33827  30.930   8.381  11.057
61535W        W33828  16.757  15.775   3.340
61536W        W33829   2.855  13.665   4.622
61537W        W33830  18.256  17.795   0.867
61538W        W33831   4.744  10.743  11.034
61539W        W33832  40.323  24.085  13.307
61540W        W33833  22.108  40.950   4.672
61541W        W33834   7.731  42.889   0.947
61542W        W33835  32.075   8.802  11.892
61543W        W33836  10.164  29.531   4.692
61544W        W33837  38.360  26.559  12.874
61545W        W33838  40.977  22.576   3.655
61546W        W33839   1.322  32.990  11.439
61547W        W33840   7.905   3.844   1.747
61548W        W33841  19.722  14.260   0.324
61549W        W33842  13.620   9.842   4.207
61550W        W33843  16.132  44.322   0.251
61551W        W33844  38.544  22.080   4.166
61552W        W33845   2.402  19.618  11.990
61553W        W33846   7.865  40.448  11.564
61554W        W33847  18.092  43.999  10.495
61555W        W33848  26.584  13.613  12.856
61556W        W33849  41.005   4.889   0.873
61557W        W33850  34.891  41.470   0.260
61558W        W33851   6.238  34.468  12.006
61559W        W33852  28.082  20.147  14.369
61560W        W33853  10.723   5.908  13.866
61561W        W33854   1.311   4.721   4.618
61562W        W33855  15.238   6.312   1.911
61563W        W33856  20.033  28.150  14.469
61564W        W33857  27.049  22.252  13.367
61565W        W33858  35.093  40.935  11.128
61566W        W33859  30.537   9.650   3.662
61567W        W33860  21.573  19.277   0.851
61568W        W33861  37.059  17.747   4.312
61569W        W33862  41.420  28.468   1.361
61570W        W33863  10.809   8.726  12.477
61571W        W33864   2.865  37.384   3.634
61572W        W33865  30.417   1.837  13.840
61573W        W33866  42.829  31.938   0.338
61574W        W33867  15.756  10.818  14.507
61575W        W33868   3.920  27.679   2.250
61576W        W33869  14.616  16.596   4.213
61577W        W33870  11.171  42.400  12.415
61578W        W33871  33.104   2.877  14.928
61579W        W33872  31.994  36.425   3.235
61580W        W33873  29.103  28.650  14.921
61581W        W33874  30.601  15.621   1.410
61582W        W33875  21.089   4.883   5.309
61583W        W33876   5.863  24.487  10.534
61584W        W33877  43.768  21.207  14.948
61585W        W33878  16.302  21.182  10.982
61586W        W33879  16.749  30.076  14.348
61587W        W33880   1.314   6.191   3.368
61588W        W33881  10.824  27.976   2.860
61589W        W33882  13.265   1.788  11.978
61590W        W33883  29.109  17.252   3.649
61591W        W33884  40.956  36.914   2.264
61592W        W33885   1.274  29.968  11.930
61593W        W33886   8.810   4.884   3.285
61594W        W33887  43.395  20.274   5.263
61595W        W33888  27.645  24.071   1.804
61596W        W33889  37.476  17.642  12.346
61597W        W33890  21.055  36.428   4.272
61598W        W33891  44.811  18.280  11.546
61599W        W33892   0.319  30.659  13.902
61600W        W33893  41.898   8.303  11.903
61601W        W33894  29.610   1.411   1.834
61602W        W33895  20.723  43.394  12.495
61603W        W33896  23.106  24.567  10.571
61604W        W33897  23.093  18.124   0.388
61605W        W33898  20.128   6.790  14.847
61606W        W33899  27.173   8.267   1.716
61607W        W33900  21.213  39.491  10.921
61608W        W33901  12.280  23.191   1.269
61609W        W33902  35.930  29.974   1.922
61610W        W33903  25.194  40.510  11.127
61611W        W33904  41.987  20.618   4.329
61612W        W33905  34.012   2.349   3.293
61613W        W33906  19.687   5.704   2.833
61614W        W33907   3.837  21.567   0.270
61615W        W33908   2.930   7.338   2.816
61616W        W33909   0.379  38.969   4.643
61617W        W33910  39.913  17.702  12.991
61618W        W33911  17.231  30.950  11.571
61619W        W33912  21.520  33.093   0.843
61620W        W33913   9.317  10.878  14.913
61621W        W33914   7.722  36.849  14.851
61622W        W33915  32.561  39.049  11.555
61623W        W33916  37.033   0.779  11.914
61624W        W33917  31.059  44.886  14.854
61625W        W33918  22.547  44.395   1.876
61626W        W33919  11.733  26.582  14.891
61627W        W33920  37.041  21.019  11.868
61628W        W33921  37.938  27.521   0.338
61629W        W33922  25.514   1.292  11.017
61630W        W33923  27.144  13.117   0.404
61631W        W33924  35.980  32.615  14.299
61632W        W33925   7.691  37.939  10.919
61633W        W33926   8.404  39.518   1.727
61634W        W33927  27.034  43.818  11.460
61635W        W33928  30.997  27.604  14.946
61636W        W33929  29.020   9.313  13.518
61637W        W33930  20.039  17.700   4.732
61638W        W33931  30.983  37.512  12.538
61639W        W33932  43.420   4.286  13.548
61640W        W33933  13.764  39.324  13.476
61641W        W33934  12.167  27.501   4.623
61642W        W33935   9.849  31.540  11.992
61643W        W33936  19.175  37.349   0.830
61644W        W33937  40.911  25.114  12.946
61645W        W33938  15.640   7.704   1.796
61646W        W33939   5.701   8.763   2.373
61647W        W33940  40.844  21.108  11.069
61648W        W33941  15.640  31.901  11.046
61649W        W33942  40.937  19.657   0.888
61650W        W33943  39.901  36.346   1.725
61651W        W33944  30.546  38.565   3.767
61652W        W33945  16.745  33.443  13.893
61653W        W33946   7.831  43.469   4.745
61654W        W33947  40.328  11.140  11.037
61655W        W33948  35.361  31.913   1.791
61656W        W33949   9.242  27.494   4.724
61657W        W33950   5.226  41.992   0.785
61658W        W33951  23.028   2.352  13.856
61659W        W33952  39.047  39.526  14.280
61660W        W33953  36.407  27.976  12.880
61661W        W33954  16.299  28.522   0.784
61662W        W33955  41.002  20.044   3.765
61663W        W33956  17.773  33.929   4.606
61664W        W33957  31.468  24.606  14.500
61665W        W33958   2.468  24.028   5.266
61666W        W33959  27.589  33.018  11.448
61667W        W33960   7.410  37.355  13.440
61668W        W33961  26.569  31.996  12.456
61669W        W33962  20.221  24.103   3.234
61670W        W33963  44.815  42.352   1.393
61671W        W33964  14.301  23.012   2.186
61672W        W33965  28.446   0.317   2.703
61673W        W33966  35.427  20.064  11.386
61674W        W33967   9.265  18.126   3.348
61675W        W33968   9.179  22.583   3.858
61676W        W33969  12.200   0.438   1.829
61677W        W33970  16.202  40.998   2.363
61678W        W33971  19.139   0.450   0.309
61679W        W33972  15.693  39.859  12.464
61680W        W33973  44.764  22.655   4.714
61681W        W33974  35.434  30.488   2.244
61682W        W33975  10.790  30.096   3.758
61683W        W33976  44.765  24.550  10.465
61684W        W33977  39.031   5.221  11.512
61685W        W33978  41.349   0.286   2.837
61686W        W33979  30.114  34.526  13.546
61687W        W33980  27.087  33.493  14.885
61688W        W33981  22.092  26.089  13.893
61689W        W33982   8.814  21.086  13.018
61690W        W33983  21.737  12.347   4.683
61691W        W33984  21.594  11.766   1.367
61692W        W33985  24.024  10.819   1.319
61693W        W33986   8.836  23.101  11.905
61694W        W33987  11.187   3.730   0.373
61695W        W33988  37.509  37.036  13.351
61696W        W33989  14.221  12.173  13.466
61697W        W33990  28.119  36.401  12.959
61698W        W33991  22.064  29.502   3.360
61699W        W33992  13.330  25.510   0.306
61700W        W33993  44.391  35.899  10.449
61701W        W33994  39.448  10.664  13.937
61702W        W33995  31.005  42.404   2.285
61703W        W33996  35.007  38.489   4.783
61704W        W33997  23.718  25.581   1.264
61705W        W33998  38.899  10.704   0.779
61706W        W33999  14.124  31.442   3.349
61707W        W34000  39.451  36.468   3.168
61708W        W34001  38.059  30.438   3.271
61709W        W34002   7.373   7.676  13.018
61710W        W34003  23.589  20.761   1.797
61711W        W34004  40.048  40.820  11.013
61712W        W34005   6.690  10.370   3.673
61713W        W34006  23.191   9.747  12.030
61714W        W34007  40.968  12.193  14.946
61715W        W34008  26.048  13.629  10.908
61716W        W34009   5.220   2.466  11.996
61717W        W34010  21.630  32.626   1.805
61718W        W34011   6.391  41.369   4.138
61719W        W34012   2.854   6.273   4.179
61720W        W34013  14.681  32.987   0.437
61721W        W34014  41.424  28.670  10.950
61722W        W34015   1.751  34.867  11.386
61723W        W34016  29.454  14.658   1.774
61724W        W34017   5.199  12.207  14.304
61725W        W34018  40.412  17.652  11.105
61726W        W34019  33.955  36.960   4.667
61727W        W34020  10.324  10.200  11.405
61728W        W34021  35.385  26.529   3.302
61729W        W34022  19.641  20.081  12.531
61730W        W34023  10.765   1.336   2.186
61731W        W34024  14.594   9.844   0.273
61732W        W34025  22.606  37.025   4.121
61733W        W34026  20.109  43.400   2.326
61734W        W34027  30.911  29.513  10.614
61735W        W34028  37.076  40.464  10.555
61736W        W34029   3.929  24.665  13.901
61737W        W34030  23.642   0.831  12.494
61738W        W34031  44.878  36.364  13.903
61739W        W34032  12.798  18.163  13.365
61740W        W34033  20.158  34.948  10.150
61741W        W34034  13.298  36.045   4.826
61742W        W34035  31.456  14.145  14.908
61743W        W34036  33.014   7.240  11.471
61744W        W34037  28.977  21.735   2.360
61745W        W34038  33.985  33.047  12.831
61746W        W34039  21.207   9.247   1.264
61747W        W34040   8.814  43.976  12.984
61748W        W34041   3.864   6.194  14.829
61749W        W34042  25.660   5.213  11.965
61750W        W34043   9.762  20.144   4.749
61751W        W34044  15.305   6.805   3.839
61752W        W34045  36.386  24.592   2.257
61753W        W34046  44.895  14.765   1.298
61754W        W34047  36.558   8.803   0.861
61755W        W34048  22.710  35.855   0.289
61756W        W34049  19.730   0.898  12.923
61757W        W34050  25.143   6.415   4.616
61758W        W34051  43.871  11.209  14.442
61759W        W34052  40.516  12.732  10.124
61760W        W34053  26.511  11.357  12.403
61761W        W34054  42.842  29.003  10.036
61762W        W34055  25.014  26.502   2.718
61763W        W34056  17.653  23.503  13.793
61764W        W34057  17.100  30.621   3.704
61765W        W34058   6.835  30.120  13.792
61766W        W34059   1.875   3.436  10.961
61767W        W34060  19.137  41.790   2.775
61768W        W34061  41.927   1.950   1.239
61769W        W34062   7.848   4.866  10.127
61770W        W34063  28.497   9.761  11.076
61771W        W34064  34.046  24.143  14.486
61772W        W34065  11.296  41.391  13.002
61773W        W34066  28.474  26.608   1.255
61774W        W34067   2.722  25.664  11.380
61775W        W34068  41.316  15.670   0.338
61776W        W34069  22.087  35.017   1.415
61777W        W34070  30.606   1.412  10.554
61778W        W34071  23.534  23.539  12.560
61779W        W34072  27.005   2.427  11.942
61780W        W34073   9.863   2.745   4.597
61781W        W34074  33.034  10.811   2.751
61782W        W34075  27.597  26.560  10.445
61783W        W34076  25.487   3.764   4.278
61784W        W34077  21.160  11.859   3.384
61785W        W34078  11.159  28.113   1.372
61786W        W34079  42.886  35.064   1.256
61787W        W34080  44.373  36.863  11.091
61788W        W34081  39.454  11.816   4.674
61789W        W34082   5.390   2.468  10.621
61790W        W34083   7.754  12.776   1.340
61791W        W34084  28.086  14.746   3.202
61792W        W34085  28.081  16.717   3.802
61793W        W34086  35.585  37.981  12.511
61794W        W34087   7.830  19.678   4.155
61795W        W34088  24.109  13.326  12.347
61796W        W34089  22.530   5.258  12.056
61797W        W34090  21.748  17.101  11.414
61798W        W34091   5.876  20.630  14.345
61799W        W34092  36.034  29.629   3.238
61800W        W34093  25.006  21.061   1.436
61801W        W34094   5.385  24.575  14.403
61802W        W34095   5.367  44.259  13.427
61803W        W34096   5.411  18.222   4.129
61804W        W34097  32.986  19.774   2.350
61805W        W34098  21.558  25.600  11.472
61806W        W34099  40.505   3.373  13.525
61807W        W34100  32.045  34.382  14.917
61808W        W34101  35.981  38.936   3.230
61809W        W34102  28.033  44.924   1.292
61810W        W34103  30.497  33.539  12.835
61811W        W34104  11.785  35.063   2.328
61812W        W34105   1.848  23.175   1.211
61813W        W34106  23.606  19.124   0.259
61814W        W34107  18.231  22.075   4.766
61815W        W34108  37.940  36.958   0.321
61816W        W34109  21.636  15.193  10.436
61817W        W34110  40.518  33.018   1.285
61818W        W34111  11.158  39.425  10.492
61819W        W34112   3.888  40.945   2.703
61820W        W34113   5.747  32.049  12.391
61821W        W34114  41.031   4.243   4.265
61822W        W34115  43.993  32.121  14.329
61823W        W34116  42.796   6.769   1.278
61824W        W34117  37.893   5.908  11.015
61825W        W34118   2.381  11.799  10.942
61826W        W34119  43.373  15.708  11.588
61827W        W34120   8.316  14.649   0.392
61828W        W34121  18.279   3.855   4.346
61829W        W34122  21.618  28.454   3.329
61830W        W34123   6.691  17.575  10.940
61831W        W34124  38.878  24.707   4.807
61832W        W34125   7.213  29.598   3.349
61833W        W34126  21.038  33.440  11.409
61834W        W34127   8.899  33.616   1.846
61835W        W34128  29.992  11.155  13.863
61836W        W34129  38.483  43.873  11.489
61837W        W34130   3.265  10.271  13.882
61838W        W34131   5.775  30.091   2.875
61839W        W34132  39.314  17.755   2.417
61840W        W34133   0.351  13.310  11.101
61841W        W34134  18.197  10.810   0.391
61842W        W34135  11.662   5.230  14.842
61843W        W34136   3.725   9.869   1.424
61844W        W34137  10.362  42.795  13.343
61845W        W34138  27.653  39.385   4.221
61846W        W34139  41.983  22.670  10.963
61847W        W34140  31.507  21.081   0.481
61848W        W34141  19.663   0.491  12.090
61849W        W34142  39.385  29.018   3.689
61850W        W34143  20.085  44.458   2.410
61851W        W34144  29.639  33.076   3.158
61852W        W34145  29.467  11.862   0.749
61853W        W34146   5.765  17.695   0.925
61854W        W34147  14.629  27.507   3.297
61855W        W34148  27.969   3.869  11.432
61856W        W34149   6.737   4.398  11.077
61857W        W34150  18.141  12.662  11.991
61858W        W34151  27.688  37.891  13.373
61859W        W34152  14.270  30.946  14.491
61860W        W34153  30.609  41.826  12.371
61861W        W34154  19.705  12.169   0.293
61862W        W34155  22.182  20.535   2.728
61863W        W34156  16.141  18.766  11.537
61864W        W34157  14.102  28.513  12.956
61865W        W34158  25.092  11.159   3.296
61866W        W34159  27.507   5.197  10.441
61867W        W34160  15.578   3.737   3.246
61868W        W34161  15.284  14.326  14.312
61869W        W34162  35.410  25.045   4.711
61870W        W34163  39.951  26.625   1.361
61871W        W34164  16.661  39.324   2.877
61872W        W34165  20.659  15.705   2.765
61873W        W34166  11.766  29.457  12.870
61874W        W34167  30.652   0.913   1.310
61875W        W34168  27.568  39.514   2.273
61876W        W34169  14.703  24.025   1.312
61877W        W34170   5.789  39.549  14.406
61878W        W34171  10.264  36.549   1.847
61879W        W34172   3.935  13.324   3.724
61880W        W34173  11.257   9.668  10.455
61881W        W34174  14.772  26.964  11.858
61882W        W34175  11.665  43.463   4.208
61883W        W34176  39.013  14.824  11.422
61884W        W34177  24.157  28.172   5.207
61885W        W34178   1.740  39.427   1.256
61886W        W34179  24.997  41.899  12.478
61887W        W34180   9.829  44.432  13.947
61888W        W34181  25.470  13.695  13.372
61889W        W34182  38.331  35.590  13.857
61890W        W34183   4.422  10.711  12.564
61891W        W34184  19.609  11.262   0.346
61892W        W34185  42.835  31.070   2.243
61893W        W34186  18.189  37.536   0.455
61894W        W34187  41.817  15.692  13.491
61895W        W34188  28.124  22.595   1.432
61896W        W34189  43.302  34.989   1.430
61897W        W34190  12.712   8.754  14.479
61898W        W34191  12.820  13.303  12.572
61899W        W34192  43.313  36.975  12.872
61900W        W34193  14.320   4.941   4.239
61901W        W34194  39.051  13.723   4.149
61902W        W34195   2.904  18.675  13.947
61903W        W34196  36.477  36.977   1.822
61904W        W34197  16.310  14.249   0.859
61905W        W34198  24.671  32.009   1.378
61906W        W34199  30.052   0.487   1.323
61907W        W34200  38.043  15.743  11.548
61908W        W34201  20.741   0.352   3.729
61909W        W34202   2.430  38.329  10.416
61910W        W34203  26.114  38.959  10.645
61911W        W34204  35.370  31.967   2.340
61912W        W34205  31.402  19.735   3.184
61913W        W34206  20.544  13.803  13.422
61914W        W34207  10.369  40.872  10.555
61915W        W34208  22.075  20.093   4.253
61916W        W34209   3.787  43.406  12.364
61917W        W34210  34.115  29.938  13.829
61918W        W34211  39.949   4.865   4.726
61919W        W34212  40.302  34.864  10.531
61920W        W34213   4.851  26.106  11.122
61921W        W34214  32.470  13.716   3.327
61922W        W34215  12.252  14.186   2.324
61923W        W34216  15.592   5.250  10.428
61924W        W34217  15.185   8.392   4.653
61925W        W34218  12.219  30.010  14.343
61926W        W34219  26.078  38.952  11.468
61927W        W34220   1.436   6.732  14.292
61928W        W34221   7.228   6.807  14.405
61929W        W34222  34.025  19.700   0.933
61930W        W34223  34.017  35.002  13.876
61931W        W34224  22.602   8.706   3.318
61932W        W34225  35.452  44.925  12.448
61933W        W34226  28.085   3.802   0.415
61934W        W34227   4.337  18.079   0.845
61935W        W34228  30.993  43.453  12.368
61936W        W34229  32.574  22.717  13.985
61937W        W34230  15.295  40.401   0.405
61938W        W34231  38.365  16.207   4.283
61939W        W34232  26.204  22.741  11.914
61940W        W34233   4.749   7.857  12.058
61941W        W34234  34.435  18.645   3.665
61942W        W34235  10.692  38.897  11.927
61943W        W34236  42.392  18.218  10.424
61944W        W34237  36.876  17.174  11.866
61945W        W34238  31.018  32.024  13.374
61946W        W34239   0.795  24.006   2.311
61947W        W34240  25.565  43.943   4.802
61948W        W34241  13.761  27.083  10.515
61949W        W34242  44.289   5.745  11.922
61950W        W34243  11.313  22.574  14.009
61951W        W34244  18.693  39.994   0.316
61952W        W34245   1.388  34.878  13.351
61953W        W34246  32.939   8.336  10.094
61954W        W34247  24.590  19.665  12.854
61955W        W34248  32.445  44.260   1.237
61956W        W34249  38.358   4.399   1.421
61957W        W34250  13.340  31.983  14.772
61958W        W34251   3.844  16.092  11.117
61959W        W34252  16.285  21.685  12.076
61960W        W34253   1.865  32.951  12.002
61961W        W34254   4.220   7.314   4.826
61962W        W34255  23.137   6.844  12.510
61963W        W34256   1.924  38.359  11.916
61964W        W34257  39.472  37.896   4.756
61965W        W34258  36.389  25.549   2.815
61966W        W34259   6.302  33.554  13.456
61967W        W34260  31.040  28.656  10.493
61968W        W34261  10.302  41.357   9.979
61969W        W34262   2.738  40.404   1.777
61970W        W34263  38.823  41.309   3.749
61971W        W34264  13.272   9.840   1.233
61972W        W34265  29.432  44.992  12.948
61973W        W34266  43.878  28.074  14.411
61974W        W34267  31.518   9.650  12.091
61975W        W34268  34.895   4.815  10.551
61976W        W34269  39.005  14.248   4.229
61977W        W34270   1.474  10.217  13.469
61978W        W34271   7.722   4.331  11.401
61979W        W34272  36.060   1.752  13.467
61980W        W34273  36.375  11.314  11.604
61981W        W34274  14.140  36.085   0.950
61982W        W34275  15.721  23.237   2.239
61983W        W34276  40.808  16.726  11.975
61984W        W34277  36.908  22.545   1.905
61985W        W34278  29.042  23.735  10.541
61986W        W34279  33.917   5.319   3.275
61987W        W34280  41.504  36.485  14.947
61988W        W34281  40.405  12.654   4.730
61989W        W34282  31.145  17.622  12.073
61990W        W34283   2.821  24.183   2.898
61991W        W34284  16.719  44.839  12.923
61992W        W34285  29.089  26.694   2.839
61993W        W34286  43.465  44.828   3.835
61994W        W34287  17.170  19.082  12.914
61995W        W34288  32.523  26.528   3.654
61996W        W34289  36.570   1.915   0.373
61997W        W34290  28.656  27.455  11.996
61998W        W34291  30.953  39.038   4.240
61999W        W34292   1.323  10.367  13.843
62000W        W34293  39.821  43.799   2.329
62001W        W34294   0.934  34.474   2.329
62002W        W34295  35.898  13.218   3.335
62003W        W34296   0.258   1.783   2.256
62004W        W34297  15.321  36.959   1.824
62005W        W34298  10.637  29.039   3.177
62006W        W34299   1.447   0.799  11.004
62007W        W34300  14.674  44.442   1.368
62008W        W34301  29.093  16.789  14.454
62009W        W34302  10.361  44.965  13.850
62010W        W34303  36.925   8.305   3.377
62011W        W34304   9.764  22.691   2.396
62012W        W34305  12.123  10.796   3.282
62013W        W34306  10.788  18.679   0.781
62014W        W34307  24.189  18.123   3.684
62015W        W34308  21.183  43.421   0.966
62016W        W34309  42.873  17.644   4.184
62017W        W34310  17.597  11.317  12.923
62018W        W34311   7.804  37.486   4.269
62019W        W34312  20.166   3.298   0.807
62020W        W34313  21.083  41.879   2.797
62021W        W34314  30.943  23.704   0.788
62022W        W34315  21.237  31.544  12.431
62023W        W34316   6.203  27.586  10.534
62024W        W34317  26.180  29.559   3.866
62025W        W34318   3.724   9.701   0.461
62026W        W34319  29.631  38.468   4.149
62027W        W34320   5.850  26.059   2.341
62028W        W34321  16.660   6.211   2.259
62029W        W34322  29.059  41.430   3.806
62030W        W34323  17.247  44.475  11.396
62031W        W34324  28.030  15.251  11.405
62032W        W34325   5.313  15.231  13.431
62033W        W34326  22.148   1.893   3.678
62034W        W34327  40.343  27.567  10.984
62035W        W34328  36.060  27.647   3.237
62036W        W34329  21.691  39.325  13.452
62037W        W34330   0.335  42.950   2.829
62038W        W34331  15.765   8.791   3.229
62039W        W34332  20.155  14.168   4.159
62040W        W34333  16.144   6.865   2.824
62041W        W34334  43.293  42.878   3.742
62042W        W34335  21.078  20.134  12.478
62043W        W34336  41.017  10.766   4.759
62044W        W34337   3.904  32.416  14.876
62045W        W34338   8.803  33.504  13.977
62046W        W34339  17.217  31.913   5.206
62047W        W34340  13.726   9.794  14.464
62048W        W34341   7.204  34.382  14.941
62049W        W34342  20.135  13.156   2.193
62050W        W34343  21.127  39.459  12.427
62051W        W34344  35.907  31.639   1.895
62052W        W34345  10.819  39.824   2.812
62053W        W34346  32.001   1.390  14.030
62054W        W34347   4.390  43.021  11.890
62055W        W34348  21.197  19.720  13.937
62056W        W34349  24.699   2.900   4.279
62057W        W34350  16.682   1.816   4.700
62058W        W34351   0.330  42.919   1.318
62059W        W34352  32.964  44.268  12.051
62060W        W34353  34.433  13.793   0.913
62061W        W34354   1.398   1.934  10.444
62062W        W34355  40.882  36.475  12.989
62063W        W34356  20.066   9.274   1.413
62064W        W34357   4.438  41.511   2.722
62065W        W34358  19.115  18.767   4.318
62066W        W34359  28.123   8.806   1.232
62067W        W34360  40.837  32.950  12.842
62068W        W34361  29.512  22.737   0.347
62069W        W34362  11.647  32.423  11.973
62070W        W34363  18.654  18.635  13.828
62071W        W34364   9.757  33.464   4.694
62072W        W34365  29.084  11.709   4.193
62073W        W34366  10.212  29.160   2.210
62074W        W34367  42.869  21.731   4.170
62075W        W34368  33.626  20.200  13.332
62076W        W34369  44.860  27.156  13.031
62077W        W34370  42.382   1.445  14.461
62078W        W34371  33.961  14.309   3.240
62079W        W34372  15.149  25.570   2.243
62080W        W34373  15.795  42.382   2.857
62081W        W34374  44.995   6.384  13.942
62082W        W34375  14.745  35.039   1.919
62083W        W34376   3.886   7.249   2.713
62084W        W34377   3.931  29.002  13.923
62085W        W34378  22.055  28.592   0.851
62086W        W34379   2.734  10.684  13.461
62087W        W34380  40.855  18.609  11.952
62088W        W34381  18.080   4.838  13.497
62089W        W34382  35.033   6.374   2.872
62090W        W34383  36.844  13.628   0.277
62091W        W34384  30.925   0.273  13.513
62092W        W34385  21.642  26.568  10.962
62093W        W34386  39.853  15.208   2.808
62094W        W34387   4.231   4.721  12.568
62095W        W34388  26.567  34.417   4.204
62096W        W34389  21.259  32.941  11.452
62097W        W34390  21.070  43.476  11.901
62098W        W34391  27.487  24.017   4.153
62099W        W34392   1.430   3.806   3.841
62100W        W34393   7.213  12.187   1.408
62101W        W34394  30.973   7.282   4.804
62102W        W34395  25.029  41.523  14.464
62103W        W34396  25.582  24.557  12.435
62104W        W34397  11.803  24.554  13.797
62105W        W34398   0.436  33.098  13.911
62106W        W34399  28.979  19.656   2.808
62107W        W34400  12.207  28.671  10.613
62108W        W34401  15.157  31.904   1.366
62109W        W34402  29.455  39.533  13.874
62110W        W34403  21.182  21.628  14.808
62111W        W34404  20.659  20.523  14.467
62112W        W34405  18.657  25.146  14.802
62113W        W34406  27.595  14.677  10.503
62114W        W34407  26.016  25.617  12.503
62115W        W34408  18.578  37.983  14.280
62116W        W34409  43.943  39.518  12.550
62117W        W34410  20.125  16.170   0.337
62118W        W34411  19.715  42.899  13.413
62119W        W34412  13.674  41.523  13.366
62120W        W34413  19.277  40.941   3.149
62121W        W34414  15.201  19.711   3.854
62122W        W34415  23.218  35.909  12.468
62123W        W34416  38.013   7.834  11.072
62124W        W34417  21.750   7.235   0.954
62125W        W34418  17.298   1.349   3.329
62126W        W34419  31.603  37.442   4.164
62127W        W34420   6.191  36.446  12.937
62128W        W34421  10.328   6.367  12.474
62129W        W34422  18.164  32.477   3.188
62130W        W34423  14.725  20.100  10.519
62131W        W34424  39.392   4.739  12.856
62132W        W34425  43.906  18.215   3.866
62133W        W34426  10.698   1.423  12.886
62134W        W34427  20.634   2.252   2.818
62135W        W34428   2.435  33.388   5.303
62136W        W34429  29.953  12.176  13.502
62137W        W34430  10.715   7.736   3.806
62138W        W34431   9.820  16.742  13.364
62139W        W34432   4.935   8.246  11.024
62140W        W34433  27.110  32.582  14.975
62141W        W34434  14.214  42.889  14.515
62142W        W34435  25.115  25.180  10.590
62143W        W34436   2.296  19.039  12.477
62144W        W34437   0.327   6.857   4.648
62145W        W34438  10.141  42.987   1.810
62146W        W34439  35.495   9.859   0.835
62147W        W34440   6.865  37.405  10.990
62148W        W34441   1.438  22.209   1.828
62149W        W34442  11.231  18.667  13.822
62150W        W34443   9.755   0.775  12.483
62151W        W34444   9.295   9.794  10.500
62152W        W34445  35.594   1.402   1.764
62153W        W34446  37.366  16.092   0.404
62154W        W34447  31.553  31.130   3.684
62155W        W34448   2.934   9.832  10.606
62156W        W34449  24.589  29.614   1.327
62157W        W34450  16.575  20.758  13.962
62158W        W34451  19.619  21.589  11.445
62159W        W34452  32.929   6.251   0.279
62160W        W34453  39.021  31.562  13.059
62161W        W34454   5.779  19.696   0.388
62162W        W34455  40.372  22.577   2.280
62163W        W34456   0.351   1.337  13.377
62164W        W34457  35.862  22.110  11.045
62165W        W34458  29.499   0.910  11.078
62166W        W34459  33.533   3.916   1.885
62167W        W34460  16.591  13.278   3.238
62168W        W34461  36.400  37.879   3.764
62169W        W34462  35.576   6.265   4.706
62170W        W34463  11.746  26.166  12.970
62171W        W34464  13.334  21.616   4.318
62172W        W34465  30.151   4.807   1.837
62173W        W34466   1.875   0.793  12.556
62174W        W34467  21.038   3.773   5.289
62175W        W34468   9.741  42.814   3.775
62176W        W34469  10.822  11.664  14.837
62177W        W34470  26.034  16.603  10.488
62178W        W34471  27.568   9.869   4.354
62179W        W34472  38.900  17.655   4.176
62180W        W34473  28.450  14.256  12.058
62181W        W34474  33.054  28.489   4.178
62182W        W34475  20.102   7.176  13.057
62183W        W34476   2.909  21.555  11.584
62184W        W34477  17.099  10.378  14.909
62185W        W34478  43.490  33.603   4.173
62186W        W34479  14.700  14.298   0.881
62187W        W34480  22.248  16.132  13.469
62188W        W34481  13.803  29.625   3.308
62189W        W34482  14.603  17.694   4.177
62190W        W34483   9.382  19.236   0.296
62191W        W34484  15.656  23.183   1.352
62192W        W34485   2.297  28.046  10.056
62193W        W34486   2.318  24.226  11.483
62194W        W34487  30.051  26.520   3.752
62195W        W34488   0.969   4.928  13.324
62196W        W34489  16.577   2.863  11.578
62197W        W34490  38.517  22.154  14.825
62198W        W34491  43.437   3.898   0.437
62199W        W34492  10.816   6.855   2.715
62200W        W34493  11.147   4.937   3.361
62201W        W34494  32.469  23.545  14.804
62202W        W34495   0.794  28.172   0.965
62203W        W34496   2.928  13.697   3.870
62204W        W34497  39.814  25.709   4.189
62205W        W34498   9.838  21.546  11.562
62206W        W34499  18.777  28.590  14.335
62207W        W34500   3.402   2.954   2.881
62208W        W34501  44.939  23.026  11.063
62209W        W34502   5.224  16.808  14.918
62210W        W34503  20.235  36.974   0.454
62211W        W34504  21.538  37.915   3.339
62212W        W34505  18.730  20.174   0.787
62213W        W34506  10.343   6.724  12.845
62214W        W34507  43.769   3.875   3.213
62215W        W34508  38.885  26.087  12.527
62216W        W34509  39.453  43.774  14.494
62217W        W34510   2.722   3.899  12.361
62218W        W34511  25.691  36.873   2.391
62219W        W34512  35.427   6.913   0.344
62220W        W34513  23.538  41.372  10.453
62221W        W34514  37.416  37.881  13.013
62222W        W34515  10.377   6.231   5.196
62223W        W34516  26.599  14.759   4.138
62224W        W34517  14.310  12.346  11.863
62225W        W34518  22.537  42.409  13.840
62226W        W34519  30.524  24.568  10.403
62227W        W34520  22.526  16.143   4.707
62228W        W34521  31.129  43.816   2.729
62229W        W34522  26.954   8.780   2.785
62230W        W34523  43.775  22.247  11.094
62231W        W34524  29.063  13.778   2.668
62232W        W34525   2.805  18.712  13.320
62233W        W34526  21.088  36.931   0.243
62234W        W34527  31.997  32.936  12.923
62235W        W34528  16.289  36.544   4.136
62236W        W34529  44.912   0.419  12.405
62237W        W34530  22.598  38.911   2.199
62238W        W34531  33.119   2.382  11.541
62239W        W34532  29.134  14.212   3.379
62240W        W34533  25.573  29.127   3.220
62241W        W34534   5.895   8.243  14.983
62242W        W34535  19.114  20.206   4.353
62243W        W34536   7.771  27.149  11.998
62244W        W34537   0.467  39.873   3.802
62245W        W34538  42.362   6.724   0.382
62246W        W34539  39.348  27.177   1.729
62247W        W34540  16.133   7.688  14.447
62248W        W34541  14.333  40.345  12.840
62249W        W34542  18.562  43.916   4.185
62250W        W34543  10.654  39.007   1.253
62251W        W34544  18.200   2.751   2.691
62252W        W34545   2.878  37.881  12.086
62253W        W34546  42.516  38.480   3.643
62254W        W34547  39.525   0.948   4.610
62255W        W34548   7.896  11.252   1.908
62256W        W34549   0.477  24.526  12.372
62257W        W34550  40.925  28.624  12.379
62258W        W34551  17.274  13.675   0.838
62259W        W34552  27.957   4.814  14.289
62260W        W34553   3.823  35.983  10.587
62261W        W34554  36.888   7.408   1.440
62262W        W34555   9.255  10.867  10.912
62263W        W34556  32.103  31.130   3.347
62264W        W34557  40.946  14.112  14.324
62265W        W34558   3.344  29.121   1.726
62266W        W34559   0.307  19.748   2.187
62267W        W34560  28.184  27.673  12.388
62268W        W34561   0.912   4.264   1.714
62269W        W34562   3.343  15.746   1.850
62270W        W34563  29.633  37.011   3.317
62271W        W34564  36.469  25.073   4.702
62272W        W34565  32.052  15.209   4.180
62273W        W34566  15.328  43.938  14.424
62274W        W34567  11.802   6.851  14.931
62275W        W34568   7.799  32.475   1.823
62276W        W34569  21.017  17.596  10.525
62277W        W34570  27.462   6.748  12.483
62278W        W34571  27.970   0.420  12.469
62279W        W34572  32.994   3.902   3.857
62280W        W34573  31.981   6.805   4.625
62281W        W34574   4.319  41.468   0.740
62282W        W34575  10.242  44.349  11.948
62283W        W34576  20.722  44.396   4.611
62284W        W34577   5.420  39.361  14.507
62285W        W34578  17.768  25.200   3.327
62286W        W34579  28.633   3.905   0.290
62287W        W34580  20.655  31.091  11.464
62288W        W34581  11.637  14.337  14.908
62289W        W34582  22.052  12.154   2.264
62290W        W34583  44.261  43.911   4.263
62291W        W34584  21.035  39.965   4.338
62292W        W34585   3.392   7.356  10.113
62293W        W34586  23.682   5.356   5.218
62294W        W34587  32.481   1.413  11.468
62295W        W34588  25.991  31.995   1.864
62296W        W34589  41.437  28.041   2.825
62297W        W34590  36.585   7.175  10.524
62298W        W34591  42.928  36.478  14.452
62299W        W34592   7.337  23.734   4.780
62300W        W34593  22.080  30.567   2.735
62301W        W34594  33.907   6.336  13.371
62302W        W34595  44.846  29.465   0.860
62303W        W34596  21.542  16.162   1.700
62304W        W34597  29.602  13.681  14.978
62305W        W34598   2.252  28.995  12.026
62306W        W34599  21.090  29.021  12.393
62307W        W34600   7.243   8.731  13.360
62308W        W34601  22.618  37.875   3.682
62309W        W34602   1.280  14.636   3.708
62310W        W34603  39.537  30.619  11.080
62311W        W34604  35.480  38.982   4.230
62312W        W34605  11.669  22.722   4.809
62313W        W34606  34.955  13.280  10.442
62314W        W34607  27.985  13.323   0.776
62315W        W34608  40.544   4.314  14.352
62316W        W34609  25.165  15.725   0.846
62317W        W34610   8.751   2.798   0.299
62318W        W34611  14.240  26.529  13.025
62319W        W34612   0.975  24.717   4.716
62320W        W34613   9.293  16.793   1.335
62321W        W34614  43.401  10.352   2.901
62322W        W34615  35.588  43.949  11.939
62323W        W34616   5.244  21.747   1.811
62324W        W34617  41.939  25.165   0.350
62325W        W34618  44.849   6.797  13.009
62326W        W34619  33.596  12.191   9.936
62327W        W34620  30.112  25.191  13.361
62328W        W34621   8.393  30.629   2.816
62329W        W34622  43.807   8.717   3.212
62330W        W34623  17.747  24.570   2.872
62331W        W34624  13.697   6.223  13.881
62332W        W34625  40.331   5.194   4.784
62333W        W34626   0.410  37.918   1.894
62334W        W34627  34.520  41.302  12.914
62335W        W34628   0.426  15.137  14.427
62336W        W34629   5.746  11.744   4.729
62337W        W34630  35.367  12.787   1.443
62338W        W34631   9.709  40.362   2.367
62339W        W34632  39.531  32.929   4.316
62340W        W34633  38.335  14.155  14.405
62341W        W34634  22.561  38.923  12.566
62342W        W34635  14.755   2.400  11.523
62343W        W34636  41.944  38.858  14.415
62344W        W34637  43.470  31.475  10.563
62345W        W34638  20.255   8.839  14.013
62346W        W34639   2.811  40.884   0.394
62347W        W34640   2.821   3.385   2.335
62348W        W34641  24.617  27.564  12.910
62349W        W34642  39.839  41.460   3.713
62350W        W34643   6.264  22.208   0.348
62351W        W34644  32.559  28.114   1.281
62352W        W34645  39.531  36.353  14.946
62353W        W34646   5.273  25.978   3.688
62354W        W34647  38.454  25.167  13.369
62355W        W34648  21.086   1.805  10.008
62356W        W34649  36.875  18.294   2.771
62357W        W34650  23.583   0.885  14.933
62358W        W34651   3.458  13.139   3.733
62359W        W34652  33.423   7.308   1.818
62360W        W34653   3.919  28.491   0.277
62361W        W34654  22.166  44.309   0.786
62362W        W34655  29.425   2.335   4.190
62363W        W34656  40.435   8.750   3.854
62364W        W34657  36.455  28.118  14.865
62365W        W34658  16.085  37.912  12.419
62366W        W34659  42.455   7.189   2.902
62367W        W34660  44.921  30.425  13.350
62368W        W34661  31.454  11.149   4.311
62369W        W34662  44.352  12.362  11.973
62370W        W34663  44.889  20.626   4.314
62371W        W34664  26.644  11.235   2.749
62372W        W34665  34.483  20.621  11.889
62373W        W34666  23.150  35.864   0.885
62374W        W34667  23.541  43.888   3.357
62375W        W34668  28.622  34.001  11.998
62376W        W34669  29.509   8.253  13.837
62377W        W34670   3.921   9.758  10.430
62378W        W34671  24.977  17.605   3.709
62379W        W34672   5.209  19.145  10.532
62380W        W34673  12.717  22.222   2.214
62381W        W34674   8.712  30.992   2.391
62382W        W34675  27.143  18.623   0.301
62383W        W34676  23.022  44.423  10.563
62384W        W34677  17.746  14.738  12.868
62385W        W34678  21.579  10.319   1.919
62386W        W34679   0.454  26.572   2.306
62387W        W34680  36.890   1.401   1.804
62388W        W34681   9.699   8.260   3.162
62389W        W34682  33.943  42.330   4.626
62390W        W34683  25.035  17.575  14.424
62391W        W34684   2.463  27.191  11.998
62392W        W34685   8.807  33.421   2.197
62393W        W34686  38.492  15.667  13.322
62394W        W34687   6.901  25.699   0.376
62395W        W34688  38.837  37.977  11.999
62396W        W34689  10.876  21.034  13.407
62397W        W34690  38.924   6.358   0.853
62398W        W34691  20.231  43.875  14.329
62399W        W34692  14.249  17.117   4.254
62400W        W34693  11.829  21.156   0.861
62401W        W34694  19.225  30.454   1.727
62402W        W34695  17.226   8.252   4.233
62403W        W34696   6.261  34.999   1.745
62404W        W34697   7.818  14.256   2.195
62405W        W34698  19.619  39.377   0.392
62406W        W34699  18.116  27.196  12.477
62407W        W34700   2.821  18.756  11.091
62408W        W34701  25.521   1.344  14.850
62409W        W34702  24.538  27.505  10.988
62410W        W34703  14.169  31.957   3.732
62411W        W34704  32.609  27.966   4.652
62412W        W34705  28.559  26.585  14.981
62413W        W34706  29.046  29.543  11.902
62414W        W34707   0.459  10.313  12.955
62415W        W34708  42.332  19.254   3.642
62416W        W34709  19.170   3.284   3.788
62417W        W34710  11.850  11.205  14.319
62418W        W34711  10.379   5.279   4.620
62419W        W34712  36.483  15.774  14.934
62420W        W34713  43.487   1.865   3.373
62421W        W34714   0.283  13.810   4.648
62422W        W34715  41.357  17.148   4.810
62423W        W34716  18.280  20.726  14.284
62424W        W34717   3.311  31.522   1.235
62425W        W34718  26.985   6.748  13.988
62426W        W34719  43.427  26.171   0.260
62427W        W34720  37.083  14.208  12.418
62428W        W34721  34.372  39.437   4.295
62429W        W34722  24.714  41.963  13.368
62430W        W34723  12.301   6.338  11.437
62431W        W34724  15.614  18.275  13.059
62432W        W34725  36.942   5.335  13.971
62433W        W34726   7.813  38.446  14.441
62434W        W34727  20.708  40.494   2.367
62435W        W34728  12.779  25.583  11.978
62436W        W34729   6.372  40.503   0.889
62437W        W34730  40.824  21.524  10.538
62438W        W34731  31.522  27.147   2.703
62439W        W34732  20.115  20.531   4.177
62440W        W34733  32.444  33.481   1.266
62441W        W34734  31.912  44.948  10.622
62442W        W34735   1.318  27.196   2.811
62443W        W34736  27.032   9.394   1.877
62444W        W34737  12.631   4.870  12.018
62445W        W34738  22.727   9.803   2.415
62446W        W34739  22.695  25.044   0.830
62447W        W34740   4.918  41.326  13.913
62448W        W34741  41.018  11.284  13.818
62449W        W34742   2.381   7.898   0.447
62450W        W34743  32.472  21.256   2.206
62451W        W34744   1.973  27.024  13.934
62452W        W34745  31.633   0.314   3.764
62453W        W34746  42.023  25.092  11.121
62454W        W34747  33.389  40.871  11.432
62455W        W34748  23.619   2.817   0.768
62456W        W34749  35.968  27.184  10.621
62457W        W34750   4.887   6.237   1.361
62458W        W34751  42.319  41.972  12.417
62459W        W34752   7.847  34.534  14.391
62460W        W34753  13.835  13.225  12.071
62461W        W34754  41.017  16.603  10.532
62462W        W34755  13.634  16.662  11.111
62463W        W34756  20.545  22.671   0.803
62464W        W34757  40.816   1.884  14.423
62465W        W34758  35.064  21.630   1.810
62466W        W34759  14.625   5.853   1.847
62467W        W34760  42.472  42.476   3.718
62468W        W34761  21.581  25.046   2.878
62469W        W34762   1.965  21.732   1.711
62470W        W34763  15.246  31.138  12.362
62471W        W34764  42.913  24.127   1.698
62472W        W34765   2.314  43.350  11.515
62473W        W34766   1.390  31.067  11.436
62474W        W34767  12.276  31.071  10.525
62475W        W34768  16.290   3.354  12.358
62476W        W34769  20.091   9.381  12.933
62477W        W34770  31.123  28.482   2.275
62478W        W34771  41.911  22.560  11.601
62479W        W34772  36.073  42.870   3.827
62480W        W34773  37.953  19.180   0.893
62481W        W34774  28.468  18.280   4.288
62482W        W34775  42.298  17.704  13.526
62483W        W34776  38.972  12.155   0.805
62484W        W34777  22.541  44.439   3.162
62485W        W34778  18.074  18.240  12.031
62486W        W34779  20.275  27.547  12.434
62487W        W34780  23.583   8.287   4.801
62488W        W34781  16.126  27.173  14.791
62489W        W34782  16.072  14.786   0.793
62490W        W34783  26.686  34.899   1.753
62491W        W34784  29.647   1.367  11.968
62492W        W34785  37.084  34.072   0.952
62493W        W34786  35.367  43.916  12.958
62494W        W34787  13.195  25.010  12.400
62495W        W34788  26.106  15.594   4.729
62496W        W34789  11.783  24.999   1.785
62497W        W34790  28.610  43.391   0.251
62498W        W34791   9.337   1.918  14.928
62499W        W34792   8.763   7.763  12.017
62500W        W34793  23.708  13.820  10.445
62501W        W34794  15.290  29.123   2.855
62502W        W34795   8.393  36.514  13.502
62503W        W34796  18.561  41.492  10.930
62504W        W34797  29.014  34.436   3.767
62505W        W34798  18.708  15.276  14.326
62506W        W34799  23.567   7.381   1.862
62507W        W34800  23.493  44.991  12.848
62508W        W34801  36.494  20.123  14.016
62509W        W34802  23.002  10.288  11.978
62510W        W34803  40.017   1.777   4.758
62511W        W34804  41.410  16.614   4.160
62512W        W34805  16.678  13.821   1.856
62513W        W34806  35.865  15.767   1.882
62514W        W34807   6.284  12.353   4.820
62515W        W34808   1.813  17.088  12.507
62516W        W34809  37.500  39.382   2.379
62517W        W34810  10.761   0.351   1.824
62518W        W34811  22.607  28.186  14.806
62519W        W34812  38.885  27.950  12.941
62520W        W34813  14.318  34.467   3.378
62521W        W34814  15.645  10.677   3.295
62522W        W34815  21.178  16.122   2.875
62523W        W34816  29.960  18.154  13.971
62524W        W34817  32.916   5.704   1.379
62525W        W34818   1.333   7.821  12.356
62526W        W34819  26.636  16.690   1.374
62527W        W34820  36.945  41.013   2.407
62528W        W34821   4.392  16.177  11.600
62529W        W34822  42.829  31.636   0.752
62530W        W34823  15.176  32.398  13.040
62531W        W34824  43.413  38.831   4.337
62532W        W34825  38.381  43.340   2.762
62533W        W34826  16.686  34.479  12.410
62534W        W34827   0.845  33.033   4.837
62535W        W34828  30.495   0.748   3.759
62536W        W34829  17.224  35.563   0.409
62537W        W34830  25.047   7.330  14.319
62538W        W34831  22.679  26.529  12.020
62539W        W34832   2.792  22.047   2.386
62540W        W34833  36.035   1.372   0.894
62541W        W34834  20.203  34.095  14.417
62542W        W34835  21.642   8.176  11.406
62543W        W34836  27.635  35.989   1.412
62544W        W34837  44.425   6.224  11.027
62545W        W34838  15.714   4.896  13.810
62546W        W34839  34.073   4.220  12.457
62547W        W34840  40.012  38.545   2.259
62548W        W34841   3.407   1.459   2.780
62549W        W34842  36.900  44.942   2.192
62550W        W34843  31.970   0.888   0.455
62551W        W34844  18.761  31.107   3.325
62552W        W34845   7.753   4.231  11.969
62553W        W34846  31.904  16.652   1.816
62554W        W34847  39.044  26.531   2.871
62555W        W34848  14.682  28.482  11.955
62556W        W34849  25.589  16.203  12.881
62557W        W34850  20.738   7.751   1.752
62558W        W34851  38.949  18.780   0.919
62559W        W34852  36.509  33.433  12.389
62560W        W34853  32.120  26.999  13.831
62561W        W34854  21.064  18.293   1.759
62562W        W34855  24.119  34.974  14.768
62563W        W34856   5.914  15.635  12.891
62564W        W34857  13.195  14.683   4.681
62565W        W34858  40.339  34.499  10.465
62566W        W34859  36.421  41.950   3.749
62567W        W34860  32.551  40.898  11.527
62568W        W34861  10.790   3.856   1.787
62569W        W34862  36.576  20.622   0.249
62570W        W34863  26.625  38.877  11.595
62571W        W34864  28.634  22.093   2.688
62572W        W34865  44.481  23.734  13.929
62573W        W34866   9.374   0.948   9.937
62574W        W34867  44.411  17.255   4.157
62575W        W34868  32.605  12.729  11.093
62576W        W34869  24.708  23.186   4.601
62577W        W34870   3.711  26.184  12.539
62578W        W34871   2.739  25.495  11.940
62579W        W34872   9.192  23.663  14.762
62580W        W34873   9.695  22.030   3.357
62581W        W34874  35.490  28.527   0.312
62582W        W34875  37.380  35.394  12.354
62583W        W34876  38.570  28.547  13.483
62584W        W34877  24.177   1.826   2.229
62585W        W34878  41.313  27.691  10.626
62586W        W34879  36.885  15.108  14.460
62587W        W34880  43.836   5.263   1.798
62588W        W34881  40.970  17.094  13.926
62589W        W34882   7.257   9.334   1.215
62590W        W34883  44.880  37.851   0.752
62591W        W34884  43.274  26.473   1.722
62592W        W34885  39.987  12.260  12.367
62593W        W34886  38.022   6.899  12.941
62594W        W34887  43.870   5.917  13.878
62595W        W34888  39.034  44.976   4.616
62596W        W34889  19.044  28.444  13.818
62597W        W34890   5.792  19.112  10.500
62598W        W34891  41.376  23.722  11.604
62599W        W34892  25.160  44.356  10.596
62600W        W34893  20.067  43.786  14.929
62601W        W34894   3.450  40.527   4.191
62602W        W34895   7.295   4.889   3.262
62603W        W34896  21.622  27.485   4.314
62604W        W34897  43.965  25.565   0.258
62605W        W34898  33.491  22.245  13.823
62606W        W34899  20.659  29.991  13.058
62607W        W34900   3.215  41.950   0.402
62608W        W34901  33.062   4.346  14.469
62609W        W34902  16.787  41.917  14.511
62610W        W34903   1.307  42.505   4.318
62611W        W34904  16.294  15.605  13.446
62612W        W34905  31.098  42.981  13.345
62613W        W34906  36.961  37.065   0.760
62614W        W34907   9.749  37.504  10.604
62615W        W34908  15.157  35.540   0.772
62616W        W34909  15.769  14.201   2.281
62617W        W34910  37.847  31.962  14.765
62618W        W34911  23.176  18.118   5.264
62619W        W34912  24.028  43.842   4.772
62620W        W34913  30.914  32.967   1.359
62621W        W34914  22.173  44.273   2.767
62622W        W34915   9.312  37.059   4.127
62623W        W34916  30.519  40.415  11.436
62624W        W34917   7.725  42.323   2.293
62625W        W34918  41.828  22.156   0.806
62626W        W34919  16.203  20.639   2.363
62627W        W34920  15.229   7.401  14.834
62628W        W34921   0.901  43.956  11.568
62629W        W34922   4.369  28.133   4.305
62630W        W34923  42.949  27.977  13.048
62631W        W34924  32.421  29.556   1.235
62632W        W34925  38.862  44.373  11.408
62633W        W34926   4.260   5.863  13.486
62634W        W34927  20.160   2.828  11.902
62635W        W34928  39.035  34.950   2.736
62636W        W34929  16.196  37.995  14.939
62637W        W34930  30.625  31.601  13.405
62638W        W34931  19.724  28.172   4.143
62639W        W34932  14.260  29.082   0.484
62640W        W34933  41.518  18.635   3.238
62641W        W34934   2.960  16.278   4.304
62642W        W34935  14.771  23.646   3.642
62643W        W34936  41.309  27.450   4.269
62644W        W34937  31.490  40.357  12.010
62645W        W34938   7.797  10.833  14.958
62646W        W34939  21.029  38.413   2.723
62647W        W34940   2.854   3.270   4.141
62648W        W34941  36.936   9.263   1.715
62649W        W34942   3.832  26.992  12.575
62650W        W34943  41.810  12.337  11.393
62651W        W34944  38.919  16.700   3.793
62652W        W34945  39.001  17.681   0.375
62653W        W34946  22.083  29.053  14.434
62654W        W34947  14.321  13.637  14.504
62655W        W34948  32.583  42.353  10.454
62656W        W34949  30.081  29.113  14.362
62657W        W34950   6.680   9.354   0.910
62658W        W34951  30.129  12.189  12.976
62659W        W34952  39.968  35.446   0.737
62660W        W34953  17.610   7.388  10.566
62661W        W34954  22.566  20.707   1.334
62662W        W34955   3.858  21.222  13.900
62663W        W34956  18.578  20.206  14.879
62664W        W34957   2.752  35.493   3.647
62665W        W34958   0.872  23.054   0.748
62666W        W34959   5.911  29.623   4.311
62667W        W34960  33.008  24.665   1.921
62668W        W34961   3.338  14.593  13.321
62669W        W34962  25.591  21.249  10.447
62670W        W34963  43.847   4.781  12.868
62671W        W34964   1.858  25.204   4.770
62672W        W34965   5.902  20.687   0.906
62673W        W34966  31.979  16.633   0.909
62674W        W34967   7.737   2.235  11.957
62675W        W34968  12.610  11.734  10.595
62676W        W34969  43.013  28.571   0.921
62677W        W34970  20.741  16.074  14.800
62678W        W34971   8.317  31.466  10.561
62679W        W34972   7.761  15.292  11.576
62680W        W34973  15.714  39.863   5.219
62681W        W34974  16.103  25.620   3.205
62682W        W34975  22.527  10.717   2.717
62683W        W34976  21.544  37.885  13.006
62684W        W34977  43.944  18.605   3.374
62685W        W34978   2.775   3.771  11.430
62686W        W34979  36.938  25.675  13.322
62687W        W34980  14.114  37.948   3.250
62688W        W34981   6.223  14.598   1.790
62689W        W34982  33.929  40.975   4.347
62690W        W34983  16.665  35.870  14.797
62691W        W34984   9.176  15.707   4.721
62692W        W34985   6.793  36.583  12.489
62693W        W34986  25.565  37.401   2.345
62694W        W34987   3.295  39.853   4.344
62695W        W34988  12.778  38.568  14.494
62696W        W34989   4.867  30.157   1.281
62697W        W34990  11.326  38.034   1.305
62698W        W34991  40.052   0.458   2.235
62699W        W34992  17.573  28.539   4.819
62700W        W34993  17.234  22.599   5.584
62701W        W34994  31.917  24.980  13.333
62702W        W34995  22.738  28.551   4.186
62703W        W34996  19.110  23.100   0.249
62704W        W34997  30.418  36.543  13.333
62705W        W34998  21.044   0.367  12.846
62706W        W34999  25.174  11.729  14.413
62707W        W35000  18.242   8.312  11.045
62708W        W35001  29.548   3.247   2.749
62709W        W35002   6.796   1.312   1.349
62710W        W35003  14.142  34.080  13.393
62711W        W35004   7.241  19.157  14.007
62712W        W35005  27.983  36.562   4.251
62713W        W35006  17.192  24.180   4.246
62714W        W35007   3.432  16.135  14.784
62715W        W35008  16.671  23.587  14.937
62716W        W35009  23.048  21.753   3.833
62717W        W35010  38.554  33.113   0.749
62718W        W35011  40.535  27.004  12.411
62719W        W35012  42.373   3.348  10.908
62720W        W35013  20.082   4.343  14.439
62721W        W35014  26.174  17.225  11.992
62722W        W35015  34.871  24.143  11.573
62723W        W35016  30.613   9.859  12.981
62724W        W35017  31.906   9.704  10.143
62725W        W35018  30.148  16.159   1.446
62726W        W35019  34.964  19.135  14.763
62727W        W35020  17.292  19.719   1.408
62728W        W35021   9.797  42.870   1.315
62729W        W35022   7.863  25.484  13.025
62730W        W35023  22.521  33.473   3.860
62731W        W35024   5.819  24.064  11.078
62732W        W35025  37.504   1.767   0.374
62733W        W35026  31.117  14.170  11.477
62734W        W35027  37.469  27.040  11.379
62735W        W35028  31.598  30.153   4.330
62736W        W35029   4.803  14.731  11.020
62737W        W35030  42.885   4.401   3.318
62738W        W35031  11.632  16.581  13.035
62739W        W35032   1.735  31.001   4.268
62740W        W35033   1.460  14.131  10.624
62741W        W35034  41.810  26.206  10.982
62742W        W35035  33.959  32.410  14.856
62743W        W35036  38.949  32.457  11.484
62744W        W35037  24.573  20.591   4.150
62745W        W35038   9.650  27.540  14.989
62746W        W35039  17.746   9.864   2.729
62747W        W35040  38.552  20.714   0.344
62748W        W35041  35.066   7.743   3.645
62749W        W35042   9.294  20.215  14.499
62750W        W35043  31.485   1.385  10.431
62751W        W35044   0.943  36.351   2.721
62752W        W35045  25.557  11.154  10.982
62753W        W35046  42.809  34.482   0.397
62754W        W35047   9.155  27.488  14.410
62755W        W35048  16.114   3.854   2.339
62756W        W35049  16.313  32.002   1.827
62757W        W35050  33.070  13.297  12.575
62758W        W35051   5.865  40.010   4.616
62759W        W35052   6.842  41.864  13.316
62760W        W35053  15.192  36.545  10.928
62761W        W35054  11.840  30.958   2.685
62762W        W35055   6.806  16.304  14.934
62763W        W35056  43.796  34.954  12.890
62764W        W35057  16.684  25.137   1.801
62765W        W35058   6.302  34.459   2.852
62766W        W35059  14.175  40.519   5.170
62767W        W35060   6.914   5.847  11.378
62768W        W35061  26.655  23.199   3.183
62769W        W35062  13.686  38.923  14.985
62770W        W35063   6.733  44.353   2.209
62771W        W35064   6.316  28.136   1.262
62772W        W35065  40.815  17.142   3.194
62773W        W35066   3.315   6.786   0.311
62774W        W35067   3.730  21.082  11.586
62775W        W35068  34.070  37.841  11.071
62776W        W35069   6.814  12.233  12.015
62777W        W35070  13.252  11.790  11.856
62778W        W35071  40.827  23.124  10.890
62779W        W35072  19.252  12.342   0.366
62780W        W35073  11.160   5.818  12.406
62781W        W35074  28.931  17.705  12.396
62782W        W35075   0.380  36.459   2.892
62783W        W35076   9.222  34.027  10.120
62784W        W35077   2.437  28.657  13.366
62785W        W35078  33.595   1.256   4.347
62786W        W35079  12.676  33.400  14.764
62787W        W35080  18.613  16.236   0.275
62788W        W35081  13.295  32.485  12.458
62789W        W35082  27.467   2.430   0.834
62790W        W35083  26.564  35.445   2.895
62791W        W35084   6.822  32.894   4.777
62792W        W35085   6.280  41.944   4.271
62793W        W35086   1.248  40.050   2.848
62794W        W35087  10.196  33.517   1.219
62795W        W35088   2.465  17.298  10.083
62796W        W35089  28.001  28.669   0.726
62797W        W35090  40.460  40.500   2.691
62798W        W35091   6.760   4.293   2.831
62799W        W35092  26.524   5.690   1.278
62800W        W35093  38.440   7.732   4.324
62801W        W35094  35.079  17.253   1.862
62802W        W35095   8.270   9.208   0.412
62803W        W35096   9.152  43.969   3.839
62804W        W35097  17.645   9.380  13.911
62805W        W35098  18.189  22.033  13.820
62806W        W35099  29.509  40.384   0.371
62807W        W35100  44.800  37.479   3.691
62808W        W35101   8.319  27.614   0.314
62809W        W35102  31.914  29.088  11.380
62810W        W35103   8.251   2.391  12.544
62811W        W35104  10.375  15.121   0.877
62812W        W35105   1.746  33.883  10.548
62813W        W35106  25.693   2.735   2.806
62814W        W35107  17.609  26.986   2.797
62815W        W35108  42.500  42.414   9.645
62816W        W35109  17.232   5.814   1.271
62817W        W35110   0.491   9.703   4.318
62818W        W35111  12.789  24.554  11.571
62819W        W35112  24.534  40.474   2.307
62820W        W35113   6.192  39.906  11.479
62821W        W35114   8.295  21.534   1.345
62822W        W35115  44.769  23.041  13.456
62823W        W35116   7.759  43.946  12.084
62824W        W35117   2.361   4.393  14.361
62825W        W35118  10.248   9.738  11.867
62826W        W35119  30.953  14.106   4.622
62827W        W35120  30.950   7.830  11.999
62828W        W35121  37.397  27.650   0.436
62829W        W35122   2.928  18.600   1.783
62830W        W35123  43.452  32.937   2.282
62831W        W35124  22.152  18.101  13.037
62832W        W35125   7.370   3.909  11.463
62833W        W35126   5.250  28.031   2.408
62834W        W35127  16.653   3.949   2.313
62835W        W35128  31.640  35.876  14.864
62836W        W35129  17.794  29.543  12.387
62837W        W35130  25.592   0.396   3.261
62838W        W35131  22.664  43.767  12.442
62839W        W35132   4.715  30.605   5.123
62840W        W35133   5.862  14.679   2.779
62841W        W35134  13.298  31.136  14.330
62842W        W35135  37.072   7.397   0.856
62843W        W35136   1.733  22.606   0.324
62844W        W35137   4.384  30.102  11.064
62845W        W35138   8.774   7.882   3.818
62846W        W35139   1.804  41.490   1.210
62847W        W35140  39.356   1.973  14.759
62848W        W35141  23.664  15.776   1.860
62849W        W35142  19.775  37.436   0.330
62850W        W35143   2.819  22.026   4.718
62851W        W35144  30.478  38.500   4.828
62852W        W35145  20.658   9.876  12.979
62853W        W35146  21.029  29.593  10.442
62854W        W35147  29.953   2.930  12.048
62855W        W35148  42.285  20.551  13.897
62856W        W35149  26.060  28.495  10.935
62857W        W35150  37.347  28.172  11.890
62858W        W35151  12.715  37.335  11.877
62859W        W35152   9.769  19.058   2.770
62860W        W35153  18.178  31.429  10.412
62861W        W35154  38.359   7.873   0.404
62862W        W35155  15.136  43.807   0.916
62863W        W35156   5.839  39.362  11.495
62864W        W35157   3.799  35.903   1.405
62865W        W35158  41.015  35.928  13.515
62866W        W35159  26.090  12.328  14.428
62867W        W35160   5.727  39.972   1.320
62868W        W35161  12.127  31.121  13.427
62869W        W35162  23.679   0.314   3.825
62870W        W35163   5.860  14.095   2.678
62871W        W35164   2.732  15.771  13.485
62872W        W35165   1.407  28.016  12.032
62873W        W35166   0.912  34.475   4.711
62874W        W35167   6.730  41.423   1.275
62875W        W35168  17.722  14.613  11.973
62876W        W35169  38.913  22.050   3.704
62877W        W35170  31.463   1.279  13.960
62878W        W35171  39.486  14.765  14.440
62879W        W35172   4.714   9.798  10.012
62880W        W35173  26.529  36.581  10.891
62881W        W35174  21.027  40.994  12.047
62882W        W35175   1.265  23.730  13.390
62883W        W35176  15.657   5.920  14.993
62884W        W35177  31.107   8.168   2.301
62885W        W35178  22.531  26.174   2.865
62886W        W35179  44.852  12.260  10.561
62887W        W35180  33.465   3.384  10.627
62888W        W35181  38.366  19.132  14.495
62889W        W35182  42.854  28.655   2.219
62890W        W35183  32.110  10.831   1.790
62891W        W35184  20.663   5.284  14.973
62892W        W35185  15.180  39.001   1.318
62893W        W35186  29.472  29.061  11.584
62894W        W35187   5.776  29.105  14.349
62895W        W35188   2.933  11.181   1.788
62896W        W35189   9.254   7.270   4.721
62897W        W35190  21.677  25.512   1.763
62898W        W35191   8.896  32.949   1.728
62899W        W35192  22.058  26.577   3.629
62900W        W35193   1.275  38.858   1.729
62901W        W35194  39.050  26.974  14.475
62902W        W35195  32.991  15.106  11.545
62903W        W35196  36.466  39.841   1.415
62904W        W35197  26.101  40.499  13.541
62905W        W35198  43.498  18.679   4.646
62906W        W35199  18.779   2.451   3.761
62907W        W35200  32.517   6.803   4.289
62908W        W35201  16.734  13.307  14.503
62909W        W35202  23.529   2.400   4.204
62910W        W35203   4.259  26.972  14.872
62911W        W35204  27.158  37.853   1.224
62912W        W35205   1.853  36.457  13.412
62913W        W35206  37.366  27.508   3.150
62914W        W35207  34.094  34.073   0.468
62915W        W35208  39.389  22.090   2.713
62916W        W35209  39.828  10.173   1.356
62917W        W35210  23.643  35.431   3.687
62918W        W35211  36.873  10.722  11.372
62919W        W35212  17.598  35.451  11.003
62920W        W35213  14.773  35.555   4.825
62921W        W35214  14.320  29.618  14.885
62922W        W35215   1.743  10.826  12.999
62923W        W35216  41.396   8.845  14.483
62924W        W35217  34.462  29.109  13.845
62925W        W35218  29.150  35.365   2.272
62926W        W35219   8.225  35.945   0.906
62927W        W35220   1.752  25.041  12.559
62928W        W35221  10.840  18.754   0.370
62929W        W35222  19.277  43.404   0.763
62930W        W35223  24.564  26.525   3.744
62931W        W35224  32.562   9.650   9.519
62932W        W35225   4.355  34.396   4.235
62933W        W35226  12.288  31.538   0.899
62934W        W35227   4.378  31.089   4.832
62935W        W35228  41.972  41.899   2.367
62936W        W35229   1.888  41.335  11.873
62937W        W35230  41.835  33.408  11.530
62938W        W35231  39.005  38.018  14.894
62939W        W35232  32.443  38.925  14.893
62940W        W35233  30.567  20.544  14.994
62941W        W35234   9.325  28.931  12.868
62942W        W35235   3.222  18.597  12.442
62943W        W35236   9.709  27.628  13.827
62944W        W35237   3.382   5.740   4.705
62945W        W35238   7.294   1.474   3.243
62946W        W35239   4.290  30.591  10.582
62947W        W35240  29.660  20.063   1.770
62948W        W35241  32.582  14.780  11.910
62949W        W35242   2.759  19.089  13.369
62950W        W35243  18.102   7.202   2.824
62951W        W35244   2.287  35.940   1.830
62952W        W35245  16.568  17.256   1.312
62953W        W35246  35.103   1.818   4.344
62954W        W35247  32.626  31.516   3.738
62955W        W35248  15.306  41.001  14.900
62956W        W35249   7.821  28.544  14.399
62957W        W35250   2.847  40.420   2.295
62958W        W35251  32.427  43.513   2.784
62959W        W35252  41.957  26.498  10.574
62960W        W35253   4.247  14.802  14.425
62961W        W35254  39.389  41.428   3.247
62962W        W35255  35.390  21.133   4.753
62963W        W35256  37.901  32.123   0.915
62964W        W35257  25.540  19.285  12.460
62965W        W35258  22.028   4.801  12.063
62966W        W35259  34.419  21.229  12.882
62967W        W35260  26.530  14.110   5.209
62968W        W35261   9.395   1.385   3.862
62969W        W35262  22.667  21.700   2.669
62970W        W35263  35.594  16.725  12.878
62971W        W35264   9.199  41.002  12.490
62972W        W35265  38.521  28.087   0.258
62973W        W35266  10.170   2.874   0.277
62974W        W35267   3.713   4.820   1.305
62975W        W35268   4.215  33.063   2.892
62976W        W35269  18.768  30.529  13.318
62977W        W35270  14.815  29.106   2.698
62978W        W35271  20.731  10.204   1.791
62979W        W35272  19.110  32.893  11.449
62980W        W35273   4.759  21.753   2.853
62981W        W35274   9.149  20.741   3.373
62982W        W35275  34.502  39.334   1.828
62983W        W35276  18.252   5.221  10.468
62984W        W35277  20.149  37.437   3.226
62985W        W35278  12.337  23.640  14.406
62986W        W35279  26.966  40.529  11.585
62987W        W35280  18.639  36.889  11.591
62988W        W35281  44.411  11.172  13.961
62989W        W35282   4.218  41.476  10.606
62990W        W35283   6.348  11.640   4.142
62991W        W35284   3.455   4.780  12.504
62992W        W35285  17.183  18.597  11.868
62993W        W35286   3.884  19.702   2.410
62994W        W35287  18.558  24.681  13.422
62995W        W35288   5.310   2.330   1.301
62996W        W35289  42.868  33.064  13.392
62997W        W35290   8.178  33.097   3.284
62998W        W35291  20.637  34.395  13.488
62999W        W35292   5.743  22.644  11.968
63000W        W35293  10.363  26.053   4.827
63001W        W35294   9.773  21.755   2.784
63002W        W35295  15.641  42.008  14.358
63003W        W35296  41.441  44.856  11.954
63004W        W35297  20.766  43.819   1.299
63005W        W35298   2.288   9.150  11.096
63006W        W35299  26.460  38.935   2.243
63007W        W35300  22.540   2.946   0.296
63008W        W35301  31.034   8.760   4.159
63009W        W35302   1.890  25.157   3.173
63010W        W35303  17.619  35.362   1.347
63011W        W35304   6.887  13.615   1.327
63012W        W35305  41.405   2.818  11.430
63013W        W35306  26.107  42.914   0.284
63014W        W35307  22.508  16.240  13.990
63015W        W35308  10.822  13.768  14.863
63016W        W35309   0.804   5.325   0.928
63017W        W35310   2.961   6.209   0.964
63018W        W35311  24.521  33.443   3.722
63019W        W35312  41.394  26.654   4.711
63020W        W35313  37.020  41.925   2.231
63021W        W35314  41.469  34.897   0.300
63022W        W35315  43.316  35.512  11.425
63023W        W35316  27.670  31.114   4.295
63024W        W35317  13.782  40.862   4.821
63025W        W35318  39.353  14.638   4.293
63026W        W35319  24.566  16.209  11.072
63027W        W35320   3.941   7.794  11.870
63028W        W35321   0.801  20.740  11.468
63029W        W35322   2.335  39.908  10.615
63030W        W35323  13.278  42.304  12.948
63031W        W35324   6.361  28.957   0.858
63032W        W35325   2.789  38.044   3.365
63033W        W35326  44.975  28.465  11.431
63034W        W35327  26.082  41.523  13.341
63035W        W35328  15.116  26.019  13.365
63036W        W35329   3.457  18.055   3.864
63037W        W35330  15.279  40.854  10.523
63038W        W35331  29.614  43.383  11.405
63039W        W35332   5.335  14.149  14.494
63040W        W35333  12.718  18.190  12.997
63041W        W35334  31.506  42.334  13.036
63042W        W35335  17.686  32.946  10.596
63043W        W35336  20.707  40.531  14.306
63044W        W35337   3.409  21.108  12.933
63045W        W35338  25.525   9.293  10.559
63046W        W35339   9.392  44.309  13.532
63047W        W35340   8.362  18.638   0.773
63048W        W35341   2.338  21.728  12.524
63049W        W35342  31.976  31.024  13.508
63050W        W35343  13.607  43.329  11.946
63051W        W35344  27.945   7.833   1.882
63052W        W35345  13.752  43.950   2.329
63053W        W35346  21.097  24.487   0.900
63054W        W35347  19.656  28.037  11.395
63055W        W35348  12.333  25.709   1.758
63056W        W35349   7.732  28.171   1.433
63057W        W35350  19.576  42.875  14.429
63058W        W35351  16.794  36.877  10.925
63059W        W35352   9.819  41.979  13.529
63060W        W35353  35.918  33.875   1.233
63061W        W35354  37.026  38.841   1.817
63062W        W35355  42.434  14.194  14.978
63063W        W35356  30.497  13.836  11.876
63064W        W35357   4.251  16.600  13.049
63065W        W35358  30.912  33.425   0.915
63066W        W35359  17.111  29.045   4.183
63067W        W35360  11.225   9.276  14.302
63068W        W35361  23.023  29.117   3.745
63069W        W35362  14.292   3.956  13.366
63070W        W35363  17.790   3.733  12.071
63071W        W35364   0.442   2.965  14.399
63072W        W35365  26.535  44.376   5.203
63073W        W35366  23.634  44.443  10.639
63074W        W35367  16.601  28.480  13.037
63075W        W35368  39.940  19.557  10.445
63076W        W35369  14.835  40.042  10.580
63077W        W35370  14.135   1.370   1.381
63078W        W35371  21.516  28.050   4.836
63079W        W35372  11.837  32.081  12.053
63080W        W35373  25.029  10.353  14.764
63081W        W35374   6.210  25.538  10.524
63082W        W35375  30.014  40.940   3.841
63083W        W35376  14.289  19.176   0.429
63084W        W35377   1.736  15.171   2.862
63085W        W35378   9.798  40.923   4.330
63086W        W35379  18.077  34.433   1.886
63087W        W35380  36.548   1.922   4.807
63088W        W35381  29.444  22.115   2.743
63089W        W35382  14.675   4.213  12.417
63090W        W35383   8.344   1.389   0.296
63091W        W35384   9.779  36.503   4.603
63092W        W35385  20.551  28.576   0.461
63093W        W35386  28.639  34.504   0.856
63094W        W35387  19.045   4.846   4.197
63095W        W35388   0.797  25.104  12.390
63096W        W35389  19.605  29.617  10.905
63097W        W35390  42.837  21.602  14.397
63098W        W35391  21.703  21.233  12.359
63099W        W35392  38.944  19.182  12.895
63100W        W35393  12.825  11.187   0.294
63101W        W35394   5.701   5.267   0.308
63102W        W35395   1.422  39.408  11.607
63103W        W35396   6.724  15.812   2.809
63104W        W35397   3.417  13.297   5.286
63105W        W35398  15.707  38.397  13.861
63106W        W35399  30.429  37.477  10.529
63107W        W35400   2.400   5.795  12.824
63108W        W35401  26.652  19.040   4.748
63109W        W35402  14.319  22.620  14.404
63110W        W35403   0.445  15.725  10.931
63111W        W35404   8.244   6.798  14.497
63112W        W35405   6.729  29.613  11.518
63113W        W35406  17.762   2.418  13.358
63114W        W35407  44.807  20.039  13.360
63115W        W35408   8.283  27.574  11.475
63116W        W35409  23.999  37.379   3.745
63117W        W35410  21.149  39.476  14.768
63118W        W35411  38.952  39.968   4.664
63119W        W35412  10.370  14.192   0.933
63120W        W35413  15.757  32.501  11.951
63121W        W35414   8.885  28.937  13.882
63122W        W35415  10.227  15.113  10.441
63123W        W35416  10.673  26.140   2.316
63124W        W35417   2.301  41.804  10.562
63125W        W35418   3.301  25.507   0.382
63126W        W35419   9.326  12.693  11.128
63127W        W35420   4.807  28.140   3.214
63128W        W35421   9.156  29.942   2.897
63129W        W35422  23.205  30.513   2.722
63130W        W35423  31.025  37.971   4.764
63131W        W35424  21.259   4.329  12.455
63132W        W35425   5.728  30.602   2.308
63133W        W35426  31.100   8.724   0.441
63134W        W35427  14.225   5.221   5.245
63135W        W35428  23.022  31.490  12.349
63136W        W35429  15.704   6.231  12.500
63137W        W35430  11.748   4.273  13.027
63138W        W35431   2.334  36.505  11.406
63139W        W35432  11.856  21.541  12.344
63140W        W35433  40.321  12.631  11.949
63141W        W35434   2.426   9.764  11.599
63142W        W35435  13.788  17.193   2.721
63143W        W35436   0.402   7.704   1.790
63144W        W35437  36.079  28.089  14.928
63145W        W35438   6.735  42.463   1.724
63146W        W35439  31.972  20.238   1.275
63147W        W35440  24.147   2.742   4.623
63148W        W35441  23.716  37.038  10.605
63149W        W35442   3.888  36.505   3.365
63150W        W35443  30.646  39.881  14.290
63151W        W35444  15.809   6.224   3.151
63152W        W35445  21.559   7.261   3.730
63153W        W35446   0.830   3.288  11.046
63154W        W35447   9.740  19.739  12.952
63155W        W35448  22.654  11.275  13.428
63156W        W35449   9.863   5.889   2.683
63157W        W35450  23.727  20.715  11.928
63158W        W35451  42.469  14.174   1.748
63159W        W35452  41.336  33.576  13.810
63160W        W35453   9.221   0.300   2.353
63161W        W35454   0.810  20.033   4.718
63162W        W35455  17.721   0.968   4.794
63163W        W35456  10.216   4.360   0.777
63164W        W35457   8.895  41.807  13.336
63165W        W35458  35.895  44.311   0.340
63166W        W35459  12.282  35.402   0.249
63167W        W35460  11.317  10.739   2.793
63168W        W35461  19.109  29.103   2.289
63169W        W35462  17.684  26.148   0.891
63170W        W35463  28.141  11.866  13.313
63171W        W35464  44.004  36.367   0.343
63172W        W35465   2.872  11.681  13.913
63173W        W35466  22.721   8.743  14.879
63174W        W35467  25.630   4.806  12.924
63175W        W35468  11.330  14.622  14.294
63176W        W35469  29.665  18.745   0.344
63177W        W35470  24.023  32.621   1.892
63178W        W35471  30.606  39.371   4.164
63179W        W35472  10.824  30.636  12.454
63180W        W35473  31.020  29.549  14.404
63181W        W35474  37.367  42.781  13.887
63182W        W35475  25.028   5.201  10.431
63183W        W35476  37.515  44.967  12.544
63184W        W35477  20.627   1.785   4.251
63185W        W35478   1.936  26.131   2.840
63186W        W35479  21.085  24.547  13.932
63187W        W35480  16.086   0.947  13.991
63188W        W35481   9.794  28.967  14.402
63189W        W35482   4.816  30.095   0.775
63190W        W35483  28.559   7.852  13.795
63191W        W35484  30.035  32.069  12.550
63192W        W35485  15.189   8.847  12.874
63193W        W35486  31.037  18.075  14.323
63194W        W35487  11.195  41.930  10.454
63195W        W35488  39.935   0.860   0.801
63196W        W35489   7.699  38.525  11.100
63197W        W35490  28.466  42.509   4.143
63198W        W35491  37.057   8.317   1.262
63199W        W35492  10.197  36.979  14.299
63200W        W35493   6.840  33.616  10.512
63201W        W35494  42.828  14.817   1.911
63202W        W35495   7.384   6.364  11.967
63203W        W35496  30.146  32.438   0.383
63204W        W35497  20.702   9.709  13.907
63205W        W35498  13.282  37.061   0.965
63206W        W35499  15.678  26.636  13.314
63207W        W35500  16.314  34.408   1.244
63208W        W35501   4.706  18.619   5.258
63209W        W35502  32.614  32.001   1.415
63210W        W35503  20.592  12.623  11.592
63211W        W35504   4.266  11.283   0.838
63212W        W35505  30.059  38.981  10.475
63213W        W35506  20.230  23.026   9.580
63214W        W35507  19.154  44.914   4.301
63215W        W35508  13.711  12.714  14.819
63216W        W35509   8.831  16.627  13.801
63217W        W35510   4.845  26.648   2.271
63218W        W35511  23.591  26.613   1.417
63219W        W35512   3.881  24.027   0.247
63220W        W35513  44.866  39.505   2.212
63221W        W35514  42.842  43.914  12.451
63222W        W35515   3.342  21.177   2.382
63223W        W35516  36.363   9.759   4.647
63224W        W35517  39.329  41.322   1.847
63225W        W35518  32.528  34.568   3.865
63226W        W35519  44.327  21.671  13.045
63227W        W35520  36.467   1.792   3.270
63228W        W35521  24.224  27.579  12.032
63229W        W35522  26.155  15.813   3.765
63230W        W35523   1.349  32.572  14.459
63231W        W35524  27.554   1.939  12.345
63232W        W35525  37.427   2.272   4.609
63233W        W35526  41.308  41.972   1.726
63234W        W35527  16.083  35.510  10.478
63235W        W35528  31.550  38.911  10.453
63236W        W35529  20.153  24.668   3.151
63237W        W35530  10.345  26.092  13.465
63238W        W35531  27.079  41.874   4.324
63239W        W35532   2.276  26.000   2.379
63240W        W35533  43.403  36.841   2.710
63241W        W35534  30.111  12.156  10.999
63242W        W35535  13.196  30.047   1.221
63243W        W35536  21.732  17.671  14.365
63244W        W35537  32.534  44.416  13.345
63245W        W35538  11.342  23.173   4.325
63246W        W35539   4.204   0.304  10.579
63247W        W35540  17.630  31.595   3.375
63248W        W35541  12.851   6.838   0.276
63249W        W35542  22.173  44.835   0.822
63250W        W35543  19.649  19.203   2.342
63251W        W35544  34.552  14.255   3.631
63252W        W35545  15.290   1.285  10.928
63253W        W35546  29.480   7.368  10.951
63254W        W35547  29.515   9.290  10.430
63255W        W35548  44.852  11.189  13.895
63256W        W35549  22.705  11.257   2.727
63257W        W35550  24.098  14.288   4.814
63258W        W35551  36.883   2.961  11.123
63259W        W35552   4.807  11.852  14.820
63260W        W35553  44.985  15.634  12.415
63261W        W35554   9.880  19.731   2.208
63262W        W35555  12.812  39.894   3.264
63263W        W35556   2.940  12.269  14.380
63264W        W35557  30.416  40.413   4.115
63265W        W35558  15.586  31.640   2.338
63266W        W35559  13.604  40.913  11.951
63267W        W35560  32.628  18.623   3.345
63268W        W35561  21.140  10.354   4.684
63269W        W35562  23.709  26.064  14.420
63270W        W35563  31.904   1.238   0.727
63271W        W35564  11.269  13.337   2.713
63272W        W35565  37.449  26.575   2.400
63273W        W35566  14.104  24.021   0.798
63274W        W35567   5.745  32.055  14.024
63275W        W35568  39.458  22.068   1.378
63276W        W35569   2.331  17.095  14.335
63277W        W35570  28.037  37.576  12.932
63278W        W35571  32.045  11.302  10.521
63279W        W35572  19.104  27.597  14.400
63280W        W35573  22.543  21.070  14.507
63281W        W35574  42.488  19.145   9.504
63282W        W35575  42.428  10.804  13.970
63283W        W35576  32.087  34.477   1.214
63284W        W35577  34.416  43.849   1.845
63285W        W35578  38.334  38.010  10.932
63286W        W35579   5.878   1.307  10.931
63287W        W35580  44.867   2.918   3.277
63288W        W35581  35.886  41.862   2.829
63289W        W35582  38.989  12.291  14.942
63290W        W35583  41.446  14.169   4.289
63291W        W35584  33.462  10.713   1.236
63292W        W35585  17.633  21.656  12.978
63293W        W35586  21.528  24.133  13.364
63294W        W35587  18.196  28.119  13.850
63295W        W35588  43.917  24.627  10.538
63296W        W35589  11.628  29.019   4.133
63297W        W35590  37.401  39.442  14.368
63298W        W35591  19.623  31.628  13.001
63299W        W35592   0.862  35.599  13.863
63300W        W35593  23.633  17.684  11.596
63301W        W35594   0.248  32.109  11.440
63302W        W35595  22.032  17.064   3.300
63303W        W35596  23.159  10.697  11.919
63304W        W35597   3.876  14.786  10.409
63305W        W35598  17.749  26.107  11.024
63306W        W35599  40.496   8.884  14.346
63307W        W35600  15.785  36.902  14.904
63308W        W35601  44.772   2.826  10.550
63309W        W35602   2.784  11.195  11.427
63310W        W35603  39.467   1.940   4.635
63311W        W35604   8.889  30.500   1.739
63312W        W35605   7.227  21.518  11.858
63313W        W35606   6.747   6.785   3.246
63314W        W35607   2.236  11.807   3.779
63315W        W35608  12.220  31.980  12.394
63316W        W35609  23.015   5.902   1.335
63317W        W35610   8.683  14.818  11.529
63318W        W35611  44.314  17.587   4.818
63319W        W35612  13.116  39.935   3.324
63320W        W35613   1.458  43.338  12.954
63321W        W35614  42.438   7.287   3.729
63322W        W35615  22.019  31.568   0.824
63323W        W35616   6.850   9.728   2.262
63324W        W35617  12.632  30.111  11.994
63325W        W35618  42.790  29.066  14.411
63326W        W35619  41.447  32.083   3.191
63327W        W35620   5.276   8.842   5.207
63328W        W35621  39.902  41.399   2.666
63329W        W35622  42.009  36.381   1.743
63330W        W35623   7.743   6.769  11.988
63331W        W35624  24.682  16.750   2.397
63332W        W35625  19.667  42.835   5.319
63333W        W35626  13.323  19.771   2.271
63334W        W35627  26.969  27.531  13.390
63335W        W35628  10.304  29.136  12.079
63336W        W35629  11.152  18.619   2.226
63337W        W35630  21.554  29.434   2.261
63338W        W35631  20.575  26.528  11.600
63339W        W35632  21.536   8.702   0.423
63340W        W35633  39.869  20.541   4.124
63341W        W35634  35.947  36.454   4.807
63342W        W35635   7.803  23.577   9.953
63343W        W35636  24.698  35.920   3.743
63344W        W35637   3.460  25.602  11.034
63345W        W35638  16.164   9.778   4.831
63346W        W35639  42.952  25.480   4.709
63347W        W35640  43.906  28.507   0.252
63348W        W35641   6.744   8.779   1.277
63349W        W35642   4.736   4.211  11.489
63350W        W35643   4.414  39.952   0.895
63351W        W35644  14.105   5.908   4.321
63352W        W35645  21.577  34.606   3.837
63353W        W35646  36.402  21.687  14.864
63354W        W35647   8.263  11.864  10.562
63355W        W35648  32.103  36.948  13.941
63356W        W35649  11.833   6.708  13.875
63357W        W35650   0.334   8.812   1.391
63358W        W35651  31.897  39.382   1.779
63359W        W35652  32.925  16.199  13.466
63360W        W35653   7.909  17.159  13.029
63361W        W35654  37.465  10.656  12.013
63362W        W35655  38.887  29.979  14.985
63363W        W35656  29.030  25.087   4.228
63364W        W35657   0.833  44.958  12.874
63365W        W35658  11.246   4.922   3.812
63366W        W35659  39.375  38.462  13.387
63367W        W35660  14.703   5.427  14.860
63368W        W35661  17.226  17.263   3.707
63369W        W35662  26.498  14.277   4.778
63370W        W35663  37.460  31.421   1.702
63371W        W35664  11.198   3.724   1.243
63372W        W35665  34.085   0.878   3.661
63373W        W35666   1.908  16.610   0.310
63374W        W35667  39.042   4.286   1.377
63375W        W35668   9.308  25.529   3.310
63376W        W35669  30.601  39.473  12.877
63377W        W35670   6.802  30.557   1.376
63378W        W35671  43.457  44.490   3.676
63379W        W35672  37.079  13.157  14.405
63380W        W35673   4.241  37.440   0.435
63381W        W35674  23.144  22.571   2.856
63382W        W35675   4.446  32.083  11.980
63383W        W35676  30.473  23.009   2.329
63384W        W35677   1.358  21.203  11.041
63385W        W35678  43.815  37.879  12.849
63386W        W35679   7.894  10.298   0.260
63387W        W35680  25.029   9.667  10.985
63388W        W35681   6.879  14.142   0.727
63389W        W35682  28.995  23.005   1.707
63390W        W35683  34.424   2.789  10.450
63391W        W35684  29.132   0.370  12.095
63392W        W35685  23.001  13.842  11.082
63393W        W35686  38.424  32.106   1.720
63394W        W35687  15.195  30.462   2.839
63395W        W35688  32.910   6.193  12.945
63396W        W35689   9.280   6.685  10.414
63397W        W35690  17.184  38.552   0.959
63398W        W35691  19.191   6.884  14.861
63399W        W35692  41.812  13.780  11.586
63400W        W35693  44.303   9.292   3.680
63401W        W35694  18.067  20.175   9.988
63402W        W35695  25.676   5.227   2.193
63403W        W35696  11.250  14.157   1.697
63404W        W35697  19.129  28.173  11.029
63405W        W35698  43.363  30.456   3.822
63406W        W35699   2.255  44.447  11.003
63407W        W35700  28.643  35.510   3.735
63408W        W35701  13.197   7.215   4.125
63409W        W35702  10.244  13.266  11.997
63410W        W35703  26.078  34.863  11.857
63411W        W35704   2.289  43.011   3.366
63412W        W35705  25.530   5.739   2.397
63413W        W35706  37.536  23.025  10.598
63414W        W35707  29.510   5.349   2.812
63415W        W35708  37.440   0.783  10.934
63416W        W35709  18.088  13.602   0.833
63417W        W35710  28.102  40.383   4.151
63418W        W35711   0.326  29.120   0.853
63419W        W35712   8.397  42.367   4.293
63420W        W35713  43.294  28.150   3.654
63421W        W35714  27.109  29.161   2.855
63422W        W35715   1.481  13.111  12.385
63423W        W35716  41.405  43.847  10.528
63424W        W35717  21.749  18.156   4.285
63425W        W35718  13.222  26.658   0.259
63426W        W35719  17.629  37.930  10.908
63427W        W35720  30.970  12.711  11.882
63428W        W35721  23.041  29.994  11.959
63429W        W35722  44.786   3.277   2.747
63430W        W35723  23.129  19.678  12.912
63431W        W35724  13.180  23.664  14.014
63432W        W35725  34.938  12.328  13.052
63433W        W35726  40.833  44.962   5.234
63434W        W35727  11.332  10.363  13.908
63435W        W35728  19.655  33.945   3.718
63436W        W35729  18.762  15.686  10.644
63437W        W35730  32.931   1.244   3.786
63438W        W35731  44.376  16.583   1.356
63439W        W35732  20.051  21.529   9.635
63440W        W35733   7.782  30.040   1.858
63441W        W35734  14.658  36.511   2.412
63442W        W35735  42.985  40.441  13.801
63443W        W35736  19.086  27.133   0.738
63444W        W35737  39.486  16.125   3.745
63445W        W35738  21.751   1.446  14.917
63446W        W35739  41.876   9.670   3.755
63447W        W35740  17.743  22.689   4.130
63448W        W35741  12.816  15.763   1.912
63449W        W35742  11.142  31.132   1.395
63450W        W35743  15.249   0.299  10.911
63451W        W35744  44.839  23.573  13.007
63452W        W35745  31.076   8.899  10.970
63453W        W35746  27.063  22.232   1.749
63454W        W35747   8.364  28.941   1.249
63455W        W35748  21.738   1.275  13.823
63456W        W35749  28.011   9.385  13.001
63457W        W35750  37.398   1.952  11.435
63458W        W35751  13.832  28.503  13.803
63459W        W35752  27.166  18.073   4.783
63460W        W35753   0.417  31.489   1.383
63461W        W35754  20.602  12.268  14.386
63462W        W35755   4.267  17.605  13.029
63463W        W35756  25.614  40.425   0.783
63464W        W35757  17.239  34.977   9.979
63465W        W35758   9.765  11.699   1.806
63466W        W35759  22.160  28.123   2.322
63467W        W35760  32.503  42.867  14.287
63468W        W35761   7.832  12.282  13.378
63469W        W35762   8.331  18.553  14.280
63470W        W35763  40.942   1.762  13.834
63471W        W35764  24.522  39.813   1.883
63472W        W35765   5.869  32.433  13.854
63473W        W35766  20.558  35.922  13.887
63474W        W35767  43.834  22.064  11.994
63475W        W35768  25.543  15.252  12.441
63476W        W35769  16.078  13.739   0.322
63477W        W35770   9.194  37.479   1.376
63478W        W35771  23.696  41.882   2.232
63479W        W35772  42.790  40.335  12.068
63480W        W35773  15.163   4.715  14.821
63481W        W35774  17.675  23.995   2.736
63482W        W35775  22.675   3.318  12.983
63483W        W35776  32.002  37.897   3.359
63484W        W35777  21.690  40.054  11.934
63485W        W35778  34.580  40.440   4.608
63486W        W35779  38.049  23.145  10.406
63487W        W35780  35.006   2.921   3.803
63488W        W35781  37.861  12.705  11.017
63489W        W35782  14.132   4.872   2.399
63490W        W35783  20.739  28.611  13.926
63491W        W35784   7.322  32.487   1.884
63492W        W35785   8.280  42.873  12.008
63493W        W35786   7.389  37.433  10.030
63494W        W35787  18.131  21.037  14.973
63495W        W35788  28.026  26.034  12.995
63496W        W35789  27.469  30.931  14.353
63497W        W35790  24.123  20.253  14.845
63498W        W35791  11.695   8.289  11.437
63499W        W35792  11.337  42.912  11.412
63500W        W35793  34.391  26.536   2.877
63501W        W35794  12.714  31.903   0.359
63502W        W35795  32.553  13.769   2.199
63503W        W35796  24.160   0.960  13.050
63504W        W35797  28.940  31.426   0.262
63505W        W35798  28.514  40.427  14.995
63506W        W35799   5.810  43.290  11.902
63507W        W35800  16.229  33.451   4.733
63508W        W35801  15.673   7.307   1.838
63509W        W35802  40.476  44.947   1.237
63510W        W35803   4.240  28.004  11.393
63511W        W35804  30.649  29.072  12.498
63512W        W35805  34.471   5.308  11.108
63513W        W35806  15.272  38.006  11.430
63514W        W35807  16.798  22.548  13.919
63515W        W35808  32.141   3.799   5.134
63516W        W35809   7.719  18.207  10.644
63517W        W35810   7.750  25.092  13.033
63518W        W35811  33.123  35.393  14.280
63519W        W35812  28.103  14.261   3.759
63520W        W35813   0.823   5.912  14.461
63521W        W35814  28.573  44.794   2.258
63522W        W35815  33.900  35.043   4.262
63523W        W35816  19.268  19.204  13.868
63524W        W35817  44.908  24.061  11.433
63525W        W35818  42.303  43.887   4.612
63526W        W35819  26.083  44.885   0.728
63527W        W35820  10.796  33.124   4.246
63528W        W35821  21.208  44.315  12.561
63529W        W35822  44.454  39.030   1.768
63530W        W35823   3.275  39.982  13.980
63531W        W35824  10.837  44.262   1.269
63532W        W35825  38.853  24.119  11.943
63533W        W35826  39.834  18.258  14.996
63534W        W35827  40.055   7.203  12.928
63535W        W35828  16.238  36.848  13.527
63536W        W35829  31.465  32.544   1.822
63537W        W35830  33.604  13.197  11.521
63538W        W35831   7.172  33.097   4.339
63539W        W35832  42.378   6.197  13.336
63540W        W35833  33.618  19.620   4.271
63541W        W35834  22.622  29.643  13.520
63542W        W35835  30.519  18.725  14.954
63543W        W35836  41.863   6.817   1.900
63544W        W35837  44.958   0.489   2.703
63545W        W35838  14.192  19.730   2.674
63546W        W35839  16.112  19.091  12.060
63547W        W35840  12.735   7.847  12.400
63548W        W35841  25.527  40.434  12.873
63549W        W35842   6.820  17.689   4.117
63550W        W35843  18.132  32.595  10.004
63551W        W35844  24.102   3.358  13.344
63552W        W35845  33.474  27.113   2.321
63553W        W35846  24.721   8.662  11.945
63554W        W35847  28.645  24.183   3.184
63555W        W35848   7.238  43.312  12.469
63556W        W35849  16.586  15.289   3.163
63557W        W35850   1.323   6.900   4.605
63558W        W35851  21.160  18.265   3.815
63559W        W35852  39.881  31.559   0.916
63560W        W35853  38.916  27.040  13.039
63561W        W35854   8.177  24.702  10.580
63562W        W35855  17.173  42.017   3.685
63563W        W35856  35.901  10.277   2.697
63564W        W35857  39.383   8.167   4.813
63565W        W35858  30.538  31.995   4.201
63566W        W35859   5.855  38.384  13.435
63567W        W35860   1.769  23.121  11.558
63568W        W35861  15.742  29.627   4.152
63569W        W35862   6.901  20.034   1.904
63570W        W35863  30.991  27.529   2.851
63571W        W35864  12.657  40.838  12.541
63572W        W35865  13.280   4.313  13.851
63573W        W35866  20.240  10.262   2.284
63574W        W35867  19.207  44.941   0.401
63575W        W35868  40.016  20.149   2.775
63576W        W35869   8.762   2.432  11.035
63577W        W35870  13.767  20.258  12.556
63578W        W35871  34.065   4.914  12.925
63579W        W35872   4.234  25.539   4.324
63580W        W35873   9.735  44.323   4.670
63581W        W35874   8.292  29.000   2.297
63582W        W35875   4.795  28.438  13.906
63583W        W35876  30.641  35.477   4.708
63584W        W35877  40.834  29.634  11.978
63585W        W35878  13.226  23.697   2.680
63586W        W35879   9.749  20.590   0.893
63587W        W35880  23.094  10.843   3.168
63588W        W35881  24.479  42.827  12.824
63589W        W35882  42.976  26.578  12.913
63590W        W35883  42.484  40.546   3.833
63591W        W35884  16.776  24.567  14.890
63592W        W35885  12.688  25.675   4.642
63593W        W35886  12.659  34.904   2.270
63594W        W35887  19.148  42.507   3.353
63595W        W35888  17.577   0.940  14.771
63596W        W35889  41.510  28.630  11.986
63597W        W35890  31.483  36.984   1.301
63598W        W35891   5.892   3.420  11.429
63599W        W35892  39.486  27.142  11.568
63600W        W35893  37.055  38.990   1.272
63601W        W35894  24.709   5.363  11.117
63602W        W35895  13.289  27.972   1.329
63603W        W35896   4.411  20.113  11.507
63604W        W35897  36.524   6.876  13.001
63605W        W35898   7.851  22.547  12.421
63606W        W35899   0.267   1.870  13.980
63607W        W35900   0.941   0.380  14.290
63608W        W35901   1.784   5.413  12.847
63609W        W35902  18.204  23.516  13.467
63610W        W35903  14.151  26.956   3.347
63611W        W35904  16.681  12.615   2.310
63612W        W35905  27.576  25.537  10.888
63613W        W35906   7.405  18.610   2.787
63614W        W35907  20.701  27.968  10.986
63615W        W35908  17.609  25.012   4.308
63616W        W35909  43.473  22.244   3.727
63617W        W35910  25.588   0.813  10.985
63618W        W35911  11.162  15.645   2.765
63619W        W35912   6.355  28.665  14.777
63620W        W35913  17.111  38.850   3.795
63621W        W35914  19.089  10.677  14.855
63622W        W35915  10.790  41.042   4.200
63623W        W35916  29.001   1.948   0.901
63624W        W35917  19.655  41.935   5.289
63625W        W35918  27.955  22.045  11.567
63626W        W35919  15.710  34.427   4.637
63627W        W35920  21.141  24.022   4.657
63628W        W35921  27.101  23.495   5.646
63629W        W35922   4.718  25.569  13.496
63630W        W35923  26.606  14.684  11.438
63631W        W35924  17.595  31.423   5.120
63632W        W35925  25.060  18.169  10.582
63633W        W35926   5.264  32.139   3.850
63634W        W35927  37.890  35.599  11.396
63635W        W35928  16.148   0.857   3.681
63636W        W35929  35.401  42.428   0.893
63637W        W35930  10.350  16.181   0.835
63638W        W35931  16.276  27.505  10.976
63639W        W35932  42.944   9.806  10.949
63640W        W35933   4.876  28.037  11.561
63641W        W35934  18.786  27.991   2.324
63642W        W35935  38.349  44.498   3.243
63643W        W35936  30.975  23.087  14.910
63644W        W35937   5.268  26.013   1.821
63645W        W35938  24.537  38.957   0.810
63646W        W35939  11.820   2.941  13.854
63647W        W35940  30.024  18.167   1.254
63648W        W35941  37.450  26.112  12.992
63649W        W35942  23.118  19.780  11.587
63650W        W35943  21.683  40.037   2.267
63651W        W35944  33.116  44.979   4.793
63652W        W35945  25.521  21.156   1.450
63653W        W35946  16.691   0.347   0.821
63654W        W35947   3.350   4.866   5.209
63655W        W35948  34.378   1.357  11.046
63656W        W35949  32.491  28.635   0.439
63657W        W35950  17.252  43.005   4.724
63658W        W35951  41.924   7.670   2.405
63659W        W35952  25.696  16.248  11.395
63660W        W35953   3.360  12.801   1.325
63661W        W35954  43.808  35.096   3.637
63662W        W35955  24.531  34.573  12.067
63663W        W35956  43.819   2.326  13.365
63664W        W35957   1.419  40.329  14.783
63665W        W35958  27.467  21.129   2.211
63666W        W35959  29.988   0.250  12.891
63667W        W35960   2.413  22.057   3.148
63668W        W35961  15.608  42.402  11.914
63669W        W35962  41.869  30.163   3.385
63670W        W35963  43.427  26.036  12.377
63671W        W35964  31.898  11.205   4.316
63672W        W35965  19.682  18.086   0.337
63673W        W35966   5.923   2.759   3.820
63674W        W35967   9.373  30.584  10.504
63675W        W35968  39.914  30.543   4.213
63676W        W35969  44.765  20.597  13.416
63677W        W35970  17.735  36.968  10.405
63678W        W35971  40.363  37.067  14.977
63679W        W35972  21.222  15.144  14.865
63680W        W35973  19.059  27.146   2.729
63681W        W35974  34.491  30.914  11.491
63682W        W35975  27.571   6.197   0.280
63683W        W35976  32.131  26.629   4.270
63684W        W35977   3.329   1.911  14.997
63685W        W35978  38.032   5.842  12.401
63686W        W35979  25.543  42.872  11.058
63687W        W35980  34.517   5.932   4.820
63688W        W35981  29.996  11.836   4.670
63689W        W35982  32.943  38.476  11.537
63690W        W35983  37.385   0.311  14.423
63691W        W35984  31.042  22.675  13.865
63692W        W35985   2.952  21.156   0.379
63693W        W35986  35.978  22.127  11.964
63694W        W35987  33.982   7.395   3.689
63695W        W35988   8.693   2.928   0.747
63696W        W35989  27.579  11.681   0.337
63697W        W35990  28.124  20.250  14.900
63698W        W35991  22.058  11.738  11.043
63699W        W35992  36.971   5.280  11.438
63700W        W35993  32.969  28.657  10.898
63701W        W35994  37.495   6.221  13.902
63702W        W35995  18.269  34.512  13.931
63703W        W35996  20.654  40.473   0.275
63704W        W35997   2.261  32.069  11.554
63705W        W35998  18.148  23.003   4.168
63706W        W35999  15.166  44.901   2.278
63707W        W36000   5.273  37.437  11.000
63708W        W36001  22.038  12.221  14.365
63709W        W36002  22.593  44.285   5.183
63710W        W36003  24.016  30.095   3.727
63711W        W36004  27.580  42.459   1.229
63712W        W36005  13.641   1.898  12.500
63713W        W36006  27.059   9.695   1.348
63714W        W36007   8.867   6.810  11.579
63715W        W36008  18.157  39.031   1.929
63716W        W36009   2.858  12.852  11.999
63717W        W36010   9.868  32.030   4.747
63718W        W36011  36.431   2.897   0.818
63719W        W36012  35.562  14.687  13.391
63720W        W36013  23.202  30.908   0.778
63721W        W36014  14.820   0.755  14.413
63722W        W36015   0.822  16.796   2.767
63723W        W36016  30.972  19.712   2.364
63724W        W36017  41.382   3.951   2.180
63725W        W36018   9.849  37.335   1.832
63726W        W36019  29.501  12.227  11.443
63727W        W36020  11.754  31.030  12.028
63728W        W36021  37.524  27.465  13.910
63729W        W36022  24.494  21.153  12.430
63730W        W36023  13.751  28.500   4.782
63731W        W36024  33.439   9.271  14.428
63732W        W36025  44.908  10.318   4.222
63733W        W36026  20.763   2.809   3.816
63734W        W36027   1.752  27.000   2.253
63735W        W36028  30.106  32.099  12.866
63736W        W36029  42.483  13.184  11.595
63737W        W36030  19.667  31.404   0.762
63738W        W36031  38.486  10.168   0.479
63739W        W36032  20.141  43.490   4.802
63740W        W36033  13.727  15.232  12.008
63741W        W36034   0.988  17.269  13.413
63742W        W36035  30.626  12.213  10.423
63743W        W36036  26.539  24.601   1.753
63744W        W36037  10.315  37.986   3.822
63745W        W36038  42.925  14.767  12.926
63746W        W36039  19.762  17.767   4.740
63747W        W36040  30.101  10.856   1.365
63748W        W36041  18.666  23.149   4.292
63749W        W36042   5.351  28.177  12.028
63750W        W36043  37.954  23.624   4.114
63751W        W36044   6.734  44.766  14.410
63752W        W36045   3.846   8.692  10.081
63753W        W36046  39.848   4.703  13.422
63754W        W36047  28.471  34.893  12.089
63755W        W36048   7.789  18.777   4.685
63756W        W36049  40.979  22.050   2.876
63757W        W36050  38.349  37.021   1.857
63758W        W36051  21.530  44.262   1.425
63759W        W36052   7.174   3.877   4.702
63760W        W36053  19.562  11.337   1.767
63761W        W36054  44.285  33.555  11.450
63762W        W36055  17.078  38.455   3.258
63763W        W36056   8.180  35.011  11.113
63764W        W36057  19.115  27.479   4.168
63765W        W36058   7.855  40.369   5.150
63766W        W36059  12.854  34.899  11.426
63767W        W36060  15.198  18.088  14.817
63768W        W36061  31.407  30.479   0.324
63769W        W36062   2.471  18.593  10.418
63770W        W36063  30.434  28.643  14.292
63771W        W36064   5.758  25.546  12.532
63772W        W36065  38.998  40.388  13.372
63773W        W36066   4.232  33.428  13.542
63774W        W36067  19.069  18.743   0.463
63775W        W36068  19.106  42.285   0.317
63776W        W36069  43.918   6.322  10.932
63777W        W36070   6.407  28.933  14.950
63778W        W36071  19.619  24.089  13.019
63779W        W36072   3.908  11.795  10.894
63780W        W36073  12.162  23.561   2.241
63781W        W36074  26.651  10.210   3.697
63782W        W36075   1.286   7.300   1.829
63783W        W36076   4.221  44.497  11.587
63784W        W36077  34.952  37.490   0.783
63785W        W36078  19.722  41.424  14.877
63786W        W36079  15.614   9.267  12.923
63787W        W36080  22.653  26.640  10.990
63788W        W36081  11.784   6.335   4.260
63789W        W36082  18.616   4.930   0.758
63790W        W36083   8.336   5.268  13.446
63791W        W36084  16.245   4.916   2.274
63792W        W36085  13.160  40.434   5.273
63793W        W36086  23.653  43.377  10.950
63794W        W36087  26.034   2.837  13.935
63795W        W36088  24.037  28.675  10.514
63796W        W36089  11.740  38.057   0.938
63797W        W36090   4.863  28.182   0.305
63798W        W36091  16.590  36.467   4.332
63799W        W36092  37.558   6.199   3.343
63800W        W36093  11.341  37.356   4.342
63801W        W36094  36.549  44.762  10.546
63802W        W36095  29.078   9.672   2.327
63803W        W36096  31.451  11.218   2.267
63804W        W36097  41.413  21.168   2.321
63805W        W36098  43.939  30.145  13.971
63806W        W36099  31.122  24.123  13.905
63807W        W36100  16.750   6.871  14.865
63808W        W36101  39.400   3.334  11.929
63809W        W36102  19.159  11.866   1.720
63810W        W36103  35.984  28.107   4.279
63811W        W36104  11.361  27.953  11.460
63812W        W36105  40.462   7.203  10.900
63813W        W36106  33.530  13.773   4.836
63814W        W36107  36.087  21.161  12.348
63815W        W36108  18.631  17.226   5.123
63816W        W36109  12.329   9.228   2.364
63817W        W36110  10.228  13.291   2.417
63818W        W36111  38.406  10.326   1.375
63819W        W36112  21.024  22.192   3.822
63820W        W36113  36.392  40.867   1.322
63821W        W36114   7.327  13.742   3.145
63822W        W36115  40.963   5.365   0.785
63823W        W36116  13.183   1.440  12.935
63824W        W36117  38.010  14.597   4.760
63825W        W36118  11.217  43.425  10.620
63826W        W36119  42.797   3.400  11.958
63827W        W36120  10.822  25.593   1.821
63828W        W36121  14.213  14.748  10.536
63829W        W36122  11.307   5.362   3.862
63830W        W36123  44.342  11.728  10.489
63831W        W36124  13.787  24.676  14.926
63832W        W36125   3.312  13.644   0.784
63833W        W36126   8.293  37.037   1.738
63834W        W36127   3.755  19.586   4.179
63835W        W36128  42.319   4.225  13.339
63836W        W36129  10.824  38.535   4.330
63837W        W36130  31.126  39.829  10.593
63838W        W36131  13.110  13.673  13.352
63839W        W36132   4.853  17.246  14.027
63840W        W36133   9.725  12.744  10.585
63841W        W36134  24.612  30.021   4.821
63842W        W36135  41.386  27.643  14.422
63843W        W36136  42.930  41.800   5.240
63844W        W36137   1.399   0.890   2.794
63845W        W36138  26.094  38.053  12.475
63846W        W36139  18.162  20.654   9.436
63847W        W36140   6.354  33.591  14.465
63848W        W36141  24.493   0.932  11.552
63849W        W36142  28.053  36.929  14.984
63850W        W36143  15.782  14.297  13.537
63851W        W36144  23.573  30.920   2.711
63852W        W36145  30.961  40.396  11.901
63853W        W36146  18.271  10.285   3.190
63854W        W36147  42.357  21.556  11.083
63855W        W36148  16.202  32.073   4.777
63856W        W36149  22.094  20.694   1.435
63857W        W36150  16.677  25.490   2.218
63858W        W36151  30.588  31.038  13.957
63859W        W36152  26.535  13.816   1.720
63860W        W36153  15.705  23.611   4.817
63861W        W36154  39.034  24.572  13.508
63862W        W36155  14.744  13.646  11.933
63863W        W36156  10.206  31.479  12.935
63864W        W36157   7.871   6.407   4.617
63865W        W36158   3.779  16.290  12.881
63866W        W36159  39.963  33.558   3.798
63867W        W36160  13.201   1.880  11.536
63868W        W36161  35.584  20.099   3.854
63869W        W36162  26.194  29.455  11.611
63870W        W36163  22.165  16.692   2.257
63871W        W36164  38.969   8.783  12.043
63872W        W36165  26.697   2.249   2.193
63873W        W36166   2.873  25.079  14.839
63874W        W36167  32.528  39.059   4.801
63875W        W36168  43.881  28.606  13.390
63876W        W36169  21.200   6.685  13.506
63877W        W36170   8.824  25.183  10.589
63878W        W36171   5.930  44.484  13.432
63879W        W36172  10.766   5.235   4.620
63880W        W36173  25.077  25.016   3.763
63881W        W36174  25.133  38.566  13.475
63882W        W36175  40.830  25.141  14.418
63883W        W36176  10.843  40.937  13.352
63884W        W36177  10.239  32.015   3.859
63885W        W36178  41.494  44.503  13.955
63886W        W36179  20.757   5.259   3.281
63887W        W36180  30.486  10.783  12.540
63888W        W36181  35.961  21.108  12.881
63889W        W36182  27.119  21.065   1.816
63890W        W36183  32.543   5.751   2.252
63891W        W36184  24.505  38.958   4.802
63892W        W36185  37.459  31.623  13.356
63893W        W36186  23.052   6.918  12.040
63894W        W36187  23.107  11.800   4.614
63895W        W36188  35.873  21.194   2.326
63896W        W36189   4.855  38.961   0.324
63897W        W36190  21.704  24.651   1.315
63898W        W36191  32.470  36.353   4.208
63899W        W36192  25.995  17.275   4.278
63900W        W36193   4.746  20.606   4.223
63901W        W36194  10.698  14.232   2.301
63902W        W36195  29.001  44.764  13.325
63903W        W36196   5.318   9.667   4.815
63904W        W36197  39.510  30.980  10.906
63905W        W36198   5.889   1.763   2.835
63906W        W36199  33.466  14.325  13.441
63907W        W36200  33.987   5.740   2.893
63908W        W36201  27.164  23.666   1.873
63909W        W36202  40.348  23.107  11.511
63910W        W36203  24.090   0.780   4.171
63911W        W36204  42.460  38.506   2.201
63912W        W36205  24.696  35.882   4.251
63913W        W36206  15.765  13.269  11.078
63914W        W36207  37.066  44.287  11.920
63915W        W36208  36.365  44.374  13.973
63916W        W36209   7.727  36.427  10.977
63917W        W36210  40.050  21.628   2.690
63918W        W36211  37.510   3.801  12.824
63919W        W36212  40.318  41.993   4.715
63920W        W36213  43.866  23.660   4.266
63921W        W36214  24.540  11.701  10.996
63922W        W36215   6.409   8.677   1.450
63923W        W36216  34.454  24.155   1.764
63924W        W36217  14.283   4.871  11.105
63925W        W36218  28.001   8.279   0.831
63926W        W36219  24.707  23.519  14.764
63927W        W36220   3.245   1.941   0.436
63928W        W36221  22.665  26.527   3.719
63929W        W36222   9.384  16.297  13.330
63930W        W36223  43.352  30.134  11.554
63931W        W36224  41.976  14.130   3.676
63932W        W36225  27.076  11.363   0.829
63933W        W36226  25.019  25.510   3.312
63934W        W36227  39.485  10.360   2.387
63935W        W36228  30.607  34.038  10.962
63936W        W36229  19.740  12.282   3.329
63937W        W36230  43.306  16.592   0.275
63938W        W36231  16.195  19.752  14.824
63939W        W36232  35.487  22.154   4.172
63940W        W36233   7.206  14.329  11.613
63941W        W36234   7.275  32.471  11.957
63942W        W36235   1.783  24.024   3.867
63943W        W36236  20.730  35.882  13.536
63944W        W36237   0.370  12.185   3.824
63945W        W36238  31.500   5.395  13.503
63946W        W36239   5.436   7.300   2.343
63947W        W36240   2.300  30.610   4.326
63948W        W36241   8.850  21.750   0.921
63949W        W36242  34.927  20.637  13.793
63950W        W36243  23.555   1.476   3.828
63951W        W36244   7.789  17.709   2.358
63952W        W36245  10.220  10.653   2.845
63953W        W36246  14.754   1.741   3.727
63954W        W36247   8.286  16.769  12.465
63955W        W36248   6.815  28.186  12.073
63956W        W36249   9.785  21.544  11.035
63957W        W36250  12.160   5.320  10.933
63958W        W36251   0.272  33.996  12.845
63959W        W36252  22.512   3.374   4.228
63960W        W36253  12.786  38.858   2.831
63961W        W36254   8.888  27.170  10.911
63962W        W36255   5.754   8.870  11.545
63963W        W36256  33.447   6.797  11.403
63964W        W36257   9.363  23.082   1.780
63965W        W36258  43.416  36.566   5.245
63966W        W36259  44.378   7.793  14.488
63967W        W36260   0.981  25.122  11.888
63968W        W36261   8.782  44.400   3.320
63969W        W36262   0.424  11.829   2.354
63970W        W36263  12.816  33.458   1.384
63971W        W36264  25.194  35.883   3.842
63972W        W36265  41.453  26.056   1.276
63973W        W36266   2.790  38.351  11.590
63974W        W36267   0.787  17.773  12.046
63975W        W36268  36.563   4.351  12.580
63976W        W36269  29.625  39.450   1.754
63977W        W36270  38.862  13.790   1.386
63978W        W36271  22.653  39.491   1.316
63979W        W36272  21.675   9.879   2.345
63980W        W36273  19.766  30.963   4.305
63981W        W36274   3.265  23.997  12.451
63982W        W36275  16.740   1.322   1.883
63983W        W36276  43.852  19.282  10.643
63984W        W36277  31.522   6.212  11.573
63985W        W36278  12.202  24.496   3.259
63986W        W36279  37.978  39.920   3.664
63987W        W36280  44.851  29.616   1.347
63988W        W36281  12.273   5.845  10.414
63989W        W36282  39.906   7.387  10.555
63990W        W36283  12.181   5.691   1.225
63991W        W36284  12.238  12.737   4.759
63992W        W36285  30.545  26.144   1.331
63993W        W36286   4.926  10.703   1.265
63994W        W36287  21.225  22.682  11.054
63995W        W36288  27.060  41.356  11.004
63996W        W36289  23.566  31.609  11.908
63997W        W36290   8.812  30.978   1.764
63998W        W36291  13.338  24.627   4.790
63999W        W36292  26.089  22.198   5.254
64000W        W36293  38.471  19.230  10.954
64001W        W36294  42.469  36.926  14.801
64002W        W36295  34.582  23.043   3.228
64003W        W36296  25.018   0.444   1.810
64004W        W36297  32.055  10.787  14.769
64005W        W36298  32.630  44.812  14.000
64006W        W36299   6.818  13.633   4.720
64007W        W36300  11.260  21.186   2.412
64008W        W36301  13.836  26.613  12.915
64009W        W36302  18.267   7.287  12.424
64010W        W36303  16.229  37.434  11.978
64011W        W36304  26.095  40.476  11.872
64012W        W36305   8.890  14.687   2.889
64013W        W36306  30.976  21.169   3.707
64014W        W36307  28.029  38.839  14.504
64015W        W36308  40.963  41.911   2.254
64016W        W36309  15.808  10.341   2.689
64017W        W36310  35.881  29.006   3.834
64018W        W36311  36.589   3.323  13.414
64019W        W36312  43.803  20.619  12.547
64020W        W36313  25.025  12.825  14.823
64021W        W36314  20.742   1.958  12.936
64022W        W36315   2.233  38.442   3.160
64023W        W36316  12.251  42.497  12.458
64024W        W36317  29.482  15.631   4.803
64025W        W36318  29.640   7.238  12.034
64026W        W36319  13.767   7.735   2.674
64027W        W36320  20.660  36.592  14.882
64028W        W36321  20.603  30.001  11.088
64029W        W36322  10.718  13.635  10.420
64030W        W36323  38.017  37.508   1.300
64031W        W36324   6.259  37.087   4.221
64032W        W36325  20.119   4.369   1.253
64033W        W36326  18.172  42.357   4.748
64034W        W36327  24.126  38.342  11.497
64035W        W36328  24.691  13.333   2.778
64036W        W36329  10.798   5.344   1.308
64037W        W36330  23.135  35.546   3.685
64038W        W36331  26.038  41.504   1.772
64039W        W36332  27.659  38.437  13.041
64040W        W36333  18.169  20.662   0.923
64041W        W36334  27.518  33.074   0.277
64042W        W36335  31.538  13.636   0.964
64043W        W36336  21.743  23.501   3.648
64044W        W36337   6.417  26.987   3.698
64045W        W36338  27.678  41.024  12.566
64046W        W36339   6.203   0.787   1.351
64047W        W36340   0.369   1.428   3.209
64048W        W36341  34.982  29.920  11.096
64049W        W36342   9.167  18.277  14.510
64050W        W36343  17.101  22.038  12.488
64051W        W36344  44.853  38.365  12.403
64052W        W36345  20.743  17.133  12.450
64053W        W36346  24.186  38.930  10.446
64054W        W36347  26.082  42.820  12.471
64055W        W36348  15.638  19.193   1.709
64056W        W36349  13.144  23.100  13.390
64057W        W36350  30.570  39.392   1.906
64058W        W36351  28.577  24.024   2.188
64059W        W36352  27.979  38.936  10.449
64060W        W36353  16.738  23.061   3.675
64061W        W36354   6.917  26.551   0.874
64062W        W36355  11.359  42.874  13.504
64063W        W36356   7.746  29.112   3.660
64064W        W36357  14.810  41.340   9.924
64065W        W36358  40.976   8.384   2.673
64066W        W36359   9.889  17.128  10.580
64067W        W36360  12.227  33.534   4.325
64068W        W36361   4.718  20.154   1.292
64069W        W36362  33.887  27.963  14.933
64070W        W36363  10.710   0.421   0.247
64071W        W36364  12.339   5.438   1.806
64072W        W36365  43.880  19.602   4.758
64073W        W36366  22.172  30.538  12.493
64074W        W36367  10.208  31.153   3.318
64075W        W36368  21.203  23.140  11.540
64076W        W36369  24.553  41.296  13.925
64077W        W36370  18.053  11.294   2.854
64078W        W36371  35.543  19.186   0.762
64079W        W36372  42.937  39.005   1.301
64080W        W36373   1.812  11.647  12.368
64081W        W36374  12.128  12.785   0.474
64082W        W36375  44.800  16.303  13.825
64083W        W36376  33.490  13.791  14.913
64084W        W36377  11.687  21.233  14.493
64085W        W36378  18.585   1.254   1.894
64086W        W36379  18.590  44.806   3.862
64087W        W36380  36.452  33.470  10.421
64088W        W36381  35.536  26.974  14.370
64089W        W36382   9.696  17.214  13.496
64090W        W36383  30.414   0.300  11.078
64091W        W36384   4.753  34.893   4.781
64092W        W36385  26.067   3.434   0.762
64093W        W36386  29.590  10.635   0.792
64094W        W36387  33.928  30.507  12.385
64095W        W36388   3.413  25.049  14.358
64096W        W36389   7.177  21.122  13.831
64097W        W36390   3.362  17.092   4.659
64098W        W36391  11.230  25.696   3.212
64099W        W36392  19.136  25.539   1.431
64100W        W36393  38.832  34.598   2.776
64101W        W36394  38.366  17.231   1.795
64102W        W36395   6.314  33.992   2.198
64103W        W36396   3.781  19.209   0.937
64104W        W36397  25.103  16.571   3.768
64105W        W36398  16.604   1.904  11.580
64106W        W36399  44.878   1.812   4.653
64107W        W36400  17.641  23.014  12.506
64108W        W36401  40.868  38.879  12.407
64109W        W36402  43.343  36.939   2.281
64110W        W36403  43.372   5.433   3.837
64111W        W36404   4.270   6.861   0.896
64112W        W36405   7.326   7.288   2.352
64113W        W36406  18.775   2.936  10.968
64114W        W36407  36.425  38.978   0.803
64115W        W36408   4.742  16.722  10.570
64116W        W36409   1.292  38.446  12.870
64117W        W36410  34.008   9.706  14.409
64118W        W36411   1.370  22.617   0.258
64119W        W36412   6.423  27.967  13.444
64120W        W36413  19.587  25.017  12.054
64121W        W36414   3.339  43.492   4.302
64122W        W36415  28.024   0.985  13.548
64123W        W36416  11.789   1.301  13.417
64124W        W36417  19.243  11.866  11.055
64125W        W36418  31.969  36.355  13.402
64126W        W36419  16.690  32.898  10.892
64127W        W36420  17.708  20.607   2.771
64128W        W36421   4.249  37.566   1.264
64129W        W36422   8.214  43.501   1.355
64130W        W36423   2.258  16.757  14.450
64131W        W36424  28.518  35.392  13.342
64132W        W36425  34.458  35.902  14.952
64133W        W36426  43.452  41.483   3.771
64134W        W36427  27.671  11.145   1.852
64135W        W36428  15.581   6.181   2.851
64136W        W36429  18.151  42.923   1.366
64137W        W36430  36.588  17.283   1.355
64138W        W36431  26.034   0.363   3.298
64139W        W36432  14.725  13.255   4.816
64140W        W36433  13.634  24.086  12.005
64141W        W36434  31.134  19.053   1.313
64142W        W36435  13.822  30.612  11.888
64143W        W36436   8.714  38.076  12.461
64144W        W36437  28.674  11.628  10.556
64145W        W36438  16.208  21.633   3.630
64146W        W36439   8.729  20.171  13.814
64147W        W36440   8.366  37.397   5.209
64148W        W36441   5.786   6.271   1.930
64149W        W36442  10.153   6.683  11.870
64150W        W36443  37.341  38.004  13.441
64151W        W36444  29.539  43.951  11.957
64152W        W36445  30.929  34.109  14.388
64153W        W36446  14.244   9.651   4.153
64154W        W36447  40.410  13.305  14.985
64155W        W36448  26.659  33.950   2.300
64156W        W36449  41.025  37.346  10.989
64157W        W36450  30.604  43.415  13.518
64158W        W36451  38.953   8.397   1.305
64159W        W36452   4.385   0.975   4.768
64160W        W36453  38.540   4.944   3.348
64161W        W36454  39.467  25.655   0.423
64162W        W36455   3.780  16.124  10.546
64163W        W36456  19.656  33.902   2.393
64164W        W36457  16.570  29.427  12.436
64165W        W36458  14.223  23.690  12.880
64166W        W36459  23.726  17.718  12.054
64167W        W36460  22.611   8.383  13.428
64168W        W36461  20.558  44.934   4.122
64169W        W36462  24.019  32.022  12.432
64170W        W36463  13.109  33.460  12.868
64171W        W36464  36.493  24.101   2.194
64172W        W36465  12.240  28.599  14.985
64173W        W36466   6.184   5.416   3.256
64174W        W36467  29.427  36.399  12.068
64175W        W36468   4.716  34.983   0.868
64176W        W36469  44.858  44.834   3.352
64177W        W36470  31.997  39.812   3.694
64178W        W36471   4.704  29.576   0.915
64179W        W36472  24.033  17.713   4.237
64180W        W36473  21.689  30.594   4.806
64181W        W36474   8.789  19.073  14.009
64182W        W36475  19.097   8.675   3.653
64183W        W36476  30.594  32.565   1.283
64184W        W36477   0.379   7.868  14.355
64185W        W36478  16.749  42.432   1.287
64186W        W36479   9.733   8.697  12.934
64187W        W36480  14.719  23.545   1.815
64188W        W36481  13.827  42.402   4.717
64189W        W36482   3.396  28.587  14.996
64190W        W36483   9.260  28.085   0.387
64191W        W36484  39.332  43.340  11.114
64192W        W36485  10.708  30.483  13.827
64193W        W36486  44.961  36.069   5.682
64194W        W36487  43.427   1.365   4.694
64195W        W36488   0.489  39.826   2.669
64196W        W36489  29.040   4.234  11.402
64197W        W36490  19.740   5.330  12.489
64198W        W36491  16.206  35.914   1.429
64199W        W36492  43.848  11.151  14.873
64200W        W36493  17.721  38.527  14.313
64201W        W36494  38.562  43.516  13.444
64202W        W36495  28.528  32.461  14.356
64203W        W36496  41.890  28.998  11.030
64204W        W36497  40.974  43.431   5.151
64205W        W36498  40.816   7.189   4.114
64206W        W36499  27.987  35.540   3.679
64207W        W36500   1.423  42.844   1.782
64208W        W36501  29.054  17.761   0.821
64209W        W36502   1.954   6.272   4.139
64210W        W36503   7.322   8.238   4.686
64211W        W36504  10.818  32.890  10.959
64212W        W36505  15.734  14.161   2.862
64213W        W36506   2.451  33.549   1.840
64214W        W36507  14.332   6.296  13.919
64215W        W36508   0.818  44.336   1.264
64216W        W36509  10.692  28.569   2.217
64217W        W36510   9.782  23.104   1.272
64218W        W36511  13.280  25.565   1.795
64219W        W36512  33.495  40.343   3.165
64220W        W36513  16.780  35.548  12.004
64221W        W36514  30.912   7.909  14.924
64222W        W36515  32.413  38.958  12.424
64223W        W36516   6.313   4.862   2.681
64224W        W36517  38.997  23.597   4.714
64225W        W36518   9.812  40.959  12.049
64226W        W36519   5.812  12.329  11.995
64227W        W36520  30.974  15.099  14.361
64228W        W36521  42.380  42.372  11.061
64229W        W36522  16.575   0.367  11.536
64230W        W36523  29.479  13.281  11.587
64231W        W36524  29.953  28.539   4.114
64232W        W36525  14.283  14.687   5.234
64233W        W36526  14.186  20.669  14.380
64234W        W36527   7.205  10.832   2.853
64235W        W36528  32.444  44.876  13.364
64236W        W36529  44.835  13.738   1.855
64237W        W36530  40.007  29.440   4.625
64238W        W36531  28.635  44.270   2.847
64239W        W36532  41.319  31.568  10.488
64240W        W36533  31.106  40.024  13.061
64241W        W36534  21.569   6.845   0.761
64242W        W36535  34.027  25.972  13.996
64243W        W36536   5.354  14.755  12.555
64244W        W36537  35.033   0.460  13.037
64245W        W36538  13.274  14.129   2.804
64246W        W36539  11.705   1.957   1.762
64247W        W36540  39.037  18.683  14.440
64248W        W36541  37.055  39.021  11.015
64249W        W36542   6.693   9.813  11.528
64250W        W36543  42.505   6.342  14.375
64251W        W36544  43.852  24.153  11.984
64252W        W36545  15.681  33.881   1.218
64253W        W36546  44.912  24.035   2.182
64254W        W36547   4.345  16.315   3.786
64255W        W36548  15.712   9.689  14.446
64256W        W36549  37.983  37.995   2.668
64257W        W36550  14.217  29.969  10.558
64258W        W36551  31.920  15.695   0.967
64259W        W36552  28.499  42.863   3.258
64260W        W36553   2.815  19.733   0.735
64261W        W36554   9.777  40.847  13.842
64262W        W36555  20.642   4.313   1.854
64263W        W36556  38.955   5.806  14.884
64264W        W36557  40.484  38.554  11.866
64265W        W36558  44.795  21.071  11.114
64266W        W36559  19.707  20.690  13.365
64267W        W36560  18.607   4.253   1.911
64268W        W36561  30.472  21.098   3.311
64269W        W36562  37.974  28.082  10.560
64270W        W36563  23.645  19.107  12.005
64271W        W36564   0.847  17.131  14.867
64272W        W36565  34.591  19.703  14.354
64273W        W36566  11.313  21.542   2.212
64274W        W36567  36.524   9.394   0.942
64275W        W36568  31.978  24.036  11.874
64276W        W36569  16.672  39.950   3.757
64277W        W36570  42.797  34.906   3.713
64278W        W36571  39.840  21.680  10.445
64279W        W36572  22.217   7.705  11.944
64280W        W36573  18.736  22.651  14.030
64281W        W36574  23.691  39.560  12.047
64282W        W36575  31.535  24.638  10.480
64283W        W36576  11.786  37.878   3.352
64284W        W36577  24.095  38.467  10.443
64285W        W36578  29.008   0.439   1.320
64286W        W36579  32.407  25.600  11.592
64287W        W36580  13.843  35.932   3.161
64288W        W36581   7.736  24.129   3.710
64289W        W36582  38.938   2.391   0.324
64290W        W36583  16.780  39.849  13.503
64291W        W36584  37.899  29.483  14.346
64292W        W36585  25.027   7.318  10.631
64293W        W36586  25.553   5.918  13.996
64294W        W36587  33.106  41.355  10.624
64295W        W36588  17.304  20.748   0.913
64296W        W36589   8.675  21.247  11.118
64297W        W36590  44.776  16.667  13.975
64298W        W36591  33.024  17.793  14.766
64299W        W36592   6.869  41.989   0.867
64300W        W36593  16.260   9.709   3.680
64301W        W36594  33.477  18.090   0.361
64302W        W36595  12.128  11.817   2.838
64303W        W36596   8.815  18.546  12.925
64304W        W36597  23.095   2.874   0.807
64305W        W36598   7.307   4.790  11.953
64306W        W36599  29.620  12.663   2.784
64307W        W36600  10.338  37.538   4.198
64308W        W36601  16.652   9.665  14.353
64309W        W36602  33.085  33.057   3.325
64310W        W36603  16.798  34.509  13.796
64311W        W36604  42.895  31.489   1.892
64312W        W36605   4.925  36.886   4.812
64313W        W36606  23.985   4.371   1.882
64314W        W36607   5.825   4.359  13.882
64315W        W36608  35.447  26.101   4.828
64316W        W36609  24.489   9.801   4.197
64317W        W36610   9.820   2.936  14.994
64318W        W36611  29.613  38.064   1.433
64319W        W36612  28.599  12.303   3.848
64320W        W36613  20.708   3.429  13.005
64321W        W36614  29.570  14.336   2.319
64322W        W36615  30.936   0.884   0.947
64323W        W36616   7.668  21.614   2.829
64324W        W36617  12.760  19.041   4.274
64325W        W36618  42.308   7.732   1.252
64326W        W36619  28.670  23.664  12.497
64327W        W36620  22.251  33.030   0.845
64328W        W36621  41.973   2.331  13.355
64329W        W36622   5.687  24.644  13.377
64330W        W36623  37.391  23.144   1.398
64331W        W36624  14.313  10.708   0.477
64332W        W36625   9.726  44.838   3.155
64333W        W36626   1.326  12.293   4.795
64334W        W36627  30.046   3.363  13.850
64335W        W36628   7.864  13.236   4.122
64336W        W36629  30.639  30.655   2.856
64337W        W36630   6.389  27.122  14.971
64338W        W36631   5.913  13.175   3.237
64339W        W36632  22.681  17.156  11.492
64340W        W36633  12.825   4.749   2.839
64341W        W36634  12.277  22.526   3.374
64342W        W36635   3.274  36.028   0.836
64343W        W36636   3.927  19.089  11.121
64344W        W36637  12.713  17.212  13.424
64345W        W36638   1.930  30.003  13.900
64346W        W36639   2.449  40.020   0.850
64347W        W36640  23.615  26.049  10.593
64348W        W36641  43.827   0.249   3.836
64349W        W36642   7.818  37.001   2.881
64350W        W36643  43.879   2.928  11.891
64351W        W36644  24.042  33.398  14.921
64352W        W36645   2.732  27.518   3.181
64353W        W36646  31.955  34.952  14.345
64354W        W36647   6.730   5.274   0.737
64355W        W36648   2.321  35.869  13.800
64356W        W36649   5.871  15.154   1.826
64357W        W36650  42.951  16.104   2.770
64358W        W36651   5.895  26.043   4.813
64359W        W36652  10.745   8.800   4.303
64360W        W36653  15.714   1.363   2.871
64361W        W36654  26.955   4.363   4.741
64362W        W36655  24.719   6.253  13.367
64363W        W36656  44.763  28.023  10.944
64364W        W36657  32.621  37.561  12.924
64365W        W36658   6.382  39.038   1.697
64366W        W36659   1.254   8.262   2.405
64367W        W36660   5.352   8.763   1.430
64368W        W36661   0.421  24.197  12.856
64369W        W36662  13.125  35.924  13.458
64370W        W36663  38.886  34.396  14.807
64371W        W36664   5.325  34.884  12.889
64372W        W36665  30.994   7.220  12.913
64373W        W36666  43.425  18.077   2.271
64374W        W36667   1.882   9.730   3.162
64375W        W36668  26.955  30.521  12.007
64376W        W36669   9.756  34.947   4.803
64377W        W36670  29.145  38.912  14.465
64378W        W36671   2.897  41.410   4.154
64379W        W36672   9.367  30.603   5.121
64380W        W36673  20.635   9.810   1.218
64381W        W36674  31.037  10.182   2.888
64382W        W36675  13.349  26.680   3.251
64383W        W36676  18.202  30.080  12.860
64384W        W36677  14.669   1.797   1.914
64385W        W36678  20.636  17.106   0.432
64386W        W36679  31.050  36.879  10.458
64387W        W36680  18.728   5.285  13.056
64388W        W36681   5.735  44.439   0.886
64389W        W36682   6.284   1.408  11.552
64390W        W36683  34.016  14.816  12.915
64391W        W36684  41.892  34.971   4.154
64392W        W36685  30.026  26.685   2.179
64393W        W36686   9.739  18.706   4.678
64394W        W36687  20.545  19.261  13.447
64395W        W36688  44.263   8.303   5.119
64396W        W36689  28.029  19.250   0.309
64397W        W36690  29.099  23.533  14.800
64398W        W36691  24.633  44.809   1.758
64399W        W36692  36.562  18.096  13.455
64400W        W36693  39.445  16.735  10.556
64401W        W36694  17.571  12.301  14.322
64402W        W36695  42.860  40.507   3.309
64403W        W36696  33.615  27.639  14.805
64404W        W36697   7.806  42.821   2.215
64405W        W36698   8.384  17.795   2.296
64406W        W36699  14.647   1.735   5.251
64407W        W36700  34.407  32.491   0.853
64408W        W36701  21.174  22.041  14.367
64409W        W36702   7.827   5.348   2.787
64410W        W36703  40.027  30.459   0.847
64411W        W36704  36.406   5.376   3.863
64412W        W36705  28.941   2.720   4.788
64413W        W36706  27.029  10.716   3.812
64414W        W36707  16.085  16.255  11.968
64415W        W36708  42.789  11.332   4.612
64416W        W36709  11.146  37.909   0.795
64417W        W36710  23.069  32.449  10.541
64418W        W36711  33.447  28.679   4.619
64419W        W36712  25.606  40.469   4.817
64420W        W36713  28.958  30.635  12.053
64421W        W36714   6.395  29.579   0.767
64422W        W36715  12.667   2.380  14.858
64423W        W36716   9.773  14.282   0.275
64424W        W36717  40.935  30.566  11.476
64425W        W36718  38.556  26.205  13.322
64426W        W36719  44.878  18.098  13.938
64427W        W36720  27.626   0.477   2.312
64428W        W36721  16.126   4.829   1.351
64429W        W36722  44.834  23.515   1.337
64430W        W36723  27.969  12.664   1.719
64431W        W36724  13.138  41.367  13.544
64432W        W36725  22.533  14.263  10.928
64433W        W36726   7.720  11.868  10.506
64434W        W36727   4.302   3.728   1.302
64435W        W36728  34.441  33.930  10.632
64436W        W36729   2.454  34.919  12.855
64437W        W36730  44.431  33.538   2.369
64438W        W36731  36.024  29.947  10.941
64439W        W36732  35.922   2.238  12.866
64440W        W36733   6.740  35.408   4.733
64441W        W36734   0.491  34.084   2.359
64442W        W36735  30.551  37.344  12.079
64443W        W36736  35.598  21.575   4.628
64444W        W36737  23.072   0.306   1.254
64445W        W36738  30.160  30.581  12.055
64446W        W36739  24.550  16.724  11.449
64447W        W36740  14.730  19.164   1.240
64448W        W36741   8.380   8.365  13.460
64449W        W36742  32.399   2.409  12.845
64450W        W36743   2.863  10.746   3.194
64451W        W36744  33.604  22.068   3.323
64452W        W36745  34.597   9.216   0.768
64453W        W36746  33.455  19.129   3.662
64454W        W36747  35.451  13.646   4.823
64455W        W36748  26.056  37.084  12.865
64456W        W36749   3.221  23.498   3.827
64457W        W36750  23.639  24.198  12.349
64458W        W36751  30.605  21.196   4.159
64459W        W36752  22.102  32.975   0.395
64460W        W36753   5.934  17.201  14.986
64461W        W36754  12.361  19.169  12.579
64462W        W36755   7.714  14.140   3.179
64463W        W36756  15.633  18.640   4.705
64464W        W36757  44.324  42.471   4.262
64465W        W36758   7.207   4.297  12.339
64466W        W36759  44.280   2.424   4.283
64467W        W36760  28.462   2.735  11.421
64468W        W36761  25.043  21.018  13.876
64469W        W36762  13.116   4.718   0.757
64470W        W36763   8.392  27.676  13.466
64471W        W36764  28.996  28.599  14.392
64472W        W36765   7.378  43.808   0.478
64473W        W36766  28.929  32.526  12.415
64474W        W36767  16.295   6.683   4.246
64475W        W36768  33.404  11.849  11.583
64476W        W36769  30.008  16.759   0.478
64477W        W36770   5.248  29.001  14.032
64478W        W36771   7.818  38.035   1.910
64479W        W36772  17.098  28.016  14.967
64480W        W36773  36.932   9.359  11.113
64481W        W36774  40.020   0.914   2.265
64482W        W36775  40.494   0.326  14.516
64483W        W36776  26.152   3.951  13.837
64484W        W36777  34.007  10.308  10.550
64485W        W36778  17.753  10.850   3.722
64486W        W36779   5.208  43.420  14.856
64487W        W36780  26.988   6.255   3.360
64488W        W36781  30.145  10.772   2.252
64489W        W36782  12.353  34.531  11.857
64490W        W36783  28.169  27.153  14.813
64491W        W36784  29.974   7.815  14.768
64492W        W36785  39.967  30.416   3.771
64493W        W36786  44.784  31.486  10.989
64494W        W36787   5.915   2.372  11.928
64495W        W36788  14.165  38.355  12.097
64496W        W36789  13.821  41.491   0.888
64497W        W36790  35.533   0.296  12.420
64498W        W36791  24.094  28.081   3.706
64499W        W36792  17.179  41.376  14.474
64500W        W36793  37.355   5.294  13.956
64501W        W36794  14.192  42.803   0.911
64502W        W36795   1.780  44.881  12.367
64503W        W36796  38.406  31.510  10.423
64504W        W36797  15.206  14.697   0.884
64505W        W36798  42.012  15.163  14.882
64506W        W36799  32.452  22.175  11.595
64507W        W36800  37.409  15.786  10.427
64508W        W36801  32.933   0.870   1.712
64509W        W36802  43.836  18.142   5.281
64510W        W36803  31.017  36.019  11.595
64511W        W36804  37.581  15.087  14.302
64512W        W36805  25.618   4.843  14.337
64513W        W36806   0.793  33.380  11.389
64514W        W36807  12.819   1.913  12.965
64515W        W36808  33.977  41.790  14.442
64516W        W36809   5.833  29.527  11.597
64517W        W36810  43.397  22.623   3.338
64518W        W36811  43.824   3.405  12.472
64519W        W36812  18.780   0.349  11.979
64520W        W36813  30.113  40.480  13.436
64521W        W36814  21.528  17.754   4.113
64522W        W36815  44.881  26.016   3.752
64523W        W36816  40.315  34.053   1.394
64524W        W36817  41.469  30.550  10.970
64525W        W36818  43.897  18.135  14.801
64526W        W36819  15.652   3.234   9.470
64527W        W36820  31.443  19.093  12.029
64528W        W36821   8.263  30.020   0.370
64529W        W36822  20.737  44.273  11.078
64530W        W36823  21.667   2.393   1.703
64531W        W36824   6.374  33.024  11.380
64532W        W36825   5.801  10.264  13.001
64533W        W36826  11.712  29.429   2.768
64534W        W36827  14.635  37.053  11.048
64535W        W36828  38.519  19.558  14.514
64536W        W36829  30.060  34.407   3.261
64537W        W36830   0.459  14.712   1.411
64538W        W36831  27.619   3.267  11.561
64539W        W36832  35.571   1.821  10.429
64540W        W36833  27.050  17.796  14.467
64541W        W36834  42.389  43.398   1.707
64542W        W36835  15.658  37.541  10.620
64543W        W36836   7.310  36.020  13.508
64544W        W36837  16.215  27.007   0.941
64545W        W36838   1.341  36.082  12.932
64546W        W36839  37.528  24.017   5.182
64547W        W36840  27.049  14.680  11.385
64548W        W36841   6.297  34.455   1.877
64549W        W36842  19.108  24.512   1.847
64550W        W36843   0.358  23.708   4.349
64551W        W36844  13.332   4.233  10.431
64552W        W36845  20.627  31.042   3.673
64553W        W36846  22.036  43.285   3.687
64554W        W36847  26.506  31.007   4.179
64555W        W36848  29.946   2.303  10.515
64556W        W36849  16.589  38.509  12.958
64557W        W36850  13.318  22.592  14.810
64558W        W36851  34.457  25.671   1.722
64559W        W36852   1.437  44.416   4.291
64560W        W36853   9.748   1.911  12.900
64561W        W36854  10.247  11.760   1.718
64562W        W36855  44.805  31.053   4.704
64563W        W36856  10.350  40.477  13.397
64564W        W36857  16.610  17.738   3.846
64565W        W36858  10.707  42.411  12.071
64566W        W36859  12.700   6.242   3.340
64567W        W36860  16.213  42.395  11.030
64568W        W36861  32.954  29.928   1.246
64569W        W36862  19.653   6.246   2.307
64570W        W36863  36.021  23.538   0.265
64571W        W36864  16.586   7.306   1.782
64572W        W36865  41.014   8.822   3.792
64573W        W36866  25.647  29.622  10.490
64574W        W36867  19.184  30.105  13.942
64575W        W36868  32.078  16.151  14.026
64576W        W36869  11.694  21.682   1.314
64577W        W36870  25.094  18.588  11.914
64578W        W36871  42.912  13.334   4.807
64579W        W36872   5.696   3.924  12.001
64580W        W36873  28.087  11.172   3.739
64581W        W36874  20.530  27.972  12.433
64582W        W36875  20.629   5.341   4.638
64583W        W36876  11.167  36.864   4.824
64584W        W36877  22.546  30.616  11.510
64585W        W36878   1.352   8.754  13.460
64586W        W36879   2.939  21.526  11.908
64587W        W36880  22.169  31.987   0.340
64588W        W36881  24.026  29.065   1.280
64589W        W36882   4.800  22.021   4.707
64590W        W36883  41.009  26.499  14.973
64591W        W36884  43.791  19.641   1.858
64592W        W36885  11.332  29.038  14.018
64593W        W36886   6.394   0.405   3.349
64594W        W36887  20.049  17.610  14.412
64595W        W36888   1.798  42.423  14.278
64596W        W36889  12.356  36.918  13.003
64597W        W36890   2.735  14.204   1.376
64598W        W36891   6.316   7.389   2.671
64599W        W36892   2.814   3.883  13.805
64600W        W36893  37.004  38.505   4.308
64601W        W36894  38.536  33.449   3.240
64602W        W36895  43.275  34.997   0.967
64603W        W36896  29.440  14.705   0.479
64604W        W36897  32.030   6.397   3.308
64605W        W36898  42.837  39.027   4.820
64606W        W36899  42.963  22.709   1.403
64607W        W36900  15.597  41.494   1.756
64608W        W36901  34.466  31.078   1.736
64609W        W36902  44.331  22.100   4.154
64610W        W36903   4.215  22.063  11.047
64611W        W36904   7.391  31.985  11.419
64612W        W36905  12.341   8.880   2.195
64613W        W36906  29.059  29.581   4.735
64614W        W36907  37.865  15.605   3.750
64615W        W36908  14.728   1.384   3.647
64616W        W36909  31.580  27.085   0.941
64617W        W36910  14.326  44.419   2.212
64618W        W36911   1.404   2.757   2.745
64619W        W36912   5.698  34.969   4.341
64620W        W36913  14.302  31.484  12.521
64621W        W36914  32.415  10.859   9.992
64622W        W36915   2.339  31.014   0.411
64623W        W36916   6.901  22.191   0.342
64624W        W36917  29.137  28.592   4.703
64625W        W36918  35.878  25.470  13.522
64626W        W36919   7.728   5.784  13.500
64627W        W36920  23.620   6.208   1.277
64628W        W36921  13.192  28.566   2.722
64629W        W36922  42.801   9.674  11.955
64630W        W36923  42.404  38.877   3.205
64631W        W36924  21.127   3.844   1.287
64632W        W36925  38.937   7.409  11.951
64633W        W36926  37.055  16.279   0.252
64634W        W36927  42.905   6.349  13.813
64635W        W36928  13.336   8.235   0.259
64636W        W36929  22.161  18.712  12.562
64637W        W36930  34.533   2.823  12.430
64638W        W36931  17.173  23.644  13.021
64639W        W36932  22.614  13.207  14.961
64640W        W36933   7.907  19.160   3.378
64641W        W36934  38.529  30.999   3.337
64642W        W36935   1.805  40.526   4.607
64643W        W36936   0.849  44.893  14.486
64644W        W36937  34.965  18.790   4.237
64645W        W36938  44.261  44.809   0.849
64646W        W36939  28.944   8.679   1.347
64647W        W36940  23.583  27.476  13.539
64648W        W36941  18.108  16.630   1.874
64649W        W36942  24.506  21.180   4.693
64650W        W36943  27.658   0.789  14.773
64651W        W36944  44.432  20.688   2.324
64652W        W36945  29.045  34.983  14.368
64653W        W36946   7.361  23.508  12.999
64654W        W36947  12.741  12.184  10.600
64655W        W36948   1.748  42.935  10.420
64656W        W36949  15.590   7.227  14.470
64657W        W36950  21.056   7.691   5.266
64658W        W36951  25.498   6.690  14.317
64659W        W36952  28.951   9.340   2.287
64660W        W36953  28.994  35.359   2.695
64661W        W36954  22.052  37.529   0.956
64662W        W36955  22.539  43.000   0.267
64663W        W36956  11.248  41.418   2.351
64664W        W36957   7.825  30.601   5.243
64665W        W36958  38.332  39.496  13.321
64666W        W36959  28.144  19.610   3.310
64667W        W36960  22.727  21.597  14.868
64668W        W36961   7.261   1.932  11.388
64669W        W36962   2.447  41.537   2.896
64670W        W36963  40.441  38.549  13.363
64671W        W36964  20.618  41.806  13.023
64672W        W36965  14.771   9.297   2.311
64673W        W36966  10.231  30.109   0.914
64674W        W36967  39.332  33.023   2.716
64675W        W36968   2.312   8.836   4.256
64676W        W36969  18.280   5.853   2.353
64677W        W36970  19.611  39.908   1.771
64678W        W36971   0.494  17.216  12.848
64679W        W36972  38.342   8.187  12.844
64680W        W36973  26.621   9.326  14.846
64681W        W36974  22.543  24.217  12.941
64682W        W36975  36.908  17.221  14.494
64683W        W36976  39.954  15.317  14.811
64684W        W36977   9.390  37.869   0.428
64685W        W36978  13.110  12.712  13.318
64686W        W36979  22.143   0.754  13.866
64687W        W36980  42.447   5.327  11.983
64688W        W36981  41.367   0.354   4.712
64689W        W36982  43.444  14.293   2.774
64690W        W36983  42.931  40.931  10.495
64691W        W36984  44.360  11.214  14.851
64692W        W36985  36.902  43.807   1.388
64693W        W36986  22.637  41.014   1.885
64694W        W36987  23.159  32.526  14.818
64695W        W36988  26.654   6.832  10.457
64696W        W36989  40.881  43.802   4.258
64697W        W36990  27.074   0.825  12.868
64698W        W36991  17.101  23.573  11.920
64699W        W36992  22.541  18.237  10.114
64700W        W36993  41.797   3.292  11.970
64701W        W36994  10.754  16.610  14.834
64702W        W36995  22.730  41.382   4.192
64703W        W36996  12.252  12.334  12.575
64704W        W36997  11.162   1.877  10.964
64705W        W36998   0.447  10.188   4.329
64706W        W36999   8.391  26.198   3.671
64707W        W37000  38.345  19.560   2.890
64708W        W37001  34.564  16.780   4.683
64709W        W37002  40.994  40.546  11.921
64710W        W37003  38.360  12.306   4.713
64711W        W37004   6.859  30.461  14.428
64712W        W37005  13.130  15.135   2.344
64713W        W37006  36.367   5.807  10.903
64714W        W37007  38.917  20.758   2.225
64715W        W37008  34.001  38.042  10.540
64716W        W37009  37.996  18.272   3.380
64717W        W37010  41.835  44.354  11.540
64718W        W37011  27.075  18.287   3.183
64719W        W37012  36.376  14.664  11.881
64720W        W37013   2.865  16.315  13.057
64721W        W37014  19.133  33.437   2.205
64722W        W37015  32.027   7.810   4.701
64723W        W37016   0.304  26.189  13.395
64724W        W37017   7.776  30.000  11.087
64725W        W37018  25.559  36.029  12.855
64726W        W37019   2.923  20.543   4.192
64727W        W37020   7.402  20.178  12.419
64728W        W37021   5.689  35.424  12.488
64729W        W37022  43.965  38.029   1.374
64730W        W37023  13.701  11.208   1.744
64731W        W37024  14.599  41.809   3.761
64732W        W37025  30.938  41.015   0.864
64733W        W37026   7.261  34.417   4.281
64734W        W37027  10.642  25.190  10.996
64735W        W37028   1.396   0.938   0.862
64736W        W37029  14.104  33.543   4.153
64737W        W37030  11.759   6.792  13.332
64738W        W37031  27.960  20.667  11.564
64739W        W37032  37.965   4.355   3.228
64740W        W37033  41.999  29.533   2.760
64741W        W37034  18.173   0.821  14.327
64742W        W37035  35.892  36.925  13.060
64743W        W37036  10.361  39.990   1.289
64744W        W37037   0.487  21.064   2.862
64745W        W37038  28.642  13.807   0.920
64746W        W37039  36.560   2.280  14.354
64747W        W37040  42.925   5.369  10.502
64748W        W37041  30.152  10.748  13.843
64749W        W37042  17.637  11.630  13.873
64750W        W37043   1.329  13.765   0.267
64751W        W37044  44.302  24.024   2.304
64752W        W37045  29.033   2.420  11.568
64753W        W37046  27.984   9.179  12.371
64754W        W37047  27.675  13.782  10.434
64755W        W37048   9.704  22.736  13.496
64756W        W37049   4.217  32.471  11.533
64757W        W37050  19.575  41.975   0.423
64758W        W37051  33.941   3.325  14.444
64759W        W37052  41.422  42.025  13.544
64760W        W37053   9.771  34.864  10.601
64761W        W37054  42.379  42.494   3.296
64762W        W37055  28.445  14.775  14.831
64763W        W37056  22.630  41.812  13.522
64764W        W37057   1.857   2.910  13.966
64765W        W37058  14.750  15.210  13.806
64766W        W37059   9.772  32.109   2.343
64767W        W37060   8.269  16.600   4.174
64768W        W37061   6.403  28.025  13.795
64769W        W37062  40.898  26.497   2.318
64770W        W37063  27.450  18.745   4.208
64771W        W37064  16.688   4.918  14.375
64772W        W37065  23.059  24.002   1.929
64773W        W37066  12.684  30.052   4.801
64774W        W37067  10.814  11.312   4.623
64775W        W37068  17.570  10.309   4.293
64776W        W37069   8.183  11.245   0.845
64777W        W37070  14.793  25.200  12.889
64778W        W37071   7.761  43.790  14.514
64779W        W37072  31.925  34.977   1.367
64780W        W37073  25.655  41.890  10.631
64781W        W37074  33.047  15.108  12.878
64782W        W37075  12.253  28.570  12.882
64783W        W37076   9.203  22.103   1.904
64784W        W37077   4.270  20.699   0.961
64785W        W37078  38.850  30.044   1.315
64786W        W37079  43.894  44.770   5.225
64787W        W37080  28.482  26.105   1.241
64788W        W37081  29.582   0.743  13.058
64789W        W37082  15.686  33.418  13.991
64790W        W37083  36.508   2.293   2.802
64791W        W37084   3.458  37.891   2.837
64792W        W37085  37.440   4.224  11.047
64793W        W37086  13.741   2.804  13.354
64794W        W37087   4.209  43.289   3.856
64795W        W37088   0.873   2.959  14.506
64796W        W37089   9.379  44.786  10.479
64797W        W37090   0.934  14.117   1.875
64798W        W37091  31.482   7.746   5.705
64799W        W37092  29.954  23.071   2.352
64800W        W37093  32.636  10.680   4.708
64801W        W37094  36.041  32.991   0.796
64802W        W37095  22.745  30.655   3.865
64803W        W37096  14.106  22.173   0.367
64804W        W37097  28.109  27.151  11.374
64805W        W37098  34.922   7.759  12.360
64806W        W37099  29.965   2.785  11.555
64807W        W37100  40.025  16.664   2.359
64808W        W37101   0.374  26.588   1.280
64809W        W37102  24.593  27.141  14.378
64810W        W37103   1.786  38.928  14.880
64811W        W37104  20.094  37.973  14.759
64812W        W37105  37.920  11.657   4.319
64813W        W37106   1.302  23.716   4.212
64814W        W37107  12.713  13.293  10.941
64815W        W37108  24.653  31.045   4.649
64816W        W37109  39.546  23.091   3.681
64817W        W37110  17.660  31.474  14.831
64818W        W37111  22.553   0.972   2.195
64819W        W37112  28.542  15.323  11.034
64820W        W37113  22.561  17.769   1.310
64821W        W37114  38.066  39.991  13.058
64822W        W37115  24.690  33.616  13.312
64823W        W37116  13.722   2.741  14.912
64824W        W37117  40.440  33.090  14.416
64825W        W37118  26.140  40.315  11.038
64826W        W37119  39.538   8.888   0.771
64827W        W37120  41.848  31.991  14.798
64828W        W37121   8.724  42.910   4.227
64829W        W37122  30.972  22.677  10.981
64830W        W37123  19.749  14.670   2.805
64831W        W37124   1.246  11.709  10.487
64832W        W37125  38.360  26.055   3.263
64833W        W37126  20.720  17.062  10.508
64834W        W37127  15.656   5.734  11.538
64835W        W37128  41.436   9.816  14.822
64836W        W37129  32.073  33.933   1.306
64837W        W37130  31.457   5.345   0.248
64838W        W37131  22.582  21.676   3.732
64839W        W37132   9.852  42.401  13.420
64840W        W37133   1.322  27.556  13.965
64841W        W37134  34.594  16.261   3.151
64842W        W37135  15.820  41.464   2.899
64843W        W37136  42.488  26.552   1.748
64844W        W37137  37.373  30.423  12.342
64845W        W37138  35.397   0.899   1.304
64846W        W37139  25.053   5.859   2.356
64847W        W37140  37.389  28.607   4.737
64848W        W37141   1.374  14.736  13.457
64849W        W37142  37.342  34.419  10.578
64850W        W37143  14.635  43.477  14.302
64851W        W37144   2.934  28.629  11.908
64852W        W37145   7.274   1.845  13.933
64853W        W37146  39.427   9.883   3.632
64854W        W37147  21.174   8.841   0.844
64855W        W37148   9.214   4.818  14.967
64856W        W37149   1.398  16.136   1.888
64857W        W37150   0.888  38.499  12.829
64858W        W37151   8.721  22.662   0.829
64859W        W37152  28.144   5.300   1.821
64860W        W37153  41.424  20.243  14.854
64861W        W37154  30.414  43.375   1.429
64862W        W37155  44.897  24.692   3.176
64863W        W37156  23.129  28.089  13.816
64864W        W37157  14.608   5.695  14.344
64865W        W37158  10.292  14.139  14.510
64866W        W37159  14.804  44.911  13.954
64867W        W37160  33.457   7.786   1.748
64868W        W37161  19.240  20.745  14.404
64869W        W37162  17.064  14.806  10.956
64870W        W37163  26.012  36.899   4.246
64871W        W37164  21.652  44.877   4.701
64872W        W37165  42.979  29.078  14.792
64873W        W37166  35.500  19.658   4.130
64874W        W37167  17.784  19.089  11.483
64875W        W37168  19.171  28.025  14.782
64876W        W37169  41.860  38.998   4.114
64877W        W37170  31.495  13.710  13.393
64878W        W37171  11.353  32.091  14.802
64879W        W37172  17.206  24.984   2.886
64880W        W37173  31.060  24.693   3.257
64881W        W37174  27.952  14.720  11.517
64882W        W37175  41.387  40.348   4.214
64883W        W37176  42.988  15.631  11.965
64884W        W37177  15.234  43.952   2.802
64885W        W37178  44.388  37.845   4.829
64886W        W37179   4.823  40.419  14.445
64887W        W37180  42.848  41.375   0.795
64888W        W37181  23.051  42.866   3.841
64889W        W37182   4.364  33.419   1.757
64890W        W37183  37.965   9.316   1.415
64891W        W37184   8.218  23.120  13.874
64892W        W37185   7.737   3.776  11.095
64893W        W37186  23.625  42.397   3.640
64894W        W37187  18.101  44.350  12.388
64895W        W37188  41.306   7.223   2.280
64896W        W37189  11.812   0.843  12.090
64897W        W37190  39.457  31.452  11.520
64898W        W37191  12.135  30.417  14.336
64899W        W37192  36.908  40.038  13.810
64900W        W37193   6.221  32.025  12.081
64901W        W37194  11.783  36.574   1.884
64902W        W37195   2.294  28.594   1.277
64903W        W37196  23.192  39.970  12.352
64904W        W37197  27.504  44.783   0.426
64905W        W37198  12.302  28.517  14.513
64906W        W37199  25.492   8.674   0.950
64907W        W37200  25.606  38.878  12.942
64908W        W37201  38.885  25.098   1.332
64909W        W37202  38.355  22.631   0.386
64910W        W37203   0.397  24.202  12.513
64911W        W37204   2.770  25.061  13.870
64912W        W37205   9.746  15.099  12.944
64913W        W37206   9.368  34.046  10.591
64914W        W37207  10.337   5.813  12.035
64915W        W37208  22.635  19.125  11.458
64916W        W37209  40.941   7.355  13.363
64917W        W37210  33.080  26.586  14.792
64918W        W37211  24.985   5.796   2.816
64919W        W37212  29.544   5.227   0.809
64920W        W37213  30.433  31.119  14.427
64921W        W37214  13.316   0.850   2.790
64922W        W37215  43.444  11.367  11.487
64923W        W37216  14.600  15.642  10.983
64924W        W37217  37.500  21.241   3.171
64925W        W37218  41.927   5.687  11.443
64926W        W37219  18.275  22.031  10.990
64927W        W37220  10.697  42.453  13.831
64928W        W37221  30.508  42.291  12.573
64929W        W37222  28.184  26.050   2.304
64930W        W37223   4.407   6.851  14.973
64931W        W37224  25.576   7.695  13.993
64932W        W37225   2.302   4.735   3.781
64933W        W37226   4.366  18.134  14.863
64934W        W37227   0.354   7.412  13.533
64935W        W37228  14.835  27.169   4.147
64936W        W37229   5.748  35.058  12.468
64937W        W37230  19.110  28.112   3.800
64938W        W37231  28.016  36.014   3.201
64939W        W37232   8.346  34.891   3.710
64940W        W37233   5.357   5.353   4.818
64941W        W37234  14.666  44.822   1.871
64942W        W37235   6.820  27.196  13.815
64943W        W37236  15.181   6.678  11.025
64944W        W37237   4.243  22.153   3.377
64945W        W37238   6.295   8.375   0.912
64946W        W37239  16.728  17.763  11.451
64947W        W37240   5.254  12.132   2.376
64948W        W37241  34.049  20.232   0.455
64949W        W37242  41.387  44.297  12.414
64950W        W37243  10.214  32.127   2.890
64951W        W37244  27.608  31.101   1.296
64952W        W37245  19.048   3.841  14.373
64953W        W37246  24.700   6.378   0.734
64954W        W37247   0.980  24.710   4.289
64955W        W37248  23.683   4.345   9.469
64956W        W37249  40.431  22.580  12.848
64957W        W37250  36.410  18.709  11.054
64958W        W37251  22.209  28.056  13.524
64959W        W37252  18.701  34.458  12.387
64960W        W37253   5.283   8.785   1.704
64961W        W37254  31.625  38.370   2.339
64962W        W37255   9.779  13.284  13.308
64963W        W37256  42.432  22.617   1.893
64964W        W37257   7.761  27.516   3.863
64965W        W37258   8.361  16.763  14.284
64966W        W37259   4.918  16.220  11.568
64967W        W37260  10.870   3.411   0.835
64968W        W37261  41.523  14.336   0.265
64969W        W37262  44.813  33.921   5.729
64970W        W37263   8.220  43.797   3.264
64971W        W37264  35.391  15.319   0.358
64972W        W37265   7.910   2.759   4.317
64973W        W37266  26.096  40.958  11.379
64974W        W37267  31.117  33.480  11.998
64975W        W37268  10.166   4.933   0.384
64976W        W37269   8.858   0.902  14.441
64977W        W37270  40.823  44.476   2.671
64978W        W37271  23.611  16.759   1.332
64979W        W37272  35.599  24.525   4.721
64980W        W37273  29.574  13.186   3.353
64981W        W37274  39.005  12.326   4.247
64982W        W37275  25.215   9.352  12.435
64983W        W37276  39.448  18.170   4.618
64984W        W37277  20.696   5.814   4.709
64985W        W37278  30.137  10.847   0.399
64986W        W37279  25.061  13.619   1.420
64987W        W37280  28.174  27.631  13.367
64988W        W37281  17.137  11.842   1.331
64989W        W37282   0.450  31.488   3.645
64990W        W37283  13.685  42.929  12.422
64991W        W37284  31.453   8.353  11.892
64992W        W37285  41.844  21.140  10.101
64993W        W37286  27.175  34.473   1.260
64994W        W37287  37.470  29.936  12.385
64995W        W37288   2.745  19.276  12.028
64996W        W37289  36.050  21.661  13.383
64997W        W37290   2.316  13.214   3.749
64998W        W37291  14.617   8.240   0.934
64999W        W37292  30.571   7.223  13.854
65000W        W37293  42.510  42.904  11.412
65001W        W37294  20.128   2.448  10.530
65002W        W37295  19.758  32.045   2.835
65003W        W37296  24.707  34.469  12.896
65004W        W37297  23.616  35.574  11.865
65005W        W37298  32.410  39.860   2.897
65006W        W37299   6.784  34.115   9.937
65007W        W37300  23.575   5.396   2.368
65008W        W37301  10.694  25.146  12.405
65009W        W37302   3.927  24.000  13.033
65010W        W37303   7.730  40.489  10.923
65011W        W37304  13.186  29.529   0.428
65012W        W37305  27.603  18.609  14.393
65013W        W37306  29.469  40.398  11.592
65014W        W37307  35.915  29.956   4.707
65015W        W37308  21.090  23.495   0.828
65016W        W37309  18.148  20.697   2.755
65017W        W37310  20.073  16.803   4.790
65018W        W37311  27.520  19.748  13.999
65019W        W37312  23.100  21.610   2.667
65020W        W37313  29.541  29.110   3.299
65021W        W37314  29.043  19.174   3.180
65022W        W37315  38.026  21.644   1.251
65023W        W37316  17.300  12.268  10.944
65024W        W37317  12.655  38.032   3.739
65025W        W37318   0.456   8.739  11.577
65026W        W37319  35.441  40.441   4.684
65027W        W37320  43.307   7.702   4.610
65028W        W37321  34.969   5.858  14.808
65029W        W37322  32.885   7.885  10.459
65030W        W37323   9.261  10.302   0.253
65031W        W37324  24.596  43.885  13.847
65032W        W37325  40.545  31.456  14.490
65033W        W37326  16.293  13.179  10.937
65034W        W37327   3.784  43.496   2.395
65035W        W37328  34.615  41.384   3.763
65036W        W37329  21.748  34.882  14.024
65037W        W37330  14.136  23.732   1.281
65038W        W37331  25.979  21.110   2.213
65039W        W37332  17.748  43.307  12.844
65040W        W37333  35.519  23.555   1.800
65041W        W37334   4.306   8.199   4.804
65042W        W37335  11.201   0.940   0.786
65043W        W37336  43.971  35.993   4.805
65044W        W37337  17.605  35.573   3.224
65045W        W37338  37.883  36.856  10.587
65046W        W37339  40.352  36.578  13.452
65047W        W37340  40.367  20.141   3.632
65048W        W37341   0.374   3.348  13.986
65049W        W37342  41.042   0.948   3.671
65050W        W37343  44.907  19.581  14.335
65051W        W37344   8.843   4.277  10.548
65052W        W37345  26.960  25.611  13.367
65053W        W37346  19.602  26.024  10.549
65054W        W37347  23.502  24.069   1.700
65055W        W37348  21.611   0.321  13.802
65056W        W37349  19.623  38.371   1.396
65057W        W37350  38.954  36.042  14.320
65058W        W37351  14.141  11.290  12.375
65059W        W37352  38.470  24.003   3.799
65060W        W37353   2.257  14.278   0.459
65061W        W37354  21.594  37.050   4.229
65062W        W37355  40.832  24.213  10.639
65063W        W37356  17.263   4.358  10.520
65064W        W37357  32.398  23.089   0.284
65065W        W37358  40.392  22.129  14.828
65066W        W37359  32.573   6.751  14.887
65067W        W37360  12.322   4.242   0.792
65068W        W37361  26.013  29.026  11.032
65069W        W37362  20.661  42.455  13.496
65070W        W37363  36.948  31.610  11.587
65071W        W37364   8.659  25.192   1.361
65072W        W37365  17.307  18.718  13.047
65073W        W37366  32.918   2.899  10.631
65074W        W37367  30.603  21.081   1.904
65075W        W37368  24.532  38.388  10.966
65076W        W37369  17.147  15.653   4.180
65077W        W37370  31.045   2.808  11.574
65078W        W37371  15.807  29.969  12.536
65079W        W37372  35.973  40.963  14.830
65080W        W37373  32.570  15.252   1.929
65081W        W37374   4.873   2.886  14.990
65082W        W37375  22.164  23.167   1.695
65083W        W37376  23.060   2.902   5.129
65084W        W37377   5.914   7.223   0.792
65085W        W37378  14.723   9.156   1.893
65086W        W37379  32.439   9.827  13.393
65087W        W37380   5.713  16.674  13.454
65088W        W37381  34.497  14.156   0.766
65089W        W37382  37.974   3.846   3.198
65090W        W37383  17.126  27.647   2.218
65091W        W37384   5.428  14.701   1.880
65092W        W37385  40.433  29.036  13.793
65093W        W37386  25.533  14.141  10.942
65094W        W37387  30.496  26.537   1.894
65095W        W37388  28.541  30.076  11.881
65096W        W37389  38.522   7.396  11.413
65097W        W37390  22.549  19.236  13.020
65098W        W37391  38.927  27.123  12.345
65099W        W37392  37.539  44.488  14.779
65100W        W37393   2.754  10.676   4.345
65101W        W37394  43.950  30.572   3.870
65102W        W37395  25.573  18.252   3.810
65103W        W37396  27.524   5.705   0.902
65104W        W37397  27.576  18.773  13.848
65105W        W37398   4.300  32.897  14.472
65106W        W37399  10.655  39.520  11.453
65107W        W37400  30.485   5.899   2.203
65108W        W37401  44.429  10.658   3.689
65109W        W37402  19.079  14.298  14.295
65110W        W37403  33.875  10.798   2.183
65111W        W37404   8.901  25.151   3.706
65112W        W37405  18.152   8.712  13.427
65113W        W37406  20.547  33.940   2.255
65114W        W37407  16.197  25.491  13.344
65115W        W37408  30.962  32.619   3.369
65116W        W37409  23.204   6.324  10.115
65117W        W37410  35.358   9.702  11.856
65118W        W37411  44.009  30.116  14.826
65119W        W37412   0.471  22.687   4.643
65120W        W37413  44.324  16.574   2.282
65121W        W37414   1.392  20.596  14.327
65122W        W37415   0.803   7.312  13.872
65123W        W37416  18.620   3.392  11.003
65124W        W37417  27.062  36.084  12.061
65125W        W37418  29.954  37.960   4.277
65126W        W37419  34.533   6.353  13.400
65127W        W37420   2.463   6.319  11.383
65128W        W37421  30.013  26.491  12.434
65129W        W37422  22.014  26.573   5.308
65130W        W37423  35.516  27.562   3.844
65131W        W37424  41.417  28.668  14.022
65132W        W37425  42.788   3.260  10.021
65133W        W37426  38.458   1.899   2.321
65134W        W37427  43.903  39.844   3.250
65135W        W37428   3.368  41.509  14.880
65136W        W37429  34.965  39.974   4.177
65137W        W37430  25.508  11.277   0.923
65138W        W37431  30.096   4.442  13.971
65139W        W37432  34.578  39.426  13.441
65140W        W37433  34.906   9.681  13.393
65141W        W37434   0.802  30.988  10.974
65142W        W37435  22.529  10.218   1.840
65143W        W37436  25.556   4.918  11.989
65144W        W37437   5.733  13.753   2.392
65145W        W37438  17.786   3.757   4.687
65146W        W37439  38.006  28.543  11.603
65147W        W37440   4.836  39.359   2.407
65148W        W37441  41.328  13.278  14.029
65149W        W37442  37.060  18.655   4.165
65150W        W37443  29.095   2.878  10.558
65151W        W37444  42.918   8.806  10.918
65152W        W37445  23.658  41.384  13.419
65153W        W37446  28.026  33.952   1.248
65154W        W37447  33.902  36.507  10.940
65155W        W37448  12.665  24.031   4.787
65156W        W37449  23.513   2.742   3.200
65157W        W37450  39.851  21.030   0.291
65158W        W37451   0.427  24.154  12.018
65159W        W37452   7.902  35.553   1.222
65160W        W37453  37.057  23.230   0.946
65161W        W37454  17.296   9.239  12.545
65162W        W37455  30.975   9.153   0.410
65163W        W37456  14.340   2.316   0.431
65164W        W37457   4.940  40.016   1.776
65165W        W37458  40.863  30.435  14.321
65166W        W37459  13.242  15.118   0.345
65167W        W37460  21.076  38.037  10.998
65168W        W37461  20.230  21.564  13.537
65169W        W37462   7.775  21.059   5.160
65170W        W37463   4.856  28.588   0.781
65171W        W37464  18.058  11.627  13.527
65172W        W37465  15.778  14.269  13.837
65173W        W37466  41.311  30.077   3.351
65174W        W37467  26.155  13.844   3.720
65175W        W37468  38.443   7.243  12.948
65176W        W37469   6.263   9.684  13.889
65177W        W37470   9.819  34.545   1.833
65178W        W37471  10.203  14.816   0.895
65179W        W37472  32.485  33.053  14.804
65180W        W37473   7.397  14.638  10.458
65181W        W37474  42.934  37.021   1.243
65182W        W37475  43.016  36.844  12.350
65183W        W37476   3.317  35.093   4.354
65184W        W37477   1.297  42.379  13.432
65185W        W37478   2.925  22.603  10.915
65186W        W37479   8.210  13.256   0.391
65187W        W37480  24.487  33.487   3.292
65188W        W37481   7.908  17.200   0.394
65189W        W37482   5.388  33.056  13.469
65190W        W37483  26.558  32.579   4.704
65191W        W37484  40.540   8.249   1.718
65192W        W37485  42.338  25.707   3.361
65193W        W37486  19.211  38.844  14.399
65194W        W37487  42.982  22.160  11.991
65195W        W37488   1.257  33.477  11.094
65196W        W37489  15.692  38.389  12.038
65197W        W37490  11.282  40.383   1.917
65198W        W37491  15.228  24.654   4.199
65199W        W37492  20.676  27.128   3.298
65200W        W37493  28.469  36.473  14.850
65201W        W37494   7.684  44.847  13.931
65202W        W37495  37.059  34.527   1.871
65203W        W37496  26.193  32.543  11.383
65204W        W37497  35.991  28.665  11.490
65205W        W37498   9.821   6.921   1.865
65206W        W37499   3.761  19.265  11.423
65207W        W37500  38.491   2.379   3.262
65208W        W37501  17.570  16.282   3.781
65209W        W37502  40.823   0.876   5.670
65210W        W37503  17.263   2.394  14.315
65211W        W37504  39.421  39.328  12.489
65212W        W37505  43.459  11.349   1.371
65213W        W37506  16.733  11.127  10.486
65214W        W37507  22.584  16.593  13.934
65215W        W37508  13.193  22.683  10.417
65216W        W37509  13.294  14.632   4.235
65217W        W37510  16.219  26.563   4.257
65218W        W37511  34.975   7.352  12.005
65219W        W37512   5.812  17.612  11.609
65220W        W37513  22.029  30.976   4.622
65221W        W37514  41.377  27.137   3.297
65222W        W37515  18.084  41.927   3.346
65223W        W37516   6.332  32.401  11.904
65224W        W37517   6.853  27.076   4.605
65225W        W37518  43.329   6.847   0.963
65226W        W37519  38.044  22.670   4.764
65227W        W37520  44.438  20.136   0.882
65228W        W37521   5.831  10.366  13.822
65229W        W37522  10.688  10.664  12.860
65230W        W37523   0.969  19.663  11.989
65231W        W37524  33.902  18.557   1.332
65232W        W37525  27.532  22.031  14.888
65233W        W37526  40.956  43.949   5.145
65234W        W37527   8.298  12.754  12.866
65235W        W37528  35.427  43.977   4.778
65236W        W37529  14.201   4.367   0.852
65237W        W37530  20.227   2.740  13.523
65238W        W37531  43.916  42.378  12.362
65239W        W37532  26.053  34.421  12.550
65240W        W37533  44.808  18.247  10.508
65241W        W37534   5.915  21.546  14.952
65242W        W37535  43.922  10.142  14.333
65243W        W37536  44.406  34.514   3.648
65244W        W37537  17.298   0.938  14.924
65245W        W37538  14.675  43.481  11.938
65246W        W37539  22.113   7.277  12.990
65247W        W37540  37.861  36.502  12.824
65248W        W37541  34.121  42.527  11.522
65249W        W37542  15.324  20.267   4.679
65250W        W37543  34.546  40.477  11.116
65251W        W37544  37.041   0.466   0.730
65252W        W37545  18.131   1.928  14.839
65253W        W37546  35.396  30.625   3.271
65254W        W37547  20.121  43.946   0.955
65255W        W37548  13.166  18.275  11.024
65256W        W37549  27.465  17.656   0.355
65257W        W37550  22.232  34.394   2.369
65258W        W37551  11.737  35.870  14.930
65259W        W37552  13.617  16.628  11.525
65260W        W37553  18.631  15.169  10.626
65261W        W37554  35.079  10.324   2.850
65262W        W37555  28.494  18.283   1.706
65263W        W37556  28.651  21.147  11.517
65264W        W37557  33.579  32.594  11.006
65265W        W37558  16.218   7.371  14.997
65266W        W37559   7.785  35.902  14.785
65267W        W37560  36.085   6.677  14.292
65268W        W37561   1.478  13.264   1.886
65269W        W37562   4.887  41.001   3.222
65270W        W37563  12.854  44.854   3.807
65271W        W37564   0.969  36.585  11.490
65272W        W37565  40.799   0.782   4.286
65273W        W37566  29.102  19.116   2.328
65274W        W37567  42.834  14.290   3.352
65275W        W37568  13.155  21.024   1.770
65276W        W37569  38.947  37.082   2.830
65277W        W37570  21.666  16.167  13.482
65278W        W37571  39.878  12.217   0.729
65279W        W37572  34.069  16.780  13.922
65280W        W37573  32.430  24.124   2.192
65281W        W37574   4.412  43.271   2.268
65282W        W37575   6.766  37.068   2.854
65283W        W37576  31.516  41.415   3.214
65284W        W37577   8.229  40.798   4.628
65285W        W37578  36.862  22.597  14.480
65286W        W37579  29.054  13.818   2.338
65287W        W37580  32.127  42.458   1.881
65288W        W37581  11.807  13.619  12.866
65289W        W37582  35.019  11.298   9.972
65290W        W37583  19.040   0.916  14.011
65291W        W37584   0.329   7.688   2.858
65292W        W37585  12.842  41.390  13.905
65293W        W37586  13.262  12.297   2.902
65294W        W37587  27.996  22.632  10.506
65295W        W37588  37.009  35.968   3.233
65296W        W37589  13.772  30.642  11.601
65297W        W37590   9.339  14.119  11.107
65298W        W37591   3.237  15.723  12.479
65299W        W37592   6.795  25.185  13.400
65300W        W37593  31.460  30.937  14.853
65301W        W37594  11.244  40.879   1.266
65302W        W37595  19.132  39.869  12.396
65303W        W37596  25.189  37.068  13.915
65304W        W37597  40.372  30.076  12.476
65305W        W37598  21.213  32.044  14.423
65306W        W37599  16.269  29.499   4.229
65307W        W37600   9.320  28.639   3.651
65308W        W37601   8.211  11.720  13.791
65309W        W37602  18.556  34.956   0.855
65310W        W37603  12.275  24.584  11.602
65311W        W37604  16.267  42.952  14.459
65312W        W37605  12.236   6.690   1.221
65313W        W37606   6.749  17.304  13.315
65314W        W37607  26.668  22.124   3.835
65315W        W37608  40.050  26.168   1.288
65316W        W37609   5.789  27.119  13.033
65317W        W37610  33.532  44.391  10.967
65318W        W37611  33.111  33.058  13.956
65319W        W37612  16.274  12.355   4.782
65320W        W37613  13.240   2.845  10.569
65321W        W37614   6.393   1.903  13.510
65322W        W37615  40.984  29.548   1.383
65323W        W37616  10.305   6.358  13.435
65324W        W37617  22.644   0.759  12.367
65325W        W37618  36.363  11.348   4.348
65326W        W37619  22.705  33.926  14.307
65327W        W37620  11.272  15.783   3.691
65328W        W37621  14.331  42.995   2.353
65329W        W37622  34.453  41.503  13.952
65330W        W37623   4.435  33.522   3.656
65331W        W37624  16.776   8.764  13.938
65332W        W37625  28.984  14.668   1.850
65333W        W37626   5.239  30.067   3.213
65334W        W37627  40.838  44.865   3.812
65335W        W37628   4.208  37.966   0.381
65336W        W37629  27.119   6.223  14.927
65337W        W37630  23.612  29.090  14.828
65338W        W37631  10.321   8.295   1.698
65339W        W37632  33.484   2.946   2.669
65340W        W37633  36.917  25.600  12.513
65341W        W37634   9.883  27.941  11.375
65342W        W37635   0.837  22.598  11.979
65343W        W37636   0.444  25.633   0.425
65344W        W37637  44.998  32.606  12.037
65345W        W37638  44.784  14.166   1.271
65346W        W37639  18.627  10.249  11.548
65347W        W37640   4.395  40.895   3.361
65348W        W37641  22.550   9.751   4.683
65349W        W37642  24.073  24.984   2.870
65350W        W37643  15.755  40.441  10.524
65351W        W37644  31.493  44.296  11.606
65352W        W37645  31.151  25.620  11.047
65353W        W37646  37.454  20.632  14.994
65354W        W37647   1.891   4.746  13.899
65355W        W37648   9.186  17.558   3.356
65356W        W37649  22.572  13.299   1.721
65357W        W37650  13.761  18.734  12.521
65358W        W37651  34.889   0.922   1.832
65359W        W37652  39.909  19.594   3.704
65360W        W37653  18.641  33.402   4.152
65361W        W37654  19.591  44.912  10.455
65362W        W37655  35.080  34.535  12.351
65363W        W37656  41.388  37.084   4.786
65364W        W37657  30.561  27.472  14.845
65365W        W37658   7.844  39.357  12.937
65366W        W37659  19.605   5.194   2.419
65367W        W37660  30.991  36.949  13.915
65368W        W37661  44.373  22.093  10.027
65369W        W37662   0.928   2.780   4.331
65370W        W37663  13.196  15.687  11.919
65371W        W37664  31.087  22.031  14.380
65372W        W37665  10.692   5.395  11.947
65373W        W37666  37.837   7.830  13.340
65374W        W37667   8.875  30.134   1.770
65375W        W37668   9.281  37.368  13.881
65376W        W37669  32.501  21.104   2.849
65377W        W37670  14.720   4.377   4.190
65378W        W37671  14.212  21.511   2.219
65379W        W37672  27.637  34.378  10.588
65380W        W37673  19.631  14.745   1.353
65381W        W37674   8.199   6.738   1.714
65382W        W37675   6.350  40.923   4.286
65383W        W37676  17.085  33.447   3.859
65384W        W37677  19.703   1.471   3.201
65385W        W37678  38.958  11.174  14.344
65386W        W37679  31.512  30.480   1.307
65387W        W37680   7.670  43.474  12.949
65388W        W37681  19.638   8.851   1.811
65389W        W37682   7.251  25.705  12.016
65390W        W37683  17.695  24.545   3.861
65391W        W37684  42.346  29.112  10.415
65392W        W37685  23.725  11.334  13.877
65393W        W37686  33.429  17.158   1.827
65394W        W37687  15.173   0.400  12.059
65395W        W37688   6.829  39.345   3.247
65396W        W37689  38.914  36.045   4.119
65397W        W37690  14.094   1.264   3.735
65398W        W37691   5.296  30.960   3.780
65399W        W37692  13.709  35.908   0.926
65400W        W37693  42.829  21.629   3.334
65401W        W37694   6.232  15.124   0.360
65402W        W37695  14.835  32.510   4.325
65403W        W37696   1.273  42.437  10.537
65404W        W37697  12.144  32.019   3.771
65405W        W37698  33.533  44.483   0.406
65406W        W37699  41.897  18.761   2.713
65407W        W37700   2.826  43.471  13.050
65408W        W37701  42.502  43.416  10.491
65409W        W37702  27.083  19.176   4.147
65410W        W37703  26.109  41.444  12.477
65411W        W37704  29.434  10.356   2.798
65412W        W37705  28.444  40.398  10.995
65413W        W37706   5.302  20.744  13.365
65414W        W37707  40.459  10.161  14.441
65415W        W37708   5.298  20.729  12.063
65416W        W37709  33.967  30.036  11.991
65417W        W37710  25.665  18.090  11.534
65418W        W37711  18.259  16.768   4.818
65419W        W37712  21.161  42.509  10.045
65420W        W37713  16.265  22.120   3.707
65421W        W37714  36.504   6.722  13.492
65422W        W37715  13.160  23.572   2.211
65423W        W37716  11.331  29.002  14.825
65424W        W37717  11.178  33.061  10.905
65425W        W37718  33.546  30.950  12.942
65426W        W37719  40.443  31.144  14.280
65427W        W37720  34.395  10.685  13.887
65428W        W37721  34.060   2.811  12.478
65429W        W37722   1.247  25.480   2.298
65430W        W37723   5.693  13.620   4.192
65431W        W37724   2.888  32.478  13.857
65432W        W37725   0.335  24.488  14.490
65433W        W37726  42.854   1.395   2.235
65434W        W37727  18.156  21.665   2.267
65435W        W37728  32.521  14.596   0.335
65436W        W37729  13.152  39.836  12.870
65437W        W37730   2.898  15.731  11.049
65438W        W37731  11.195  17.072   4.838
65439W        W37732  27.546  39.838   0.771
65440W        W37733  38.928  31.995   2.331
65441W        W37734   8.361  20.131   1.419
65442W        W37735  21.060  39.865   0.895
65443W        W37736  15.093   9.218  11.590
65444W        W37737  12.730   3.327   2.792
65445W        W37738  31.924  10.686   4.189
65446W        W37739  35.952  32.933  11.036
65447W        W37740   4.789  10.144   3.663
65448W        W37741  25.186  30.458  11.415
65449W        W37742  11.265  30.629   4.693
65450W        W37743   9.326  23.065  14.395
65451W        W37744  19.630   1.747   1.799
65452W        W37745  11.856   7.364   3.720
65453W        W37746  13.338  30.581   0.895
65454W        W37747  42.802   8.687   0.378
65455W        W37748  33.074  23.660  10.442
65456W        W37749  28.441  34.466  10.598
65457W        W37750  10.344   2.394   1.252
65458W        W37751  35.957  41.844   3.210
65459W        W37752  14.654  36.038   2.392
65460W        W37753   1.895  35.089  11.932
65461W        W37754   1.399   9.252   1.719
65462W        W37755  22.179   1.366   3.310
65463W        W37756  36.099   2.423  12.538
65464W        W37757  33.943  34.477   4.191
65465W        W37758   7.884  30.956  10.512
65466W        W37759  28.681  22.677   3.743
65467W        W37760  39.835  20.541  12.370
65468W        W37761  29.927  43.940  13.310
65469W        W37762  15.129  26.952   0.329
65470W        W37763  27.514   8.293   2.209
65471W        W37764  30.507  42.903  10.010
65472W        W37765  10.823  26.193  11.483
65473W        W37766  11.761   5.292  12.063
65474W        W37767  23.608   7.729   2.371
65475W        W37768   8.358   6.259  14.932
65476W        W37769  25.582   9.857   0.391
65477W        W37770   3.871   2.735  12.545
65478W        W37771  44.337   8.778   3.384
65479W        W37772   8.736  24.058   3.780
65480W        W37773  38.498  26.644   4.223
65481W        W37774  44.827  30.140   2.684
65482W        W37775  36.030  23.027  13.036
65483W        W37776  34.413   9.340   3.146
65484W        W37777  13.664   0.419  12.488
65485W        W37778   1.394  32.441   0.326
65486W        W37779  41.911  25.576   1.396
65487W        W37780  30.537  20.720  14.387
65488W        W37781  23.181  15.599   4.166
65489W        W37782  42.300   8.237  13.512
65490W        W37783  30.914  26.105   3.685
65491W        W37784  31.942  35.993  12.041
65492W        W37785  22.631   7.339   4.253
65493W        W37786  12.289  42.936  14.031
65494W        W37787   3.879  18.067  12.386
65495W        W37788  36.075  12.338   3.802
65496W        W37789  42.892  15.730  12.503
65497W        W37790   7.786  39.316  12.086
65498W        W37791  15.292  19.555   3.232
65499W        W37792  27.974  21.078   0.398
65500W        W37793   5.929  36.881  12.441
65501W        W37794  34.894  35.468  10.509
65502W        W37795  42.983  36.432  10.901
65503W        W37796   7.704  16.312  13.307
65504W        W37797  15.645  11.796   1.841
65505W        W37798  24.207   7.665   0.753
65506W        W37799  34.888  10.297   0.345
65507W        W37800  26.603   1.454   1.434
65508W        W37801   4.235  34.001   3.834
65509W        W37802  29.481  15.644   1.367
65510W        W37803  37.494   1.305   0.425
65511W        W37804   9.736  29.564   2.815
65512W        W37805  42.005  15.639  14.913
65513W        W37806   1.869  34.593  12.406
65514W        W37807  26.558  43.845   4.607
65515W        W37808  20.703  10.742   0.470
65516W        W37809  13.332  12.271  14.346
65517W        W37810   5.366   5.438   3.648
65518W        W37811  31.541   9.747  11.420
65519W        W37812   1.305  18.589   3.660
65520W        W37813  19.767  21.539  12.463
65521W        W37814   5.923  35.006  14.824
65522W        W37815  19.688  19.740   4.220
65523W        W37816  36.416  31.141   3.289
65524W        W37817  39.524  30.133  12.962
65525W        W37818   4.207  42.298  14.912
65526W        W37819  18.758  37.386  10.456
65527W        W37820  22.252  22.704   4.159
65528W        W37821  17.574  18.757   4.164
65529W        W37822  26.696  23.683  10.090
65530W        W37823  19.232   3.260  10.970
65531W        W37824  43.881  20.269   4.278
65532W        W37825   0.437  10.729  10.891
65533W        W37826  32.958  44.350   1.447
65534W        W37827  36.577  17.736  11.039
65535W        W37828   1.383  41.392  12.372
65536W        W37829  31.020  40.982   1.230
65537W        W37830  12.808  21.707  13.315
65538W        W37831  42.497  26.972   1.879
65539W        W37832   0.267  43.281   0.471
65540W        W37833  36.026   1.857  10.479
65541W        W37834  40.969  23.024  13.321
65542W        W37835  38.839  21.552   2.780
65543W        W37836  41.312  15.229  12.412
65544W        W37837  15.208  36.514  12.393
65545W        W37838   8.327  24.004  11.052
65546W        W37839  37.856  31.530  14.859
65547W        W37840  17.667   9.799   3.238
65548W        W37841  23.620  32.571   4.801
65549W        W37842  15.278  33.381   0.245
65550W        W37843  14.283  13.257  11.880
65551W        W37844   6.421  14.152  11.431
65552W        W37845  39.008  23.705  11.052
65553W        W37846  16.572  17.599  13.810
65554W        W37847   1.318  18.731  14.828
65555W        W37848  42.800  11.706   5.136
65556W        W37849   6.683  26.522   4.686
65557W        W37850  10.226  43.464  11.975
65558W        W37851  11.694  18.196  14.820
65559W        W37852  14.592  14.795   0.410
65560W        W37853   2.387  22.613   2.296
65561W        W37854  43.430  17.756  14.465
65562W        W37855   9.765  39.389  12.881
65563W        W37856  22.668  33.508  10.550
65564W        W37857  32.073  22.114   2.375
65565W        W37858  32.022  13.804  13.398
65566W        W37859  16.751   2.299  10.907
65567W        W37860  36.004  19.664   2.701
65568W        W37861  37.863  12.632   4.277
65569W        W37862  24.645  21.705   1.414
65570W        W37863  23.596  28.103  13.307
65571W        W37864  12.336  30.134  14.954
65572W        W37865  33.098  37.385  11.518
65573W        W37866   3.912  41.475   2.849
65574W        W37867   4.926  19.756  14.764
65575W        W37868  37.958  40.397  10.568
65576W        W37869  20.233  30.557  14.498
65577W        W37870  37.410  18.712  11.971
65578W        W37871  15.759  33.506   1.928
65579W        W37872  28.139  16.096  13.499
65580W        W37873  39.510  25.482  10.449
65581W        W37874  43.781  25.557  14.284
65582W        W37875   1.410   3.943  14.501
65583W        W37876  28.577  26.650  12.997
65584W        W37877  41.390  29.632  11.042
65585W        W37878   7.377  27.527   0.805
65586W        W37879   8.786  25.649   3.737
65587W        W37880  41.818  23.049  10.951
65588W        W37881  19.754  13.213  12.438
65589W        W37882  10.717  25.066  12.085
65590W        W37883   2.301  12.180  14.811
65591W        W37884  17.566  34.079  14.414
65592W        W37885  22.541   4.734  12.422
65593W        W37886  38.467  32.403   4.349
65594W        W37887  11.347  13.275  14.467
65595W        W37888   6.819  42.814  13.873
65596W        W37889  44.413  11.692   0.366
65597W        W37890   1.817  31.083  14.947
65598W        W37891   0.488  39.873  10.447
65599W        W37892  16.744  31.435  11.539
65600W        W37893  30.482  10.248   1.821
65601W        W37894  29.029  26.657   0.374
65602W        W37895   9.746  26.460  14.306
65603W        W37896  28.629  26.519   4.282
65604W        W37897   1.883  39.334   3.741
65605W        W37898   4.809   5.730  13.532
65606W        W37899  16.118   8.266   3.783
65607W        W37900  34.418  21.560  13.863
65608W        W37901   2.760  25.085  14.359
65609W        W37902   8.772  13.236   3.816
65610W        W37903   8.238  35.029   0.858
65611W        W37904  18.766  22.728   3.860
65612W        W37905   2.251   0.783  13.459
65613W        W37906  16.285  39.820   4.672
65614W        W37907  36.070  38.925  12.010
65615W        W37908  44.447  42.779  13.056
65616W        W37909  21.746   0.812   4.269
65617W        W37910  13.231   1.353   4.245
65618W        W37911   0.787  31.104   4.820
65619W        W37912  35.087  35.854   0.841
65620W        W37913   7.251  33.576  13.809
65621W        W37914  30.912  28.165  11.399
65622W        W37915  17.766  13.219   3.370
65623W        W37916  30.426  35.995   4.314
65624W        W37917  44.327  39.878  13.400
65625W        W37918   7.904  25.116   3.726
65626W        W37919  23.130   3.718  14.851
65627W        W37920  13.194  43.816   3.313
65628W        W37921   6.696  28.653  14.801
65629W        W37922  31.917  42.941   0.254
65630W        W37923  17.574   7.707  10.531
65631W        W37924  26.535  38.325  12.373
65632W        W37925  23.043   8.869   4.638
65633W        W37926  33.978  33.434  12.555
65634W        W37927  18.289  12.148   0.432
65635W        W37928  16.662  12.129  10.498
65636W        W37929  34.016  29.960   1.373
65637W        W37930  33.891   1.409   4.270
65638W        W37931  19.734  35.069   2.241
65639W        W37932   0.970  12.145   2.870
65640W        W37933  42.000  40.444   5.089
65641W        W37934  28.161  12.840  12.950
65642W        W37935  18.650  25.598   2.708
65643W        W37936  23.106   9.786  12.829
65644W        W37937  21.025   2.409   1.247
65645W        W37938  36.092  36.451   1.741
65646W        W37939  42.283   7.256  13.875
65647W        W37940  25.550  28.039  13.378
65648W        W37941  15.643  44.845   1.705
65649W        W37942  26.008  37.925  13.824
65650W        W37943  17.778  19.134   1.239
65651W        W37944  37.546  25.605   4.627
65652W        W37945  24.123  22.640   2.718
65653W        W37946  15.274  31.970   4.676
65654W        W37947  15.094  10.186  11.020
65655W        W37948  15.669  31.621  12.573
65656W        W37949  34.465   1.847  14.979
65657W        W37950  14.319  34.516   1.857
65658W        W37951  33.530   9.371   0.465
65659W        W37952  28.445  39.368   0.747
65660W        W37953  41.331  14.808  11.384
65661W        W37954  23.597  26.159   0.273
65662W        W37955  10.690   3.310  14.473
65663W        W37956  27.954   9.303   2.778
65664W        W37957  14.278  10.371  12.054
65665W        W37958  24.142  16.297  13.832
65666W        W37959  36.561  41.910  12.846
65667W        W37960  37.488  38.362  11.063
65668W        W37961  17.751  32.087  11.927
65669W        W37962   5.814   9.350  13.914
65670W        W37963  20.640  43.817  14.000
65671W        W37964  12.827   3.437   3.346
65672W        W37965   5.902   4.386  13.496
65673W        W37966  36.543  33.416   5.265
65674W        W37967   4.310  41.928  10.474
65675W        W37968  24.206  41.807   1.729
65676W        W37969  13.705   7.873   0.760
65677W        W37970  16.691  27.940  14.879
65678W        W37971  21.706  44.348   1.771
65679W        W37972  36.007  17.785   2.720
65680W        W37973  16.187  32.435   2.731
65681W        W37974   7.321  25.087   0.327
65682W        W37975  21.680   0.742  14.791
65683W        W37976  40.415  16.709  13.012
65684W        W37977  23.197   1.285  13.406
65685W        W37978   2.471   0.366  10.556
65686W        W37979  28.108  21.232   4.117
65687W        W37980  23.121  14.145  13.332
65688W        W37981  42.331  44.783   4.628
65689W        W37982  20.044   0.808  10.523
65690W        W37983  30.952  36.487   2.748
65691W        W37984   5.196  24.591   0.833
65692W        W37985   3.447  42.403  12.041
65693W        W37986  39.330  21.143   3.236
65694W        W37987   4.910  14.226  14.352
65695W        W37988  28.958  29.592  14.429
65696W        W37989  37.081   8.302  14.488
65697W        W37990   2.927  40.923  11.890
65698W        W37991  41.407  22.680   3.231
65699W        W37992  43.411  41.882   3.157
65700W        W37993  20.576   4.233   4.319
65701W        W37994   2.430  11.826   2.835
65702W        W37995  40.448   6.324  12.930
65703W        W37996  35.906  11.822  14.423
65704W        W37997  21.083  43.423   2.699
65705W        W37998  26.509  39.867   2.198
65706W        W37999  20.171  37.578  11.513
65707W        W38000  44.838  33.884  14.784
65708W        W38001  26.571  41.350  14.309
65709W        W38002  39.924  18.073   0.934
65710W        W38003   5.852   9.665  10.620
65711W        W38004  37.058  36.509   4.352
65712W        W38005  27.680  10.673  14.376
65713W        W38006   9.169  28.170  11.578
65714W        W38007   0.435  11.168   3.223
65715W        W38008  31.417   5.742  12.985
65716W        W38009  19.565  29.992   4.311
65717W        W38010  39.540  30.658  14.468
65718W        W38011  15.140  33.982  14.773
65719W        W38012  26.109   1.884  13.827
65720W        W38013  23.189   8.372   3.660
65721W        W38014  16.648   3.933  12.968
65722W        W38015  34.092   2.420  11.070
65723W        W38016  25.043  35.039   3.349
65724W        W38017  40.812  25.647  11.989
65725W        W38018  34.506   1.476   0.418
65726W        W38019  33.530  12.703   1.773
65727W        W38020   3.710  30.907   0.774
65728W        W38021  42.872  26.086  12.446
65729W        W38022  15.629   6.293   3.861
65730W        W38023   5.303  23.229  14.797
65731W        W38024  28.056  40.833   1.257
65732W        W38025  15.618  10.838   0.463
65733W        W38026  26.084  32.404   0.369
65734W        W38027   7.740  44.993   3.759
65735W        W38028  21.576  20.257   3.255
65736W        W38029  28.507  39.956  13.027
65737W        W38030  35.885  20.745   3.321
65738W        W38031  10.802  33.077   1.344
65739W        W38032   2.758  29.540  10.408
65740W        W38033  32.532   2.928  14.770
65741W        W38034  12.253  25.652  13.002
65742W        W38035  24.143  10.872  12.470
65743W        W38036  25.573  14.147   2.219
65744W        W38037  29.543  11.236  11.958
65745W        W38038   5.340  13.706  12.479
65746W        W38039  20.609  26.673   3.158
65747W        W38040   0.351  38.979  10.546
65748W        W38041  40.033   4.422   3.769
65749W        W38042  29.962   4.396  11.004
65750W        W38043  20.563  41.790   2.810
65751W        W38044  35.474  43.437   0.324
65752W        W38045   5.806   6.391  10.416
65753W        W38046  24.120  22.097   2.331
65754W        W38047  13.692  16.236  14.790
65755W        W38048  35.536  30.015   2.271
65756W        W38049  10.734  29.946   1.865
65757W        W38050  13.745  43.361   0.949
65758W        W38051  33.562  32.090  10.057
65759W        W38052  30.419   1.947   0.260
65760W        W38053   1.266  11.238   4.148
65761W        W38054  33.917  38.395   0.912
65762W        W38055  29.062  35.604   1.350
65763W        W38056  39.943  35.928   1.295
65764W        W38057  22.690  34.429   4.711
65765W        W38058  36.883  10.861   2.322
65766W        W38059   0.911   7.765  14.808
65767W        W38060  34.973  44.491   2.221
65768W        W38061  36.450   5.822  11.515
65769W        W38062   6.408  42.426   3.210
65770W        W38063   7.175  20.237   4.355
65771W        W38064  33.936  38.920  12.393
65772W        W38065  14.201  29.979  12.070
65773W        W38066  26.563  29.457   0.929
65774W        W38067  37.073  26.627   4.349
65775W        W38068  36.438  34.607   4.650
65776W        W38069  21.181  31.546   1.802
65777W        W38070   5.713   2.457   2.239
65778W        W38071  39.413  20.700   2.208
65779W        W38072  38.940  13.691  11.925
65780W        W38073  28.968   3.905   4.741
65781W        W38074  19.735  34.465  12.465
65782W        W38075  12.314   0.339  14.829
65783W        W38076  10.272  18.683  10.423
65784W        W38077  14.701  37.929   2.698
65785W        W38078   1.374   9.823  13.476
65786W        W38079  12.833  21.729  11.941
65787W        W38080  33.073  32.085   2.214
65788W        W38081  32.595   2.248   4.813
65789W        W38082  29.153  23.014   0.761
65790W        W38083  12.208  36.053   1.398
65791W        W38084   8.779  31.639   0.815
65792W        W38085  39.407  13.269  11.000
65793W        W38086  12.639  23.735  11.107
65794W        W38087  32.399  19.090   1.810
65795W        W38088  27.598   7.292   3.808
65796W        W38089  14.264  30.918   3.189
65797W        W38090  22.668  23.607   1.216
65798W        W38091   5.848  17.711   1.935
65799W        W38092   4.803  17.211   1.842
65800W        W38093  17.736  28.595  12.854
65801W        W38094  30.543  42.487  14.924
65802W        W38095  41.451  39.491   4.330
65803W        W38096   3.247  27.567   0.864
65804W        W38097  43.352  31.930  14.925
65805W        W38098  26.157  44.837   0.398
65806W        W38099  42.357   5.287  11.372
65807W        W38100  19.255  40.987   0.447
65808W        W38101   6.263  19.540  10.074
65809W        W38102  15.133   9.749   3.676
65810W        W38103  26.203   5.359  11.006
65811W        W38104  33.996   2.944  11.494
65812W        W38105   6.199  38.514   0.920
65813W        W38106  37.858  10.704   1.257
65814W        W38107   5.193  38.420  12.010
65815W        W38108  28.010  23.197  11.101
65816W        W38109  36.940  10.814  12.449
65817W        W38110  23.607   1.893  10.636
65818W        W38111  37.015   2.270   1.894
65819W        W38112  24.989  44.295  11.863
65820W        W38113  14.662   8.184   1.320
65821W        W38114  29.122  39.511  14.937
65822W        W38115  11.238  31.443   0.336
65823W        W38116  19.615  29.557  14.293
65824W        W38117  28.010  28.185   2.183
65825W        W38118  18.120  20.718   0.468
65826W        W38119  21.542  15.169  14.351
65827W        W38120  23.067   4.848  14.794
65828W        W38121  34.379  33.435   4.151
65829W        W38122  19.679  37.444  11.393
65830W        W38123   4.250  36.438   2.896
65831W        W38124  28.496   5.413   2.688
65832W        W38125  32.143  10.845  12.077
65833W        W38126  34.020  37.082  12.460
65834W        W38127  41.811  11.674   1.710
65835W        W38128  37.081  35.920   4.730
65836W        W38129  30.508  31.446   2.236
65837W        W38130  26.190  20.242   1.715
65838W        W38131  27.060  27.001  11.425
65839W        W38132  10.690  42.881  11.382
65840W        W38133   2.735  19.756   4.621
65841W        W38134  14.243  39.343  11.964
65842W        W38135  34.399  42.524  11.106
65843W        W38136  31.638  15.161  11.526
65844W        W38137  34.087  37.373   4.268
65845W        W38138  41.842   7.717   4.630
65846W        W38139   5.845  11.273   1.314
65847W        W38140   5.893  27.070   3.654
65848W        W38141  24.164  21.091   2.830
65849W        W38142   7.748  42.486  10.406
65850W        W38143  20.748  13.304   1.758
65851W        W38144  31.094  32.019  13.028
65852W        W38145  30.094  28.634  13.986
65853W        W38146  17.184  33.624  11.023
65854W        W38147  10.859   2.422  13.520
65855W        W38148  13.316  26.031   3.339
65856W        W38149  16.110  31.548  14.310
65857W        W38150   0.294   8.852   1.785
65858W        W38151  42.474   1.828   2.344
65859W        W38152  10.652  30.006   1.243
65860W        W38153   1.901  24.500   1.849
65861W        W38154  42.806   2.387  14.456
65862W        W38155  31.967  41.887  14.000
65863W        W38156   2.864  10.224  11.900
65864W        W38157  15.644  20.065  14.285
65865W        W38158  21.681  39.956  10.470
65866W        W38159  32.064  10.797  11.023
65867W        W38160  12.125  23.520   3.256
65868W        W38161   3.433  40.404  14.977
65869W        W38162  10.639  10.240   4.191
65870W        W38163   6.815  34.500   0.874
65871W        W38164   7.740  22.174   4.135
65872W        W38165  33.566  21.734  11.973
65873W        W38166  34.116   2.380  14.908
65874W        W38167   2.875   0.434  12.901
65875W        W38168  17.184  28.486  14.512
65876W        W38169  10.790  24.181  13.842
65877W        W38170   9.252   4.925   3.629
65878W        W38171  12.646  34.457   2.247
65879W        W38172  27.545   8.771   1.351
65880W        W38173  32.440   4.867  10.572
65881W        W38174  20.067  40.944   0.912
65882W        W38175  22.032  38.421   4.348
65883W        W38176  31.140   3.947  11.956
65884W        W38177  11.229  24.004  14.401
65885W        W38178  21.643  36.354   2.393
65886W        W38179  28.576  19.777   2.192
65887W        W38180   9.757  27.196  13.329
65888W        W38181  14.235  16.573  11.885
65889W        W38182  23.655  28.949   4.191
65890W        W38183  22.054   9.836   2.185
65891W        W38184  36.545  37.522   2.401
65892W        W38185  27.004  32.104  11.454
65893W        W38186   5.827   0.384  12.474
65894W        W38187  12.174   1.963   2.411
65895W        W38188  28.123  15.097  14.931
65896W        W38189  28.979  43.931   4.238
65897W        W38190  23.176  11.716   2.267
65898W        W38191  30.913  28.107   0.775
65899W        W38192  18.789   9.648  12.470
65900W        W38193  44.877  22.566  11.588
65901W        W38194  14.324  30.478   4.337
65902W        W38195  20.604  17.666  11.919
65903W        W38196  27.012   5.219   4.715
65904W        W38197  19.720  23.213   9.921
65905W        W38198  10.705  13.300  13.387
65906W        W38199  18.782  11.858   1.387
65907W        W38200  33.938  10.857  11.943
65908W        W38201   4.433  28.654  14.406
65909W        W38202  31.587  27.656   0.412
65910W        W38203  37.339  25.672   3.647
65911W        W38204  44.478   6.243   3.797
65912W        W38205  18.246   3.367   4.715
65913W        W38206  33.505   6.347  11.462
65914W        W38207  10.712   2.905  12.525
65915W        W38208  26.097  33.005   2.748
65916W        W38209  29.466   0.852  14.372
65917W        W38210  32.437  10.353   5.725
65918W        W38211  39.923   0.969  10.084
65919W        W38212  19.096  27.987   0.849
65920W        W38213   6.882  29.442   0.803
65921W        W38214  18.553   5.875  11.453
65922W        W38215  34.464  39.838  14.983
65923W        W38216   4.758  19.708   4.335
65924W        W38217  24.195  19.630   0.932
65925W        W38218  20.098  30.093   0.799
65926W        W38219   1.419  43.963  13.424
65927W        W38220  22.084  30.531   1.443
65928W        W38221  38.499  28.621   2.238
65929W        W38222  44.936  32.474   1.715
65930W        W38223  15.200  42.405  12.095
65931W        W38224   2.270  33.000  14.469
65932W        W38225  44.297  33.453  14.802
65933W        W38226   3.455  10.192  11.584
65934W        W38227  19.709  36.586   2.353
65935W        W38228  30.088   3.457   5.261
65936W        W38229  20.134   1.481  14.938
65937W        W38230  41.012  37.078   1.823
65938W        W38231  12.673  44.471  12.546
65939W        W38232   4.699  44.888  12.474
65940W        W38233  38.562  32.395  12.446
65941W        W38234  14.817  31.119  14.311
65942W        W38235  29.920  23.097   9.672
65943W        W38236   3.314   4.864  12.015
65944W        W38237  31.034  41.521  13.451
65945W        W38238  16.195  12.296   1.381
65946W        W38239   3.756  12.286  12.053
65947W        W38240   3.221  22.050   2.787
65948W        W38241  44.921  18.677  11.392
65949W        W38242   7.675  30.490  13.360
65950W        W38243   1.389  41.436  11.016
65951W        W38244  37.537   0.328  10.074
65952W        W38245  26.077  29.097   1.837
65953W        W38246   8.387   4.827   2.806
65954W        W38247   2.801  24.033  11.002
65955W        W38248  33.453   1.289   1.872
65956W        W38249  10.242   2.412  14.773
65957W        W38250  26.027  24.084   0.465
65958W        W38251  11.280  25.000  10.932
65959W        W38252  32.513  38.925   9.924
65960W        W38253  23.732  17.113  14.292
65961W        W38254  23.112  31.986  14.910
65962W        W38255   6.804   7.325  11.097
65963W        W38256  10.671  42.971  14.416
65964W        W38257  29.028  42.025  10.893
65965W        W38258   6.684   5.217  12.941
65966W        W38259   1.331   2.724   4.278
65967W        W38260  33.555  11.332  10.989
65968W        W38261  30.448   7.786   1.869
65969W        W38262  27.989   9.702   1.747
65970W        W38263  15.091  33.049  12.340
65971W        W38264   5.749  20.032   1.802
65972W        W38265  38.499  18.652   4.625
65973W        W38266  17.627  37.582  11.989
65974W        W38267   6.241  30.633  12.085
65975W        W38268  18.587   4.261  10.499
65976W        W38269  44.795  10.365  13.970
65977W        W38270  29.979  32.510   0.888
65978W        W38271  13.145  21.644  14.816
65979W        W38272  42.297  33.571  11.886
65980W        W38273  27.972  19.625  11.939
65981W        W38274   1.859  43.826   1.441
65982W        W38275  41.949  20.041   3.385
65983W        W38276  41.352  21.130   1.390
65984W        W38277  44.271  31.577  12.409
65985W        W38278   2.842  10.820   1.302
65986W        W38279   2.919  31.969  13.362
65987W        W38280  29.109  27.074  12.929
65988W        W38281  38.544  24.158   1.237
65989W        W38282  40.308  13.236   0.783
65990W        W38283  33.091   8.317  14.811
65991W        W38284   3.290  35.559   1.805
65992W        W38285  10.824  42.827   0.889
65993W        W38286  40.327   6.870  12.459
65994W        W38287  14.755  10.183  13.898
65995W        W38288  16.676  20.090  13.907
65996W        W38289  44.282   5.240  10.952
65997W        W38290  22.609  44.422  13.417
65998W        W38291  26.509   6.378  11.606
65999W        W38292   2.337  10.272  10.619
66000W        W38293  22.065  10.663  11.423
66001W        W38294  26.062  27.667   4.793
66002W        W38295  18.222  13.320   1.288
66003W        W38296  23.207  27.477   2.233
66004W        W38297   5.362  16.742  13.839
66005W        W38298  19.771  38.986   1.934
66006W        W38299   3.719  41.312   3.180
66007W        W38300  25.546  21.031  14.284
66008W        W38301  42.943  16.623   5.317
66009W        W38302  35.481  19.218  12.066
66010W        W38303  22.582   2.300  12.927
66011W        W38304  34.057  22.102   0.254
66012W        W38305  17.164  31.455  10.973
66013W        W38306  16.675  18.220  14.465
66014W        W38307  22.641  27.530  14.941
66015W        W38308  12.137  11.198  14.393
66016W        W38309  34.457  19.648  11.998
66017W        W38310  29.115   5.919   4.311
66018W        W38311  14.296  37.900  10.940
66019W        W38312  42.871  38.373   0.836
66020W        W38313   8.298  32.568  11.933
66021W        W38314  33.106  36.019   3.674
66022W        W38315  25.067  23.999  12.875
66023W        W38316  22.219  34.542  10.509
66024W        W38317  34.508  15.742   2.703
66025W        W38318   6.869   0.868   3.206
66026W        W38319  36.973   9.223  11.431
66027W        W38320  18.270  44.965  11.588
66028W        W38321  26.035  24.558   2.380
66029W        W38322  38.052  34.545   2.297
66030W        W38323  20.559  24.649   2.671
66031W        W38324  25.029   1.382   4.688
66032W        W38325  12.323  39.448  10.433
66033W        W38326  14.662  43.809   3.755
66034W        W38327  30.589  23.071  10.453
66035W        W38328   8.404  21.522   2.201
66036W        W38329  11.660  30.099  13.882
66037W        W38330  30.053  22.159  12.489
66038W        W38331  18.638  37.081  14.964
66039W        W38332  39.031  41.528   0.472
66040W        W38333   0.803  42.929   4.654
66041W        W38334  20.031  20.754   2.272
66042W        W38335  14.825  12.279   3.704
66043W        W38336  30.468  25.511   0.391
66044W        W38337  27.589  33.392  13.921
66045W        W38338  18.292  16.576   2.291
66046W        W38339  17.140  29.608  11.498
66047W        W38340  27.056  29.045   1.245
66048W        W38341  11.645  34.400  13.025
66049W        W38342  44.404  27.096   4.654
66050W        W38343  14.782   7.193   2.309
66051W        W38344  17.153  17.568  12.989
66052W        W38345  18.069  10.139  12.416
66053W        W38346  23.127  44.387   2.802
66054W        W38347   0.477  32.951   1.237
66055W        W38348  36.449  27.035  11.526
66056W        W38349  36.911   8.794  12.517
66057W        W38350   4.420  19.755  12.423
66058W        W38351  31.491  14.339  13.927
66059W        W38352  44.957  27.454  10.484
66060W        W38353  14.682  10.245   4.196
66061W        W38354   3.406  44.981   3.344
66062W        W38355  10.348   4.248  14.275
66063W        W38356  39.506  18.770  14.388
66064W        W38357  30.933  25.644  11.874
66065W        W38358  16.695  26.155  14.893
66066W        W38359  14.641  25.993  10.954
66067W        W38360  29.493  38.030  12.093
66068W        W38361  12.804  38.389  12.078
66069W        W38362  30.487   0.340  12.030
66070W        W38363  23.079  43.497   1.738
66071W        W38364  33.088  38.486   2.777
66072W        W38365  20.673  30.972   3.257
66073W        W38366  29.570  34.533  11.549
66074W        W38367  14.268  28.604  14.938
66075W        W38368  22.614  10.142  13.310
66076W        W38369   6.214  10.788   3.712
66077W        W38370   4.376  32.079   3.844
66078W        W38371  39.039   9.735  12.924
66079W        W38372   8.296  41.461   0.916
66080W        W38373  25.468  21.754   3.338
66081W        W38374   7.755  36.535   2.885
66082W        W38375   0.248  11.635  11.394
66083W        W38376   4.298  36.924   0.738
66084W        W38377  11.339  34.104  14.861
66085W        W38378  39.041  18.176   3.759
66086W        W38379  11.837  34.898   1.448
66087W        W38380   7.768  16.656  11.534
66088W        W38381  37.967  25.657  11.041
66089W        W38382   7.882  26.127   1.245
66090W        W38383  35.448   9.206  13.513
66091W        W38384  14.623  38.340  14.396
66092W        W38385  41.942  25.610   0.788
66093W        W38386  38.569  43.450   3.813
66094W        W38387   1.379   4.912  11.039
66095W        W38388  30.491  36.557   2.318
66096W        W38389  36.509  25.093   2.823
66097W        W38390  16.768  16.659   1.802
66098W        W38391  21.109  33.410  12.839
66099W        W38392  19.745  37.950  12.405
66100W        W38393  14.308   4.430   2.834
66101W        W38394   7.748  39.384  14.378
66102W        W38395  27.013  30.464   1.931
66103W        W38396  38.013  17.132   2.323
66104W        W38397  23.078   5.352   2.303
66105W        W38398  30.615  36.084  11.595
66106W        W38399  17.077  27.520  13.435
66107W        W38400  33.099  21.573  14.319
66108W        W38401  35.467  32.106  13.909
66109W        W38402   2.468  25.636  12.371
66110W        W38403   0.372   6.337   2.302
66111W        W38404  16.682  44.936   2.793
66112W        W38405  13.812  13.271  14.930
66113W        W38406  10.138  29.066  12.877
66114W        W38407  14.298  20.145   5.173
66115W        W38408   3.224  10.160   4.660
66116W        W38409  43.492   0.304  12.888
66117W        W38410  15.720  23.045  13.044
66118W        W38411  29.636   8.253   0.434
66119W        W38412  33.091  29.156  13.819
66120W        W38413  29.035   9.884   5.123
66121W        W38414  39.836  21.163   2.770
66122W        W38415  23.589   1.866   0.267
66123W        W38416  26.951  14.260   2.379
66124W        W38417   7.304  10.144  13.999
66125W        W38418  20.206  20.702  13.527
66126W        W38419  28.056  10.817   2.817
66127W        W38420  39.820  17.597  12.077
66128W        W38421  28.977  37.371   1.911
66129W        W38422  24.057  37.466  13.956
66130W        W38423   3.822  38.475  14.356
66131W        W38424  23.127  44.357   0.788
66132W        W38425  11.758   6.815  12.572
66133W        W38426  44.368  40.806   0.305
66134W        W38427   5.236  22.715   4.644
66135W        W38428  31.106  35.521   1.788
66136W        W38429   1.457  19.679  10.417
66137W        W38430  28.556  35.915  14.022
66138W        W38431  12.715   6.423  11.041
66139W        W38432   1.742  14.761  11.977
66140W        W38433  14.609   8.692   4.629
66141W        W38434   9.851  20.143   2.291
66142W        W38435  39.435  21.688  14.324
66143W        W38436  18.174  30.991   4.274
66144W        W38437  15.785  37.440  12.932
66145W        W38438  24.213   4.874   0.446
66146W        W38439  18.644   9.872   1.770
66147W        W38440  32.946  42.795  12.558
66148W        W38441  10.283   3.315  13.320
66149W        W38442  25.163  30.112  12.367
66150W        W38443  22.186  21.601   4.756
66151W        W38444   2.776   8.374   1.929
66152W        W38445  14.827  16.200   3.820
66153W        W38446  28.999  34.056   1.821
66154W        W38447  41.921   5.879   3.291
66155W        W38448   4.903  33.942  14.957
66156W        W38449  30.644   9.872  12.063
66157W        W38450  32.601  13.778   0.318
66158W        W38451  16.157  18.264   3.699
66159W        W38452   3.438  29.601   0.259
66160W        W38453  16.316  44.336   1.870
66161W        W38454  25.584  26.104   4.118
66162W        W38455  26.677  10.794  13.469
66163W        W38456  13.611   0.424  11.495
66164W        W38457  29.643  25.143  12.364
66165W        W38458  27.575  21.607   5.292
66166W        W38459  38.373  37.502  11.034
66167W        W38460  28.069  27.941  14.460
66168W        W38461  19.211  30.579   0.482
66169W        W38462  36.049  38.072  11.900
66170W        W38463  28.096   3.283   5.178
66171W        W38464  42.789   0.918  13.811
66172W        W38465  42.333  35.962   1.762
66173W        W38466  38.436  25.063  14.969
66174W        W38467  34.405  44.862   2.850
66175W        W38468  34.579  37.473  12.996
66176W        W38469  38.028   9.162   3.292
66177W        W38470  12.811  14.321   4.128
66178W        W38471   8.720  11.336   0.884
66179W        W38472  28.182  43.504  11.880
66180W        W38473  26.063  25.672  11.855
66181W        W38474  18.197  33.585   0.480
66182W        W38475  12.127   3.337  12.395
66183W        W38476  16.197  33.945   3.664
66184W        W38477  32.021  42.355   1.323
66185W        W38478  42.447  33.084  12.502
66186W        W38479  17.202  25.974   3.379
66187W        W38480  11.822  30.006  10.898
66188W        W38481   5.403  14.686   4.769
66189W        W38482   4.394  27.985   2.348
66190W        W38483  24.170   8.346  12.436
66191W        W38484  18.751  24.722   2.701
66192W        W38485  14.636   1.740  10.148
66193W        W38486  22.628  24.132   3.369
66194W        W38487  40.836  16.714  14.398
66195W        W38488  19.655  22.631   4.835
66196W        W38489  36.402  13.806   4.180
66197W        W38490  17.251  26.461  11.903
66198W        W38491  33.092  13.249   4.694
66199W        W38492  36.444  23.526   3.368
66200W        W38493  30.979  44.385   1.305
66201W        W38494   8.845  17.568   3.774
66202W        W38495  15.087  40.896  13.801
66203W        W38496  17.067  17.155  11.572
66204W        W38497  28.618  36.495  13.928
66205W        W38498  30.983   8.718  10.645
66206W        W38499  38.551   5.397  12.845
66207W        W38500  12.753  17.759   2.775
66208W        W38501  30.567   9.175   0.860
66209W        W38502  19.576   7.191  14.917
66210W        W38503   1.849  41.512   3.750
66211W        W38504  30.492  15.735  12.549
66212W        W38505  23.110  38.527   4.261
66213W        W38506  29.655  30.415   1.848
66214W        W38507  13.178   9.323   0.906
66215W        W38508  25.537   5.221  12.973
66216W        W38509   4.873  22.206  10.064
66217W        W38510   7.298  33.545   2.775
66218W        W38511   4.798   2.894   2.806
66219W        W38512  11.159   4.816   4.183
66220W        W38513  14.671  32.496   2.394
66221W        W38514  32.529   7.247  14.787
66222W        W38515   9.769  34.874   0.250
66223W        W38516  40.381  27.182  11.116
66224W        W38517  15.256  42.992  13.375
66225W        W38518   9.866  25.602  13.357
66226W        W38519   7.748  18.137  14.424
66227W        W38520  23.212  17.261  13.983
66228W        W38521  19.134   0.886   2.847
66229W        W38522  33.425  16.708   1.774
66230W        W38523  35.549  34.502  14.481
66231W        W38524  15.185   7.794  12.522
66232W        W38525   4.831  39.050   5.094
66233W        W38526  34.906  24.110   2.709
66234W        W38527  22.585  29.098  13.884
66235W        W38528  20.072  14.707  12.932
66236W        W38529  22.231  14.169   3.157
66237W        W38530  40.530  26.565   4.731
66238W        W38531  12.754  25.176  14.825
66239W        W38532  12.837   3.854   5.757
66240W        W38533  18.249   8.179   4.159
66241W        W38534  38.327  36.449  13.347
66242W        W38535   9.739  17.267   0.416
66243W        W38536   3.893   3.800   2.689
66244W        W38537  21.529  12.813  14.327
66245W        W38538  15.199  10.768   0.346
66246W        W38539  28.479   3.250   1.356
66247W        W38540  41.297  34.420  12.475
66248W        W38541   5.238  44.396   4.336
66249W        W38542  15.808   4.739  12.454
66250W        W38543  37.491  35.965  13.470
66251W        W38544   1.442  44.264  13.412
66252W        W38545  11.306  31.955  10.536
66253W        W38546  28.147   1.839   3.655
66254W        W38547  30.116  23.503  12.838
66255W        W38548  44.378  42.927  13.330
66256W        W38549  18.756  34.613   2.742
66257W        W38550  35.486   1.806  11.396
66258W        W38551  39.344  44.387  14.917
66259W        W38552  15.728  14.696   3.263
66260W        W38553  18.557  32.598   0.840
66261W        W38554  34.099  29.531   3.361
66262W        W38555   5.797  25.217  11.065
66263W        W38556  31.429  41.803  14.977
66264W        W38557  34.880  39.480  13.368
66265W        W38558   9.305   9.158   2.327
66266W        W38559  13.846  16.698   0.796
66267W        W38560  33.978  13.671  12.897
66268W        W38561  38.903   5.915  11.069
66269W        W38562  18.224   0.440   0.393
66270W        W38563  21.556  24.023  14.420
66271W        W38564  23.711  19.156  10.516
66272W        W38565  27.061  25.571   2.326
66273W        W38566   6.919  37.960   3.314
66274W        W38567  40.933  26.168  10.963
66275W        W38568  42.434  19.580   1.321
66276W        W38569  36.890   6.337   2.306
66277W        W38570  15.720  38.566  11.100
66278W        W38571  36.929  21.195   0.853
66279W        W38572  19.598  20.638   9.970
66280W        W38573  30.562  13.731   3.868
66281W        W38574  32.583   0.483  13.347
66282W        W38575  26.959  36.446   2.827
66283W        W38576  44.770  37.938   2.751
66284W        W38577  32.427  32.995   2.766
66285W        W38578  27.606  41.981  14.906
66286W        W38579  14.282  27.091   2.703
66287W        W38580  40.841   5.421  13.038
66288W        W38581  22.690  43.427   3.288
66289W        W38582   5.895  43.350   2.336
66290W        W38583  11.766  22.664   1.408
66291W        W38584  44.920  29.431  12.071
66292W        W38585  30.916  36.976  13.367
66293W        W38586  35.856   8.857   3.729
66294W        W38587  22.147  39.486  11.019
66295W        W38588   9.367   3.935   1.308
66296W        W38589   3.797  37.513  11.395
66297W        W38590  40.511  11.317   3.382
66298W        W38591  13.668   0.971  12.466
66299W        W38592  28.515  15.635  13.478
66300W        W38593  16.629  23.117  10.140
66301W        W38594  26.981  20.639   4.665
66302W        W38595  24.706  19.568  11.557
66303W        W38596  34.430   0.895   3.788
66304W        W38597  40.894  29.164  13.925
66305W        W38598  35.422  27.656  13.445
66306W        W38599  21.057   5.311  10.426
66307W        W38600  21.214  13.257   5.101
66308W        W38601  28.585   0.907   1.928
66309W        W38602   8.849   9.848  10.477
66310W        W38603  28.096  34.014  14.375
66311W        W38604  10.805  41.475  13.876
66312W        W38605  10.373  24.089  11.422
66313W        W38606  30.460  37.000   3.351
66314W        W38607   5.420  38.432   3.827
66315W        W38608   0.435  12.277  13.040
66316W        W38609  24.038  25.502  14.886
66317W        W38610  15.095  10.344   0.379
66318W        W38611  33.891  32.473   4.726
66319W        W38612  34.061   6.428  11.382
66320W        W38613   0.404  44.880   0.894
66321W        W38614   5.884  39.422   4.249
66322W        W38615  24.713   7.885  12.911
66323W        W38616  28.576  11.840  14.495
66324W        W38617  31.533  25.601  12.087
66325W        W38618  36.479  38.863  11.094
66326W        W38619  37.976   2.227  13.865
66327W        W38620   9.195  44.475   1.837
66328W        W38621  13.298   7.776  10.548
66329W        W38622  24.007   9.733   4.829
66330W        W38623  44.303  18.702  14.412
66331W        W38624  16.714  21.641   2.398
66332W        W38625  12.292  14.115   3.190
66333W        W38626  44.263  38.835   2.703
66334W        W38627  34.493   6.745   2.229
66335W        W38628  17.206  14.676  12.000
66336W        W38629  24.711  31.421   1.821
66337W        W38630  42.368  19.660   0.786
66338W        W38631  43.386  32.564  12.939
66339W        W38632  30.633  19.610   5.209
66340W        W38633   6.837  24.563   2.850
66341W        W38634  19.626  24.215  11.925
66342W        W38635  44.369  27.193   3.239
66343W        W38636   9.865  19.077  11.456
66344W        W38637  11.327  35.503   4.612
66345W        W38638  12.276  12.273   0.309
66346W        W38639  38.480  40.442  14.380
66347W        W38640  32.410   7.307  13.374
66348W        W38641  29.448  26.207   4.201
66349W        W38642  29.105  18.243  11.387
66350W        W38643   4.296   4.754  14.901
66351W        W38644   2.953  34.899   2.406
66352W        W38645  23.210   8.274   2.791
66353W        W38646  38.829  23.693  11.985
66354W        W38647  10.808   3.880   3.654
66355W        W38648  24.049  22.566  11.042
66356W        W38649  31.538   1.259   0.903
66357W        W38650   2.820  25.162  12.490
66358W        W38651  20.575   8.343   3.234
66359W        W38652  29.139  15.794   4.750
66360W        W38653  27.159   8.282  13.959
66361W        W38654   2.855  11.721   4.631
66362W        W38655  24.699  40.986  12.478
66363W        W38656  29.496  28.955  11.957
66364W        W38657  36.538  25.104   4.209
66365W        W38658  37.056  42.999   3.229
66366W        W38659  37.999  42.911  13.372
66367W        W38660   4.717  19.168  14.780
66368W        W38661  24.725  17.578   4.782
66369W        W38662  17.716  16.143  13.423
66370W        W38663  21.626  17.119  10.446
66371W        W38664  16.755  40.946   2.698
66372W        W38665  31.993  11.179  14.818
66373W        W38666   6.906  44.838  13.792
66374W        W38667  37.895   3.397  13.053
66375W        W38668  27.056  17.658   3.842
66376W        W38669  13.742  39.818  13.313
66377W        W38670  31.631  28.981   0.734
66378W        W38671  18.107  26.970   2.698
66379W        W38672  44.973  26.164   4.343
66380W        W38673  42.300  15.754  11.603
66381W        W38674  44.392   0.957   4.138
66382W        W38675   2.836  29.453  13.462
66383W        W38676  13.749  24.552  12.517
66384W        W38677   7.793  42.901  14.898
66385W        W38678  37.967  33.570  10.117
66386W        W38679   6.773  28.586   0.470
66387W        W38680  24.003   8.688   3.653
66388W        W38681  25.194  33.591   2.747
66389W        W38682   0.841  36.559   2.237
66390W        W38683   2.318   6.225   0.329
66391W        W38684  31.497   4.444  11.499
66392W        W38685  29.543  26.967  11.010
66393W        W38686  41.302  43.875  14.826
66394W        W38687  26.525  24.134  10.617
66395W        W38688  20.053  32.623  11.421
66396W        W38689  10.342  17.667  10.554
66397W        W38690  23.598  44.410  11.004
66398W        W38691  39.557   7.272  11.942
66399W        W38692  20.703  10.330   2.301
66400W        W38693  31.927  27.073  11.488
66401W        W38694   3.739  15.712  13.981
66402W        W38695  39.063  37.928   2.337
66403W        W38696   8.251  17.109  13.944
66404W        W38697  13.767  43.974   4.139
66405W        W38698   6.307  44.362   1.768
66406W        W38699  18.110  18.774   1.365
66407W        W38700  17.744   1.879   1.906
66408W        W38701  26.171  29.431  12.569
66409W        W38702  40.361  11.334  11.555
66410W        W38703   8.856   6.821   4.607
66411W        W38704  21.135  42.473  11.594
66412W        W38705  28.942   4.726  11.957
66413W        W38706  34.927  40.044   3.199
66414W        W38707  17.289   1.296  14.330
66415W        W38708   0.283  10.296   4.755
66416W        W38709   8.718   8.284  12.343
66417W        W38710   0.319  33.893  13.871
66418W        W38711   8.346  41.383  10.530
66419W        W38712  35.103  43.406   2.368
66420W        W38713  13.282  25.639   4.182
66421W        W38714   3.270  40.981   2.668
66422W        W38715  15.156  25.211   2.716
66423W        W38716  15.134  23.537  10.526
66424W        W38717   0.429  29.055   4.266
66425W        W38718  40.454   6.389   3.221
66426W        W38719  12.177  38.875   1.714
66427W        W38720   4.912  32.449  13.396
66428W        W38721  19.172  37.575   2.852
66429W        W38722  44.347  39.808   0.357
66430W        W38723  39.370  14.827  10.548
66431W        W38724  22.243  29.496   1.409
66432W        W38725  12.710  27.171  14.287
66433W        W38726  16.189  32.000  12.044
66434W        W38727  42.517  29.134  13.944
66435W        W38728  33.461   1.939  11.003
66436W        W38729  35.524  32.401   2.278
66437W        W38730  26.627  23.093   5.626
66438W        W38731  30.558  11.149  11.917
66439W        W38732  12.817  10.285  13.480
66440W        W38733   5.789   3.923   1.796
66441W        W38734   4.417  21.080   2.218
66442W        W38735   2.431  33.926   1.381
66443W        W38736   0.432  18.565   4.284
66444W        W38737  31.421   8.336   1.916
66445W        W38738   0.789  24.704   0.305
66446W        W38739   4.372  37.066   1.375
66447W        W38740   3.363  23.029   3.203
66448W        W38741  39.434  36.038   1.814
66449W        W38742  38.946  33.076  13.358
66450W        W38743  12.856  38.545   4.214
66451W        W38744  23.670  34.379  12.417
66452W        W38745  12.763  34.095   2.265
66453W        W38746  24.154  44.995  13.059
66454W        W38747  24.227  19.276  11.915
66455W        W38748  10.156  35.092  10.926
66456W        W38749  14.319  44.979  13.865
66457W        W38750  35.053  14.706   0.445
66458W        W38751  33.892   6.228  14.945
66459W        W38752  17.166  40.333  13.973
66460W        W38753   5.931  28.677   3.723
66461W        W38754  33.470  16.784  12.538
66462W        W38755   9.793  34.916  11.062
66463W        W38756  17.572   2.413   2.873
66464W        W38757  21.697  38.553  10.549
66465W        W38758   5.340  17.589  10.464
66466W        W38759   9.840  29.976   0.460
66467W        W38760  19.206  14.717   0.751
66468W        W38761  26.098  31.074  12.045
66469W        W38762   9.198  39.492  13.984
66470W        W38763  36.049  26.190   0.277
66471W        W38764   5.291   3.763   4.789
66472W        W38765  37.047  34.575  11.539
66473W        W38766   2.226   8.267   1.285
66474W        W38767  28.568  35.025  10.135
66475W        W38768  34.092  26.114  10.901
66476W        W38769  41.521  20.709  13.943
66477W        W38770  27.101  34.456  14.421
66478W        W38771  36.448   0.887  10.027
66479W        W38772  20.106  24.486   1.801
66480W        W38773  32.115  31.624  11.109
66481W        W38774  36.027  29.653  12.861
66482W        W38775   2.872   3.735   2.266
66483W        W38776  28.529  38.450   1.845
66484W        W38777  28.489  11.351   4.745
66485W        W38778   4.325  29.603  14.854
66486W        W38779  43.473  40.863   3.361
66487W        W38780   4.901  41.342  10.641
66488W        W38781  28.548  19.208   0.320
66489W        W38782  33.560  42.824   0.843
66490W        W38783  12.713  23.985   0.454
66491W        W38784  43.904   5.430   2.261
66492W        W38785  21.622  17.102   2.666
66493W        W38786   0.750  27.139  14.797
66494W        W38787  22.013  24.574   4.789
66495W        W38788  30.602  31.565   3.737
66496W        W38789  31.072   4.307   0.277
66497W        W38790  26.484  23.504   3.198
66498W        W38791  41.346  39.815  11.021
66499W        W38792  39.929  44.262   0.405
66500W        W38793   6.895   9.719   2.756
66501W        W38794   0.876  41.843   1.366
66502W        W38795  13.112  35.422   3.247
66503W        W38796   3.362  22.712  14.493
66504W        W38797  17.732   5.902   3.220
66505W        W38798  42.841  31.958  13.427
66506W        W38799  36.075  37.968   5.093
66507W        W38800  43.955  32.952   1.308
66508W        W38801  40.499   8.681  12.417
66509W        W38802   1.950  10.360   1.263
66510W        W38803  36.479  30.118  11.560
66511W        W38804  41.905  24.102   0.293
66512W        W38805  24.142   0.760  11.027
66513W        W38806  33.591   8.390   1.355
66514W        W38807   6.871  36.453   0.277
66515W        W38808  23.688  40.874  11.402
66516W        W38809  15.300   1.910   0.352
66517W        W38810  23.049   8.273   1.892
66518W        W38811  14.202   9.765  14.481
66519W        W38812  39.912  19.108   1.212
66520W        W38813  37.582  15.177   3.301
66521W        W38814   6.875   2.844   2.403
66522W        W38815   3.266   6.910   3.252
66523W        W38816  36.920  28.500  12.574
66524W        W38817   7.791  29.451  14.298
66525W        W38818  34.527  33.088   1.753
66526W        W38819  19.722  14.713   0.398
66527W        W38820  10.828   3.427   5.276
66528W        W38821  36.949  35.534  14.023
66529W        W38822   0.358  32.122   2.377
66530W        W38823   3.882  20.713   4.818
66531W        W38824  24.615  15.823  13.444
66532W        W38825  14.695  22.559   1.773
66533W        W38826  42.923  29.114   2.780
66534W        W38827  18.199   1.291  13.038
66535W        W38828  21.634   0.336   3.348
66536W        W38829  31.023  15.318   4.326
66537W        W38830  30.449  42.352   0.452
66538W        W38831   5.387   8.360  12.580
66539W        W38832  34.538   1.451   4.831
66540W        W38833   8.166   8.178  12.522
66541W        W38834   5.289   5.876  10.431
66542W        W38835  11.309  35.935  11.045
66543W        W38836  36.988  43.316  10.891
66544W        W38837  14.654  25.491   2.333
66545W        W38838  43.387  13.810   3.721
66546W        W38839  29.622  10.808   3.387
66547W        W38840  12.759  29.930  11.398
66548W        W38841  14.327   1.929   3.162
66549W        W38842   2.294  40.996   4.301
66550W        W38843  19.732  22.668   4.165
66551W        W38844  36.366  33.892   1.298
66552W        W38845  34.585   8.291  11.528
66553W        W38846  18.634  18.157  11.125
66554W        W38847  34.968   1.422   0.863
66555W        W38848  32.008  43.990   0.843
66556W        W38849   4.361   5.362   1.388
66557W        W38850  44.770   7.261   0.313
66558W        W38851  40.406  16.313   0.908
66559W        W38852  44.411  27.007   3.860
66560W        W38853  17.133  38.828  13.825
66561W        W38854  29.995  23.691   4.803
66562W        W38855  28.593  15.622  14.820
66563W        W38856  20.541  30.121  13.995
66564W        W38857  29.578  42.846  10.422
66565W        W38858  27.973  28.480  14.325
66566W        W38859  27.007  21.753  10.464
66567W        W38860  20.754  15.652  11.005
66568W        W38861  11.341  18.739   4.150
66569W        W38862  30.124  26.160  14.494
66570W        W38863  13.843  42.939   4.729
66571W        W38864   6.704  18.275  13.434
66572W        W38865  25.092  12.834   2.216
66573W        W38866   7.694  42.911   2.885
66574W        W38867  10.323  22.702  13.036
66575W        W38868  28.529  19.683   3.851
66576W        W38869  17.574  17.095  13.530
66577W        W38870   8.316  12.668   2.687
66578W        W38871   2.434  17.555  11.984
66579W        W38872  31.641   8.893  12.455
66580W        W38873  43.928   2.790   3.164
66581W        W38874  30.605  37.505   2.683
66582W        W38875  32.055  30.141   3.793
66583W        W38876  44.441  16.239  11.121
66584W        W38877  24.679   3.729   3.332
66585W        W38878   3.450   9.197  11.960
66586W        W38879  42.946  44.874  13.910
66587W        W38880  12.361  27.544   1.748
66588W        W38881  19.756  22.148  13.518
66589W        W38882   5.370   0.881  14.377
66590W        W38883  22.100  25.101  11.951
66591W        W38884  14.101  40.510  11.588
66592W        W38885  16.225  32.486  14.885
66593W        W38886   7.389  38.467   1.384
66594W        W38887  19.692  35.865   2.408
66595W        W38888  11.307  35.998  11.895
66596W        W38889  23.619  34.902   4.330
66597W        W38890  38.482  34.549  12.553
66598W        W38891  23.684  16.691  10.449
66599W        W38892  40.938  38.060   2.287
66600W        W38893  31.431  40.833   3.865
66601W        W38894  36.866  30.096   1.846
66602W        W38895  37.343   5.695  14.379
66603W        W38896  42.335  23.500   2.695
66604W        W38897  10.205  10.246  10.943
66605W        W38898  42.819  40.810  12.549
66606W        W38899  21.042   4.759  12.350
66607W        W38900   6.271  31.437   4.789
66608W        W38901  18.771  11.688  10.117
66609W        W38902   3.747  40.033  14.901
66610W        W38903  28.097  39.531  10.619
66611W        W38904  38.556  13.647  11.590
66612W        W38905  38.551   3.319  12.003
66613W        W38906  41.030  28.112  14.986
66614W        W38907  35.052  42.295   2.780
66615W        W38908  18.667  39.829   2.229
66616W        W38909  39.350  36.568   1.217
66617W        W38910  35.047  42.904   4.821
66618W        W38911  19.578  35.447   0.849
66619W        W38912  43.311  42.927  11.466
66620W        W38913  12.361  27.193  12.940
66621W        W38914  39.432  18.213   0.481
66622W        W38915   7.871  20.051  11.406
66623W        W38916   9.853  33.557  11.409
66624W        W38917   3.286  41.906   4.676
66625W        W38918   1.442  37.906  14.376
66626W        W38919   9.207  14.633   1.797
66627W        W38920  43.903  34.888  14.355
66628W        W38921   8.202  43.315  11.927
66629W        W38922  30.130  21.547  12.066
66630W        W38923  18.579  33.465  10.523
66631W        W38924  20.538  34.905   0.390
66632W        W38925  10.314  25.107   5.281
66633W        W38926  22.709  26.562   4.311
66634W        W38927  31.468   2.353   1.721
66635W        W38928   6.913  37.491   2.807
66636W        W38929  35.366  16.615   4.777
66637W        W38930  27.099   7.228   0.733
66638W        W38931  43.344  34.450  13.434
66639W        W38932  18.076  36.522   4.298
66640W        W38933  32.095  23.641   1.783
66641W        W38934   8.852  17.280   1.366
66642W        W38935  27.090  29.488  12.932
66643W        W38936  29.442  40.890   4.126
66644W        W38937  14.772  24.981   0.371
66645W        W38938  29.432  21.035   5.182
66646W        W38939  39.466   9.241   0.913
66647W        W38940  41.860   0.832  13.493
66648W        W38941   5.690  30.101   0.423
66649W        W38942  36.854  37.934   2.890
66650W        W38943  14.164  36.898  11.422
66651W        W38944  18.238  13.201   3.817
66652W        W38945  15.311  37.066  13.917
66653W        W38946   7.173  32.489  14.374
66654W        W38947   8.735  28.522   2.367
66655W        W38948  15.143  12.796   4.671
66656W        W38949  31.111  43.004  13.953
66657W        W38950  28.636  18.648  14.412
66658W        W38951  26.489  29.634  14.974
66659W        W38952   6.709  11.289  13.032
66660W        W38953  29.069   4.735   0.371
66661W        W38954  23.180  33.039   3.671
66662W        W38955  43.021  18.133  14.971
66663W        W38956  15.686  29.657  13.018
66664W        W38957  13.109  13.813  10.425
66665W        W38958  19.047  10.656   3.236
66666W        W38959  19.169  19.547   4.211
66667W        W38960  22.669  36.878   4.746
66668W        W38961   4.338  12.655   1.338
66669W        W38962  36.865  36.552   3.183
66670W        W38963  32.453  34.989   4.682
66671W        W38964  29.056  17.672  14.334
66672W        W38965  25.683  17.717  13.396
66673W        W38966  39.392   2.925  12.950
66674W        W38967  42.374   2.288   0.838
66675W        W38968  38.993  38.554   4.614
66676W        W38969  22.636  11.833   2.367
66677W        W38970  36.048  37.376  13.495
66678W        W38971   5.839  39.365   4.832
66679W        W38972  25.150  44.894  12.870
66680W        W38973  18.196  28.554  14.496
66681W        W38974   8.237  19.157  14.514
66682W        W38975  38.966  29.953   3.647
66683W        W38976  42.979  35.421  13.062
66684W        W38977   3.891  24.553   4.684
66685W        W38978  40.336  26.460  13.339
66686W        W38979  33.008  24.146   0.360
66687W        W38980  19.185   3.292  12.446
66688W        W38981   9.278  20.627  13.511
66689W        W38982  42.373  36.575   3.171
66690W        W38983  29.559   4.273   2.400
66691W        W38984  12.353   9.839  14.442
66692W        W38985   1.295  43.964   4.288
66693W        W38986  28.642  27.986  13.437
66694W        W38987  25.066  21.729  12.508
66695W        W38988  22.526  39.370  12.855
66696W        W38989  22.718   4.708   1.404
66697W        W38990  30.956   9.253  12.449
66698W        W38991  13.159  14.133  12.926
66699W        W38992  27.640  32.924   1.731
66700W        W38993  28.641  16.312   1.378
66701W        W38994  39.477  21.166  12.345
66702W        W38995  24.171  11.163   2.390
66703W        W38996  19.627  19.651   2.351
66704W        W38997  31.113  41.403   1.216
66705W        W38998  36.400   7.230  11.101
66706W        W38999  27.169  38.494   2.309
66707W        W39000  33.534  22.549  12.966
66708W        W39001   4.337   1.395   0.328
66709W        W39002  28.668  28.518   3.333
66710W        W39003   3.272  43.911  13.474
66711W        W39004  24.104  43.969   3.302
66712W        W39005  29.669   3.942  10.477
66713W        W39006  15.799  19.666  10.420
66714W        W39007  28.563  14.311   2.876
66715W        W39008  34.402  14.603   0.904
66716W        W39009  38.858  32.909   3.214
66717W        W39010   0.311  11.147   1.842
66718W        W39011  16.170   4.714  13.398
66719W        W39012  10.713  39.812  11.054
66720W        W39013   7.795  32.586   4.740
66721W        W39014  23.205  16.781   2.223
66722W        W39015  14.749  25.980  12.957
66723W        W39016   5.874  43.401  14.873
66724W        W39017  37.547  20.740   2.716
66725W        W39018   8.868  21.612  10.412
66726W        W39019   3.726  40.990   4.349
66727W        W39020  40.473  14.338   1.905
66728W        W39021  31.497  43.785   0.388
66729W        W39022  42.314  36.541   3.752
66730W        W39023  25.129   5.927  11.959
66731W        W39024   4.284  16.190   2.864
66732W        W39025  13.830   5.879   2.825
66733W        W39026  12.307   6.801   4.632
66734W        W39027  11.625  20.744   0.431
66735W        W39028  25.017  23.227  14.503
66736W        W39029   2.466   7.395  11.565
66737W        W39030  27.052  32.553   3.694
66738W        W39031   7.701  42.304   0.744
66739W        W39032   6.293  25.001  11.458
66740W        W39033  38.555  16.274   1.771
66741W        W39034  26.066  11.729   4.279
66742W        W39035   3.896  36.444   4.143
66743W        W39036   5.297  27.158   3.784
66744W        W39037  12.639   5.379  12.412
66745W        W39038  23.223  41.512  13.872
66746W        W39039  20.665  32.582  10.102
66747W        W39040  37.843  28.159  13.817
66748W        W39041  25.710  44.294  14.424
66749W        W39042  36.402  20.207  10.603
66750W        W39043  17.138  44.866  11.944
66751W        W39044  20.569  30.640   2.758
66752W        W39045  29.533  30.945  13.022
66753W        W39046  37.988   4.940   3.345
66754W        W39047  41.833  18.612   3.680
66755W        W39048   8.884  12.697  10.609
66756W        W39049  30.551  20.159   0.406
66757W        W39050  36.904  30.622  14.340
66758W        W39051  39.810   3.263   1.866
66759W        W39052   1.300  19.132  14.366
66760W        W39053   6.860  11.847  11.857
66761W        W39054  13.221  33.507   4.173
66762W        W39055  31.462  37.493  12.996
66763W        W39056   4.831  37.003   0.423
66764W        W39057  41.509   2.392  11.406
66765W        W39058  29.955  27.041   0.780
66766W        W39059  15.708  38.459   1.783
66767W        W39060  41.922  28.131   9.973
66768W        W39061  15.695  22.030   4.312
66769W        W39062  29.550  14.626  14.030
66770W        W39063  19.278  19.542   2.688
66771W        W39064  10.799  35.058   3.310
66772W        W39065  10.657  18.615   4.242
66773W        W39066   6.808  22.553   1.862
66774W        W39067  38.433  31.465   1.345
66775W        W39068   2.379  35.031  11.958
66776W        W39069  20.093  26.060   1.446
66777W        W39070  26.131  36.019  10.562
66778W        W39071  19.741  28.676  14.873
66779W        W39072  30.534   2.820   1.439
66780W        W39073  17.725  25.176   2.367
66781W        W39074  44.448  26.983  12.044
66782W        W39075  31.586  11.641  12.463
66783W        W39076  28.511  37.513   0.422
66784W        W39077   6.776  11.331  11.038
66785W        W39078  11.708  24.011   3.645
66786W        W39079  44.780  25.108  11.443
66787W        W39080  14.725  17.659   3.717
66788W        W39081  42.966   0.838  13.526
66789W        W39082  26.699   1.958   4.354
66790W        W39083  37.567  14.113   2.291
66791W        W39084   0.364   5.278   0.320
66792W        W39085  36.050  28.681  13.905
66793W        W39086  42.319  39.411  13.028
66794W        W39087  32.530  11.668  10.410
66795W        W39088  18.164  19.685  13.820
66796W        W39089   4.303   9.325   0.903
66797W        W39090  39.502  17.568  12.444
66798W        W39091  14.323  10.308  11.398
66799W        W39092  41.470  32.418   1.927
66800W        W39093   3.319  36.993   4.661
66801W        W39094   5.264  29.994   2.279
66802W        W39095  28.117  21.068  13.983
66803W        W39096  24.159  34.905   0.459
66804W        W39097   9.374   1.277   4.774
66805W        W39098   5.865  25.710   2.385
66806W        W39099  30.089  26.123   1.764
66807W        W39100  22.719  38.486  10.609
66808W        W39101   3.329  28.660  11.938
66809W        W39102   7.301   5.888  10.618
66810W        W39103   4.278  35.010   4.702
66811W        W39104  40.533  18.211   0.464
66812W        W39105  42.906  32.601  14.432
66813W        W39106   3.725  40.348   0.441
66814W        W39107  29.569  25.096  13.360
66815W        W39108   6.344  34.059  13.961
66816W        W39109  23.116  18.601  14.967
66817W        W39110   9.183   3.350   4.668
66818W        W39111   4.440  17.258  11.122
66819W        W39112   6.249  27.993  12.402
66820W        W39113  39.494  40.363   2.287
66821W        W39114   8.825  19.238  10.571
66822W        W39115  38.493  22.144   3.253
66823W        W39116   7.730  42.856  13.978
66824W        W39117   4.372  35.433  11.037
66825W        W39118  20.103  13.267   4.805
66826W        W39119  11.682  36.470  10.991
66827W        W39120  31.065  15.676   3.802
66828W        W39121  27.064  11.186   3.856
66829W        W39122   8.176  40.872  14.280
66830W        W39123   6.370  16.775  11.942
66831W        W39124  19.143   7.405  11.882
66832W        W39125  27.177   3.357  14.915
66833W        W39126  35.472  41.821   4.798
66834W        W39127  42.860  29.473  14.346
66835W        W39128   1.906   7.410   1.326
66836W        W39129  16.702  14.685  11.448
66837W        W39130   1.363  18.691  10.536
66838W        W39131  10.229  33.586   2.190
66839W        W39132  26.953  30.656  13.516
66840W        W39133  34.870  25.974  11.030
66841W        W39134  19.043  23.188   1.435
66842W        W39135   2.778  23.110  12.472
66843W        W39136   0.871   0.958  13.493
66844W        W39137  13.639  28.074   4.132
66845W        W39138  22.068   8.883   2.794
66846W        W39139  35.936  11.790  11.055
66847W        W39140   6.720  20.105   2.256
66848W        W39141  11.802  32.966  12.556
66849W        W39142   7.810  28.568  13.834
66850W        W39143  41.516  44.964  13.482
66851W        W39144  29.017  12.693  13.816
66852W        W39145   6.387   1.826   0.281
66853W        W39146  39.506   3.951   4.150
66854W        W39147  13.200  32.472   4.695
66855W        W39148  12.776  23.602   2.730
66856W        W39149  11.732   7.283  14.309
66857W        W39150  13.266  15.138  12.482
66858W        W39151  42.373  32.058  13.470
66859W        W39152   1.336  17.239   1.830
66860W        W39153  29.926  37.031   4.775
66861W        W39154   3.908  39.384  12.515
66862W        W39155   5.377  12.341   2.756
66863W        W39156  21.177  23.602   3.669
66864W        W39157  32.430  35.920  11.559
66865W        W39158  32.392  18.616   4.784
66866W        W39159  41.794   6.259  14.857
66867W        W39160  40.396   0.935   0.835
66868W        W39161  44.391  23.721  10.416
66869W        W39162  21.744  30.020  12.418
66870W        W39163  42.849  36.422  10.015
66871W        W39164   8.725  21.125   1.707
66872W        W39165  32.548  16.159   3.292
66873W        W39166  40.439   4.817  12.850
66874W        W39167   3.292   6.333   0.329
66875W        W39168  17.063  19.248  12.366
66876W        W39169  20.068  33.063   1.782
66877W        W39170  43.333  39.927   2.830
66878W        W39171  10.293  43.293  14.973
66879W        W39172   7.173   5.926   4.696
66880W        W39173   2.243  23.125  13.060
66881W        W39174  14.291   2.314   2.358
66882W        W39175   9.338  12.155   4.331
66883W        W39176  26.028  41.510  11.099
66884W        W39177  32.044   2.306   1.800
66885W        W39178   7.218  10.299  10.905
66886W        W39179   4.301  20.096  12.393
66887W        W39180  18.648  32.587  14.926
66888W        W39181   4.426  34.937  11.460
66889W        W39182  13.229  34.875   3.376
66890W        W39183  34.917   8.880  10.632
66891W        W39184  10.203   7.695   1.727
66892W        W39185  16.617   5.728  13.855
66893W        W39186  13.652  40.537   0.759
66894W        W39187  39.424  22.540  12.988
66895W        W39188  19.080  36.988  10.594
66896W        W39189  41.464   1.348  12.834
66897W        W39190  40.812  11.231  10.575
66898W        W39191   6.352  12.622   2.718
66899W        W39192   0.781   1.772   0.261
66900W        W39193  16.137  20.173   3.685
66901W        W39194  20.033  25.041  13.050
66902W        W39195  43.831   0.439   5.636
66903W        W39196  36.585   3.915  11.582
66904W        W39197  22.520  30.908   3.383
66905W        W39198  38.952  15.721   2.835
66906W        W39199  28.616  37.993   4.167
66907W        W39200  37.382  21.680   2.812
66908W        W39201  38.428  31.589   2.315
66909W        W39202  17.589  32.631  14.436
66910W        W39203  32.598  17.771   0.773
66911W        W39204  14.247  13.600   0.407
66912W        W39205  26.103  41.339   3.259
66913W        W39206  31.606  26.028   3.742
66914W        W39207  17.158  13.734  10.418
66915W        W39208  36.952  27.496  14.409
66916W        W39209  42.968  18.104   2.419
66917W        W39210  10.734  38.357   3.782
66918W        W39211  26.641  41.962  13.428
66919W        W39212   2.427  38.399  12.502
66920W        W39213  43.965  24.570  14.930
66921W        W39214  42.310  42.452   2.817
66922W        W39215  10.792  21.535  12.021
66923W        W39216  11.302  10.314  13.046
66924W        W39217  11.753  17.265   1.444
66925W        W39218  38.920   3.217   4.207
66926W        W39219   9.387  22.126   4.137
66927W        W39220   9.195  41.966   2.411
66928W        W39221  20.689  35.052   4.597
66929W        W39222  43.301  15.156  12.968
66930W        W39223   8.185  20.565   3.698
66931W        W39224  17.720   4.763  10.434
66932W        W39225  15.254   2.375  10.020
66933W        W39226  41.380  21.531   0.835
66934W        W39227  18.102  23.140  13.046
66935W        W39228  32.133   2.309   0.799
66936W        W39229  44.764   3.713  12.930
66937W        W39230  14.692  22.572  12.471
66938W        W39231  23.226  33.932  14.413
66939W        W39232  18.084  29.930  10.985
66940W        W39233  27.094   8.355   1.320
66941W        W39234   9.286  39.453   4.834
66942W        W39235   5.210  30.632  11.895
66943W        W39236  15.616  43.413   0.295
66944W        W39237   6.381  33.909  10.532
66945W        W39238   8.235  20.602   0.438
66946W        W39239  40.517  18.178  14.846
66947W        W39240  43.457  38.501   0.255
66948W        W39241  43.969  13.322   4.769
66949W        W39242  20.180  40.425   0.386
66950W        W39243   1.241   3.790   4.828
66951W        W39244   9.197  42.293   2.772
66952W        W39245   9.346  19.735   5.262
66953W        W39246   4.341  34.073  14.900
66954W        W39247  40.330  44.951  14.984
66955W        W39248  41.962  14.659  10.404
66956W        W39249   7.278  43.383  14.859
66957W        W39250  22.111   5.931   2.838
66958W        W39251  10.310  42.888  10.125
66959W        W39252  30.594  39.852  13.337
66960W        W39253  44.986  11.646   1.290
66961W        W39254  39.964  12.186   1.292
66962W        W39255  36.984  36.033  13.478
66963W        W39256  44.290  11.833  11.596
66964W        W39257  39.051  36.576  13.809
66965W        W39258   1.934  28.606  14.824
66966W        W39259  21.538   8.884  13.307
66967W        W39260  21.547   5.713  10.609
66968W        W39261  36.902  33.498   1.823
66969W        W39262  28.079  13.340   2.804
66970W        W39263  44.344   4.820  12.909
66971W        W39264  32.127   9.653  14.761
66972W        W39265  28.153  19.158   0.775
66973W        W39266   0.918  41.437  13.966
66974W        W39267  38.516   5.756  13.923
66975W        W39268  21.084  44.764   1.450
66976W        W39269   9.786  28.498   3.310
66977W        W39270  25.669  20.522  13.445
66978W        W39271   3.876   8.821   2.701
66979W        W39272   8.715   5.307  12.529
66980W        W39273   9.681  15.315   3.362
66981W        W39274   1.348   5.395  12.056
66982W        W39275  20.245  23.238   5.646
66983W        W39276  40.047   2.240   2.350
66984W        W39277  10.861  34.889  14.363
66985W        W39278  28.532  27.061  13.833
66986W        W39279  15.746  37.974  14.419
66987W        W39280  40.994  17.085   1.446
66988W        W39281  10.664   6.294  10.461
66989W        W39282  39.937  35.421  12.402
66990W        W39283  28.531  36.887   2.804
66991W        W39284  22.669  38.043  11.025
66992W        W39285   0.879  25.504   3.199
66993W        W39286  10.713  36.485   3.213
66994W        W39287   3.737  16.680   3.324
66995W        W39288  26.532  25.096   0.344
66996W        W39289  28.132   6.702   3.249
66997W        W39290   3.461  12.199  13.961
66998W        W39291  26.963   2.917  11.080
66999W        W39292  25.617  22.102   2.224
67000W        W39293  42.490   4.930  14.329
67001W        W39294   0.845   9.339   0.281
67002W        W39295  37.484  40.810  13.023
67003W        W39296  31.446  11.815   4.258
67004W        W39297  37.368  38.381  13.976
67005W        W39298  29.038   7.258   1.445
67006W        W39299  13.234  14.785  10.509
67007W        W39300  39.975  10.827   3.665
67008W        W39301   9.842  36.072   0.455
67009W        W39302  44.784   7.867   0.443
67010W        W39303  26.088   1.372   4.212
67011W        W39304   8.740  30.033  12.957
67012W        W39305  39.542  15.106  11.885
67013W        W39306  40.990  32.034  10.538
67014W        W39307  29.030  38.047   0.796
67015W        W39308   4.940  20.152   0.478
67016W        W39309  15.711  35.982  13.906
67017W        W39310   8.654  12.720   2.323
67018W        W39311  28.101  36.437   3.790
67019W        W39312  30.631   6.895  12.445
67020W        W39313  28.459  25.704   1.421
67021W        W39314  26.600  24.534   4.296
67022W        W39315   9.161  41.027  10.408
67023W        W39316  24.116   4.346  10.136
67024W        W39317  12.228  43.844   4.685
67025W        W39318  38.566   6.324   0.316
67026W        W39319  24.115  37.423  10.461
67027W        W39320   1.788  32.542  10.978
67028W        W39321  33.101   7.196   3.353
67029W        W39322   8.203  19.178   1.867
67030W        W39323  12.703  40.880  13.502
67031W        W39324  10.157  18.276  14.419
67032W        W39325  36.461  19.677  14.509
67033W        W39326   3.835  25.540   4.271
67034W        W39327   4.335   9.874   4.752
67035W        W39328  22.100  19.714  12.940
67036W        W39329  23.240   4.303   9.514
67037W        W39330  19.581  10.241   0.383
67038W        W39331   8.665  22.511   4.788
67039W        W39332   8.654  36.067  10.587
67040W        W39333  36.440  21.569   0.805
67041W        W39334  24.686   8.344   4.232
67042W        W39335  33.988  41.977  11.904
67043W        W39336  31.587  16.770   4.202
67044W        W39337   6.812  31.113   4.718
67045W        W39338  33.034   6.769  10.547
67046W        W39339  20.168  18.687  13.504
67047W        W39340  14.266  38.069  10.535
67048W        W39341  14.205  42.912  11.861
67049W        W39342  40.397  25.569  10.449
67050W        W39343  40.384  43.885   3.329
67051W        W39344  17.075  38.015  13.463
67052W        W39345  39.383   4.449  11.107
67053W        W39346  38.387  15.328  10.931
67054W        W39347   2.338  22.548  11.459
67055W        W39348  26.638   9.792  12.020
67056W        W39349   7.254  36.935   9.966
67057W        W39350   0.406  30.077  13.906
67058W        W39351  21.174  20.186  12.905
67059W        W39352   9.172  35.581   0.404
67060W        W39353   9.350  23.583   4.235
67061W        W39354  35.539  15.272  14.398
67062W        W39355  33.445  33.073   4.783
67063W        W39356  20.102  11.646   1.881
67064W        W39357   1.355   8.187  14.330
67065W        W39358  32.520   7.826   0.735
67066W        W39359  41.300  26.681  13.880
67067W        W39360  21.081  43.992   4.229
67068W        W39361  32.536  19.609  12.835
67069W        W39362  21.258   3.375  12.387
67070W        W39363  13.217  15.126  14.898
67071W        W39364   6.366   2.803  11.603
67072W        W39365  43.374   2.847  12.548
67073W        W39366   9.339  29.005   1.293
67074W        W39367  29.100  32.051   4.140
67075W        W39368  41.031  32.571   0.268
67076W        W39369  10.825  34.986   4.657
67077W        W39370   0.298  14.129  14.944
67078W        W39371   4.252  22.706  11.492
67079W        W39372  31.468  14.624  14.912
67080W        W39373  37.951  21.120   4.158
67081W        W39374   9.864  42.409   2.360
67082W        W39375  19.198   7.212   4.343
67083W        W39376  20.557   5.437  13.904
67084W        W39377  10.864  40.322   0.354
67085W        W39378  17.678   1.242   1.910
67086W        W39379   6.197  24.724  11.564
67087W        W39380  28.608  31.516  13.318
67088W        W39381  31.047  36.964  11.018
67089W        W39382  27.679  12.272   2.280
67090W        W39383  35.383  13.619   1.332
67091W        W39384   9.720  36.584   5.189
67092W        W39385  29.658  35.521   1.773
67093W        W39386  10.143  13.203   1.859
67094W        W39387  14.696   2.392   0.911
67095W        W39388  15.585  38.074   2.289
67096W        W39389  27.107  19.242  13.918
67097W        W39390  18.723   5.822   1.717
67098W        W39391  32.630  22.544   2.814
67099W        W39392  37.455  16.800   2.859
67100W        W39393  41.307  43.021  14.425
67101W        W39394  14.151  34.537  13.322
67102W        W39395  28.467  44.833   2.721
67103W        W39396  28.658  26.681  11.436
67104W        W39397  41.010   0.467   1.755
67105W        W39398  26.991  33.002   2.268
67106W        W39399  44.484   5.311  10.075
67107W        W39400  37.842  29.100   1.870
67108W        W39401  26.956   0.819  13.869
67109W        W39402  19.588  31.899  12.864
67110W        W39403  28.025  23.094   5.164
67111W        W39404  27.015   6.909   1.813
67112W        W39405  35.870  25.030   2.243
67113W        W39406  42.842  34.109  10.998
67114W        W39407  13.734   9.161   3.159
67115W        W39408  20.032  44.984  14.516
67116W        W39409  30.642   2.381   1.821
67117W        W39410   3.771  41.483  10.456
67118W        W39411  14.649  12.735  12.030
67119W        W39412   8.867  33.493   0.444
67120W        W39413   7.897  15.316  12.020
67121W        W39414  33.978  32.935   1.702
67122W        W39415  17.696   6.250  13.352
67123W        W39416  10.855   6.281  13.315
67124W        W39417  39.533  15.141   3.362
67125W        W39418  37.562   6.329  11.992
67126W        W39419   7.285  14.196  10.940
67127W        W39420  20.761  29.036   2.664
67128W        W39421   1.877   3.802   1.333
67129W        W39422  43.337   6.844   0.382
67130W        W39423  34.930  43.974   1.752
67131W        W39424   0.484   4.230   3.825
67132W        W39425  36.957  31.460   0.482
67133W        W39426   3.846  31.428   3.661
67134W        W39427  19.631  21.237   0.312
67135W        W39428   4.388  15.324  13.499
67136W        W39429  22.735   7.341  11.891
67137W        W39430  20.120  18.709   3.708
67138W        W39431   3.843  38.451   2.681
67139W        W39432  18.242  23.685   0.798
67140W        W39433   9.747   4.707   2.337
67141W        W39434  25.075  36.503  12.347
67142W        W39435   3.371  42.787   0.764
67143W        W39436   6.715   9.216  13.047
67144W        W39437  44.321   7.333  14.785
67145W        W39438  31.022  29.436  13.417
67146W        W39439  28.568  23.121   3.257
67147W        W39440  25.044   0.943  13.404
67148W        W39441  28.147  13.118  14.511
67149W        W39442   7.751  33.448  14.996
67150W        W39443  22.535  42.031  14.909
67151W        W39444  27.197  41.429   5.138
67152W        W39445   6.707  22.737   2.269
67153W        W39446  40.912  13.760   4.652
67154W        W39447   6.735   2.309  11.904
67155W        W39448  17.598  19.633   2.365
67156W        W39449  37.395  39.872  12.580
67157W        W39450   8.329  33.538  12.046
67158W        W39451   7.198  19.097   0.246
67159W        W39452  39.022  10.825  10.506
67160W        W39453  38.367   4.842  13.909
67161W        W39454  22.684  22.226   3.307
67162W        W39455  23.653  29.084  12.020
67163W        W39456  31.544  32.061  13.432
67164W        W39457  14.098  28.467   2.881
67165W        W39458  10.179  31.019   2.764
67166W        W39459  20.692   7.215  13.833
67167W        W39460  15.802   7.370   3.285
67168W        W39461  13.236   4.418  10.941
67169W        W39462  23.702  27.680   0.894
67170W        W39463  14.259  38.073  14.988
67171W        W39464  10.335  39.319   2.694
67172W        W39465  40.012  21.579  11.890
67173W        W39466   3.814  43.879   4.736
67174W        W39467   8.848  37.948  14.994
67175W        W39468  25.010   4.305   0.923
67176W        W39469  13.818  10.696   4.267
67177W        W39470  24.485   4.395   1.281
67178W        W39471   8.827  11.330   3.182
67179W        W39472  17.713  29.005  12.844
67180W        W39473   5.880   3.802  11.522
67181W        W39474   7.886  23.066   1.813
67182W        W39475   6.817  34.538  14.911
67183W        W39476  17.194  39.341   0.743
67184W        W39477  27.189  35.926   2.381
67185W        W39478  18.206  14.129   3.168
67186W        W39479  31.098  13.668   4.756
67187W        W39480   1.312  31.566   4.756
67188W        W39481  35.477   3.729  11.968
67189W        W39482  42.844  20.617   2.249
67190W        W39483   0.359  24.584   3.182
67191W        W39484  36.892  13.620  14.009
67192W        W39485   3.857  41.335  11.556
67193W        W39486  43.464  14.798   4.766
67194W        W39487  18.099   4.770  11.411
67195W        W39488   8.236   4.767  12.423
67196W        W39489  32.033   2.731   1.337
67197W        W39490  16.274  16.122  13.030
67198W        W39491  22.673   4.423  14.340
67199W        W39492  43.503  41.433   5.096
67200W        W39493  36.441  28.608  13.792
67201W        W39494  25.113  16.711   2.293
67202W        W39495  14.823  17.250  12.401
67203W        W39496  22.188  39.388  11.970
67204W        W39497  27.946  36.487   2.771
67205W        W39498  36.849  15.186  11.536
67206W        W39499  44.912  30.134  11.074
67207W        W39500  42.345  28.979   1.801
67208W        W39501  27.600  24.562   5.232
67209W        W39502  12.810  40.307   0.467
67210W        W39503   3.324  18.211  13.981
67211W        W39504  25.474  38.509  13.353
67212W        W39505  35.030   3.266   0.336
67213W        W39506  39.936  40.463   3.187
67214W        W39507  30.557  11.661   0.368
67215W        W39508   3.847  39.024  14.349
67216W        W39509  35.975  21.550  14.781
67217W        W39510  25.014  26.548   2.188
67218W        W39511   4.401   3.790  13.362
67219W        W39512   2.308  32.519   4.173
67220W        W39513  36.868  36.510   2.222
67221W        W39514   4.825  34.436   4.755
67222W        W39515  35.084  44.329   2.684
67223W        W39516   7.314  19.131   1.717
67224W        W39517  33.913  25.055   4.694
67225W        W39518   3.831  30.552   0.899
67226W        W39519   8.719  14.667  11.017
67227W        W39520  21.241  37.048   2.824
67228W        W39521  27.043   5.289   0.756
67229W        W39522  23.026   2.925   4.309
67230W        W39523   4.757  29.146   0.439
67231W        W39524   8.247  17.174  11.375
67232W        W39525  18.163  26.698   5.273
67233W        W39526  19.628   3.931   3.662
67234W        W39527   0.915  37.472   4.314
67235W        W39528  37.037  37.086   1.417
67236W        W39529  30.633  33.115   4.683
67237W        W39530  26.477  44.001  14.410
67238W        W39531   1.861  44.953  12.938
67239W        W39532  42.327  24.155   2.692
67240W        W39533  37.930  40.898   0.313
67241W        W39534  12.127   0.835   4.682
67242W        W39535  16.795  19.599  10.606
67243W        W39536  40.926   5.891   4.632
67244W        W39537  28.524  20.038   2.730
67245W        W39538  37.949   9.850   1.449
67246W        W39539  44.885  26.975   0.406
67247W        W39540  26.996  36.582  14.393
67248W        W39541  36.097  14.249   2.711
67249W        W39542  18.101  42.527  12.885
67250W        W39543  29.516   1.413   2.716
67251W        W39544  15.586   1.797   4.240
67252W        W39545  26.490  20.560   1.914
67253W        W39546  13.744  20.652  11.985
67254W        W39547  24.119  25.544  12.516
67255W        W39548   9.701  16.278  13.415
67256W        W39549  42.809   3.344   0.907
67257W        W39550  16.173  25.182   5.304
67258W        W39551  24.608  20.200   3.241
67259W        W39552   0.770   6.290  11.061
67260W        W39553  36.084  19.704  14.802
67261W        W39554  14.246  42.901   5.100
67262W        W39555  41.296  44.411   0.334
67263W        W39556   3.331  26.178  14.326
67264W        W39557   0.980  18.150  11.465
67265W        W39558  43.905  31.134   4.153
67266W        W39559  38.837  20.749  14.903
67267W        W39560  21.066   4.740  10.982
67268W        W39561   7.691  28.980   3.279
67269W        W39562  43.823   4.238  11.608
67270W        W39563  20.668  15.100  12.075
67271W        W39564  17.224  22.109   4.661
67272W        W39565   3.344  10.786  13.357
67273W        W39566  44.400  43.783  11.375
67274W        W39567  41.881  42.525  12.915
67275W        W39568  41.352  16.149   0.472
67276W        W39569   1.942  40.532  12.898
67277W        W39570  17.259  16.713  14.427
67278W        W39571  13.721  26.617  14.871
67279W        W39572  44.903  28.051  10.641
67280W        W39573  14.280  19.591  11.057
67281W        W39574  44.895  23.017  12.089
67282W        W39575  12.729  21.627  13.870
67283W        W39576  16.227   2.808  14.429
67284W        W39577   8.304   2.310   4.836
67285W        W39578  22.119   7.332  13.931
67286W        W39579  25.179  23.580  11.516
67287W        W39580  37.420  44.972  11.567
67288W        W39581  13.633  31.005   3.363
67289W        W39582  15.819  35.474  11.562
67290W        W39583  25.690   9.651   3.257
67291W        W39584  23.670  30.567  13.418
67292W        W39585  34.011  32.460  14.449
67293W        W39586  17.213  24.072   0.873
67294W        W39587  30.494  37.030  13.342
67295W        W39588   8.313  14.756  12.001
67296W        W39589   6.877  34.411  14.466
67297W        W39590  39.500  30.019   3.169
67298W        W39591  18.648  11.700   3.795
67299W        W39592  29.984  21.573  11.078
67300W        W39593   6.340  25.043   1.266
67301W        W39594   2.849  27.574  14.789
67302W        W39595  38.839  39.319  12.404
67303W        W39596  25.996  38.849  12.964
67304W        W39597  21.726   0.287   1.916
67305W        W39598  28.175  35.403  12.480
67306W        W39599   5.371  15.289  12.086
67307W        W39600  22.642   0.388   3.205
67308W        W39601  28.026  30.004   4.123
67309W        W39602  40.344  17.800   4.174
67310W        W39603  14.282  42.354   0.770
67311W        W39604  26.679   8.767  14.406
67312W        W39605  31.433  14.336  14.367
67313W        W39606  43.449  22.525  14.949
67314W        W39607  43.862  16.623  14.789
67315W        W39608   3.239  10.188   5.108
67316W        W39609   5.720  42.521   1.878
67317W        W39610  18.698  31.590   2.806
67318W        W39611  10.316   0.841  12.960
67319W        W39612  28.032  18.137  13.925
67320W        W39613  29.133  24.022  10.992
67321W        W39614  26.461  19.237  10.441
67322W        W39615  31.410  41.020  10.451
67323W        W39616  15.293  24.710   3.795
67324W        W39617  30.539  44.362   4.715
67325W        W39618  27.531  17.165  12.461
67326W        W39619  18.644  31.952   2.386
67327W        W39620  44.311  18.609  13.846
67328W        W39621  42.015   0.360  11.433
67329W        W39622  36.365  14.130  12.014
67330W        W39623  24.009   5.926   9.954
67331W        W39624   0.828   6.311  12.842
67332W        W39625  19.676  37.463   2.700
67333W        W39626   6.361  26.606   1.929
67334W        W39627  36.356   5.786  14.395
67335W        W39628   1.796  32.561   4.805
67336W        W39629  33.588  43.871  13.011
67337W        W39630  42.508  31.946  13.976
67338W        W39631  11.664  18.265   1.827
67339W        W39632  27.478  32.417   4.763
67340W        W39633   0.919  11.639   0.760
67341W        W39634  41.356   1.418  10.581
67342W        W39635  17.778  15.703  12.091
67343W        W39636  41.870  11.260  12.923
67344W        W39637  17.219  31.932   2.345
67345W        W39638  13.209  22.535  10.054
67346W        W39639   2.439  42.859  14.480
67347W        W39640   4.259  31.939  11.506
67348W        W39641  22.661  29.038  10.121
67349W        W39642  36.514  37.915   0.851
67350W        W39643  43.290  23.991  14.820
67351W        W39644  10.743   1.339   3.689
67352W        W39645   3.710   1.795   1.785
67353W        W39646  41.826  29.488   3.779
67354W        W39647  11.321  17.210   3.258
67355W        W39648  10.645   8.812  10.936
67356W        W39649  25.480  32.592  11.513
67357W        W39650  33.392  11.627   0.966
67358W        W39651  37.009  27.941   0.435
67359W        W39652   5.358  42.369  13.895
67360W        W39653   1.804  28.073   4.121
67361W        W39654  25.593  27.638   4.158
67362W        W39655  37.087   0.448   1.769
67363W        W39656   5.262  19.235  14.347
67364W        W39657   8.310   6.767  11.029
67365W        W39658  28.016   6.249   2.693
67366W        W39659   2.948  15.756   0.249
67367W        W39660  14.132   3.771  11.570
67368W        W39661  13.163  37.904   2.752
67369W        W39662  40.827  12.732   4.659
67370W        W39663  44.323  18.197  10.509
67371W        W39664  11.159   5.700   4.269
67372W        W39665   9.813  13.109   0.806
67373W        W39666  42.916  13.775   3.336
67374W        W39667   9.802   2.296   4.791
67375W        W39668  26.962  37.360  14.829
67376W        W39669   1.836  13.243   1.286
67377W        W39670  30.915   1.459   4.691
67378W        W39671  40.340  19.727   1.746
67379W        W39672  44.501  26.633   0.431
67380W        W39673   7.352   7.878   0.443
67381W        W39674  42.467  37.443   0.383
67382W        W39675  32.428  26.009  11.468
67383W        W39676  23.708  37.337   4.309
67384W        W39677  24.008  21.719  11.097
67385W        W39678  39.909  23.673  12.003
67386W        W39679   0.396  20.527  11.858
67387W        W39680   4.370  33.419  12.864
67388W        W39681   3.753  15.140  13.870
67389W        W39682  21.169  25.517  14.399
67390W        W39683  37.018  44.833   4.703
67391W        W39684  16.669   9.285  14.765
67392W        W39685  33.492   1.744  13.885
67393W        W39686  22.250   4.265  11.980
67394W        W39687  26.024  33.965  10.571
67395W        W39688  22.092  26.181   4.779
67396W        W39689   6.763   9.163   1.372
67397W        W39690  33.890  31.496  14.497
67398W        W39691  42.902  25.494  14.834
67399W        W39692  15.196   0.754  13.467
67400W        W39693  37.946  28.496  11.916
67401W        W39694  40.509  21.105   4.138
67402W        W39695  41.892  43.512   4.727
67403W        W39696  30.643   5.256  14.999
67404W        W39697   6.762  38.330   3.321
67405W        W39698  27.487  41.036  13.351
67406W        W39699  32.614  31.937  14.366
67407W        W39700  25.184   2.450  12.405
67408W        W39701  21.545  32.524   4.612
67409W        W39702  41.978  41.006   2.250
67410W        W39703  25.635  25.096  12.823
67411W        W39704  17.260  43.362  14.444
67412W        W39705  33.044  33.622   4.807
67413W        W39706  15.797  34.605   3.760
67414W        W39707   2.737  33.565  10.438
67415W        W39708  30.084  27.462  12.004
67416W        W39709  28.014   9.333   2.243
67417W        W39710  24.052  42.988  10.154
67418W        W39711  15.627  35.962   2.855
67419W        W39712  24.565  23.684  11.454
67420W        W39713  14.126  30.551   2.360
67421W        W39714  19.129  24.561   4.288
67422W        W39715  38.911  40.973   1.321
67423W        W39716   6.271  32.051  10.407
67424W        W39717  43.858  41.354   4.829
67425W        W39718   8.680  17.727  12.538
67426W        W39719  27.052   1.247  13.920
67427W        W39720  11.266  25.172   1.271
67428W        W39721  10.280   7.366   4.220
67429W        W39722   0.978  22.182  10.459
67430W        W39723  44.859  44.319  10.971
67431W        W39724  12.268  19.149   3.783
67432W        W39725  36.551  35.981  14.321
67433W        W39726  21.041  29.164   2.664
67434W        W39727  11.768  16.270  13.937
67435W        W39728   0.844   4.744  14.011
67436W        W39729  44.313  13.275  12.476
67437W        W39730  18.607  26.070  12.420
67438W        W39731   6.684   2.734  13.043
67439W        W39732  12.125  36.035   3.671
67440W        W39733   8.789  16.629   0.798
67441W        W39734  16.234   0.340   1.888
67442W        W39735   4.860  26.998  10.520
67443W        W39736  15.208  33.978  11.401
67444W        W39737  14.162   5.282   2.273
67445W        W39738  13.195  42.978   2.224
67446W        W39739  27.117  41.986   3.712
67447W        W39740  44.922  13.746   2.812
67448W        W39741  24.130  41.519  10.483
67449W        W39742  43.839   8.235  11.868
67450W        W39743  23.136  32.962   3.275
67451W        W39744  26.670  43.326   2.328
67452W        W39745  28.142  33.025  10.945
67453W        W39746  23.582  39.331  13.536
67454W        W39747   0.408  12.298   2.373
67455W        W39748   2.413  37.842  13.467
67456W        W39749  34.943  16.679  13.424
67457W        W39750  32.609  25.020  12.949
67458W        W39751  36.014  10.330   4.642
67459W        W39752  42.850  11.158  12.880
67460W        W39753  24.085  43.924   0.931
67461W        W39754  41.871   5.300  14.490
67462W        W39755  21.258  11.320   4.309
67463W        W39756  34.550  26.954   2.794
67464W        W39757  21.673   8.844  12.001
67465W        W39758  29.163  31.917  12.859
67466W        W39759  19.651  24.198  10.546
67467W        W39760  25.596  12.166  13.813
67468W        W39761  22.995  27.119   2.351
67469W        W39762   8.733   3.396  14.437
67470W        W39763  42.446  11.135  10.551
67471W        W39764  41.328  41.440   4.158
67472W        W39765  24.210  10.702  14.834
67473W        W39766   6.728  30.151   2.381
67474W        W39767  34.481   7.387   3.206
67475W        W39768  27.510   0.948  12.063
67476W        W39769  18.192  12.150  11.105
67477W        W39770  11.668  30.487  11.064
67478W        W39771  22.070  34.019   2.362
67479W        W39772  32.889  26.692   1.244
67480W        W39773  39.543  43.500  12.962
67481W        W39774   6.829  14.156   2.394
67482W        W39775  10.817  20.552  14.452
67483W        W39776  44.844  35.423   4.195
67484W        W39777  34.557  31.897  11.887
67485W        W39778  33.895  44.311  10.902
67486W        W39779  36.056  32.428   2.340
67487W        W39780   6.723  40.388   0.397
67488W        W39781  17.749   2.406   0.958
67489W        W39782  29.667   8.832  11.993
67490W        W39783  38.400  34.903   0.887
67491W        W39784  30.424   6.283   3.829
67492W        W39785  41.794  10.683   2.330
67493W        W39786  33.033  42.829  10.637
67494W        W39787   1.908  29.622   0.308
67495W        W39788   1.800   2.243   0.261
67496W        W39789  27.647  42.920  14.281
67497W        W39790  10.803  38.054   3.798
67498W        W39791  13.337  29.516  11.090
67499W        W39792  14.648  13.815  12.890
67500W        W39793   1.732  19.604  14.420
67501W        W39794   2.348  31.434  12.911
67502W        W39795   8.259   1.865  10.996
67503W        W39796  44.793  30.550   4.713
67504W        W39797  10.765  25.041   1.395
67505W        W39798  28.593  28.583  12.019
67506W        W39799  38.489  24.126  14.353
67507W        W39800  43.349  17.141  14.874
67508W        W39801  10.322   4.921   2.687
67509W        W39802  12.786  39.530  10.621
67510W        W39803  10.167  23.657  11.929
67511W        W39804  14.304  26.044  13.442
67512W        W39805  11.781  29.507  13.358
67513W        W39806  17.603  11.312  12.461
67514W        W39807  20.078  13.258   2.723
67515W        W39808  43.782   3.223   3.177
67516W        W39809  39.480   5.213   3.283
67517W        W39810  22.082  12.256   1.844
67518W        W39811  14.725  29.587   4.288
67519W        W39812  43.903   8.348   0.848
67520W        W39813  28.669   8.807   3.869
67521W        W39814   5.726  21.708  13.478
67522W        W39815   6.861  29.619  11.008
67523W        W39816  16.227  15.196   2.815
67524W        W39817  33.098  34.062   1.440
67525W        W39818  36.528  27.955   4.706
67526W        W39819  29.666  14.818   1.300
67527W        W39820  39.430  32.957   3.774
67528W        W39821  16.194  44.929   4.278
67529W        W39822  44.981  24.128  14.364
67530W        W39823  25.470   2.294   9.973
67531W        W39824  13.776  27.955  12.040
67532W        W39825  18.085  44.272   0.396
67533W        W39826   3.743  44.405  13.033
67534W        W39827   0.433  26.693   4.353
67535W        W39828  30.917   1.274  13.993
67536W        W39829  17.234  31.587   0.415
67537W        W39830  15.101  28.486   1.293
67538W        W39831  17.654   0.800   3.383
67539W        W39832   1.779  32.561  14.332
67540W        W39833  13.274  27.944   5.295
67541W        W39834  16.719  21.226   0.912
67542W        W39835  31.148  41.852  11.949
67543W        W39836  31.438  44.783  11.519
67544W        W39837   0.478  30.034  14.874
67545W        W39838  25.504  22.669  12.906
67546W        W39839  31.434   2.439   2.414
67547W        W39840  41.440  10.702  14.976
67548W        W39841  38.504  23.706  14.416
67549W        W39842  42.008  36.507   3.760
67550W        W39843  18.225   8.755   3.717
67551W        W39844  32.975  15.252  14.784
67552W        W39845   2.786  37.377  14.362
67553W        W39846   0.255  32.394  11.105
67554W        W39847  17.119  29.020   0.835
67555W        W39848  28.570  25.487  12.391
67556W        W39849  41.868  40.495   3.653
67557W        W39850  30.014  14.690   1.883
67558W        W39851  13.677  41.478  12.935
67559W        W39852  23.117  12.174   0.468
67560W        W39853   0.456   8.392  14.991
67561W        W39854  29.439  32.592  12.913
67562W        W39855  27.532   9.206  13.517
67563W        W39856  34.581  40.986  13.022
67564W        W39857  41.018  34.096  11.093
67565W        W39858  26.519  18.647  11.015
67566W        W39859  26.112  20.623  10.903
67567W        W39860  37.015  34.032   1.308
67568W        W39861  12.182  31.426  14.437
67569W        W39862  32.499  10.352  12.922
67570W        W39863  20.154   3.899   0.798
67571W        W39864  26.097  18.108   2.202
67572W        W39865  30.112  17.689  14.809
67573W        W39866  31.997   8.184  10.910
67574W        W39867  24.713  43.835  10.509
67575W        W39868  21.669  37.529   4.655
67576W        W39869  25.990  26.104   4.295
67577W        W39870  21.038  30.927   3.776
67578W        W39871   9.809  24.650  10.632
67579W        W39872  30.977   7.304  12.468
67580W        W39873  25.645  26.970   4.344
67581W        W39874  44.478  35.027   0.777
67582W        W39875   8.870  30.942   3.178
67583W        W39876  39.356  35.374  14.310
67584W        W39877  16.701  43.419   3.782
67585W        W39878  31.016  16.142  12.433
67586W        W39879  28.562   3.749  11.967
67587W        W39880  26.607  35.078  12.410
67588W        W39881  20.156   2.830  10.435
67589W        W39882  31.486  43.018   0.938
67590W        W39883  42.327  41.888  10.487
67591W        W39884  20.666  36.560   2.807
67592W        W39885   1.869  37.859   4.698
67593W        W39886  10.244  26.119  12.826
67594W        W39887  36.031  23.085  10.532
67595W        W39888   0.309  42.004  10.948
67596W        W39889  14.595  34.112  14.383
67597W        W39890  43.511  33.944   5.789
67598W        W39891  15.720   2.789  11.070
67599W        W39892  28.662  27.118   2.303
67600W        W39893   5.916  19.645  12.890
67601W        W39894   7.296  38.434   3.147
67602W        W39895  22.510  20.078  10.432
67603W        W39896  36.537   5.895   3.257
67604W        W39897  15.800  11.148   0.303
67605W        W39898  42.917  39.518   2.870
67606W        W39899  18.215   3.437   3.375
67607W        W39900  28.056   4.256   4.734
67608W        W39901  41.905  10.711   0.374
67609W        W39902  14.095  22.642   3.310
67610W        W39903   1.848   7.748   0.288
67611W        W39904   2.947  10.691   4.665
67612W        W39905   7.864  12.322  11.492
67613W        W39906  26.661  11.686   5.295
67614W        W39907   8.894   7.685   3.163
67615W        W39908  15.591   7.719   2.298
67616W        W39909  40.923  36.865  12.096
67617W        W39910  42.336  15.180   0.345
67618W        W39911  33.575   6.755   1.910
67619W        W39912  42.832  12.791   4.808
67620W        W39913  35.069   4.223   2.195
67621W        W39914   7.305  10.161   1.419
67622W        W39915  18.262  33.104   0.369
67623W        W39916  13.735  38.376  13.523
67624W        W39917  35.357   6.255  12.909
67625W        W39918  41.309  43.390  13.795
67626W        W39919  22.622  42.315   3.350
67627W        W39920  25.640  17.114   3.651
67628W        W39921  30.517  14.301   1.225
67629W        W39922  24.612  14.095  13.022
67630W        W39923  21.096   1.404   2.199
67631W        W39924  25.668  44.450  14.000
67632W        W39925  12.218  40.044  12.025
67633W        W39926  14.187   6.688   1.718
67634W        W39927   6.238  28.046  10.480
67635W        W39928   3.762  27.460  12.998
67636W        W39929  25.697   4.774   3.261
67637W        W39930   9.768   6.735  12.540
67638W        W39931   2.886  13.216  12.053
67639W        W39932  30.539  30.651   0.433
67640W        W39933   6.409  17.696   0.280
67641W        W39934  13.808  19.248  13.419
67642W        W39935  21.743  41.914   2.261
67643W        W39936  15.761  41.361  12.058
67644W        W39937  21.220  35.438  14.920
67645W        W39938  25.029  34.061   0.870
67646W        W39939  41.422  31.995   0.832
67647W        W39940  20.651   8.340   0.261
67648W        W39941  42.523  17.620  10.563
67649W        W39942   0.317  19.118  13.957
67650W        W39943   6.852  19.270  12.059
67651W        W39944  27.673  29.099   4.154
67652W        W39945  22.637  22.625   4.798
67653W        W39946  22.502  43.402  13.440
67654W        W39947   5.795  30.527  13.912
67655W        W39948  34.907   1.314  14.339
67656W        W39949  19.194  16.279  10.488
67657W        W39950  29.636   1.826  10.140
67658W        W39951  25.621  22.671   0.787
67659W        W39952  13.766  26.006  10.509
67660W        W39953  43.868  18.213   1.233
67661W        W39954   2.327  14.182   0.792
67662W        W39955  31.149   6.360  12.948
67663W        W39956  21.599  36.862   0.817
67664W        W39957  36.004  44.370   4.201
67665W        W39958   8.310  30.611  10.587
67666W        W39959  41.984   1.868  13.046
67667W        W39960  21.518  40.029   3.333
67668W        W39961   8.394  31.631   3.366
67669W        W39962   4.244  15.724  11.488
67670W        W39963  28.987  15.130  12.421
67671W        W39964  34.553  34.507  14.483
67672W        W39965  24.506  27.654  13.491
67673W        W39966  41.409  26.026  12.862
67674W        W39967  35.907  33.546  10.968
67675W        W39968  39.523  32.042   2.713
67676W        W39969  22.190  42.016   3.218
67677W        W39970  38.930  22.009   3.293
67678W        W39971   3.335  30.496  11.564
67679W        W39972  34.050  44.759  13.923
67680W        W39973  24.557  34.473  14.965
67681W        W39974  44.871  35.926  12.917
67682W        W39975  37.510   6.340  10.486
67683W        W39976  38.559   7.242   3.374
67684W        W39977  33.098  17.061  12.993
67685W        W39978  36.085  27.029  10.894
67686W        W39979  20.079  28.598   4.833
67687W        W39980  27.591   2.891   0.259
67688W        W39981  24.605  22.639   0.423
67689W        W39982  27.690  18.191  13.322
67690W        W39983   2.432  32.046   1.217
67691W        W39984  29.149  36.908  12.981
67692W        W39985  14.744  24.483   1.287
67693W        W39986  37.484  42.984   3.730
67694W        W39987  13.313  21.100  11.460
67695W        W39988   9.804  35.479   0.786
67696W        W39989  42.882   0.412   2.778
67697W        W39990  14.146  23.003   3.226
67698W        W39991  18.658  18.193   5.083
67699W        W39992  23.069  16.238  13.020
67700W        W39993  24.067  21.621   0.886
67701W        W39994   9.851  13.108   1.817
67702W        W39995  11.785  15.800  10.524
67703W        W39996  17.798   5.262  14.975
67704W        W39997  10.748  42.966  14.008
67705W        W39998  10.763  20.048   3.818
67706W        W39999  30.069  40.001   2.867
67707W        W40000   0.470   9.826  13.907
67708W        W40001  29.488  26.127   3.357
67709W        W40002   1.344  42.780   1.322
67710W        W40003  35.071  43.790  13.989
67711W        W40004  34.109  22.137   1.761
67712W        W40005  14.807  26.046  10.459
67713W        W40006  23.202   3.756  12.938
67714W        W40007  40.371  22.676   1.701
67715W        W40008  44.873  25.567   3.175
67716W        W40009  38.394  30.113  14.876
67717W        W40010  20.532   5.276   2.686
67718W        W40011  20.662  39.037  13.024
67719W        W40012  27.478  13.189   1.747
67720W        W40013   9.870  24.990   1.371
67721W        W40014  40.893  38.517  13.812
67722W        W40015  36.066  44.819   1.879
67723W        W40016  40.477  36.004   3.642
67724W        W40017  33.616  11.836  14.836
67725W        W40018  40.443  35.935  13.959
67726W        W40019  37.494  41.361  11.477
67727W        W40020  39.345  25.640  12.543
67728W        W40021  31.930  43.347   0.434
67729W        W40022  34.054  34.540   0.409
67730W        W40023  33.412  13.171  14.420
67731W        W40024  43.966   2.425   0.330
67732W        W40025  35.936  23.653  10.908
67733W        W40026  35.402  37.961   0.341
67734W        W40027   0.806  36.976  11.421
67735W        W40028   7.776  12.286   0.817
67736W        W40029  10.822  43.835  11.486
67737W        W40030  37.379  35.964   0.464
67738W        W40031  29.939  23.021   2.830
67739W        W40032   8.338  28.598   1.327
67740W        W40033   8.763  40.549  10.590
67741W        W40034  39.999  26.639  10.579
67742W        W40035  25.109  33.047  13.872
67743W        W40036  21.748  19.741  14.797
67744W        W40037   9.214   0.878   2.382
67745W        W40038  11.765  15.774   5.208
67746W        W40039   4.729  24.711   4.183
67747W        W40040  32.630   1.975  13.957
67748W        W40041  16.141   8.832   1.855
67749W        W40042  26.496   4.378  12.914
67750W        W40043  40.899  30.436   1.354
67751W        W40044  42.974   8.176  10.523
67752W        W40045  10.741  37.886   1.716
67753W        W40046  11.157  12.618  14.358
67754W        W40047  40.526  41.905  14.897
67755W        W40048   4.857  10.155   0.473
67756W        W40049   5.328   1.855  13.498
67757W        W40050  16.112  40.398  11.967
67758W        W40051   0.877  24.132  14.421
67759W        W40052  44.438  11.259  13.033
67760W        W40053  39.826  16.623   0.858
67761W        W40054  30.956  32.633  11.083
67762W        W40055  24.554   9.153  12.370
67763W        W40056  10.710  20.723   4.699
67764W        W40057  19.223  38.362  11.885
67765W        W40058  14.708  37.842   4.630
67766W        W40059  18.616  17.161  11.114
67767W        W40060  42.850   7.847   2.320
67768W        W40061  11.147  43.298  12.522
67769W        W40062  44.800  19.106   5.750
67770W        W40063   7.738  12.179   0.296
67771W        W40064  39.484  35.996   2.845
67772W        W40065  43.807  22.568   2.388
67773W        W40066  19.105  29.469  13.318
67774W        W40067  26.600  11.358  14.996
67775W        W40068  42.820   0.871  11.883
67776W        W40069  27.127  12.627  12.557
67777W        W40070  21.240  24.006  11.093
67778W        W40071   1.332   6.879  12.571
67779W        W40072  18.151   7.737  13.413
67780W        W40073  43.336  31.096  14.962
67781W        W40074  43.813   7.757   1.275
67782W        W40075   8.238  10.672  11.575
67783W        W40076   2.770  15.293  11.100
67784W        W40077   6.746  42.308  14.984
67785W        W40078  14.243  37.413  12.860
67786W        W40079  30.417  27.051  11.610
67787W        W40080  34.460  10.840  11.980
67788W        W40081  40.859   6.859  11.074
67789W        W40082  23.033  17.188   3.234
67790W        W40083  22.158  39.911   3.769
67791W        W40084  19.649   9.668  10.936
67792W        W40085   6.763   7.740  12.894
67793W        W40086  38.430   3.916   0.946
67794W        W40087  16.721  39.044  13.932
67795W        W40088  38.355  17.212  13.408
67796W        W40089  33.577  44.843  13.947
67797W        W40090  27.683  15.798   2.199
67798W        W40091  29.626  22.161   5.705
67799W        W40092  14.289  39.463   4.809
67800W        W40093  36.074  31.099  14.969
67801W        W40094  29.440  22.189   5.111
67802W        W40095  11.760   5.863   4.632
67803W        W40096  14.791  15.315  12.978
67804W        W40097  35.514  19.259   2.300
67805W        W40098  33.546   2.720   3.192
67806W        W40099  32.963  24.173   4.278
67807W        W40100  31.623   4.296  14.943
67808W        W40101  25.614  23.671   4.337
67809W        W40102  16.118  40.411  12.970
67810W        W40103  11.838  42.865   3.826
67811W        W40104  12.321  30.461   1.334
67812W        W40105  40.510   5.720   0.748
67813W        W40106  41.994  25.046   4.730
67814W        W40107  17.663  36.909  12.463
67815W        W40108  13.754  26.457   1.710
67816W        W40109  41.948  30.630   0.379
67817W        W40110  14.599  40.999  11.010
67818W        W40111  28.137  21.580   1.244
67819W        W40112   0.746  36.457  11.938
67820W        W40113   8.776   4.769   5.121
67821W        W40114   5.257  37.379  13.993
67822W        W40115   1.797   5.242   4.144
67823W        W40116  35.397  31.940   3.166
67824W        W40117   6.301   9.152  12.353
67825W        W40118  13.821  36.047  14.318
67826W        W40119  16.100  40.898   0.328
67827W        W40120   7.178  16.581   1.251
67828W        W40121  13.346  29.522   1.405
67829W        W40122  21.732  37.545  13.809
67830W        W40123  19.683  30.134  10.444
67831W        W40124  33.623  17.157   3.160
67832W        W40125   6.205  43.935  14.295
67833W        W40126  22.638  19.225  14.498
67834W        W40127   1.821   8.859  10.895
67835W        W40128  26.494  29.429   4.762
67836W        W40129  28.146  41.911  13.392
67837W        W40130  43.513   7.174   2.766
67838W        W40131  29.092  27.943   4.827
67839W        W40132  30.418  25.969  14.815
67840W        W40133  23.088   1.391  14.427
67841W        W40134  27.136  37.551  14.005
67842W        W40135   9.708  44.905  11.502
67843W        W40136   6.711  18.152  14.815
67844W        W40137  19.744  10.290  11.960
67845W        W40138  31.129  34.067  13.472
67846W        W40139   7.259  35.993   0.264
67847W        W40140  37.853  21.665  13.313
67848W        W40141   7.865   1.760  11.944
67849W        W40142  19.219  40.837  14.804
67850W        W40143  22.235  17.161   3.634
67851W        W40144  34.011  39.926   1.296
67852W        W40145  31.449  16.568   0.817
67853W        W40146  18.136   6.710  10.599
67854W        W40147  29.663  34.039  10.928
67855W        W40148   9.643  34.486   2.342
67856W        W40149  10.636  39.042   2.290
67857W        W40150  38.443  20.606   0.842
67858W        W40151  27.445  34.461   4.629
67859W        W40152  37.924   3.286  11.596
67860W        W40153  15.654  21.154  14.482
67861W        W40154  22.068  39.536   0.473
67862W        W40155  13.759  35.881  14.867
67863W        W40156  19.729  44.990   1.850
67864W        W40157   7.359  40.050  14.007
67865W        W40158  18.577  22.118  13.345
67866W        W40159   7.272  12.795   0.807
67867W        W40160  19.550   5.264   2.715
67868W        W40161  28.466   6.411   4.230
67869W        W40162   6.724  24.085   2.897
67870W        W40163   5.881  35.866  13.052
67871W        W40164  32.142  18.672   2.286
67872W        W40165  31.047  22.736  10.055
67873W        W40166  12.205  13.347   1.865
67874W        W40167   6.361  43.305   0.308
67875W        W40168  11.237   0.282   1.387
67876W        W40169  10.271  23.633   0.808
67877W        W40170  33.891   1.385   3.687
67878W        W40171  33.002   7.276   0.840
67879W        W40172   0.757  27.455   4.236
67880W        W40173  43.797  42.795  13.506
67881W        W40174  21.672  17.113  12.047
67882W        W40175  10.275  15.626  10.482
67883W        W40176   2.953  41.529  14.469
67884W        W40177  30.040  41.994  12.887
67885W        W40178  13.106  23.154   2.858
67886W        W40179   2.931  41.993  13.465
67887W        W40180  40.457  34.466   4.634
67888W        W40181  39.483  34.580   2.776
67889W        W40182  40.887   9.832  14.983
67890W        W40183   2.349  31.403   1.331
67891W        W40184  39.480   7.694  13.952
67892W        W40185  40.828  35.484  13.942
67893W        W40186  30.911  21.114   2.225
67894W        W40187  35.926  24.579   3.271
67895W        W40188  43.454  35.989   4.679
67896W        W40189  33.496  12.684  14.348
67897W        W40190  12.832  15.226   0.311
67898W        W40191  38.856   9.861   2.782
67899W        W40192  23.168   8.296   2.264
67900W        W40193  36.964   6.304   1.720
67901W        W40194  40.521  37.338  11.510
67902W        W40195  40.354  22.544   0.257
67903W        W40196   8.183  31.452   4.322
67904W        W40197  39.044   7.884   3.307
67905W        W40198  11.699  17.171   4.755
67906W        W40199  21.056  10.825   2.664
67907W        W40200  23.652  44.498   1.717
67908W        W40201  43.409   2.801  13.497
67909W        W40202  17.269  39.973   2.247
67910W        W40203   6.222   0.842  13.440
67911W        W40204  32.575  10.335  10.418
67912W        W40205  17.090  42.492  14.440
67913W        W40206  29.583  36.432  12.342
67914W        W40207  34.100   4.710  12.417
67915W        W40208  38.015  15.125   1.442
67916W        W40209  28.664   9.204   2.221
67917W        W40210  26.478  22.639   1.914
67918W        W40211   1.249   7.312  12.371
67919W        W40212  43.772  16.661   5.720
67920W        W40213  23.507   4.710  11.121
67921W        W40214  43.990  17.657   1.449
67922W        W40215  17.131   1.954  14.759
67923W        W40216  10.637  14.319   0.290
67924W        W40217  21.672  18.710   0.863
67925W        W40218   3.368  35.021  12.843
67926W        W40219  35.474  17.663  10.573
67927W        W40220  25.652  26.151   0.793
67928W        W40221  36.086  23.240  10.896
67929W        W40222  11.672  10.748  10.490
67930W        W40223   2.395  25.573  14.449
67931W        W40224  16.133   2.745  10.907
67932W        W40225  36.970   5.704   1.818
67933W        W40226  19.088  35.578  13.361
67934W        W40227  28.457   6.330   4.811
67935W        W40228  24.087   4.348  13.855
67936W        W40229  32.496  18.264  14.004
67937W        W40230   0.441  38.421  10.917
67938W        W40231  32.545   2.831  14.453
67939W        W40232  17.122  18.060   4.687
67940W        W40233  19.579  33.058   5.601
67941W        W40234  22.120   0.478  10.618
67942W        W40235  28.054  29.032   3.744
67943W        W40236  28.669  15.631   1.806
67944W        W40237   3.250  38.544   1.288
67945W        W40238  37.525  41.509  13.959
67946W        W40239   9.864   9.282  12.381
67947W        W40240   7.750  38.481   0.368
67948W        W40241   4.386  11.670  12.086
67949W        W40242   9.787   6.334  12.905
67950W        W40243  12.745   2.438   4.205
67951W        W40244  44.281  11.725   4.609
67952W        W40245   4.754  43.433   1.818
67953W        W40246  29.607  19.165   0.281
67954W        W40247  14.136   7.395   0.249
67955W        W40248  11.741  38.399   2.267
67956W        W40249  11.205  17.698   1.398
67957W        W40250  40.874  12.801   2.369
67958W        W40251  24.599  12.805  11.083
67959W        W40252   5.272  12.246   1.842
67960W        W40253  35.407  10.815  13.993
67961W        W40254  10.686  19.190   3.869
67962W        W40255   1.808  17.269   0.465
67963W        W40256  21.647  32.956   4.775
67964W        W40257  36.976  21.097   3.688
67965W        W40258  17.631  10.673  12.938
67966W        W40259  38.065  13.188   3.344
67967W        W40260  16.725  29.461   1.293
67968W        W40261  13.645   9.261  13.487
67969W        W40262  30.111   5.711   2.185
67970W        W40263  43.362   1.884   2.297
67971W        W40264  25.976  29.141  12.544
67972W        W40265  15.606   8.655  11.102
67973W        W40266  13.158   4.882  10.013
67974W        W40267  43.904  14.645   0.372
67975W        W40268  28.561  21.657  12.382
67976W        W40269  41.478  38.874   0.255
67977W        W40270  31.032  35.395  10.535
67978W        W40271  27.024  31.646  13.316
67979W        W40272  33.090  28.435  11.372
67980W        W40273  33.546  26.002   2.758
67981W        W40274  24.599   0.274   3.171
67982W        W40275  41.338  14.323  12.490
67983W        W40276   8.364   2.748   4.701
67984W        W40277  31.957  44.272   2.266
67985W        W40278  24.101  33.598   4.349
67986W        W40279   6.242  26.648  13.889
67987W        W40280  43.362  38.821   1.877
67988W        W40281  32.051  11.169   0.467
67989W        W40282   6.206  24.187  12.078
67990W        W40283  13.726  30.618   0.776
67991W        W40284  19.265  19.536  13.378
67992W        W40285  37.871  25.684   2.317
67993W        W40286  17.564  26.989   1.295
67994W        W40287  11.232  39.421  14.361
67995W        W40288  27.678   7.283   0.886
67996W        W40289  41.413  10.149   3.661
67997W        W40290   5.213  31.594  14.480
67998W        W40291  15.296   6.725   3.148
67999W        W40292  37.508   8.276  11.589
68000W        W40293   7.249  36.099  11.101
68001W        W40294   9.159  24.187   3.356
68002W        W40295  17.140  24.206  11.421
68003W        W40296   1.965  14.186  13.407
68004W        W40297  11.128   4.283   3.296
68005W        W40298  27.944  23.492   0.855
68006W        W40299  24.042   4.294  12.020
68007W        W40300  35.550  43.407  10.518
68008W        W40301  35.017   0.845   4.281
68009W        W40302  18.190  19.179   0.806
68010W        W40303  43.423  32.478   3.185
68011W        W40304  31.420  22.176   0.912
68012W        W40305  19.038  13.634   1.827
68013W        W40306  23.533  29.918   2.818
68014W        W40307   3.856  42.795   3.216
68015W        W40308  34.902  27.995  10.506
68016W        W40309  37.082  39.985   4.780
68017W        W40310   2.262   8.189  14.516
68018W        W40311  14.249   6.308  14.503
68019W        W40312  15.755  24.662  13.027
68020W        W40313  16.302  15.134   4.694
68021W        W40314  19.245  21.225   5.307
68022W        W40315  17.247  37.895   0.924
68023W        W40316  15.299   8.673  11.496
68024W        W40317   2.741   3.790  10.959
68025W        W40318  25.049  12.644   2.675
68026W        W40319  16.742  25.984  12.924
68027W        W40320  40.443  25.060   1.718
68028W        W40321   8.814  41.451  13.881
68029W        W40322  40.354   9.860  12.377
68030W        W40323  19.251  35.074  11.461
68031W        W40324  40.479  39.023  10.148
68032W        W40325   2.388   1.808   0.938
68033W        W40326  31.952  35.599  14.864
68034W        W40327  15.687  15.763   4.244
68035W        W40328  42.420  17.101  12.896
68036W        W40329  40.002  23.626   3.206
68037W        W40330  12.770  19.545  10.534
68038W        W40331  22.200  37.538   3.304
68039W        W40332  26.688   4.203  13.934
68040W        W40333  22.534  20.582  14.827
68041W        W40334  24.657  44.773  13.396
68042W        W40335  14.148  17.604  13.454
68043W        W40336   4.833  43.412  12.346
68044W        W40337  34.116  13.302   2.384
68045W        W40338  37.924   2.340  13.018
68046W        W40339  13.127   8.308   3.750
68047W        W40340   6.216   8.863   2.370
68048W        W40341  42.456  32.519  12.919
68049W        W40342  12.766  13.700   4.147
68050W        W40343   6.295  42.927  13.043
68051W        W40344  37.469  38.446   4.233
68052W        W40345  39.930  21.115  12.538
68053W        W40346  22.724  14.659   4.230
68054W        W40347  17.777  13.613   0.856
68055W        W40348  26.164  26.118   0.424
68056W        W40349  41.824   7.405   0.895
68057W        W40350   0.821  27.167   4.742
68058W        W40351   5.698  10.794   1.907
68059W        W40352   5.435  28.094   1.717
68060W        W40353  19.260  34.028  14.375
68061W        W40354  38.956  20.685   3.787
68062W        W40355  36.522   3.809  13.539
68063W        W40356  12.741  37.051  14.478
68064W        W40357  22.733  13.120   0.742
68065W        W40358  40.328   1.819   9.926
68066W        W40359   9.796  39.843   0.281
68067W        W40360   9.261  42.935  13.972
68068W        W40361  16.314  29.936   0.282
68069W        W40362  30.550  41.484   0.962
68070W        W40363  22.231  42.444   4.632
68071W        W40364  24.995   0.973   2.308
68072W        W40365  40.941  30.147  10.969
68073W        W40366   2.910   1.360   0.767
68074W        W40367  30.032   8.316   3.793
68075W        W40368  23.697   5.819  11.566
68076W        W40369  13.253  20.248   4.137
68077W        W40370   3.941  29.581   3.868
68078W        W40371   2.423  25.149  10.078
68079W        W40372  12.361  13.190   4.643
68080W        W40373  42.995  21.131  12.527
68081W        W40374  12.239  16.157   2.785
68082W        W40375   6.236  19.042  13.484
68083W        W40376  23.513  22.245   3.709
68084W        W40377  27.482  26.086   2.849
68085W        W40378  25.109  35.596   3.303
68086W        W40379  36.429  43.330   4.675
68087W        W40380  42.365  15.699   2.282
68088W        W40381   4.286  30.934   3.663
68089W        W40382  33.074  11.215  13.519
68090W        W40383  28.458  13.802   1.338
68091W        W40384  26.685  14.337   2.370
68092W        W40385  39.380   8.387  10.585
68093W        W40386   7.333  21.566  11.121
68094W        W40387  16.681   7.407   0.250
68095W        W40388  38.958  29.136  12.942
68096W        W40389   5.928  21.084   2.724
68097W        W40390   1.974  17.615  11.896
68098W        W40391  13.634  43.426  14.963
68099W        W40392  14.660  13.755   4.794
68100W        W40393  39.840   4.886  12.439
68101W        W40394  39.859  31.024  12.341
68102W        W40395  29.123  27.180  14.942
68103W        W40396  33.575  29.569  10.626
68104W        W40397  25.144  25.565  14.032
68105W        W40398  25.693   1.756   2.822
68106W        W40399  13.668  17.647  12.951
68107W        W40400  33.435  11.829   2.797
68108W        W40401  30.099  39.862   1.824
68109W        W40402  38.360   8.808   3.833
68110W        W40403  34.528   2.271  14.461
68111W        W40404  44.971  20.714  10.917
68112W        W40405  14.193  44.862   4.191
68113W        W40406  39.530  13.740   4.279
68114W        W40407   3.218  11.248  12.448
68115W        W40408  42.849   9.831   1.262
68116W        W40409  33.110   2.807   0.448
68117W        W40410   5.420   3.422   0.962
68118W        W40411  12.156   2.947  12.854
68119W        W40412  20.115  15.642   4.349
68120W        W40413   0.898  42.028  14.420
68121W        W40414  20.725  20.207  14.773
68122W        W40415  11.841  35.977  14.364
68123W        W40416  27.629   4.932   3.350
68124W        W40417  22.138   7.683  10.550
68125W        W40418   0.310  28.017  12.549
68126W        W40419  42.938  35.061   4.178
68127W        W40420  36.482  12.172  14.428
68128W        W40421  19.263   9.219   3.345
68129W        W40422  23.153  35.990  10.440
68130W        W40423  26.526  16.242  14.312
68131W        W40424  41.910   1.740  14.917
68132W        W40425  40.385  15.236  13.544
68133W        W40426  19.669   6.287  14.786
68134W        W40427  38.835  27.587  14.007
68135W        W40428  41.833  33.500  13.801
68136W        W40429   0.402  10.814   3.382
68137W        W40430  12.846   4.420  12.828
68138W        W40431  31.095   6.865   4.353
68139W        W40432  13.685  25.100   1.715
68140W        W40433  26.519  31.555   2.846
68141W        W40434  11.129  14.630  12.549
68142W        W40435  35.406  31.423  12.931
68143W        W40436  17.301  13.784   1.258
68144W        W40437   8.803  21.564   3.263
68145W        W40438  19.152  17.070   3.678
68146W        W40439  27.504  26.558  11.469
68147W        W40440  34.557  11.858  12.082
68148W        W40441  28.623   6.755   3.252
68149W        W40442  27.597   7.784  10.454
68150W        W40443  23.682   9.156  12.942
68151W        W40444  18.204  25.966  11.861
68152W        W40445  20.096  40.528  12.895
68153W        W40446   3.228  24.202  11.009
68154W        W40447   8.666   2.782  12.422
68155W        W40448  16.746  13.153   0.447
68156W        W40449  37.905  30.626  10.626
68157W        W40450  12.622  11.212  10.597
68158W        W40451  32.074  39.020  12.929
68159W        W40452  38.926  36.579  13.441
68160W        W40453  39.438  24.652   1.423
68161W        W40454   4.864  29.635   3.301
68162W        W40455  18.690  16.570  10.514
68163W        W40456  30.047  20.551  12.968
68164W        W40457  13.344  36.382   0.428
68165W        W40458  36.524  36.358   2.809
68166W        W40459  33.016   7.735   1.800
68167W        W40460   4.789  37.451   0.910
68168W        W40461  22.536  25.607   1.354
68169W        W40462  12.316  22.022  11.874
68170W        W40463  40.970  37.546  10.437
68171W        W40464  25.704  21.580  14.393
68172W        W40465  23.012  10.668  13.831
68173W        W40466  33.510  20.666   1.406
68174W        W40467  41.465  42.925  12.040
68175W        W40468  33.929  40.429   1.276
68176W        W40469  19.639   8.878  14.957
68177W        W40470  19.121  32.622  13.904
68178W        W40471   3.427  31.424   3.755
68179W        W40472  14.601   8.331   3.170
68180W        W40473   3.380   3.867  10.628
68181W        W40474  42.964  40.004   2.257
68182W        W40475  41.477  18.094   4.725
68183W        W40476  18.617   7.280  13.384
68184W        W40477   6.872   3.739  10.623
68185W        W40478  34.016  28.065   1.373
68186W        W40479   0.784   6.699   0.954
68187W        W40480  18.176  10.742  13.054
68188W        W40481   6.723  39.388   2.414
68189W        W40482  14.806  20.726   4.623
68190W        W40483  30.045   2.777   0.284
68191W        W40484   9.336   5.785   1.277
68192W        W40485  38.450  19.743   1.851
68193W        W40486  33.034   0.266  11.387
68194W        W40487  21.097  10.382   3.271
68195W        W40488  37.997  34.499  10.458
68196W        W40489  15.753  29.551  11.862
68197W        W40490  17.777  39.452  12.848
68198W        W40491  26.956   3.711  13.905
68199W        W40492  23.151  19.594  11.054
68200W        W40493  25.196   5.318   4.169
68201W        W40494  25.081  20.147   5.109
68202W        W40495  24.487  27.508  14.907
68203W        W40496  19.541  33.508  11.045
68204W        W40497  38.957  36.560   2.262
68205W        W40498  38.860  15.704  12.071
68206W        W40499  32.459   6.215  14.394
68207W        W40500  21.672  16.722  10.972
68208W        W40501  32.423  39.462  13.881
68209W        W40502  30.576  27.551  11.990
68210W        W40503  40.984  15.747  14.339
68211W        W40504  13.738  39.508   4.764
68212W        W40505   0.368  33.523   4.773
68213W        W40506  15.701  41.979   4.681
68214W        W40507   8.384   7.213  14.299
68215W        W40508   8.815  25.511  11.021
68216W        W40509  17.583  12.362  11.033
68217W        W40510  44.760  35.956   9.453
68218W        W40511  13.242  16.083  13.922
68219W        W40512  35.515  40.968  12.036
68220W        W40513  34.419  36.996   0.326
68221W        W40514   3.931  16.154  14.969
68222W        W40515  22.731   2.866  11.467
68223W        W40516  32.633  43.482   1.731
68224W        W40517  29.559  34.992   4.719
68225W        W40518   4.210  28.151   0.414
68226W        W40519  42.813  43.843   0.396
68227W        W40520   4.745  40.924   3.634
68228W        W40521   4.896  36.926  11.575
68229W        W40522  13.212  26.023  14.312
68230W        W40523  33.900  12.168  10.499
68231W        W40524  36.526  39.852   4.737
68232W        W40525  39.011  39.866   0.250
68233W        W40526  24.681  21.541  10.632
68234W        W40527   7.776  30.978  12.085
68235W        W40528  14.325  17.732   1.304
68236W        W40529  20.047  41.965  10.547
68237W        W40530  22.737  24.513  11.608
68238W        W40531  16.662   1.373  14.409
68239W        W40532  22.047  21.572  11.520
68240W        W40533  38.529   5.791   0.742
68241W        W40534  10.771  28.680   2.800
68242W        W40535  17.786  36.035  11.878
68243W        W40536  25.093  33.411  13.473
68244W        W40537  29.601  37.422  14.362
68245W        W40538  23.557  20.592   3.176
68246W        W40539  33.486  34.927   1.779
68247W        W40540  38.399   2.238   1.300
68248W        W40541  23.490  41.913  12.579
68249W        W40542  18.790  32.632  11.395
68250W        W40543  42.333   8.874   4.122
68251W        W40544  17.711  18.589  11.987
68252W        W40545   2.394  43.317   2.331
68253W        W40546  43.997  25.649   3.765
68254W        W40547   8.380  10.865   4.756
68255W        W40548  42.300   7.269   1.739
68256W        W40549  22.633   6.194   4.777
68257W        W40550  12.138   9.785   2.706
68258W        W40551   8.871  11.342  13.945
68259W        W40552  34.435  36.880   2.804
68260W        W40553  19.721  17.800   0.427
68261W        W40554  39.056  31.504   2.220
68262W        W40555  43.349   2.230  12.019
68263W        W40556  35.076   5.404   1.785
68264W        W40557   4.750  25.086   2.289
68265W        W40558  18.156   6.332  12.858
68266W        W40559  15.182  40.799  11.054
68267W        W40560  32.461  18.675   1.220
68268W        W40561  24.722   4.715   1.413
68269W        W40562  12.268  14.818  12.511
68270W        W40563  16.282  24.035   1.427
68271W        W40564   9.254   2.348   3.328
68272W        W40565  38.947   2.781   2.201
68273W        W40566  35.973  12.828   0.446
68274W        W40567   6.757  40.996  10.447
68275W        W40568  41.020  44.949  10.542
68276W        W40569   2.411  20.598  13.470
68277W        W40570  11.287  34.403   1.315
68278W        W40571  20.609  32.914  13.809
68279W        W40572  44.310  17.186   0.841
68280W        W40573  36.422  21.039   5.185
68281W        W40574  40.846  30.082   2.394
68282W        W40575  43.928  22.585   4.119
68283W        W40576  13.272   7.400  12.880
68284W        W40577  16.628  29.439  12.832
68285W        W40578  36.070   0.250   4.252
68286W        W40579   3.309   4.418  10.613
68287W        W40580  26.116  27.181  14.376
68288W        W40581  24.605   8.311   3.280
68289W        W40582   3.869  16.603   1.255
68290W        W40583  11.729  38.459  13.028
68291W        W40584  32.989  11.238   0.445
68292W        W40585  32.444  40.525   4.241
68293W        W40586  14.315  16.697   3.231
68294W        W40587  16.634  39.375  12.372
68295W        W40588  28.591  15.581  11.371
68296W        W40589  36.079  40.495   4.332
68297W        W40590  43.380  12.801  10.627
68298W        W40591  24.180  14.667   2.298
68299W        W40592  23.665  43.414  13.999
68300W        W40593  28.941  38.843  10.553
68301W        W40594  38.434  31.481   3.754
68302W        W40595   5.741   2.936  13.468
68303W        W40596  36.492  37.017  13.510
68304W        W40597  19.259   1.832  10.433
68305W        W40598  35.560  10.835   2.347
68306W        W40599  18.564  12.128  12.035
68307W        W40600   4.854  40.923   0.457
68308W        W40601  42.437   1.750  12.015
68309W        W40602   5.206  28.531  14.947
68310W        W40603  40.874  40.509  13.500
68311W        W40604  14.602   6.867  13.801
68312W        W40605  25.522  19.165  14.016
68313W        W40606  33.448  30.490   3.679
68314W        W40607  12.775  35.006  14.324
68315W        W40608  43.452  22.595   1.706
68316W        W40609  15.758  30.950   0.443
68317W        W40610   0.829  21.696  11.961
68318W        W40611  38.570  42.008   3.764
68319W        W40612   0.957  35.360  11.008
68320W        W40613  19.665  17.565   0.941
68321W        W40614  32.524  25.512   4.802
68322W        W40615   1.478  33.571  10.449
68323W        W40616  20.635  24.585   0.318
68324W        W40617  27.654   9.326   4.773
68325W        W40618  31.997  35.528   2.780
68326W        W40619  19.174  18.261  13.014
68327W        W40620  34.946  29.040   0.439
68328W        W40621   3.877  35.082   3.217
68329W        W40622  18.227  33.007   4.632
68330W        W40623  17.659  42.799  13.514
68331W        W40624  16.151   9.732  14.512
68332W        W40625   9.773  43.003  11.465
68333W        W40626  44.799  29.484  14.956
68334W        W40627  11.867  33.437  13.917
68335W        W40628  17.714  16.139  12.559
68336W        W40629  27.654  20.647  14.285
68337W        W40630  40.540  27.480   2.227
68338W        W40631  28.444  19.545  13.053
68339W        W40632  19.718  17.671  11.924
68340W        W40633  31.047  14.303  13.828
68341W        W40634  19.078  24.161   3.214
68342W        W40635  11.248  11.353  11.060
68343W        W40636  16.625  41.917  13.388
68344W        W40637  28.079  41.334  11.943
68345W        W40638  30.630  44.944   0.853
68346W        W40639  29.157  17.140   1.227
68347W        W40640  16.696  19.558   2.857
68348W        W40641  22.581   6.399  10.967
68349W        W40642  42.985   5.892  10.135
68350W        W40643  38.486  35.528   2.408
68351W        W40644   0.742  30.420  14.305
68352W        W40645  28.146  21.724  10.410
68353W        W40646  16.672  22.677   5.801
68354W        W40647  31.509   6.187  12.977
68355W        W40648   2.765  41.868   2.682
68356W        W40649  22.633  12.736  11.474
68357W        W40650   2.945  30.081   1.368
68358W        W40651  25.599  11.367  14.305
68359W        W40652  20.597  26.049  13.501
68360W        W40653  26.064  36.471  13.453
68361W        W40654   9.198   6.291  13.964
68362W        W40655  20.033  24.614   2.769
68363W        W40656  29.502  41.414   3.788
68364W        W40657  33.547  21.151  13.532
68365W        W40658  16.102  37.341  11.613
68366W        W40659  19.746  31.903   4.285
68367W        W40660  30.542  26.654  11.889
68368W        W40661  25.503  21.748   4.306
68369W        W40662   5.825  42.791  12.835
68370W        W40663  33.075  39.019   3.635
68371W        W40664  10.274  23.607  14.948
68372W        W40665  23.029  39.035   1.365
68373W        W40666  24.718  12.144  14.290
68374W        W40667  26.549  40.040   3.754
68375W        W40668   9.292  18.261   3.861
68376W        W40669  20.150  14.259  10.964
68377W        W40670  39.530  41.430  14.979
68378W        W40671  14.801  15.134   0.438
68379W        W40672  30.585  31.630   3.269
68380W        W40673   0.353  20.556  14.317
68381W        W40674   0.956   9.203  11.420
68382W        W40675  22.571  41.376   3.777
68383W        W40676  26.037  27.453   0.871
68384W        W40677   4.793  20.593  13.390
68385W        W40678  14.783  24.720  12.476
68386W        W40679  38.985   0.834   3.157
68387W        W40680  13.214  26.538  13.019
68388W        W40681  10.860  14.282   3.348
68389W        W40682  30.602  20.604   3.339
68390W        W40683  15.583  13.832   0.388
68391W        W40684  44.350  28.621  13.497
68392W        W40685   4.251  20.119  10.448
68393W        W40686  11.669  18.259  10.585
68394W        W40687  31.498  20.261  12.418
68395W        W40688   4.731  15.278   1.292
68396W        W40689   9.227  30.415   0.424
68397W        W40690   4.863  30.959  14.899
68398W        W40691  43.433  33.954  11.042
68399W        W40692  22.078  10.869   1.323
68400W        W40693  37.969  17.290   3.255
68401W        W40694  23.144  39.333  13.952
68402W        W40695  42.959  14.190  13.906
68403W        W40696  10.271  41.890  11.086
68404W        W40697   1.394  20.199   4.223
68405W        W40698  14.661  39.518   1.251
68406W        W40699   4.831   2.387   3.149
68407W        W40700  40.027  14.603   0.477
68408W        W40701   8.684   2.818  11.860
68409W        W40702   8.769  28.992   0.755
68410W        W40703  27.164  22.704   0.363
68411W        W40704  33.905  27.624  11.503
68412W        W40705   3.729  44.397   4.623
68413W        W40706  35.084   1.384  12.032
68414W        W40707   5.437   3.243  14.501
68415W        W40708   1.946  36.885  13.801
68416W        W40709  25.700   9.831  12.343
68417W        W40710  17.127  21.589   5.238
68418W        W40711  32.438  11.173  11.085
68419W        W40712  16.223  17.580   2.364
68420W        W40713  29.135   5.843   0.326
68421W        W40714  33.389  22.649   4.140
68422W        W40715  20.570  43.493   1.802
68423W        W40716  43.953   4.411  11.003
68424W        W40717  31.099   2.257   4.623
68425W        W40718  43.921  44.010  14.825
68426W        W40719  39.896  13.696  13.821
68427W        W40720  33.051  18.757  13.995
68428W        W40721  37.483  38.568   2.403
68429W        W40722  27.193  40.490  10.543
68430W        W40723  36.083  36.951   1.347
68431W        W40724   1.431  13.312   3.781
68432W        W40725  22.697   6.911   0.842
68433W        W40726  34.439  25.080   0.951
68434W        W40727  34.602  39.053  14.983
68435W        W40728  31.521   9.694   1.819
68436W        W40729  22.614  34.976   3.301
68437W        W40730  24.066  29.635   2.351
68438W        W40731  11.197  28.064  11.997
68439W        W40732  26.611   3.836   2.281
68440W        W40733  31.408  33.024   3.832
68441W        W40734  33.118  43.463  11.871
68442W        W40735  30.147  25.490  14.863
68443W        W40736  39.538  42.807  11.526
68444W        W40737  13.170   3.805   4.817
68445W        W40738   8.822  24.185  11.482
68446W        W40739  32.033   3.825   4.619
68447W        W40740  38.936   8.801   0.949
68448W        W40741   2.839  17.237   3.300
68449W        W40742   5.420   6.839  13.955
68450W        W40743  10.291  41.004   1.445
68451W        W40744   3.924  16.571   4.268
68452W        W40745  39.489  11.850  11.070
68453W        W40746  18.560  22.579  14.398
68454W        W40747  43.507  27.015  12.389
68455W        W40748  34.996  39.923  13.454
68456W        W40749  40.317  42.846  12.908
68457W        W40750  28.972  40.034  11.987
68458W        W40751  35.998  13.800  12.400
68459W        W40752  33.046  22.158  12.002
68460W        W40753   6.292   2.453  12.438
68461W        W40754   4.769  39.462  14.338
68462W        W40755  24.584  38.876   4.205
68463W        W40756  40.992  27.980  13.538
68464W        W40757  18.173   7.830   1.715
68465W        W40758   7.842   9.666   0.959
68466W        W40759   2.242  43.007   3.731
68467W        W40760  39.334  44.449  12.381
68468W        W40761  41.329  42.875   3.803
68469W        W40762  24.591  40.970  12.878
68470W        W40763  31.095  37.456   0.425
68471W        W40764  20.205  12.629  14.338
68472W        W40765  23.019  13.769  11.923
68473W        W40766  15.605  44.922  13.513
68474W        W40767   2.326  22.722  10.630
68475W        W40768  31.520  14.103   4.146
68476W        W40769  35.394  33.444   1.368
68477W        W40770  21.173  17.734   1.821
68478W        W40771  21.651  41.018   2.240
68479W        W40772   4.841   7.704  14.022
68480W        W40773  35.938  33.570   4.198
68481W        W40774  43.784  32.597   2.806
68482W        W40775   7.681   8.808  13.434
68483W        W40776  21.172  39.828  10.573
68484W        W40777  15.782  35.055  14.347
68485W        W40778  19.166  14.316   2.823
68486W        W40779  20.172  13.616   4.319
68487W        W40780  14.267  25.147  13.027
68488W        W40781  14.183  18.058  11.438
68489W        W40782  38.942   4.807  13.315
68490W        W40783  44.971  10.692   1.265
68491W        W40784   5.708  44.993   3.844
68492W        W40785  17.113  27.010  13.867
68493W        W40786  32.012  19.167  14.360
68494W        W40787  11.750  20.753  11.447
68495W        W40788  21.725  20.612   0.807
68496W        W40789   6.898  38.921  12.525
68497W        W40790  43.381  24.553   1.768
68498W        W40791   1.328  19.597  13.822
68499W        W40792  16.695  20.670  13.039
68500W        W40793  42.802  13.146   2.862
68501W        W40794  28.061  41.318  14.500
68502W        W40795  39.999  43.481  13.542
68503W        W40796  41.938   6.813  14.290
68504W        W40797  30.929  36.092   5.292
68505W        W40798   8.401  27.977   2.732
68506W        W40799  22.134  40.964   3.824
68507W        W40800  28.092  28.634   3.645
68508W        W40801   1.375  37.466  11.960
68509W        W40802   3.928  40.504  12.479
68510W        W40803  27.973  16.206  13.950
68511W        W40804   5.933  16.149   2.757
68512W        W40805  39.032   9.234   4.603
68513W        W40806  22.656  33.069  13.062
68514W        W40807   7.259  16.193  13.921
68515W        W40808  20.250   7.174  12.452
68516W        W40809  17.705  41.019   1.694
68517W        W40810  11.715  37.842  10.588
68518W        W40811  31.476   9.248   3.162
68519W        W40812  22.711   4.301   9.436
68520W        W40813   4.319  40.471  13.881
68521W        W40814  24.543  39.063  11.527
68522W        W40815  38.346  36.854   1.255
68523W        W40816  42.349  27.668   4.324
68524W        W40817   0.920  28.007  14.942
68525W        W40818   6.829  22.169   4.703
68526W        W40819   5.352   0.397   4.222
68527W        W40820  12.279  30.114  12.415
68528W        W40821  40.991  27.077   1.237
68529W        W40822  33.006  12.168  11.869
68530W        W40823  24.035  10.649   0.755
68531W        W40824  10.207   1.892   2.349
68532W        W40825   6.388  42.362   2.196
68533W        W40826  23.673   7.354  11.486
68534W        W40827  38.860  30.118  12.046
68535W        W40828  34.056  15.656   4.780
68536W        W40829  32.009  44.978   4.607
68537W        W40830  35.025  43.293  12.383
68538W        W40831  16.258  38.048  11.121
68539W        W40832  22.997  23.088  13.859
68540W        W40833  35.528  10.203   4.167
68541W        W40834  35.867  38.395  13.310
68542W        W40835  24.699  23.657   0.300
68543W        W40836   9.181  28.110   4.202
68544W        W40837  16.599  33.519  14.360
68545W        W40838  14.771  24.701   1.822
68546W        W40839  43.930  41.401   1.422
68547W        W40840   8.884  33.118  11.963
68548W        W40841   4.797  11.148   2.692
68549W        W40842  40.035  23.672   2.399
68550W        W40843  30.064  35.029  12.943
68551W        W40844   1.465   1.939  13.904
68552W        W40845  37.560  15.621   1.848
68553W        W40846   9.850  19.080  12.927
68554W        W40847  15.269   2.936   3.237
68555W        W40848  41.382  27.064  13.410
68556W        W40849  43.358   5.717   4.766
68557W        W40850  35.852   9.322   0.324
68558W        W40851  35.928  36.084   1.711
68559W        W40852   1.475  17.588  10.900
68560W        W40853  35.906  21.044  14.793
68561W        W40854  22.107  23.161   4.732
68562W        W40855  26.982  40.536  12.031
68563W        W40856  22.202  12.754  11.956
68564W        W40857   7.204   1.466  12.349
68565W        W40858  36.935   1.923  14.933
68566W        W40859   9.790  38.400   0.246
68567W        W40860  20.047  11.859  13.515
68568W        W40861   4.296  14.214   0.482
68569W        W40862  38.354   0.810  12.901
68570W        W40863  32.117  40.362   2.870
68571W        W40864  35.069  23.053   3.293
68572W        W40865  15.660  21.190   0.957
68573W        W40866  26.603  21.180   2.678
68574W        W40867  21.166  35.594   0.432
68575W        W40868  37.893   6.209   1.339
68576W        W40869   5.429  44.262   4.779
68577W        W40870   0.889  22.746  13.838
68578W        W40871  37.348  21.185   4.178
68579W        W40872  27.157  38.939   3.316
68580W        W40873   8.857   5.334  11.475
68581W        W40874   8.262  37.899   2.873
68582W        W40875   2.733   6.844  11.517
68583W        W40876  19.115  38.872   3.206
68584W        W40877  34.974  13.744  12.915
68585W        W40878   6.729   9.369   2.342
68586W        W40879  31.007  14.304  14.321
68587W        W40880   7.363  32.024   0.961
68588W        W40881  43.505  40.484   3.776
68589W        W40882  15.216  31.070   4.613
68590W        W40883  25.684   4.358   3.174
68591W        W40884  32.113   9.327   3.786
68592W        W40885  28.565   0.915  13.520
68593W        W40886   1.936  34.909   2.352
68594W        W40887  39.352  19.200   0.785
68595W        W40888   6.218  28.120   1.932
68596W        W40889  12.153  30.494   3.318
68597W        W40890  26.666  40.935   3.268
68598W        W40891   4.315  44.000  10.930
68599W        W40892  20.746  10.820   4.692
68600W        W40893  23.213  40.909  13.420
68601W        W40894  24.192  13.232   3.165
68602W        W40895  38.879  30.601  11.488
68603W        W40896  29.466  44.491   5.222
68604W        W40897  16.090  19.570   3.761
68605W        W40898  18.704  18.232   1.706
68606W        W40899   6.338  31.116  14.313
68607W        W40900  41.346  40.421   4.832
68608W        W40901  42.848  15.102   4.614
68609W        W40902   5.911  35.551   9.459
68610W        W40903  18.751  22.213   2.722
68611W        W40904  23.082  10.831   0.386
68612W        W40905   2.427  11.373  11.943
68613W        W40906  32.933  31.087  13.329
68614W        W40907  42.976  36.945  13.377
68615W        W40908  18.648  17.732   3.681
68616W        W40909  21.116  26.571   0.351
68617W        W40910  18.249  12.837   2.202
68618W        W40911  11.298   8.303   3.800
68619W        W40912  25.154  13.844   4.341
68620W        W40913   3.932  27.959  14.833
68621W        W40914  25.709   1.438  12.973
68622W        W40915   2.431  29.621   2.804
68623W        W40916  36.450   6.720  12.492
68624W        W40917  13.665  40.386   2.687
68625W        W40918  27.984  41.952   3.319
68626W        W40919  30.092   7.398   4.781
68627W        W40920  29.535  39.032  12.029
68628W        W40921  29.487  13.321  12.059
68629W        W40922  21.225  30.537   0.465
68630W        W40923   5.777  18.614  11.859
68631W        W40924  40.490  33.448  13.880
68632W        W40925  28.671   4.260   1.929
68633W        W40926  30.652   3.858   2.713
68634W        W40927  28.442  17.266  12.363
68635W        W40928  43.344  37.569   5.149
68636W        W40929   6.366  35.875  10.599
68637W        W40930  23.493   4.897  12.538
68638W        W40931   7.760  30.078  14.957
68639W        W40932  15.640  37.877  13.935
68640W        W40933  23.985   4.335  10.618
68641W        W40934  21.128  29.513  13.476
68642W        W40935  38.016  23.215   2.348
68643W        W40936  31.562  11.264  12.972
68644W        W40937  26.678  31.988  14.895
68645W        W40938  18.680  19.196  12.085
68646W        W40939  29.571  30.480  10.576
68647W        W40940  36.590  18.229  11.415
68648W        W40941  42.030  25.547   2.678
68649W        W40942  27.510  33.929  10.551
68650W        W40943   0.860  31.114   0.804
68651W        W40944  22.071  10.815   1.789
68652W        W40945   7.399  17.120   4.344
68653W        W40946  38.570  13.793   3.315
68654W        W40947   9.326  39.984  13.435
68655W        W40948  35.524  13.201  13.318
68656W        W40949   6.914  43.415  12.843
68657W        W40950  12.295  34.939  12.827
68658W        W40951  28.036  11.732   5.172
68659W        W40952   4.243  25.996  12.052
68660W        W40953  42.887  20.739  10.633
68661W        W40954  16.277   9.350   1.323
68662W        W40955  44.400  41.520   3.345
68663W        W40956  15.183  29.542  12.902
68664W        W40957  19.191  36.979  11.893
68665W        W40958  44.008   1.830   3.329
68666W        W40959   8.177   0.370  13.892
68667W        W40960  33.595  36.878   0.959
68668W        W40961  44.985  26.602   0.870
68669W        W40962  13.263  35.905  12.902
68670W        W40963  24.120   2.825  12.053
68671W        W40964  36.396  43.941  14.308
68672W        W40965  21.079  22.706   5.299
68673W        W40966   8.320  26.954   4.835
68674W        W40967  42.824  44.409  11.407
68675W        W40968  21.632  12.829   1.357
68676W        W40969  18.740  43.999   0.739
68677W        W40970  36.359  41.294  10.623
68678W        W40971   1.823  21.056   3.716
68679W        W40972   4.895   3.720  12.376
68680W        W40973  42.468  44.913  11.406
68681W        W40974  41.522  18.123  13.537
68682W        W40975  37.004  43.845   4.270
68683W        W40976  25.193  35.526  10.892
68684W        W40977  25.019   8.290   3.750
68685W        W40978  40.383   0.411   4.818
68686W        W40979  35.567   8.358   0.913
68687W        W40980  32.947  18.064  14.293
68688W        W40981  13.263   3.859  13.352
68689W        W40982   5.795  23.058  10.601
68690W        W40983  22.500  30.513  13.023
68691W        W40984   0.355   3.377   2.853
68692W        W40985  11.727  19.703  11.584
68693W        W40986   2.369  20.047  13.023
68694W        W40987  26.157  19.706  14.342
68695W        W40988  34.896  23.643   2.763
68696W        W40989   8.381  13.669   4.170
68697W        W40990   8.737   8.742  11.105
68698W        W40991  18.125  22.572  13.485
68699W        W40992  28.676  12.685  12.575
68700W        W40993  11.337  10.647  12.431
68701W        W40994   7.673  16.759   3.682
68702W        W40995  23.695   8.713  14.825
68703W        W40996  42.349  44.796  10.121
68704W        W40997  21.754  23.071  10.603
68705W        W40998  18.648  37.991   2.882
68706W        W40999  36.083   2.929   3.759
68707W        W41000  38.331   5.857  11.110
68708W        W41001  21.225   1.742  13.538
68709W        W41002   0.979  25.974   4.290
68710W        W41003  23.522  43.907  12.542
68711W        W41004  33.065  38.863  14.872
68712W        W41005  43.409  22.582  11.025
68713W        W41006  20.239  39.981   4.266
68714W        W41007  30.481  25.512  11.478
68715W        W41008  12.780  29.055   1.347
68716W        W41009  23.630  42.488   4.243
68717W        W41010   4.388   8.212   3.379
68718W        W41011  42.801  10.865  14.958
68719W        W41012  18.708  22.189   0.876
68720W        W41013  30.434  13.203   1.759
68721W        W41014   8.900  32.405   5.288
68722W        W41015   9.845   0.274  13.399
68723W        W41016   9.886  36.589   3.793
68724W        W41017   6.742   4.386   4.173
68725W        W41018  23.003   6.850  12.928
68726W        W41019  39.382  27.550   4.735
68727W        W41020  30.932  12.337   1.934
68728W        W41021  16.742  32.473  11.103
68729W        W41022  15.637  34.610   2.210
68730W        W41023   3.827  44.301  14.882
68731W        W41024  16.591  17.700  12.852
68732W        W41025  27.499  24.478  13.878
68733W        W41026   4.312  20.584   0.350
68734W        W41027  15.643  26.165  14.006
68735W        W41028  10.673   0.385  12.406
68736W        W41029   7.748  22.174   1.742
68737W        W41030  13.783  19.251   0.772
68738W        W41031  20.037   8.272  13.335
68739W        W41032  44.933  38.898  12.081
68740W        W41033  24.698  16.621  14.907
68741W        W41034  27.083  19.221  11.043
68742W        W41035   9.202  40.541   2.417
68743W        W41036   9.841  21.116  12.840
68744W        W41037  19.647   6.778   0.284
68745W        W41038  10.379   8.896   2.196
68746W        W41039  28.533   1.799   4.161
68747W        W41040   7.856   6.681   0.265
68748W        W41041  26.178   9.672   1.323
68749W        W41042  21.561   7.744  14.842
68750W        W41043  38.559  38.919  13.956
68751W        W41044  35.052   0.928   2.757
68752W        W41045  32.462   5.224   4.325
68753W        W41046  28.438  29.021   2.710
68754W        W41047  25.560  10.273   1.822
68755W        W41048  35.575  34.980   1.738
68756W        W41049  10.329  23.993   0.289
68757W        W41050  10.808   1.347   1.845
68758W        W41051  43.831  18.156   3.192
68759W        W41052  37.393  21.165   0.425
68760W        W41053  12.833   4.318   4.137
68761W        W41054  33.576  43.932   2.778
68762W        W41055  22.044  44.370  11.055
68763W        W41056  38.882   0.491   1.746
68764W        W41057  36.882  23.238   3.301
68765W        W41058   7.294  36.884  13.888
68766W        W41059   9.313  23.564   0.849
68767W        W41060  29.638  28.972   0.477
68768W        W41061  41.440  16.084   2.221
68769W        W41062  15.268  36.405   4.675
68770W        W41063  17.207  42.412   2.711
68771W        W41064  31.144  22.235   1.760
68772W        W41065  37.836  11.326   3.308
68773W        W41066  35.053  25.492   2.848
68774W        W41067  16.088  44.876  12.530
68775W        W41068   2.309  10.381  11.108
68776W        W41069  24.004   2.440  14.791
68777W        W41070  42.958   5.826  12.361
68778W        W41071  42.914  16.221   0.374
68779W        W41072  41.476  11.662   1.351
68780W        W41073  42.844   8.230  13.942
68781W        W41074  34.950   8.862  13.899
68782W        W41075  34.600  15.311   3.155
68783W        W41076  36.498  24.028   1.782
68784W        W41077  37.497  23.544  11.079
68785W        W41078  20.212   0.413  11.989
68786W        W41079  34.891  41.832  14.805
68787W        W41080  33.441  33.917   3.378
68788W        W41081  44.870  22.168  14.302
68789W        W41082  42.913  44.947   5.087
68790W        W41083  14.718   1.395   1.424
68791W        W41084  43.981  39.317   3.381
68792W        W41085  30.060  23.232  12.059
68793W        W41086  26.991  34.608   3.638
68794W        W41087  34.003  42.832   0.264
68795W        W41088  11.633  29.444   3.249
68796W        W41089  30.562   6.318   1.362
68797W        W41090  27.988  22.230   2.207
68798W        W41091  22.174  41.914   0.372
68799W        W41092  34.919   0.265  13.833
68800W        W41093  44.818  34.494   2.684
68801W        W41094   3.230  29.991  13.933
68802W        W41095  19.283  14.659  10.974
68803W        W41096   2.860  19.757  13.862
68804W        W41097  31.615  20.683   1.709
68805W        W41098   2.382  38.918   1.337
68806W        W41099   0.411   4.394   1.842
68807W        W41100   7.759  20.711  14.909
68808W        W41101  31.010  24.216  11.049
68809W        W41102  34.514  38.063   1.712
68810W        W41103  16.120  41.408  12.032
68811W        W41104  17.599  17.287   4.823
68812W        W41105  21.162  30.568   0.961
68813W        W41106  24.559  32.580  12.068
68814W        W41107   3.384   7.781  11.585
68815W        W41108  32.443  41.967   1.847
68816W        W41109   4.263  21.141   0.856
68817W        W41110   6.681  14.646   0.860
68818W        W41111  17.287  21.220  10.895
68819W        W41112   5.420  36.866   2.204
68820W        W41113  39.062  30.992  12.828
68821W        W41114  38.486  42.028  14.291
68822W        W41115  17.267  34.926   1.287
68823W        W41116   7.732  29.516  12.030
68824W        W41117  24.650  25.617   0.930
68825W        W41118  20.524  25.155   0.441
68826W        W41119  28.493  32.890   1.702
68827W        W41120  43.913  22.068  11.508
68828W        W41121   4.413  10.367   2.215
68829W        W41122  10.814  18.281  10.628
68830W        W41123   7.367  11.308  11.420
68831W        W41124  35.584  25.055  14.897
68832W        W41125  18.292  21.633  11.918
68833W        W41126  10.348  28.476  12.937
68834W        W41127   1.775  23.997   0.371
68835W        W41128  12.297  19.573  11.520
68836W        W41129  40.863  21.247   4.206
68837W        W41130  37.988  17.212   1.230
68838W        W41131   2.760  20.690  14.301
68839W        W41132  27.180  25.143   0.474
68840W        W41133  42.961  18.203   2.867
68841W        W41134   9.275  26.005   3.760
68842W        W41135  10.781  31.012  12.464
68843W        W41136  19.767   4.326  13.849
68844W        W41137   1.338  36.352  10.912
68845W        W41138  13.239   2.436   9.537
68846W        W41139  18.700  41.001  11.070
68847W        W41140  23.509  27.185   0.431
68848W        W41141  31.027   7.773  13.329
68849W        W41142  26.523  32.103  11.980
68850W        W41143   3.802  27.610  14.325
68851W        W41144   9.760  10.813  12.973
68852W        W41145  26.109   6.214   4.820
68853W        W41146  12.127   3.357  11.386
68854W        W41147  15.099  23.067   1.859
68855W        W41148  40.899   9.294   1.735
68856W        W41149   0.335  13.734  13.503
68857W        W41150  27.576   7.716   1.400
68858W        W41151  13.195  29.019   3.347
68859W        W41152  24.152  19.585   2.787
68860W        W41153  21.056  18.784  12.382
68861W        W41154  43.412  41.008  11.995
68862W        W41155  18.129   3.854  11.903
68863W        W41156   6.249  16.792  14.467
68864W        W41157  44.008   2.236  11.593
68865W        W41158  40.341  23.658  12.407
68866W        W41159  15.811  14.215   1.402
68867W        W41160  21.540   3.885   4.663
68868W        W41161  25.113  20.040  14.415
68869W        W41162  23.990  29.657   4.164
68870W        W41163  20.064  39.934  10.134
68871W        W41164  23.572  14.297   4.718
68872W        W41165  10.717  30.575   4.722
68873W        W41166   8.732   7.294   0.726
68874W        W41167  42.871  37.494   0.907
68875W        W41168  10.715   2.332   4.786
68876W        W41169  34.556  39.939  10.634
68877W        W41170  12.151   9.358   1.853
68878W        W41171  24.558  28.539   0.735
68879W        W41172  12.277   1.852  10.947
68880W        W41173  33.495  35.956  10.901
68881W        W41174  12.685  18.591   1.928
68882W        W41175   4.226  32.025   2.873
68883W        W41176  22.024  21.158  12.944
68884W        W41177  11.217  43.986  14.857
68885W        W41178  22.213  25.628   3.370
68886W        W41179  10.207   3.219  14.762
68887W        W41180  39.410  17.157  11.572
68888W        W41181   7.750  22.996  12.886
68889W        W41182  21.071  23.208  11.948
68890W        W41183  18.172  24.622   4.681
68891W        W41184  34.975  36.093   3.659
68892W        W41185  38.557  36.029  10.455
68893W        W41186   0.902  37.459   9.959
68894W        W41187  40.442  28.552   1.443
68895W        W41188  19.061  43.290   3.212
68896W        W41189  29.601  35.088   3.242
68897W        W41190  27.517  20.192   4.775
68898W        W41191  22.230   8.396  11.434
68899W        W41192  20.635  20.565  13.428
68900W        W41193  34.603  44.503  13.310
68901W        W41194  30.442   9.756  14.452
68902W        W41195  36.384   4.259  14.031
68903W        W41196  23.016  11.160  11.088
68904W        W41197  42.431  16.692   0.854
68905W        W41198  32.970  12.152  12.539
68906W        W41199  19.641  34.881   4.747
68907W        W41200  31.022   9.347  10.100
68908W        W41201   8.693  44.896   1.852
68909W        W41202  16.806  37.024   0.773
68910W        W41203  32.085  17.253  12.983
68911W        W41204  38.867  41.042   3.281
68912W        W41205  41.977  43.345  11.063
68913W        W41206  21.231   4.866   3.866
68914W        W41207  16.671   2.768  11.879
68915W        W41208  23.632   0.401  11.433
68916W        W41209  23.578  35.061   3.732
68917W        W41210  31.141  12.855  13.431
68918W        W41211   6.251  34.606  10.119
68919W        W41212  16.111  27.988  12.086
68920W        W41213  25.975  23.495   3.232
68921W        W41214  10.207  39.043   4.603
68922W        W41215  19.063   3.444   1.833
68923W        W41216   9.245  32.614   1.761
68924W        W41217  20.697  35.856   0.384
68925W        W41218  12.358   4.440  14.947
68926W        W41219  12.654  28.093   2.683
68927W        W41220  31.140  41.795  10.979
68928W        W41221  37.554  22.528   1.222
68929W        W41222  12.744  37.992   1.837
68930W        W41223  37.467   1.966  11.974
68931W        W41224  24.186   4.239   5.263
68932W        W41225  11.839  24.078  13.389
68933W        W41226  30.088  33.934   4.614
68934W        W41227  17.743  30.489  11.440
68935W        W41228   1.756  26.200  10.966
68936W        W41229   5.907  44.390  14.321
68937W        W41230  42.845  16.641  10.557
68938W        W41231  11.861  33.480  13.523
68939W        W41232  43.899  23.552  13.020
68940W        W41233  32.096  32.432   0.755
68941W        W41234   1.324  12.627   2.404
68942W        W41235  21.723  21.746   1.436
68943W        W41236  38.369  40.021   2.347
68944W        W41237  24.216  33.012   2.265
68945W        W41238   1.411  27.004   4.299
68946W        W41239  19.128  41.479   2.194
68947W        W41240   0.742  40.940   0.471
68948W        W41241  14.318  28.018  13.483
68949W        W41242  28.082   3.419   1.903
68950W        W41243  42.320  15.211  14.009
68951W        W41244  10.295  28.627   2.343
68952W        W41245  32.412   1.942  10.083
68953W        W41246  28.096  34.588  14.876
68954W        W41247  44.308   2.292   2.838
68955W        W41248  10.380  31.623   2.333
68956W        W41249  43.930  39.044   3.753
68957W        W41250   4.219  25.032  11.513
68958W        W41251  29.499  42.996   4.652
68959W        W41252  25.209  29.152  11.085
68960W        W41253  21.607  26.638   0.448
68961W        W41254  16.309  19.569   0.449
68962W        W41255  37.402   1.319   3.791
68963W        W41256  34.514  28.669   0.258
68964W        W41257  25.115  34.497   1.798
68965W        W41258  18.686  42.489  13.534
68966W        W41259  13.785  16.253   3.729
68967W        W41260  12.639  13.608  11.524
68968W        W41261  21.547   8.879  13.875
68969W        W41262  40.319   1.744  14.365
68970W        W41263  24.608   2.815  10.095
68971W        W41264  29.606  42.859  12.945
68972W        W41265   4.704  29.058  14.785
68973W        W41266  17.570  13.796  11.398
68974W        W41267  21.698  14.783   2.184
68975W        W41268  24.484  14.635  11.563
68976W        W41269  37.833  10.662   3.299
68977W        W41270  15.151  44.986  11.945
68978W        W41271   5.253  40.000   4.289
68979W        W41272  27.671  14.310   0.258
68980W        W41273  13.842  18.198  14.321
68981W        W41274  11.309  34.425   0.439
68982W        W41275   3.928   9.318  14.851
68983W        W41276  35.965   7.730  13.972
68984W        W41277   5.339   8.852  12.860
68985W        W41278  28.947  25.171   0.446
68986W        W41279   8.760   8.844   3.674
68987W        W41280   2.903  42.309  13.865
68988W        W41281   2.830  13.303   1.348
68989W        W41282  33.612  41.855   3.365
68990W        W41283  18.112  38.915  10.524
68991W        W41284  33.028   7.820   1.398
68992W        W41285  22.181  32.540  12.967
68993W        W41286  19.042  25.158  13.055
68994W        W41287  18.715  36.573   3.226
68995W        W41288  38.518  17.298  10.602
68996W        W41289   8.260  41.503  10.887
68997W        W41290   0.962  19.666   4.153
68998W        W41291  39.896   3.773  13.841
68999W        W41292  18.772   1.381   0.431
69000W        W41293  24.029   6.870   2.236
69001W        W41294   7.729  18.052   0.300
69002W        W41295  20.523   5.719  13.980
69003W        W41296   2.456  12.284   2.860
69004W        W41297  11.279  33.062  12.540
69005W        W41298  11.772   3.776   4.307
69006W        W41299  10.141  32.089  14.506
69007W        W41300  44.928  27.507   4.247
69008W        W41301  19.262   2.931  13.993
69009W        W41302  23.013  23.709   1.897
69010W        W41303  14.713  15.629   0.422
69011W        W41304  13.722  13.150  11.580
69012W        W41305  36.446  38.525  13.960
69013W        W41306   8.677  12.260  11.374
69014W        W41307  11.762  41.372   0.804
69015W        W41308  11.236   4.204   4.742
69016W        W41309  15.783   2.436   4.209
69017W        W41310  44.276  43.368   9.985
69018W        W41311  16.221  37.840   3.833
69019W        W41312  14.171  38.827  13.040
69020W        W41313  38.465  13.269   3.721
69021W        W41314  29.431  21.540   2.258
69022W        W41315  21.604  18.751   4.297
69023W        W41316  29.468  38.372   1.785
69024W        W41317   1.864  39.857   2.413
69025W        W41318  21.669  42.001  10.612
69026W        W41319  24.981  36.495   3.267
69027W        W41320  43.460  11.371  14.013
69028W        W41321  43.423  31.624  14.764
69029W        W41322  40.998   8.813  13.378
69030W        W41323  30.016  43.006  12.838
69031W        W41324  35.547  17.267  13.999
69032W        W41325  33.012  15.815  14.365
69033W        W41326  26.206  17.150  12.571
69034W        W41327  37.071  33.878   3.199
69035W        W41328  43.502  12.175  11.096
69036W        W41329  16.575   3.379  12.825
69037W        W41330  11.726  36.436  12.363
69038W        W41331  40.898   0.428  10.968
69039W        W41332   0.989  36.986  14.899
69040W        W41333   6.896   3.234  11.051
69041W        W41334  44.827   0.301  10.450
69042W        W41335   3.318  13.815   1.717
69043W        W41336  39.503  33.532  11.015
69044W        W41337   4.732  25.629   3.152
69045W        W41338  34.458  30.936  14.435
69046W        W41339  31.419  41.471  11.511
69047W        W41340  15.126  31.528  14.504
69048W        W41341  29.473  24.187  10.555
69049W        W41342  23.111   1.464   4.145
69050W        W41343  19.196  25.003  12.382
69051W        W41344   2.902   0.491   0.914
69052W        W41345   0.914   0.783   3.752
69053W        W41346  19.598  24.587  11.967
69054W        W41347   4.217  43.394  12.452
69055W        W41348  31.485  40.354   2.824
69056W        W41349  33.581  33.562   2.255
69057W        W41350  31.635  37.950   3.191
69058W        W41351  19.541  21.674  10.928
69059W        W41352  38.913  14.256  11.456
69060W        W41353  44.821  37.920   4.767
69061W        W41354  15.750  11.278   3.831
69062W        W41355  38.856  40.508   3.342
69063W        W41356  43.403  13.731  14.779
69064W        W41357  31.122  29.122   4.624
69065W        W41358  20.545  43.515   0.365
69066W        W41359  37.966  22.714   1.821
69067W        W41360  24.014  25.129   4.251
69068W        W41361  28.040  44.886  13.334
69069W        W41362  10.201  11.741   1.229
69070W        W41363  20.061  43.391   0.374
69071W        W41364  38.013  24.038  11.024
69072W        W41365  21.668  22.137  13.397
69073W        W41366  44.449  40.430  11.438
69074W        W41367  35.574  12.207   0.960
69075W        W41368  25.203  41.852  10.940
69076W        W41369  24.125  14.151  12.030
69077W        W41370  41.796  15.635   3.697
69078W        W41371  12.801  33.088  11.540
69079W        W41372  28.971  21.710   0.279
69080W        W41373  13.684  15.603   2.352
69081W        W41374  42.448  23.135   4.636
69082W        W41375  31.547  34.453  13.478
69083W        W41376  25.648  30.990   4.288
69084W        W41377   3.377   4.872   1.248
69085W        W41378  15.157   3.322  13.832
69086W        W41379  41.931   4.768   4.248
69087W        W41380  36.464  23.126   1.267
69088W        W41381   4.255  30.975  11.055
69089W        W41382  38.379  16.272   0.946
69090W        W41383   3.836   1.270   1.253
69091W        W41384  42.014   5.372  13.903
69092W        W41385   5.230  34.535  11.516
69093W        W41386  19.073  21.656  12.491
69094W        W41387  22.560  21.512   1.307
69095W        W41388  19.590  36.418  11.562
69096W        W41389   8.718  12.243   2.824
69097W        W41390   8.213  21.218  10.160
69098W        W41391  28.152  18.106   1.260
69099W        W41392   9.679  43.838   0.451
69100W        W41393  18.695  26.075  13.830
69101W        W41394   7.174   1.964   1.697
69102W        W41395  31.077  15.695  12.427
69103W        W41396  27.956  36.499  11.458
69104W        W41397   0.770  25.556   2.391
69105W        W41398   3.921   0.801   0.428
69106W        W41399   7.180  42.458  13.899
69107W        W41400  17.239  26.989   1.294
69108W        W41401  27.046  20.103   2.412
69109W        W41402   8.660  15.195  10.639
69110W        W41403  17.603  21.537   1.326
69111W        W41404  29.668  21.094  11.606
69112W        W41405  17.121  35.389   3.849
69113W        W41406  19.262  18.664   3.318
69114W        W41407  19.100  11.197   2.734
69115W        W41408   0.900  16.189   2.670
69116W        W41409  42.819  32.081   1.878
69117W        W41410  44.446  25.126   1.756
69118W        W41411  25.027  23.571  14.805
69119W        W41412  25.186  38.561  11.122
69120W        W41413  29.562  33.988   0.961
69121W        W41414  14.127  24.590   1.929
69122W        W41415  36.085  15.210   0.274
69123W        W41416  18.662   6.324   1.364
69124W        W41417  13.235   9.673   0.458
69125W        W41418  17.791  23.711   1.710
69126W        W41419  29.131  18.234  12.960
69127W        W41420  41.450  22.203  12.504
69128W        W41421   4.370  39.879  12.394
69129W        W41422   4.422   7.751  14.359
69130W        W41423   4.717  42.527  11.874
69131W        W41424  30.521   6.754  12.926
69132W        W41425  25.133  11.216  12.056
69133W        W41426  15.195  12.239  13.009
69134W        W41427   5.433  18.751  11.084
69135W        W41428   0.927  42.503   4.127
69136W        W41429  31.515  14.747  12.391
69137W        W41430   3.440  29.052   4.797
69138W        W41431  15.141  41.467  10.621
69139W        W41432  10.773  32.478  13.894
69140W        W41433  27.471   2.725   3.694
69141W        W41434  40.831  38.046   1.289
69142W        W41435  27.532  29.088   3.798
69143W        W41436  40.330  31.899  12.880
69144W        W41437  30.012  33.402   1.216
69145W        W41438  23.216  42.491  11.537
69146W        W41439  16.284   4.347  13.994
69147W        W41440  31.118  17.795  13.514
69148W        W41441  16.100  37.011   2.185
69149W        W41442  21.606  38.944  12.436
69150W        W41443  25.110  15.707  14.413
69151W        W41444  25.207   2.825   4.157
69152W        W41445   5.780  17.641  12.044
69153W        W41446  13.110  26.608  12.395
69154W        W41447  41.008  20.583   2.689
69155W        W41448   7.402   4.901  14.350
69156W        W41449  11.187  40.431  12.843
69157W        W41450   9.393  32.013  11.975
69158W        W41451  38.970  31.642   3.367
69159W        W41452   8.765  11.196  10.943
69160W        W41453   7.343   0.926  13.435
69161W        W41454   0.870  28.649   4.777
69162W        W41455  10.867  28.595  11.086
69163W        W41456  33.595  21.615   0.871
69164W        W41457  32.502  20.599  11.001
69165W        W41458   0.431   8.772  10.939
69166W        W41459  29.572  20.153   2.767
69167W        W41460  36.956  27.145  12.563
69168W        W41461  39.534  25.622  14.329
69169W        W41462  19.603  11.665  12.418
69170W        W41463   6.372   2.459  10.460
69171W        W41464   4.334  22.182  11.911
69172W        W41465   8.397  30.648  11.501
69173W        W41466  12.233   3.219   2.836
69174W        W41467  34.034  42.425  10.483
69175W        W41468  21.513  26.111  12.496
69176W        W41469  31.455  40.511   4.602
69177W        W41470  23.609  43.788   4.638
69178W        W41471  24.635  37.351   0.742
69179W        W41472  11.832  28.025   4.738
69180W        W41473  25.073  41.932  10.456
69181W        W41474  16.244  41.863  14.921
69182W        W41475   4.324  10.373   4.153
69183W        W41476  16.275  13.658  11.011
69184W        W41477   0.326  27.548  12.934
69185W        W41478   5.769  37.994   3.156
69186W        W41479  35.071  11.177  13.818
69187W        W41480  24.634   5.738  14.327
69188W        W41481  11.127  36.520   0.774
69189W        W41482  34.979  33.437   2.364
69190W        W41483  29.024  33.005  14.979
69191W        W41484  38.823  39.394   0.472
69192W        W41485   4.247  22.058  14.888
69193W        W41486  42.461   0.425   1.818
69194W        W41487  43.840  15.777   3.840
69195W        W41488  35.029  12.712   0.920
69196W        W41489  27.593  42.977   0.354
69197W        W41490   4.867  19.242   1.346
69198W        W41491  11.214  37.971   2.721
69199W        W41492  35.487  11.722   4.715
69200W        W41493  25.120  40.894  14.423
69201W        W41494   9.251  12.767   1.775
69202W        W41495  31.051  31.492  14.312
69203W        W41496  35.525  34.112   3.700
69204W        W41497  24.722  15.329  14.474
69205W        W41498  15.590  21.703  11.035
69206W        W41499  14.772  13.658  13.838
69207W        W41500  20.138  36.857  11.946
69208W        W41501  31.948  33.381   1.366
69209W        W41502  38.481  21.215   0.252
69210W        W41503   5.744  14.139   1.413
69211W        W41504   3.447   9.735   2.868
69212W        W41505  39.036   6.690   4.743
69213W        W41506  22.629  15.740  10.572
69214W        W41507  31.460  41.522  12.489
69215W        W41508  13.767   1.331   0.321
69216W        W41509  15.648   6.288   1.221
69217W        W41510  26.564   6.253   3.380
69218W        W41511  28.466  22.586  13.344
69219W        W41512  27.493   2.359  11.475
69220W        W41513  14.239  35.052   5.304
69221W        W41514   7.222  28.579  11.936
69222W        W41515  25.036  36.355  13.446
69223W        W41516   9.830  19.544  13.969
69224W        W41517  24.694  25.061  14.820
69225W        W41518  19.586  28.479  12.043
69226W        W41519  14.602   5.831  12.892
69227W        W41520  24.989   8.228   1.219
69228W        W41521   7.883   0.844  12.891
69229W        W41522  13.814   3.945  10.930
69230W        W41523  39.040  14.204  13.063
69231W        W41524  38.039  13.281  10.635
69232W        W41525  37.919  18.768   3.229
69233W        W41526  15.782  37.915  10.473
69234W        W41527  31.550   5.792  12.579
69235W        W41528   0.403  33.075  10.599
69236W        W41529  18.241   3.284   0.459
69237W        W41530  25.162  22.574  11.010
69238W        W41531  13.740  21.121  14.782
69239W        W41532   6.896  35.004   4.336
69240W        W41533  18.112  33.485   3.156
69241W        W41534  38.972  11.372   4.788
69242W        W41535  32.036  16.186  13.366
69243W        W41536  20.031  13.644  10.992
69244W        W41537  23.159   1.757  14.807
69245W        W41538  11.686  13.685  14.025
69246W        W41539  34.585  30.072  13.534
69247W        W41540  33.069  37.510  13.815
69248W        W41541  15.725  30.595  11.406
69249W        W41542   5.728  32.603  11.497
69250W        W41543  34.916  37.843  13.427
69251W        W41544  22.227  20.605  14.977
69252W        W41545   8.217  23.566   0.735
69253W        W41546  39.923  36.877  14.407
69254W        W41547  17.220   2.894  11.994
69255W        W41548  19.759  28.482   1.891
69256W        W41549  40.392  30.540   1.930
69257W        W41550   8.658  27.013   5.137
69258W        W41551  41.887  23.111   3.211
69259W        W41552  26.195  14.156   0.924
69260W        W41553  43.306  37.887   0.759
69261W        W41554  39.868  29.119   0.865
69262W        W41555   8.723  37.478  11.966
69263W        W41556  12.733  27.162  11.878
69264W        W41557  39.992  11.360  14.765
69265W        W41558  20.242   4.321   0.409
69266W        W41559  25.480  17.140   4.628
69267W        W41560  32.590   3.821  14.952
69268W        W41561  37.481   0.314  13.423
69269W        W41562  40.973   2.922  12.366
69270W        W41563  28.155  31.617   4.812
69271W        W41564   6.748  15.673   0.960
69272W        W41565   6.741   9.839   0.960
69273W        W41566  16.274  20.070  11.411
69274W        W41567  41.037   1.782   2.227
69275W        W41568  26.590  39.908  11.520
69276W        W41569  23.109  25.523  12.871
69277W        W41570  12.292  16.582   1.727
69278W        W41571  17.719  32.927   4.188
69279W        W41572  25.043  19.697   0.356
69280W        W41573  43.340  16.197   4.313
69281W        W41574  13.326   8.180   1.406
69282W        W41575  10.324  42.002  11.867
69283W        W41576  31.468  28.459  13.386
69284W        W41577  17.700  14.094  14.031
69285W        W41578  16.293  10.238  14.894
69286W        W41579   9.758  35.589  14.968
69287W        W41580  19.067  17.632  11.890
69288W        W41581  12.270   2.962  14.310
69289W        W41582  25.671   6.183  10.600
69290W        W41583  40.448  10.660   3.827
69291W        W41584  43.334  14.638  12.914
69292W        W41585  38.384  44.440  11.484
69293W        W41586  19.651  13.765   3.282
69294W        W41587  37.464  30.602   0.901
69295W        W41588  28.497  33.013   2.383
69296W        W41589  43.411  14.111   1.443
69297W        W41590  24.491  17.268   2.321
69298W        W41591  35.978  15.085   3.818
69299W        W41592  28.439  13.124   3.313
69300W        W41593  10.348  26.022   3.867
69301W        W41594  44.866  44.371   2.267
69302W        W41595   7.300  39.355   3.244
69303W        W41596  14.834  22.723   2.872
69304W        W41597  11.196  14.174  12.953
69305W        W41598   9.669   1.363   3.272
69306W        W41599  14.681  11.314  14.476
69307W        W41600  12.807  28.127  11.546
69308W        W41601  35.901  33.498   4.633
69309W        W41602  28.681  18.579   4.154
69310W        W41603  17.771  18.277  11.975
69311W        W41604  16.311   1.880  11.942
69312W        W41605  28.002  42.384   0.313
69313W        W41606  43.420  27.449   4.755
69314W        W41607  36.053  43.949  12.910
69315W        W41608  43.886  17.595  10.560
69316W        W41609   7.730  24.164  11.446
69317W        W41610  41.397   8.807   0.864
69318W        W41611   4.379  34.025   0.362
69319W        W41612  25.159  43.812  14.874
69320W        W41613  32.534  41.457   1.296
69321W        W41614  22.510  10.738   1.348
69322W        W41615  14.661  41.307  12.415
69323W        W41616  42.978  12.789  11.106
69324W        W41617  17.756  30.563   3.862
69325W        W41618  20.175  22.148   5.699
69326W        W41619  10.703   0.928   3.752
69327W        W41620   9.704  44.904   4.735
69328W        W41621  18.078   9.294   2.681
69329W        W41622  19.228  32.065   0.957
69330W        W41623  23.507  44.932   3.330
69331W        W41624  30.946  26.066   0.833
69332W        W41625  35.993  41.341   1.739
69333W        W41626  24.164  15.138  12.370
69334W        W41627  20.274  32.440   4.155
69335W        W41628  14.750  25.504   1.416
69336W        W41629   1.324  20.098   2.882
69337W        W41630   3.262  11.154  14.812
69338W        W41631  10.241  19.090   1.925
69339W        W41632  12.333  44.830   1.699
69340W        W41633  12.275  44.872  14.985
69341W        W41634  15.755  36.850   5.115
69342W        W41635  41.924  13.802   1.310
69343W        W41636   6.201  37.065   2.187
69344W        W41637  11.294   4.233  10.913
69345W        W41638  44.971   2.806  13.064
69346W        W41639  21.017  14.733  14.950
69347W        W41640  30.001  19.100  14.887
69348W        W41641  35.054  32.567  12.987
69349W        W41642  17.104  44.929  12.964
69350W        W41643  13.116   9.733  13.869
69351W        W41644  37.465  33.502   2.794
69352W        W41645  33.602  27.474  10.072
69353W        W41646  10.864  26.993  11.591
69354W        W41647  21.530  33.382  14.939
69355W        W41648  27.669  37.949   3.273
69356W        W41649  42.856  35.106   2.832
69357W        W41650  24.668  33.070   2.273
69358W        W41651  31.538   0.325  12.341
69359W        W41652  40.359  41.297   4.673
69360W        W41653  41.814   5.836  13.840
69361W        W41654  38.411  14.311  12.406
69362W        W41655  10.778   8.873   3.708
69363W        W41656  29.523  34.521  13.847
69364W        W41657   1.337  39.940   3.271
69365W        W41658   5.341  33.082  11.576
69366W        W41659  18.189  29.066  12.955
69367W        W41660  22.019  40.544   3.811
69368W        W41661   7.753  22.683   4.794
69369W        W41662  13.827  14.673   3.334
69370W        W41663   6.320   7.267  10.418
69371W        W41664  26.033  37.399  11.374
69372W        W41665   3.437  35.524  14.843
69373W        W41666   2.794   2.439  12.349
69374W        W41667   4.762  19.725   2.797
69375W        W41668   7.232   9.232   3.778
69376W        W41669  43.866   7.793   3.318
69377W        W41670   9.340  37.446  10.932
69378W        W41671  23.501  43.878  14.813
69379W        W41672  28.182  14.623  11.030
69380W        W41673  29.930  44.753  13.424
69381W        W41674  21.623  14.277   3.652
69382W        W41675  30.935  32.977  12.878
69383W        W41676   6.726  33.502   4.256
69384W        W41677   8.288  19.221   2.733
69385W        W41678  40.392  32.021   2.376
69386W        W41679   2.375  25.003  10.983
69387W        W41680   0.885  40.479   4.354
69388W        W41681  19.096  25.994  11.090
69389W        W41682  28.628  35.484   1.839
69390W        W41683   6.788  15.215   0.469
69391W        W41684   9.846  22.178  10.453
69392W        W41685  27.987  43.920  12.016
69393W        W41686  33.010   4.336  12.875
69394W        W41687  29.532  43.941   2.821
69395W        W41688  28.108  35.573   1.795
69396W        W41689  29.567   0.364   4.307
69397W        W41690   7.250  34.551  11.984
69398W        W41691  19.153  35.913   1.729
69399W        W41692  31.513  31.437  12.823
69400W        W41693  22.701  17.617  12.078
69401W        W41694  17.744  44.962   0.831
69402W        W41695  39.820  17.610   3.211
69403W        W41696  40.439   2.735  13.029
69404W        W41697  13.841  10.338  11.864
69405W        W41698  29.577   6.382  13.998
69406W        W41699  27.021  37.964   4.149
69407W        W41700   2.767  35.861  12.390
69408W        W41701  41.503  44.775   5.289
69409W        W41702  31.424  22.052  14.304
69410W        W41703  41.034   7.787   4.747
69411W        W41704  40.025  44.795   5.089
69412W        W41705  36.916  28.972   2.805
69413W        W41706   8.898   0.837   4.662
69414W        W41707  16.319  16.157  13.815
69415W        W41708  44.483   3.443   4.348
69416W        W41709  36.379  33.617   2.344
69417W        W41710  42.789  16.797   0.345
69418W        W41711  27.124  27.500   1.433
69419W        W41712  13.633  18.201   2.281
69420W        W41713   9.283  40.351  10.097
69421W        W41714  26.631  21.602  10.453
69422W        W41715  40.952   9.660  11.438
69423W        W41716  35.383  23.161   1.772
69424W        W41717  29.582  30.102   4.693
69425W        W41718  35.892  21.253  10.492
69426W        W41719  27.037  31.616   3.334
69427W        W41720  36.505   7.758  12.908
69428W        W41721   7.897  29.133   1.268
69429W        W41722  24.490  28.092   0.831
69430W        W41723  18.141  43.992  12.446
69431W        W41724  42.854   1.441  11.484
69432W        W41725  10.305  27.182  11.408
69433W        W41726  22.235  36.946  11.978
69434W        W41727  21.756  29.973  13.934
69435W        W41728  30.118   9.728   2.211
69436W        W41729  10.283  33.624   4.255
69437W        W41730   3.732  25.002  14.925
69438W        W41731  41.955  32.946  12.865
69439W        W41732  36.957   7.258   4.823
69440W        W41733  39.353  34.982  10.439
69441W        W41734  22.689  17.750  11.400
69442W        W41735  41.977  36.932  10.509
69443W        W41736  11.732   5.874  14.875
69444W        W41737  41.860  20.147  10.639
69445W        W41738  39.838   2.800   1.318
69446W        W41739  15.166  31.107   4.202
69447W        W41740  34.079  40.519  10.595
69448W        W41741  23.984   2.367  12.507
69449W        W41742  33.541  37.404   0.384
69450W        W41743  33.521  35.367  12.552
69451W        W41744  28.618  15.300  12.504
69452W        W41745  17.141   0.932   3.765
69453W        W41746  32.124  20.101   5.152
69454W        W41747  24.997   2.462  10.912
69455W        W41748   0.265  20.168  12.495
69456W        W41749   5.250  28.028  10.958
69457W        W41750  19.587  23.156  12.963
69458W        W41751   3.842  30.427   1.314
69459W        W41752  24.702  21.179   1.800
69460W        W41753  36.478  42.340   0.941
69461W        W41754  14.775  39.004   3.281
69462W        W41755  10.808  37.385  10.507
69463W        W41756  41.527  22.728   0.461
69464W        W41757  37.534  20.743   2.340
69465W        W41758  33.050  34.406  11.429
69466W        W41759  38.371  30.161  11.950
69467W        W41760  24.208  30.077   1.293
69468W        W41761  43.008   8.176   4.296
69469W        W41762  36.541  39.542   3.631
69470W        W41763   5.753   0.443   3.683
69471W        W41764  17.723   3.847   2.347
69472W        W41765   6.803  29.618  12.026
69473W        W41766  33.566  32.136   5.303
69474W        W41767  11.333  12.758   3.163
69475W        W41768  23.063  36.845   0.860
69476W        W41769  44.008  19.273  14.488
69477W        W41770  26.163  10.760  11.061
69478W        W41771  14.785   1.876  10.936
69479W        W41772  34.120   2.926  13.971
69480W        W41773  43.005  20.136   0.923
69481W        W41774  22.015  41.297  13.877
69482W        W41775  17.181  42.907  10.545
69483W        W41776  12.627  32.948  13.473
69484W        W41777  17.760  23.597   1.383
69485W        W41778  13.272  42.008  12.933
69486W        W41779  31.925   6.267  14.406
69487W        W41780  14.811  38.493  11.006
69488W        W41781   7.182  12.174   3.763
69489W        W41782  14.199  22.027   3.767
69490W        W41783   7.859  41.501  12.853
69491W        W41784  35.488  41.012   4.619
69492W        W41785  39.042  39.881   4.152
69493W        W41786  36.068  26.560   3.864
69494W        W41787  22.142  31.640   1.438
69495W        W41788  31.978  25.996   0.882
69496W        W41789  18.726  27.151  11.555
69497W        W41790  21.543  31.525  11.883
69498W        W41791  36.374  35.866   1.746
69499W        W41792  13.154  23.683  13.343
69500W        W41793  41.384  18.220   5.717
69501W        W41794  40.833  16.205  12.360
69502W        W41795  20.065  30.634  14.941
69503W        W41796  21.044  12.753   0.959
69504W        W41797   9.248   4.855  10.897
69505W        W41798  32.519  30.970   0.925
69506W        W41799  39.981  39.469   0.823
69507W        W41800  25.681   3.270   0.434
69508W        W41801  39.543   8.698   2.220
69509W        W41802   0.299  15.227   1.391
69510W        W41803  44.260  26.106   4.804
69511W        W41804  33.509  42.400   1.797
69512W        W41805  38.053  25.187   4.809
69513W        W41806  37.002  22.585   2.274
69514W        W41807  15.698  22.542   2.693
69515W        W41808  37.068   3.351  10.577
69516W        W41809   1.353   7.209  13.984
69517W        W41810  24.037  18.062  11.484
69518W        W41811  43.853  42.285  12.974
69519W        W41812   6.679   4.876  12.453
69520W        W41813  33.420  33.981   0.781
69521W        W41814   7.317   6.829  13.828
69522W        W41815  28.585  41.305   3.172
69523W        W41816  20.653   1.257   4.288
69524W        W41817  37.028  41.336   1.825
69525W        W41818  17.169  29.594  14.898
69526W        W41819  25.502  35.542   3.155
69527W        W41820   7.356   4.870  13.387
69528W        W41821  24.023  20.630   0.855
69529W        W41822  18.726  28.558   1.708
69530W        W41823  31.542   4.788   4.284
69531W        W41824  40.015  16.116  14.911
69532W        W41825  32.556   5.349  11.448
69533W        W41826  43.856   5.919   0.796
69534W        W41827  25.180  31.915   2.877
69535W        W41828  15.289  32.412  11.590
69536W        W41829  28.168  25.536  14.789
69537W        W41830  34.955  32.584   4.670
69538W        W41831  22.163  44.260   4.786
69539W        W41832  41.438  17.247   1.760
69540W        W41833  30.011  15.268  11.429
69541W        W41834  25.158  20.658  12.544
69542W        W41835  20.763  15.583   0.966
69543W        W41836  32.521  10.655   0.267
69544W        W41837  17.201   6.333  13.793
69545W        W41838  36.967   6.224   4.798
69546W        W41839  18.700  38.555  10.444
69547W        W41840  36.983  13.655  12.459
69548W        W41841  44.793   3.846   0.328
69549W        W41842   1.920  21.642   4.670
69550W        W41843   8.774  24.645   3.642
69551W        W41844   3.253  21.224   4.221
69552W        W41845  30.608  14.201   3.183
69553W        W41846   4.937   7.376   2.181
69554W        W41847   1.738  23.001  11.915
69555W        W41848  30.067   8.817   0.857
69556W        W41849  29.945  15.736   2.328
69557W        W41850  16.713  25.171  14.410
69558W        W41851   8.359   1.816  11.557
69559W        W41852  43.318  18.117   3.772
69560W        W41853  27.520  22.636  11.564
69561W        W41854   5.886  24.617  11.453
69562W        W41855   2.794  34.486  10.902
69563W        W41856  16.634  25.561  11.114
69564W        W41857  14.807  18.132   3.647
69565W        W41858  31.896  32.065  10.427
69566W        W41859  27.668  30.517  13.934
69567W        W41860  42.481   5.252  13.008
69568W        W41861  11.351   7.779   2.185
69569W        W41862  22.027  28.141  11.503
69570W        W41863  27.559  43.352   3.374
69571W        W41864   9.726   4.916   4.132
69572W        W41865  43.769  31.083   2.254
69573W        W41866  12.790  15.284  13.980
69574W        W41867  44.875   9.266   0.876
69575W        W41868   4.899   4.760   4.605
69576W        W41869  14.266  26.179  11.078
69577W        W41870  12.619   9.244   4.684
69578W        W41871  25.550   8.214  10.536
69579W        W41872  41.342  39.051   4.753
69580W        W41873  26.032  23.598   0.374
69581W        W41874  30.983   5.694  14.427
69582W        W41875  20.649  10.849   3.380
69583W        W41876   4.806  40.033   2.205
69584W        W41877  44.991  41.454  13.822
69585W        W41878   6.707  23.095  14.982
69586W        W41879  37.024   4.780  10.917
69587W        W41880   3.382   3.357  14.008
69588W        W41881   6.205  31.090   0.463
69589W        W41882  11.800  27.053   3.159
69590W        W41883   8.185  35.397  11.984
69591W        W41884  16.657  41.505  14.013
69592W        W41885  43.317  19.153  13.049
69593W        W41886   9.659  12.651   3.643
69594W        W41887  38.380  22.030  10.888
69595W        W41888  16.238  17.789   1.312
69596W        W41889  25.963   5.263   0.850
69597W        W41890   8.706  44.868   4.770
69598W        W41891  13.323  44.404   3.364
69599W        W41892  11.266  32.428   0.289
69600W        W41893  21.158  21.571   1.214
69601W        W41894  30.044   2.286  12.887
69602W        W41895  13.624  42.963   0.408
69603W        W41896  32.546   7.791   1.401
69604W        W41897  20.664  26.684   2.377
69605W        W41898  10.197  35.492  10.637
69606W        W41899   3.258   0.803   0.952
69607W        W41900  43.349  23.187  12.502
69608W        W41901  18.595   4.843  13.047
69609W        W41902  15.735  10.323   0.891
69610W        W41903  31.544  21.664   0.368
69611W        W41904  28.978  38.359   1.812
69612W        W41905   5.265  23.573  11.951
69613W        W41906  38.543  25.044   1.332
69614W        W41907   8.377  33.935  10.098
69615W        W41908  26.615  16.245   1.268
69616W        W41909  39.062  20.693  10.556
69617W        W41910  37.543   4.306   4.701
69618W        W41911   9.346  21.650   1.856
69619W        W41912   9.795  16.112  11.079
69620W        W41913  30.015  13.349  10.515
69621W        W41914  43.484  11.702  14.400
69622W        W41915  31.434  26.968   2.182
69623W        W41916  38.489  43.446  12.016
69624W        W41917   3.891  31.419   4.192
69625W        W41918  17.792  13.143   3.678
69626W        W41919  10.859  33.123   0.813
69627W        W41920  33.982  29.073  10.545
69628W        W41921  43.790  13.603   2.798
69629W        W41922  26.053  14.784  11.022
69630W        W41923  27.163  39.913  14.376
69631W        W41924  15.689  42.519  13.466
69632W        W41925  24.145  22.740   3.699
69633W        W41926  31.924   3.820  12.506
69634W        W41927  36.000   9.283  13.926
69635W        W41928  37.442   8.377  14.796
69636W        W41929  11.371  35.096  14.482
69637W        W41930  27.041  31.081   1.745
69638W        W41931  15.693  13.124  13.419
69639W        W41932  26.471  42.023  12.965
69640W        W41933  14.687  10.195  14.420
69641W        W41934  44.288  11.661  14.882
69642W        W41935  11.671   6.867  11.028
69643W        W41936  42.442  44.874  14.951
69644W        W41937  32.113  10.638   5.681
69645W        W41938  35.521  24.108   2.260
69646W        W41939  36.902  40.410  14.839
69647W        W41940  44.429  40.009  12.881
69648W        W41941  11.151  23.529  13.540
69649W        W41942  27.611  23.495   3.849
69650W        W41943  39.975  15.704   4.317
69651W        W41944   0.755  33.043  10.997
69652W        W41945  28.526  10.713   3.831
69653W        W41946   2.354  19.193  14.918
69654W        W41947  10.178  40.970   2.820
69655W        W41948  28.495   7.303  13.795
69656W        W41949  23.199   6.337  14.298
69657W        W41950  23.198   1.884  10.424
69658W        W41951  22.250   4.421   2.399
69659W        W41952  23.572  24.668  13.544
69660W        W41953  15.186  24.487  14.423
69661W        W41954  41.980  43.413   1.234
69662W        W41955   6.762  18.081  10.540
69663W        W41956  33.126  32.619   2.861
69664W        W41957  35.965   7.215  12.518
69665W        W41958  37.413  15.232  11.046
69666W        W41959  15.615  18.148  13.326
69667W        W41960  21.553   2.788  14.997
69668W        W41961  13.204  28.019   2.400
69669W        W41962   2.448  12.193  12.931
69670W        W41963  35.420  38.470  10.457
69671W        W41964  42.947  29.631  11.501
69672W        W41965  33.623   6.869   0.890
69673W        W41966   7.224   4.262  13.366
69674W        W41967  44.791  31.605   1.849
69675W        W41968  23.621  11.629   3.287
69676W        W41969  42.407  39.552  12.069
69677W        W41970  24.007   8.870   5.105
69678W        W41971   1.313   3.298   0.837
69679W        W41972   6.730  21.026   4.700
69680W        W41973  24.709   7.803   0.411
69681W        W41974  14.774  28.622  14.815
69682W        W41975  26.098  26.517   2.409
69683W        W41976   2.896  26.150  13.323
69684W        W41977  41.302  25.557  11.571
69685W        W41978   1.244  38.017   2.224
69686W        W41979  14.640  37.038  10.530
69687W        W41980  36.874  38.371   3.193
69688W        W41981  21.542   4.895  11.943
69689W        W41982  26.484   8.694  13.898
69690W        W41983  21.211   1.945   0.483
69691W        W41984   0.483  18.262   3.291
69692W        W41985  36.488  18.233   4.332
69693W        W41986  32.526  35.934   2.802
69694W        W41987  31.053  31.136   4.251
69695W        W41988  11.729  20.568  11.978
69696W        W41989  18.259  17.572   3.172
69697W        W41990   9.659  21.563  12.002
69698W        W41991  40.406  16.611   1.439
69699W        W41992   1.478  20.745   3.866
69700W        W41993  34.514  11.695   1.383
69701W        W41994   3.280   7.820  13.893
69702W        W41995   7.337  16.099   1.835
69703W        W41996  32.632  18.114   1.237
69704W        W41997  44.927  37.078   0.356
69705W        W41998  41.526   1.363  13.511
69706W        W41999  11.830  33.112   2.828
69707W        W42000   4.412  42.869  13.543
69708W        W42001  23.510   7.308  14.415
69709W        W42002  20.208  10.686  11.939
69710W        W42003   8.294  17.290  10.997
69711W        W42004  22.116   1.481   4.603
69712W        W42005  35.091  18.088  11.061
69713W        W42006  33.494  33.943   4.213
69714W        W42007  11.189   8.702  12.951
69715W        W42008  26.068  26.575  13.967
69716W        W42009  32.902  32.472   0.820
69717W        W42010  23.184  34.451  13.486
69718W        W42011  34.487   3.381  13.905
69719W        W42012  39.548  12.659   4.297
69720W        W42013  18.151  11.198  14.851
69721W        W42014   6.678  14.708  10.461
69722W        W42015   0.329  30.065   2.357
69723W        W42016  34.114  24.126  13.450
69724W        W42017  10.376  35.893   3.179
69725W        W42018  26.100  38.395  14.998
69726W        W42019  41.814  43.819  12.855
69727W        W42020  30.564   8.272   2.876
69728W        W42021  29.163  13.843  12.066
69729W        W42022  12.629  37.363  14.032
69730W        W42023  10.162   6.907   3.246
69731W        W42024  17.213  12.310   0.937
69732W        W42025  16.672  13.117   1.705
69733W        W42026  22.638   3.221   2.203
69734W        W42027  26.962  24.010  13.505
69735W        W42028  20.131   1.407  10.580
69736W        W42029  32.980  22.704  11.576
69737W        W42030  23.631  25.679  10.575
69738W        W42031  11.685  30.011  11.399
69739W        W42032  21.019  29.635   3.201
69740W        W42033  28.963   7.892   3.645
69741W        W42034  44.991  11.298  12.955
69742W        W42035  19.139  23.587   3.150
69743W        W42036   5.262  15.751  13.036
69744W        W42037   9.353  44.833   3.775
69745W        W42038  40.503  37.344   9.961
69746W        W42039  25.974  17.601  11.484
69747W        W42040  34.608  13.795  12.974
69748W        W42041   5.218  33.126  13.049
69749W        W42042  22.505  12.676  10.447
69750W        W42043  19.111  22.167  13.984
69751W        W42044   3.434  28.033   0.459
69752W        W42045  19.106  42.394   4.346
69753W        W42046  40.832  33.919   1.735
69754W        W42047  27.634  27.651  10.943
69755W        W42048  12.816  43.797  10.939
69756W        W42049  19.039   4.751   1.305
69757W        W42050  17.223  17.634  13.333
69758W        W42051  12.228   3.839   0.956
69759W        W42052  44.427   8.799   4.731
69760W        W42053   5.739  24.533   2.891
69761W        W42054   7.251  20.273   3.311
69762W        W42055   5.903  27.019  11.997
69763W        W42056  31.632  36.904   4.737
69764W        W42057  23.669  14.663   3.232
69765W        W42058  26.008   2.408   0.907
69766W        W42059  38.959  24.077   4.789
69767W        W42060  22.636  38.903   4.169
69768W        W42061   5.363  44.359  14.383
69769W        W42062  41.825  30.455  12.447
69770W        W42063  38.943  22.016  12.579
69771W        W42064  19.090  36.433   2.811
69772W        W42065  43.513  13.106   4.283
69773W        W42066  29.634  42.311   1.759
69774W        W42067   6.895  34.047  11.911
69775W        W42068  12.710  35.517   0.466
69776W        W42069  12.341  34.997   0.800
69777W        W42070  33.393  38.852  11.383
69778W        W42071  28.579  44.768   4.204
69779W        W42072  10.234  22.251   1.700
69780W        W42073  36.430  30.931  13.474
69781W        W42074  19.712   7.206   0.333
69782W        W42075  26.630  33.874   1.797
69783W        W42076  31.942  23.549  14.450
69784W        W42077  19.666   0.969  14.760
69785W        W42078  31.017  35.604   3.748
69786W        W42079  29.520  12.324  12.990
69787W        W42080  13.256   7.733  14.289
69788W        W42081   0.757  33.110  13.027
69789W        W42082  38.985   0.410  12.840
69790W        W42083  14.101  42.469   2.768
69791W        W42084  20.178  27.508   2.720
69792W        W42085  35.055  28.475   4.788
69793W        W42086  35.443   0.804   3.847
69794W        W42087  23.100   4.309   1.747
69795W        W42088  34.490  32.436  14.022
69796W        W42089   9.304  30.601   3.153
69797W        W42090  19.240  10.289  12.431
69798W        W42091  13.646  11.868  12.392
69799W        W42092  34.095  29.469  11.917
69800W        W42093  36.513   0.362  11.482
69801W        W42094   3.321  33.939   2.698
69802W        W42095  23.088   1.393   3.846
69803W        W42096   0.970  10.337  11.876
69804W        W42097  34.089  39.443   3.676
69805W        W42098  27.589  38.903  11.861
69806W        W42099  27.972  37.021   4.814
69807W        W42100  12.764  33.936  11.918
69808W        W42101   5.368  27.616  12.524
69809W        W42102   5.727  40.344  14.480
69810W        W42103  11.629  33.487  12.067
69811W        W42104  34.886   7.791   4.612
69812W        W42105  33.475  20.702  14.380
69813W        W42106  38.847  43.422  13.443
69814W        W42107  43.421  33.433  11.014
69815W        W42108   1.396  38.395   4.203
69816W        W42109  39.894   8.178   1.889
69817W        W42110  31.475   8.776   2.235
69818W        W42111  12.843   7.318  14.402
69819W        W42112   4.721  39.052   2.331
69820W        W42113   0.379  42.008   1.920
69821W        W42114  20.115   2.885   4.174
69822W        W42115  18.110  38.048  13.889
69823W        W42116  25.127  14.813  13.831
69824W        W42117  42.905  26.146   3.715
69825W        W42118   8.196  12.834  11.994
69826W        W42119   1.454  15.779   4.218
69827W        W42120  12.308  31.139  13.998
69828W        W42121  33.001  33.548  14.492
69829W        W42122  41.793  35.007   4.776
69830W        W42123   1.366  28.526   0.809
69831W        W42124  15.706   6.781  11.530
69832W        W42125   6.250  39.973   2.415
69833W        W42126   2.415   7.900  11.052
69834W        W42127  33.443  12.649   0.374
69835W        W42128  31.116  31.621   0.263
69836W        W42129  21.039   0.447  11.595
69837W        W42130  42.417  30.423   1.916
69838W        W42131  13.802   0.927  13.496
69839W        W42132  44.849  31.107  10.542
69840W        W42133  38.512  40.017  11.564
69841W        W42134   6.820  31.449  12.089
69842W        W42135  31.534  37.549  11.392
69843W        W42136   0.841   0.348   3.764
69844W        W42137  29.493   2.945  12.044
69845W        W42138  39.399  10.337  12.403
69846W        W42139  18.573  24.149   4.773
69847W        W42140  30.970  13.657  12.042
69848W        W42141   1.241  41.507   0.376
69849W        W42142   8.245   4.310   1.256
69850W        W42143   5.372   6.756  13.386
69851W        W42144  28.139  25.163  14.848
69852W        W42145  21.679   7.249   4.354
69853W        W42146  44.278   3.844   2.240
69854W        W42147  17.109  32.463   4.786
69855W        W42148  31.988  13.665  11.433
69856W        W42149   8.718  19.244  14.880
69857W        W42150   0.471  12.231  10.890
69858W        W42151  20.160  22.581  14.897
69859W        W42152   3.405   2.789  14.805
69860W        W42153  11.743  39.952   0.483
69861W        W42154  40.020  32.056   2.870
69862W        W42155  38.421  27.459   1.245
69863W        W42156  23.507   1.851   2.733
69864W        W42157  37.488  17.645   4.804
69865W        W42158  26.668  23.080  10.974
69866W        W42159   7.667  22.591  13.434
69867W        W42160  15.187   5.906   3.855
69868W        W42161  12.730   1.762  10.517
69869W        W42162  44.894  36.397  12.485
69870W        W42163  18.644  24.076  10.616
69871W        W42164  11.659  27.175  10.914
69872W        W42165  36.479   7.230   0.471
69873W        W42166  36.842  10.146   0.304
69874W        W42167  36.379  17.139  10.078
69875W        W42168  34.924  23.531  12.885
69876W        W42169  31.912  21.112   3.712
69877W        W42170  43.494  31.606   1.218
69878W        W42171  38.396   3.909  12.894
69879W        W42172  43.861  43.352   4.154
69880W        W42173  28.979  44.375  14.898
69881W        W42174   7.371  28.499   3.770
69882W        W42175  23.151  29.967   1.801
69883W        W42176  43.437  29.571   1.334
69884W        W42177  20.612  18.750  12.349
69885W        W42178  19.683  22.014   3.379
69886W        W42179  40.951  30.509   0.361
69887W        W42180  39.324  33.498   1.828
69888W        W42181  31.944  31.632   0.374
69889W        W42182  29.484  35.996   0.420
69890W        W42183  25.150  21.720  14.960
69891W        W42184   6.354  11.187   4.352
69892W        W42185  21.542  44.953  12.033
69893W        W42186  13.711  22.627  13.469
69894W        W42187  39.438   2.739   1.445
69895W        W42188  13.823  36.419  13.935
69896W        W42189  11.341  39.049   2.243
69897W        W42190  27.585  20.614   3.170
69898W        W42191  10.223  33.953  11.575
69899W        W42192   0.763  12.771   1.874
69900W        W42193   9.288  43.506  14.304
69901W        W42194  43.906  26.536  13.314
69902W        W42195   8.760   6.919  14.459
69903W        W42196  28.571  30.482  14.915
69904W        W42197  13.696   1.425  13.509
69905W        W42198   0.358   4.791  11.378
69906W        W42199  19.274  15.652  14.825
69907W        W42200  35.407   8.277  12.359
69908W        W42201  26.619  26.004   1.873
69909W        W42202   8.290  29.505  12.895
69910W        W42203  15.330  17.188   3.728
69911W        W42204  14.208  14.828  13.540
69912W        W42205  29.548   5.241   2.284
69913W        W42206   5.818  27.580  14.331
69914W        W42207  17.273   3.233  10.113
69915W        W42208  37.509  35.089  14.461
69916W        W42209  44.393  44.457  14.396
69917W        W42210  18.765  21.675   2.208
69918W        W42211  21.674  41.834   3.760
69919W        W42212  29.570   3.373  11.957
69920W        W42213  42.933  19.775   2.880
69921W        W42214  31.108  26.501   2.291
69922W        W42215   8.755  42.289   3.176
69923W        W42216  10.162  20.545  12.537
69924W        W42217  33.093   4.725  12.904
69925W        W42218  15.272  10.781   1.320
69926W        W42219  43.998  39.818  13.026
69927W        W42220  36.536   4.314   0.923
69928W        W42221   6.199   5.328   1.240
69929W        W42222   9.742  32.018   4.234
69930W        W42223  40.974  31.051   3.194
69931W        W42224  19.249   0.846  10.481
69932W        W42225  29.537  42.973  14.402
69933W        W42226  32.567  27.043  14.409
69934W        W42227  40.346  15.675  10.586
69935W        W42228  38.931  27.128   4.768
69936W        W42229  38.557  29.162   0.762
69937W        W42230  42.390  40.529  10.957
69938W        W42231  39.937   8.894  14.441
69939W        W42232  24.719  15.258   3.814
69940W        W42233  22.087   1.769   0.329
69941W        W42234   5.840  23.219   0.328
69942W        W42235  34.578  12.686  13.896
69943W        W42236  13.604  23.052  11.109
69944W        W42237   6.877  21.019   5.234
69945W        W42238   7.752  32.103  10.624
69946W        W42239  15.627  37.901   3.178
69947W        W42240  44.466  40.441   2.276
69948W        W42241  38.840   3.376  13.484
69949W        W42242   3.222  20.655   3.669
69950W        W42243  27.056  13.817   4.337
69951W        W42244  12.850  14.747   3.208
69952W        W42245   4.916   5.339  11.548
69953W        W42246   6.740  24.627  14.510
69954W        W42247  15.822  14.214   1.911
69955W        W42248  16.699   1.372  12.468
69956W        W42249  25.972  44.309  10.515
69957W        W42250  21.561   9.285   1.843
69958W        W42251  24.105  35.408   2.693
69959W        W42252  16.632   8.357   4.215
69960W        W42253  22.582  36.355   4.770
69961W        W42254  25.131  16.249   4.290
69962W        W42255  11.136   7.816   2.727
69963W        W42256  10.873  12.341  11.990
69964W        W42257   8.398  35.431  14.795
69965W        W42258   4.716  33.895   1.791
69966W        W42259   6.852  23.238   0.454
69967W        W42260  25.030  31.448   2.377
69968W        W42261   8.261  20.632   1.414
69969W        W42262  35.020   0.781  10.912
69970W        W42263  23.171   8.386   0.955
69971W        W42264  18.276  20.537  12.478
69972W        W42265   5.882  41.017  13.400
69973W        W42266  29.634   9.311   2.807
69974W        W42267  29.059  35.989  14.951
69975W        W42268  22.180  27.025   2.756
69976W        W42269  26.568  38.888  11.970
69977W        W42270  11.760   0.909   0.406
69978W        W42271  21.588  28.137  14.882
69979W        W42272  10.645  43.429   2.303
69980W        W42273  20.125  38.461   4.313
69981W        W42274   9.647  22.048  13.511
69982W        W42275  40.910  23.647  10.954
69983W        W42276  11.363  11.678  12.444
69984W        W42277  38.989  30.657   4.155
69985W        W42278  27.493  19.672   1.715
69986W        W42279  21.199   7.900  14.394
69987W        W42280  24.091  42.778   1.887
69988W        W42281   0.776  14.649   4.761
69989W        W42282   2.317  43.480   3.179
69990W        W42283   9.249  20.544   1.227
69991W        W42284  44.269  11.205  11.857
69992W        W42285  44.393  24.585   1.877
69993W        W42286  36.925  12.267  14.017
69994W        W42287  16.192   5.269   1.719
69995W        W42288  39.011   9.183   0.474
69996W        W42289  33.429  10.262   1.878
69997W        W42290   3.845  19.235  12.980
69998W        W42291  21.041  21.122   1.372
69999W        W42292  13.671  17.215   1.787
70000W        W42293  44.777  40.048  12.046
70001W        W42294   8.856  22.039  14.840
70002W        W42295  39.368   1.470   0.472
70003W        W42296  35.424  14.696  11.882
70004W        W42297  30.463  22.577  12.997
70005W        W42298  25.218  26.112   3.656
70006W        W42299  18.767  41.807   3.667
70007W        W42300  16.586  30.458   2.666
70008W        W42301  40.833  37.034  12.553
70009W        W42302  44.819  33.129  12.949
70010W        W42303  14.141   4.744  10.053
70011W        W42304   1.790  27.952   0.406
70012W        W42305  19.155   3.363   2.837
70013W        W42306  27.517  18.746   1.785
70014W        W42307  42.318  20.749   2.760
70015W        W42308  13.682  11.747   4.166
70016W        W42309   8.268  29.051  11.085
70017W        W42310   4.396  10.243   2.830
70018W        W42311  36.439  42.820   3.175
70019W        W42312  28.946  18.645   0.481
70020W        W42313  19.041  28.151  14.371
70021W        W42314  42.367   3.906   3.207
70022W        W42315  29.508  31.506  10.898
70023W        W42316  12.135  31.520  14.768
70024W        W42317   6.418  44.491   5.199
70025W        W42318  21.102  34.079   1.729
70026W        W42319  37.573  25.582  12.923
70027W        W42320  11.852  33.006   2.278
70028W        W42321  36.996  11.826   0.857
70029W        W42322  39.963  40.962   1.394
70030W        W42323   3.410  27.047   4.598
70031W        W42324  37.439  30.150   1.917
70032W        W42325  13.613   0.447   3.282
70033W        W42326  33.387  24.218   2.188
70034W        W42327  20.698  13.759   3.849
70035W        W42328  37.565  29.664  12.961
70036W        W42329   0.267   3.822   2.335
70037W        W42330  10.765  33.557  10.939
70038W        W42331  25.564  10.276   3.833
70039W        W42332   3.859  23.062   4.262
70040W        W42333  24.635  35.022   0.754
70041W        W42334  40.915   8.319   1.878
70042W        W42335  19.116  37.579   0.278
70043W        W42336  12.146   0.854  13.416
70044W        W42337  22.718  40.935   0.834
70045W        W42338  28.047   9.168  10.624
70046W        W42339  30.063  13.728   2.664
70047W        W42340  44.852  43.369   0.742
70048W        W42341  38.980   9.316  12.424
70049W        W42342  28.510   9.796  12.031
70050W        W42343  18.611  43.982  10.427
70051W        W42344   5.933  35.863  13.952
70052W        W42345  14.633  39.387  14.941
70053W        W42346  23.197   2.896   4.748
70054W        W42347  19.565   1.910   4.675
70055W        W42348  39.370  13.748   1.336
70056W        W42349   9.192  11.865  10.453
70057W        W42350  12.672   6.834  14.507
70058W        W42351  38.874   6.730   3.817
70059W        W42352  32.924   3.262  14.977
70060W        W42353  38.409  14.656  14.504
70061W        W42354  23.586  42.972   3.692
70062W        W42355  24.978  19.280   3.157
70063W        W42356  30.069   5.317  14.861
70064W        W42357  37.885   5.280  11.013
70065W        W42358   2.234  43.414  13.930
70066W        W42359  29.971  16.082  13.915
70067W        W42360  35.066  31.445  13.027
70068W        W42361  13.654  38.037  10.982
70069W        W42362  15.578   8.212   0.393
70070W        W42363  40.799   1.841  12.516
70071W        W42364  34.023  20.629   4.328
70072W        W42365  19.178   7.322   4.615
70073W        W42366  35.081  15.756  12.935
70074W        W42367  23.734  35.050  12.532
70075W        W42368  25.660  36.847   2.694
70076W        W42369  20.145  26.146  13.326
70077W        W42370  38.349  34.388   2.901
70078W        W42371  38.059  28.643  12.448
70079W        W42372  19.553  36.584   4.760
70080W        W42373  19.713   1.459  13.485
70081W        W42374  21.159  37.530   1.875
70082W        W42375  44.289  12.827  12.859
70083W        W42376  10.324  19.750   0.452
70084W        W42377  15.277  34.426  13.425
70085W        W42378  39.998   2.953  14.315
70086W        W42379  41.851  31.471   1.851
70087W        W42380  14.643  26.963   1.417
70088W        W42381  24.210   8.247   3.708
70089W        W42382  41.365  39.520   1.346
70090W        W42383  23.232  15.089   2.716
70091W        W42384  10.846  21.141  10.490
70092W        W42385  33.494  32.571  14.893
70093W        W42386  14.334  32.623  14.394
70094W        W42387  33.523   1.457  11.944
70095W        W42388   2.724  11.804  13.408
70096W        W42389   7.740   1.796   5.173
70097W        W42390  20.037   6.852  14.409
70098W        W42391  26.496   5.880   2.267
70099W        W42392  16.770  12.624  11.094
70100W        W42393  36.373  10.828   1.351
70101W        W42394  20.668  10.825  14.912
70102W        W42395  12.201   8.848   4.790
70103W        W42396  29.639  36.888   4.153
70104W        W42397  35.504  17.065  14.367
70105W        W42398  35.590  12.826  14.505
70106W        W42399  44.754  13.185   4.183
70107W        W42400  37.008  40.307   2.702
70108W        W42401  28.158   4.786  10.055
70109W        W42402   1.376  34.921  14.328
70110W        W42403  10.273  20.522  11.529
70111W        W42404  42.847  12.650   3.711
70112W        W42405   6.190   3.259  13.358
70113W        W42406  38.019  38.960  13.528
70114W        W42407  12.234  42.009   4.206
70115W        W42408  41.331  43.452   4.820
70116W        W42409  24.621  12.196   3.166
70117W        W42410  43.486  16.761   5.151
70118W        W42411  12.258  18.099   2.894
70119W        W42412  37.037  18.682  11.604
70120W        W42413  38.998  10.863  13.497
70121W        W42414  26.132  18.682  11.915
70122W        W42415  30.483  36.439   2.687
70123W        W42416  44.312   5.767  11.041
70124W        W42417  40.810  15.729  13.982
70125W        W42418  25.016   1.816  11.036
70126W        W42419  12.834  26.509   0.733
70127W        W42420  25.166   7.830   1.414
70128W        W42421  12.765  27.505   2.205
70129W        W42422  37.412  22.202   1.318
70130W        W42423   1.355  43.942   0.938
70131W        W42424  31.921  41.417  11.432
70132W        W42425  41.799  15.747   4.349
70133W        W42426   4.367   6.834   1.218
70134W        W42427  27.949  20.710   0.915
70135W        W42428   9.157  40.043   0.444
70136W        W42429  11.236  20.748  14.302
70137W        W42430   6.917  20.577   2.260
70138W        W42431  41.986  40.326   0.766
70139W        W42432  36.547  23.596   4.204
70140W        W42433  35.905  40.398  12.502
70141W        W42434  37.914  30.122  11.539
70142W        W42435  41.399   1.476  10.947
70143W        W42436  42.476   3.922  14.894
70144W        W42437   0.433  42.427  13.020
70145W        W42438  25.571  31.986  10.413
70146W        W42439  38.872  28.548   3.246
70147W        W42440  29.995  22.691  10.039
70148W        W42441  12.806  11.641  13.828
70149W        W42442   3.752   5.353  11.101
70150W        W42443  11.290  25.658  10.584
70151W        W42444  32.533   5.695  12.861
70152W        W42445   6.884  37.404  14.476
70153W        W42446   1.334  27.658  11.960
70154W        W42447  39.415  10.674  12.543
70155W        W42448  34.561  42.498   3.247
70156W        W42449  28.570  43.437   2.789
70157W        W42450   8.391   8.207   0.813
70158W        W42451  17.095  20.665  12.441
70159W        W42452  42.031  10.749   2.828
70160W        W42453  21.581  23.723   1.842
70161W        W42454  21.172  27.589   0.814
70162W        W42455  44.485  32.051  10.980
70163W        W42456  34.069  21.641  11.884
70164W        W42457  32.421  18.693  12.084
70165W        W42458  10.782   6.228   3.784
70166W        W42459  31.135  16.088   2.764
70167W        W42460   3.232  38.357  13.407
70168W        W42461  29.622  18.608   2.206
70169W        W42462   1.875  32.447   0.452
70170W        W42463   6.845  23.700  12.409
70171W        W42464  18.546  11.809   0.881
70172W        W42465  27.612  38.933   2.304
70173W        W42466  24.711   4.719  12.507
70174W        W42467  16.154  20.686  12.905
70175W        W42468   4.406  40.377   0.896
70176W        W42469  27.163  10.312  10.433
70177W        W42470  39.926   0.813  14.917
70178W        W42471  37.573  43.774  10.103
70179W        W42472  33.890   3.750   3.284
70180W        W42473  27.023  41.885   1.862
70181W        W42474   8.270  31.992   3.794
70182W        W42475   8.363  27.689   4.349
70183W        W42476  25.979  33.098   3.285
70184W        W42477  18.139   4.229   2.838
70185W        W42478  41.922  23.612   2.705
70186W        W42479   8.707  25.209  11.911
70187W        W42480  27.666  41.037   1.246
70188W        W42481  42.349  37.842   0.791
70189W        W42482  11.662  14.322  11.456
70190W        W42483  37.372  21.201   3.780
70191W        W42484  14.815  27.492   1.431
70192W        W42485  15.669  39.025  12.909
70193W        W42486  37.944   2.925   0.372
70194W        W42487  40.008  31.147  13.518
70195W        W42488   8.334  28.532   2.395
70196W        W42489   4.909  20.214   1.822
70197W        W42490  23.992  12.278   3.248
70198W        W42491  12.756  15.674  10.445
70199W        W42492  28.962  19.646  13.932
70200W        W42493  39.316  26.113   3.363
70201W        W42494  17.597  13.629   2.253
70202W        W42495  39.824  40.972   4.240
70203W        W42496  22.238  30.569   3.320
70204W        W42497   9.845   8.196  10.922
70205W        W42498  12.156  15.808  13.929
70206W        W42499  31.500   7.398  13.004
70207W        W42500  33.385   2.879  12.912
70208W        W42501  32.610  10.870   5.275
70209W        W42502  27.506  24.576   9.958
70210W        W42503   8.163  23.143   0.904
70211W        W42504  15.229  18.062  12.388
70212W        W42505  20.111  41.787  13.803
70213W        W42506  10.352  38.065  13.529
70214W        W42507  43.510  30.620   2.227
70215W        W42508  25.502  44.893  10.475
70216W        W42509  39.917  36.533  13.463
70217W        W42510  21.714  15.652  12.520
70218W        W42511  20.540   3.862  11.494
70219W        W42512  44.292  33.588  10.942
70220W        W42513  21.172   7.318   0.289
70221W        W42514  30.424   2.325  11.082
70222W        W42515  38.393   3.724   4.152
70223W        W42516  28.560  43.894  13.915
70224W        W42517   1.349  21.580   3.161
70225W        W42518  17.604  24.550   3.157
70226W        W42519  39.054  28.076  11.059
70227W        W42520  21.118  27.522   2.202
70228W        W42521   3.881   7.404  14.479
70229W        W42522  28.479  30.118  14.769
70230W        W42523  17.227   5.437  10.955
70231W        W42524   4.745   3.220   3.272
70232W        W42525  40.343  31.957  10.498
70233W        W42526  31.021  11.292  13.535
70234W        W42527  41.005  25.615  14.428
70235W        W42528  12.297  14.253   0.779
70236W        W42529  38.021  41.464  14.877
70237W        W42530  24.089   5.401   0.442
70238W        W42531  34.114  12.623   3.159
70239W        W42532   5.298   0.469   0.350
70240W        W42533   0.906  29.534   4.750
70241W        W42534  27.549  33.920  12.094
70242W        W42535  14.275   0.474   2.314
70243W        W42536  18.576  19.074   3.244
70244W        W42537  15.802  10.343   2.312
70245W        W42538  20.125  28.072  10.622
70246W        W42539  40.806  20.257  10.948
70247W        W42540  32.611  35.036   1.752
70248W        W42541  24.172  37.841  12.013
70249W        W42542  42.780  10.735  11.887
70250W        W42543  40.938  44.381  11.098
70251W        W42544  17.129  27.606   4.717
70252W        W42545   2.243   3.714   4.260
70253W        W42546   4.770   1.277  11.558
70254W        W42547  19.144  11.246  11.461
70255W        W42548  16.097  35.055   2.802
70256W        W42549  31.533  13.307  14.314
70257W        W42550  18.185   2.805  10.462
70258W        W42551  10.188  22.121   3.795
70259W        W42552  30.632   7.172  14.813
70260W        W42553  27.153  26.953   0.248
70261W        W42554  34.979  26.601  12.356
70262W        W42555  18.603  10.818  13.333
70263W        W42556  44.964  42.480  14.381
70264W        W42557  33.105  43.955  13.869
70265W        W42558  34.393  27.609   0.940
70266W        W42559  18.771  37.921  14.942
70267W        W42560  34.016  13.107   1.714
70268W        W42561  26.634  25.088   3.348
70269W        W42562  40.355   6.914   0.907
70270W        W42563   0.430  41.043  14.021
70271W        W42564   2.267  26.008   4.736
70272W        W42565  37.527  10.261  12.476
70273W        W42566  35.472   6.393  10.460
70274W        W42567  41.921  34.573   2.772
70275W        W42568   6.268  42.865   2.242
70276W        W42569  34.475  20.141  14.492
70277W        W42570  18.603  30.484   0.390
70278W        W42571  32.935  10.726  12.386
70279W        W42572  38.390  14.652   4.798
70280W        W42573  11.645   1.840  11.478
70281W        W42574  38.006  23.199  14.841
70282W        W42575  32.559   2.952   4.644
70283W        W42576   4.390  37.347   3.215
70284W        W42577   7.406  24.721   4.236
70285W        W42578  26.129  21.122  12.541
70286W        W42579  20.740   7.386   2.360
70287W        W42580  41.932  43.382  14.314
70288W        W42581  43.342  24.065  12.934
70289W        W42582  34.421  11.674  14.964
70290W        W42583  41.454  36.989  14.888
70291W        W42584   0.415   5.396   3.365
70292W        W42585  15.322  17.179   0.810
70293W        W42586  27.672  42.877   0.750
70294W        W42587  17.111  18.625   3.833
70295W        W42588  32.449  39.908   1.435
70296W        W42589  32.438  39.387   1.907
70297W        W42590  41.894  29.558  10.640
70298W        W42591  26.584   9.679  12.443
70299W        W42592  28.498  17.072  11.986
70300W        W42593   9.273  23.590   2.242
70301W        W42594  38.534   1.963   1.822
70302W        W42595  12.856  23.509   3.688
70303W        W42596  12.253  17.292  12.474
70304W        W42597  40.466  43.378  13.882
70305W        W42598  12.337   3.214  12.052
70306W        W42599  35.061   9.344   2.696
70307W        W42600   3.436  23.735   2.825
70308W        W42601  14.750  41.461   2.311
70309W        W42602  26.624  11.708   4.194
70310W        W42603  41.309  38.827   1.827
70311W        W42604  18.149  33.069   5.588
70312W        W42605  44.890  13.633   4.130
70313W        W42606  40.973  26.478   0.967
70314W        W42607   1.743  20.083   3.862
70315W        W42608  28.066  43.905  10.098
70316W        W42609   7.896  38.931   2.254
70317W        W42610   9.836  18.269   3.836
70318W        W42611  12.742  14.643  11.399
70319W        W42612  17.560   5.717   4.750
70320W        W42613  27.069  39.341   3.224
70321W        W42614  35.404  24.718   2.336
70322W        W42615  37.375  44.449   3.356
70323W        W42616  13.643  16.171  11.862
70324W        W42617  38.553  36.993  12.931
70325W        W42618  23.040  20.119  12.400
70326W        W42619   3.378  38.992  14.502
70327W        W42620  12.212  43.772   2.411
70328W        W42621  39.866  16.216  13.845
70329W        W42622  35.067  33.008  14.954
70330W        W42623  26.466  22.552  14.413
70331W        W42624  28.995  26.529  11.445
70332W        W42625   3.366  28.543  11.610
70333W        W42626  11.179  24.188  11.974
70334W        W42627   1.433   3.755  10.429
70335W        W42628  12.190  33.594   3.703
70336W        W42629  16.786   7.175  13.411
70337W        W42630   0.289  36.408  11.891
70338W        W42631  30.460   3.322   3.238
70339W        W42632  43.918   5.314   3.740
70340W        W42633  42.495  21.210   3.716
70341W        W42634  43.347  43.909   5.684
70342W        W42635  19.767  19.773   1.440
70343W        W42636   5.888  20.542  13.321
70344W        W42637  26.563   8.179   3.641
70345W        W42638   1.466  18.282   2.787
70346W        W42639  38.461  23.727   4.772
70347W        W42640  11.144  30.120  10.520
70348W        W42641   8.379  35.091   1.855
70349W        W42642  42.470  26.604   1.264
70350W        W42643   4.226  11.260   3.351
70351W        W42644   2.770  21.099  12.014
70352W        W42645  34.519   9.755  10.979
70353W        W42646  37.002  31.105  11.548
70354W        W42647   4.912  30.158   4.343
70355W        W42648   9.759  32.617  12.492
70356W        W42649   5.246   9.319  12.569
70357W        W42650   8.756   7.254  10.900
70358W        W42651  40.979  26.645  12.017
70359W        W42652   2.414  40.516   2.362
70360W        W42653  31.947  26.028   4.160
70361W        W42654   9.223  11.768   3.755
70362W        W42655   1.328   7.865   1.269
70363W        W42656   3.451  21.513   1.744
70364W        W42657  37.372  12.350   4.203
70365W        W42658  13.725  15.630  13.915
70366W        W42659  26.547   9.306  10.468
70367W        W42660   5.835  10.810  13.807
70368W        W42661  23.069  43.423  11.098
70369W        W42662  28.163  28.517  14.854
70370W        W42663  22.508  37.358   1.424
70371W        W42664  14.602   5.389  14.358
70372W        W42665  38.325  29.670  13.963
70373W        W42666  29.169  26.676  14.506
70374W        W42667  43.414  18.604  12.899
70375W        W42668  41.907  19.579  11.899
70376W        W42669  34.441  38.999   2.757
70377W        W42670  13.254   0.898  10.989
70378W        W42671  28.525   5.401   4.309
70379W        W42672  23.606   0.939  10.603
70380W        W42673  35.094  26.499  12.925
70381W        W42674  41.357  20.581   4.699
70382W        W42675   6.198  21.650  14.813
70383W        W42676   1.317  44.379  13.975
70384W        W42677  43.832   8.336  13.847
70385W        W42678  38.402  39.928  14.803
70386W        W42679  12.120  41.936  12.911
70387W        W42680  41.849  11.779   0.851
70388W        W42681   2.423  27.182  12.556
70389W        W42682  19.633  29.604  14.850
70390W        W42683  42.428  32.419   0.755
70391W        W42684   2.399  40.962  13.396
70392W        W42685  15.144  11.232  11.475
70393W        W42686  16.658  20.241  13.043
70394W        W42687   3.228  44.459  10.949
70395W        W42688  17.636  26.109   4.669
70396W        W42689   3.400  21.044  10.620
70397W        W42690   9.287  36.055   0.828
70398W        W42691   0.816   0.880  14.402
70399W        W42692   3.848   4.206  10.588
70400W        W42693  22.702  33.987   0.788
70401W        W42694  23.135   0.809   4.829
70402W        W42695  11.307  43.790   1.896
70403W        W42696  33.065  38.348   3.764
70404W        W42697   7.904  31.005   4.714
70405W        W42698  18.197  30.618  13.493
70406W        W42699  27.182  15.679  13.848
70407W        W42700  31.498  41.510   0.829
70408W        W42701   2.257  37.832   0.376
70409W        W42702  21.137   6.866  11.887
70410W        W42703   1.940   0.951   3.172
70411W        W42704   4.338  16.808   0.948
70412W        W42705  29.947  33.924  11.456
70413W        W42706  24.720  25.035   4.787
70414W        W42707  42.896  20.238   5.680
70415W        W42708  41.032  23.159   3.777
70416W        W42709  25.125  29.568   1.709
70417W        W42710  41.412  39.390   0.248
70418W        W42711   9.205  41.997  11.905
70419W        W42712  16.758  39.866  10.959
70420W        W42713   6.284  38.890  14.775
70421W        W42714  10.157   6.769   4.834
70422W        W42715  16.209  24.146  14.915
70423W        W42716   8.333  36.505   1.909
70424W        W42717  38.875  33.125  14.439
70425W        W42718  24.694  15.616   4.818
70426W        W42719   7.767   9.667   1.333
70427W        W42720   8.721  41.537   3.636
70428W        W42721   6.294  43.281  10.465
70429W        W42722   1.299  18.124   0.344
70430W        W42723   6.921  37.416  10.542
70431W        W42724  26.465   7.321   1.324
70432W        W42725  27.143  24.072   3.653
70433W        W42726   9.333  18.724  14.359
70434W        W42727  28.496  23.119   1.267
70435W        W42728   8.753  34.515   3.674
70436W        W42729  18.065  39.904   1.733
70437W        W42730  27.510  13.139   0.928
70438W        W42731   6.364   6.740  12.516
70439W        W42732   1.942  44.940   2.201
70440W        W42733  38.373  26.968  14.389
70441W        W42734  42.976  21.162  10.504
70442W        W42735  20.722  10.149  10.572
70443W        W42736  26.699   1.381  14.879
70444W        W42737  11.304   7.286   3.758
70445W        W42738  37.356  16.714   4.652
70446W        W42739   3.239  25.697  12.080
70447W        W42740  20.640   6.312   3.160
70448W        W42741  43.419  42.286   3.773
70449W        W42742  15.799   3.740  14.913
70450W        W42743  35.081  41.425   1.348
70451W        W42744   7.784  28.082   1.705
70452W        W42745  43.915  18.674   1.338
70453W        W42746   5.699  36.060  14.941
70454W        W42747  10.641   8.679   3.331
70455W        W42748   8.794  38.998  14.362
70456W        W42749   2.911  23.028   0.342
70457W        W42750   9.873  36.451   5.786
70458W        W42751   7.264   9.255  12.088
70459W        W42752   7.214  10.282   1.789
70460W        W42753  17.180  43.308   4.153
70461W        W42754  40.341  13.623  12.349
70462W        W42755  17.764  25.615  13.342
70463W        W42756   4.252  11.232  11.453
70464W        W42757  19.679  17.296  13.847
70465W        W42758   4.785  40.385   2.236
70466W        W42759  43.908  33.404  13.061
70467W        W42760  27.553  30.594  12.469
70468W        W42761  22.124  22.693  13.016
70469W        W42762  24.482  25.575   3.810
70470W        W42763  15.175   1.385   1.291
70471W        W42764  39.317  15.116  12.487
70472W        W42765  41.454   5.395   2.293
70473W        W42766   0.486  31.964   3.675
70474W        W42767  19.594  33.974   0.414
70475W        W42768  35.430  13.261   4.772
70476W        W42769  16.763  14.130  14.467
70477W        W42770  34.500  13.140   2.263
70478W        W42771  22.007  43.930   4.344
70479W        W42772  29.027  37.845   3.821
70480W        W42773  35.442   1.361   2.393
70481W        W42774  26.550  33.937   1.435
70482W        W42775   4.410  23.004   4.193
70483W        W42776   2.755  36.845  14.797
70484W        W42777  27.450  32.116   0.349
70485W        W42778   9.365  11.190  13.487
70486W        W42779  43.782  24.643  12.863
70487W        W42780   8.297   8.804  11.861
70488W        W42781  14.646  30.444  11.128
70489W        W42782  36.027  20.614   3.859
70490W        W42783  10.188   4.431  10.469
70491W        W42784  19.067  34.375   1.896
70492W        W42785   9.694  29.486   2.384
70493W        W42786  34.379   9.335   1.718
70494W        W42787   5.222  21.624   2.770
70495W        W42788   7.306  18.212   2.831
70496W        W42789  43.417  11.701   1.263
70497W        W42790  21.221  10.724  12.577
70498W        W42791  25.560  30.555  10.462
70499W        W42792  37.466   5.423   2.281
70500W        W42793  17.614  33.572   1.305
70501W        W42794  39.319  13.133   4.806
70502W        W42795  13.628  35.087   0.328
70503W        W42796  19.097  14.739  13.944
70504W        W42797  15.676  11.285  14.021
70505W        W42798  38.909   9.361   2.235
70506W        W42799   5.324  25.005  11.480
70507W        W42800  12.771   9.315   1.776
70508W        W42801  18.688  25.540   4.735
70509W        W42802  29.505  35.457  14.326
70510W        W42803  16.694  38.421   1.847
70511W        W42804  43.780   1.902   0.307
70512W        W42805  29.502   0.443  11.534
70513W        W42806  26.017   2.354   4.797
70514W        W42807  32.481  44.496  10.076
70515W        W42808  20.608  40.831   4.158
70516W        W42809   0.849  32.511   2.795
70517W        W42810  20.149  43.484  12.990
70518W        W42811  41.471  18.783  12.474
70519W        W42812  41.791  37.898   1.288
70520W        W42813  23.515  35.039   0.440
70521W        W42814  35.422  40.386   1.842
70522W        W42815   6.325   3.752   0.468
70523W        W42816  10.265  15.192  13.352
70524W        W42817  16.603  34.985   1.331
70525W        W42818   3.242  34.407   0.333
70526W        W42819   6.317  32.425   2.706
70527W        W42820  37.930  19.079   3.209
70528W        W42821   2.753  23.049   1.451
70529W        W42822   6.840  28.452  12.917
70530W        W42823  40.054  26.526   3.785
70531W        W42824   1.274  15.650   2.211
70532W        W42825  28.671  39.385   3.707
70533W        W42826  16.784  22.232   1.767
70534W        W42827  21.658   0.459   2.264
70535W        W42828   6.913  18.654   2.343
70536W        W42829  26.528  44.465   2.707
70537W        W42830  21.587  42.445   4.233
70538W        W42831  30.635  33.885   0.296
70539W        W42832  30.519  24.085  14.960
70540W        W42833  33.123  18.295   0.777
70541W        W42834  39.015   9.186  11.969
70542W        W42835  14.302  13.732  12.911
70543W        W42836  20.179  19.724   1.407
70544W        W42837  34.526  13.772   3.783
70545W        W42838   1.881  24.998  11.580
70546W        W42839  13.140  19.280   4.121
70547W        W42840  12.290   2.290  11.609
70548W        W42841  33.031  42.382  11.607
70549W        W42842  13.246  17.610  14.344
70550W        W42843  23.611  29.497  12.976
70551W        W42844  35.486  10.320   0.959
70552W        W42845   1.851   4.216   4.665
70553W        W42846  41.456  15.803  11.483
70554W        W42847  10.787  20.626   2.323
70555W        W42848  11.746  15.199   2.313
70556W        W42849  39.408  40.840   1.780
70557W        W42850  29.594  36.880  11.873
70558W        W42851  36.485   2.900   4.766
70559W        W42852  43.347  43.447   1.306
70560W        W42853  27.646  22.085   3.251
70561W        W42854   8.764  14.613  13.947
70562W        W42855  14.140  13.116  11.526
70563W        W42856   8.901  13.148   0.433
70564W        W42857  42.926  23.049  13.791
70565W        W42858  15.155  23.583   0.456
70566W        W42859  15.683  14.598  12.894
70567W        W42860   8.366  10.231   4.170
70568W        W42861  34.540  41.870  11.039
70569W        W42862   9.283   0.803  14.390
70570W        W42863  27.132  22.201  12.089
70571W        W42864   5.725  32.587  14.766
70572W        W42865  41.456  34.556   0.942
70573W        W42866  38.416  36.463  14.963
70574W        W42867  39.847   8.383   3.256
70575W        W42868  25.152  25.657   4.227
70576W        W42869  19.611  43.511  10.500
70577W        W42870   7.175  21.263   2.313
70578W        W42871   5.793  24.560   1.886
70579W        W42872   5.781   8.180   0.810
70580W        W42873  25.529   5.807  14.916
70581W        W42874  32.012  30.602  14.947
70582W        W42875  17.096  37.066   1.783
70583W        W42876  29.653   7.726   3.252
70584W        W42877   9.292  22.587  13.874
70585W        W42878  12.262  21.113  11.052
70586W        W42879  44.374   7.240  14.295
70587W        W42880  29.449   1.787  14.398
70588W        W42881  38.394  43.312   0.372
70589W        W42882  23.117  29.128   3.184
70590W        W42883  16.125   7.190  14.510
70591W        W42884  43.484  44.349  12.508
70592W        W42885  11.622  25.606   4.202
70593W        W42886  36.397  11.784  11.067
70594W        W42887  33.085  27.600  14.783
70595W        W42888  19.666   7.767   3.178
70596W        W42889  29.053   1.244   4.353
70597W        W42890  36.972  37.512   3.658
70598W        W42891   3.240  32.136   5.202
70599W        W42892  23.136   2.413   0.357
70600W        W42893  16.675  43.276  11.997
70601W        W42894   9.349  31.949  12.394
70602W        W42895  13.319  30.155   1.831
70603W        W42896  21.241   9.349  12.978
70604W        W42897  27.501   5.422   4.306
70605W        W42898  14.215  14.666   0.832
70606W        W42899  33.530  25.630  11.555
70607W        W42900  31.567  38.473   1.253
70608W        W42901  23.197  27.035   0.856
70609W        W42902  33.938  31.043   1.407
70610W        W42903  43.336  11.372  10.533
70611W        W42904  20.123  13.293   5.299
70612W        W42905  41.501   1.357  14.851
70613W        W42906  29.525  15.149   1.793
70614W        W42907  17.246  11.215   3.746
70615W        W42908  27.538  15.733  13.972
70616W        W42909  24.637  23.703   3.317
70617W        W42910  38.388   0.989  14.451
70618W        W42911  33.935  43.939  14.984
70619W        W42912   3.862  14.172  13.466
70620W        W42913  32.991   5.687  11.421
70621W        W42914  21.170   3.719  12.552
70622W        W42915   5.229  23.716   3.322
70623W        W42916   9.162  22.546  13.534
70624W        W42917  13.775  11.335  13.045
70625W        W42918  15.221  18.605  12.871
70626W        W42919  14.665  12.617  14.494
70627W        W42920   5.237  29.971   2.815
70628W        W42921  23.557  28.125  14.872
70629W        W42922  43.384  29.088  13.915
70630W        W42923  22.573  41.345  14.017
70631W        W42924   4.719  24.580   3.862
70632W        W42925  35.435  12.303   4.646
70633W        W42926  17.175  25.001  13.492
70634W        W42927   8.792   9.678  13.976
70635W        W42928  43.515  17.707  10.963
70636W        W42929   1.922  44.398   2.678
70637W        W42930  31.452  16.599   2.403
70638W        W42931  20.675   3.809   4.697
70639W        W42932   8.361  17.082  12.438
70640W        W42933  10.235  27.009   2.189
70641W        W42934   0.357   7.709  11.477
70642W        W42935  38.934  40.525  10.627
70643W        W42936  22.512  11.631   3.723
70644W        W42937  24.557  17.737  14.878
70645W        W42938  26.486   6.910  14.451
70646W        W42939  20.218  13.106  13.547
70647W        W42940  35.893  30.659   1.726
70648W        W42941  41.410  37.406  13.998
70649W        W42942  42.817  42.913   5.288
70650W        W42943  22.143   6.340  12.998
70651W        W42944  25.202   9.745  12.961
70652W        W42945   9.277  32.609  14.432
70653W        W42946   4.848  13.166  14.368
70654W        W42947  21.578   3.750  11.024
70655W        W42948   2.235  43.948   2.342
70656W        W42949   5.433  44.284   1.826
70657W        W42950  12.163  39.993  12.893
70658W        W42951  29.601  16.114  13.832
70659W        W42952  25.196  28.495   0.759
70660W        W42953  32.039   7.678   4.126
70661W        W42954   3.264  23.006  12.857
70662W        W42955   9.203   2.813   2.845
70663W        W42956  18.067  36.957  10.918
70664W        W42957  20.548   5.333   0.322
70665W        W42958   0.810   4.378  12.511
70666W        W42959  17.138  24.977   1.849
70667W        W42960  41.454  41.490   2.798
70668W        W42961  10.738  30.439   0.942
70669W        W42962   8.192   4.263   4.275
70670W        W42963  13.255   7.808   1.289
70671W        W42964  12.842  39.386   4.161
70672W        W42965  17.741  31.628   2.757
70673W        W42966  11.792  19.163   4.700
70674W        W42967   6.729  18.269   0.398
70675W        W42968   1.244  16.197   4.172
70676W        W42969  25.608  44.352  13.362
70677W        W42970  44.829  40.328  14.900
70678W        W42971  29.945  39.808   0.285
70679W        W42972   8.347  30.646   3.220
70680W        W42973  31.509  39.873   1.767
70681W        W42974   0.492   8.185  10.428
70682W        W42975   4.736  31.060   1.759
70683W        W42976   0.360  27.955  11.579
70684W        W42977  15.183  39.393   0.741
70685W        W42978  11.335  44.851   0.930
70686W        W42979  12.214  41.850   2.286
70687W        W42980  27.059  20.606  10.930
70688W        W42981  28.144   6.344  14.335
70689W        W42982  40.016  10.270  12.553
70690W        W42983  18.671  18.598   4.752
70691W        W42984  21.723  33.476   2.775
70692W        W42985  14.660  19.597   3.245
70693W        W42986   1.973   4.430   1.860
70694W        W42987   2.883  13.341   2.813
70695W        W42988   5.253  15.823  11.579
70696W        W42989  34.879  27.058  12.836
70697W        W42990  34.483  29.956  10.462
70698W        W42991  40.913  19.616  13.960
70699W        W42992  43.797  17.215  11.980
70700W        W42993   2.882  44.938   0.804
70701W        W42994  31.037  34.533   4.257
70702W        W42995  42.993  43.415   5.238
70703W        W42996  12.645   1.805  14.814
70704W        W42997   7.203   2.444   4.176
70705W        W42998  13.310  21.563   2.223
70706W        W42999  21.623   3.784   4.312
70707W        W43000  12.129  16.582  11.875
70708W        W43001  12.776  13.814   3.819
70709W        W43002   9.661   5.857  14.396
70710W        W43003  36.430  22.023   3.275
70711W        W43004  17.126  12.702  11.052
70712W        W43005  34.587  32.421   0.332
70713W        W43006  24.565  42.983   0.339
70714W        W43007  19.551   4.242   2.693
70715W        W43008   6.805  23.517   0.729
70716W        W43009  35.916  34.894  12.463
70717W        W43010   8.854  35.003  13.544
70718W        W43011  14.321  32.496   4.742
70719W        W43012  10.859  24.160   1.286
70720W        W43013   3.411  10.199   0.908
70721W        W43014  38.476  20.189   4.761
70722W        W43015   6.717  33.385  14.893
70723W        W43016   8.338  25.150   1.432
70724W        W43017  33.512  34.595   4.286
70725W        W43018  20.034  13.816   0.767
70726W        W43019  43.935   1.936  12.367
70727W        W43020  23.128  26.533  11.552
70728W        W43021  44.440  36.376  11.107
70729W        W43022   7.272  24.609  11.084
70730W        W43023   5.246  17.612   2.211
70731W        W43024   3.909  35.898   2.774
70732W        W43025  24.077  27.508  12.898
70733W        W43026   6.195  19.252   1.894
70734W        W43027  16.702  27.000  10.955
70735W        W43028  40.868  10.149  11.055
70736W        W43029   8.364  30.635  12.950
70737W        W43030  17.559  16.657  13.322
70738W        W43031  31.450  31.966  10.913
70739W        W43032   2.813  41.443  14.846
70740W        W43033   4.330  15.205  10.987
70741W        W43034  21.251  40.309  14.780
70742W        W43035   7.352  21.559   1.319
70743W        W43036   0.975  37.349  11.545
70744W        W43037  13.193  43.809  14.929
70745W        W43038  18.736  24.197  10.144
70746W        W43039  36.481  31.511   4.828
70747W        W43040  34.494  39.906   2.341
70748W        W43041   4.224  10.780   2.708
70749W        W43042  14.138  28.614   3.176
70750W        W43043  21.028  33.886   2.352
70751W        W43044   0.816  14.165   0.244
70752W        W43045   8.834  30.156   2.273
70753W        W43046  27.071  40.871   1.837
70754W        W43047   6.716  38.473  14.926
70755W        W43048  43.389  41.807  14.883
70756W        W43049   0.369   7.799  10.593
70757W        W43050  32.991  14.685   4.632
70758W        W43051   6.213   2.350   2.221
70759W        W43052  10.322   7.899  12.041
70760W        W43053  44.966   0.956   1.899
70761W        W43054   2.916  24.131  14.919
70762W        W43055  27.504  13.223   2.767
70763W        W43056   1.260  14.146  13.927
70764W        W43057   2.729  25.186   1.235
70765W        W43058  24.209  16.198  10.561
70766W        W43059   3.883  38.920   0.302
70767W        W43060   2.899  37.354   2.751
70768W        W43061   9.370  24.011   1.322
70769W        W43062   9.200  11.367   4.171
70770W        W43063  35.896  27.548  12.920
70771W        W43064   2.287  21.710   4.266
70772W        W43065  17.578  20.620   0.942
70773W        W43066  24.628  30.587   0.884
70774W        W43067  43.008  40.307  10.406
70775W        W43068   6.363  44.973   4.744
70776W        W43069  18.250  42.871  13.521
70777W        W43070  21.728  14.260  12.385
70778W        W43071  44.984  26.204  12.493
70779W        W43072  24.061  37.048  12.489
70780W        W43073  32.498  24.541   0.400
70781W        W43074  22.119  20.082  12.000
70782W        W43075  10.239  11.826  11.596
70783W        W43076  34.596  21.203  11.583
70784W        W43077   4.934  30.958   5.118
70785W        W43078   3.742  42.882  11.881
70786W        W43079   8.162  20.691   0.770
70787W        W43080   2.925   2.294  12.875
70788W        W43081  13.809  32.995   4.250
70789W        W43082  16.655  36.355   3.733
70790W        W43083  33.573  14.174  10.491
70791W        W43084   5.265  27.085   2.819
70792W        W43085   9.261  13.119   2.415
70793W        W43086   6.698  32.596   0.244
70794W        W43087   9.320  44.941  12.549
70795W        W43088  27.094  29.664  11.074
70796W        W43089  17.170   7.735   3.303
70797W        W43090  19.575   8.895  14.432
70798W        W43091  33.471   5.313  11.967
70799W        W43092  34.539   8.269  14.779
70800W        W43093  16.683  35.959   4.767
70801W        W43094   9.726  18.128   4.211
70802W        W43095  21.184  38.397   3.354
70803W        W43096  17.612   6.304  14.779
70804W        W43097   2.923  12.128   3.712
70805W        W43098  18.640  44.293   0.910
70806W        W43099   0.768  20.222  11.942
70807W        W43100  10.777  17.747   0.401
70808W        W43101  24.101  18.778   4.730
70809W        W43102   8.666   5.737   4.293
70810W        W43103   2.721  31.972  12.392
70811W        W43104  16.788   4.795  12.565
70812W        W43105  12.181  21.590  11.492
70813W        W43106  19.770  11.777  13.538
70814W        W43107  44.830   2.230   0.778
70815W        W43108  32.510  28.077  13.317
70816W        W43109  10.711   8.374  14.937
70817W        W43110  32.628  11.717   4.272
70818W        W43111  40.911  34.516  11.459
70819W        W43112   8.704  44.294   1.354
70820W        W43113   7.384  37.389  13.958
70821W        W43114   8.304  17.146   4.680
70822W        W43115  10.158  17.175  14.860
70823W        W43116  25.139  25.506  11.988
70824W        W43117  41.485  22.504  12.578
70825W        W43118  38.030  30.101  12.416
70826W        W43119  42.358  16.720   4.308
70827W        W43120   3.318  20.099   2.799
70828W        W43121  36.537  20.654   2.671
70829W        W43122  29.627  28.594   2.710
70830W        W43123  42.942   9.808   2.815
70831W        W43124  12.613  21.080  12.423
70832W        W43125  12.168   5.427  10.445
70833W        W43126  43.363  44.340  12.921
70834W        W43127   1.467  24.566   2.188
70835W        W43128   5.927   6.846  12.976
70836W        W43129  25.583  43.966  10.623
70837W        W43130  19.619  25.026   2.387
70838W        W43131   1.875  20.163  13.475
70839W        W43132  37.984  11.700   0.798
70840W        W43133  12.290  29.548  14.297
70841W        W43134  23.677   7.344  13.355
70842W        W43135  32.464  33.401  12.577
70843W        W43136  42.926  15.279  12.340
70844W        W43137  16.199  14.672   4.142
70845W        W43138   7.252  31.420   4.650
70846W        W43139  19.118  39.047   0.850
70847W        W43140   2.316  35.057   4.203
70848W        W43141  38.887  43.859  14.876
70849W        W43142  36.016  16.739  12.047
70850W        W43143  13.651  32.070   0.915
70851W        W43144   4.450  36.094  10.442
70852W        W43145  16.284  10.818   0.442
70853W        W43146  28.474  38.917  11.997
70854W        W43147   8.235  36.092   4.632
70855W        W43148  21.638   7.782   2.667
70856W        W43149  24.594   8.375  14.305
70857W        W43150  11.744  29.454  11.942
70858W        W43151   2.961   7.709   0.310
70859W        W43152  19.086  33.484   2.889
70860W        W43153  22.221  14.193  13.805
70861W        W43154  25.631  34.445  10.086
70862W        W43155  43.396  26.521   4.351
70863W        W43156  21.127  32.503   5.715
70864W        W43157  14.713   4.321   2.891
70865W        W43158  19.651  22.252  12.416
70866W        W43159  44.968  43.993   0.315
70867W        W43160  41.488   9.232  14.975
70868W        W43161   5.705  38.331   3.796
70869W        W43162  41.816  31.441   3.830
70870W        W43163  28.563  23.195  14.419
70871W        W43164   6.368   4.405  12.574
70872W        W43165  16.762  27.130   1.319
70873W        W43166  11.301  18.080  11.107
70874W        W43167   8.821  17.641  14.760
70875W        W43168  30.920  29.023   0.265
70876W        W43169  39.538  43.808   2.778
70877W        W43170   3.726  14.205  12.083
70878W        W43171  32.045  38.934  14.304
70879W        W43172  12.299   4.762  13.313
70880W        W43173  19.156   2.837   4.202
70881W        W43174   5.737  22.683  12.863
70882W        W43175  30.974  10.138   0.376
70883W        W43176  43.440  13.600   0.262
70884W        W43177  35.511  30.544   0.852
70885W        W43178  31.921   5.308   3.298
70886W        W43179   3.812  12.162   4.125
70887W        W43180  26.092   6.331  10.413
70888W        W43181   7.340   6.843  10.903
70889W        W43182  40.018  30.483  12.450
70890W        W43183   7.215  24.219   3.697
70891W        W43184  43.414  16.140   0.869
70892W        W43185  23.577  33.005   3.699
70893W        W43186   3.858  14.649   1.246
70894W        W43187  35.508  22.192   0.919
70895W        W43188  17.672  20.565   1.278
70896W        W43189   5.319  42.011  14.302
70897W        W43190  35.008  37.441   4.715
70898W        W43191   7.697  26.621   5.151
70899W        W43192  19.223  33.481  12.039
70900W        W43193   2.382  29.659   5.293
70901W        W43194  41.043  28.952  14.288
70902W        W43195  35.435  39.533  12.003
70903W        W43196  20.243  30.123  14.989
70904W        W43197  41.789  42.996   3.765
70905W        W43198  42.457   7.374   0.831
70906W        W43199  25.486  25.605   3.684
70907W        W43200  17.597  19.650   0.284
70908W        W43201  16.701  28.016   1.915
70909W        W43202  29.005  16.621   2.387
70910W        W43203  23.019   3.833  11.542
70911W        W43204  12.616  28.019  14.313
70912W        W43205  28.155  40.428  10.565
70913W        W43206  40.345  27.134  10.589
70914W        W43207  18.062   1.277  10.499
70915W        W43208  40.897  40.993  12.096
70916W        W43209  39.955  13.811   2.297
70917W        W43210   5.197   0.786   2.390
70918W        W43211  28.121  19.662  11.066
70919W        W43212  35.478   4.778  12.925
70920W        W43213  22.614  33.529   4.765
70921W        W43214  12.688  39.470  13.835
70922W        W43215  44.379  17.605  11.393
70923W        W43216  37.880  29.457  13.530
70924W        W43217  29.444  29.985  12.038
70925W        W43218  33.488   4.798  13.377
70926W        W43219  38.548  11.334  13.468
70927W        W43220  26.623   4.347  11.448
70928W        W43221  42.948   5.363  13.962
70929W        W43222  14.215   3.383  11.015
70930W        W43223  36.018  11.160  11.516
70931W        W43224  40.499  10.231   4.270
70932W        W43225  42.811  31.083   3.166
70933W        W43226  16.123  33.592   1.883
70934W        W43227   2.468  14.714  11.372
70935W        W43228  28.542  28.666  12.897
70936W        W43229  15.286  36.056   1.342
70937W        W43230   7.264  33.390  10.126
70938W        W43231  18.276   1.839  10.927
70939W        W43232  39.953  10.875   1.292
70940W        W43233  29.597  35.550  11.391
70941W        W43234  27.569  14.152   2.233
70942W        W43235  19.643  10.708   0.821
70943W        W43236  11.314  19.253   1.894
70944W        W43237  25.032   6.704  14.864
70945W        W43238  33.905  10.823   0.306
70946W        W43239  32.626  38.996   3.777
70947W        W43240  28.056  28.467   3.219
70948W        W43241  14.127  12.729   1.352
70949W        W43242  38.850  21.628  12.385
70950W        W43243  20.748  41.039  14.987
70951W        W43244  37.926  35.902   2.752
70952W        W43245  34.905  15.113   2.265
70953W        W43246  17.577   8.393   3.664
70954W        W43247  26.515  43.294   3.813
70955W        W43248  11.349  15.718  11.028
70956W        W43249   0.317  29.612   4.647
70957W        W43250  11.749  39.963   1.894
70958W        W43251  30.526  14.240  11.395
70959W        W43252  15.260  21.550  13.486
70960W        W43253   2.337  12.627  12.894
70961W        W43254  36.893   4.803   0.763
70962W        W43255  42.775   5.776   0.814
70963W        W43256  44.321  37.074  13.945
70964W        W43257  24.523  26.190  13.447
70965W        W43258   4.338  41.006  11.925
70966W        W43259   4.944  31.142   4.734
70967W        W43260  21.142  38.344   1.246
70968W        W43261  30.654   2.336  10.454
70969W        W43262  36.088  27.510   1.217
70970W        W43263  37.974  18.248   4.752
70971W        W43264  21.754  19.586  11.125
70972W        W43265   0.941  41.426  11.602
70973W        W43266   4.304   0.342  13.440
70974W        W43267   1.472   5.385   0.875
70975W        W43268  41.824  31.060   2.211
70976W        W43269   9.703  44.984  13.471
70977W        W43270  33.518  11.317  14.495
70978W        W43271  37.973  43.289  13.859
70979W        W43272  38.916  13.132   0.422
70980W        W43273  39.996  13.656   2.799
70981W        W43274  42.381  17.681   3.781
70982W        W43275  12.807  21.144   5.173
70983W        W43276  41.980  15.718   4.745
70984W        W43277  31.134  26.152   2.262
70985W        W43278  26.519  20.065   3.840
70986W        W43279  12.839  15.185   2.342
70987W        W43280   4.906  29.471   2.730
70988W        W43281  23.078  28.114  10.492
70989W        W43282   0.484  34.917   2.232
70990W        W43283   7.321  18.720   2.393
70991W        W43284  34.961   6.880  14.314
70992W        W43285  18.776  36.091   1.280
70993W        W43286   1.457  23.701   2.353
70994W        W43287  36.428  31.612  14.303
70995W        W43288  30.997  43.350   4.345
70996W        W43289   1.868   2.399   2.187
70997W        W43290  19.642  33.465  11.874
70998W        W43291  14.164  36.567   2.377
70999W        W43292   6.868  42.405   3.327
71000W        W43293  17.600   1.302  11.125
71001W        W43294  40.468  40.431  11.531
71002W        W43295  42.441   4.413  14.389
71003W        W43296  15.307  23.109   2.707
71004W        W43297  34.064  10.183  11.393
71005W        W43298  26.564   3.752  14.887
71006W        W43299  28.148  16.680   1.220
71007W        W43300  15.148  21.713  13.812
71008W        W43301  29.670  22.504  13.525
71009W        W43302  31.480   4.916   0.778
71010W        W43303  21.105  19.104   4.315
71011W        W43304  21.097  25.970  12.891
71012W        W43305   0.906   9.717   3.150
71013W        W43306  43.012  13.296   3.666
71014W        W43307   9.337  17.213  10.943
71015W        W43308   7.666  11.248   2.321
71016W        W43309  15.720  43.000   1.749
71017W        W43310   6.343  36.549   0.361
71018W        W43311   1.933  32.983   0.331
71019W        W43312   9.365  11.666  13.798
71020W        W43313   9.661  43.999  12.964
71021W        W43314  24.617  17.731  10.631
71022W        W43315  32.967  25.986  13.958
71023W        W43316  39.916  30.128   3.149
71024W        W43317   1.963   4.805   1.776
71025W        W43318  32.066   1.477   3.634
71026W        W43319  15.744  40.339  12.441
71027W        W43320  33.466  20.668  12.010
71028W        W43321  32.602  37.552  12.485
71029W        W43322   0.744  28.484  12.064
71030W        W43323  23.161  41.792  12.900
71031W        W43324  16.090   3.941   1.913
71032W        W43325  24.093   5.893  11.880
71033W        W43326  39.485   5.225  12.529
71034W        W43327   8.244  36.845   2.800
71035W        W43328   5.218  13.795   2.843
71036W        W43329  32.421  28.122   0.917
71037W        W43330   5.236   4.267   4.160
71038W        W43331  40.325  39.978  13.046
71039W        W43332   6.884  37.057   2.211
71040W        W43333  18.127  34.871   2.762
71041W        W43334  40.941   1.421  13.029
71042W        W43335  35.000   3.271  11.541
71043W        W43336  12.169   6.365  13.008
71044W        W43337  24.602  30.974   0.432
71045W        W43338  18.184  16.312   0.837
71046W        W43339  10.264   8.697   4.741
71047W        W43340  31.595  11.621   3.352
71048W        W43341  21.739   2.294   0.956
71049W        W43342  38.464   1.788  10.963
71050W        W43343  29.029  14.699   0.790
71051W        W43344   7.673   7.790  14.915
71052W        W43345  40.490   3.383  13.982
71053W        W43346  23.229  30.942   2.667
71054W        W43347   2.919  43.910   3.364
71055W        W43348  41.398   9.723  14.288
71056W        W43349  44.927  27.168  13.484
71057W        W43350  32.630   9.848  14.837
71058W        W43351  44.493  14.717   4.628
71059W        W43352  24.215  23.095  10.626
71060W        W43353  38.345  12.759  13.949
71061W        W43354   9.742  13.306   3.798
71062W        W43355  23.096   3.423   1.219
71063W        W43356  13.601   3.349   4.734
71064W        W43357  27.527  35.013  12.031
71065W        W43358  15.627  12.292   4.806
71066W        W43359  41.438   6.841   0.762
71067W        W43360  42.925  10.351  10.501
71068W        W43361   0.261  39.018  11.074
71069W        W43362  10.841  11.361  14.002
71070W        W43363  23.147  13.709  10.636
71071W        W43364   9.730  38.497  14.791
71072W        W43365  34.916  30.155  11.427
71073W        W43366   0.266  26.551  14.958
71074W        W43367  32.932  40.864  12.051
71075W        W43368  17.082  15.609   0.436
71076W        W43369  13.706  40.489  11.027
71077W        W43370  39.489  42.495   4.617
71078W        W43371  29.116  31.008   1.917
71079W        W43372   5.771  21.027   2.342
71080W        W43373  18.672  20.245  11.380
71081W        W43374  18.738  19.745  11.562
71082W        W43375  43.959  14.678   2.759
71083W        W43376  18.659  37.874   3.328
71084W        W43377  24.204  10.169  10.556
71085W        W43378  20.646  15.089   2.674
71086W        W43379   5.766  12.360   3.221
71087W        W43380  17.070  23.156   0.306
71088W        W43381  26.641  33.080  14.515
71089W        W43382  21.658  17.097  11.021
71090W        W43383   8.256  12.853  10.424
71091W        W43384   3.772  12.755  11.464
71092W        W43385   9.682  31.092  14.420
71093W        W43386  13.804   1.905  10.144
71094W        W43387  33.416  35.954   2.206
71095W        W43388  27.964   7.215  13.868
71096W        W43389   3.892  15.725   2.283
71097W        W43390  16.677  40.870   3.788
71098W        W43391   8.731  19.751  10.993
71099W        W43392  37.021  19.085   2.780
71100W        W43393  42.438   3.293   5.146
71101W        W43394  25.571  24.040  12.884
71102W        W43395   5.916  17.588  10.598
71103W        W43396   4.363  20.694   4.181
71104W        W43397   8.805  44.381   4.346
71105W        W43398  44.994  18.791   0.945
71106W        W43399  11.367  13.616   0.326
71107W        W43400  15.776   6.904   1.238
71108W        W43401   9.301   4.264  11.111
71109W        W43402  28.138  33.051   4.312
71110W        W43403  32.051   1.776  11.000
71111W        W43404  15.281  12.729  12.519
71112W        W43405  17.631  39.422   3.813
71113W        W43406  12.754  27.480  13.829
71114W        W43407  30.919  16.101   2.311
71115W        W43408   5.427  37.551  13.310
71116W        W43409  22.691   0.310   4.782
71117W        W43410   0.866  14.203  13.449
71118W        W43411  32.562  16.235  13.942
71119W        W43412  38.485  31.566  11.419
71120W        W43413  35.977  14.305   3.327
71121W        W43414  40.832  43.514  13.826
71122W        W43415  39.980  24.578  14.955
71123W        W43416  40.379  30.510   2.195
71124W        W43417  18.140  27.103   3.759
71125W        W43418  35.957  14.298  12.508
71126W        W43419  34.539   1.873   3.785
71127W        W43420  30.629  11.192  11.518
71128W        W43421  14.697  17.591  13.794
71129W        W43422  25.196   1.754  12.934
71130W        W43423  15.273  21.656  12.489
71131W        W43424  29.081  14.241  14.896
71132W        W43425  20.091  14.708  13.974
71133W        W43426  18.141  26.653  12.839
71134W        W43427  26.522  41.919   1.865
71135W        W43428  37.049  41.351   4.187
71136W        W43429  33.445   9.284   3.734
71137W        W43430  38.425  27.178  10.521
71138W        W43431  17.074  10.707   2.682
71139W        W43432  33.493  15.082  12.959
71140W        W43433  19.650  13.684   4.777
71141W        W43434  11.231   5.717   0.860
71142W        W43435  33.956  40.440  14.403
71143W        W43436  14.767   7.212  11.970
71144W        W43437  28.016  40.875  12.496
71145W        W43438  40.805  35.369   3.358
71146W        W43439  37.503   0.471   0.833
71147W        W43440  37.382  38.426   3.731
71148W        W43441  23.679  34.970   4.729
71149W        W43442  20.150  43.847   4.822
71150W        W43443   5.300  20.687  13.824
71151W        W43444  25.016  37.452  13.521
71152W        W43445  15.166  43.358  12.828
71153W        W43446  41.010  15.789   4.651
71154W        W43447  14.650  17.556   0.766
71155W        W43448  18.175   9.216  12.413
71156W        W43449   6.330   9.237  12.041
71157W        W43450  23.526   6.859  13.818
71158W        W43451  42.376   0.983   3.327
71159W        W43452  42.506  10.735  14.783
71160W        W43453   3.728   8.885   3.376
71161W        W43454  27.115  26.991   2.849
71162W        W43455   0.945   5.781  10.617
71163W        W43456  20.662  38.942  13.319
71164W        W43457  21.160  19.217   0.788
71165W        W43458  43.456  30.154  12.386
71166W        W43459  30.088  15.203  12.918
71167W        W43460  23.014  26.050   3.281
71168W        W43461  29.984  36.539  13.793
71169W        W43462  17.738  40.514   2.890
71170W        W43463  42.333  20.599   0.777
71171W        W43464   9.678  32.092  10.888
71172W        W43465   5.330  14.107  11.968
71173W        W43466   0.319  11.811   3.215
71174W        W43467   4.915  41.404   0.271
71175W        W43468  16.256  23.188   1.734
71176W        W43469   8.719   5.279   2.383
71177W        W43470  32.889   9.274   4.313
71178W        W43471  17.259   1.471  11.870
71179W        W43472  25.030  29.642  12.999
71180W        W43473  30.434  36.882  13.807
71181W        W43474  15.737  14.744  10.571
71182W        W43475  21.119   8.771  12.510
71183W        W43476   1.957   3.814  14.017
71184W        W43477  36.938  44.821  10.638
71185W        W43478  42.364  35.380  11.884
71186W        W43479  13.761  38.980   4.350
71187W        W43480  29.533   8.372  11.033
71188W        W43481  38.406  35.452  11.397
71189W        W43482  15.149  40.513  10.482
71190W        W43483  33.109  25.500  10.579
71191W        W43484  27.125   2.310  12.399
71192W        W43485   7.820  20.553  13.414
71193W        W43486  23.203  17.065  13.384
71194W        W43487  31.054  10.689  12.878
71195W        W43488  19.701   6.908  13.919
71196W        W43489  20.544  32.538   2.838
71197W        W43490  24.676  32.621  10.960
71198W        W43491  15.102  35.481  10.458
71199W        W43492  14.126  35.883   1.778
71200W        W43493   8.382   0.981  11.540
71201W        W43494  23.502  44.807  14.403
71202W        W43495  24.696  28.931  13.860
71203W        W43496  20.763  17.195   1.395
71204W        W43497  14.318  35.554   3.208
71205W        W43498   7.669  16.612  12.071
71206W        W43499  33.529  17.577   2.367
71207W        W43500  34.067  24.596  12.073
71208W        W43501  43.455  27.612  13.403
71209W        W43502  44.985  18.626  14.927
71210W        W43503  15.806  17.638  11.101
71211W        W43504  24.511  22.201  12.012
71212W        W43505  34.921   1.941  14.004
71213W        W43506  15.289  33.045  12.001
71214W        W43507  37.871   7.296   4.262
71215W        W43508  24.174  11.742  14.481
71216W        W43509  36.394  40.912  10.470
71217W        W43510  11.745   4.381   3.211
71218W        W43511   6.196   5.405   4.774
71219W        W43512  15.707  18.635  11.451
71220W        W43513  28.637  33.410  11.535
71221W        W43514  35.883  17.246   4.116
71222W        W43515   9.766  27.505  13.005
71223W        W43516  36.091  13.618   0.455
71224W        W43517  43.949  36.565   1.287
71225W        W43518  21.173  20.650   3.644
71226W        W43519  11.671   8.382   0.439
71227W        W43520  21.194  17.279   3.841
71228W        W43521  28.675   3.403  14.911
71229W        W43522  25.579  33.494  11.043
71230W        W43523  19.229   5.923   3.186
71231W        W43524  31.435  24.034  14.428
71232W        W43525  14.172  13.784  11.529
71233W        W43526  28.938   4.332  14.310
71234W        W43527  37.491  11.158  14.009
71235W        W43528   3.709  43.396   0.731
71236W        W43529  26.194  19.195   1.930
71237W        W43530  33.927  24.513   1.856
71238W        W43531  23.001   8.303  11.443
71239W        W43532   3.945   9.825   1.764
71240W        W43533  30.083  10.682  11.437
71241W        W43534  43.940  34.012   5.629
71242W        W43535   2.856  25.470  13.325
71243W        W43536  44.886   9.319   2.345
71244W        W43537  37.960  28.076   2.771
71245W        W43538  15.778  32.423   3.340
71246W        W43539  41.920  10.346  11.969
71247W        W43540  28.930  31.498  12.428
71248W        W43541  15.306  42.841  14.514
71249W        W43542   4.797  20.546  11.593
71250W        W43543   8.825  23.229  14.357
71251W        W43544  19.682  21.223   3.278
71252W        W43545  30.992  31.119   3.865
71253W        W43546  31.481  38.511  10.443
71254W        W43547  35.448   7.862  10.938
71255W        W43548   7.696  32.498  13.453
71256W        W43549  39.542  16.768  13.043
71257W        W43550  33.497  10.163  11.888
71258W        W43551  21.134   9.799   3.185
71259W        W43552   2.786  44.944  11.933
71260W        W43553   1.346  44.820  12.918
71261W        W43554   5.927  18.771  14.939
71262W        W43555   0.872  44.978   1.232
71263W        W43556  38.417   5.818   4.317
71264W        W43557  26.964   5.244  12.516
71265W        W43558  44.989  27.982  12.518
71266W        W43559   8.878  10.238  11.944
71267W        W43560  12.802   9.233  14.836
71268W        W43561  10.731   3.866   2.217
71269W        W43562   8.710   6.776  10.436
71270W        W43563  12.853   8.724   1.227
71271W        W43564  22.709  37.521   5.102
71272W        W43565  28.180  23.658  14.913
71273W        W43566   7.853  38.382   4.605
71274W        W43567  26.062  42.031   3.323
71275W        W43568   2.878  13.617   4.132
71276W        W43569  17.557  14.124   3.731
71277W        W43570  29.051  39.847   3.160
71278W        W43571  21.738  27.044  11.907
71279W        W43572  17.107  44.908   4.229
71280W        W43573   2.936  23.689   4.801
71281W        W43574  10.207  31.954  12.934
71282W        W43575  29.039  24.549  13.884
71283W        W43576  30.444  24.544   3.330
71284W        W43577  33.480  35.357   4.785
71285W        W43578  24.706  18.162  10.983
71286W        W43579  43.290   7.779  14.980
71287W        W43580   4.834  16.746   4.145
71288W        W43581   1.249  21.183  10.552
71289W        W43582  12.638  21.039   1.836
71290W        W43583   8.663  18.165  14.848
71291W        W43584  27.670  17.719  11.380
71292W        W43585  25.482  15.667   3.831
71293W        W43586   5.304  23.666   0.446
71294W        W43587  32.112  12.148   3.225
71295W        W43588  43.002  42.019  10.441
71296W        W43589  44.422  13.729  11.556
71297W        W43590  40.366  19.184   0.471
71298W        W43591   5.377  21.176   1.731
71299W        W43592  10.369  31.514  11.129
71300W        W43593  35.518   8.325  11.582
71301W        W43594  25.087   1.259  11.911
71302W        W43595  37.507  20.092   3.302
71303W        W43596  17.267  29.116   4.730
71304W        W43597  27.147  24.668   5.620
71305W        W43598  40.469  13.662  13.421
71306W        W43599   9.807   4.702  13.479
71307W        W43600  16.779  14.813   2.411
71308W        W43601  43.433   5.833   0.394
71309W        W43602  20.108   7.356  13.990
71310W        W43603  17.614  31.533   0.907
71311W        W43604  42.013   6.899  10.503
71312W        W43605  42.340  17.235  11.059
71313W        W43606  14.340  43.961  13.025
71314W        W43607  27.052   5.234   1.397
71315W        W43608  25.127  28.563  13.038
71316W        W43609  42.946  35.960   4.835
71317W        W43610  30.633  22.230  13.548
71318W        W43611  36.064   2.822  14.436
71319W        W43612  11.138   5.424  12.403
71320W        W43613  44.317  22.552   3.818
71321W        W43614  24.568   1.257  10.580
71322W        W43615  34.877   8.330   0.289
71323W        W43616  44.980  12.739   1.313
71324W        W43617  10.182  14.791   1.933
71325W        W43618   8.839  36.890   0.891
71326W        W43619  24.611  13.733   3.719
71327W        W43620  10.838  25.642  10.605
71328W        W43621  22.725   5.793  10.981
71329W        W43622  27.514  37.076  14.404
71330W        W43623  19.058  31.582  11.889
71331W        W43624  21.070  10.142   3.803
71332W        W43625   8.172  18.062   2.748
71333W        W43626  35.385  12.216   0.439
71334W        W43627   0.796  25.650  14.457
71335W        W43628  44.397  33.453   0.365
71336W        W43629   3.774  34.515  14.514
71337W        W43630   1.320  31.151   2.327
71338W        W43631  32.088  32.570   2.779
71339W        W43632  24.576   4.746  10.953
71340W        W43633   6.415  11.194   0.822
71341W        W43634   7.671  34.596  10.949
71342W        W43635  15.177  15.815  11.541
71343W        W43636  43.423   6.416  12.499
71344W        W43637  30.958  43.280  11.038
71345W        W43638  12.756  35.928   1.337
71346W        W43639   8.868  24.692   4.710
71347W        W43640  36.519   7.877  12.376
71348W        W43641  11.862   5.326   0.754
71349W        W43642  33.391   4.442  12.043
71350W        W43643  34.566  23.044   1.765
71351W        W43644  25.576  25.475   1.932
71352W        W43645  21.087  35.430   2.411
71353W        W43646   2.422   2.859   1.374
71354W        W43647  24.595   1.819   0.728
71355W        W43648  24.088   7.905   4.328
71356W        W43649  36.091   1.259   4.798
71357W        W43650  21.661  11.155   2.743
71358W        W43651   8.894  33.051  14.785
71359W        W43652   4.737  38.908   1.400
71360W        W43653  43.013  18.700   9.961
71361W        W43654  41.314  30.511   2.273
71362W        W43655   4.894  33.480   1.285
71363W        W43656  11.173  31.567   3.691
71364W        W43657  11.217  10.721   3.317
71365W        W43658  22.166   4.404   2.889
71366W        W43659   4.908   4.732   3.272
71367W        W43660  42.863  36.408   3.758
71368W        W43661   5.212  42.913   2.341
71369W        W43662  20.090  44.297   4.319
71370W        W43663  27.460   0.280   2.719
71371W        W43664  26.139   8.879   1.443
71372W        W43665  18.579   2.826   0.287
71373W        W43666  31.493  35.489   2.786
71374W        W43667  29.489  14.652  12.869
71375W        W43668  12.317  42.835   2.268
71376W        W43669  11.636  22.612  13.350
71377W        W43670   7.895  13.154   0.856
71378W        W43671   7.208  42.790   2.199
71379W        W43672   3.819  35.023  14.387
71380W        W43673  30.986  10.145   1.781
71381W        W43674  23.089  43.854  10.492
71382W        W43675   7.720  25.699  13.988
71383W        W43676   6.208  36.918   1.432
71384W        W43677   0.428  41.861  12.867
71385W        W43678  30.603  40.529   5.191
71386W        W43679  21.102  30.115  13.540
71387W        W43680   3.247   7.696  11.118
71388W        W43681  10.374   9.824   0.782
71389W        W43682  27.553  35.360  13.311
71390W        W43683  27.563  23.029  13.808
71391W        W43684  27.135  26.697   2.334
71392W        W43685  29.520  30.433   9.975
71393W        W43686  13.253   0.972  13.398
71394W        W43687   9.368  44.289  11.459
71395W        W43688   2.780  23.540  11.016
71396W        W43689  42.965  18.231  11.933
71397W        W43690   4.415  18.583  10.458
71398W        W43691  11.768   6.381  12.859
71399W        W43692  26.625  27.658   1.821
71400W        W43693  15.199  41.451   2.747
71401W        W43694  17.291  41.841  12.557
71402W        W43695  18.167   6.676  11.946
71403W        W43696  24.710  21.689   4.137
71404W        W43697  21.023  16.203  11.883
71405W        W43698   0.446  38.351  14.433
71406W        W43699  31.450   3.324   4.661
71407W        W43700   7.858   3.260   0.325
71408W        W43701  19.207  26.469  14.787
71409W        W43702  36.057  42.338   4.638
71410W        W43703  42.941  15.269   3.359
71411W        W43704   3.932  20.151   0.384
71412W        W43705  16.281  29.589  14.985
71413W        W43706  36.073  32.588  10.986
71414W        W43707   0.851  32.909   4.202
71415W        W43708  38.547   4.254   1.788
71416W        W43709  11.138  13.273   0.316
71417W        W43710   2.965   2.921  14.984
71418W        W43711  36.475  16.130   0.812
71419W        W43712  22.681  34.109  11.922
71420W        W43713  31.633  13.791  12.871
71421W        W43714   0.345  19.751  13.348
71422W        W43715  32.071  25.063  14.490
71423W        W43716  16.240   8.892  13.459
71424W        W43717  22.553  22.593  13.825
71425W        W43718  18.234   2.878   0.413
71426W        W43719  18.654  20.627   5.245
71427W        W43720  39.896  34.430  11.908
71428W        W43721  42.816   5.422  11.067
71429W        W43722  29.533  23.142  13.811
71430W        W43723   4.811  24.010   2.867
71431W        W43724  11.194   8.773   1.925
71432W        W43725  38.859   1.393  10.530
71433W        W43726  42.401   2.238  11.587
71434W        W43727  42.976  15.138  13.912
71435W        W43728  34.481  32.030   3.759
71436W        W43729   7.202  30.145  11.858
71437W        W43730  24.501  17.800  14.464
71438W        W43731  14.246   5.199   3.773
71439W        W43732  24.180   9.865  13.465
71440W        W43733   8.665   3.430  11.547
71441W        W43734   6.214  15.614  12.482
71442W        W43735  26.626  22.618   5.644
71443W        W43736  14.243  36.061  12.080
71444W        W43737   4.412  32.619   3.699
71445W        W43738  13.289  11.215  11.490
71446W        W43739  15.768   3.429   2.294
71447W        W43740  24.688  44.798   0.396
71448W        W43741  13.662  10.710  12.868
71449W        W43742   4.847   9.850   3.857
71450W        W43743  25.631   2.900  12.862
71451W        W43744  32.614  22.717   0.426
71452W        W43745  11.682  35.482  11.956
71453W        W43746  16.777  12.778  11.414
71454W        W43747   8.187   2.792   2.191
71455W        W43748  41.901   9.248   4.204
71456W        W43749  18.545  12.132  11.560
71457W        W43750  10.193  40.331   5.291
71458W        W43751  24.981  40.910  11.012
71459W        W43752  16.776  20.222   4.829
71460W        W43753   8.819   0.350   2.178
71461W        W43754  29.633   2.780  14.985
71462W        W43755  34.989  32.135   2.253
71463W        W43756  18.148   1.310  14.883
71464W        W43757  42.845  11.372  13.870
71465W        W43758  10.153  37.086   2.834
71466W        W43759  25.703   9.815  13.060
71467W        W43760  11.802  11.305   0.831
71468W        W43761   9.727  32.963  10.630
71469W        W43762  16.771  15.328   4.722
71470W        W43763  18.779  17.688  11.971
71471W        W43764  42.489   4.413  13.911
71472W        W43765  13.821  38.015   3.163
71473W        W43766  24.517  30.971  14.016
71474W        W43767  20.685  16.662   0.850
71475W        W43768   6.248  19.247   1.222
71476W        W43769  40.013  25.659   4.782
71477W        W43770  11.707  28.645   2.896
71478W        W43771  13.623  29.574   4.725
71479W        W43772  12.344  39.415  13.045
71480W        W43773  28.502  37.046  12.835
71481W        W43774  28.125  40.957   0.254
71482W        W43775  32.007   3.797  11.953
71483W        W43776  19.274  15.671  13.827
71484W        W43777   1.434   8.839   3.743
71485W        W43778  35.463   5.330   4.186
71486W        W43779  27.131  25.579  14.906
71487W        W43780  23.694  24.043   3.157
71488W        W43781  43.296  12.302  13.003
71489W        W43782  35.984  23.715   1.417
71490W        W43783  30.482   1.282  12.343
71491W        W43784  35.426   0.457  10.635
71492W        W43785   0.855  19.228   4.247
71493W        W43786  18.756  20.679   5.714
71494W        W43787  31.988   0.948  14.362
71495W        W43788  43.972   7.274   1.243
71496W        W43789   4.324  20.153  13.382
71497W        W43790  29.146   1.371  11.611
71498W        W43791  18.145   2.867   1.728
71499W        W43792  32.619   4.827   0.823
71500W        W43793  39.348   2.375   2.858
71501W        W43794  21.122  42.002   1.239
71502W        W43795  31.989  35.080   0.747
71503W        W43796   7.797  11.688  13.443
71504W        W43797   4.418  27.562  14.835
71505W        W43798   6.282  14.736  12.830
71506W        W43799   8.386  31.489  13.940
71507W        W43800  26.516  13.109   2.362
71508W        W43801   5.704  33.980   2.277
71509W        W43802  28.611  25.983  14.356
71510W        W43803  38.391  11.169  13.981
71511W        W43804  44.890  39.447   4.631
71512W        W43805   8.220  33.992  11.999
71513W        W43806  17.073  30.923   3.699
71514W        W43807   5.777  12.752  14.503
71515W        W43808  10.846  29.550   0.376
71516W        W43809  21.581  41.496  11.067
71517W        W43810  33.591  40.418   0.940
71518W        W43811  29.166  12.234  13.314
71519W        W43812  36.078  27.610  11.408
71520W        W43813  35.999  36.414   3.355
71521W        W43814  10.771  22.116   0.304
71522W        W43815  31.487   4.334  14.325
71523W        W43816  37.434  35.066   4.824
71524W        W43817   0.746  22.155  14.335
71525W        W43818   4.275   7.224   2.697
71526W        W43819  10.329  18.765  14.375
71527W        W43820  16.594  36.483  11.936
71528W        W43821  26.568   5.862  11.595
71529W        W43822  34.924  28.575   1.430
71530W        W43823  38.542   6.725   1.880
71531W        W43824  33.127   2.845  12.967
71532W        W43825  44.761  28.669   0.754
71533W        W43826   6.894  26.129  11.982
71534W        W43827  25.086  16.159   0.426
71535W        W43828  19.623  29.054   1.451
71536W        W43829  34.945  23.604  14.976
71537W        W43830  37.053  26.507   0.808
71538W        W43831  34.564  19.049   0.937
71539W        W43832  24.499  10.762  11.581
71540W        W43833  37.896   9.346   3.815
71541W        W43834   0.827  15.814   2.855
71542W        W43835  10.336  12.610   3.152
71543W        W43836  36.362  21.518  10.593
71544W        W43837  31.472  22.229   2.369
71545W        W43838  14.800   0.458  11.492
71546W        W43839  34.377  18.681  14.898
71547W        W43840   4.314  32.597   1.872
71548W        W43841  10.335  11.364  14.315
71549W        W43842  43.020  27.159   2.727
71550W        W43843  14.633  31.995   5.222
71551W        W43844   3.448  18.091   3.249
71552W        W43845   2.903   0.434  14.030
71553W        W43846  21.261  27.551  12.556
71554W        W43847  22.226  42.805  12.957
71555W        W43848   5.851   3.852  13.979
71556W        W43849  35.891   4.831   2.413
71557W        W43850  31.636  15.262   4.686
71558W        W43851   4.229  36.057   2.379
71559W        W43852  38.895  12.138  11.081
71560W        W43853  35.433  41.860  12.404
71561W        W43854  43.271  21.211  12.404
71562W        W43855  28.620  22.697  14.431
71563W        W43856  32.628  25.048   3.671
71564W        W43857   1.866   9.341  13.329
71565W        W43858  37.359  31.043   2.866
71566W        W43859   1.737  22.138   2.186
71567W        W43860  42.799  22.132  10.626
71568W        W43861  17.701  43.456   4.739
71569W        W43862  41.822  36.444   2.327
71570W        W43863   1.901  21.522  13.313
71571W        W43864   6.789  26.657  12.577
71572W        W43865  17.192  23.047   1.235
71573W        W43866  36.467  12.851  14.351
71574W        W43867  41.041  20.578  12.573
71575W        W43868  14.762   8.737   0.461
71576W        W43869  37.466   6.423   4.737
71577W        W43870  44.978  26.697  14.439
71578W        W43871   9.648   3.846  11.519
71579W        W43872  40.369  11.693   0.879
71580W        W43873  26.557  42.979   4.210
71581W        W43874  33.569  36.447  12.917
71582W        W43875  22.242  14.202   1.697
71583W        W43876  36.519   0.454  12.425
71584W        W43877  31.121   7.308  12.078
71585W        W43878  20.242  39.542  14.483
71586W        W43879  22.116  19.256  12.899
71587W        W43880  30.931  29.617   4.634
71588W        W43881  41.961  25.061   1.257
71589W        W43882  22.070  37.917  12.965
71590W        W43883  10.369  11.372   2.221
71591W        W43884  11.346   0.773  14.491
71592W        W43885  43.388  13.820   4.750
71593W        W43886  28.457  22.103   3.761
71594W        W43887  31.424   5.705  11.382
71595W        W43888   6.817  11.630  13.482
71596W        W43889   1.414   7.752   0.737
71597W        W43890  16.247   4.915   3.645
71598W        W43891  44.837  14.285   0.366
71599W        W43892   1.243  27.026   3.183
71600W        W43893  38.516  30.499   3.710
71601W        W43894  41.501   9.391  13.376
71602W        W43895  34.017  29.580   1.339
71603W        W43896   4.844  18.122  14.765
71604W        W43897  26.112   0.907  11.113
71605W        W43898  34.036  38.519  13.949
71606W        W43899  24.994  34.578  13.859
71607W        W43900   9.232  14.821   4.256
71608W        W43901  31.443  30.520   2.408
71609W        W43902   9.888  23.593  12.941
71610W        W43903   0.358   7.855  13.423
71611W        W43904  12.703  28.026   3.842
71612W        W43905  11.644   1.759   2.309
71613W        W43906  11.683  38.434  11.537
71614W        W43907   0.878  24.974   3.745
71615W        W43908  34.572   0.289  13.037
71616W        W43909  29.009  44.378  13.812
71617W        W43910  34.566   3.234   0.856
71618W        W43911  44.401  12.665   3.753
71619W        W43912  27.613  27.618  13.841
71620W        W43913  38.975  14.122   3.205
71621W        W43914   1.473  44.449  12.454
71622W        W43915  12.289  28.149   0.904
71623W        W43916  25.644  42.287  12.990
71624W        W43917   7.221  27.551  12.956
71625W        W43918   9.843  29.016   1.448
71626W        W43919  30.913  12.818   1.843
71627W        W43920  34.433  22.623  14.484
71628W        W43921  44.859   7.179   0.864
71629W        W43922  38.475  28.114   1.382
71630W        W43923   0.879  27.676   3.207
71631W        W43924  16.084  22.628  14.289
71632W        W43925  41.002  18.669   3.809
71633W        W43926   2.846  26.205   2.702
71634W        W43927  14.773  13.832  10.455
71635W        W43928  24.625  12.778  11.515
71636W        W43929  18.060  23.004  11.970
71637W        W43930  27.464   9.351   0.255
71638W        W43931   7.849  30.022  11.883
71639W        W43932  19.176   8.887  11.047
71640W        W43933   6.890   0.844   1.843
71641W        W43934   0.766  25.653   1.705
71642W        W43935   8.745  42.993  11.491
71643W        W43936  22.015  31.579  14.381
71644W        W43937  24.540  14.204   4.631
71645W        W43938  13.722  11.127  12.094
71646W        W43939  22.215   8.806   0.857
71647W        W43940  30.054  18.184  10.985
71648W        W43941  23.719   5.239  14.407
71649W        W43942  23.031  36.918  13.994
71650W        W43943  33.508  40.922   0.773
71651W        W43944  41.483  18.764  10.414
71652W        W43945  17.625  41.869  10.942
71653W        W43946  14.640  41.511  13.527
71654W        W43947  20.570  30.973   0.410
71655W        W43948   6.251  30.038   1.783
71656W        W43949  37.983  36.027   0.346
71657W        W43950  22.682  14.710  14.958
71658W        W43951  31.108  23.521  12.488
71659W        W43952  15.266  10.158   1.885
71660W        W43953  34.939  27.945  11.590
71661W        W43954  31.120   5.436  10.579
71662W        W43955   0.858  13.762   4.269
71663W        W43956  13.842  30.907   2.774
71664W        W43957  22.569  19.759  13.952
71665W        W43958  13.734   8.788   4.772
71666W        W43959   3.733  27.135  11.535
71667W        W43960  23.618  43.284  11.966
71668W        W43961  37.515  31.619   1.431
71669W        W43962   1.771  21.071  13.483
71670W        W43963   8.385   3.898   2.181
71671W        W43964   4.428  10.686  13.504
71672W        W43965  17.698  28.043  11.469
71673W        W43966  20.563  38.925  14.826
71674W        W43967  37.930  29.077  10.035
71675W        W43968  31.148  20.708   4.623
71676W        W43969  19.062  17.209   1.795
71677W        W43970  25.041  27.051  12.390
71678W        W43971  39.531   6.824   4.279
71679W        W43972  11.182  38.347  11.445
71680W        W43973  24.063  28.122  11.559
71681W        W43974   3.796   5.210   0.360
71682W        W43975  38.353  23.557   1.770
71683W        W43976  42.015  26.612   2.674
71684W        W43977  17.061  39.026  11.880
71685W        W43978  11.651   7.889   4.793
71686W        W43979  42.359  10.193   1.852
71687W        W43980  26.998  26.662   1.214
71688W        W43981  17.662   1.414   0.337
71689W        W43982  33.115   9.646   2.893
71690W        W43983  13.787  37.389   2.756
71691W        W43984  26.635   4.399  13.393
71692W        W43985   7.856  26.476  14.873
71693W        W43986  14.333  21.218  14.772
71694W        W43987  39.976  17.707  10.617
71695W        W43988  29.071  21.679   0.868
71696W        W43989  35.537  17.140  11.585
71697W        W43990  28.568   4.817  14.884
71698W        W43991  34.074  33.119   2.844
71699W        W43992  40.492  42.306  11.902
71700W        W43993  25.516   0.302   0.915
71701W        W43994  25.996  23.162  11.519
71702W        W43995   9.153  21.742  12.885
71703W        W43996  14.272   8.347  13.427
71704W        W43997   2.396   8.346   0.347
71705W        W43998  33.055  36.044   1.812
71706W        W43999  32.590  35.410   2.844
71707W        W44000  29.948  41.031   1.864
71708W        W44001  19.098  13.333   1.872
71709W        W44002   7.825  31.945  13.989
71710W        W44003  22.101   9.177   0.257
71711W        W44004  22.049  14.305  14.422
71712W        W44005  42.838  15.743   5.212
71713W        W44006  41.794  44.918  13.933
71714W        W44007  44.467  41.427  11.438
71715W        W44008  38.939  22.610   4.720
71716W        W44009   6.411  17.666  13.411
71717W        W44010  24.226   8.819  13.912
71718W        W44011  31.444  38.904   4.161
71719W        W44012  34.946  17.159   1.301
71720W        W44013   4.857  30.452   1.217
71721W        W44014   3.850  39.868  13.308
71722W        W44015   0.268  12.613   2.687
71723W        W44016  14.325  25.643   2.223
71724W        W44017  30.929  29.497  11.508
71725W        W44018   5.788  36.460   1.418
71726W        W44019  19.664  27.625  12.998
71727W        W44020  42.854  34.509   5.275
71728W        W44021  16.302  26.471  11.405
71729W        W44022  40.924  22.743  14.456
71730W        W44023   0.385  44.792   4.729
71731W        W44024  24.643  11.210   2.721
71732W        W44025  42.923   2.772  10.892
71733W        W44026  41.322  12.266   0.445
71734W        W44027  22.250  28.010  11.974
71735W        W44028  18.689   3.264   0.314
71736W        W44029  28.677   7.375  13.335
71737W        W44030  23.210   9.711   0.315
71738W        W44031  24.696  12.233  13.396
71739W        W44032  39.005  14.310  14.808
71740W        W44033  18.621  37.912  10.448
71741W        W44034  15.113  31.096   2.325
71742W        W44035   9.245  19.239   4.160
71743W        W44036  16.109  10.674  12.911
71744W        W44037   3.839  39.399   3.861
71745W        W44038  36.996  13.245  11.590
71746W        W44039  12.709  40.913  14.952
71747W        W44040  26.977  29.442   0.843
71748W        W44041  11.802  17.241   4.129
71749W        W44042  37.381  15.312  13.365
71750W        W44043  35.083  42.844   0.248
71751W        W44044  44.819   1.774   0.311
71752W        W44045  28.603  31.457  10.633
71753W        W44046  30.601  32.984   3.736
71754W        W44047  39.444  31.559  12.913
71755W        W44048  23.724  29.640   3.679
71756W        W44049  43.295  43.386   3.864
71757W        W44050  19.061  26.018   3.237
71758W        W44051   7.344  19.629   4.762
71759W        W44052  24.670  10.637   4.146
71760W        W44053  20.738   6.867  13.991
71761W        W44054  15.238   5.803   0.878
71762W        W44055  28.940  15.710  14.299
71763W        W44056  13.804  42.379   2.793
71764W        W44057  43.854  20.205   1.737
71765W        W44058  30.492  21.573   2.353
71766W        W44059  20.553  33.008   9.660
71767W        W44060  41.495   1.447   3.702
71768W        W44061  30.457  17.194  12.536
71769W        W44062  15.678  32.636   0.732
71770W        W44063  23.080  17.619  14.459
71771W        W44064   4.436   6.242  11.982
71772W        W44065  13.122  13.342  12.547
71773W        W44066  32.950  36.971   2.890
71774W        W44067  39.959  18.588   3.723
71775W        W44068  28.994   9.320   5.185
71776W        W44069  12.269  21.712  14.024
71777W        W44070  24.597  26.007  10.524
71778W        W44071  32.935  28.138  14.028
71779W        W44072  43.464  30.447   4.146
71780W        W44073   4.390  44.474  10.582
71781W        W44074  25.624   6.387   5.298
71782W        W44075  12.165   4.831  10.571
71783W        W44076   0.761   0.256   2.734
71784W        W44077  30.074  11.821  11.999
71785W        W44078  24.010  41.848   2.715
71786W        W44079  42.445   1.759  10.501
71787W        W44080   0.257   8.783   2.706
71788W        W44081  34.368   1.274  14.296
71789W        W44082   5.368  11.800  14.844
71790W        W44083  41.931  38.419   3.680
71791W        W44084  22.728  24.595  12.089
71792W        W44085  29.100  42.968   0.477
71793W        W44086   6.845  29.034   3.162
71794W        W44087  22.646  43.447   4.688
71795W        W44088  14.167  30.638   0.859
71796W        W44089  41.954  15.316   4.297
71797W        W44090  33.993  12.251   4.127
71798W        W44091   4.824   6.312  12.416
71799W        W44092   0.288   3.415  11.508
71800W        W44093   9.194  14.144   3.692
71801W        W44094  19.720  29.082   4.762
71802W        W44095  43.510   3.419  13.019
71803W        W44096  28.585  42.860   0.805
71804W        W44097   0.781   9.323  10.492
71805W        W44098  13.823  24.561   1.891
71806W        W44099  15.106   9.807   4.213
71807W        W44100  24.039  35.423  12.904
71808W        W44101  16.732  24.140   4.163
71809W        W44102  40.049  32.126  10.082
71810W        W44103   4.434  41.916   0.346
71811W        W44104  43.990  12.620  14.801
71812W        W44105   0.867  18.191  12.071
71813W        W44106  14.339   2.852   2.234
71814W        W44107  43.502  16.085  11.877
71815W        W44108  25.219  24.556   3.239
71816W        W44109  10.384  43.483   2.209
71817W        W44110  36.442  24.216  12.565
71818W        W44111  40.996  42.434   2.224
71819W        W44112   9.768  33.103   0.446
71820W        W44113  30.530   4.209   4.281
71821W        W44114   0.267  11.656   0.439
71822W        W44115  29.063   3.223  10.939
71823W        W44116  23.731  14.819  14.000
71824W        W44117  28.622   6.849  13.920
71825W        W44118  42.800  42.998   4.141
71826W        W44119  41.485  23.232   4.606
71827W        W44120   9.196  13.820  11.906
71828W        W44121  31.941   1.867   0.764
71829W        W44122  10.673  17.170  13.356
71830W        W44123   2.436   2.954  11.534
71831W        W44124  30.440   2.432   1.315
71832W        W44125  34.386  35.477  10.633
71833W        W44126  22.020  32.421   0.783
71834W        W44127  27.098  41.399   3.184
71835W        W44128  38.457  11.304   0.406
71836W        W44129  32.013   8.261   3.693
71837W        W44130  35.386  26.952  13.013
71838W        W44131  34.413  20.719  11.591
71839W        W44132   0.460  11.257  13.448
71840W        W44133   3.737  29.599  12.846
71841W        W44134  31.591   4.336  14.024
71842W        W44135  21.657  16.729   1.830
71843W        W44136  33.482  35.557   2.863
71844W        W44137   5.219   0.946  14.003
71845W        W44138  21.072  27.591  13.877
71846W        W44139  16.073  31.481   1.879
71847W        W44140   2.821  19.671  14.502
71848W        W44141  18.616  44.463   2.286
71849W        W44142   3.942  23.560  14.338
71850W        W44143   5.867  30.995   1.858
71851W        W44144  40.371  32.887   3.792
71852W        W44145  18.577   3.449   5.186
71853W        W44146   8.373  38.981  12.078
71854W        W44147  11.187   7.333  14.330
71855W        W44148  38.447  27.127   3.744
71856W        W44149   1.292  30.618  13.540
71857W        W44150  23.535  44.762   1.709
71858W        W44151  25.652  43.819  13.414
71859W        W44152  27.451  33.971  13.509
71860W        W44153  12.232   4.838  14.764
71861W        W44154  11.154  43.318  13.960
71862W        W44155  44.396  32.453   3.668
71863W        W44156   3.932  23.664   3.773
71864W        W44157  33.987  19.777  13.971
71865W        W44158  39.945  16.203   0.897
71866W        W44159  30.486  32.126  14.471
71867W        W44160  14.771  38.063  12.414
71868W        W44161  31.056  16.072  10.587
71869W        W44162  13.187  16.811  14.875
71870W        W44163  35.439  44.403  13.860
71871W        W44164   0.773  30.575   0.300
71872W        W44165  14.189  22.724   4.346
71873W        W44166   5.222  17.647   1.415
71874W        W44167  33.943   6.329   0.359
71875W        W44168   2.906   0.811  13.391
71876W        W44169  18.115  17.667   0.365
71877W        W44170  38.977  21.041  11.493
71878W        W44171   7.726  25.555   1.923
71879W        W44172  23.237  29.068   2.358
71880W        W44173   9.808  43.488  10.423
71881W        W44174  35.517   9.771   1.256
71882W        W44175   5.224  20.744  10.471
71883W        W44176   7.812  13.764  12.044
71884W        W44177  27.004  14.150   4.659
71885W        W44178  28.479  13.754  13.930
71886W        W44179  12.318   9.775  11.375
71887W        W44180  30.993   8.288   0.421
71888W        W44181  35.883  25.117  13.493
71889W        W44182  10.648  11.214   0.408
71890W        W44183  21.179  35.429  14.373
71891W        W44184  29.447   1.831  12.509
71892W        W44185  38.013  27.071  11.557
71893W        W44186  19.142  31.962   1.297
71894W        W44187  12.836  31.131   1.350
71895W        W44188   4.750   5.820   0.749
71896W        W44189  26.534   7.738  14.851
71897W        W44190   7.272   5.833  12.496
71898W        W44191  16.795  16.126  11.071
71899W        W44192  33.458  23.174   1.794
71900W        W44193  10.360  24.613   2.310
71901W        W44194   6.771   6.842   2.335
71902W        W44195  31.896  22.644  11.455
71903W        W44196   1.772  31.970   2.340
71904W        W44197  42.819  43.993   2.857
71905W        W44198  13.297   0.838   1.785
71906W        W44199  22.506  19.060   0.261
71907W        W44200  23.550  27.458   2.761
71908W        W44201   6.368  41.440   5.250
71909W        W44202  33.379   0.844  11.971
71910W        W44203  23.109  43.958  12.002
71911W        W44204  10.208  42.921  12.070
71912W        W44205  43.374  43.350  11.375
71913W        W44206  14.763  16.738   2.762
71914W        W44207  37.372   6.751   0.788
71915W        W44208  32.963  39.509  12.387
71916W        W44209   5.226  31.950  11.444
71917W        W44210  32.118  18.619   1.404
71918W        W44211  39.328   6.207  12.068
71919W        W44212  32.460   2.291  12.537
71920W        W44213  33.922  37.387  14.938
71921W        W44214  20.642  27.535  14.826
71922W        W44215  24.978   6.190   2.764
71923W        W44216  17.182  37.367  13.960
71924W        W44217  10.162  25.708  14.498
71925W        W44218  18.257  34.904  13.466
71926W        W44219  40.453  27.180   2.194
71927W        W44220  32.409  18.753  11.384
71928W        W44221  44.341  32.105  13.882
71929W        W44222  27.003  40.031   2.312
71930W        W44223   5.880  28.550  12.047
71931W        W44224  25.078   8.254  10.568
71932W        W44225  38.996  14.798   0.915
71933W        W44226  39.996  27.497  13.485
71934W        W44227  19.058   0.468   4.182
71935W        W44228   5.336   5.424  10.503
71936W        W44229  24.170  11.633  10.432
71937W        W44230   3.316  22.072   1.914
71938W        W44231  28.142   5.253  14.341
71939W        W44232  30.447  11.224   0.432
71940W        W44233  28.050  11.252   1.744
71941W        W44234  41.808  12.361  12.572
71942W        W44235   5.701  41.397  14.475
71943W        W44236  40.901  29.663   0.825
71944W        W44237  25.703  15.136   2.408
71945W        W44238  10.789  11.209  12.517
71946W        W44239   5.398  29.521  13.796
71947W        W44240  30.509  21.661   3.327
71948W        W44241  42.501  34.497   5.740
71949W        W44242  27.569   6.744  12.087
71950W        W44243   5.316  26.593  13.545
71951W        W44244  35.099  31.539  10.464
71952W        W44245  22.244  33.041   3.649
71953W        W44246  23.080  22.106  13.444
71954W        W44247   9.314  38.839  13.546
71955W        W44248  21.554   7.330   3.188
71956W        W44249  25.649  30.597  11.498
71957W        W44250  22.628  27.586  11.024
71958W        W44251   4.210  18.134   3.753
71959W        W44252  26.048  10.798   3.335
71960W        W44253  37.372  16.801  14.293
71961W        W44254  32.000   8.798  13.313
71962W        W44255  36.849  11.852   4.210
71963W        W44256  19.248  18.209   1.289
71964W        W44257  34.946  44.890   3.870
71965W        W44258  26.547  38.876   4.790
71966W        W44259   4.742  32.439   0.776
71967W        W44260  22.158  36.382   4.785
71968W        W44261   4.763   1.331  10.516
71969W        W44262  21.133  17.300   5.158
71970W        W44263   0.805  35.455   3.810
71971W        W44264  44.446  18.143   0.806
71972W        W44265  16.216  39.993   1.874
71973W        W44266  18.576  39.867   3.338
71974W        W44267  20.647  14.308   4.195
71975W        W44268  32.547  38.459   1.426
71976W        W44269  32.978  11.205  11.897
71977W        W44270  40.976  39.329  13.470
71978W        W44271  26.467  10.771  12.374
71979W        W44272  34.550  12.173   1.733
71980W        W44273  23.717   3.857   2.411
71981W        W44274  29.558  22.724  14.945
71982W        W44275   0.385   1.935   0.736
71983W        W44276   4.429  29.618  12.850
71984W        W44277  36.965  13.746   4.324
71985W        W44278  25.538  24.111   3.165
71986W        W44279  39.036  17.570   2.824
71987W        W44280  13.331   3.318  11.476
71988W        W44281  35.602  29.160  12.839
71989W        W44282  30.952  14.261   3.217
71990W        W44283  18.575  23.996  11.498
71991W        W44284  33.903  18.067  12.995
71992W        W44285  13.177  30.412   5.202
71993W        W44286   1.938  28.943   3.267
71994W        W44287  25.614  42.784  10.457
71995W        W44288  13.653  38.889  11.942
71996W        W44289   4.932  19.161   0.361
71997W        W44290  39.971  34.535  12.912
71998W        W44291  36.999  25.155  12.009
71999W        W44292  41.797  17.209  13.918
72000W        W44293  28.106  33.947  14.789
72001W        W44294  31.113  41.019   0.421
72002W        W44295  19.169  17.787   1.449
72003W        W44296  22.727  39.522  14.958
72004W        W44297  15.729   9.841   2.777
72005W        W44298  42.821  36.096   1.230
72006W        W44299  13.683  32.119   3.659
72007W        W44300  26.611  24.132   9.948
72008W        W44301   8.314  12.828   4.301
72009W        W44302   2.847  38.028   4.145
72010W        W44303  16.646  33.932   3.746
72011W        W44304  17.250  30.964   4.221
72012W        W44305  42.377   3.425   3.214
72013W        W44306  11.204  21.511   3.224
72014W        W44307   9.360  15.696  14.964
72015W        W44308  31.591  44.771   0.248
72016W        W44309  43.945  35.517  11.476
72017W        W44310  44.480  11.805  12.449
72018W        W44311  16.718   6.897  12.058
72019W        W44312  20.579   5.308   3.690
72020W        W44313  28.165  12.301  12.008
72021W        W44314  29.982  19.710   3.798
72022W        W44315  40.014  23.043   3.294
72023W        W44316  42.397   8.774  11.895
72024W        W44317  20.091  41.419  14.986
72025W        W44318  31.619   8.286   3.288
72026W        W44319  10.379   6.324   3.172
72027W        W44320   7.709  31.940   2.782
72028W        W44321  23.011   1.453  14.795
72029W        W44322   7.848   7.798   2.786
72030W        W44323  28.496  40.329   3.177
72031W        W44324  30.512   8.796  11.510
72032W        W44325  17.177  24.665  13.433
72033W        W44326  25.492  18.283  13.904
72034W        W44327   6.765  10.281   4.704
72035W        W44328  14.773   0.819   1.935
72036W        W44329   7.231  32.018   1.275
72037W        W44330  36.447  35.991  12.971
72038W        W44331   0.325  25.023   2.701
72039W        W44332  29.472  24.119  12.534
72040W        W44333  13.843  39.842   3.308
72041W        W44334  22.115  42.408  13.884
72042W        W44335  42.990  14.813  14.887
72043W        W44336  16.230  14.777   3.160
72044W        W44337  27.187  17.115  11.608
72045W        W44338  10.233  39.052  12.073
72046W        W44339   5.745  27.976   2.757
72047W        W44340  24.185  38.457  13.010
72048W        W44341   8.370  23.552  12.858
72049W        W44342  11.651  38.569   2.781
72050W        W44343  29.918  14.140   3.387
72051W        W44344  14.278   4.780   1.922
72052W        W44345  29.479  12.136   4.604
72053W        W44346  17.762  24.594  12.847
72054W        W44347  43.364   6.341  11.375
72055W        W44348  27.118  44.834  10.493
72056W        W44349  41.993  13.683   0.891
72057W        W44350  35.036  14.127  13.513
72058W        W44351  16.079  32.089   2.301
72059W        W44352  18.711  14.281  14.381
72060W        W44353  41.513  35.912  10.521
72061W        W44354  10.201  14.724  14.841
72062W        W44355  34.370   9.255  14.817
72063W        W44356   2.438   8.870  13.419
72064W        W44357  16.662  34.552   0.944
72065W        W44358  31.510  21.512   1.754
72066W        W44359  24.577   2.398  13.862
72067W        W44360  29.067  37.964   2.316
72068W        W44361  29.640  24.138   3.842
72069W        W44362  20.632  20.608   0.908
72070W        W44363   3.769   7.275  11.557
72071W        W44364  41.387  15.176  11.035
72072W        W44365  37.455  13.329  12.080
72073W        W44366  35.972  13.783  13.987
72074W        W44367  19.216  32.068  12.371
72075W        W44368  31.553  43.413  13.962
72076W        W44369  35.015  40.909   0.359
72077W        W44370  13.628  35.983  11.017
72078W        W44371   3.248  20.269  13.941
72079W        W44372   7.372  28.551   0.932
72080W        W44373  43.381  29.624  14.515
72081W        W44374  23.589  36.096   0.734
72082W        W44375  26.460  19.742   2.686
72083W        W44376  18.266  22.107  14.811
72084W        W44377  14.183   9.863  12.482
72085W        W44378  42.012  23.027  10.457
72086W        W44379  35.450  19.547  10.464
72087W        W44380  24.706  40.524   4.610
72088W        W44381   9.281  15.672  11.120
72089W        W44382  25.020   3.716   5.104
72090W        W44383  10.280   5.297  12.081
72091W        W44384  38.075  13.677   3.697
72092W        W44385   3.262  34.505   0.769
72093W        W44386   0.342  30.462   1.356
72094W        W44387  19.044  34.614  10.605
72095W        W44388  26.538  29.963   1.313
72096W        W44389  31.065  33.550  11.561
72097W        W44390  32.626  15.622   4.600
72098W        W44391   0.815   4.701  11.086
72099W        W44392  39.427  39.949   1.310
72100W        W44393  41.035  28.049  13.906
72101W        W44394  36.001  41.324   4.626
72102W        W44395  16.694  15.260  14.318
72103W        W44396   0.483  28.089   2.196
72104W        W44397  29.987   1.859   1.239
72105W        W44398  12.347  29.489  14.029
72106W        W44399  44.313  41.900   0.278
72107W        W44400  42.803  44.945  10.527
72108W        W44401  35.021  33.085   4.281
72109W        W44402  28.539  24.985   1.404
72110W        W44403  13.121  16.610   2.393
72111W        W44404  27.461  10.722   2.214
72112W        W44405  44.455  26.637   0.924
72113W        W44406  27.963  43.471  11.403
72114W        W44407  31.132   1.824   3.239
72115W        W44408  29.652   2.340   1.419
72116W        W44409  44.294  13.140   2.345
72117W        W44410  40.833   0.814   5.164
72118W        W44411  14.613  42.006   1.376
72119W        W44412   2.745  17.112   3.712
72120W        W44413  42.514   2.774   0.771
72121W        W44414  13.789  23.678   4.652
72122W        W44415  38.991  18.546  13.357
72123W        W44416  44.960  16.813   2.704
72124W        W44417  23.509   3.903   3.869
72125W        W44418  17.641  23.066   3.157
72126W        W44419  38.975   0.419   2.801
72127W        W44420  29.462  40.895  12.910
72128W        W44421  18.638  34.003   3.700
72129W        W44422  28.670  34.946  14.278
72130W        W44423  19.052  32.066   1.792
72131W        W44424  16.808   6.833  10.474
72132W        W44425   9.227  41.471   4.619
72133W        W44426  24.725  34.459   1.381
72134W        W44427   1.846  31.149  11.469
72135W        W44428  31.082  13.172  13.412
72136W        W44429   6.861  23.989  12.387
72137W        W44430  44.355  29.155   9.995
72138W        W44431  25.635  19.602   4.238
72139W        W44432  44.315  28.161  12.958
72140W        W44433  21.116  18.545  13.348
72141W        W44434  39.860  40.320  14.024
72142W        W44435  21.025  16.151   1.768
72143W        W44436   4.393  20.547   1.751
72144W        W44437  25.986  20.192  13.009
72145W        W44438   7.320   9.372  12.884
72146W        W44439  25.179  18.552  13.002
72147W        W44440  36.935  17.209  14.773
72148W        W44441  29.648  15.581  11.898
72149W        W44442   9.827  33.894  12.074
72150W        W44443  21.228  26.465   1.864
72151W        W44444  13.246  14.278   1.247
72152W        W44445   4.380  30.145  11.482
72153W        W44446  18.188  36.566   0.386
72154W        W44447  29.151  13.196  11.496
72155W        W44448  33.600  38.558   4.154
72156W        W44449  25.500   3.953  12.468
72157W        W44450   4.785   3.221   2.314
72158W        W44451  40.008  32.054  12.543
72159W        W44452  23.710  40.872   3.632
72160W        W44453   1.970  30.553   4.276
72161W        W44454  12.801  34.496  14.880
72162W        W44455  33.945   5.271   2.684
72163W        W44456   6.311  25.610  13.487
72164W        W44457   0.473   0.459   4.826
72165W        W44458  33.463  42.457  14.474
72166W        W44459   0.389  10.697   3.661
72167W        W44460  21.134  17.772  11.985
72168W        W44461  12.832   0.904   1.877
72169W        W44462  33.426  30.435   2.721
72170W        W44463  42.499   9.287  14.370
72171W        W44464  44.259  30.568   4.215
72172W        W44465  35.499  28.484   0.821
72173W        W44466  30.146  13.137   4.735
72174W        W44467  23.679  13.806   1.819
72175W        W44468  12.753  17.270   4.297
72176W        W44469  19.251  26.969  14.791
72177W        W44470  32.027   8.656   5.149
72178W        W44471  23.526   3.929  13.518
72179W        W44472  43.362  35.981  12.457
72180W        W44473  17.744   7.181  11.377
72181W        W44474  35.047  25.690  12.020
72182W        W44475  25.202  44.892   1.821
72183W        W44476   6.190   7.300  12.470
72184W        W44477  16.792  17.147   1.869
72185W        W44478  42.478  25.050  13.476
72186W        W44479   7.773  25.080   0.431
72187W        W44480  27.692  14.107  11.512
72188W        W44481  25.557   6.678   0.730
72189W        W44482  10.306  19.558  10.491
72190W        W44483   5.762  39.528   0.465
72191W        W44484  25.636  28.623  11.505
72192W        W44485  16.711  16.218  12.504
72193W        W44486   2.907  29.601   0.247
72194W        W44487  37.904  13.737   4.625
72195W        W44488  42.975  22.538   4.247
72196W        W44489  44.414  38.054   1.833
72197W        W44490  41.941  35.448  10.423
72198W        W44491  33.505  41.900  14.891
72199W        W44492  36.061  39.891  11.934
72200W        W44493   9.686  17.642   2.408
72201W        W44494  41.790   2.376  11.608
72202W        W44495  35.426  15.302   0.861
72203W        W44496  33.402  44.008   2.241
72204W        W44497  23.995  41.434  11.897
72205W        W44498  28.129  31.459  14.502
72206W        W44499  44.005  18.082  13.416
72207W        W44500  21.032   8.278   2.244
72208W        W44501   2.838  13.131  14.766
72209W        W44502  39.931   1.878  11.544
72210W        W44503   2.281  27.067  10.891
72211W        W44504  37.975   5.424  10.462
72212W        W44505  29.964  13.146  13.471
72213W        W44506   7.175   5.776   3.865
72214W        W44507  22.519  41.349  11.510
72215W        W44508  32.979  21.141   4.244
72216W        W44509  37.530   6.882   2.216
72217W        W44510  18.093  23.710   2.790
72218W        W44511  23.220  31.415  10.560
72219W        W44512   2.345   5.437  14.341
72220W        W44513  20.198  29.467  12.081
72221W        W44514  42.470  22.122   1.257
72222W        W44515  44.467   4.397   9.921
72223W        W44516  34.988   3.933   3.238
72224W        W44517   8.390  42.449   1.278
72225W        W44518  22.647  14.114   3.700
72226W        W44519  35.415  29.570   0.787
72227W        W44520   4.335  21.678  13.894
72228W        W44521  35.058  17.764   4.690
72229W        W44522   0.943  11.685   3.750
72230W        W44523   2.316   1.280  12.840
72231W        W44524  25.673   4.862   1.808
72232W        W44525   2.440   6.236   1.866
72233W        W44526  44.357   8.312  11.960
72234W        W44527  43.863  42.865  11.416
72235W        W44528  35.521  13.602  13.424
72236W        W44529   4.377   1.863   4.608
72237W        W44530  10.244  18.624   1.903
72238W        W44531  21.127  25.122   1.810
72239W        W44532  34.984  29.481   3.677
72240W        W44533  33.588  34.575  14.331
72241W        W44534  32.410  42.321  14.326
72242W        W44535  25.555  30.617   3.347
72243W        W44536  29.585  10.262  12.405
72244W        W44537  27.039   4.357  10.616
72245W        W44538  39.029   2.739  14.394
72246W        W44539  41.310  42.018  12.576
72247W        W44540  18.621  39.831   0.953
72248W        W44541   0.953  28.634  12.402
72249W        W44542  11.742   8.800   4.802
72250W        W44543  32.059  12.179   3.862
72251W        W44544  28.161   7.783   4.269
72252W        W44545  41.457  21.548   2.315
72253W        W44546  11.665   3.350   2.243
72254W        W44547  18.214  41.370  14.810
72255W        W44548   8.339  19.729  11.454
72256W        W44549  22.634   3.393  11.449
72257W        W44550  29.436   5.281  11.910
72258W        W44551  31.006  39.324  13.312
72259W        W44552  34.425  44.821   3.745
72260W        W44553  31.061  34.384   2.809
72261W        W44554  34.579  28.456  13.972
72262W        W44555  25.693  32.612  10.499
72263W        W44556   6.350  35.904   1.347
72264W        W44557   2.875   9.743  14.944
72265W        W44558  44.283   9.840   3.866
72266W        W44559  24.546   2.831   2.690
72267W        W44560  44.992   3.294   3.806
72268W        W44561  17.558  10.161   1.277
72269W        W44562  15.670  30.533  11.866
72270W        W44563  39.520  20.703  13.053
72271W        W44564  32.571  29.120  11.076
72272W        W44565  31.060  15.623  12.870
72273W        W44566   8.178  37.479  13.308
72274W        W44567  10.335  13.827  13.907
72275W        W44568  14.712  30.445  14.441
72276W        W44569  25.122  42.809  11.567
72277W        W44570  18.286  36.039  12.827
72278W        W44571  35.444  35.103  12.573
72279W        W44572  29.159   3.806  14.794
72280W        W44573  10.691  12.219   4.251
72281W        W44574  29.984  26.149   0.360
72282W        W44575  43.273   0.345   4.122
72283W        W44576  42.312   1.930  14.511
72284W        W44577  10.848   4.355  12.046
72285W        W44578  15.106  20.627   1.837
72286W        W44579  41.509   5.729   4.127
72287W        W44580  17.770   2.401  13.965
72288W        W44581   7.802  37.394  10.465
72289W        W44582   1.479  14.638  11.415
72290W        W44583  28.517  16.783   2.751
72291W        W44584  18.786  35.987   3.824
72292W        W44585   1.952  35.978   0.259
72293W        W44586  29.576  36.358   3.668
72294W        W44587  24.015  36.053   4.303
72295W        W44588  13.324  11.685   3.629
72296W        W44589   2.816  21.678  14.815
72297W        W44590  32.029  13.309   3.718
72298W        W44591  24.098  34.570  13.455
72299W        W44592  18.687   8.870  10.032
72300W        W44593  26.690  29.607  10.977
72301W        W44594  43.014  17.748  14.397
72302W        W44595  13.327  34.076  14.277
72303W        W44596  19.726  40.877   2.275
72304W        W44597   3.864  22.560   2.673
72305W        W44598   4.329  20.186   0.806
72306W        W44599  32.984  23.148  11.504
72307W        W44600   4.318  27.470   0.773
72308W        W44601  40.462  14.803  10.905
72309W        W44602  31.900   5.810  14.412
72310W        W44603  22.630  28.148   2.828
72311W        W44604  44.878  12.623   2.253
72312W        W44605  30.103  23.211   0.381
72313W        W44606  32.077  44.310   1.695
72314W        W44607  21.738   7.755   3.806
72315W        W44608  28.015  36.990  12.052
72316W        W44609  39.969  25.581   2.253
72317W        W44610  26.618   9.336  10.939
72318W        W44611  44.936   6.875   3.170
72319W        W44612  38.907   4.705  14.947
72320W        W44613  14.245   4.256   0.464
72321W        W44614  23.172  41.950  11.877
72322W        W44615  25.116  27.565  13.872
72323W        W44616  41.446  36.971   2.374
72324W        W44617  13.781  29.602   3.829
72325W        W44618  42.928   4.818   1.347
72326W        W44619  21.192  26.163   0.343
72327W        W44620   1.809  41.311   0.406
72328W        W44621  30.046   8.830  14.909
72329W        W44622  42.329  27.513   3.696
72330W        W44623   1.394  16.593  14.971
72331W        W44624  34.990  30.007   0.739
72332W        W44625  22.715  41.293   4.811
72333W        W44626  17.696  30.616   0.480
72334W        W44627  28.023   2.305   4.680
72335W        W44628  20.215   0.444  12.448
72336W        W44629  16.233  25.595   0.329
72337W        W44630  21.714  40.494   1.889
72338W        W44631  24.681  16.280   0.922
72339W        W44632  26.628   0.802  12.925
72340W        W44633  24.509  20.525   2.204
72341W        W44634   0.987  17.198  11.536
72342W        W44635  40.535  28.034  12.092
72343W        W44636  10.766  31.009   0.739
72344W        W44637  28.502  15.242  14.805
72345W        W44638  41.039  44.896   0.250
72346W        W44639  35.876  41.042   1.885
72347W        W44640  34.396  23.678   4.150
72348W        W44641  27.543  12.843   4.234
72349W        W44642   3.893  11.711   0.460
72350W        W44643  23.079  40.958  14.496
72351W        W44644  18.225  23.130  14.029
72352W        W44645   9.818  35.934  10.604
72353W        W44646  44.387  40.053  10.520
72354W        W44647   5.853  11.864  12.832
72355W        W44648  28.671  13.217   0.850
72356W        W44649  28.032   5.689  11.921
72357W        W44650  19.193  12.742  11.051
72358W        W44651   7.194  33.025  13.048
72359W        W44652  33.563  35.924   4.144
72360W        W44653  17.636  18.588  14.810
72361W        W44654  30.953  21.607   1.254
72362W        W44655  23.511   0.840   1.247
72363W        W44656   8.287  30.019  12.927
72364W        W44657  16.676  42.428   3.334
72365W        W44658   8.183  26.548  11.450
72366W        W44659  34.477  32.082   1.306
72367W        W44660   3.939   9.200   1.448
72368W        W44661  43.838  35.924  11.529
72369W        W44662  43.898  12.768  10.544
72370W        W44663  29.424  14.823  11.491
72371W        W44664  28.472  18.752  12.842
72372W        W44665   4.370  26.986   2.742
72373W        W44666  34.017   4.835  11.413
72374W        W44667  12.856  12.675   4.336
72375W        W44668  43.777  12.221  13.946
72376W        W44669  40.413  12.752   2.785
72377W        W44670  13.681  15.171  11.406
72378W        W44671  34.493  23.732  12.054
72379W        W44672  44.936  29.020  14.965
72380W        W44673  37.378   4.293  11.564
72381W        W44674   8.226  16.604   2.246
72382W        W44675   9.680  34.910  13.907
72383W        W44676   5.724  32.613   4.323
72384W        W44677  17.214   9.185  11.455
72385W        W44678  31.928  34.442  12.416
72386W        W44679   4.787   3.755   4.326
72387W        W44680  23.127   3.877  14.375
72388W        W44681  23.735  19.190  11.454
72389W        W44682  18.700  21.661  13.355
72390W        W44683   1.375  34.108   2.248
72391W        W44684  37.533  12.791  12.955
72392W        W44685  43.469  28.929  13.309
72393W        W44686  26.044  13.214   3.194
72394W        W44687  29.576   7.678   1.211
72395W        W44688   3.895  42.375  13.486
72396W        W44689  15.743  43.359  12.393
72397W        W44690  30.427  39.824  11.450
72398W        W44691  22.235  42.452  12.415
72399W        W44692  34.484  27.452   1.429
72400W        W44693   9.784  37.927   3.193
72401W        W44694  11.822  37.415  13.791
72402W        W44695   7.291  31.543  13.464
72403W        W44696  25.133  39.046   0.427
72404W        W44697   1.880  13.719   3.264
72405W        W44698  18.157  37.529  14.339
72406W        W44699   6.207  34.590   3.657
72407W        W44700  44.476  13.825   3.367
72408W        W44701  24.140  13.764  11.456
72409W        W44702  18.626   3.870   3.369
72410W        W44703  25.688  23.639   1.313
72411W        W44704  11.135  38.491  10.455
72412W        W44705  12.181  36.490  11.570
72413W        W44706  32.076   3.285   1.837
72414W        W44707  37.911  27.492  11.553
72415W        W44708   3.226   4.393   2.364
72416W        W44709  18.679  44.361  10.145
72417W        W44710  20.274   6.298  13.950
72418W        W44711  18.109  30.515   0.434
72419W        W44712  32.119  41.921  14.957
72420W        W44713  33.038  20.695  10.555
72421W        W44714  33.431  38.981   4.214
72422W        W44715   3.929  28.451  14.924
72423W        W44716  26.489  18.753  12.462
72424W        W44717  35.035  29.124  14.831
72425W        W44718  15.217   7.361  11.987
72426W        W44719  26.204  14.613  11.450
72427W        W44720  16.730  30.564   3.378
72428W        W44721  15.163  17.242   0.482
72429W        W44722  18.578  40.304   4.729
72430W        W44723   2.319  26.068   3.750
72431W        W44724  28.977  18.223   3.386
72432W        W44725  31.497  21.050   3.175
72433W        W44726  37.497  15.167  13.960
72434W        W44727  10.268  41.924   4.173
72435W        W44728  29.081  13.723  14.973
72436W        W44729  20.230  15.166  11.975
72437W        W44730  10.295   8.708  11.101
72438W        W44731  25.023  18.569   0.387
72439W        W44732  17.161  43.765   3.818
72440W        W44733   8.231  39.046  13.793
72441W        W44734   1.877  23.070   1.901
72442W        W44735   0.908  38.562   4.822
72443W        W44736  10.867   5.715   4.134
72444W        W44737  37.548  43.414  12.554
72445W        W44738  41.406  31.611  12.436
72446W        W44739  22.093   6.417   3.211
72447W        W44740  43.886  11.227   0.783
72448W        W44741  40.906  37.429   2.382
72449W        W44742  10.160  14.117   3.148
72450W        W44743   3.905  13.121  10.575
72451W        W44744   2.723   1.341   0.254
72452W        W44745  44.469  16.765   3.869
72453W        W44746  31.117   3.785   2.330
72454W        W44747  29.442  30.048  12.365
72455W        W44748  35.595   9.244   2.385
72456W        W44749   8.810   0.352   0.315
72457W        W44750  18.757  26.676   3.641
72458W        W44751  28.461  35.003  10.463
72459W        W44752  10.333  17.215  10.138
72460W        W44753  31.102  16.253   1.323
72461W        W44754  19.626   4.866  14.322
72462W        W44755   6.250  22.252  13.056
72463W        W44756  41.518  26.037  11.389
72464W        W44757  29.509  10.147  13.047
72465W        W44758  34.569   8.840  10.950
72466W        W44759  30.522  11.250  13.837
72467W        W44760  18.283  17.659   4.818
72468W        W44761  29.022  34.534   4.665
72469W        W44762  30.626  19.094   4.633
72470W        W44763  11.830  24.985  12.474
72471W        W44764   6.375  27.601   0.784
72472W        W44765  25.678   2.791   0.839
72473W        W44766  32.436  31.911  12.046
72474W        W44767  40.828   5.848  12.834
72475W        W44768  23.135  17.789   4.659
72476W        W44769  26.061  30.491  13.018
72477W        W44770  35.897   9.732   1.402
72478W        W44771   0.950  16.809  10.978
72479W        W44772  44.271   9.698   4.200
72480W        W44773  22.116   6.748  11.981
72481W        W44774  26.686  21.146  12.056
72482W        W44775  13.819  35.396   3.807
72483W        W44776  19.173  39.361  14.314
72484W        W44777  22.684  21.053  11.909
72485W        W44778  10.745  34.525   4.339
72486W        W44779  43.996  37.002  11.568
72487W        W44780  14.159  41.505  14.474
72488W        W44781  16.790  37.875  13.899
72489W        W44782  21.588  27.657   0.942
72490W        W44783  19.620  32.492   0.277
72491W        W44784  31.963  23.552  11.078
72492W        W44785  41.033  40.894  14.960
72493W        W44786  33.108  25.990   2.383
72494W        W44787   4.215  38.917   2.255
72495W        W44788   5.779  39.892  10.907
72496W        W44789  10.680   8.749  12.982
72497W        W44790  13.181  39.453  10.926
72498W        W44791  11.696   9.275   3.280
72499W        W44792   5.293  10.169  10.628
72500W        W44793  33.927   0.289  11.018
72501W        W44794  40.422  26.155  11.003
72502W        W44795  36.541  13.774  11.507
72503W        W44796  13.601   9.662   4.682
72504W        W44797   3.724  13.740  14.879
72505W        W44798   8.333  40.397  11.102
72506W        W44799   0.437  28.618   3.200
72507W        W44800  17.263  17.615  12.094
72508W        W44801  18.162  15.692   4.210
72509W        W44802  32.393   1.444  13.895
72510W        W44803  40.016   9.282   2.810
72511W        W44804   4.846  34.387  12.971
72512W        W44805  14.753  28.177  12.359
72513W        W44806  25.514   7.337  12.952
72514W        W44807  26.516  22.161  11.550
72515W        W44808  26.004  28.976   3.183
72516W        W44809  17.668  16.230   1.884
72517W        W44810  30.997   3.239  14.013
72518W        W44811  19.204  39.064  13.002
72519W        W44812  12.749  31.622  11.482
72520W        W44813  19.639  24.566   3.197
72521W        W44814   0.285  40.872  11.554
72522W        W44815   8.174  28.000   1.448
72523W        W44816   0.944  30.014  11.869
72524W        W44817   8.339  31.496  11.080
72525W        W44818  27.031  22.564  14.440
72526W        W44819  37.410  18.295   0.796
72527W        W44820  21.220  12.189  11.941
72528W        W44821  20.271  20.156  13.030
72529W        W44822  25.996  23.076  14.391
72530W        W44823   5.926  27.507  13.062
72531W        W44824   2.901  30.089  14.442
72532W        W44825  32.085  40.879   2.183
72533W        W44826  20.253  26.973   3.681
72534W        W44827  42.951   8.791  14.275
72535W        W44828   5.335  32.016   3.150
72536W        W44829   1.258   9.811   0.753
72537W        W44830   1.940  37.564   3.259
72538W        W44831  13.313   1.289   4.790
72539W        W44832  42.955  13.218  12.951
72540W        W44833  44.911  22.093  13.496
72541W        W44834   2.262  29.483   1.427
72542W        W44835  39.368   9.280  13.320
72543W        W44836  14.231  12.352   1.921
72544W        W44837  27.080  17.799   2.311
72545W        W44838  27.156  23.717  11.901
72546W        W44839  12.283   7.396  12.980
72547W        W44840  44.296  40.985  11.992
72548W        W44841   4.407  37.875   3.174
72549W        W44842  34.482   9.154  11.534
72550W        W44843  18.057  24.186  12.394
72551W        W44844  22.568  31.474   0.787
72552W        W44845  43.815  12.178  11.991
72553W        W44846   6.758  21.658   1.364
72554W        W44847  30.456  21.642   5.163
72555W        W44848  34.550  21.714  11.973
72556W        W44849  24.129  36.940   2.760
72557W        W44850  28.107  43.471  13.461
72558W        W44851  18.723  27.111   4.166
72559W        W44852  11.181  28.951   2.759
72560W        W44853  24.649  38.355   3.743
72561W        W44854  43.855  21.700  12.554
72562W        W44855   4.229  17.076   3.184
72563W        W44856  42.417  34.113  10.470
72564W        W44857   9.785  13.341   4.261
72565W        W44858  29.969   9.292   0.364
72566W        W44859  27.640  40.416  12.534
72567W        W44860  23.573   4.310   0.904
72568W        W44861  39.353   2.770  11.468
72569W        W44862  42.479   3.866  10.966
72570W        W44863  29.013  23.681   4.240
72571W        W44864  41.945   1.435   0.246
72572W        W44865  18.150  31.405   9.455
72573W        W44866  11.173  29.448  14.833
72574W        W44867  42.835  15.170   3.770
72575W        W44868  11.782  36.087  10.593
72576W        W44869  12.693  27.186   1.232
72577W        W44870  41.973  44.285  10.490
72578W        W44871  36.095   6.748  11.516
72579W        W44872  40.497  13.236  10.961
72580W        W44873  19.269  27.970  12.367
72581W        W44874  16.289   4.784   9.950
72582W        W44875   4.838   6.829   2.262
72583W        W44876  43.845  33.523   5.602
72584W        W44877  17.180  35.103   0.353
72585W        W44878   4.876  35.964  12.033
72586W        W44879   0.488  17.696   4.705
72587W        W44880  42.906   5.412   1.872
72588W        W44881  26.617  36.957  12.878
72589W        W44882  11.334  44.838  10.927
72590W        W44883  11.658  28.586   1.765
72591W        W44884   9.266  41.023  12.042
72592W        W44885  21.755  32.488   1.444
72593W        W44886  35.030  29.993  10.645
72594W        W44887  37.902   7.284  11.588
72595W        W44888  38.959   4.245   0.257
72596W        W44889   9.321  22.673   4.294
72597W        W44890  26.992  39.818  11.435
72598W        W44891  25.126  31.962   5.304
72599W        W44892  31.977  26.551   1.906
72600W        W44893  25.967   8.314  11.087
72601W        W44894   5.275  11.702  11.541
72602W        W44895  21.111  43.020   0.245
72603W        W44896   0.764   8.166  10.600
72604W        W44897  28.522  10.237   3.171
72605W        W44898  17.179  20.129  13.474
72606W        W44899   5.924  37.465  11.429
72607W        W44900  27.616  27.948  13.019
72608W        W44901  43.293  26.993   4.241
72609W        W44902   0.283   0.783  12.828
72610W        W44903  19.566  12.645  11.044
72611W        W44904  37.344  38.497  10.467
72612W        W44905   1.353   8.251   0.733
72613W        W44906  22.067  12.644  12.491
72614W        W44907  22.558  13.722   4.248
72615W        W44908   0.844  21.054   0.828
72616W        W44909  34.894  41.421  12.355
72617W        W44910   1.309  41.947  13.353
72618W        W44911  41.982  30.099  14.905
72619W        W44912  42.330   7.327  14.873
72620W        W44913  26.091  23.574   1.407
72621W        W44914  22.501  18.581  12.008
72622W        W44915  11.635   2.349  13.333
72623W        W44916  39.321   1.412  11.090
72624W        W44917   2.811  18.580  10.524
72625W        W44918  19.545  22.694   2.213
72626W        W44919  34.925  42.804   4.163
72627W        W44920  40.422  33.543  12.041
72628W        W44921  44.331  42.330   3.303
72629W        W44922  23.594  19.674  13.494
72630W        W44923  11.326  40.952  14.948
72631W        W44924  19.643  17.591  11.540
72632W        W44925  30.963  43.403  13.995
72633W        W44926  31.983  15.256   3.382
72634W        W44927  35.068   6.813  13.384
72635W        W44928  27.159  25.015  13.387
72636W        W44929  11.729   3.396   2.872
72637W        W44930  18.759  33.560   5.159
72638W        W44931   1.386  12.819   2.679
72639W        W44932  28.498  30.573   4.681
72640W        W44933  20.219  28.495   3.218
72641W        W44934  18.561  27.197  12.043
72642W        W44935  40.977  43.784  10.111
72643W        W44936  38.488  40.967  10.597
72644W        W44937   5.261  19.188   3.216
72645W        W44938  40.890  16.284  14.931
72646W        W44939   7.808  43.298  10.607
72647W        W44940  34.036  19.240   0.291
72648W        W44941  28.166   5.809  13.331
72649W        W44942  20.677  23.044  11.995
72650W        W44943   0.291  31.913   1.875
72651W        W44944  12.330  40.805   2.218
72652W        W44945   8.742  24.501   0.387
72653W        W44946   8.287  11.155   4.142
72654W        W44947   6.188  11.360   3.339
72655W        W44948   6.719   3.806  13.441
72656W        W44949  27.006   7.417   3.152
72657W        W44950  10.665  31.950   4.167
72658W        W44951   4.214  44.982   1.917
72659W        W44952  10.739  28.971   1.362
72660W        W44953  44.000  21.215  10.503
72661W        W44954  20.120  35.019  12.999
72662W        W44955   3.927  29.560  12.550
72663W        W44956   7.381   5.806   2.736
72664W        W44957  22.216  38.399  14.806
72665W        W44958   0.792  42.856   2.252
72666W        W44959  41.911  35.960  14.880
72667W        W44960  33.549  19.679  11.039
72668W        W44961   0.837  33.437  10.927
72669W        W44962   2.870  14.748  13.548
72670W        W44963  15.778  27.678   0.464
72671W        W44964   9.290  36.445  10.507
72672W        W44965   5.824   2.386  14.953
72673W        W44966  28.946  23.141  13.423
72674W        W44967   6.199  13.166   2.238
72675W        W44968  13.160  12.814  12.865
72676W        W44969  10.141  41.502   2.793
72677W        W44970  10.325  17.303  13.369
72678W        W44971  25.503  31.534   0.356
72679W        W44972  17.067  35.360  10.623
72680W        W44973  40.020  18.205   1.355
72681W        W44974  37.562   1.377  11.989
72682W        W44975  29.976  30.934   3.717
72683W        W44976  37.057  37.030   1.877
72684W        W44977  22.118   2.788  10.991
72685W        W44978  35.508  30.129   1.422
72686W        W44979  33.999  44.761   4.159
72687W        W44980  43.923   1.836   1.767
72688W        W44981   6.354  35.444   5.137
72689W        W44982  35.879  36.086   3.749
72690W        W44983  26.037  40.834  14.339
72691W        W44984  17.802  14.805  10.627
72692W        W44985  22.629  14.233   1.424
72693W        W44986  35.960  31.934   1.733
72694W        W44987  41.315  41.342  13.485
72695W        W44988   4.717   2.885  11.534
72696W        W44989  41.818  28.549   1.359
72697W        W44990   2.925   1.422  10.975
72698W        W44991  25.080  18.676  14.892
72699W        W44992  32.061   6.677   3.337
72700W        W44993  33.405  32.573   0.793
72701W        W44994  10.849  28.139   0.350
72702W        W44995  20.072  33.029   4.147
72703W        W44996  14.108  28.621   4.220
72704W        W44997  26.976  15.784  10.630
72705W        W44998   2.785  15.790  11.564
72706W        W44999  37.975  21.092   3.261
72707W        W45000   0.490  42.447   3.809
72708W        W45001  28.084  15.246  14.313
72709W        W45002   1.934   1.440  11.908
72710W        W45003  20.559  37.986  13.859
72711W        W45004   6.367  26.121   3.698
72712W        W45005  36.581  44.920  14.969
72713W        W45006  30.488   1.774   1.259
72714W        W45007  41.373  28.104  14.794
72715W        W45008   2.365   6.915  12.478
72716W        W45009  13.225  41.951  14.515
72717W        W45010  32.492  26.017  10.997
72718W        W45011   8.699  43.326  10.583
72719W        W45012  17.169  35.548   2.311
72720W        W45013   8.882  15.637  10.523
72721W        W45014   0.913   8.198  13.502
72722W        W45015  36.487  42.976   2.673
72723W        W45016  11.720  23.597  13.952
72724W        W45017  31.521  26.988  14.391
72725W        W45018  18.097  27.014   4.335
72726W        W45019   2.338  34.918   3.739
72727W        W45020  18.295  41.362   1.812
72728W        W45021   1.941  36.406   3.633
72729W        W45022  25.472  17.737   1.911
72730W        W45023   4.810   1.732   1.423
72731W        W45024  36.399   8.775  14.452
72732W        W45025   0.312  29.653   0.739
72733W        W45026  38.847  10.710   3.630
72734W        W45027  32.062  17.782  11.905
72735W        W45028  23.014  40.934  12.502
72736W        W45029  24.580  41.934   4.618
72737W        W45030   5.736  21.557   3.722
72738W        W45031  27.650   2.851   4.269
72739W        W45032  11.829  16.134  13.369
72740W        W45033   7.239  33.934   3.173
72741W        W45034  31.947  23.190  11.021
72742W        W45035  10.718  40.404   1.926
72743W        W45036  36.540   8.301   0.321
72744W        W45037  21.240  38.351  11.551
72745W        W45038  10.230  39.816  11.007
72746W        W45039  13.636  29.550  13.475
72747W        W45040  42.914  32.532  12.392
72748W        W45041   3.458   8.370   3.854
72749W        W45042   8.367  42.850  11.499
72750W        W45043  16.142  38.472   2.860
72751W        W45044  18.652  23.536  12.878
72752W        W45045   0.256  43.786   3.218
72753W        W45046  11.758  24.980   4.609
72754W        W45047  26.675  43.351   0.867
72755W        W45048  34.475   5.897  13.459
72756W        W45049  40.312   1.932  11.066
72757W        W45050   0.378   5.231  14.487
72758W        W45051  10.351  24.207  13.381
72759W        W45052  20.677  20.650   3.287
72760W        W45053   9.346   7.799  13.330
72761W        W45054  25.555  18.180  10.959
72762W        W45055  36.966   3.288   4.804
72763W        W45056  11.788  14.330  11.016
72764W        W45057  34.410  36.557   4.687
72765W        W45058  43.968  39.479   1.301
72766W        W45059  43.400   5.737  12.489
72767W        W45060  35.492  30.467   0.269
72768W        W45061  40.993  37.485  13.447
72769W        W45062  18.738   8.701  11.031
72770W        W45063  35.959  36.899   2.729
72771W        W45064  32.395  10.319   0.312
72772W        W45065  35.097  23.175   0.408
72773W        W45066  11.727  17.625   3.344
72774W        W45067  42.916   1.278   1.436
72775W        W45068  17.102  26.651  12.472
72776W        W45069  42.942  23.640  14.972
72777W        W45070  17.249  38.073  11.449
72778W        W45071  17.190  31.112  12.858
72779W        W45072  25.116  42.363  11.092
72780W        W45073   9.688   4.719   0.431
72781W        W45074   0.328  12.325   4.647
72782W        W45075   4.791  19.762   5.117
72783W        W45076  28.594  27.086   0.300
72784W        W45077   4.774  27.487   1.906
72785W        W45078  32.620  39.909   3.669
72786W        W45079  12.660  24.686  12.514
72787W        W45080  16.781  40.917  12.501
72788W        W45081  21.024  33.493   4.755
72789W        W45082   9.203  29.645  12.469
72790W        W45083  11.310   7.417   3.311
72791W        W45084  32.626   3.804  10.532
72792W        W45085  24.088  33.479   5.229
72793W        W45086  44.332  38.530  11.432
72794W        W45087  35.427  23.160   0.937
72795W        W45088   9.829  28.149   3.229
72796W        W45089  23.690  17.565   2.833
72797W        W45090  44.340  16.711  11.965
72798W        W45091  44.867  17.685  10.442
72799W        W45092  38.007  25.085  13.429
72800W        W45093  25.696   2.732  10.931
72801W        W45094  39.340   8.359  14.278
72802W        W45095   5.223  20.158   2.902
72803W        W45096  23.003  20.731   1.210
72804W        W45097   0.355  15.103  11.484
72805W        W45098  44.313  35.874   1.383
72806W        W45099   2.288  10.787   1.324
72807W        W45100  19.151   3.372   0.265
72808W        W45101   9.177  34.400   0.402
72809W        W45102   5.415  33.909   0.880
72810W        W45103  32.598   8.329  11.002
72811W        W45104  20.053  38.445  13.844
72812W        W45105  14.299   5.322   0.873
72813W        W45106  20.257  12.183   3.313
72814W        W45107  44.930  42.011   1.836
72815W        W45108  32.517  37.000  14.812
72816W        W45109  17.287  42.323   2.195
72817W        W45110  12.819   3.813  14.881
72818W        W45111  39.379  35.527  11.907
72819W        W45112  26.082  21.736   3.858
72820W        W45113  28.646  37.880   0.432
72821W        W45114   1.483   9.649   3.776
72822W        W45115  17.674  34.569   1.740
72823W        W45116  34.382  33.877   2.277
72824W        W45117  34.525  30.093  11.974
72825W        W45118  14.758  26.580  11.456
72826W        W45119   2.787  11.276   0.877
72827W        W45120   4.866  14.333   0.744
72828W        W45121  33.894  15.619   1.384
72829W        W45122  18.290  38.884   3.778
72830W        W45123  42.833  13.199   0.843
72831W        W45124  39.970  14.212  10.410
72832W        W45125  43.437   1.864  12.527
72833W        W45126  34.443  39.864  12.392
72834W        W45127   9.744   8.280  13.867
72835W        W45128   7.376  13.343  14.411
72836W        W45129   0.829  34.919   5.299
72837W        W45130  40.982  10.232   1.798
72838W        W45131   4.797  13.610  10.550
72839W        W45132  17.747   2.311   3.194
72840W        W45133   8.760   5.373  14.792
72841W        W45134   4.870  39.558   0.785
72842W        W45135   0.905  11.166  10.497
72843W        W45136  29.574  28.100   1.928
72844W        W45137   7.814  38.918   3.345
72845W        W45138  30.948  22.170   2.863
72846W        W45139  39.002   6.920  13.040
72847W        W45140  36.412  30.595   5.209
72848W        W45141  19.706   8.373   1.415
72849W        W45142  36.962  34.499  10.912
72850W        W45143  30.523  35.093   1.300
72851W        W45144   8.260   9.727  14.407
72852W        W45145  34.867  25.609  12.575
72853W        W45146  31.983   5.762   2.352
72854W        W45147  10.338  41.902  12.421
72855W        W45148  22.161  42.847   1.236
72856W        W45149  25.474  22.132   0.353
72857W        W45150   0.438  15.609   3.865
72858W        W45151  32.064  11.645   1.404
72859W        W45152  18.236  23.519   3.713
72860W        W45153  16.152   7.870   3.298
72861W        W45154  35.413   1.938   2.360
72862W        W45155  30.940  29.580  14.903
72863W        W45156  15.216  16.699   1.272
72864W        W45157  37.980  39.518   2.900
72865W        W45158  35.447  27.996  12.400
72866W        W45159  25.606  38.523   2.668
72867W        W45160  21.705  33.538   4.277
72868W        W45161   9.797  36.852   4.698
72869W        W45162   7.178  38.872  14.799
72870W        W45163  43.360  38.412  12.360
72871W        W45164  23.640  32.069  13.058
72872W        W45165  28.167  39.536   4.743
72873W        W45166  24.208  26.599  13.351
72874W        W45167  35.081  42.901  11.894
72875W        W45168  13.656  43.489   4.212
72876W        W45169  20.698  24.022   3.769
72877W        W45170   4.367  32.458   4.654
72878W        W45171  40.805   5.363   1.216
72879W        W45172   0.912  22.229  12.384
72880W        W45173   3.896  24.724  11.881
72881W        W45174  24.538  11.311   4.602
72882W        W45175   7.214  17.573  11.983
72883W        W45176   4.904  29.666  13.464
72884W        W45177  12.733  40.971   2.366
72885W        W45178  39.058  29.963  12.397
72886W        W45179  19.230  14.325   3.798
72887W        W45180  14.696  25.607  12.861
72888W        W45181  22.721  29.486  10.926
72889W        W45182  16.591  42.493   3.826
72890W        W45183   4.393  13.769  12.928
72891W        W45184  41.791   8.173  13.884
72892W        W45185  42.846  32.938  14.016
72893W        W45186  27.172  20.652   1.357
72894W        W45187  41.938  31.420   0.749
72895W        W45188  37.050  17.780  11.917
72896W        W45189  28.078   7.245   1.757
72897W        W45190   3.878   2.326  13.524
72898W        W45191  42.514  39.038  13.926
72899W        W45192  29.617  25.605  12.049
72900W        W45193  16.225  12.803  13.923
72901W        W45194  11.327  14.271  13.365
72902W        W45195  10.849  20.745   1.239
72903W        W45196  42.819  27.652  10.570
72904W        W45197  17.721  22.561  13.061
72905W        W45198  42.296   1.973   0.253
72906W        W45199  36.967  23.647   1.277
72907W        W45200   3.718  43.964  12.383
72908W        W45201  23.638   9.687   0.940
72909W        W45202  20.578  16.684   1.418
72910W        W45203  38.392  22.534  14.966
72911W        W45204   8.277  20.686  14.939
72912W        W45205  42.353   3.387   0.404
72913W        W45206   5.346   9.234  13.028
72914W        W45207  19.664  23.607  12.506
72915W        W45208  35.092  22.107   3.304
72916W        W45209   8.833  11.679  12.390
72917W        W45210  42.879   0.789   4.714
72918W        W45211  23.511   9.796  12.922
72919W        W45212   7.746  15.709   1.384
72920W        W45213  25.156   9.888   3.300
72921W        W45214  16.630  30.934   3.860
72922W        W45215  42.288  37.954  14.320
72923W        W45216  44.817  37.952  11.035
72924W        W45217  16.707  39.389  11.102
72925W        W45218  22.181   1.849  11.974
72926W        W45219  16.298  18.121  14.883
72927W        W45220  17.613  33.081   1.928
72928W        W45221  23.603  22.702   4.209
72929W        W45222  22.689  39.983  11.969
72930W        W45223  32.535  38.469  11.068
72931W        W45224   6.328  43.829   4.269
72932W        W45225   3.910   9.794   4.695
72933W        W45226  19.080  32.016   2.826
72934W        W45227   7.836  16.310  12.479
72935W        W45228   1.425   0.375  11.922
72936W        W45229  42.894  43.878  10.594
72937W        W45230   0.486  18.576  10.617
72938W        W45231  44.423  31.031   0.756
72939W        W45232  38.875  14.651  14.353
72940W        W45233  32.538  21.216   5.156
72941W        W45234  22.104   8.203   1.363
72942W        W45235  23.620  41.006  11.876
72943W        W45236  11.816  21.019   5.253
72944W        W45237  38.387  15.690  12.960
72945W        W45238   4.253  13.804   4.163
72946W        W45239  24.688  28.093   3.203
72947W        W45240  28.147  19.575  12.901
72948W        W45241  19.666  40.407   4.323
72949W        W45242  12.778  27.011   2.667
72950W        W45243   3.427  43.957   1.295
72951W        W45244   5.429   9.866  10.909
72952W        W45245   5.361  20.693   4.113
72953W        W45246  18.725   8.296  10.488
72954W        W45247  39.961  15.651  10.095
72955W        W45248  30.542  15.810  10.515
72956W        W45249  13.647   2.446   0.255
72957W        W45250  34.914  39.476   3.699
72958W        W45251   4.748  29.993  11.019
72959W        W45252  43.439  30.610   3.190
72960W        W45253   8.390  33.899  11.123
72961W        W45254  30.999  38.907   3.752
72962W        W45255  32.997  24.573  12.839
72963W        W45256  32.043   1.878   2.272
72964W        W45257  13.301  38.828  10.432
72965W        W45258  23.598  36.056   0.404
72966W        W45259   5.402  25.594  11.937
72967W        W45260  16.580  32.066  14.991
72968W        W45261  39.358   4.204   1.424
72969W        W45262  28.184   5.317   2.872
72970W        W45263   0.867  43.886  11.871
72971W        W45264  14.664  35.066  14.321
72972W        W45265  19.096  15.794   3.229
72973W        W45266  35.911  11.687  13.506
72974W        W45267  21.549  27.636  13.472
72975W        W45268   2.941  11.658  14.858
72976W        W45269  24.055   0.260  13.819
72977W        W45270   9.293  13.185  11.946
72978W        W45271   8.282  43.784  12.382
72979W        W45272   5.250  35.398   1.318
72980W        W45273  20.127  39.836  12.441
72981W        W45274  15.721  35.094  12.005
72982W        W45275  30.531  20.032  11.940
72983W        W45276  40.411   1.877   1.275
72984W        W45277  33.460  43.306  11.108
72985W        W45278  14.164  43.385   3.230
72986W        W45279  15.636   4.348   9.514
72987W        W45280   9.173  26.675   3.264
72988W        W45281  19.055   4.881   3.712
72989W        W45282   7.898  14.183   5.275
72990W        W45283   0.345   2.333   0.466
72991W        W45284  23.490  29.148  11.495
72992W        W45285  12.660   4.434  11.504
72993W        W45286  22.245  35.945   0.828
72994W        W45287  25.980   3.436  12.482
72995W        W45288  29.074  14.319  10.530
72996W        W45289  13.216  35.064  11.968
72997W        W45290  28.678  35.967  12.503
72998W        W45291  15.084  29.056  13.433
72999W        W45292  43.426  39.952  12.501
73000W        W45293  20.750  16.765   2.750
73001W        W45294  30.144  25.987   3.718
73002W        W45295  32.600   4.748  12.538
73003W        W45296  28.099  12.783   2.903
73004W        W45297  41.353   6.736   1.220
73005W        W45298  39.886  28.517   1.841
73006W        W45299   4.706  29.594  12.388
73007W        W45300  16.785  13.131  12.919
73008W        W45301  13.615  38.349   2.258
73009W        W45302   6.338  33.896   2.885
73010W        W45303  37.946  23.107  13.037
73011W        W45304  41.367  28.104   1.857
73012W        W45305  33.622  21.697  13.427
73013W        W45306   4.350  38.004   2.849
73014W        W45307  14.182  10.324   4.800
73015W        W45308  32.020  35.428  13.837
73016W        W45309  41.454  42.989   9.920
73017W        W45310  17.703   4.918  14.498
73018W        W45311  28.127  21.653  12.003
73019W        W45312  18.081   6.781   1.429
73020W        W45313  20.549   9.722   3.798
73021W        W45314  21.560  40.395   3.859
73022W        W45315  20.595   2.247  11.604
73023W        W45316  34.520  36.385   0.297
73024W        W45317  22.520  16.714  11.867
73025W        W45318   6.218   8.275   2.200
73026W        W45319   8.728  10.312   3.717
73027W        W45320  13.228   4.216   5.597
73028W        W45321  21.716   6.851   3.191
73029W        W45322  44.390  22.528   4.753
73030W        W45323  32.473  26.516  14.408
73031W        W45324   9.824  28.641  13.026
73032W        W45325  36.492  36.017  10.950
73033W        W45326  35.941  24.532   2.269
73034W        W45327  22.525  37.973   4.783
73035W        W45328  35.071  33.488   4.763
73036W        W45329  20.627  35.047   1.335
73037W        W45330   3.286  26.132  11.605
73038W        W45331  25.978  29.639  11.065
73039W        W45332   8.359   2.386  10.899
73040W        W45333   3.359  15.673  10.409
73041W        W45334  11.630   1.881  14.997
73042W        W45335  35.074   1.391   4.163
73043W        W45336  20.727   7.750  11.565
73044W        W45337  13.129  12.289   2.257
73045W        W45338   1.383   3.284  11.538
73046W        W45339  42.484  33.453   0.371
73047W        W45340   3.827  25.195   4.739
73048W        W45341   0.479  35.510   9.666
73049W        W45342   2.799  42.909   3.703
73050W        W45343  12.621  34.868  11.874
73051W        W45344   5.395  30.552   4.617
73052W        W45345   9.860   2.287  14.485
73053W        W45346  16.786  36.064  12.485
73054W        W45347  19.561  17.569  14.429
73055W        W45348  23.991  32.038  10.445
73056W        W45349   9.161  35.471   9.555
73057W        W45350  39.357  16.268  12.543
73058W        W45351   4.375  21.658  14.501
73059W        W45352  20.713  23.078  10.595
73060W        W45353  37.480   8.708   1.877
73061W        W45354   6.264  19.773  12.503
73062W        W45355   5.792  37.546   3.806
73063W        W45356  42.791   0.431  14.882
73064W        W45357   3.747  21.612  10.431
73065W        W45358  44.491  41.856   2.669
73066W        W45359  27.181  11.638   2.418
73067W        W45360  44.395  15.177   0.816
73068W        W45361  43.003  42.372   2.306
73069W        W45362  43.861  17.606  12.913
73070W        W45363   8.172  34.420  11.479
73071W        W45364  28.082  36.382  11.971
73072W        W45365  35.092   2.808   0.745
73073W        W45366  33.519  24.201  10.631
73074W        W45367  15.160  11.639  11.471
73075W        W45368  41.503   4.293   1.363
73076W        W45369  13.270  16.705  13.449
73077W        W45370  35.534  18.200  13.059
73078W        W45371  30.571  13.311   0.324
73079W        W45372  15.673   9.713  10.496
73080W        W45373   4.210   3.321  11.539
73081W        W45374  23.067  26.081   0.433
73082W        W45375  38.557   6.719   0.849
73083W        W45376   9.218  37.854  14.896
73084W        W45377  37.375  24.213  12.399
73085W        W45378  25.110  34.109  12.844
73086W        W45379   7.763   5.283   1.262
73087W        W45380  20.705  22.252  11.970
73088W        W45381   7.725  17.175   4.627
73089W        W45382  23.548   7.789   1.264
73090W        W45383   5.692  41.934   0.455
73091W        W45384  28.561   3.287  11.406
73092W        W45385   9.721  35.513   2.848
73093W        W45386   9.850   6.314   3.762
73094W        W45387  39.859  30.948   0.436
73095W        W45388  22.572  27.598   2.735
73096W        W45389  35.594  33.945  11.073
73097W        W45390  18.626   2.297  11.992
73098W        W45391  22.729  28.645   1.422
73099W        W45392  12.224  15.763   0.745
73100W        W45393  26.503  28.160   3.725
73101W        W45394  30.653   8.361   3.358
73102W        W45395  11.638  20.552  12.979
73103W        W45396  21.618  16.313   2.861
73104W        W45397  12.304  17.266   2.794
73105W        W45398   0.794  12.717  12.574
73106W        W45399  28.461  12.710   0.770
73107W        W45400   9.337  18.292  11.053
73108W        W45401  32.040  26.066  11.077
73109W        W45402   3.248  30.998   3.366
73110W        W45403   5.263   9.823   2.673
73111W        W45404   7.173  23.692  10.964
73112W        W45405   8.852  18.699  14.897
73113W        W45406  27.953  43.295  12.922
73114W        W45407   8.343   9.777  11.020
73115W        W45408  20.647   9.712  11.985
73116W        W45409   1.296  18.667  12.053
73117W        W45410  33.914  42.954  11.469
73118W        W45411  43.419   2.230  12.828
73119W        W45412  37.021  33.054  12.073
73120W        W45413  24.200  22.249  11.086
73121W        W45414  30.649  44.815   3.756
73122W        W45415  43.352  26.023  10.974
73123W        W45416  39.000  41.938   1.826
73124W        W45417  33.066  25.602  11.917
73125W        W45418  42.325  20.232  11.929
73126W        W45419   4.909   3.710   0.419
73127W        W45420  39.369  40.403  14.029
73128W        W45421  15.793  29.114  10.461
73129W        W45422  25.133   8.714   0.247
73130W        W45423  22.156   3.822   1.424
73131W        W45424  44.335  40.328   0.857
73132W        W45425  18.164   0.323  12.949
73133W        W45426   0.800  18.712  13.850
73134W        W45427  40.483  44.785   3.844
73135W        W45428   5.201  27.448   4.826
73136W        W45429  35.947   0.380   2.845
73137W        W45430   1.315  27.013  11.087
73138W        W45431  11.766  36.919  12.345
73139W        W45432  27.070   7.779  13.358
73140W        W45433  41.429   1.805   0.887
73141W        W45434  19.704   1.739  14.889
73142W        W45435  27.532  41.900   3.746
73143W        W45436  25.539  18.682   3.206
73144W        W45437  20.648  44.842   1.216
73145W        W45438  24.170  36.070  10.488
73146W        W45439  27.948  30.070   2.317
73147W        W45440  41.903   9.847   2.721
73148W        W45441  10.349   3.712   2.184
73149W        W45442   7.305  23.709  12.566
73150W        W45443  43.975  41.965  12.546
73151W        W45444   6.211  38.856  12.968
73152W        W45445   6.860  21.540  10.573
73153W        W45446  26.139  15.131   4.818
73154W        W45447  11.755  15.627  11.989
73155W        W45448  33.402  26.004   1.707
73156W        W45449  43.507  36.570   3.216
73157W        W45450  43.791   7.201  14.417
73158W        W45451  28.967   9.257   5.610
73159W        W45452  24.071  10.213   4.353
73160W        W45453   8.233  30.643   2.351
73161W        W45454  39.895  22.746   3.666
73162W        W45455  22.115  44.329  11.581
73163W        W45456  33.440  33.903  11.481
73164W        W45457  11.355  26.501  10.460
73165W        W45458  26.066  32.531   3.376
73166W        W45459  35.947   1.840   2.771
73167W        W45460  22.641   1.357   2.193
73168W        W45461  30.494  32.558   0.770
73169W        W45462  35.463  27.557  10.465
73170W        W45463  30.529  12.717  10.129
73171W        W45464  23.565  34.990   0.851
73172W        W45465   0.872   0.345  11.956
73173W        W45466  21.560  28.028   3.178
73174W        W45467  39.364  20.186  13.395
73175W        W45468  41.962  42.511   5.669
73176W        W45469  43.352  21.609  12.339
73177W        W45470  42.821  33.093  11.029
73178W        W45471  16.670  11.840   4.636
73179W        W45472  38.335  22.583   4.661
73180W        W45473  16.595  35.958   0.882
73181W        W45474  38.919  16.219   3.370
73182W        W45475  16.128  11.167  14.875
73183W        W45476  23.999   5.432  10.935
73184W        W45477  15.102  31.418  14.849
73185W        W45478   2.855  42.001  12.047
73186W        W45479  32.900   8.727   2.204
73187W        W45480   7.208  41.966  11.422
73188W        W45481  22.101  35.407   3.791
73189W        W45482  21.243   5.839  14.284
73190W        W45483  23.489  42.360   1.854
73191W        W45484  16.093  44.434  14.323
73192W        W45485  39.480  29.596  14.413
73193W        W45486  23.009  11.256  12.002
73194W        W45487   8.358  15.233   1.410
73195W        W45488   3.331  24.581   0.428
73196W        W45489  15.095  44.951  11.028
73197W        W45490  18.184  35.091   0.870
73198W        W45491  38.935   6.186   0.271
73199W        W45492  18.110  14.646  12.519
73200W        W45493  26.658   4.405   0.726
73201W        W45494  28.633  19.658   1.728
73202W        W45495  15.258  28.035  11.413
73203W        W45496  26.498  43.945  11.122
73204W        W45497  31.402  10.266  13.458
73205W        W45498  22.705   2.414   1.792
73206W        W45499   8.660  41.890   2.880
73207W        W45500  30.422   9.375  14.481
73208W        W45501  34.024  11.246  11.572
73209W        W45502   2.847  27.113   2.326
73210W        W45503  43.387  33.908  13.797
73211W        W45504  27.186  13.654  12.064
73212W        W45505  18.626  44.003  14.767
73213W        W45506  16.187  33.598   2.753
73214W        W45507  17.107  31.520   0.730
73215W        W45508  31.937  22.013  10.091
73216W        W45509  16.783   3.426  14.315
73217W        W45510  35.960  27.945   1.282
73218W        W45511  43.976  39.382   2.880
73219W        W45512  25.493  20.589  11.458
73220W        W45513   4.827  14.664  13.310
73221W        W45514  39.841   2.910   2.675
73222W        W45515  25.521   4.280  14.337
73223W        W45516  31.145   2.226  13.322
73224W        W45517  23.528   4.776  13.951
73225W        W45518  21.154  11.783  10.561
73226W        W45519   3.420  24.115   1.365
73227W        W45520  23.003  34.435  14.511
73228W        W45521  31.617  17.751  14.317
73229W        W45522  18.619  44.796  10.486
73230W        W45523  29.085  18.272   2.902
73231W        W45524  10.875  35.510   1.245
73232W        W45525  11.220  26.498   2.250
73233W        W45526  11.369  32.430  12.908
73234W        W45527  31.476  37.922  11.045
73235W        W45528   1.339  44.467   4.766
73236W        W45529  24.994  16.308  10.405
73237W        W45530  25.198  17.174   1.270
73238W        W45531  39.428  22.067  13.428
73239W        W45532  29.072  36.050   0.858
73240W        W45533   5.848  34.023   0.881
73241W        W45534  38.493  19.114   3.771
73242W        W45535   4.705  13.828  14.012
73243W        W45536  17.723  22.573  14.945
73244W        W45537  22.118  20.204   1.326
73245W        W45538  33.523  43.408  10.100
73246W        W45539  19.728  15.728  13.863
73247W        W45540  19.165  31.522  13.361
73248W        W45541   6.205  27.165  10.541
73249W        W45542  20.643  29.017  10.904
73250W        W45543  37.832  38.430  12.548
73251W        W45544   9.668   0.777  10.439
73252W        W45545   8.674  27.558   1.339
73253W        W45546  13.700  21.684  13.463
73254W        W45547  10.688  22.734  13.996
73255W        W45548   2.768  17.745   0.841
73256W        W45549   1.240  20.678   2.886
73257W        W45550  13.790  16.171   1.732
73258W        W45551  30.603  18.256  12.502
73259W        W45552  35.570   3.738   2.389
73260W        W45553  34.600  27.548  11.423
73261W        W45554  28.524  39.343   3.336
73262W        W45555  14.731  43.314  13.881
73263W        W45556  27.195   3.727  13.539
73264W        W45557  19.773  28.480  12.842
73265W        W45558  11.662  23.176  13.917
73266W        W45559  42.788  29.036   1.356
73267W        W45560  10.291  37.963  14.769
73268W        W45561  36.350  16.075  14.028
73269W        W45562   8.729  25.512  12.975
73270W        W45563  38.498  20.572  12.002
73271W        W45564  43.441  31.998  12.523
73272W        W45565  42.873  41.930  10.945
73273W        W45566  18.140   6.713   0.355
73274W        W45567   6.857  40.360   4.225
73275W        W45568  19.230  21.734  10.536
73276W        W45569  36.936   2.795  14.440
73277W        W45570  10.662  10.341   0.864
73278W        W45571  33.469   8.827  11.113
73279W        W45572   8.791   6.738   1.714
73280W        W45573  38.944   5.825  11.426
73281W        W45574  23.525   8.351  13.518
73282W        W45575   8.860  26.537  10.451
73283W        W45576  17.158   6.302  12.561
73284W        W45577  38.910  12.215   0.473
73285W        W45578  40.051   0.941  11.106
73286W        W45579  24.580  33.489   2.670
73287W        W45580  18.694  33.590  11.016
73288W        W45581  14.828  10.682  11.400
73289W        W45582  14.132  29.563  13.468
73290W        W45583   0.311  34.948   9.539
73291W        W45584  33.981  28.537  11.912
73292W        W45585  22.158   3.358   9.505
73293W        W45586  37.371  40.549  10.474
73294W        W45587  34.868   6.816   0.944
73295W        W45588  25.035   6.219  14.008
73296W        W45589   0.313  19.160  11.872
73297W        W45590  34.020  12.744  12.400
73298W        W45591   6.786  41.953  13.926
73299W        W45592  36.571   3.872   3.768
73300W        W45593  18.582   9.698   2.853
73301W        W45594  20.736  21.663   2.849
73302W        W45595  36.024   7.710   0.274
73303W        W45596   9.186  37.889   3.153
73304W        W45597  14.154  22.033  14.495
73305W        W45598   9.773  38.055  12.056
73306W        W45599  23.594   3.354  14.459
73307W        W45600  25.655  26.587   4.736
73308W        W45601  16.142  34.120   3.338
73309W        W45602   0.913  44.980  14.891
73310W        W45603  42.419  15.723   0.303
73311W        W45604  17.586  39.040  12.531
73312W        W45605  12.651  21.656  14.280
73313W        W45606  26.498  37.406  15.000
73314W        W45607  16.156  31.607   3.291
73315W        W45608  44.369   0.757  12.408
73316W        W45609  26.139  34.047  11.897
73317W        W45610   4.759  34.093   0.285
73318W        W45611  25.052  34.497   2.309
73319W        W45612  34.599  16.633   1.371
73320W        W45613  43.947  19.638  14.351
73321W        W45614  26.976  39.932   4.823
73322W        W45615  22.091  26.625   4.308
73323W        W45616   1.297  24.652  14.486
73324W        W45617   4.760  34.982  12.875
73325W        W45618  30.162   5.403  13.442
73326W        W45619  33.463  25.130   0.293
73327W        W45620  37.571   7.882  10.927
73328W        W45621   1.298  37.406   3.865
73329W        W45622  29.584  42.523  14.965
73330W        W45623   8.379  15.204  13.062
73331W        W45624  22.687  42.879  11.857
73332W        W45625   1.422   7.324  14.382
73333W        W45626  21.114  42.307  12.494
73334W        W45627  14.734  29.125  10.598
73335W        W45628  43.855  22.176   1.420
73336W        W45629  30.153   0.952  12.824
73337W        W45630  13.657  22.055  14.445
73338W        W45631   4.320  15.588  14.822
73339W        W45632  41.387  10.160   0.952
73340W        W45633  34.570  27.131  13.452
73341W        W45634   7.222  34.455   2.415
73342W        W45635   8.719  27.640  10.481
73343W        W45636   5.763  20.133  11.884
73344W        W45637  36.892  26.701  10.643
73345W        W45638  37.425  43.294  14.438
73346W        W45639  18.121  12.336  13.419
73347W        W45640  39.337  25.576  11.887
73348W        W45641  37.581   8.261  13.046
73349W        W45642  32.596  38.906  11.905
73350W        W45643  28.574   8.203   1.337
73351W        W45644  28.673   1.303   3.725
73352W        W45645  41.303  30.584   0.853
73353W        W45646  33.445  23.565   3.766
73354W        W45647   0.829  33.919  12.905
73355W        W45648  34.516  23.603   0.413
73356W        W45649   7.674  44.924   2.715
73357W        W45650   4.410  23.062  12.876
73358W        W45651  17.777   6.231   1.417
73359W        W45652   6.239  23.225  14.374
73360W        W45653  11.170  15.778  13.353
73361W        W45654  44.387  35.032  13.985
73362W        W45655  32.591  10.721  11.959
73363W        W45656   0.387   8.894   0.284
73364W        W45657  40.517  28.062   1.242
73365W        W45658  35.454   2.767   2.802
73366W        W45659   5.422  34.605  13.908
73367W        W45660  31.146  44.473   1.871
73368W        W45661  20.080  11.701  12.576
73369W        W45662  30.062  41.041  13.528
73370W        W45663  42.323  30.432   4.783
73371W        W45664   7.387  28.167  12.524
73372W        W45665  27.098  23.041  11.936
73373W        W45666   4.228   5.363  13.387
73374W        W45667  25.055  19.251  12.038
73375W        W45668  40.309   4.882   2.375
73376W        W45669   9.297  37.883  12.996
73377W        W45670  14.322   7.250  10.571
73378W        W45671  13.120  31.145  13.511
73379W        W45672  29.490  19.655  11.377
73380W        W45673   3.268   1.939  12.435
73381W        W45674  43.290  18.720  10.006
73382W        W45675  23.998  28.589   0.733
73383W        W45676  27.579  15.577   0.452
73384W        W45677  15.229  14.117  13.884
73385W        W45678  27.160   6.863   1.436
73386W        W45679  13.217   4.218   2.233
73387W        W45680  17.146  39.977   1.900
73388W        W45681   1.909  20.235   2.821
73389W        W45682   5.904  44.501  14.906
73390W        W45683  16.678  11.298  11.437
73391W        W45684  10.327  15.328  13.983
73392W        W45685  19.283  21.179   9.985
73393W        W45686  43.309  30.103   4.673
73394W        W45687  13.646  11.219   3.652
73395W        W45688  40.308   4.706  10.967
73396W        W45689  36.417  36.897   1.310
73397W        W45690  36.089  23.604  14.838
73398W        W45691  29.632  35.036  12.512
73399W        W45692  23.231   0.434  14.278
73400W        W45693  27.101  19.542  14.454
73401W        W45694  41.436  13.266  10.936
73402W        W45695  22.511  36.586  10.919
73403W        W45696  12.662  10.747  10.423
73404W        W45697  20.696  18.740   2.823
73405W        W45698   8.175  11.852  12.373
73406W        W45699   7.690  31.546   3.800
73407W        W45700  29.976  10.325  14.008
73408W        W45701  21.722  26.589   0.801
73409W        W45702  26.203  23.702  13.324
73410W        W45703   4.235  37.976  13.483
73411W        W45704   2.910  31.025   4.335
73412W        W45705   2.300  25.639   2.779
73413W        W45706   8.750  11.849   3.263
73414W        W45707  40.813  24.491   3.658
73415W        W45708  12.356   5.193  12.019
73416W        W45709   5.868  34.574   1.284
73417W        W45710  41.478   4.349   4.266
73418W        W45711  30.951  20.230  11.953
73419W        W45712  33.404  29.587   4.220
73420W        W45713  30.139   4.913   2.387
73421W        W45714  16.286  20.220   1.870
73422W        W45715  37.513  26.515  13.331
73423W        W45716  41.933  17.164  10.968
73424W        W45717  23.624  18.548   2.246
73425W        W45718  10.314  36.391  13.368
73426W        W45719  13.628  27.950  11.009
73427W        W45720  39.402  43.801  13.932
73428W        W45721  35.098  33.886   4.122
73429W        W45722  12.750  31.915   4.248
73430W        W45723   6.286  12.714  10.569
73431W        W45724  22.193  21.603  12.010
73432W        W45725  36.924   4.344   0.414
73433W        W45726  39.893  31.475  10.599
73434W        W45727  17.202   9.267   2.334
73435W        W45728  25.171  28.065   4.700
73436W        W45729  27.560  37.002   3.744
73437W        W45730  27.134  37.477   2.281
73438W        W45731   4.799  37.057   0.757
73439W        W45732  12.635  13.253  10.543
73440W        W45733  22.544  15.307   0.886
73441W        W45734  44.876   4.884   1.438
73442W        W45735  19.262  44.795   2.386
73443W        W45736  39.388  34.040   0.816
73444W        W45737   0.787  25.037   9.960
73445W        W45738  30.658   7.405  11.455
73446W        W45739  40.528   4.846   0.351
73447W        W45740  40.365  41.436  11.374
73448W        W45741  42.983   3.924  14.316
73449W        W45742  11.250  31.094   0.915
73450W        W45743  39.459  12.683  11.600
73451W        W45744  22.159  34.934   0.398
73452W        W45745  30.532  17.753  11.591
73453W        W45746   9.151  16.766   0.857
73454W        W45747   9.234  15.794   2.192
73455W        W45748  31.053   1.272  12.961
73456W        W45749  38.944  15.638   0.299
73457W        W45750   3.378  31.938  14.846
73458W        W45751  29.981  43.962   3.817
73459W        W45752  38.073  37.348  14.828
73460W        W45753   7.194  20.154   2.293
73461W        W45754  24.995  38.962  12.376
73462W        W45755   5.856   3.339   3.303
73463W        W45756  12.734  42.319   2.354
73464W        W45757  32.528  39.516   3.858
73465W        W45758   3.743   6.798   3.708
73466W        W45759  44.382  36.884   1.246
73467W        W45760  34.927  33.990   0.941
73468W        W45761   8.271  17.149   1.929
73469W        W45762  24.566  34.432  10.598
73470W        W45763  37.506  35.424   1.868
73471W        W45764  16.805  12.241  13.330
73472W        W45765  18.150  31.533  14.378
73473W        W45766  43.387  10.274  11.553
73474W        W45767  33.431  13.186  10.425
73475W        W45768  16.746  44.884   0.471
73476W        W45769  32.065  30.001   4.755
73477W        W45770   6.217  20.611  14.981
73478W        W45771  11.633   7.809  14.961
73479W        W45772  18.566  37.904   1.363
73480W        W45773  23.716   7.732  13.501
73481W        W45774  35.423  36.545   2.876
73482W        W45775   8.826   8.290   4.146
73483W        W45776   9.858  43.398  10.937
73484W        W45777  26.041  11.703  11.485
73485W        W45778  14.615  31.460  14.771
73486W        W45779  37.380   5.758  11.546
73487W        W45780  25.534  33.531   3.738
73488W        W45781   2.743  33.481  12.029
73489W        W45782  19.736  30.586   4.790
73490W        W45783   4.252  22.523  14.935
73491W        W45784   1.366  16.802  14.290
73492W        W45785  20.718  38.019   4.809
73493W        W45786  28.550  41.446  14.975
73494W        W45787  18.727  30.132  14.497
73495W        W45788  28.594   1.904  11.402
73496W        W45789  14.673  13.335  10.538
73497W        W45790  18.113  15.192  12.526
73498W        W45791  37.511  20.765   1.854
73499W        W45792  22.095  24.630  12.536
73500W        W45793  36.885  34.581  14.370
73501W        W45794  30.093  34.525   2.800
73502W        W45795   9.708  22.640   4.205
73503W        W45796  20.078  20.623   1.381
73504W        W45797  37.894  13.641   2.397
73505W        W45798  31.945   6.409  12.832
73506W        W45799  28.627  24.685  10.061
73507W        W45800  30.945  16.263  13.439
73508W        W45801  14.253  18.270   0.440
73509W        W45802  13.696  23.042  14.848
73510W        W45803  14.798  12.706  13.893
73511W        W45804   0.400  31.112   1.694
73512W        W45805   0.836   5.805   0.456
73513W        W45806   9.281  10.372  14.949
73514W        W45807   1.464  39.482   2.671
73515W        W45808  24.722   0.457   3.658
73516W        W45809  19.721  12.171  13.534
73517W        W45810   3.791  36.524  12.913
73518W        W45811   2.354  27.459  13.049
73519W        W45812   5.717  38.013  10.515
73520W        W45813   1.805   4.304  13.932
73521W        W45814  29.025  44.447   0.420
73522W        W45815  30.577  11.661  11.553
73523W        W45816  44.944  21.579   2.336
73524W        W45817  35.895  34.061  11.025
73525W        W45818  42.313  20.545  14.442
73526W        W45819  30.032  43.416   0.816
73527W        W45820  43.470   3.276  14.979
73528W        W45821  20.146  10.872   0.291
73529W        W45822  33.052  43.939  12.946
73530W        W45823  11.733  32.582  13.355
73531W        W45824  34.912  39.498   0.917
73532W        W45825  30.129  13.159   2.781
73533W        W45826  39.007  29.456  12.870
73534W        W45827   4.803  13.277  13.024
73535W        W45828  42.483   6.396   0.465
73536W        W45829  41.982  16.228  14.470
73537W        W45830  35.402  14.138  14.907
73538W        W45831  35.862  23.234   4.703
73539W        W45832  41.324  31.587   4.154
73540W        W45833   0.432  17.075  14.881
73541W        W45834  26.130   8.814   1.843
73542W        W45835  11.743  40.980  10.122
73543W        W45836  20.170   0.791   4.207
73544W        W45837  30.057  12.207   4.670
73545W        W45838  11.305  22.593  10.445
73546W        W45839   7.700  44.939   4.168
73547W        W45840  24.065  12.202   2.231
73548W        W45841  17.573  35.963  10.407
73549W        W45842  20.069  21.020  14.462
73550W        W45843  25.552  26.696   1.308
73551W        W45844  18.693  29.088  13.984
73552W        W45845  31.069   8.829  13.458
73553W        W45846  15.207  34.604  14.275
73554W        W45847   7.347  29.103   1.721
73555W        W45848   6.717  38.384  12.881
73556W        W45849  33.456  39.532   2.689
73557W        W45850  14.172  40.453   4.320
73558W        W45851   1.793  38.531  14.458
73559W        W45852  38.374  42.421   3.700
73560W        W45853  40.995  18.242   0.286
73561W        W45854  37.860  21.560   1.700
73562W        W45855  29.091  27.661  14.280
73563W        W45856   4.765  34.530   3.709
73564W        W45857  22.054  40.397  10.571
73565W        W45858  35.384  17.743   0.747
73566W        W45859   2.735   6.223   1.718
73567W        W45860  38.394  33.905   2.194
73568W        W45861  15.158  35.041  13.458
73569W        W45862  21.631   9.207  14.367
73570W        W45863  21.126  44.778  12.431
73571W        W45864  41.332   5.193   4.290
73572W        W45865  12.728  28.678  12.441
73573W        W45866  11.679  18.282   4.129
73574W        W45867  25.088  13.748   2.752
73575W        W45868   4.286   2.335  13.381
73576W        W45869  20.248  22.214  14.821
73577W        W45870  30.595   2.891   0.473
73578W        W45871  33.428  30.609  11.492
73579W        W45872  13.215  42.950  10.090
73580W        W45873  42.018  32.951  11.403
73581W        W45874   2.730   8.395  11.038
73582W        W45875   4.761  37.051   2.407
73583W        W45876   2.930   6.294   3.314
73584W        W45877   0.844   2.822  14.954
73585W        W45878   6.208  36.966  10.585
73586W        W45879  21.135   6.896  13.022
73587W        W45880  14.618   2.277   4.212
73588W        W45881  40.889  11.700   0.310
73589W        W45882   2.387  25.134  11.598
73590W        W45883  25.621  42.432   3.682
73591W        W45884  23.670  40.032   0.262
73592W        W45885  22.007   9.644  13.417
73593W        W45886   9.853  22.516  11.455
73594W        W45887  12.681   5.323  11.944
73595W        W45888  35.534  42.516   4.256
73596W        W45889   3.355  26.495  12.523
73597W        W45890  43.298  30.957   1.913
73598W        W45891  21.569   1.887  10.416
73599W        W45892   1.238   4.304  14.475
73600W        W45893  28.168  41.354  11.589
73601W        W45894  28.593  12.122  14.280
73602W        W45895  43.884  11.741   0.762
73603W        W45896  24.007   5.733  12.871
73604W        W45897   6.272  29.928   4.126
73605W        W45898  10.810  27.181  12.062
73606W        W45899  18.143  42.027  12.452
73607W        W45900  17.727  36.587   3.756
73608W        W45901  36.947  16.130  11.000
73609W        W45902  24.718  34.932  12.388
73610W        W45903  35.912  24.173   2.782
73611W        W45904   0.822   9.850   1.931
73612W        W45905  30.526  35.595   0.423
73613W        W45906  44.778  21.581   1.227
73614W        W45907  24.493  36.552   1.402
73615W        W45908  26.651  30.062  12.038
73616W        W45909  27.996  30.418   4.628
73617W        W45910  21.745   2.757   1.875
73618W        W45911  25.587  38.430   4.207
73619W        W45912  41.791  22.640  11.905
73620W        W45913   3.368  24.106  13.990
73621W        W45914  12.820  28.680  11.907
73622W        W45915  10.161  19.086  10.441
73623W        W45916  37.501  13.145   4.642
73624W        W45917  31.978  27.544  10.593
73625W        W45918  39.897  16.167  12.836
73626W        W45919  30.072  38.938  12.378
73627W        W45920  40.916  43.789   3.154
73628W        W45921   2.733  32.040  12.032
73629W        W45922   9.209  16.212  10.522
73630W        W45923  23.667   6.382   1.913
73631W        W45924  30.505  40.940   0.842
73632W        W45925  16.591   5.866   1.405
73633W        W45926  39.832  24.631   0.452
73634W        W45927  27.194  10.845  12.557
73635W        W45928  43.487   9.154   0.470
73636W        W45929  31.042  30.013  10.944
73637W        W45930   0.311  35.494  13.964
73638W        W45931  26.596  35.495  12.502
73639W        W45932   4.898   4.208  10.938
73640W        W45933  17.262   0.746  12.580
73641W        W45934  17.795  43.770   1.930
73642W        W45935   9.705  44.473   2.808
73643W        W45936   5.253  34.893  14.847
73644W        W45937  39.550  14.608  13.427
73645W        W45938  36.931   6.274  14.419
73646W        W45939  24.491  15.190  11.458
73647W        W45940  42.396  27.014  11.960
73648W        W45941  44.321  28.576  12.554
73649W        W45942  27.168  30.942   2.707
73650W        W45943  20.185   8.814   1.793
73651W        W45944  41.373  36.588  14.384
73652W        W45945  17.159  13.314  12.022
73653W        W45946  25.577   6.414   1.431
73654W        W45947   3.333  39.524  11.951
73655W        W45948   8.669  24.024  10.936
73656W        W45949  34.578  41.322   3.169
73657W        W45950  10.745  15.771  12.912
73658W        W45951  29.632   4.392  14.403
73659W        W45952  32.117   9.197  12.917
73660W        W45953  13.793  21.640   3.192
73661W        W45954  30.654   4.856  14.393
73662W        W45955  42.032  23.710  13.445
73663W        W45956  37.411  39.034  13.037
73664W        W45957  24.522  35.894   2.350
73665W        W45958  30.164  11.690   3.831
73666W        W45959  14.179  28.506  10.940
73667W        W45960  27.617  28.540   3.369
73668W        W45961  29.556  18.240   4.672
73669W        W45962  32.398   7.742  13.474
73670W        W45963  23.130  39.426   2.836
73671W        W45964   9.870  34.527  10.641
73672W        W45965  43.946  24.592  10.910
73673W        W45966  30.032  34.538  10.443
73674W        W45967  27.551  19.607  11.014
73675W        W45968  44.337  26.079  12.041
73676W        W45969  25.135  18.194   1.223
73677W        W45970  24.570   0.416  13.989
73678W        W45971  42.436  35.486   4.830
73679W        W45972  36.562  27.476   0.277
73680W        W45973   0.458  31.932   2.848
73681W        W45974  29.008  13.627   1.847
73682W        W45975   1.887  27.621  12.900
73683W        W45976  43.474  33.893  10.154
73684W        W45977  24.201  40.333  14.325
73685W        W45978  30.463  10.316   1.334
73686W        W45979  26.194   5.894  14.837
73687W        W45980  12.303   5.869  11.941
73688W        W45981  21.055  21.698  10.606
73689W        W45982   6.751  35.905   4.181
73690W        W45983   4.207  33.590   2.193
73691W        W45984  28.569  36.401   1.435
73692W        W45985  31.550   5.356   4.307
73693W        W45986   6.418   3.324  13.880
73694W        W45987  26.125  27.954   0.951
73695W        W45988  31.978  32.564  13.035
73696W        W45989  10.313  43.781   1.419
73697W        W45990  28.955  39.828   4.155
73698W        W45991  43.384  20.231   2.814
73699W        W45992  33.928  16.797   3.235
73700W        W45993   0.899  21.596   0.807
73701W        W45994  40.907  44.290  12.860
73702W        W45995   9.221  38.040   1.218
73703W        W45996   0.777  22.585   1.419
73704W        W45997  14.226  44.403  12.022
73705W        W45998  24.515  19.646  12.486
73706W        W45999  30.548   8.268   4.772
73707W        W46000  11.857   9.806   0.246
73708W        W46001  36.032  24.080   3.799
73709W        W46002  43.902  33.421   2.854
73710W        W46003   2.434  12.747   4.172
73711W        W46004  18.659  28.677  13.959
73712W        W46005   0.988  20.139  13.041
73713W        W46006  26.655  27.058  13.969
73714W        W46007   5.357  44.981   2.673
73715W        W46008  28.547  38.325   0.381
73716W        W46009   4.268  41.880  14.898
73717W        W46010  31.444  19.155  13.902
73718W        W46011   8.314  31.543  14.841
73719W        W46012  11.139   8.161   1.328
73720W        W46013  38.994  25.614   3.370
73721W        W46014  33.561  36.887  10.460
73722W        W46015   7.353  31.445  10.641
73723W        W46016  30.465  41.034  11.883
73724W        W46017  40.347   9.253  13.840
73725W        W46018  29.602  41.399   0.956
73726W        W46019  33.453  44.962  11.530
73727W        W46020  25.689  11.269  12.509
73728W        W46021  12.690  20.219  10.584
73729W        W46022  16.716  38.971   1.438
73730W        W46023  40.891  32.134  11.443
73731W        W46024  22.720   7.244   1.920
73732W        W46025   4.269  30.455  14.425
73733W        W46026   2.884  37.053  14.349
73734W        W46027   0.277  10.837  13.417
73735W        W46028  18.263  19.581   3.804
73736W        W46029   5.700  41.916  12.476
73737W        W46030   1.781  24.211  12.037
73738W        W46031   8.347  28.610   3.786
73739W        W46032   5.707  35.383  10.562
73740W        W46033  43.939   5.222  14.422
73741W        W46034  33.614   8.329  13.965
73742W        W46035  37.405  23.214  10.900
73743W        W46036  10.787  18.631  11.508
73744W        W46037   8.253   3.390  13.428
73745W        W46038  26.182  43.391  13.825
73746W        W46039   5.736  31.529   2.191
73747W        W46040  25.624  32.631   0.471
73748W        W46041  16.220  22.512  14.817
73749W        W46042  17.238  36.585  12.403
73750W        W46043   8.744  18.204  12.903
73751W        W46044   9.727  44.399  11.393
73752W        W46045   4.401  30.646  13.011
73753W        W46046   0.303  13.341  10.568
73754W        W46047   1.359  24.571   4.300
73755W        W46048  12.173   9.870   4.286
73756W        W46049  15.816  42.429  12.950
73757W        W46050  14.702  10.828   4.598
73758W        W46051  14.727   9.391   3.646
73759W        W46052  18.759   9.187  10.536
73760W        W46053  32.539   3.746  12.997
73761W        W46054  41.484  23.038   3.288
73762W        W46055  25.515  14.697   4.233
73763W        W46056  31.557  29.474  14.463
73764W        W46057  28.522  44.371  14.292
73765W        W46058  21.050  31.602  13.344
73766W        W46059  18.218  32.608   2.275
73767W        W46060  12.640  11.365  13.859
73768W        W46061   8.675  23.129   3.658
73769W        W46062  35.862  26.571  14.002
73770W        W46063   3.881   6.270   2.702
73771W        W46064  41.397  22.662  13.519
73772W        W46065  16.227  28.522   1.813
73773W        W46066  42.430   6.683  10.887
73774W        W46067  42.472   5.828  11.431
73775W        W46068   0.314  26.694  13.388
73776W        W46069  33.566  34.104   2.810
73777W        W46070  17.658   9.665   1.429
73778W        W46071  11.792  18.589   2.893
73779W        W46072  44.893   7.210  11.122
73780W        W46073  17.762  15.723  14.461
73781W        W46074  38.878  34.958   4.330
73782W        W46075  32.141  43.864  10.472
73783W        W46076   7.776   4.908   5.252
73784W        W46077  18.169   0.760   3.386
73785W        W46078  39.336  10.690   4.719
73786W        W46079  34.563  12.757   3.257
73787W        W46080  20.203  29.528   0.781
73788W        W46081  41.829   4.942  12.496
73789W        W46082  25.032  44.819   2.764
73790W        W46083  24.067   7.812   3.671
73791W        W46084  29.574  18.225  13.869
73792W        W46085   6.769   4.269   1.821
73793W        W46086  34.554  21.032  12.536
73794W        W46087  35.550   3.880   1.299
73795W        W46088  37.032  10.711   0.379
73796W        W46089   3.382  38.373  12.437
73797W        W46090   4.902   6.228  11.507
73798W        W46091  44.914  29.660  10.566
73799W        W46092  40.437  21.168  13.953
73800W        W46093  35.076  25.670   4.739
73801W        W46094  31.935  41.505   9.925
73802W        W46095  42.362   7.374  10.518
73803W        W46096  21.194  17.289   4.213
73804W        W46097  44.762  27.095  10.607
73805W        W46098   1.416   0.344  13.981
73806W        W46099   0.874   5.752   4.637
73807W        W46100  21.146  11.213  14.965
73808W        W46101   7.299  14.678  12.072
73809W        W46102   7.291  27.145  10.896
73810W        W46103  42.796  40.010   1.786
73811W        W46104  12.298  42.286  14.795
73812W        W46105  20.257  32.576   3.361
73813W        W46106  20.124   4.799  14.856
73814W        W46107  44.406  30.907   3.332
73815W        W46108  39.810   5.766   2.786
73816W        W46109  31.472  27.574  11.389
73817W        W46110  26.499  31.405  10.455
73818W        W46111  10.745  17.210   3.769
73819W        W46112  28.500  13.685  13.487
73820W        W46113   4.903  20.091   3.316
73821W        W46114  34.972  16.074   3.156
73822W        W46115   4.282  10.870   1.728
73823W        W46116  39.051  11.805   0.817
73824W        W46117  37.018  30.163   1.331
73825W        W46118  33.907  17.578   1.720
73826W        W46119  28.162  13.713  10.911
73827W        W46120   5.266  20.089  12.909
73828W        W46121  43.963  21.103   2.814
73829W        W46122  23.617  14.683  14.338
73830W        W46123   3.945  44.502   3.210
73831W        W46124  23.010  10.255  13.016
73832W        W46125  22.054   2.781   5.798
73833W        W46126  16.083  13.161   0.381
73834W        W46127  21.111  26.198   2.412
73835W        W46128  20.687   3.224  14.457
73836W        W46129  17.708   8.389  11.966
73837W        W46130   8.846  30.940   4.667
73838W        W46131  14.270  11.658  12.997
73839W        W46132  40.904  22.720  11.402
73840W        W46133  16.585  44.329   2.687
73841W        W46134  27.991  41.023  14.960
73842W        W46135  30.130  18.720   1.282
73843W        W46136  24.522  26.096   1.760
73844W        W46137  25.618  27.969  14.424
73845W        W46138  43.304  28.990   1.736
73846W        W46139  29.638   5.807   0.748
73847W        W46140  11.708  38.005   3.776
73848W        W46141   7.683  29.143  13.947
73849W        W46142  40.339  38.401  14.890
73850W        W46143   1.382  28.082   1.214
73851W        W46144   7.713   5.257  14.761
73852W        W46145  20.196  20.186   1.250
73853W        W46146  23.489  37.353   0.888
73854W        W46147  44.984   2.879   2.737
73855W        W46148   5.879  34.464  14.318
73856W        W46149  36.895  13.219   4.641
73857W        W46150  38.541  15.187  14.927
73858W        W46151  36.464   9.807   0.340
73859W        W46152  23.109  18.143  10.414
73860W        W46153  11.733   2.745  10.933
73861W        W46154  25.106  24.611   1.444
73862W        W46155  12.854  18.788  11.962
73863W        W46156   2.359  23.016  11.388
73864W        W46157  43.470  12.709  14.933
73865W        W46158  32.419  21.081   0.265
73866W        W46159   3.929  43.835   3.692
73867W        W46160   5.304   4.415  14.444
73868W        W46161  24.547  23.637   1.317
73869W        W46162   4.784  19.123  10.475
73870W        W46163  17.103  38.059   1.931
73871W        W46164  31.497  20.648   2.367
73872W        W46165  15.141  18.189  13.329
73873W        W46166  29.561  17.629  14.921
73874W        W46167  10.812  21.102   4.832
73875W        W46168  11.753  31.029   4.782
73876W        W46169  20.540  15.134  14.024
73877W        W46170  34.086   8.880   0.466
73878W        W46171  39.061   2.252   4.198
73879W        W46172  17.576  23.643   2.318
73880W        W46173  43.921  15.144  10.556
73881W        W46174  38.367   4.801   0.763
73882W        W46175  20.184  37.970   4.650
73883W        W46176   4.803  17.737   1.308
73884W        W46177  27.449  32.539  14.363
73885W        W46178   9.766  18.077  14.939
73886W        W46179   9.322  17.789   2.250
73887W        W46180  31.953  16.182  10.443
73888W        W46181  40.851  38.464  11.114
73889W        W46182  20.748  24.179  10.594
73890W        W46183  34.885  26.656   9.940
73891W        W46184  41.370   8.860   4.737
73892W        W46185  44.272   6.420   4.604
73893W        W46186  40.851   9.850   4.201
73894W        W46187  39.838  43.316   2.814
73895W        W46188  20.175  27.612  10.962
73896W        W46189  19.659  30.535  11.060
73897W        W46190  11.333  40.537   2.845
73898W        W46191  20.757  16.632   4.816
73899W        W46192  19.653   9.229   4.634
73900W        W46193  19.709  31.948   3.799
73901W        W46194  18.626  44.832  13.994
73902W        W46195   7.768  17.649   0.463
73903W        W46196  23.197   0.744  10.408
73904W        W46197  26.459  43.880   4.236
73905W        W46198  19.533   7.331  11.867
73906W        W46199  15.286  10.874   4.224
73907W        W46200  22.722  13.754  12.002
73908W        W46201  39.036   5.768  11.906
73909W        W46202  44.391  40.966   1.316
73910W        W46203  32.440   7.897   0.353
73911W        W46204   1.435  14.282  13.472
73912W        W46205  31.542  23.604   3.711
73913W        W46206  35.049   8.284   3.773
73914W        W46207   1.257   1.449   0.847
73915W        W46208  20.549  31.103  13.367
73916W        W46209  28.480  18.587  11.973
73917W        W46210   6.903   0.907  11.915
73918W        W46211  13.718  43.487   4.611
73919W        W46212  26.493  28.007   0.444
73920W        W46213  38.522  30.432  10.993
73921W        W46214  44.964  16.275  12.907
73922W        W46215  32.001  13.642  12.346
73923W        W46216  41.834  41.937  11.939
73924W        W46217  13.296  16.651  12.441
73925W        W46218  27.538  15.223   3.237
73926W        W46219   3.823  42.780  14.916
73927W        W46220  40.022  28.635  14.855
73928W        W46221   9.257  26.519  12.484
73929W        W46222  23.549  22.513  14.340
73930W        W46223  13.146   8.322  12.830
73931W        W46224  38.423  42.029  12.400
73932W        W46225  40.892  43.903  12.841
73933W        W46226  39.861  33.919   0.851
73934W        W46227  32.956  27.183   0.774
73935W        W46228  26.089   7.829  11.897
73936W        W46229   0.859  24.553  12.897
73937W        W46230  16.616  43.903  10.976
73938W        W46231  10.194   6.315  11.596
73939W        W46232  31.897  24.088   0.815
73940W        W46233  32.073   4.248  13.420
73941W        W46234  24.655  41.401  13.005
73942W        W46235  32.904  40.334  12.895
73943W        W46236  28.011   4.792  11.889
73944W        W46237  41.798  26.172   3.243
73945W        W46238  18.056   5.821   3.368
73946W        W46239  21.203   9.865  12.889
73947W        W46240  43.515   6.188   4.762
73948W        W46241  17.773   6.403  14.471
73949W        W46242  41.827  38.432  14.903
73950W        W46243  43.930  16.304  12.379
73951W        W46244  21.517  31.632  12.457
73952W        W46245  16.260  41.945   2.810
73953W        W46246  35.941  36.005  14.408
73954W        W46247  21.653  13.755  13.486
73955W        W46248  18.283  27.572  13.516
73956W        W46249   1.463  10.155   1.831
73957W        W46250  40.357  37.482   4.770
73958W        W46251  36.525   6.390  14.988
73959W        W46252  44.444   5.755  10.437
73960W        W46253  38.025  15.105  12.845
73961W        W46254  21.212  17.704   9.944
73962W        W46255  12.199  34.863  13.421
73963W        W46256   1.936  36.582  14.404
73964W        W46257  31.129  27.979   3.228
73965W        W46258   7.297  39.430  14.813
73966W        W46259  27.583   0.852   1.314
73967W        W46260  10.141   9.770   1.805
73968W        W46261   1.260  19.106   3.213
73969W        W46262   3.357  42.330   3.691
73970W        W46263  17.631  33.447  12.424
73971W        W46264  28.090  25.522   0.272
73972W        W46265  42.403   6.786   2.392
73973W        W46266  36.513   6.411  10.092
73974W        W46267  31.095  28.129  13.962
73975W        W46268  41.003   8.800   0.313
73976W        W46269   9.878  38.425   4.181
73977W        W46270  25.627  39.035  14.443
73978W        W46271  24.493  38.877   1.380
73979W        W46272  18.747   4.884  14.948
73980W        W46273  22.662  22.567   3.346
73981W        W46274  30.592  43.946  11.575
73982W        W46275  31.036  40.041   2.810
73983W        W46276   4.430   4.384  10.577
73984W        W46277  11.775   0.857   3.648
73985W        W46278  16.168  30.951   4.252
73986W        W46279   7.692   4.810   1.846
73987W        W46280  15.729   5.809   3.681
73988W        W46281  26.008  14.272  10.553
73989W        W46282   5.406   0.892   2.677
73990W        W46283   0.816  40.303   3.274
73991W        W46284  17.609  22.505   2.350
73992W        W46285  24.652  38.471  13.916
73993W        W46286  25.102   8.376   4.755
73994W        W46287   0.807   9.644  14.446
73995W        W46288  15.819  41.808  11.588
73996W        W46289  21.160  22.248   1.902
73997W        W46290   0.819  22.634  11.028
73998W        W46291  26.678  39.378   3.693
73999W        W46292   7.350  30.556   4.685
74000W        W46293  36.975  21.082  14.865
74001W        W46294  13.118  35.876  13.912
74002W        W46295  36.368  26.161  12.493
74003W        W46296   6.859   4.921  14.758
74004W        W46297  43.921  35.432   0.947
74005W        W46298  43.435   8.244  11.054
74006W        W46299  32.596  43.821  13.007
74007W        W46300  32.923   9.745   4.833
74008W        W46301   2.320  28.089   1.871
74009W        W46302  30.537  19.728   4.812
74010W        W46303  27.148   4.272  14.275
74011W        W46304  29.149  33.385  11.995
74012W        W46305  30.098  30.453  14.422
74013W        W46306   6.917   0.794   4.649
74014W        W46307   0.800  42.401   2.718
74015W        W46308  21.626  30.124   4.770
74016W        W46309  12.244  37.994  11.462
74017W        W46310  25.680  20.147  12.418
74018W        W46311  42.864   4.369   2.364
74019W        W46312  41.332   2.276   2.836
74020W        W46313  10.747   8.824  11.406
74021W        W46314  36.431  35.469   4.306
74022W        W46315  13.824  15.246   1.297
74023W        W46316  11.814   4.868   3.707
74024W        W46317  25.066  17.214  12.003
74025W        W46318   8.398  33.022  13.437
74026W        W46319  40.006  12.631   0.768
74027W        W46320  28.624   2.304  12.478
74028W        W46321   8.896  12.818   1.400
74029W        W46322  17.222  15.695  12.349
74030W        W46323  35.441  19.568  14.974
74031W        W46324  14.685   0.816  11.030
74032W        W46325  24.705   9.681  12.445
74033W        W46326  30.101  18.649   3.735
74034W        W46327  31.001  28.661   2.855
74035W        W46328  37.033  34.494   3.266
74036W        W46329  36.375  17.713   2.840
74037W        W46330  18.052  21.516  14.948
74038W        W46331  16.788   5.753   0.459
74039W        W46332  10.671   7.365  13.500
74040W        W46333  28.545  12.652   2.775
74041W        W46334  31.127   0.951   1.827
74042W        W46335   0.393  43.334   1.256
74043W        W46336  43.881  20.043  13.920
74044W        W46337  35.869  23.645  10.585
74045W        W46338  19.204  22.570  14.826
74046W        W46339  41.909   8.829  11.971
74047W        W46340  12.184  25.994   2.810
74048W        W46341  21.242  19.165   1.782
74049W        W46342  14.677  15.207   3.661
74050W        W46343  17.288  34.113   3.354
74051W        W46344  10.673  28.607   0.479
74052W        W46345  36.357   4.704   3.708
74053W        W46346   6.231   8.233  12.339
74054W        W46347   0.380  32.931  11.450
74055W        W46348   6.820  12.169   3.239
74056W        W46349  36.457  29.553   1.836
74057W        W46350  36.060  22.235   2.216
74058W        W46351  34.603  29.589  14.863
74059W        W46352   8.195  34.553  13.991
74060W        W46353  40.839  16.691   3.273
74061W        W46354  12.250  26.510  10.404
74062W        W46355  22.532   3.877  11.944
74063W        W46356  33.514   6.872   3.337
74064W        W46357  15.193   5.721  10.530
74065W        W46358  13.787  31.971   0.385
74066W        W46359  28.980   8.836   3.207
74067W        W46360  16.701  13.763   1.349
74068W        W46361  44.412  10.167  12.991
74069W        W46362  31.498  16.779  10.567
74070W        W46363  22.626  27.193   0.750
74071W        W46364   3.897  16.167  11.907
74072W        W46365  44.349  18.660  11.063
74073W        W46366  15.756  42.332   3.701
74074W        W46367  11.755  14.240   4.617
74075W        W46368  34.587  31.917  12.913
74076W        W46369  36.879  16.219  12.340
74077W        W46370  40.513  24.976  11.999
74078W        W46371  44.288  41.497   1.426
74079W        W46372  21.063  29.940  11.505
74080W        W46373  36.522  37.042   3.246
74081W        W46374   4.263  14.254   1.220
74082W        W46375  20.761  40.317  12.043
74083W        W46376  30.040   4.765   3.815
74084W        W46377  39.517   0.307   0.324
74085W        W46378  39.458  25.543  11.037
74086W        W46379  42.414  24.487  13.326
74087W        W46380  23.531  33.936  12.343
74088W        W46381   9.863   9.303  10.917
74089W        W46382  27.647  28.574   3.856
74090W        W46383  22.152   6.287  10.523
74091W        W46384  16.717  18.286  11.562
74092W        W46385   9.330  14.269   4.780
74093W        W46386  44.870  27.010   2.214
74094W        W46387  23.512  10.343  14.482
74095W        W46388   2.372  14.732   3.745
74096W        W46389  43.903  34.456   4.342
74097W        W46390  33.469  44.334   2.258
74098W        W46391  38.502   7.822   1.739
74099W        W46392  12.843  32.448  13.513
74100W        W46393   4.895  32.113   1.877
74101W        W46394  32.425  41.832   0.957
74102W        W46395  24.166  31.547  12.827
74103W        W46396  35.376  35.444  11.514
74104W        W46397  41.308  34.095  13.932
74105W        W46398  21.535  25.035  12.898
74106W        W46399   3.786  25.012   1.856
74107W        W46400   9.394  35.447   4.267
74108W        W46401  40.862  24.629   0.953
74109W        W46402  10.768  29.455  14.787
74110W        W46403  21.074   8.315  12.477
74111W        W46404   6.676  29.553   4.187
74112W        W46405  35.978  28.516  12.890
74113W        W46406  42.338  11.303  13.512
74114W        W46407   3.286   4.348   1.721
74115W        W46408  41.363  23.227   1.809
74116W        W46409  31.491  10.227  11.486
74117W        W46410  43.987   2.912   4.219
74118W        W46411  21.587   9.832   1.346
74119W        W46412  42.814  23.560   1.341
74120W        W46413  31.063  25.018  12.885
74121W        W46414  31.569  24.073  13.843
74122W        W46415  15.822  19.675  12.485
74123W        W46416   5.903  26.114   0.912
74124W        W46417  11.835  30.970  10.971
74125W        W46418   8.737  35.002   0.897
74126W        W46419  36.548  28.977   4.684
74127W        W46420  10.172  27.561  14.303
74128W        W46421   8.192  35.014  12.885
74129W        W46422  29.435   3.396   4.622
74130W        W46423  43.936  36.939   1.247
74131W        W46424  18.774  26.195   0.298
74132W        W46425  10.672   7.225  13.050
74133W        W46426  20.686  34.057   1.366
74134W        W46427  21.048  12.226  10.411
74135W        W46428  37.478  28.124   2.876
74136W        W46429  36.861  38.490   0.872
74137W        W46430  21.690   3.776  12.833
74138W        W46431  41.434  12.732  10.954
74139W        W46432  32.520  35.975   4.169
74140W        W46433  31.486  20.212  12.975
74141W        W46434  24.028  32.402  13.896
74142W        W46435  29.544  41.041   4.716
74143W        W46436  32.556  37.498  10.957
74144W        W46437   1.755   4.787   3.667
74145W        W46438  20.576  24.051   2.267
74146W        W46439  36.369  12.826  11.543
74147W        W46440  29.507  33.478   0.950
74148W        W46441  42.899  19.594  14.298
74149W        W46442  41.961  36.046  12.989
74150W        W46443  36.043  16.288   0.784
74151W        W46444  34.004  40.406  11.911
74152W        W46445  24.710   8.355  12.514
74153W        W46446  42.951  31.151  14.848
74154W        W46447  20.218  41.346   3.158
74155W        W46448   6.707   1.419  14.961
74156W        W46449  16.276   0.986  14.930
74157W        W46450  22.153  17.096  14.799
74158W        W46451  24.114  18.160  13.000
74159W        W46452   9.308  35.012  11.382
74160W        W46453  16.591  38.889   1.761
74161W        W46454   4.776  10.863   4.277
74162W        W46455  18.774  12.193   1.853
74163W        W46456  17.123  28.515   4.286
74164W        W46457   5.382  22.184  10.462
74165W        W46458  23.007  18.165  12.549
74166W        W46459  13.294  22.151  13.357
74167W        W46460  41.912   5.877  13.420
74168W        W46461  27.499  35.064  14.782
74169W        W46462   3.800  10.244   4.658
74170W        W46463  22.521  10.865   0.467
74171W        W46464  43.936  10.687   4.824
74172W        W46465  28.506  29.617   2.348
74173W        W46466  41.323  44.447  14.828
74174W        W46467  16.566  28.998  10.909
74175W        W46468  20.233  32.109   0.860
74176W        W46469  28.060   4.844  10.518
74177W        W46470  42.960  33.391  14.458
74178W        W46471  30.554   0.952  14.478
74179W        W46472  44.286  25.031  10.906
74180W        W46473  29.494  23.222   1.705
74181W        W46474  18.739  14.823   2.823
74182W        W46475  32.929  33.581   2.279
74183W        W46476   6.402   1.317   0.755
74184W        W46477   3.429  36.960  14.373
74185W        W46478  21.562  37.438  13.414
74186W        W46479  40.410  30.600  13.419
74187W        W46480  34.416  28.001  12.374
74188W        W46481   2.408  13.732  11.583
74189W        W46482  12.695  27.599   0.741
74190W        W46483   7.806  37.338  14.489
74191W        W46484  25.110   3.385  13.356
74192W        W46485  43.503  19.605  14.346
74193W        W46486  20.527  10.230  13.474
74194W        W46487  36.972  23.697  14.484
74195W        W46488  17.094   6.841   2.766
74196W        W46489  23.588  15.725  11.031
74197W        W46490   2.885   7.779  14.931
74198W        W46491  33.004   0.900  12.038
74199W        W46492  26.518   8.223  10.986
74200W        W46493  28.528  19.713  14.834
74201W        W46494  14.719   1.409   4.782
74202W        W46495  14.623  27.626   0.736
74203W        W46496  27.098  14.802   2.787
74204W        W46497   7.739  16.582   2.182
74205W        W46498  25.517  38.826   3.822
74206W        W46499  27.512  36.521   0.319
74207W        W46500  21.633  38.347   0.479
74208W        W46501  43.840  11.810   1.730
74209W        W46502  20.193  13.766   4.706
74210W        W46503  32.426  12.183  13.942
74211W        W46504  30.529  36.881  10.916
74212W        W46505   5.715  36.922   2.330
74213W        W46506  42.458  15.626  13.063
74214W        W46507   9.787  24.631  13.401
74215W        W46508   4.438   5.904   3.749
74216W        W46509  25.117   0.403   0.888
74217W        W46510  14.135  41.353   1.428
74218W        W46511  27.965  16.208  14.351
74219W        W46512  44.983  36.073   0.278
74220W        W46513  26.022  31.533  13.821
74221W        W46514  36.536  37.577  10.967
74222W        W46515  32.481  42.851  11.129
74223W        W46516  27.149  21.151  11.552
74224W        W46517  15.730  20.030  13.336
74225W        W46518  19.615  23.522   4.749
74226W        W46519  13.630   1.804   5.699
74227W        W46520   4.808  30.933  11.979
74228W        W46521   6.770  43.489   3.191
74229W        W46522  25.692  26.680   3.792
74230W        W46523  21.113  10.170  12.054
74231W        W46524  12.685  25.601   4.351
74232W        W46525  11.311  16.687  13.403
74233W        W46526  20.203  33.430   5.322
74234W        W46527  41.385   1.315   0.823
74235W        W46528   4.377  29.557   4.150
74236W        W46529  12.617  30.427  10.575
74237W        W46530  11.714  18.073  13.834
74238W        W46531  44.322  10.265   3.759
74239W        W46532   6.766   2.409  14.830
74240W        W46533  14.722  33.582   0.476
74241W        W46534   1.431   7.288   0.761
74242W        W46535  12.704  18.786  13.934
74243W        W46536  13.245   8.745   3.178
74244W        W46537   8.367  11.271  10.902
74245W        W46538  21.695  21.691   3.332
74246W        W46539  26.969  36.900   2.877
74247W        W46540   8.866  35.105  14.958
74248W        W46541  22.608  16.597  14.500
74249W        W46542  19.198  41.889  11.400
74250W        W46543  40.345  30.463  11.506
74251W        W46544  10.333  38.550  13.470
74252W        W46545  42.459   1.248  14.928
74253W        W46546  10.306  27.047  12.347
74254W        W46547   1.377  36.082  10.607
74255W        W46548   2.726   7.667  11.536
74256W        W46549  16.212  26.010  13.309
74257W        W46550  18.223  35.103  12.413
74258W        W46551  16.207  24.083  12.052
74259W        W46552  37.342  40.861   1.438
74260W        W46553  34.936   9.699   3.242
74261W        W46554  18.226   1.322   2.747
74262W        W46555  20.072  14.105   2.770
74263W        W46556   9.699   6.780  11.376
74264W        W46557  20.063  34.053   2.694
74265W        W46558   6.694   8.811   1.821
74266W        W46559  39.045  11.663   4.756
74267W        W46560  42.405  23.635  12.910
74268W        W46561   3.349  26.126   3.728
74269W        W46562   8.202  12.324  12.874
74270W        W46563  37.368  35.425   3.353
74271W        W46564  14.222  19.192  14.768
74272W        W46565  19.614  40.409   3.269
74273W        W46566  19.616  26.165   2.366
74274W        W46567  44.305  13.761   0.814
74275W        W46568  13.785  27.664  11.580
74276W        W46569  26.686  30.065  12.525
74277W        W46570  17.307   2.455  12.500
74278W        W46571  15.803  12.238  14.322
74279W        W46572   7.407  40.925  12.455
74280W        W46573  16.097   2.889   2.741
74281W        W46574  36.918  39.443  14.367
74282W        W46575  16.297   6.297  12.859
74283W        W46576  40.866  34.102  13.356
74284W        W46577  23.156   5.799  10.948
74285W        W46578  15.259  16.182  12.439
74286W        W46579   5.364  25.588  13.835
74287W        W46580  20.195   4.718  10.513
74288W        W46581   8.691  25.536  14.515
74289W        W46582  17.284  28.968  14.336
74290W        W46583  23.176  11.133   0.777
74291W        W46584  24.010  35.860   3.704
74292W        W46585  36.886  28.438   1.430
74293W        W46586  24.161  17.269   2.204
74294W        W46587  41.967  20.102  12.499
74295W        W46588  37.400  39.332  11.964
74296W        W46589   2.828  36.559   0.823
74297W        W46590  32.008  11.719   3.649
74298W        W46591   6.408  22.657   3.740
74299W        W46592  35.531  39.539  13.441
74300W        W46593  11.277  28.617   1.228
74301W        W46594  12.695  36.438  11.913
74302W        W46595  15.796  19.703  12.968
74303W        W46596  27.679  39.485   0.349
74304W        W46597  29.647  26.470   0.948
74305W        W46598  38.537  22.031  10.537
74306W        W46599  18.291  17.669   1.288
74307W        W46600  32.937  18.170  13.523
74308W        W46601   0.978   6.293  13.846
74309W        W46602  25.545   2.422   2.204
74310W        W46603  42.791  18.131   5.177
74311W        W46604  40.497   3.745  11.951
74312W        W46605   2.859  25.599   1.855
74313W        W46606   6.239  15.266  12.351
74314W        W46607  29.138  34.928   0.352
74315W        W46608   8.711   7.243   2.706
74316W        W46609  10.302  40.416   1.414
74317W        W46610  35.463  35.435  12.921
74318W        W46611  19.215  34.957  10.557
74319W        W46612   2.315  21.647   1.270
74320W        W46613  11.646   1.319  12.373
74321W        W46614   5.348  26.043   1.436
74322W        W46615   4.852  32.909  11.007
74323W        W46616   4.248  13.122   1.853
74324W        W46617  22.685  27.130  13.043
74325W        W46618  36.385  35.497   2.865
74326W        W46619  20.152  41.804   0.458
74327W        W46620  41.346   7.178   0.818
74328W        W46621  14.778  24.654   3.183
74329W        W46622  12.673  15.220   1.248
74330W        W46623  15.669  27.683  14.029
74331W        W46624   3.453  22.560   1.402
74332W        W46625  44.894  35.946   3.653
74333W        W46626  21.032   7.741   1.785
74334W        W46627  29.566  33.558   4.761
74335W        W46628  20.655   9.253  12.426
74336W        W46629   1.889  30.487  13.035
74337W        W46630  11.673   2.349  13.871
74338W        W46631  13.160  20.232  11.579
74339W        W46632  10.769  21.236  11.002
74340W        W46633   0.410  10.265  14.979
74341W        W46634  21.704   9.226  12.861
74342W        W46635  24.978  34.095  10.947
74343W        W46636  33.596  26.162   4.326
74344W        W46637  19.240  10.786  12.919
74345W        W46638  23.721  19.104   0.829
74346W        W46639   0.757  19.674   3.759
74347W        W46640  16.114  10.841   4.316
74348W        W46641  22.533  32.552  13.030
74349W        W46642   2.389  31.118  12.466
74350W        W46643  19.159  26.522  12.574
74351W        W46644  26.518   3.924   4.231
74352W        W46645  33.550   1.353  14.388
74353W        W46646  27.502  13.144  13.838
74354W        W46647  32.454  32.573   1.724
74355W        W46648  26.993  18.656   4.191
74356W        W46649  25.559   5.340   3.196
74357W        W46650  39.519  38.991   9.982
74358W        W46651   4.812  42.384  10.486
74359W        W46652  30.634  33.511  13.378
74360W        W46653  12.731   2.367  12.558
74361W        W46654  42.352  20.159   5.223
74362W        W46655  33.128  33.583   4.163
74363W        W46656  40.314  42.414   2.780
74364W        W46657  17.664  41.321  13.932
74365W        W46658   7.840  15.667   3.151
74366W        W46659  44.500  24.662   4.223
74367W        W46660  35.378  33.421   2.291
74368W        W46661  12.688  38.494  11.564
74369W        W46662   9.722  40.388  10.494
74370W        W46663  34.456  40.396  11.384
74371W        W46664   1.899  23.193   3.350
74372W        W46665  25.096  15.243   2.244
74373W        W46666  44.920   3.234   1.817
74374W        W46667  26.489  42.858  11.109
74375W        W46668  41.822  23.599   1.438
74376W        W46669  34.055   7.671  11.911
74377W        W46670   2.232  42.029  14.030
74378W        W46671  31.469  14.179  13.477
74379W        W46672  42.318  40.328   4.205
74380W        W46673  12.668  22.184  14.410
74381W        W46674   1.734  26.189  12.864
74382W        W46675  36.429  39.419  14.863
74383W        W46676  16.229  18.754   3.242
74384W        W46677   5.875  44.260  14.014
74385W        W46678  22.014  33.903  10.423
74386W        W46679   7.775   7.912   3.371
74387W        W46680  17.631  20.646   5.640
74388W        W46681   0.743  44.336   4.694
74389W        W46682  20.157  36.435  13.507
74390W        W46683  27.159  39.032   0.935
74391W        W46684  26.498   0.983  14.441
74392W        W46685  42.975  13.219  13.329
74393W        W46686  32.498   2.721   0.793
74394W        W46687  25.971  29.432   4.131
74395W        W46688   2.891   2.392   4.763
74396W        W46689  44.433  37.486   9.940
74397W        W46690  20.153  25.181  14.506
74398W        W46691  29.598  38.474  13.839
74399W        W46692  22.522  35.076  14.355
74400W        W46693  33.936  35.981   1.428
74401W        W46694   3.286   8.185   0.402
74402W        W46695  39.916  33.037   1.341
74403W        W46696  14.326  26.476  14.915
74404W        W46697  39.875  32.942   1.816
74405W        W46698  32.967  37.991   2.681
74406W        W46699   5.403  24.050  14.801
74407W        W46700  41.323  13.641   1.380
74408W        W46701  33.932  12.613  14.461
74409W        W46702  35.510  36.369  11.588
74410W        W46703   8.813  26.000  12.371
74411W        W46704  26.586  43.283  11.074
74412W        W46705  26.159  24.605   2.803
74413W        W46706  28.553  35.954   1.284
74414W        W46707  10.878  23.623   1.698
74415W        W46708   3.939  29.019  13.045
74416W        W46709  34.613  27.090  10.555
74417W        W46710  37.918  10.372  11.444
74418W        W46711  17.116  38.901  12.392
74419W        W46712  44.780  36.059  13.388
74420W        W46713  13.244   5.845   2.894
74421W        W46714  40.904  28.019  12.479
74422W        W46715   8.227   4.400  11.574
74423W        W46716   6.311  39.001   0.757
74424W        W46717  26.666   0.475   0.908
74425W        W46718   7.328   8.686  14.330
74426W        W46719  16.165  31.510  11.472
74427W        W46720  34.414  22.191  14.385
74428W        W46721  16.274  20.145   2.202
74429W        W46722  38.552  15.092   4.818
74430W        W46723   7.294  17.267  14.986
74431W        W46724  34.892  35.044   3.368
74432W        W46725  16.189  21.204  11.462
74433W        W46726  13.342  31.147  10.489
74434W        W46727  18.709  17.067   1.910
74435W        W46728   9.709   8.761   4.155
74436W        W46729  37.537   8.732   3.322
74437W        W46730  23.515   1.311   4.727
74438W        W46731  13.686  11.178  11.428
74439W        W46732  10.306   7.685   4.298
74440W        W46733  30.098  20.544  14.823
74441W        W46734  13.633  41.014  12.895
74442W        W46735  43.422  13.282   1.809
74443W        W46736  27.654  32.133  12.438
74444W        W46737  32.465  17.251   1.744
74445W        W46738  23.513  43.489   3.286
74446W        W46739  18.278  18.609   2.709
74447W        W46740  41.790  33.614  13.454
74448W        W46741   2.465  44.382   4.626
74449W        W46742  17.639   7.737  14.464
74450W        W46743  42.889  42.796   1.330
74451W        W46744  14.143   5.253   9.524
74452W        W46745  44.330  16.794  11.104
74453W        W46746  27.196  43.414   3.221
74454W        W46747  39.051  37.923   4.742
74455W        W46748  24.037  43.297  13.456
74456W        W46749  10.863  41.966   3.190
74457W        W46750  26.197  22.657  13.903
74458W        W46751  20.535   8.195   4.132
74459W        W46752  11.163   8.392  13.491
74460W        W46753  20.705  38.422  11.451
74461W        W46754  15.127  39.915  11.873
74462W        W46755  38.538   0.404  11.894
74463W        W46756  15.787   2.920  14.858
74464W        W46757  17.184  33.084  14.351
74465W        W46758   4.832  19.212  13.452
74466W        W46759  18.668  17.738   4.822
74467W        W46760  40.916  30.125   0.965
74468W        W46761  19.579  25.085  11.033
74469W        W46762  11.803  22.144  14.975
74470W        W46763  41.933  14.756   0.930
74471W        W46764   0.960  16.580  13.795
74472W        W46765   8.386  24.535  13.051
74473W        W46766   4.920  36.866  14.457
74474W        W46767  35.075  27.587  11.372
74475W        W46768  34.948  41.814   4.319
74476W        W46769  11.135  18.778   1.442
74477W        W46770  25.976  13.670   1.405
74478W        W46771  27.543  26.457   3.698
74479W        W46772  14.609  38.535   0.336
74480W        W46773  37.468   1.975  13.007
74481W        W46774  31.537  15.636  13.899
74482W        W46775  43.363  12.800  13.506
74483W        W46776  35.467  39.947   3.292
74484W        W46777  21.514  14.640  10.978
74485W        W46778  22.693   9.654   1.264
74486W        W46779  32.605  39.345  12.058
74487W        W46780   1.314  32.080   4.309
74488W        W46781  34.564  41.008   2.184
74489W        W46782  42.454  12.204  12.523
74490W        W46783  36.070  20.147  11.417
74491W        W46784  30.970  24.221   1.372
74492W        W46785  25.502   7.239  13.367
74493W        W46786  28.445  36.475   3.821
74494W        W46787   2.359   0.425   3.840
74495W        W46788   7.351  27.528   4.335
74496W        W46789  16.209  35.882   2.885
74497W        W46790  20.241   9.759  12.482
74498W        W46791  14.300  35.974  14.762
74499W        W46792  11.830   2.951   3.382
74500W        W46793  20.645  25.570  12.400
74501W        W46794  23.072  27.084  12.567
74502W        W46795  40.459   7.844   3.240
74503W        W46796  41.505  35.034   1.320
74504W        W46797  20.704  21.634   0.936
74505W        W46798  26.498  16.596   4.224
74506W        W46799   2.333  18.646  11.861
74507W        W46800   9.291   1.432   2.396
74508W        W46801  32.960  21.051   1.752
74509W        W46802  42.342  23.111   3.372
74510W        W46803  41.428   0.799   2.247
74511W        W46804  23.128  38.858  14.486
74512W        W46805  11.274  22.548  12.014
74513W        W46806   0.257  34.436   1.824
74514W        W46807  44.841  44.992   2.710
74515W        W46808   8.800  43.381   0.289
74516W        W46809   2.467  40.372  13.517
74517W        W46810  10.221  40.910  12.953
74518W        W46811  36.974   0.794   1.217
74519W        W46812  36.982  16.312  10.452
74520W        W46813  28.498  14.149   2.253
74521W        W46814  28.100  20.118   3.370
74522W        W46815  42.311  39.014  13.526
74523W        W46816  29.571  24.685  11.066
74524W        W46817   2.846  37.838  12.478
74525W        W46818  25.622  18.248   0.736
74526W        W46819   6.914  43.851   4.214
74527W        W46820  35.499  23.653  11.004
74528W        W46821  36.850  36.087   1.787
74529W        W46822   4.283  21.579   1.762
74530W        W46823   5.730  22.015  12.871
74531W        W46824  24.510  26.703   3.285
74532W        W46825  28.964  31.048  12.417
74533W        W46826  26.143  25.599   0.743
74534W        W46827  17.203  20.268  11.945
74535W        W46828   2.292  25.184  14.909
74536W        W46829   8.302   3.856  11.395
74537W        W46830  29.034  17.701   1.810
74538W        W46831  21.674  24.019   3.632
74539W        W46832  32.099  13.651   4.826
74540W        W46833  26.005  16.680  10.973
74541W        W46834  34.107  38.062   1.233
74542W        W46835  18.783  16.734   3.783
74543W        W46836   3.346  42.523   3.322
74544W        W46837   2.846  16.170  14.447
74545W        W46838  44.359  37.481  13.495
74546W        W46839  21.174  21.631   2.903
74547W        W46840  15.321   7.354   1.372
74548W        W46841  39.016  32.071  13.439
74549W        W46842  24.217  33.433   2.360
74550W        W46843  37.016  14.330   3.769
74551W        W46844   4.738  42.365  10.981
74552W        W46845  11.798  37.397  12.445
74553W        W46846  32.501   9.859   0.861
74554W        W46847  31.016  36.393  12.900
74555W        W46848  41.842  28.145  12.510
74556W        W46849  36.360  26.605   3.337
74557W        W46850  40.407  43.442   1.331
74558W        W46851   5.397  34.385   1.895
74559W        W46852  41.409  18.184   3.334
74560W        W46853  24.610   3.892  13.887
74561W        W46854  13.782   5.695  12.542
74562W        W46855  27.589  33.593  13.006
74563W        W46856  16.585   3.225  11.982
74564W        W46857   5.261  13.671  12.926
74565W        W46858  16.641  28.061   4.788
74566W        W46859  34.951  38.926  14.398
74567W        W46860  18.058   2.324   4.803
74568W        W46861  38.897  13.289  13.374
74569W        W46862  28.579  26.141  11.125
74570W        W46863  37.081  29.963   2.837
74571W        W46864  12.762   1.856   0.877
74572W        W46865  27.488  13.209   3.680
74573W        W46866  32.030  10.345  12.457
74574W        W46867  41.813  44.757   1.775
74575W        W46868  16.308   4.313   4.751
74576W        W46869  43.792  20.124   2.184
74577W        W46870  42.800   5.273   0.827
74578W        W46871  24.661  20.656  10.944
74579W        W46872  29.625   8.357  12.912
74580W        W46873  11.347  13.603  13.891
74581W        W46874  23.018   2.431  10.452
74582W        W46875   1.791  16.654  11.924
74583W        W46876  44.408  32.006   3.373
74584W        W46877  23.585  40.327   3.633
74585W        W46878  24.535  10.783  12.402
74586W        W46879  29.498   0.287   2.378
74587W        W46880  24.615  37.002  14.898
74588W        W46881  26.174  21.710  10.410
74589W        W46882  15.719  17.687   0.937
74590W        W46883  28.516  34.524  14.939
74591W        W46884  29.953  17.127   1.245
74592W        W46885  36.908  10.263  14.017
74593W        W46886  28.981  21.049  11.423
74594W        W46887  25.121   7.672  13.982
74595W        W46888   9.822  22.218   2.759
74596W        W46889  11.714  20.692  10.987
74597W        W46890  30.525   7.725  14.833
74598W        W46891   6.384  22.245   1.322
74599W        W46892  41.862  21.547   4.832
74600W        W46893  27.992  35.052  11.399
74601W        W46894   8.395   3.397   2.713
74602W        W46895   0.956  19.735  10.095
74603W        W46896   1.263  36.021   2.329
74604W        W46897  18.259  15.224   2.293
74605W        W46898  30.981  21.082   9.953
74606W        W46899   0.835  40.430   2.755
74607W        W46900  42.028  29.535  14.368
74608W        W46901  10.861  32.001  13.399
74609W        W46902  15.770  36.473   4.340
74610W        W46903  12.710  11.632  14.789
74611W        W46904  34.369  28.165   3.161
74612W        W46905  26.694  23.036   1.447
74613W        W46906  42.365  20.603   1.372
74614W        W46907   9.807  24.218   0.799
74615W        W46908  34.429  39.012  12.568
74616W        W46909  17.664  27.010  14.391
74617W        W46910  36.571  29.433   0.901
74618W        W46911  41.865  39.341  11.033
74619W        W46912  16.226  25.480  10.582
74620W        W46913  23.048  24.721   2.373
74621W        W46914  19.743   9.243  11.384
74622W        W46915  14.674  17.195  12.852
74623W        W46916  15.655  33.125   2.385
74624W        W46917  12.166  18.122  10.606
74625W        W46918  42.993  37.460   3.759
74626W        W46919  33.562  39.383  14.386
74627W        W46920  30.949  35.979  10.523
74628W        W46921  24.531  38.349  12.361
74629W        W46922  20.075   9.376   1.837
74630W        W46923  41.978  44.435   2.347
74631W        W46924  31.462  32.617   0.340
74632W        W46925  19.078  29.067   3.254
74633W        W46926  30.497  36.947   3.754
74634W        W46927  36.861  14.808  12.828
74635W        W46928  36.037  18.737   4.278
74636W        W46929  22.194  11.165   0.882
74637W        W46930   0.381   1.462  14.814
74638W        W46931  22.031  33.985  12.848
74639W        W46932   2.879  41.829  14.031
74640W        W46933  16.765  29.636  14.975
74641W        W46934  28.516  38.873  10.453
74642W        W46935  43.398   9.686  12.563
74643W        W46936  30.633  41.989   5.226
74644W        W46937   1.383  40.032  12.366
74645W        W46938  28.155   7.770   3.697
74646W        W46939  10.844  33.420  13.793
74647W        W46940   2.287  23.084  13.435
74648W        W46941  13.284  24.100   1.292
74649W        W46942  37.535  41.920   0.793
74650W        W46943   8.739  36.481  10.047
74651W        W46944  16.608  11.257   3.767
74652W        W46945  36.479  24.708   4.679
74653W        W46946  29.984  39.466  12.878
74654W        W46947   2.882   1.249  12.088
74655W        W46948   1.786  31.916   3.814
74656W        W46949   6.888  21.702   0.962
74657W        W46950   1.805   8.201  14.975
74658W        W46951  41.993   3.913  12.016
74659W        W46952  13.163   7.707   0.915
74660W        W46953  36.421   3.944   0.328
74661W        W46954  10.755  29.613   1.810
74662W        W46955  30.925  16.575   4.227
74663W        W46956   3.229  34.615  11.612
74664W        W46957   2.852   0.303   4.765
74665W        W46958  21.700   2.737   4.732
74666W        W46959  13.702  12.730   2.390
74667W        W46960   9.181  11.257   4.673
74668W        W46961  20.060  44.294   1.805
74669W        W46962   4.870  35.967   3.244
74670W        W46963  35.947  29.452   2.871
74671W        W46964  33.575  36.411   2.825
74672W        W46965  10.832  37.336  12.345
74673W        W46966  37.975  15.182  10.574
74674W        W46967  27.639  39.900   3.216
74675W        W46968  22.204   1.817   3.377
74676W        W46969   8.724   9.864   4.246
74677W        W46970  22.217   2.281  11.083
74678W        W46971  12.289   2.753   1.323
74679W        W46972  38.447  15.263   0.829
74680W        W46973  28.611  23.653  10.097
74681W        W46974  40.321  25.657   4.806
74682W        W46975   0.911  10.878   4.297
74683W        W46976  39.899  14.198  12.925
74684W        W46977  11.323  12.718   4.331
74685W        W46978  23.652  35.061  13.353
74686W        W46979  22.206  39.503   2.694
74687W        W46980  17.292  30.518  14.856
74688W        W46981  32.047   4.769  10.978
74689W        W46982  14.158  24.556   2.890
74690W        W46983  11.837  25.126   2.681
74691W        W46984  44.978  25.133  12.982
74692W        W46985  30.967  38.845  14.015
74693W        W46986  12.731  13.189  11.403
74694W        W46987   7.802  36.907   4.184
74695W        W46988  22.223  19.206  13.870
74696W        W46989  13.183  12.848   2.680
74697W        W46990  23.540  22.583  11.373
74698W        W46991  29.004  34.487   4.127
74699W        W46992   0.755  18.193  12.386
74700W        W46993   8.308  39.950  11.534
74701W        W46994  37.064  17.649   3.658
74702W        W46995  15.622  35.460   3.852
74703W        W46996  11.833  12.143   0.279
74704W        W46997  12.253   7.378   0.777
74705W        W46998  43.409  41.897   0.388
74706W        W46999  18.786  15.794   4.706
74707W        W47000   7.320  17.258   2.289
74708W        W47001   4.226  38.488   4.210
74709W        W47002  28.957  25.600  11.517
74710W        W47003  20.138  37.983   4.336
74711W        W47004   3.381  36.954  12.486
74712W        W47005  39.866  42.497  14.492
74713W        W47006  34.572  25.157  13.487
74714W        W47007  16.685   2.391  11.428
74715W        W47008  44.316   3.241  12.558
74716W        W47009  21.062  35.386  13.510
74717W        W47010  12.620  20.680   1.850
74718W        W47011  19.542  25.588  11.983
74719W        W47012  20.095  39.813   3.734
74720W        W47013  40.537  42.016  13.337
74721W        W47014  23.022  12.827   3.369
74722W        W47015  17.109   5.736   3.701
74723W        W47016  44.264  17.082  11.968
74724W        W47017  15.682   1.418  12.346
74725W        W47018  40.850   7.705  14.329
74726W        W47019  22.541  44.797  12.033
74727W        W47020  17.758  36.888  13.885
74728W        W47021  22.190  34.615   3.846
74729W        W47022  29.454  10.213   3.346
74730W        W47023  32.959   6.730   1.354
74731W        W47024  26.154  23.123  10.111
74732W        W47025  26.700   7.219  14.298
74733W        W47026   6.249  17.278   0.933
74734W        W47027  32.987  27.037   2.836
74735W        W47028  37.506   9.386   0.914
74736W        W47029  38.559  42.511   2.254
74737W        W47030  24.141   1.376   2.278
74738W        W47031  15.308  40.306  11.405
74739W        W47032   6.915   3.267  14.019
74740W        W47033  20.708  10.245  14.381
74741W        W47034  10.737  25.641  10.917
74742W        W47035   3.795  19.597  13.465
74743W        W47036  42.287  38.845  11.499
74744W        W47037  40.543  24.537  12.895
74745W        W47038  28.968  18.238  14.476
74746W        W47039  38.828   0.253   3.334
74747W        W47040  37.041  11.798  14.855
74748W        W47041   8.716  22.199  13.341
74749W        W47042  18.294  31.587  11.524
74750W        W47043  15.795  23.081  14.316
74751W        W47044  40.412  27.956  12.523
74752W        W47045   0.821  14.181  12.926
74753W        W47046  29.125  34.093   2.847
74754W        W47047  33.481  23.735  11.870
74755W        W47048   9.696  43.431   4.742
74756W        W47049  22.544  18.770  13.449
74757W        W47050   8.367  36.535   4.338
74758W        W47051   8.896  18.780  12.046
74759W        W47052  24.176  28.459  13.013
74760W        W47053  13.177  13.784  11.611
74761W        W47054   9.838   2.330  11.078
74762W        W47055  14.227  44.363   2.758
74763W        W47056  44.873  30.974  10.939
74764W        W47057   3.414  17.650  13.414
74765W        W47058  14.177  19.146  10.967
74766W        W47059   1.382   6.358   1.252
74767W        W47060  27.624  43.922  11.979
74768W        W47061  23.193  42.498   2.351
74769W        W47062  42.953   7.387  14.378
74770W        W47063  38.061  36.556   2.278
74771W        W47064  44.010  43.499   3.764
74772W        W47065  18.561  20.675  13.442
74773W        W47066  14.610  37.834  11.593
74774W        W47067   8.334  26.123   0.856
74775W        W47068  25.145  37.052   3.202
74776W        W47069  37.363  20.143  10.458
74777W        W47070  29.596  26.579   1.818
74778W        W47071  38.836  38.337   3.757
74779W        W47072  31.611  23.676  12.906
74780W        W47073  15.301   9.883  12.409
74781W        W47074  43.444  13.798  13.444
74782W        W47075  15.229   2.819  12.093
74783W        W47076  21.118  17.646   0.249
74784W        W47077  15.188  14.333   0.474
74785W        W47078  32.593   5.777   0.808
74786W        W47079   6.837  43.303  13.945
74787W        W47080   5.710   4.773  11.609
74788W        W47081  14.113  26.176  10.160
74789W        W47082  41.898  32.086  12.429
74790W        W47083  28.963  32.505   0.875
74791W        W47084  13.281  17.664   0.839
74792W        W47085   0.771  36.045   5.712
74793W        W47086  41.839  43.478   4.161
74794W        W47087  12.761  36.059  12.888
74795W        W47088  12.756   6.229   4.779
74796W        W47089   8.822  11.798   0.758
74797W        W47090  14.661  28.614  13.836
74798W        W47091  33.975  17.756   4.268
74799W        W47092  16.163  17.761   1.823
74800W        W47093  27.563  15.610  11.435
74801W        W47094  35.016  19.767  14.937
74802W        W47095  12.258  14.146   1.308
74803W        W47096   0.356  34.869   3.800
74804W        W47097  14.766  22.182   0.351
74805W        W47098  16.203  18.723   1.758
74806W        W47099  42.988  32.522   1.380
74807W        W47100  30.132  35.860  11.520
74808W        W47101   5.747   5.911  12.058
74809W        W47102  31.926  15.219  10.916
74810W        W47103   4.407  31.967  11.086
74811W        W47104   4.356  32.451  12.085
74812W        W47105  26.194   2.748   4.306
74813W        W47106   6.359  10.663  12.956
74814W        W47107  30.130  33.473   4.798
74815W        W47108   6.855  34.890  11.584
74816W        W47109  21.620  39.502   3.798
74817W        W47110  27.481  12.326  12.890
74818W        W47111  13.806   0.921   0.478
74819W        W47112  25.115   3.735  13.457
74820W        W47113  37.394  44.327   1.268
74821W        W47114  35.523  24.214   2.744
74822W        W47115   6.696  29.979  12.445
74823W        W47116  27.146  32.523  12.555
74824W        W47117   8.369  10.382   3.863
74825W        W47118  16.167  10.172   1.280
74826W        W47119   6.230  29.575  13.501
74827W        W47120  44.329  33.500  12.386
74828W        W47121  10.275  24.612  14.955
74829W        W47122  15.095  25.679  12.923
74830W        W47123   8.400  13.759   0.413
74831W        W47124  38.330  33.903   3.332
74832W        W47125   9.367  23.501   1.316
74833W        W47126  39.969  12.301   2.765
74834W        W47127  25.132   5.271  11.986
74835W        W47128  35.033  13.605   4.789
74836W        W47129  37.575  43.295  12.032
74837W        W47130   6.766   3.265   0.919
74838W        W47131  34.074  14.617   0.365
74839W        W47132  22.618  19.236  10.901
74840W        W47133  20.642  11.321   3.367
74841W        W47134  29.629  38.396   3.219
74842W        W47135   0.936   5.436  13.503
74843W        W47136  25.492  32.007  13.490
74844W        W47137  28.171  17.655  10.619
74845W        W47138   3.733  13.235  13.323
74846W        W47139  38.906  10.838  12.486
74847W        W47140  16.274  19.067  12.486
74848W        W47141  44.387  18.167   1.404
74849W        W47142  18.645   8.785  11.465
74850W        W47143   8.293  39.426   4.724
74851W        W47144  37.041  33.899   0.446
74852W        W47145  12.162  34.504   3.784
74853W        W47146  29.556  38.954  11.579
74854W        W47147   8.252   9.178  10.641
74855W        W47148  27.614  24.127   1.237
74856W        W47149  28.616   9.159   3.755
74857W        W47150   1.812  28.587   1.908
74858W        W47151   5.702  32.006   4.198
74859W        W47152  41.452  29.532  13.958
74860W        W47153  22.202  16.731  12.849
74861W        W47154  42.970  22.599  12.872
74862W        W47155   6.318   1.366  13.500
74863W        W47156  43.316  35.862   0.366
74864W        W47157  11.333   5.345  13.508
74865W        W47158   3.265  34.377   4.804
74866W        W47159  10.713  10.249  11.957
74867W        W47160  35.478  31.466   3.333
74868W        W47161   9.379   6.763   3.340
74869W        W47162   4.789  41.526   1.215
74870W        W47163  31.977   9.224   2.380
74871W        W47164  25.663  15.740   0.272
74872W        W47165  22.602  19.618  12.826
74873W        W47166   3.802  34.023   3.155
74874W        W47167  39.335   4.339   4.154
74875W        W47168  43.439  11.649  12.535
74876W        W47169  34.419  15.642  11.960
74877W        W47170   6.199  25.571   3.154
74878W        W47171   4.717  20.653   2.850
74879W        W47172  40.865  43.860  10.503
74880W        W47173  35.451  22.248  14.371
74881W        W47174  19.243  29.537  11.073
74882W        W47175  44.316  22.074   4.808
74883W        W47176  13.677   2.929   4.196
74884W        W47177  24.043  25.096   0.795
74885W        W47178   4.313  28.579  12.427
74886W        W47179  19.206  31.499  14.445
74887W        W47180  32.626  41.397   0.392
74888W        W47181   9.302   7.277   1.773
74889W        W47182  14.336  22.160  10.459
74890W        W47183  22.673  18.102   0.841
74891W        W47184  38.917  23.153  11.587
74892W        W47185  19.768  39.424  13.847
74893W        W47186  40.467  11.816  14.447
74894W        W47187  19.175  16.689  11.047
74895W        W47188   9.723   6.202   1.231
74896W        W47189  41.877  28.651   2.726
74897W        W47190   3.377  20.696  11.418
74898W        W47191  23.609  44.858   2.189
74899W        W47192  31.026  43.857  14.842
74900W        W47193   8.294   8.256  12.020
74901W        W47194  33.614  43.887  10.512
74902W        W47195  36.393   2.751   3.293
74903W        W47196  42.456  42.859  12.952
74904W        W47197  38.949  13.187   3.731
74905W        W47198  28.614  20.257   1.922
74906W        W47199  21.558   3.815   3.860
74907W        W47200   3.819  26.519   0.365
74908W        W47201   8.716   0.351  12.561
74909W        W47202   4.736   3.239  10.971
74910W        W47203  44.317  29.989  11.919
74911W        W47204   6.265  31.529  11.095
74912W        W47205  40.005  22.561  12.504
74913W        W47206   8.673   3.389  11.063
74914W        W47207  19.153  25.468  13.947
74915W        W47208  21.611  29.163   0.343
74916W        W47209  13.326  38.037   0.922
74917W        W47210   1.322  15.708  13.517
74918W        W47211   3.856  20.605   0.937
74919W        W47212  10.793  36.911  14.025
74920W        W47213  11.140  26.067   2.759
74921W        W47214   3.761   7.220  12.062
74922W        W47215  13.230  20.145   0.892
74923W        W47216  21.086  37.572   0.343
74924W        W47217  32.988  10.703   9.502
74925W        W47218  29.091  17.280   0.945
74926W        W47219  14.832  18.206   2.677
74927W        W47220  13.318  15.286  13.958
74928W        W47221  30.482  40.467   2.234
74929W        W47222  25.022   9.233  11.008
74930W        W47223  15.236  38.349  10.599
74931W        W47224   5.273  32.106  13.813
74932W        W47225  21.174  27.641   1.931
74933W        W47226  10.306  28.976   0.812
74934W        W47227  44.292  15.281   4.691
74935W        W47228  40.304  37.914  11.887
74936W        W47229  17.758  35.931   4.275
74937W        W47230   3.750  31.556  12.064
74938W        W47231   8.849  11.231  10.465
74939W        W47232  17.136  19.736  10.017
74940W        W47233  30.083  19.749   1.424
74941W        W47234  34.458  44.374  13.824
74942W        W47235  25.494  36.585   0.942
74943W        W47236   3.744  43.840  10.633
74944W        W47237  24.194  44.442   4.676
74945W        W47238  30.051  24.986   4.673
74946W        W47239  15.810  33.443   4.830
74947W        W47240  31.969  28.095   3.285
74948W        W47241  35.428   7.248   3.733
74949W        W47242  35.373  14.260  10.434
74950W        W47243  32.548  42.429   3.865
74951W        W47244  37.460  28.526   3.195
74952W        W47245  38.558  12.300  11.067
74953W        W47246  41.511  33.894   0.437
74954W        W47247  11.815  21.152   3.308
74955W        W47248  12.633  16.121   0.270
74956W        W47249  14.113  33.566  13.935
74957W        W47250  15.663  20.615   2.747
74958W        W47251  16.757   1.873   2.306
74959W        W47252  39.511  33.932  14.002
74960W        W47253  26.164   2.373  10.970
74961W        W47254  23.586  29.161  13.518
74962W        W47255  30.995  31.614  12.012
74963W        W47256  38.054   9.707   4.157
74964W        W47257   2.465  33.035  13.049
74965W        W47258  17.150  14.183   5.300
74966W        W47259  16.753  15.645  11.949
74967W        W47260   4.834  24.604   1.449
74968W        W47261  23.103  26.572   2.260
74969W        W47262  13.321  41.406   0.929
74970W        W47263  13.774  14.153  13.915
74971W        W47264  38.510  44.870   0.905
74972W        W47265  28.600  16.175   4.711
74973W        W47266  13.264  33.436   2.386
74974W        W47267  30.938  23.080  11.039
74975W        W47268  44.393  13.658   4.318
74976W        W47269   4.287  34.467   0.968
74977W        W47270  41.324  18.263   3.799
74978W        W47271   1.867  40.989   1.806
74979W        W47272  10.764  17.565  14.018
74980W        W47273  22.201  14.124   1.299
74981W        W47274   9.206  29.608  10.156
74982W        W47275  11.321  27.179   4.821
74983W        W47276  27.452  40.887   2.671
74984W        W47277  40.912   1.805  12.975
74985W        W47278  16.698  19.083  14.467
74986W        W47279  25.490  16.304   1.866
74987W        W47280  10.351  13.759   0.418
74988W        W47281  31.454  37.952  12.519
74989W        W47282  42.942  15.811   3.309
74990W        W47283  19.639  30.520   3.636
74991W        W47284   9.696   9.654   0.742
74992W        W47285  44.372   5.349  14.486
74993W        W47286  37.084  21.702   2.307
74994W        W47287  19.098  30.584   3.177
74995W        W47288  14.259  31.900   0.483
74996W        W47289  34.542  10.307   4.742
74997W        W47290  24.127  36.509  12.957
74998W        W47291  21.634  26.658   2.789
74999W        W47292  12.284  35.494  12.871
75000W        W47293  38.429  44.860  13.367
75001W        W47294   6.698  40.959   0.333
75002W        W47295  26.107  13.324  12.092
75003W        W47296  17.103  39.009   2.849
75004W        W47297   9.657   2.913  12.471
75005W        W47298  27.466  14.136  13.379
75006W        W47299  27.122  40.926  13.435
75007W        W47300  40.819   0.938   1.916
75008W        W47301  12.769  11.827   3.262
75009W        W47302  17.122  39.330   4.814
75010W        W47303  37.982  19.715  10.539
75011W        W47304  13.821  21.148   4.136
75012W        W47305   9.204  17.232   4.135
75013W        W47306   0.473  29.611   2.808
75014W        W47307   6.705   9.309   4.796
75015W        W47308  32.391  36.543  14.025
75016W        W47309  30.468  26.166  11.435
75017W        W47310  28.186  10.326   4.115
75018W        W47311  29.527  42.972  14.771
75019W        W47312  33.053   9.772  14.786
75020W        W47313  30.539  39.964  12.870
75021W        W47314  36.464  14.818  12.452
75022W        W47315   7.248  28.969  13.984
75023W        W47316   1.795  21.071  14.889
75024W        W47317  41.409  16.590  12.841
75025W        W47318  20.124   6.396  10.909
75026W        W47319  12.723  20.618   0.326
75027W        W47320  30.483  26.658  13.828
75028W        W47321  39.002   4.291  12.554
75029W        W47322  16.622   6.709  13.440
75030W        W47323   0.253  27.528   4.751
75031W        W47324  41.372   2.358   3.354
75032W        W47325  34.552  41.799   0.276
75033W        W47326  14.779  33.994   1.341
75034W        W47327  34.998  19.714  14.459
75035W        W47328  12.160  29.460  11.507
75036W        W47329  19.709  25.478  14.896
75037W        W47330  30.415  35.567   1.418
75038W        W47331  40.984  30.930  13.522
75039W        W47332   5.758  31.147  10.407
75040W        W47333  25.013   2.781   0.410
75041W        W47334   1.811  34.093   4.771
75042W        W47335   5.240  42.792   4.643
75043W        W47336  20.089  29.158   2.770
75044W        W47337  31.440  28.160  10.559
75045W        W47338  31.028   3.855  13.369
75046W        W47339  42.289  34.113  14.987
75047W        W47340  16.712  26.525  10.947
75048W        W47341   9.163  34.409   3.233
75049W        W47342  31.417  14.184  12.471
75050W        W47343   4.863   1.319   0.428
75051W        W47344   9.660  28.460   4.766
75052W        W47345  14.164  21.023   1.263
75053W        W47346  38.895  34.920   5.089
75054W        W47347  18.711  31.557   1.218
75055W        W47348  15.325   1.782  10.498
75056W        W47349   3.424  14.824   0.405
75057W        W47350  37.477  16.208   1.414
75058W        W47351  11.139  21.085  13.882
75059W        W47352  33.611  32.455   1.934
75060W        W47353  17.783  33.473  13.394
75061W        W47354  23.730  17.670   1.449
75062W        W47355  21.644  21.028  14.022
75063W        W47356   3.349   0.338   1.700
75064W        W47357  42.878  20.079  10.012
75065W        W47358   1.301  43.981   1.923
75066W        W47359  30.976   2.905  12.985
75067W        W47360  39.547  34.531   0.803
75068W        W47361  20.129  26.095   3.661
75069W        W47362   4.293  40.373   1.315
75070W        W47363  17.192   0.918  10.552
75071W        W47364   4.903  16.799   4.778
75072W        W47365  41.992   1.889  10.974
75073W        W47366   4.925   3.939  14.787
75074W        W47367  40.398  28.078   4.780
75075W        W47368  20.665  27.675  13.062
75076W        W47369  23.048  29.982  14.862
75077W        W47370  41.900   3.267  14.500
75078W        W47371  36.405  29.984   0.859
75079W        W47372  38.890  39.501  10.982
75080W        W47373  30.024  12.352   2.254
75081W        W47374  19.704   8.887   3.341
75082W        W47375   9.394  32.129   4.669
75083W        W47376   4.727   5.874  12.842
75084W        W47377   2.406  18.264  14.319
75085W        W47378  37.018  38.822  14.456
75086W        W47379  41.494   6.788  13.904
75087W        W47380  18.125  22.577  10.412
75088W        W47381  38.969  35.105   0.924
75089W        W47382  11.227  18.260   1.216
75090W        W47383  26.666  24.662   3.713
75091W        W47384  39.828  27.130   0.460
75092W        W47385  10.784  31.591  14.364
75093W        W47386  10.641  23.077   3.750
75094W        W47387  24.582  23.719  13.466
75095W        W47388  31.006  22.638  11.510
75096W        W47389  28.139  19.199   2.180
75097W        W47390  34.953  26.663   4.235
75098W        W47391  44.919   9.379   2.774
75099W        W47392  28.011  35.515  11.441
75100W        W47393  28.535  30.643  12.947
75101W        W47394   3.925  32.416   3.234
75102W        W47395  14.591   4.836  12.002
75103W        W47396  39.032  34.486   0.279
75104W        W47397  17.171   0.450   3.186
75105W        W47398  43.496  41.316   0.288
75106W        W47399  19.751  25.163   0.476
75107W        W47400  19.093  40.816   4.269
75108W        W47401  31.604   8.236  12.983
75109W        W47402  19.145  43.424   1.839
75110W        W47403  41.791  44.992   0.478
75111W        W47404  40.864  41.352  13.508
75112W        W47405   0.831  34.487   4.349
75113W        W47406  36.005   9.663  14.794
75114W        W47407   1.240  34.948  12.024
75115W        W47408  41.007  40.922   3.153
75116W        W47409   1.925  14.329   1.777
75117W        W47410   6.739  32.487   2.322
75118W        W47411  19.581  35.590  13.028
75119W        W47412  11.228  21.158  12.873
75120W        W47413  10.873  20.169  10.594
75121W        W47414  37.846  32.108  11.979
75122W        W47415  19.039  43.895  13.324
75123W        W47416  34.909  37.878  12.554
75124W        W47417  20.071  21.637   0.923
75125W        W47418  20.053  16.775  14.294
75126W        W47419   2.916  44.445   3.374
75127W        W47420  13.232   6.285  12.901
75128W        W47421  13.844   9.694   1.327
75129W        W47422   9.844  32.059  14.828
75130W        W47423   3.325  24.594   4.131
75131W        W47424   2.390   2.434   2.683
75132W        W47425   3.761  22.672   3.300
75133W        W47426  37.022  27.562   1.425
75134W        W47427  43.899  14.325   2.285
75135W        W47428  37.437  43.812   3.284
75136W        W47429  13.600  20.627  11.464
75137W        W47430  18.053  13.676   2.411
75138W        W47431  39.017   7.770  13.873
75139W        W47432  22.153  31.958  13.444
75140W        W47433  39.833  39.831   3.260
75141W        W47434  30.131  20.059   3.226
75142W        W47435  31.111  23.654   2.239
75143W        W47436  15.686  32.979  10.605
75144W        W47437  23.710  35.604   2.818
75145W        W47438  30.000  11.651  14.478
75146W        W47439  23.575   9.744   4.227
75147W        W47440  24.653  33.886  14.297
75148W        W47441  22.208  41.882  11.019
75149W        W47442  45.000  13.336   0.342
75150W        W47443  13.213   3.796   1.250
75151W        W47444  30.539  26.696  13.396
75152W        W47445   5.193  10.775   4.221
75153W        W47446  24.211  20.567  10.644
75154W        W47447  38.033   2.442   4.783
75155W        W47448   8.884  25.560  11.907
75156W        W47449  44.758   4.267   4.253
75157W        W47450  11.179  25.610  11.927
75158W        W47451  43.277  21.584  11.888
75159W        W47452  36.546   1.853   3.724
75160W        W47453   6.749  38.856  13.925
75161W        W47454  40.419  41.977  13.001
75162W        W47455  37.479  41.334   2.832
75163W        W47456  27.098  17.656   0.312
75164W        W47457   0.348  22.138   3.745
75165W        W47458  32.566  21.733   4.220
75166W        W47459  22.020  42.899   4.631
75167W        W47460  22.111  29.462  12.385
75168W        W47461   5.769  35.426  10.931
75169W        W47462  27.622  30.532   3.362
75170W        W47463  13.600  43.959  11.499
75171W        W47464  21.663  11.182   3.798
75172W        W47465  31.411  42.802   5.098
75173W        W47466  35.029  24.706  12.342
75174W        W47467  18.692  32.133   0.742
75175W        W47468  11.752  43.951   1.762
75176W        W47469  43.949  44.007  10.551
75177W        W47470  12.221   3.218  14.451
75178W        W47471  39.983  24.645  13.367
75179W        W47472  15.170  26.586  14.509
75180W        W47473  44.799   9.222   0.415
75181W        W47474  37.443   4.404   2.221
75182W        W47475  40.906  34.453   4.353
75183W        W47476  41.341   0.891   5.153
75184W        W47477  19.619  34.432   1.811
75185W        W47478  36.590  42.292  11.418
75186W        W47479  24.219  26.171  14.931
75187W        W47480  30.935  42.929   4.191
75188W        W47481   7.706  17.801   4.324
75189W        W47482  18.667  27.460  11.038
75190W        W47483  27.974   9.379   0.383
75191W        W47484  44.850  33.461   0.414
75192W        W47485   3.437  20.575   1.709
75193W        W47486   9.271  19.716  13.958
75194W        W47487   9.198   0.268   0.936
75195W        W47488  17.586  11.201  11.563
75196W        W47489   1.842  29.972  14.349
75197W        W47490   7.177  17.197   0.364
75198W        W47491  38.835  17.572  14.825
75199W        W47492  29.478  44.989   2.279
75200W        W47493  35.530   9.205  14.385
75201W        W47494   5.400   6.769   2.827
75202W        W47495  16.258  10.651   3.721
75203W        W47496  41.342  15.628  14.322
75204W        W47497   0.931  36.085  13.543
75205W        W47498  42.423  12.343  11.404
75206W        W47499   6.207  20.229  13.482
75207W        W47500   6.908  27.169   3.638
75208W        W47501   6.317  39.446   0.350
75209W        W47502  19.545  10.226   1.296
75210W        W47503  38.342  19.733  14.986
75211W        W47504  15.596  29.938   3.700
75212W        W47505  30.470  28.501  14.980
75213W        W47506   0.927  26.540  13.387
75214W        W47507   4.899  28.594   2.756
75215W        W47508  42.812  41.901   4.766
75216W        W47509   6.183   6.323  12.539
75217W        W47510  17.608  27.575   1.236
75218W        W47511  25.057   1.883  14.801
75219W        W47512  42.477   4.207   0.788
75220W        W47513   9.188  31.948  14.872
75221W        W47514  33.940  28.632   2.772
75222W        W47515   2.904   7.279   2.219
75223W        W47516  43.945  17.646  14.417
75224W        W47517  41.382  40.410  13.321
75225W        W47518   1.241  33.066  11.121
75226W        W47519  32.445  28.465   4.776
75227W        W47520  34.870  38.502   3.327
75228W        W47521  34.886  34.946   2.806
75229W        W47522  22.623  38.049   1.240
75230W        W47523  23.175   2.814  11.491
75231W        W47524   4.371  10.686  11.385
75232W        W47525  39.332  44.409   0.772
75233W        W47526  36.980  39.372   0.795
75234W        W47527  34.079   7.674  13.463
75235W        W47528  28.126  38.364  14.352
75236W        W47529  30.059   7.806  10.625
75237W        W47530  23.490  35.527  12.372
75238W        W47531  42.848   7.698   4.783
75239W        W47532  25.132  13.702   1.700
75240W        W47533  16.302  39.533  14.317
75241W        W47534  21.046  30.004   2.732
75242W        W47535  15.581   9.890   5.201
75243W        W47536  19.084   8.838   2.192
75244W        W47537  16.792  41.521  14.315
75245W        W47538  14.814   8.795   2.413
75246W        W47539  42.931   2.461   1.437
75247W        W47540   4.315   2.875   3.733
75248W        W47541  18.733  27.483   1.323
75249W        W47542  35.583  36.386  14.013
75250W        W47543  38.823  25.171  11.886
75251W        W47544   0.892  20.531   0.767
75252W        W47545   9.765  10.830   2.797
75253W        W47546  40.949  42.367   1.920
75254W        W47547  13.767  22.013  13.848
75255W        W47548  21.691  44.301   0.746
75256W        W47549  10.382  17.158   4.651
75257W        W47550  43.839  15.638  10.406
75258W        W47551  19.062  26.980  12.359
75259W        W47552   8.730  18.616  13.837
75260W        W47553  14.618   4.797  11.468
75261W        W47554  35.470   2.819   3.217
75262W        W47555  30.643  32.461  11.449
75263W        W47556  24.672  38.008  14.974
75264W        W47557  28.659  22.083   1.847
75265W        W47558  25.078   8.303  11.905
75266W        W47559  28.963  31.575   0.953
75267W        W47560  29.531  35.475   2.742
75268W        W47561  14.678  29.152   1.324
75269W        W47562  33.929  31.939   4.655
75270W        W47563  27.490  12.346  10.897
75271W        W47564  36.501  30.565   0.321
75272W        W47565   1.900  26.033  12.410
75273W        W47566  42.337  40.962  12.400
75274W        W47567  21.070  39.447  12.900
75275W        W47568   2.387   5.370   0.822
75276W        W47569   4.257   5.232  11.000
75277W        W47570   3.317  23.550   3.226
75278W        W47571  41.984   4.912  10.525
75279W        W47572  13.833   7.361   2.200
75280W        W47573  41.952  29.560   3.367
75281W        W47574   4.340  40.973   4.162
75282W        W47575   1.885  21.196   4.272
75283W        W47576  36.017  26.520   4.322
75284W        W47577   4.855  42.410  13.964
75285W        W47578  13.170  23.520   5.200
75286W        W47579  31.964   6.239  11.957
75287W        W47580  38.347   6.380  14.444
75288W        W47581  26.485  26.032  13.375
75289W        W47582   6.807  43.978   1.343
75290W        W47583  16.310  36.890   1.262
75291W        W47584  37.832   3.450   1.815
75292W        W47585  18.675  31.621   0.799
75293W        W47586  11.812  39.519  13.839
75294W        W47587  10.273   2.841   2.765
75295W        W47588  32.085  31.144  11.910
75296W        W47589  21.182  38.051  14.902
75297W        W47590  18.222  22.218   2.873
75298W        W47591   1.866  13.160   4.698
75299W        W47592  11.659  21.553   2.869
75300W        W47593  15.761  12.251  13.405
75301W        W47594  42.908   7.743  10.998
75302W        W47595  26.553  12.144  13.406
75303W        W47596  33.888  38.854   4.186
75304W        W47597  43.978   6.753  12.373
75305W        W47598  17.682  10.187   3.849
75306W        W47599  39.496  40.893   0.862
75307W        W47600  19.664  28.162  13.058
75308W        W47601  20.164   0.472   4.724
75309W        W47602  10.854  19.270   2.288
75310W        W47603  29.625  32.618   3.287
75311W        W47604  11.310  43.979   1.435
75312W        W47605   5.436   5.710   0.762
75313W        W47606  39.836   3.904   0.957
75314W        W47607  25.673  18.173  12.984
75315W        W47608  14.761  19.119  10.608
75316W        W47609  41.894   5.230  14.824
75317W        W47610   1.309  41.460  12.893
75318W        W47611   1.803  27.133   1.375
75319W        W47612  37.995  10.842   0.480
75320W        W47613  14.791  34.887   2.865
75321W        W47614   0.917  40.433   3.655
75322W        W47615  38.405  42.930   1.746
75323W        W47616  39.835  24.534  14.005
75324W        W47617  31.007  11.709  12.041
75325W        W47618  13.287   3.770  11.033
75326W        W47619  34.536   8.881  14.300
75327W        W47620  38.389  16.269   2.691
75328W        W47621   7.402   0.302  13.935
75329W        W47622  23.993  32.896  13.378
75330W        W47623  18.752  14.796   1.764
75331W        W47624  44.933  21.745   0.255
75332W        W47625  11.777   9.334  14.906
75333W        W47626  14.251  33.975  10.510
75334W        W47627   1.441  28.522   3.149
75335W        W47628   5.873  34.419  12.016
75336W        W47629  43.457  41.855  10.505
75337W        W47630  29.530  26.072  14.282
75338W        W47631   1.477  22.596   3.656
75339W        W47632  22.040  12.150  12.568
75340W        W47633  17.624   7.313   0.851
75341W        W47634  36.572  12.248  12.837
75342W        W47635  19.130  30.585  11.905
75343W        W47636  36.436  43.952   1.815
75344W        W47637  14.628  43.986   0.895
75345W        W47638  14.638  28.053  11.609
75346W        W47639   9.210  44.770  14.383
75347W        W47640   3.816  17.711   2.717
75348W        W47641  35.109   2.232   1.826
75349W        W47642   4.301   1.926  12.995
75350W        W47643  22.564   4.443  11.381
75351W        W47644  36.522  20.622   2.366
75352W        W47645  30.552  19.235   2.868
75353W        W47646  17.619   8.852   4.323
75354W        W47647  36.961   0.434   2.797
75355W        W47648  31.018  12.135  14.349
75356W        W47649  31.417   8.374   4.123
75357W        W47650  24.674  26.571  13.015
75358W        W47651  35.394  12.303  11.431
75359W        W47652  36.546  29.547  13.816
75360W        W47653  35.085   0.268   0.793
75361W        W47654  23.033  36.848   1.726
75362W        W47655  26.608   9.196   2.285
75363W        W47656  13.197  36.443   4.803
75364W        W47657   3.291  40.307   5.286
75365W        W47658   7.756  23.030  10.445
75366W        W47659  24.480   4.247  11.099
75367W        W47660  33.591  16.302   4.835
75368W        W47661  42.945  43.001   9.998
75369W        W47662  39.937  30.092   3.790
75370W        W47663  24.586  25.515  10.459
75371W        W47664  18.104  44.360   3.341
75372W        W47665  23.527  36.431   1.388
75373W        W47666  40.982  43.284  14.797
75374W        W47667   0.770  26.081   2.259
75375W        W47668  20.749  12.829   2.884
75376W        W47669  10.362  13.797   4.191
75377W        W47670  11.850  26.657   2.711
75378W        W47671  32.024   3.359  12.398
75379W        W47672  30.133   0.266   1.801
75380W        W47673  19.551   0.899   0.811
75381W        W47674  21.577  23.554   3.160
75382W        W47675  26.041  16.232   3.737
75383W        W47676   6.360   4.943   4.224
75384W        W47677  21.073   2.787  14.871
75385W        W47678   0.321  12.715  14.832
75386W        W47679  30.550  21.041   1.325
75387W        W47680  27.590  16.753  11.948
75388W        W47681  19.210  20.167  13.382
75389W        W47682   1.792  32.589  12.079
75390W        W47683  44.989  16.193   1.872
75391W        W47684  27.107  44.984   3.832
75392W        W47685  44.479  24.064  12.073
75393W        W47686  23.497  31.484  11.603
75394W        W47687  27.551  43.792  13.796
75395W        W47688   3.931   3.857   1.234
75396W        W47689  28.946  35.966  10.460
75397W        W47690  24.151  18.216   3.303
75398W        W47691   2.249  39.976  13.381
75399W        W47692   2.831   5.433   4.768
75400W        W47693  44.376  26.560   4.807
75401W        W47694   7.328  26.038   2.384
75402W        W47695  18.758  14.653   0.383
75403W        W47696  20.076  29.615   4.728
75404W        W47697  36.046  43.438  10.418
75405W        W47698  42.889  42.889   0.245
75406W        W47699   0.823  17.737  14.511
75407W        W47700   5.258  31.948   2.338
75408W        W47701  37.086  29.080  11.963
75409W        W47702  29.631   4.263  13.945
75410W        W47703  15.319  15.579   0.876
75411W        W47704  43.374  35.385   4.714
75412W        W47705   6.415  27.124   4.648
75413W        W47706  24.641  12.126   1.897
75414W        W47707  38.023   5.334   0.421
75415W        W47708  40.410  44.836  12.395
75416W        W47709  35.503  11.321  13.833
75417W        W47710  22.643  16.184   2.871
75418W        W47711   9.782  37.966   4.766
75419W        W47712  34.991  12.812  11.599
75420W        W47713  42.388  41.879   4.299
75421W        W47714   4.290  31.036  11.540
75422W        W47715  44.310   7.704  13.821
75423W        W47716  44.420  35.980   4.284
75424W        W47717  33.438  27.554  11.862
75425W        W47718  19.282  33.119   5.100
75426W        W47719  43.820  40.812   0.259
75427W        W47720  23.992   3.763  10.471
75428W        W47721   5.817  37.971   2.836
75429W        W47722  26.977   3.410   3.302
75430W        W47723  24.501   0.466  11.573
75431W        W47724  34.500  44.291   1.363
75432W        W47725   3.269  16.694  11.072
75433W        W47726  40.515  31.557   4.691
75434W        W47727   2.861  20.123  11.071
75435W        W47728  32.400  19.085  12.343
75436W        W47729  17.257  19.284   1.339
75437W        W47730  38.417  30.161   4.705
75438W        W47731  40.505  26.155  12.463
75439W        W47732  32.400  25.547  14.497
75440W        W47733  14.786  11.281   2.405
75441W        W47734  16.311  36.580   0.461
75442W        W47735   2.336  36.590   3.325
75443W        W47736  15.651  33.383  11.059
75444W        W47737   0.816  35.535   0.265
75445W        W47738   5.223  31.633  12.964
75446W        W47739  28.169  15.195   3.730
75447W        W47740  43.442   8.331  13.802
75448W        W47741  23.519  31.957  12.398
75449W        W47742   6.706   7.894  13.450
75450W        W47743  32.060  44.858   4.204
75451W        W47744  41.317  31.478  12.076
75452W        W47745  20.042  38.543  10.403
75453W        W47746  42.787  39.364   4.293
75454W        W47747   1.866  24.187   3.228
75455W        W47748   1.930  17.774   2.187
75456W        W47749   3.914  27.679   4.223
75457W        W47750   0.977  11.652  11.000
75458W        W47751  21.726  13.772   2.279
75459W        W47752  14.636  21.218  11.101
75460W        W47753  27.599  19.191  10.591
75461W        W47754   5.805  31.640   3.382
75462W        W47755  42.290  28.528  11.893
75463W        W47756  14.608  42.401   1.837
75464W        W47757   5.310  37.033   3.262
75465W        W47758  28.001   8.879   4.232
75466W        W47759  24.485   3.723   4.126
75467W        W47760  11.671  39.442   1.256
75468W        W47761  30.954  21.227   4.130
75469W        W47762   7.849  37.858  14.843
75470W        W47763  10.156  36.048  11.125
75471W        W47764  32.988   8.724   9.578
75472W        W47765  20.725  22.243   4.122
75473W        W47766  13.684  11.693   2.243
75474W        W47767  24.025  14.765   3.780
75475W        W47768  40.324  11.814  11.036
75476W        W47769   1.358  44.786   4.315
75477W        W47770   7.804   5.830   3.807
75478W        W47771  41.011   8.284  14.328
75479W        W47772  15.271  40.332   3.252
75480W        W47773  35.081   8.721   1.384
75481W        W47774   2.810   6.916  12.968
75482W        W47775  15.177  28.568   0.411
75483W        W47776  34.923  16.200   3.634
75484W        W47777   6.782   2.950  12.536
75485W        W47778  14.137  26.162   3.761
75486W        W47779  17.647  37.857   3.700
75487W        W47780  22.174  33.597   4.184
75488W        W47781   3.711  28.037   3.743
75489W        W47782  42.915   5.833   2.229
75490W        W47783   0.815  38.363   2.726
75491W        W47784   8.310  13.695   1.263
75492W        W47785  27.022  43.922  14.858
75493W        W47786  41.004  38.911   0.742
75494W        W47787  42.860  19.054  14.374
75495W        W47788  38.855   3.418  11.877
75496W        W47789  26.981  37.515   0.765
75497W        W47790   8.403  21.708  10.437
75498W        W47791  16.178  24.642   1.305
75499W        W47792   0.249  21.680  13.854
75500W        W47793  42.469   9.342  11.013
75501W        W47794  13.201  16.625   3.297
75502W        W47795   7.727  20.737   1.400
75503W        W47796  20.092  32.608   4.694
75504W        W47797  24.689  12.782  12.391
75505W        W47798  42.323  36.950   0.382
75506W        W47799   2.368  18.266   0.786
75507W        W47800  35.862  27.948   3.632
75508W        W47801  20.600   1.449   0.334
75509W        W47802  24.165  15.617   2.255
75510W        W47803  15.237  28.163  10.517
75511W        W47804   9.775  30.503   1.268
75512W        W47805  39.391  29.651  12.840
75513W        W47806  16.274  12.824   2.876
75514W        W47807  34.442  27.194  11.473
75515W        W47808  38.431  34.464   1.696
75516W        W47809  41.890  31.974   4.746
75517W        W47810  14.125  20.089  12.959
75518W        W47811   9.235  18.674   1.397
75519W        W47812  41.326  26.107  14.320
75520W        W47813   8.282   1.384   0.744
75521W        W47814  23.070   0.848  13.895
75522W        W47815  41.532  23.106   4.285
75523W        W47816  44.489  38.566   2.409
75524W        W47817   3.281  12.634  11.988
75525W        W47818   9.833  22.693  10.933
75526W        W47819   0.305  20.149   2.381
75527W        W47820   3.870  14.314   3.276
75528W        W47821   0.329  24.504  12.858
75529W        W47822   1.807  33.905   2.699
75530W        W47823  23.567  15.158   1.892
75531W        W47824  30.909   9.350   3.713
75532W        W47825  23.586  30.517  12.938
75533W        W47826  33.523  24.189   3.678
75534W        W47827   3.432   6.781   3.777
75535W        W47828  32.986  42.936   3.194
75536W        W47829   8.876  13.802  14.774
75537W        W47830  21.195  27.984  14.340
75538W        W47831   7.834  19.631   0.453
75539W        W47832  33.591  29.588   3.343
75540W        W47833   4.330  23.724   0.298
75541W        W47834  27.116  37.950  14.866
75542W        W47835   5.319  16.285  13.432
75543W        W47836  38.366  14.170   1.741
75544W        W47837   0.877  29.555  11.903
75545W        W47838  28.437  16.127  14.860
75546W        W47839  31.456  39.313  14.838
75547W        W47840  22.244  44.330   3.846
75548W        W47841   0.441  14.096  13.051
75549W        W47842  21.039   1.768   5.307
75550W        W47843   0.415  13.710   1.445
75551W        W47844  14.624   9.797   1.858
75552W        W47845  33.510  32.073   2.782
75553W        W47846  42.423  10.649  11.428
75554W        W47847   6.204   8.757   2.724
75555W        W47848  18.646  13.649   4.120
75556W        W47849  14.632  33.132   1.896
75557W        W47850  23.605   3.807   1.440
75558W        W47851  36.903  37.899  14.295
75559W        W47852  35.879  40.514   2.865
75560W        W47853  39.470  44.888  10.930
75561W        W47854   0.786  44.831  13.902
75562W        W47855  20.037  35.958   1.883
75563W        W47856  19.609  22.089   5.116
75564W        W47857  33.562  15.595   3.745
75565W        W47858  23.699  31.602   2.865
75566W        W47859  27.151  27.080  12.534
75567W        W47860  33.445  14.684   0.800
75568W        W47861   5.728  26.575  13.465
75569W        W47862  44.348  20.713  11.103
75570W        W47863  18.278  16.695   1.424
75571W        W47864  20.619  43.436  11.114
75572W        W47865   1.830  28.442   0.939
75573W        W47866  16.706  29.969   4.755
75574W        W47867   5.378  14.620   2.323
75575W        W47868  18.269  19.120   4.241
75576W        W47869  20.070  43.998  13.862
75577W        W47870  28.673  17.663   0.296
75578W        W47871  23.152  31.474  11.378
75579W        W47872  24.008  14.646   4.305
75580W        W47873  37.437  19.626  12.063
75581W        W47874  41.364  38.980   2.240
75582W        W47875  18.170  39.983   3.202
75583W        W47876  24.589  21.066   0.900
75584W        W47877  23.558   9.229   1.803
75585W        W47878  13.293  24.718   0.481
75586W        W47879  33.999  13.247   1.269
75587W        W47880  36.861   9.289  13.434
75588W        W47881  33.080   6.875   3.794
75589W        W47882  39.853  14.640  10.603
75590W        W47883  36.450  40.316  14.462
75591W        W47884  37.530  22.996  13.030
75592W        W47885  26.658  21.664   5.214
75593W        W47886  32.134   4.431  12.433
75594W        W47887  24.228  34.976  12.860
75595W        W47888  44.421  26.608  13.492
75596W        W47889  13.326  39.053  13.039
75597W        W47890  31.562  16.177   2.763
75598W        W47891  13.251   1.754   5.247
75599W        W47892   5.709  34.917   9.986
75600W        W47893  11.306  33.604  13.866
75601W        W47894  16.599  40.838  14.901
75602W        W47895  30.449  15.268  11.104
75603W        W47896   3.853  34.913   3.663
75604W        W47897   8.361   5.222   4.342
75605W        W47898  15.156  31.447   3.200
75606W        W47899  11.652  28.576  10.941
75607W        W47900  23.592  12.276  14.900
75608W        W47901  15.306  11.851   3.152
75609W        W47902  20.635   4.903   4.730
75610W        W47903  35.064  20.641  14.504
75611W        W47904   9.787  28.670   1.695
75612W        W47905  39.044  23.541   9.927
75613W        W47906  25.097   2.747  12.934
75614W        W47907  25.194  31.573   2.679
75615W        W47908  38.959  33.583   2.316
75616W        W47909  20.755  30.423  14.943
75617W        W47910   7.827   6.198  11.608
75618W        W47911   0.895   3.807  12.886
75619W        W47912   3.358  40.034  11.041
75620W        W47913  14.211   8.226   3.256
75621W        W47914   1.330   2.343  12.501
75622W        W47915  35.566  42.507  14.000
75623W        W47916  44.492  36.391   4.772
75624W        W47917  20.034   4.894  12.917
75625W        W47918   6.848  12.788   3.856
75626W        W47919  25.992   1.745  12.495
75627W        W47920  39.472  19.630  12.445
75628W        W47921  13.269  16.651  13.992
75629W        W47922  44.437  22.240   1.757
75630W        W47923  17.113   2.961  10.471
75631W        W47924  10.796   5.387  12.829
75632W        W47925  41.000  30.620   2.372
75633W        W47926  30.924  23.561   5.126
75634W        W47927  41.402  43.350   5.684
75635W        W47928   5.265  18.603   3.206
75636W        W47929  38.998  41.823   3.854
75637W        W47930   9.859   7.296  10.924
75638W        W47931   7.889   6.364   2.903
75639W        W47932   5.835  22.069  13.801
75640W        W47933  38.513  22.580  11.105
75641W        W47934   5.272  31.061   0.335
75642W        W47935   0.892  29.430   2.339
75643W        W47936   8.884  24.036   2.812
75644W        W47937   8.813  22.668  13.529
75645W        W47938  23.186   8.733  14.818
75646W        W47939  24.995   2.724  13.908
75647W        W47940  27.580   0.870  12.444
75648W        W47941  12.693  41.863   4.281
75649W        W47942  38.481  42.867  13.533
75650W        W47943  33.969  40.522  13.465
75651W        W47944  21.043  38.886   4.276
75652W        W47945  41.496  34.889   5.176
75653W        W47946  21.533  10.191   1.284
75654W        W47947  37.467  40.885   3.829
75655W        W47948  28.533  15.804   4.272
75656W        W47949  13.707  42.490  13.015
75657W        W47950  16.147  21.654   1.722
75658W        W47951  20.119  38.963   3.385
75659W        W47952  20.757  36.968   4.152
75660W        W47953  21.258  10.363  14.312
75661W        W47954  19.093  35.898  13.439
75662W        W47955  29.602  25.078  11.433
75663W        W47956   4.388  24.179   1.908
75664W        W47957  17.600  17.675  13.548
75665W        W47958  28.129  16.242  12.404
75666W        W47959  12.715   2.464  11.389
75667W        W47960  25.608  35.432   3.630
75668W        W47961  30.913  30.603   5.139
75669W        W47962   9.223  27.149   0.890
75670W        W47963   9.369  22.575  14.926
75671W        W47964   4.744  35.996   2.724
75672W        W47965  43.961  14.179  12.963
75673W        W47966  36.491  44.004  11.389
75674W        W47967   9.209  12.240   4.733
75675W        W47968  27.450  33.008   0.942
75676W        W47969  22.138  26.105  14.793
75677W        W47970  18.158  44.831   4.714
75678W        W47971   8.741   5.810   2.234
75679W        W47972   8.349  20.145  11.429
75680W        W47973  31.586  10.681   3.864
75681W        W47974  19.139  10.360  12.886
75682W        W47975  19.560  12.679   0.784
75683W        W47976  44.904  31.006  11.967
75684W        W47977  15.720  16.690  12.967
75685W        W47978  36.417   1.472  14.778
75686W        W47979  14.169  38.366  11.025
75687W        W47980  38.002  38.347  14.441
75688W        W47981  30.651  34.044   2.238
75689W        W47982   3.434  18.736   1.833
75690W        W47983   3.255   9.152  10.532
75691W        W47984  40.019  18.126  13.366
75692W        W47985   5.861  35.466   3.190
75693W        W47986  41.300  34.990  10.505
75694W        W47987  24.039  12.265  11.594
75695W        W47988  22.207  11.326  14.501
75696W        W47989   6.893  23.691  13.880
75697W        W47990   9.845   1.922  13.500
75698W        W47991   0.311  11.697  14.011
75699W        W47992  14.182  18.579  10.991
75700W        W47993  38.039  28.950  12.032
75701W        W47994  17.214   4.450   3.331
75702W        W47995  15.690  41.812  12.548
75703W        W47996   8.216   6.711  11.924
75704W        W47997  42.865  28.947   4.160
75705W        W47998   5.718  36.512  11.113
75706W        W47999  35.430  20.119  14.979
75707W        W48000  18.195  40.406   1.836
75708W        W48001   8.186  11.740  12.988
75709W        W48002  42.295  31.957  14.407
75710W        W48003  29.147  16.251   4.700
75711W        W48004  32.403  12.810  14.005
75712W        W48005  20.258  27.006  11.911
75713W        W48006  33.484  30.080   4.165
75714W        W48007  23.523  37.341  12.375
75715W        W48008  10.634  17.282  14.777
75716W        W48009  15.244   7.374  11.485
75717W        W48010  25.588  13.682  12.866
75718W        W48011  39.887  37.077   4.808
75719W        W48012  11.684  27.445  12.052
75720W        W48013  43.956  20.736  10.424
75721W        W48014  13.192   1.289   1.404
75722W        W48015   1.313  11.239   3.150
75723W        W48016   5.740  19.224  14.875
75724W        W48017   1.968  29.123  13.835
75725W        W48018  32.427  17.692  10.564
75726W        W48019  29.649  39.452   0.967
75727W        W48020  22.638   3.732   3.283
75728W        W48021  37.551   4.427  12.875
75729W        W48022  32.523  42.296   4.188
75730W        W48023  12.120   0.305  11.097
75731W        W48024   3.857  29.977  11.866
75732W        W48025  38.048  32.529  11.477
75733W        W48026  17.105  25.088   3.798
75734W        W48027  17.696  14.149  14.986
75735W        W48028   7.747  19.766   2.785
75736W        W48029  13.315  23.222   0.938
75737W        W48030   7.887  37.362  11.014
75738W        W48031  36.487  21.116   9.981
75739W        W48032  33.075  11.365  11.407
75740W        W48033  16.697  33.945  10.632
75741W        W48034  25.145   8.265  11.463
75742W        W48035  39.557  33.036  12.985
75743W        W48036  38.946  15.290   1.218
75744W        W48037  27.973  28.505   0.416
75745W        W48038   6.379  43.000  12.565
75746W        W48039  23.657  23.223  11.522
75747W        W48040  26.628  32.969  12.883
75748W        W48041  32.509   3.452   4.704
75749W        W48042  38.962  34.530   4.711
75750W        W48043  20.526  12.270   2.747
75751W        W48044  30.934  10.277   5.594
75752W        W48045  25.990  42.998  13.935
75753W        W48046  32.005   3.920  13.890
75754W        W48047  24.622  30.050   3.156
75755W        W48048  18.734  37.354  13.381
75756W        W48049   3.876  37.949  14.462
75757W        W48050   0.809  23.240   2.346
75758W        W48051  29.089  29.140  12.836
75759W        W48052  27.110  19.704  11.965
75760W        W48053  32.476   7.344  14.493
75761W        W48054  13.717  23.173   1.777
75762W        W48055  28.113  40.868  12.090
75763W        W48056   4.841  36.016   1.758
75764W        W48057   3.870   3.878  14.392
75765W        W48058  26.101   6.194  13.415
75766W        W48059  41.522  18.549  14.821
75767W        W48060   5.734  16.318  14.466
75768W        W48061  30.027   0.486  11.981
75769W        W48062  22.562   8.185   3.255
75770W        W48063  13.215  30.129  10.626
75771W        W48064  19.702  11.154  11.582
75772W        W48065  30.644  19.535   1.808
75773W        W48066  11.753  14.680   4.601
75774W        W48067   6.756  15.780   1.920
75775W        W48068  16.293  20.618   0.428
75776W        W48069  29.517   6.784  13.022
75777W        W48070  20.144   8.171   2.859
75778W        W48071   7.674  23.604   0.325
75779W        W48072  28.135  27.654   1.286
75780W        W48073  43.770   0.468  10.412
75781W        W48074  12.645  14.637  12.480
75782W        W48075  16.664  17.091  13.018
75783W        W48076  15.720  16.807   4.132
75784W        W48077  20.274   9.715   4.306
75785W        W48078  26.137   6.687   4.715
75786W        W48079  30.641  19.774  10.520
75787W        W48080   3.871  29.984  12.439
75788W        W48081   0.948   6.257   2.315
75789W        W48082   1.740  23.712  11.412
75790W        W48083   7.906   8.895  12.901
75791W        W48084  17.701  20.627   9.445
75792W        W48085  30.493  38.366  11.123
75793W        W48086  20.266   2.791  14.987
75794W        W48087  17.301  34.867  14.857
75795W        W48088  34.910  25.471   0.870
75796W        W48089  32.604   3.436   2.818
75797W        W48090  13.151  10.341   0.763
75798W        W48091  30.055   8.668  12.036
75799W        W48092  33.474  17.684   1.775
75800W        W48093  43.817  13.794  11.928
75801W        W48094   1.784  32.493  13.536
75802W        W48095   6.297   0.963  14.508
75803W        W48096  42.835  40.307  14.323
75804W        W48097   2.834  32.886   3.638
75805W        W48098  38.379  35.598   3.200
75806W        W48099  38.449  34.913  12.569
75807W        W48100   7.272  12.757  13.965
75808W        W48101   5.259  20.136   2.322
75809W        W48102  30.659   5.354   3.735
75810W        W48103  29.473  43.905  13.043
75811W        W48104  43.767  41.358   3.217
75812W        W48105  20.207  22.248  12.373
75813W        W48106   2.278  37.844   1.415
75814W        W48107  21.684  14.136  13.489
75815W        W48108  33.385   9.161   3.374
75816W        W48109  25.213   2.335   1.279
75817W        W48110   3.814  34.004  14.764
75818W        W48111  30.128  11.280   2.860
75819W        W48112  19.216  14.790  12.543
75820W        W48113  21.087  15.600   2.271
75821W        W48114   1.854  26.670   2.220
75822W        W48115   6.846   0.477   3.385
75823W        W48116   2.270  42.505  13.862
75824W        W48117  24.697  13.268   1.301
75825W        W48118  31.108  33.470   4.715
75826W        W48119  27.067  38.468  11.002
75827W        W48120  11.205   9.832  10.949
75828W        W48121   3.285  31.497  14.304
75829W        W48122  42.471   9.155   0.322
75830W        W48123  25.682  28.435  11.033
75831W        W48124  41.821   4.257  13.374
75832W        W48125  11.827   1.970  12.016
75833W        W48126  44.941  31.054  13.465
75834W        W48127   8.316  32.464   3.801
75835W        W48128  41.366  39.896   1.728
75836W        W48129  26.671  42.333  12.546
75837W        W48130   2.465  20.158  12.001
75838W        W48131   4.826  38.009  12.507
75839W        W48132  31.529  32.051   0.751
75840W        W48133  43.772  44.999   9.980
75841W        W48134  15.760  39.324  11.008
75842W        W48135  31.617  11.822   2.864
75843W        W48136  19.173  20.099  12.857
75844W        W48137  33.466  30.523  14.301
75845W        W48138   7.798   6.920  10.609
75846W        W48139  22.083   9.317   3.729
75847W        W48140  33.003  17.625   0.358
75848W        W48141  20.583  34.078  12.036
75849W        W48142  37.080   5.230  11.909
75850W        W48143  38.051  39.026  12.894
75851W        W48144   3.786  36.449  11.924
75852W        W48145  32.467  12.705   4.264
75853W        W48146  36.098  21.547  14.416
75854W        W48147  17.204  33.390  10.057
75855W        W48148   7.864  29.997  14.489
75856W        W48149  18.758  21.254  12.860
75857W        W48150  32.549  40.045   2.390
75858W        W48151  24.199  30.962  11.888
75859W        W48152   6.683  34.022   0.837
75860W        W48153  12.720  33.399   0.958
75861W        W48154  37.956  43.882   2.846
75862W        W48155  14.746  30.011   1.265
75863W        W48156  11.233   7.204  10.640
75864W        W48157  41.353  44.401  14.392
75865W        W48158  43.283  39.842   0.461
75866W        W48159   8.182  12.253   3.653
75867W        W48160  10.252  36.517  14.389
75868W        W48161   5.410  42.883  12.066
75869W        W48162  32.072  36.387  14.305
75870W        W48163  30.637  14.695  13.378
75871W        W48164  44.894  40.007   2.771
75872W        W48165  21.118  40.496  11.432
75873W        W48166  10.638  44.937  10.429
75874W        W48167  20.679  41.805   3.384
75875W        W48168  26.485  24.070   2.329
75876W        W48169  17.712   3.781  14.292
75877W        W48170  32.062  21.214   1.893
75878W        W48171  35.019   1.909   4.661
75879W        W48172  17.621  32.457  12.571
75880W        W48173  14.592  39.859   0.458
75881W        W48174  36.026   3.287  12.471
75882W        W48175  25.090   0.868   1.326
75883W        W48176  17.647  10.248   5.286
75884W        W48177  21.256  39.822   3.733
75885W        W48178  11.766  33.486  13.028
75886W        W48179  22.547  35.985  12.444
75887W        W48180   4.844  26.506   0.878
75888W        W48181  26.079  15.806  10.960
75889W        W48182  19.114  24.997  11.956
75890W        W48183  22.708  34.589   3.281
75891W        W48184  12.722  44.852   1.800
75892W        W48185  10.359  24.068   1.378
75893W        W48186  39.533   0.857   4.282
75894W        W48187  12.766   0.929  13.795
75895W        W48188  31.484  11.210   3.163
75896W        W48189  35.972   3.889  12.546
75897W        W48190  33.615  44.398   0.881
75898W        W48191  24.674   8.183   3.805
75899W        W48192  41.977   9.330   1.789
75900W        W48193  37.384  20.125   4.216
75901W        W48194  16.139  44.377  12.424
75902W        W48195  40.963  44.485  14.377
75903W        W48196  38.045  26.068  13.519
75904W        W48197   4.927  15.812  11.927
75905W        W48198  14.271  18.560   0.303
75906W        W48199  40.446   0.381   9.576
75907W        W48200  27.623  30.463   2.722
75908W        W48201  41.805  16.598  11.592
75909W        W48202  31.406  13.626   3.151
75910W        W48203  16.602  39.419   4.353
75911W        W48204  13.664  37.022   2.313
75912W        W48205  36.884   3.365   2.722
75913W        W48206   0.896  29.990   2.762
75914W        W48207  42.394  22.555  13.881
75915W        W48208  20.218  16.143  10.405
75916W        W48209  28.980  30.955   3.306
75917W        W48210  24.505  40.521  14.371
75918W        W48211  28.661  29.053  12.491
75919W        W48212   1.483  13.154  14.516
75920W        W48213  15.669   7.272  14.917
75921W        W48214  34.479  30.451   0.467
75922W        W48215  24.189  31.425   4.639
75923W        W48216  23.125  29.595  12.851
75924W        W48217  20.218  17.210  13.445
75925W        W48218  42.490   7.273   4.796
75926W        W48219  30.910  33.430   0.352
75927W        W48220  30.110  10.319  14.898
75928W        W48221   2.876   5.709   3.735
75929W        W48222  14.277  33.076   1.432
75930W        W48223  36.402  22.590   2.184
75931W        W48224  20.074   4.819   0.888
75932W        W48225  12.677  18.226  11.407
75933W        W48226  14.314  15.103  13.425
75934W        W48227  44.402  39.497   1.867
75935W        W48228   8.386  12.169   4.624
75936W        W48229  37.004  14.252  12.903
75937W        W48230  21.524   3.460   0.911
75938W        W48231  39.870  36.863   2.368
75939W        W48232  42.525   9.262  12.459
75940W        W48233  38.497  29.175   1.445
75941W        W48234  26.694  12.337   3.307
75942W        W48235  16.634   0.856  13.485
75943W        W48236   6.253  15.618   4.123
75944W        W48237   6.374  14.666   0.730
75945W        W48238  23.638   3.820  12.494
75946W        W48239  33.064   2.442   4.822
75947W        W48240   4.871  29.143  10.131
75948W        W48241  13.262  43.926   2.327
75949W        W48242  15.148  12.693   2.809
75950W        W48243  23.691  39.880   3.770
75951W        W48244   9.651  21.088  14.915
75952W        W48245  22.222  42.881  13.944
75953W        W48246  27.596  22.715   1.908
75954W        W48247  15.681  35.967   0.347
75955W        W48248  30.648  23.586  11.892
75956W        W48249   1.799   6.704  13.868
75957W        W48250   4.315  14.803   0.315
75958W        W48251  13.129   4.316  14.861
75959W        W48252  36.887   4.256  14.979
75960W        W48253  14.330  23.116  11.501
75961W        W48254   8.792  13.692  10.959
75962W        W48255  10.669  34.936   2.883
75963W        W48256  37.582   3.305  14.905
75964W        W48257   9.365   1.847   5.258
75965W        W48258  37.940   8.382   0.346
75966W        W48259  42.305  37.386   4.763
75967W        W48260  27.081  42.378   0.840
75968W        W48261   3.758  30.110  14.432
75969W        W48262  34.422   4.770  14.387
75970W        W48263  14.764  10.361   2.718
75971W        W48264  15.151  15.758  14.938
75972W        W48265  36.918  15.696  11.526
75973W        W48266  13.803  33.496   3.239
75974W        W48267  11.687  41.529   4.817
75975W        W48268  16.763  24.225   2.767
75976W        W48269  35.422  16.197  13.429
75977W        W48270  43.511   2.431   1.910
75978W        W48271  24.660  29.439  12.954
75979W        W48272  27.091  31.526   1.317
75980W        W48273  27.162  38.571  13.360
75981W        W48274  33.469  10.338   1.404
75982W        W48275   2.821  34.581   3.149
75983W        W48276  36.094  35.537  10.513
75984W        W48277  14.226  31.462  12.990
75985W        W48278  28.622  34.083   2.867
75986W        W48279  13.173   7.193  14.349
75987W        W48280  16.610  25.603   3.639
75988W        W48281   2.355  33.411   3.205
75989W        W48282  25.657   3.317   1.274
75990W        W48283  43.406   9.173   1.924
75991W        W48284   6.312   0.481   2.236
75992W        W48285  21.621  39.532  12.981
75993W        W48286   7.786  43.967  13.468
75994W        W48287  26.582  38.517   0.297
75995W        W48288  23.674  37.517  10.909
75996W        W48289  44.502  25.684   3.807
75997W        W48290  44.286   6.320   4.183
75998W        W48291  40.418  26.464  14.461
75999W        W48292  40.468  37.032  11.907
76000W        W48293  31.589  42.475  11.883
76001W        W48294  10.830   3.445  11.077
76002W        W48295  23.546  24.560   3.701
76003W        W48296  26.613  20.716  11.462
76004W        W48297  13.806  34.064  13.484
76005W        W48298  31.152   0.873  13.480
76006W        W48299  10.678  21.750  12.529
76007W        W48300   1.942  32.450   2.781
76008W        W48301   0.814  28.457   0.254
76009W        W48302  13.703  20.654  10.576
76010W        W48303  35.075  29.483  11.576
76011W        W48304  20.698   2.725   2.850
76012W        W48305  21.606  44.938  14.932
76013W        W48306   8.781   3.766  11.410
76014W        W48307  23.719  35.996  12.051
76015W        W48308  36.076  10.146  13.484
76016W        W48309  12.155  42.431   1.928
76017W        W48310  25.066  33.974  12.447
76018W        W48311  35.572   5.717  14.416
76019W        W48312  43.439  11.754  10.641
76020W        W48313  24.976  43.412   2.298
76021W        W48314  26.608  11.224  13.871
76022W        W48315  25.474  36.485  13.908
76023W        W48316  11.835   1.873   9.942
76024W        W48317   1.915  33.545  11.583
76025W        W48318  39.065  24.022  13.478
76026W        W48319  10.696  33.912   1.896
76027W        W48320  38.432  23.605  11.019
76028W        W48321  19.260   2.832  14.337
76029W        W48322  32.499  38.049   4.628
76030W        W48323  32.533  43.867  14.912
76031W        W48324  31.938   1.756  11.924
76032W        W48325  34.925  32.420  12.398
76033W        W48326   4.887   3.332   2.705
76034W        W48327   3.724  13.678  11.573
76035W        W48328  23.005  34.498   1.789
76036W        W48329  10.361  15.131   2.778
76037W        W48330  28.494   6.844  12.563
76038W        W48331  37.338  18.751   3.776
76039W        W48332  40.387   1.734   2.316
76040W        W48333   6.802  16.263  12.060
76041W        W48334  29.479  26.644   3.785
76042W        W48335  22.737  24.720  13.875
76043W        W48336  14.111  25.145  14.422
76044W        W48337   2.949  40.863  14.305
76045W        W48338  29.455  31.627  12.535
76046W        W48339  11.726  43.353   2.749
76047W        W48340  28.543  13.705   2.812
76048W        W48341  31.964  21.077  10.426
76049W        W48342  38.475  31.031   3.861
76050W        W48343   9.752  22.050   0.859
76051W        W48344  27.985  26.638   1.830
76052W        W48345  43.421  19.601  12.092
76053W        W48346  18.121  20.051   2.233
76054W        W48347  43.955  13.802  12.381
76055W        W48348   0.939  32.957  14.512
76056W        W48349  44.439  10.838   2.323
76057W        W48350  31.069  10.345   5.190
76058W        W48351   8.219   9.854  12.440
76059W        W48352  18.682  10.637  12.899
76060W        W48353  15.593   4.789  13.439
76061W        W48354  16.299  28.522  14.429
76062W        W48355  39.495   4.427   3.706
76063W        W48356  20.659  21.099   4.816
76064W        W48357  10.698  38.402  13.817
76065W        W48358   7.303  27.947  14.376
76066W        W48359   8.201   9.788   0.290
76067W        W48360  37.569  43.467   4.343
76068W        W48361  36.898   5.733   3.776
76069W        W48362   0.298   1.875  11.943
76070W        W48363   1.390  25.007  11.428
76071W        W48364   7.361  15.105   0.898
76072W        W48365  10.175  19.706  13.853
76073W        W48366  35.070   7.222   3.812
76074W        W48367  28.642  41.415  13.476
76075W        W48368  24.229  27.072   1.852
76076W        W48369  31.944   0.798   4.116
76077W        W48370  40.405   4.290   0.896
76078W        W48371  37.901  21.146  11.501
76079W        W48372  38.865  34.567   3.856
76080W        W48373  25.101   2.850  14.877
76081W        W48374  40.828  15.729   3.185
76082W        W48375   5.785  28.141  14.505
76083W        W48376  43.296  21.111  13.484
76084W        W48377  31.033  26.513   5.248
76085W        W48378  43.988  40.811   4.212
76086W        W48379  21.694  22.557   2.243
76087W        W48380  31.022   2.738   2.202
76088W        W48381  14.231  43.017   4.764
76089W        W48382  34.975  24.997   5.150
76090W        W48383  32.435  22.624  13.493
76091W        W48384  28.007   6.314   1.808
76092W        W48385  32.397  28.965   5.238
76093W        W48386  13.819  10.740  10.639
76094W        W48387  39.985  15.809  13.892
76095W        W48388  30.953  44.979  13.941
76096W        W48389  23.152  42.987  14.315
76097W        W48390  40.512  31.928  13.879
76098W        W48391   3.225  23.692   4.607
76099W        W48392  22.623  40.042   4.723
76100W        W48393  36.449  25.987  10.509
76101W        W48394  44.820  43.338   3.367
76102W        W48395   8.207   7.708  11.055
76103W        W48396   3.246  32.990  11.541
76104W        W48397   3.865  37.951  10.547
76105W        W48398  32.917  22.141  14.402
76106W        W48399  12.244   1.236   2.741
76107W        W48400  42.466  12.135  12.879
76108W        W48401  38.398  14.822  11.052
76109W        W48402  19.124   8.200   0.445
76110W        W48403  33.088   6.887   3.220
76111W        W48404  21.746  38.008  14.508
76112W        W48405  23.672  23.577  11.017
76113W        W48406  30.007  11.322  13.503
76114W        W48407   2.345  30.647  12.513
76115W        W48408  14.244  30.072  12.854
76116W        W48409  32.556  23.013  12.358
76117W        W48410  41.466  17.160   5.729
76118W        W48411  34.495  11.832  13.816
76119W        W48412  24.067  20.122  12.962
76120W        W48413   6.312  12.237   1.365
76121W        W48414  43.364  35.090  14.009
76122W        W48415   9.346   4.447  14.822
76123W        W48416  26.491   0.332  13.417
76124W        W48417  23.574   8.240   0.457
76125W        W48418  12.232   4.251   1.741
76126W        W48419   2.273  44.284   2.341
76127W        W48420  13.774  35.929   1.238
76128W        W48421  30.615  11.222  11.096
76129W        W48422  13.633  14.190  11.955
76130W        W48423  14.635  13.821  14.852
76131W        W48424  24.014   1.286   1.444
76132W        W48425   8.748  13.623   2.671
76133W        W48426  31.966  32.071  12.466
76134W        W48427  12.811  15.200   0.811
76135W        W48428  25.089   9.721  14.448
76136W        W48429  44.771   6.242  13.439
76137W        W48430  30.098  11.665  14.776
76138W        W48431  40.980  21.559   1.869
76139W        W48432  12.250   0.387   3.716
76140W        W48433  29.496   1.433  14.467
76141W        W48434  14.267  10.186  12.427
76142W        W48435  34.499  10.195  12.501
76143W        W48436  36.379  11.851  14.795
76144W        W48437   9.738  39.402   4.632
76145W        W48438  44.501  41.032  10.920
76146W        W48439  13.264   9.828  11.060
76147W        W48440  26.505  36.488   1.244
76148W        W48441  13.301  36.898  12.000
76149W        W48442  30.160  38.954   3.670
76150W        W48443  12.817  26.976   3.870
76151W        W48444  38.875  19.150   1.755
76152W        W48445  26.648  27.560  13.985
76153W        W48446  41.871   7.812   3.722
76154W        W48447  23.710  23.003   0.928
76155W        W48448   5.784  39.855   0.731
76156W        W48449  35.599   3.847  10.498
76157W        W48450  29.120  14.827   2.235
76158W        W48451  42.448  19.093  14.964
76159W        W48452  36.521  40.390   1.811
76160W        W48453  19.710  12.337   2.276
76161W        W48454  33.924  21.117   3.318
76162W        W48455  18.183  17.247  10.951
76163W        W48456  38.973  13.156  13.062
76164W        W48457  19.699   6.218  11.857
76165W        W48458  43.413   6.729  11.435
76166W        W48459   6.777  14.639   4.331
76167W        W48460   7.210  28.546   4.257
76168W        W48461  21.110  38.944  12.915
76169W        W48462   5.293  14.604   0.878
76170W        W48463  26.973  12.700  13.894
76171W        W48464  37.414  30.621  10.923
76172W        W48465  39.834   3.294  14.282
76173W        W48466  19.559  35.394   3.630
76174W        W48467  18.257  27.134  11.048
76175W        W48468  11.791  17.109   2.314
76176W        W48469  15.195  43.474   3.184
76177W        W48470  13.291  33.931   4.618
76178W        W48471   5.759  36.039  14.486
76179W        W48472  11.166  31.579  11.035
76180W        W48473  35.470  22.198  11.084
76181W        W48474   4.238  22.683   3.267
76182W        W48475   7.670   0.451   1.353
76183W        W48476  16.240  16.729   4.214
76184W        W48477  41.851  21.226   0.823
76185W        W48478  20.687  23.523   2.844
76186W        W48479  24.503   3.371   2.387
76187W        W48480  37.980  32.896  11.538
76188W        W48481   5.382   8.829   2.249
76189W        W48482   6.684  12.681   1.856
76190W        W48483  43.444   0.835  11.939
76191W        W48484  31.585  37.948   1.408
76192W        W48485  35.871  41.300   2.844
76193W        W48486  32.103  33.472   5.249
76194W        W48487  35.933  19.062  13.828
76195W        W48488  10.185  13.278  12.409
76196W        W48489  13.677  21.578   0.314
76197W        W48490  23.513  42.785   0.460
76198W        W48491  40.852  21.727  13.812
76199W        W48492   0.380  26.650   1.801
76200W        W48493  35.025  38.945   0.842
76201W        W48494  28.109   3.757  13.477
76202W        W48495  37.945  10.237   4.292
76203W        W48496  29.483  25.973   1.933
76204W        W48497  23.630  15.716   3.318
76205W        W48498  34.005  28.957   4.682
76206W        W48499  15.739  29.930  11.441
76207W        W48500  15.318  37.930  14.507
76208W        W48501  31.023  43.417  10.465
76209W        W48502  35.562  10.650  12.987
76210W        W48503  27.538   9.857   4.695
76211W        W48504  40.003  35.865  12.442
76212W        W48505  33.452   6.256   5.230
76213W        W48506   2.432  23.635  11.876
76214W        W48507   7.183  29.471  10.957
76215W        W48508  26.512   2.375  14.888
76216W        W48509   2.927  34.954   3.801
76217W        W48510  18.114  15.751  13.848
76218W        W48511  40.339   7.720  12.345
76219W        W48512  23.717  26.498   2.807
76220W        W48513   8.748  20.161  12.376
76221W        W48514  10.377  43.468   5.136
76222W        W48515  23.988  18.660   4.159
76223W        W48516  12.131  21.625   3.347
76224W        W48517  36.492  37.492   4.730
76225W        W48518   0.257  18.665   0.804
76226W        W48519   9.307  10.225   2.794
76227W        W48520  32.968  29.082  11.987
76228W        W48521  40.997  19.681  10.414
76229W        W48522  28.597  39.844  11.856
76230W        W48523  37.047  27.147   2.319
76231W        W48524   7.177   7.368  13.488
76232W        W48525  14.103  18.182  11.997
76233W        W48526  39.371  20.533   1.384
76234W        W48527  38.342   8.738  13.322
76235W        W48528  41.845   8.354  12.997
76236W        W48529  37.893  37.070  12.839
76237W        W48530  37.496  10.717  13.931
76238W        W48531  41.321  40.826   1.397
76239W        W48532   6.721  43.317   1.696
76240W        W48533   1.799  24.222   4.692
76241W        W48534  12.241  16.206  13.981
76242W        W48535   8.339  13.122   2.409
76243W        W48536  44.428  33.449   1.246
76244W        W48537  22.639   0.767  13.313
76245W        W48538  34.455  20.186  13.813
76246W        W48539   9.715  39.506  13.849
76247W        W48540  39.412  28.073   3.645
76248W        W48541  28.990  43.441   3.152
76249W        W48542   4.364  20.171  14.832
76250W        W48543  15.135   0.949   2.212
76251W        W48544  24.515   2.362   1.704
76252W        W48545   8.754   6.314   3.219
76253W        W48546   9.386  25.616   4.308
76254W        W48547   0.759  11.831   1.913
76255W        W48548  18.544   5.284  12.369
76256W        W48549  22.646  10.653  13.879
76257W        W48550   4.788  31.961  12.088
76258W        W48551  31.101   6.198   3.334
76259W        W48552  15.190  41.874   0.792
76260W        W48553  27.949  11.680   4.697
76261W        W48554  29.961  35.539  14.772
76262W        W48555  28.465  26.206  11.407
76263W        W48556  42.439  21.684   1.895
76264W        W48557   1.743   6.746   2.372
76265W        W48558  25.677  14.137   4.182
76266W        W48559  20.522  26.113  12.554
76267W        W48560   8.691  39.410   3.794
76268W        W48561  33.525   0.345   2.801
76269W        W48562  39.376   8.750  13.516
76270W        W48563  31.493  21.687   2.838
76271W        W48564   8.811  17.155  11.407
76272W        W48565  16.733  20.683  11.067
76273W        W48566  18.085  40.896  12.362
76274W        W48567  25.115   8.755  11.015
76275W        W48568  29.529  14.245   1.364
76276W        W48569  14.663  20.533  14.313
76277W        W48570  11.312   1.883   0.809
76278W        W48571  10.369  34.431  13.994
76279W        W48572  20.742  22.679   1.335
76280W        W48573   5.692  23.191  13.364
76281W        W48574  27.097  29.494  11.517
76282W        W48575   1.427  42.313  12.011
76283W        W48576  24.037   8.348   0.958
76284W        W48577  27.084  19.132   3.186
76285W        W48578  39.061  30.484  12.012
76286W        W48579   4.206  21.685   1.424
76287W        W48580  36.069  21.208   3.759
76288W        W48581  40.863  22.053  14.808
76289W        W48582  25.486  21.750  13.802
76290W        W48583   6.266  11.256   4.618
76291W        W48584  17.659  13.215  11.448
76292W        W48585  31.572  10.865  14.841
76293W        W48586  41.937   7.675  11.508
76294W        W48587  19.573  33.424   4.646
76295W        W48588  11.775  24.701  14.281
76296W        W48589  19.743  13.108  14.768
76297W        W48590   1.453  43.864  12.894
76298W        W48591  28.996  32.904   4.601
76299W        W48592  29.071  29.505  13.933
76300W        W48593   8.721  12.843   2.682
76301W        W48594   8.843  26.114   3.739
76302W        W48595  44.269   8.259   9.940
76303W        W48596  26.468  21.597   4.667
76304W        W48597  35.436  27.613   4.296
76305W        W48598  43.799  17.744  12.386
76306W        W48599   5.861  11.827   1.394
76307W        W48600  18.704  35.103   4.191
76308W        W48601  36.548  31.151  14.458
76309W        W48602  12.715  36.945   4.158
76310W        W48603  10.335  25.174   3.355
76311W        W48604  40.823  30.059   3.818
76312W        W48605  38.853  27.671  12.079
76313W        W48606   5.213  30.459  12.830
76314W        W48607  39.476  38.945   4.303
76315W        W48608   7.745  43.494  14.506
76316W        W48609   7.188  35.603  14.380
76317W        W48610   9.254   2.452  14.516
76318W        W48611  24.978  31.959   3.158
76319W        W48612  16.117   1.291   3.277
76320W        W48613  42.292  24.185   1.240
76321W        W48614  36.955  31.433  12.997
76322W        W48615  32.889  41.892  13.999
76323W        W48616  37.494  42.833  14.425
76324W        W48617  41.865  44.447   3.301
76325W        W48618  18.271  24.516  11.880
76326W        W48619  22.556  43.406   0.828
76327W        W48620  14.762   7.181  14.367
76328W        W48621   3.753  42.454  10.405
76329W        W48622  15.175  16.783  13.940
76330W        W48623  10.797  32.585  14.938
76331W        W48624  26.613   0.752  14.777
76332W        W48625  23.588  37.892  12.889
76333W        W48626  12.792  34.040  10.985
76334W        W48627  11.732  21.537   4.756
76335W        W48628  23.733  18.783  11.896
76336W        W48629  34.901  34.020   3.221
76337W        W48630  31.456  39.546  13.054
76338W        W48631   2.927  40.346   1.395
76339W        W48632  36.385  43.338   1.821
76340W        W48633  34.419  33.950  11.516
76341W        W48634  36.981  44.486  14.384
76342W        W48635  37.083  10.260  13.441
76343W        W48636  22.112  35.519   0.924
76344W        W48637  43.475  31.461  12.905
76345W        W48638  40.484   6.421   4.796
76346W        W48639   0.871  23.094   3.826
76347W        W48640  34.415  32.957  14.305
76348W        W48641  19.663   9.729  11.534
76349W        W48642  38.552  44.301   9.995
76350W        W48643  21.635  44.319  10.427
76351W        W48644  34.391   8.896   4.741
76352W        W48645  17.709  41.341   0.794
76353W        W48646   6.328  18.064   1.891
76354W        W48647  31.604  39.552   4.647
76355W        W48648  14.123   0.929   2.242
76356W        W48649  33.386  10.199  10.018
76357W        W48650  35.392   8.825   1.740
76358W        W48651  30.565   5.896  13.994
76359W        W48652  13.804  18.546  13.521
76360W        W48653  15.085  11.197  10.443
76361W        W48654  36.026  10.364  11.862
76362W        W48655  19.173   9.205  14.871
76363W        W48656  40.035   9.298  11.582
76364W        W48657  28.539  21.528  13.804
76365W        W48658  14.672  29.506  14.491
76366W        W48659  21.642  20.593   3.165
76367W        W48660  21.236  39.466  14.431
76368W        W48661  31.494   8.247   0.289
76369W        W48662   2.808  44.923  10.627
76370W        W48663  16.609   5.225   1.904
76371W        W48664   5.786  36.484  10.506
76372W        W48665   3.790  24.587  12.984
76373W        W48666   9.380  43.926   4.803
76374W        W48667   9.735  26.624   2.334
76375W        W48668   3.758  38.897   4.625
76376W        W48669   9.818  25.518  12.440
76377W        W48670  32.102  36.565  10.973
76378W        W48671   2.407  40.348  14.031
76379W        W48672  40.413   0.921   4.724
76380W        W48673  38.538  32.429   3.266
76381W        W48674  42.430  16.712   2.743
76382W        W48675  35.429  24.129  13.466
76383W        W48676  14.667  17.135  13.456
76384W        W48677   4.262  28.082  10.520
76385W        W48678   9.382   9.787   0.479
76386W        W48679  18.766  31.413  10.974
76387W        W48680  10.861  32.103   3.793
76388W        W48681  10.801   4.355  14.290
76389W        W48682  11.338  15.164  12.363
76390W        W48683  17.723   4.713  12.918
76391W        W48684   6.415  12.851  11.960
76392W        W48685  30.004   0.352  14.847
76393W        W48686  42.472  40.374  14.822
76394W        W48687  32.945  20.106  10.970
76395W        W48688  41.865  42.786   1.376
76396W        W48689  39.536  12.770  10.975
76397W        W48690  27.172  13.794   0.409
76398W        W48691  30.957  11.228  13.810
76399W        W48692   6.885  10.809  14.408
76400W        W48693  42.312  16.273   0.892
76401W        W48694  25.579  13.219  11.543
76402W        W48695  19.710  19.119   1.307
76403W        W48696  22.224   1.312  14.866
76404W        W48697  43.342  40.862  14.364
76405W        W48698   8.248  16.073   4.720
76406W        W48699  25.578  26.069  10.427
76407W        W48700  41.462   0.449  11.606
76408W        W48701   4.755  32.947   4.748
76409W        W48702  18.709   0.377   0.281
76410W        W48703  28.509  44.867   4.645
76411W        W48704  39.845   4.438   0.330
76412W        W48705  27.480  15.801   3.760
76413W        W48706  26.154  35.032   0.846
76414W        W48707   3.775  43.856  11.104
76415W        W48708  26.103  12.776   4.170
76416W        W48709   1.438   9.272   1.292
76417W        W48710  23.097   4.423  10.912
76418W        W48711  15.116  11.742  13.354
76419W        W48712  22.626  12.787  14.423
76420W        W48713  40.546  16.100  13.448
76421W        W48714  24.139  26.611   4.147
76422W        W48715  18.634  16.166   3.684
76423W        W48716  14.117   0.316  14.926
76424W        W48717   1.367  11.293  12.435
76425W        W48718  34.999  35.984  10.051
76426W        W48719   8.247  43.416   0.816
76427W        W48720  43.795   6.875   1.884
76428W        W48721  38.379  19.129   3.173
76429W        W48722  26.164   9.188   2.858
76430W        W48723  44.369  39.000  11.527
76431W        W48724  11.352  28.953   4.678
76432W        W48725  22.518  24.204  11.536
76433W        W48726  39.843  11.254  13.455
76434W        W48727  30.945   4.412   2.345
76435W        W48728  39.850  35.402   4.805
76436W        W48729  22.525  15.666   1.875
76437W        W48730  30.645  20.225   1.366
76438W        W48731   9.697   8.699   5.265
76439W        W48732  16.604   0.296  14.484
76440W        W48733  24.013   2.900   1.760
76441W        W48734  10.733  33.036  13.977
76442W        W48735  33.515  24.031   3.249
76443W        W48736  29.145   1.910  12.066
76444W        W48737   5.919  32.463  11.094
76445W        W48738  28.596  33.014  13.536
76446W        W48739   5.711  24.060  14.025
76447W        W48740  11.800  34.975  13.882
76448W        W48741  41.338  34.926  11.395
76449W        W48742  16.073  17.228  11.523
76450W        W48743   1.785  18.287   2.319
76451W        W48744   4.908  18.192  13.867
76452W        W48745  37.897  19.143  11.601
76453W        W48746  44.261  16.128  11.954
76454W        W48747   4.850  18.227  11.027
76455W        W48748  25.968   5.745  14.332
76456W        W48749  35.881   6.870  11.109
76457W        W48750  35.923  40.893  13.363
76458W        W48751  33.896  18.692   3.360
76459W        W48752  24.176  38.985  13.977
76460W        W48753  43.772  29.003   0.410
76461W        W48754  34.096   5.749   1.852
76462W        W48755  26.671  18.781  12.963
76463W        W48756  38.932  30.645   4.599
76464W        W48757  11.717  40.049   3.705
76465W        W48758  29.936   3.752  14.996
76466W        W48759  19.539   6.718  11.454
76467W        W48760  36.468  43.431   2.821
76468W        W48761  13.257   4.395   3.722
76469W        W48762   4.357  22.250  13.469
76470W        W48763  42.954  13.697   2.877
76471W        W48764  30.145  30.513  11.371
76472W        W48765  25.998   8.845  10.407
76473W        W48766  16.618  38.479  11.024
76474W        W48767  13.192   5.274  14.808
76475W        W48768  26.152  25.696  14.359
76476W        W48769  26.678   5.371   3.769
76477W        W48770   1.892   2.958   0.912
76478W        W48771  40.323  23.240  10.997
76479W        W48772   0.776  11.353   1.269
76480W        W48773  17.242   8.363  11.931
76481W        W48774  12.290   8.272  13.438
76482W        W48775  38.361  22.052   2.406
76483W        W48776  40.510  21.060   5.148
76484W        W48777  35.975   6.243   4.745
76485W        W48778  43.447  31.518  11.461
76486W        W48779  13.219   7.767  14.803
76487W        W48780  40.386  44.379   4.294
76488W        W48781  13.691   4.702  12.903
76489W        W48782  18.133  11.696  12.394
76490W        W48783  10.791   5.784   3.269
76491W        W48784  32.142  19.158   0.901
76492W        W48785  37.505  27.106   4.307
76493W        W48786   6.769  39.973   2.380
76494W        W48787  17.212  34.894   5.190
76495W        W48788  10.332  38.389   0.267
76496W        W48789  21.592   5.736  14.820
76497W        W48790  20.754  26.030   0.273
76498W        W48791  18.687  19.211  13.937
76499W        W48792  27.691  23.666   4.206
76500W        W48793  10.812  28.606   1.311
76501W        W48794  44.482  27.482   0.284
76502W        W48795  37.856   9.343   0.913
76503W        W48796  41.536  22.109   2.217
76504W        W48797  34.888   7.304   3.297
76505W        W48798  12.176   7.779  14.761
76506W        W48799  43.461  28.468   2.419
76507W        W48800  39.531  18.241  12.408
76508W        W48801   6.384  13.679  12.824
76509W        W48802  23.611   0.830   2.378
76510W        W48803  38.833  26.485  11.092
76511W        W48804  40.372   6.367  11.916
76512W        W48805   2.803  10.336  14.402
76513W        W48806  24.621  43.315  14.925
76514W        W48807   9.821  39.393  11.048
76515W        W48808  12.737  13.735   0.758
76516W        W48809   2.282  40.308  11.986
76517W        W48810  12.165  32.067  14.771
76518W        W48811  32.983  10.656   2.329
76519W        W48812  38.966  40.803   4.779
76520W        W48813  26.127  13.269   1.235
76521W        W48814  38.946  11.756  13.877
76522W        W48815   6.767  36.562   2.262
76523W        W48816  38.964  30.621  12.463
76524W        W48817  23.553  30.908  10.404
76525W        W48818  25.529  25.713  12.911
76526W        W48819  23.643  30.157   0.950
76527W        W48820  21.599   8.241   4.705
76528W        W48821  21.691  37.949   2.216
76529W        W48822  44.364  39.913   3.254
76530W        W48823  38.976   5.881  10.117
76531W        W48824  31.038  26.075   2.730
76532W        W48825  34.602   8.694   2.815
76533W        W48826   2.367  31.498  10.539
76534W        W48827   0.343   7.199  10.425
76535W        W48828   1.410  27.445  11.450
76536W        W48829  28.950   7.777   3.181
76537W        W48830  44.489  14.727  11.981
76538W        W48831  27.532   0.971   3.725
76539W        W48832   7.723  22.681   3.296
76540W        W48833  33.037   2.367  10.918
76541W        W48834  23.584  22.599   2.792
76542W        W48835   4.254  31.494   1.420
76543W        W48836  33.416   8.190  14.986
76544W        W48837  44.269   3.266   1.817
76545W        W48838  44.404   0.365   0.830
76546W        W48839  26.635  30.415   3.290
76547W        W48840   7.876  37.952   0.397
76548W        W48841  40.042   5.404  13.904
76549W        W48842  38.882  41.906  11.602
76550W        W48843   8.305   0.833   0.757
76551W        W48844   6.701   6.309   3.859
76552W        W48845  23.631  36.017  10.457
76553W        W48846  18.787   2.316   4.755
76554W        W48847  15.320  28.130   2.694
76555W        W48848  13.247  37.428   4.729
76556W        W48849  38.366  44.488   2.384
76557W        W48850  34.919  22.008  11.596
76558W        W48851  14.713  40.862  10.485
76559W        W48852   4.326   2.891   4.631
76560W        W48853  42.859  15.582  11.460
76561W        W48854   2.350   8.295   2.834
76562W        W48855  42.387  14.645   0.373
76563W        W48856  11.173  26.499   3.723
76564W        W48857  24.605  11.314  12.884
76565W        W48858  40.524  36.394   0.390
76566W        W48859  20.549  13.772   1.775
76567W        W48860   3.317  29.523  10.544
76568W        W48861  36.959  25.201   0.297
76569W        W48862  10.144  33.926   2.240
76570W        W48863  14.316  43.377   1.841
76571W        W48864  26.629   0.390  11.372
76572W        W48865  19.284  40.326  12.460
76573W        W48866  14.752  42.423  14.778
76574W        W48867  17.686  12.256  10.538
76575W        W48868  34.986  18.627   3.697
76576W        W48869  42.986  41.000   2.396
76577W        W48870  18.178  16.675   3.206
76578W        W48871  19.239  35.097   1.759
76579W        W48872  35.094  20.103   0.392
76580W        W48873   6.725  14.177  12.891
76581W        W48874   6.404   3.917  14.000
76582W        W48875  40.404  37.927   0.818
76583W        W48876  14.833  17.296   1.774
76584W        W48877  37.016   3.346   1.405
76585W        W48878  18.245  12.838   1.706
76586W        W48879  28.500  24.563   3.717
76587W        W48880  25.060  34.415  12.005
76588W        W48881  26.566  44.367  11.939
76589W        W48882  32.424  26.142   4.322
76590W        W48883  26.625  35.435   3.341
76591W        W48884  36.415  19.176  13.986
76592W        W48885   6.799  32.430   3.714
76593W        W48886  31.101  17.768   0.374
76594W        W48887  29.445  21.219   4.355
76595W        W48888   9.257  13.674   4.747
76596W        W48889  15.106   0.944   1.287
76597W        W48890  17.797   6.805   0.294
76598W        W48891  30.447   2.808  10.629
76599W        W48892  31.523  39.971   0.862
76600W        W48893  43.417  28.451  14.781
76601W        W48894  36.460   4.725  14.331
76602W        W48895   1.944  42.475   3.218
76603W        W48896   1.432  26.207   2.256
76604W        W48897  14.273   1.763   3.773
76605W        W48898  32.031  41.402   3.662
76606W        W48899  10.356  26.966   0.847
76607W        W48900  30.997  24.997   4.607
76608W        W48901  40.351  17.555   1.272
76609W        W48902   7.795  11.211  14.989
76610W        W48903  10.681  31.543   4.648
76611W        W48904  16.793   8.868  13.451
76612W        W48905  19.607  17.754  13.033
76613W        W48906  16.173  18.627  11.004
76614W        W48907   2.808  39.862  14.425
76615W        W48908  36.559  23.085   2.896
76616W        W48909  42.998  43.389   2.707
76617W        W48910   8.838  27.026  14.830
76618W        W48911  21.104  20.138  14.420
76619W        W48912  36.529  33.383   0.814
76620W        W48913   5.793  11.341  10.942
76621W        W48914  25.649   6.708   1.831
76622W        W48915  23.132  13.780   3.854
76623W        W48916   8.670  35.003  11.855
76624W        W48917   3.375  22.500  13.897
76625W        W48918  14.235  12.200   1.268
76626W        W48919  34.428  31.639   3.772
76627W        W48920  15.766   4.699  11.528
76628W        W48921  38.923  17.636  11.537
76629W        W48922  23.608  44.770  11.933
76630W        W48923  26.510  26.961   0.918
76631W        W48924  11.712  27.461   1.291
76632W        W48925   2.924  32.006  13.931
76633W        W48926  29.162   8.750   0.401
76634W        W48927  41.339   0.312  14.375
76635W        W48928  38.447  41.399  14.301
76636W        W48929   0.375  15.117  10.505
76637W        W48930   5.254  28.093   1.390
76638W        W48931  35.961  43.480  12.005
76639W        W48932  33.056  27.509  11.555
76640W        W48933  10.336   3.278   3.234
76641W        W48934   2.757  37.055  13.425
76642W        W48935  30.061  10.195  11.024
76643W        W48936  30.007  15.658   1.363
76644W        W48937  35.417  37.929  14.290
76645W        W48938  20.167  43.961   1.732
76646W        W48939  40.020  30.046  14.962
76647W        W48940  25.153  39.490  12.834
76648W        W48941  42.996  19.570   5.730
76649W        W48942  33.568  38.329   1.853
76650W        W48943  31.897  42.999   2.743
76651W        W48944  17.075  15.656  11.906
76652W        W48945   1.283  35.855   2.675
76653W        W48946  34.972  30.052   4.711
76654W        W48947  38.937  16.706   2.241
76655W        W48948  44.421   4.284  14.848
76656W        W48949  42.442   6.265  11.896
76657W        W48950  38.398  22.126  13.802
76658W        W48951  33.131  29.095  10.583
76659W        W48952  11.666  42.434  11.894
76660W        W48953  24.630  39.459   0.873
76661W        W48954   1.913  31.988   1.362
76662W        W48955  11.793  44.491   1.777
76663W        W48956  10.236   4.315  13.896
76664W        W48957  14.121  26.141   4.352
76665W        W48958  20.262  26.109  14.380
76666W        W48959   8.277   5.906   0.800
76667W        W48960  32.405  44.871  11.456
76668W        W48961  42.327  36.581   1.778
76669W        W48962  27.077  10.246   4.183
76670W        W48963  23.997  36.900   3.867
76671W        W48964  20.671  12.345  13.804
76672W        W48965  21.126  14.195   1.735
76673W        W48966  31.562   5.264  11.066
76674W        W48967  20.230  19.535   0.789
76675W        W48968  25.691  20.228  10.578
76676W        W48969  27.626  44.264  11.093
76677W        W48970   0.486  36.397  13.893
76678W        W48971  35.503  29.924   3.731
76679W        W48972  30.554  23.225  13.826
76680W        W48973  35.938  31.451   0.874
76681W        W48974   5.418  32.057   2.799
76682W        W48975   0.918  19.204  11.910
76683W        W48976   5.688   3.358   4.783
76684W        W48977  30.056  42.332  13.330
76685W        W48978   2.963   9.783   2.895
76686W        W48979  16.089   7.837   0.853
76687W        W48980   1.943  15.126  10.623
76688W        W48981  23.212  23.538   0.386
76689W        W48982  34.544  33.390  14.349
76690W        W48983  32.082  14.715   5.239
76691W        W48984  33.471  10.807   0.898
76692W        W48985  29.481  35.034   0.756
76693W        W48986  38.398  41.488  12.909
76694W        W48987  40.383  31.007   3.148
76695W        W48988  34.083  12.280   2.367
76696W        W48989   6.278  37.552  11.503
76697W        W48990  22.744   6.703   2.357
76698W        W48991  33.536  38.870  10.573
76699W        W48992  39.436  37.875   0.919
76700W        W48993  38.061  14.116   0.733
76701W        W48994  32.970  11.155  12.859
76702W        W48995   4.868  18.074   0.362
76703W        W48996  27.607  11.243   4.817
76704W        W48997  14.265  41.336   4.757
76705W        W48998  42.468  13.813  11.578
76706W        W48999  13.817  33.626   0.774
76707W        W49000   6.399   0.294  12.014
76708W        W49001  30.421  21.184   0.355
76709W        W49002  20.631  35.894   2.839
76710W        W49003  39.448  38.863   1.912
76711W        W49004  15.189   2.251  12.004
76712W        W49005  26.467  44.883   1.700
76713W        W49006  15.327   4.290   5.164
76714W        W49007  28.950   0.760   1.404
76715W        W49008  15.142  25.021   1.893
76716W        W49009  20.044  33.546  10.514
76717W        W49010  17.597  42.997  11.110
76718W        W49011  30.976  38.865  10.606
76719W        W49012  33.004  13.314   0.474
76720W        W49013  19.673  10.365   2.232
76721W        W49014  17.746  39.478  14.378
76722W        W49015  22.063   9.681   0.288
76723W        W49016   9.266  40.960   3.384
76724W        W49017  24.103  31.624   0.248
76725W        W49018   8.794  24.487  11.561
76726W        W49019  41.842  39.965   1.858
76727W        W49020  18.567   0.784  14.440
76728W        W49021  44.857  40.449  10.127
76729W        W49022   7.911  31.912  11.567
76730W        W49023  20.251  25.132   0.808
76731W        W49024   8.868  25.990  12.855
76732W        W49025  23.007  22.074   3.768
76733W        W49026  38.940  13.729  14.327
76734W        W49027  41.512  12.794   1.271
76735W        W49028  25.082  13.323   0.769
76736W        W49029   0.925   8.396   0.793
76737W        W49030  29.129   2.753  14.287
76738W        W49031  37.070  16.576  13.007
76739W        W49032  16.745  41.907   2.699
76740W        W49033   8.789  38.553   1.295
76741W        W49034  24.496  33.922  11.865
76742W        W49035   8.765  25.219   3.295
76743W        W49036  30.982  39.394   3.730
76744W        W49037   3.310  27.621   2.232
76745W        W49038   7.886  28.555   0.948
76746W        W49039  39.931   5.698   4.181
76747W        W49040  37.377   5.420   3.849
76748W        W49041  18.153  23.526   4.236
76749W        W49042  42.010  33.609   4.633
76750W        W49043  13.756  23.030  13.375
76751W        W49044  32.990  26.469  11.945
76752W        W49045  13.838  30.546  13.969
76753W        W49046   1.907  31.995   3.373
76754W        W49047  32.593  31.494  10.639
76755W        W49048  14.612   7.192   1.350
76756W        W49049  26.687  13.641   1.254
76757W        W49050  20.174  12.799  11.082
76758W        W49051   7.901  13.793   3.189
76759W        W49052   3.342  18.099   0.265
76760W        W49053  17.167  32.524   2.702
76761W        W49054  38.897  20.107   2.893
76762W        W49055  26.993   5.802   3.686
76763W        W49056  21.643  14.661   0.924
76764W        W49057  37.966  14.626   1.346
76765W        W49058  26.497  20.698  12.851
76766W        W49059   5.890  20.614   2.735
76767W        W49060  24.643  15.317   2.193
76768W        W49061  16.708  27.587   0.419
76769W        W49062  12.331  34.608   0.296
76770W        W49063  20.207   5.723  14.347
76771W        W49064  41.334  38.450  14.401
76772W        W49065  34.964  18.075  13.997
76773W        W49066   0.442  42.356  10.429
76774W        W49067  11.243  26.573  11.578
76775W        W49068  14.825  25.195  13.794
76776W        W49069  40.507   7.215  14.443
76777W        W49070  32.534  26.597  10.587
76778W        W49071  10.773  41.911   1.863
76779W        W49072  31.470   6.230  10.949
76780W        W49073  36.387   7.871  10.909
76781W        W49074  20.528  20.164   4.729
76782W        W49075  27.151  12.616   2.414
76783W        W49076   2.333  42.508   3.714
76784W        W49077  22.696  39.398   0.386
76785W        W49078  25.045  29.166  14.492
76786W        W49079  13.230  38.880   1.793
76787W        W49080  14.806  44.397  10.595
76788W        W49081  22.996   0.445   1.784
76789W        W49082   9.294  21.245   3.198
76790W        W49083  29.591  13.146   1.422
76791W        W49084  26.099  11.821   3.732
76792W        W49085  25.004  36.447   5.219
76793W        W49086  12.774  16.620  10.577
76794W        W49087  42.903  22.014  13.006
76795W        W49088  31.422  13.299  12.996
76796W        W49089  11.217  20.226  10.925
76797W        W49090   8.197   9.231   4.613
76798W        W49091  28.079   1.823  10.055
76799W        W49092  14.160  42.400  11.494
76800W        W49093  13.843   1.741   0.291
76801W        W49094  11.131  39.062   1.891
76802W        W49095  40.976  14.692   3.699
76803W        W49096   4.219  17.209  12.923
76804W        W49097  30.011  29.102   2.795
76805W        W49098  39.842   5.916   3.376
76806W        W49099  35.481  18.760   2.796
76807W        W49100  16.177  20.759  11.126
76808W        W49101  41.838   3.239   1.860
76809W        W49102  25.076   4.701   2.722
76810W        W49103  20.107   1.739  12.412
76811W        W49104   8.238  44.367  11.469
76812W        W49105  18.180   0.837  11.057
76813W        W49106   5.863  10.358   1.736
76814W        W49107  15.687  18.131  13.969
76815W        W49108  39.525  28.109   1.239
76816W        W49109  19.232  31.548   4.335
76817W        W49110  42.845  13.656  13.968
76818W        W49111  15.604  12.756  12.911
76819W        W49112  31.540  19.592  12.039
76820W        W49113   0.379  15.260  13.371
76821W        W49114  22.235   5.697  11.059
76822W        W49115  20.539  21.229   0.376
76823W        W49116  33.013  31.129  11.866
76824W        W49117  27.969  12.675  10.579
76825W        W49118  43.311  10.162   1.842
76826W        W49119  38.002  28.543   3.177
76827W        W49120  10.706   3.345  14.960
76828W        W49121  20.105  20.211   0.927
76829W        W49122  24.595  26.013  11.108
76830W        W49123  13.608  10.312   1.220
76831W        W49124  37.524  21.097  11.058
76832W        W49125  34.550  13.335   3.794
76833W        W49126  36.440  10.226  14.842
76834W        W49127   1.355  41.453   1.876
76835W        W49128  39.547  30.969  10.516
76836W        W49129  30.942   4.381  14.404
76837W        W49130  44.486  28.152  12.409
76838W        W49131  14.765  14.617   3.738
76839W        W49132  27.030  41.791  14.376
76840W        W49133  16.742  22.117  10.609
76841W        W49134  26.205  14.613   0.779
76842W        W49135  22.202   2.236   1.235
76843W        W49136  33.534  34.543   0.826
76844W        W49137  23.554  44.787  12.498
76845W        W49138  26.193  30.549  14.357
76846W        W49139  26.621  39.995   3.264
76847W        W49140  29.969  41.963   3.319
76848W        W49141  19.277  35.071   4.677
76849W        W49142  31.402  43.011  14.412
76850W        W49143   6.367  11.633  14.355
76851W        W49144  34.523   7.313   4.115
76852W        W49145   0.492  39.873   0.446
76853W        W49146  19.668  10.316   9.935
76854W        W49147  31.119  43.976   0.415
76855W        W49148  41.404  13.242   2.348
76856W        W49149   9.811  31.598   1.785
76857W        W49150  18.673  25.079  10.432
76858W        W49151   1.337  37.935  12.074
76859W        W49152  12.680   0.442   0.816
76860W        W49153  24.224  26.057  10.479
76861W        W49154   0.818  21.184  12.911
76862W        W49155  29.946  18.786   0.255
76863W        W49156  23.710   0.902   1.826
76864W        W49157  22.135  11.768   3.207
76865W        W49158  33.589   7.409  13.951
76866W        W49159  18.672  32.999   2.235
76867W        W49160   6.680   6.900   2.765
76868W        W49161   5.333  27.628   2.778
76869W        W49162  34.055  21.517   2.844
76870W        W49163  14.191  40.954   4.229
76871W        W49164  41.987   9.390   2.264
76872W        W49165  10.229  40.925   0.386
76873W        W49166  28.036  34.371  12.392
76874W        W49167  25.118  13.195   1.812
76875W        W49168  26.066  37.471   0.371
76876W        W49169  24.530   2.399   9.997
76877W        W49170  18.146  37.523   3.358
76878W        W49171  23.202   1.952   4.711
76879W        W49172  33.380   9.327  14.936
76880W        W49173   8.865   8.754  13.392
76881W        W49174  10.824  19.151   0.329
76882W        W49175   8.748  18.704   0.271
76883W        W49176   0.928  29.162   4.188
76884W        W49177  42.928  35.989   4.283
76885W        W49178   7.719  27.610   2.684
76886W        W49179  10.809  11.370   2.727
76887W        W49180  30.473  36.954   0.924
76888W        W49181  42.916  12.774  12.536
76889W        W49182  27.195   8.218  12.504
76890W        W49183  37.417  28.531  12.556
76891W        W49184  12.279   3.244   1.854
76892W        W49185  32.470  39.958   1.795
76893W        W49186  31.047  35.544  12.517
76894W        W49187   1.910  41.947   4.777
76895W        W49188  33.963  42.486   3.694
76896W        W49189  32.512  35.581   3.690
76897W        W49190  23.522  21.556  10.907
76898W        W49191   7.283  14.753  14.924
76899W        W49192  24.169  26.500   3.232
76900W        W49193  33.120  40.851   2.389
76901W        W49194  20.060   0.947  13.902
76902W        W49195  30.529  29.061   1.854
76903W        W49196  14.711   3.279   0.374
76904W        W49197  31.513  37.386   1.750
76905W        W49198  43.490  20.670  13.842
76906W        W49199   4.436  28.658   3.273
76907W        W49200   1.767  18.550  13.907
76908W        W49201  42.308   9.251   2.766
76909W        W49202  28.519  43.848  12.536
76910W        W49203  22.508  22.731   5.129
76911W        W49204  29.639  43.474   1.884
76912W        W49205   7.319   7.695   1.270
76913W        W49206  38.971   4.368   4.312
76914W        W49207  36.073  25.540   1.917
76915W        W49208   5.735   8.396   2.329
76916W        W49209  19.236  12.737  12.853
76917W        W49210  37.056  27.027  14.369
76918W        W49211  10.649  14.192   3.689
76919W        W49212  22.655  11.305  11.994
76920W        W49213  14.242  25.161   2.878
76921W        W49214  23.208  35.522  13.529
76922W        W49215  44.913  17.710   1.445
76923W        W49216  16.611  28.479   1.728
76924W        W49217   1.945  44.934  14.801
76925W        W49218   4.212  17.665   2.833
76926W        W49219  18.090   2.870  13.890
76927W        W49220  44.966  26.005  14.356
76928W        W49221  30.544  10.376   9.635
76929W        W49222   9.233  19.067   1.350
76930W        W49223  10.786  21.140  12.090
76931W        W49224  33.067   6.271   1.895
76932W        W49225   1.900   3.298  13.470
76933W        W49226  19.718  43.954  11.970
76934W        W49227  43.019  25.077  11.909
76935W        W49228   9.360   7.888   4.767
76936W        W49229   1.835  31.124  13.314
76937W        W49230  15.728  31.626  11.099
76938W        W49231  35.855  43.785   4.351
76939W        W49232  29.063  37.437  14.975
76940W        W49233  32.128  32.073  14.466
76941W        W49234  28.566  27.492  13.059
76942W        W49235  38.920  11.128  10.610
76943W        W49236  32.007   6.264  14.956
76944W        W49237   0.417  31.527  10.454
76945W        W49238  30.910  38.482  11.883
76946W        W49239  32.505  28.506  13.325
76947W        W49240  42.789  30.084   3.686
76948W        W49241  24.090  40.379  11.040
76949W        W49242  41.366   1.813   4.779
76950W        W49243  33.888  33.618   1.844
76951W        W49244   6.913  17.653   3.631
76952W        W49245  30.532   7.912  13.487
76953W        W49246   2.365  24.159   2.834
76954W        W49247  40.950  35.975  11.409
76955W        W49248  38.469   1.816   2.795
76956W        W49249   8.847   2.936   3.176
76957W        W49250   3.284  20.258  10.901
76958W        W49251   1.441  26.068  12.489
76959W        W49252  14.183  26.050   3.384
76960W        W49253   7.900  39.883  13.892
76961W        W49254  20.737   7.281  11.928
76962W        W49255  25.117   0.330  14.816
76963W        W49256  23.717  33.616   0.832
76964W        W49257  44.346  40.376   1.375
76965W        W49258  30.529  34.386   2.768
76966W        W49259  16.653   5.386  12.454
76967W        W49260  22.227  43.447   4.235
76968W        W49261  22.244   1.853  14.914
76969W        W49262  41.472  19.737  13.477
76970W        W49263   5.193  33.586   4.680
76971W        W49264   8.304  40.532   1.310
76972W        W49265  26.692   9.769  14.994
76973W        W49266  31.638  23.118  11.046
76974W        W49267   6.281   2.963  10.984
76975W        W49268  23.186  11.805   1.286
76976W        W49269  38.878  31.628  12.499
76977W        W49270  12.668  26.018  11.495
76978W        W49271  14.288  16.710   2.688
76979W        W49272  30.158   2.279   0.358
76980W        W49273  21.214  43.970  12.873
76981W        W49274  25.710   6.393  10.054
76982W        W49275  28.137  40.440   0.750
76983W        W49276  13.251  36.928  14.505
76984W        W49277   5.243  37.916  14.429
76985W        W49278  41.333  25.027   2.720
76986W        W49279   1.941   5.805   1.736
76987W        W49280  36.388  11.650  13.870
76988W        W49281  10.741   5.924  12.580
76989W        W49282  40.017  27.484  14.465
76990W        W49283  29.516  17.795   1.820
76991W        W49284  25.709  13.228  13.881
76992W        W49285  24.059  42.952   1.369
76993W        W49286  33.597   0.983  14.982
76994W        W49287  34.514  27.166  12.060
76995W        W49288   3.272  28.084   1.261
76996W        W49289  23.156   4.439  12.892
76997W        W49290  29.491   8.233  10.527
76998W        W49291   1.741  39.420   1.718
76999W        W49292  36.883  42.999   2.897
77000W        W49293  38.473  43.359   3.261
77001W        W49294  37.917  23.030  14.327
77002W        W49295   5.277  12.263  14.766
77003W        W49296  10.318  30.504  14.898
77004W        W49297  41.026  41.044   1.845
77005W        W49298  31.113   6.347  10.627
77006W        W49299  24.164   9.261  12.852
77007W        W49300   3.301  33.591  13.858
77008W        W49301   3.349  20.060   3.348
77009W        W49302  32.407   1.440   1.320
77010W        W49303   2.941   8.333   3.149
77011W        W49304  14.599   5.265   0.468
77012W        W49305  22.080  19.057   2.778
77013W        W49306  44.473   3.717  14.447
77014W        W49307  20.257  35.541  14.386
77015W        W49308   9.309  27.473   1.284
77016W        W49309  22.650  12.730  12.546
77017W        W49310  28.056  18.194  11.396
77018W        W49311  21.223  17.720  14.019
77019W        W49312  44.453  19.237  14.896
77020W        W49313   2.426  10.641   2.328
77021W        W49314  29.476   4.344  13.484
77022W        W49315  42.427  29.493  13.320
77023W        W49316  14.724  15.243  14.782
77024W        W49317  17.765   7.728   0.443
77025W        W49318  18.189  28.583  12.378
77026W        W49319  20.055  10.842   4.599
77027W        W49320  32.477  26.955   3.162
77028W        W49321   2.911  42.825   0.883
77029W        W49322  15.153  15.240   1.450
77030W        W49323  16.597  22.600   2.849
77031W        W49324  12.798  16.219  12.491
77032W        W49325  20.644  25.092   4.225
77033W        W49326  21.685  15.325   1.741
77034W        W49327  21.699  31.502  11.017
77035W        W49328   0.804  39.043   4.319
77036W        W49329   8.190  37.458  10.963
77037W        W49330  33.543  28.643  11.506
77038W        W49331  27.682  38.440  10.607
77039W        W49332   3.285  41.456   4.189
77040W        W49333  27.101  31.541   0.332
77041W        W49334  37.403  11.685   1.794
77042W        W49335   7.407  21.022   1.695
77043W        W49336  32.100  40.539   2.232
77044W        W49337  31.046   2.730   0.273
77045W        W49338  19.089  15.764  13.007
77046W        W49339  33.052  14.808  13.436
77047W        W49340   9.885  37.445   4.184
77048W        W49341   2.948  32.072   4.183
77049W        W49342  28.446  12.629  14.436
77050W        W49343  11.816  24.184  14.466
77051W        W49344  35.923  26.111  10.429
77052W        W49345  38.496  16.766  13.445
77053W        W49346  22.196  22.025  14.331
77054W        W49347  22.732  32.936   1.378
77055W        W49348  12.340  37.554   2.804
77056W        W49349   2.926  11.328   4.731
77057W        W49350  18.257  14.287   3.671
77058W        W49351   7.878   0.980  13.406
77059W        W49352  13.314  41.958   4.697
77060W        W49353  12.311  26.095  14.354
77061W        W49354   9.390  20.169   1.766
77062W        W49355  32.491  27.574  11.610
77063W        W49356  43.443   1.429   3.339
77064W        W49357  12.154  16.714   1.373
77065W        W49358  22.052  35.042  11.958
77066W        W49359  13.766  31.548  11.408
77067W        W49360  42.867  23.118   3.349
77068W        W49361  21.052   4.449  13.031
77069W        W49362  32.014  27.984   1.346
77070W        W49363  17.210  28.089   4.820
77071W        W49364  37.884   2.453   1.372
77072W        W49365  40.861  26.131   4.831
77073W        W49366  30.930  33.565   5.139
77074W        W49367  18.569  31.931   4.213
77075W        W49368  13.782  25.212  11.381
77076W        W49369   0.800   1.318  11.962
77077W        W49370  23.638  37.466   3.354
77078W        W49371   3.830   1.905  10.415
77079W        W49372  30.644   2.366   2.769
77080W        W49373  14.628   0.383  13.489
77081W        W49374  30.045  12.780   3.165
77082W        W49375  16.124   1.830  10.589
77083W        W49376   9.713  18.705  12.532
77084W        W49377   2.806   0.960   2.289
77085W        W49378   5.387  30.430   0.882
77086W        W49379  39.438  44.928   1.372
77087W        W49380  12.802  13.782  12.827
77088W        W49381   0.397  38.362   1.333
77089W        W49382  29.168  29.007  12.537
77090W        W49383  36.009  37.839   1.242
77091W        W49384  11.721  13.771   4.714
77092W        W49385   9.818  23.000   1.862
77093W        W49386  41.313   5.749   2.361
77094W        W49387  20.558   7.313  14.889
77095W        W49388  11.843  39.489   1.709
77096W        W49389  31.002  38.964   9.945
77097W        W49390  17.109  27.500  14.772
77098W        W49391  21.557  28.436   4.136
77099W        W49392   3.867  30.135   2.339
77100W        W49393  34.605  25.153  11.016
77101W        W49394   9.339  34.472   3.702
77102W        W49395  35.042   2.767   1.345
77103W        W49396  33.602  26.159  12.915
77104W        W49397  10.754  20.181  11.855
77105W        W49398  44.487  10.732  12.088
77106W        W49399  17.763   0.416   0.259
77107W        W49400  25.094  14.610   1.806
77108W        W49401  27.534   1.269  10.644
77109W        W49402  11.768  13.241  11.484
77110W        W49403  28.677  13.827   3.775
77111W        W49404  14.170  26.569  14.310
77112W        W49405  37.852   3.321   0.793
77113W        W49406  12.849  19.135   0.899
77114W        W49407  35.972   3.415   0.858
77115W        W49408  37.478  14.327  13.830
77116W        W49409   2.876  24.624   4.119
77117W        W49410  25.060  17.679  11.028
77118W        W49411  12.296  29.536  14.938
77119W        W49412  11.661  34.901   5.282
77120W        W49413  25.496   1.415  13.861
77121W        W49414  44.490  39.477  10.941
77122W        W49415   2.723  39.057   3.180
77123W        W49416  12.283  11.632   4.155
77124W        W49417  42.439  33.400   4.330
77125W        W49418   7.841  35.445  14.010
77126W        W49419   1.746   0.488  14.997
77127W        W49420  11.739  11.632  11.979
77128W        W49421   1.791   9.159   3.211
77129W        W49422  26.554  34.395   1.280
77130W        W49423   5.902  18.747  14.496
77131W        W49424   1.789  31.577   4.219
77132W        W49425  31.480  38.550   0.897
77133W        W49426  41.976   0.748  11.948
77134W        W49427  43.833  11.807   0.449
77135W        W49428  26.029  21.705   3.356
77136W        W49429  24.493   3.262   1.429
77137W        W49430   2.833  17.566   1.429
77138W        W49431   6.260  27.025   3.192
77139W        W49432  43.504   1.351   1.695
77140W        W49433  27.502   8.300  11.977
77141W        W49434  31.078  17.296  14.885
77142W        W49435  34.958  41.384   0.799
77143W        W49436   3.317  12.833   4.133
77144W        W49437   0.874   7.895   3.287
77145W        W49438  33.904  40.975   3.369
77146W        W49439  43.797  29.631  13.920
77147W        W49440  44.797  34.887  14.428
77148W        W49441  25.143  19.247   1.703
77149W        W49442  32.973  26.148   4.135
77150W        W49443  24.200  43.837   0.327
77151W        W49444  28.534  33.948  10.531
77152W        W49445   9.831   2.365   1.696
77153W        W49446  38.913  42.993   4.181
77154W        W49447   5.315  33.908   3.253
77155W        W49448  18.128   8.400   0.781
77156W        W49449   8.218  14.271   3.272
77157W        W49450  10.673  10.763  13.898
77158W        W49451  20.703  42.930  12.089
77159W        W49452  41.898  40.876   0.469
77160W        W49453  22.125  42.943  13.492
77161W        W49454   3.725  40.522  10.584
77162W        W49455  37.956  16.710   1.792
77163W        W49456  28.054  12.621  14.926
77164W        W49457  24.649  15.773   0.783
77165W        W49458  25.545   9.813   0.912
77166W        W49459  36.998  37.351   2.264
77167W        W49460  34.610  14.166   1.854
77168W        W49461  32.557   6.854  13.494
77169W        W49462  19.574  20.728  10.539
77170W        W49463  27.139  35.081   2.869
77171W        W49464  31.589   4.295  13.008
77172W        W49465  23.662  35.475   4.222
77173W        W49466  28.501  34.885  13.061
77174W        W49467  15.217  14.296   2.764
77175W        W49468  30.975  12.179   0.273
77176W        W49469  28.955  44.476   4.153
77177W        W49470  36.438   9.180  11.433
77178W        W49471  38.548  25.563   4.320
77179W        W49472   2.788  38.834  14.018
77180W        W49473  29.949  38.840   0.955
77181W        W49474   6.705  17.772   0.274
77182W        W49475   2.305  20.597  12.464
77183W        W49476  42.994  17.734  13.950
77184W        W49477   3.461  31.480   1.894
77185W        W49478  30.613  14.782   2.271
77186W        W49479  26.143  42.937  11.123
77187W        W49480  39.029   1.467  11.603
77188W        W49481  38.939   3.784  14.335
77189W        W49482  29.040  37.947   3.337
77190W        W49483  29.479  44.437   0.448
77191W        W49484  18.668  31.628  11.905
77192W        W49485  19.045  36.576  12.493
77193W        W49486  18.122  26.668  13.345
77194W        W49487  21.071  38.446   0.358
77195W        W49488  43.361  40.408  11.569
77196W        W49489  27.055  30.957  12.993
77197W        W49490  33.513  37.931  10.957
77198W        W49491  32.438  29.947  14.367
77199W        W49492  24.698  28.660   2.881
77200W        W49493  10.347  26.143   1.776
77201W        W49494  39.034  26.119   3.300
77202W        W49495   6.411  39.469   2.672
77203W        W49496  40.322   6.233  14.487
77204W        W49497  30.611  14.743  11.579
77205W        W49498  16.271  32.942   1.408
77206W        W49499  28.952  40.024  12.577
77207W        W49500  26.518  17.123  11.047
77208W        W49501   0.390  16.149   1.882
77209W        W49502  13.147   4.901   2.229
77210W        W49503  40.318   7.706  10.941
77211W        W49504  33.932  26.012   4.651
77212W        W49505  42.869   1.783  11.390
77213W        W49506  35.410  35.017   0.476
77214W        W49507   1.398  32.889  12.963
77215W        W49508  19.250  27.552  14.984
77216W        W49509  38.039  38.359  10.991
77217W        W49510  43.881  30.421  10.982
77218W        W49511  12.222  32.991   2.830
77219W        W49512  23.035  21.688  14.838
77220W        W49513   3.714   8.393   4.323
77221W        W49514  27.662   1.301  12.486
77222W        W49515  11.639   7.402   2.319
77223W        W49516  16.637  14.170   4.215
77224W        W49517   7.673  22.189  14.416
77225W        W49518  18.559  30.997   9.973
77226W        W49519  22.601  18.767  13.942
77227W        W49520  28.955  28.936   0.429
77228W        W49521   3.956  37.385   4.757
77229W        W49522  22.113  34.897  13.389
77230W        W49523   3.723  29.154  11.569
77231W        W49524  25.047  31.955   2.273
77232W        W49525  26.133  24.520   0.881
77233W        W49526   1.948  17.219   2.331
77234W        W49527  17.104  25.685   3.259
77235W        W49528   6.834  32.588   4.293
77236W        W49529   8.757  17.280  13.004
77237W        W49530  31.484   1.887  12.992
77238W        W49531  16.303  10.168   0.281
77239W        W49532  31.039  12.341   4.197
77240W        W49533  31.107  21.726  11.934
77241W        W49534  33.941   3.929  14.005
77242W        W49535   0.292   9.349   4.697
77243W        W49536  35.989  15.301  14.355
77244W        W49537  26.058  41.792  14.285
77245W        W49538  43.335   4.721   3.207
77246W        W49539  29.547  16.766   3.796
77247W        W49540   0.437  44.968   1.835
77248W        W49541  25.681  30.082  12.367
77249W        W49542   6.836  32.952  13.420
77250W        W49543  28.460   0.861   0.728
77251W        W49544  38.009   5.819   0.435
77252W        W49545   6.708  35.504   3.378
77253W        W49546  40.879   9.251   0.742
77254W        W49547  27.142   1.330   0.342
77255W        W49548  22.671  26.054   3.302
77256W        W49549  20.171   6.361   1.387
77257W        W49550  14.338   9.261  11.419
77258W        W49551  24.546   8.258   0.727
77259W        W49552   0.348  18.548  14.277
77260W        W49553  31.070  21.572   2.187
77261W        W49554  13.258  27.546   1.257
77262W        W49555  10.856  21.539   2.353
77263W        W49556  34.525   4.298  13.463
77264W        W49557  41.958   9.683   0.419
77265W        W49558  29.588  13.753   3.154
77266W        W49559  43.824  31.427   1.342
77267W        W49560  34.549  23.655   1.911
77268W        W49561  19.716   3.868  11.532
77269W        W49562  22.229  18.091  10.617
77270W        W49563  22.223  30.154  11.435
77271W        W49564  18.185   5.332  14.354
77272W        W49565   0.776  10.679   1.381
77273W        W49566  38.924   0.834   4.320
77274W        W49567  13.668  24.155  12.923
77275W        W49568  40.931   3.283  10.634
77276W        W49569   2.242   0.253  12.967
77277W        W49570  40.418  17.785  13.449
77278W        W49571  39.558   8.895   1.338
77279W        W49572  19.559  16.274  10.945
77280W        W49573  23.707  26.101  11.955
77281W        W49574  19.596   9.658   2.826
77282W        W49575  33.893  31.528   4.330
77283W        W49576  29.463  17.673  13.446
77284W        W49577  26.630  13.689  14.761
77285W        W49578  18.608   5.807   4.133
77286W        W49579  15.611  20.738  14.992
77287W        W49580  22.250  40.018   1.346
77288W        W49581  28.140  42.309  13.377
77289W        W49582  43.764  33.126   2.345
77290W        W49583  10.282   1.856   1.832
77291W        W49584  33.077  19.770  12.939
77292W        W49585  42.486   0.833  10.897
77293W        W49586  44.979  12.795   2.887
77294W        W49587  30.918  33.581  14.758
77295W        W49588   9.718  31.129  11.442
77296W        W49589  22.569  12.166   0.951
77297W        W49590  10.296  42.327   0.403
77298W        W49591  17.090  33.534   4.331
77299W        W49592  37.085   5.413  12.513
77300W        W49593  24.561  43.016  13.410
77301W        W49594  23.665  36.482   3.313
77302W        W49595  34.427  40.358  13.961
77303W        W49596  22.595   3.804  13.353
77304W        W49597  23.641  23.717   4.287
77305W        W49598  18.224  33.045   0.742
77306W        W49599   5.824  41.841  12.066
77307W        W49600   2.862  19.683   4.150
77308W        W49601   3.348   4.779  10.447
77309W        W49602  37.856  11.326  14.323
77310W        W49603   7.799  26.015   2.838
77311W        W49604  40.970  15.620   3.657
77312W        W49605   3.431   8.729   2.223
77313W        W49606  33.590   6.763  12.388
77314W        W49607   9.163  31.500  11.030
77315W        W49608   3.251  11.817  12.903
77316W        W49609  24.499  23.693   2.351
77317W        W49610  23.661  12.664  13.396
77318W        W49611  20.653   3.835  13.464
77319W        W49612   2.778  35.902  11.980
77320W        W49613  27.191  28.482  12.575
77321W        W49614  39.023  36.064  13.848
77322W        W49615  24.167  34.531   4.144
77323W        W49616  37.021  30.156  13.376
77324W        W49617  26.121   5.346  11.413
77325W        W49618  35.513  40.470  14.797
77326W        W49619  44.332  15.766   1.930
77327W        W49620  28.678  23.630  13.906
77328W        W49621  40.963   1.315   1.256
77329W        W49622  28.019  18.174   3.842
77330W        W49623  30.440  34.421   1.381
77331W        W49624  10.785   3.833  14.874
77332W        W49625  26.642  16.697   0.288
77333W        W49626   1.421  43.503   0.874
77334W        W49627  38.375  24.582   2.317
77335W        W49628   8.676  35.500   0.967
77336W        W49629  13.682  34.492  10.558
77337W        W49630  14.125  12.752  14.394
77338W        W49631  28.953  22.601   0.903
77339W        W49632  23.013  36.494   0.283
77340W        W49633   2.735  16.641   2.729
77341W        W49634  25.098  15.146   2.693
77342W        W49635  20.677  19.657  12.869
77343W        W49636  25.008  15.675  12.874
77344W        W49637  21.583   7.714  12.931
77345W        W49638  33.549  24.512   1.228
77346W        W49639  42.402  37.070  12.415
77347W        W49640  44.940  13.143   3.293
77348W        W49641  12.323   8.868  13.835
77349W        W49642  10.219  27.940   0.285
77350W        W49643  36.493   4.939  10.418
77351W        W49644  37.363  26.089  13.408
77352W        W49645  26.956  14.644  10.429
77353W        W49646  18.210  34.566   0.948
77354W        W49647   5.768  40.341   2.705
77355W        W49648  21.664  29.030   3.325
77356W        W49649   0.894   8.703  10.075
77357W        W49650  10.674  23.597  14.282
77358W        W49651   1.332  16.623   3.361
77359W        W49652  44.927  42.469   2.258
77360W        W49653  42.517  12.723  14.364
77361W        W49654   4.842  42.324  11.482
77362W        W49655  22.126  23.647   1.732
77363W        W49656   1.425   8.870   1.917
77364W        W49657   5.702  11.703  11.502
77365W        W49658  29.156  19.137  11.504
77366W        W49659  42.524   7.758   0.829
77367W        W49660  23.611  21.564  14.017
77368W        W49661  21.740   2.293  11.885
77369W        W49662  21.756   1.794   2.887
77370W        W49663  10.322  26.519  11.959
77371W        W49664  24.978  12.758   0.323
77372W        W49665   6.299  44.806   2.368
77373W        W49666   1.824  35.996   3.746
77374W        W49667  31.988   7.312  10.058
77375W        W49668   0.771   3.906  13.911
77376W        W49669  36.437  25.151   1.328
77377W        W49670   7.274  27.049   0.475
77378W        W49671  23.095  19.117   1.773
77379W        W49672   2.468  25.037   3.225
77380W        W49673   1.430   4.701   1.911
77381W        W49674  16.625  39.434  11.401
77382W        W49675  31.047  29.949  11.395
77383W        W49676   7.700  43.898  11.128
77384W        W49677   0.753   6.754   2.767
77385W        W49678   0.414  26.085  11.878
77386W        W49679  31.147  14.166  12.857
77387W        W49680   5.730  33.429   3.707
77388W        W49681  17.713  43.966   0.939
77389W        W49682   1.897   5.725   3.721
77390W        W49683  13.186  20.195   0.320
77391W        W49684  41.378  24.658  13.794
77392W        W49685  14.146  24.999  13.415
77393W        W49686  24.586  26.010  11.872
77394W        W49687  33.623  20.677  14.807
77395W        W49688   5.378  10.332   0.329
77396W        W49689  27.604   9.820   0.362
77397W        W49690  30.549  42.950  13.400
77398W        W49691  33.071  17.627   4.835
77399W        W49692  13.810  27.188  14.994
77400W        W49693  27.507  26.559  12.067
77401W        W49694  26.003  39.322  11.954
77402W        W49695  27.942  13.217  12.850
77403W        W49696  18.133   9.820  13.026
77404W        W49697  12.162  20.652  14.285
77405W        W49698  25.533   0.313  13.008
77406W        W49699  11.154   6.738   0.415
77407W        W49700   7.703  35.023  14.769
77408W        W49701  33.390  42.938   2.851
77409W        W49702  23.705  26.987   0.927
77410W        W49703   2.251  33.127   2.770
77411W        W49704  11.783  28.939  13.492
77412W        W49705   0.918  11.750   4.155
77413W        W49706  18.628  31.116  12.951
77414W        W49707   9.233  40.343   2.881
77415W        W49708  21.552  33.046   5.669
77416W        W49709  42.816   9.685   4.272
77417W        W49710  23.152  43.816   2.223
77418W        W49711   1.932  27.949  11.389
77419W        W49712  26.627   8.790  14.864
77420W        W49713   0.957  28.628  13.367
77421W        W49714   9.693  39.467   2.848
77422W        W49715  10.640  30.935   4.126
77423W        W49716   0.924   5.708   2.227
77424W        W49717   4.317  29.662   2.770
77425W        W49718  32.040  24.556  10.453
77426W        W49719  15.084  12.126  14.442
77427W        W49720  19.628  27.544   0.824
77428W        W49721  42.422  11.688   0.274
77429W        W49722   0.276  25.031  12.358
77430W        W49723  10.679  22.730  10.936
77431W        W49724   4.728  37.452   4.805
77432W        W49725   2.360  30.576  12.072
77433W        W49726  35.603  12.751   4.317
77434W        W49727  42.801  41.339  13.866
77435W        W49728  40.323  34.985   9.992
77436W        W49729  23.686   8.783   2.718
77437W        W49730   2.842  25.122   1.799
77438W        W49731   4.327  28.551  13.434
77439W        W49732  31.545  44.780  12.372
77440W        W49733  23.064  13.209   3.266
77441W        W49734  19.535  24.045  13.320
77442W        W49735   9.852  33.908   4.635
77443W        W49736  18.690  21.169   1.694
77444W        W49737  38.942  37.082   2.363
77445W        W49738  37.476  33.965   1.347
77446W        W49739  10.293   3.229   0.247
77447W        W49740  25.474   1.901   2.305
77448W        W49741  40.409  24.597   1.870
77449W        W49742  14.143  27.502   2.221
77450W        W49743  35.505  20.031   2.200
77451W        W49744  15.311  27.060   1.818
77452W        W49745  27.169  28.121  10.444
77453W        W49746   1.423  37.843   4.160
77454W        W49747   1.734   4.786   3.260
77455W        W49748  12.330  23.229  10.534
77456W        W49749  29.524  13.733   1.407
77457W        W49750   7.713   8.251  11.475
77458W        W49751  22.611  26.167   0.926
77459W        W49752  20.531  41.337   2.348
77460W        W49753  22.668  42.494  14.933
77461W        W49754  43.862  19.060   5.124
77462W        W49755  21.698  14.719   4.194
77463W        W49756  19.731  28.061  10.942
77464W        W49757  42.985   4.437  12.907
77465W        W49758  26.144  26.679  10.454
77466W        W49759  38.952  27.554   0.823
77467W        W49760   9.389   8.883   4.331
77468W        W49761  16.249  33.914   4.764
77469W        W49762  16.750  37.891   0.294
77470W        W49763  32.132  10.246   5.596
77471W        W49764  17.237  10.678   3.642
77472W        W49765  24.630  37.853  11.871
77473W        W49766   9.768  41.016  10.455
77474W        W49767   9.170   0.395  13.891
77475W        W49768   4.276  26.534   4.313
77476W        W49769  42.852   0.292   5.131
77477W        W49770  29.491  12.627   9.936
77478W        W49771   7.898  15.815  10.469
77479W        W49772   9.667  21.538   3.224
77480W        W49773  25.217  28.575   1.746
77481W        W49774  32.563   4.714  14.966
77482W        W49775   2.328  38.043   3.350
77483W        W49776  29.632  29.650   4.350
77484W        W49777  11.771  24.501   2.818
77485W        W49778  24.693  35.105  13.527
77486W        W49779  20.768  18.663  11.413
77487W        W49780  25.204  12.327   4.829
77488W        W49781   1.933  34.437  13.905
77489W        W49782  21.151  37.958   0.474
77490W        W49783  34.014  15.618   0.452
77491W        W49784   4.354  10.153  10.447
77492W        W49785  30.549  29.959   4.769
77493W        W49786   6.911  38.848   0.858
77494W        W49787  10.728  44.383  13.323
77495W        W49788  13.152  16.719   4.807
77496W        W49789  27.143  38.345  13.947
77497W        W49790  35.098  23.507  11.033
77498W        W49791  40.989  24.660  10.563
77499W        W49792   3.329  20.199  11.511
77500W        W49793  15.220  11.634   3.683
77501W        W49794  20.262   3.449   0.245
77502W        W49795   3.370  39.378   4.123
77503W        W49796  28.994   0.424   3.235
77504W        W49797   2.782  39.064  12.878
77505W        W49798  23.128   6.764   2.771
77506W        W49799  16.290  10.796  13.517
77507W        W49800  31.058   9.814   2.689
77508W        W49801   3.731   9.149  10.404
77509W        W49802  20.046  34.499   0.376
77510W        W49803   1.437  10.651  12.984
77511W        W49804  22.233  22.563  11.915
77512W        W49805  13.722  25.623  12.575
77513W        W49806   1.307  32.417   4.238
77514W        W49807  42.871  33.606  11.544
77515W        W49808  43.282  20.075  10.069
77516W        W49809  33.114  37.489   0.860
77517W        W49810  44.485   4.850   4.244
77518W        W49811   4.259   4.709   0.451
77519W        W49812  15.319  20.264  13.508
77520W        W49813  41.400  32.620   3.232
77521W        W49814   1.822  28.107  10.477
77522W        W49815  28.967  15.094   4.672
77523W        W49816  29.533   7.770   2.718
77524W        W49817  16.313  38.530  12.054
77525W        W49818   2.331  40.847  13.990
77526W        W49819   3.888  39.977  10.474
77527W        W49820  27.162  17.201   2.847
77528W        W49821  41.798  28.010   0.244
77529W        W49822  16.683  28.492  13.932
77530W        W49823  26.188  35.928  11.046
77531W        W49824  44.989  19.752  12.513
77532W        W49825  24.003  25.482   2.684
77533W        W49826  30.485  27.646  12.417
77534W        W49827   1.773  42.989   4.809
77535W        W49828  36.855  21.203  12.992
77536W        W49829   0.949  13.291  13.369
77537W        W49830   8.383  23.139  14.341
77538W        W49831  19.757  43.842   4.285
77539W        W49832  21.633  18.659  12.385
77540W        W49833  41.787   4.827   2.183
77541W        W49834  13.304  20.632   0.917
77542W        W49835   0.275  30.159   1.249
77543W        W49836  33.048  13.142  13.922
77544W        W49837   8.286  16.746   1.383
77545W        W49838  24.694  37.441  12.343
77546W        W49839  34.483  10.648   0.376
77547W        W49840  22.169  18.057  12.467
77548W        W49841  30.074   8.708   4.831
77549W        W49842  30.995  16.622  12.558
77550W        W49843  24.556  12.787  10.510
77551W        W49844  34.924  12.649   3.867
77552W        W49845  32.105  36.582  12.536
77553W        W49846  34.471  20.636  10.601
77554W        W49847  21.051  24.534   0.330
77555W        W49848  37.582  44.976  13.323
77556W        W49849  33.602  13.202   4.270
77557W        W49850  18.675  34.042   1.810
77558W        W49851  26.521   7.332  11.057
77559W        W49852  27.193   4.807  10.059
77560W        W49853  44.316   0.974  11.463
77561W        W49854   3.798   1.261  12.979
77562W        W49855   4.390   9.732  14.418
77563W        W49856  16.240  16.296  11.572
77564W        W49857   1.281  13.201   1.439
77565W        W49858  20.667  35.012  14.781
77566W        W49859  26.030  21.056  12.932
77567W        W49860  29.935   5.752   2.678
77568W        W49861   6.705  32.123  11.098
77569W        W49862  41.034   0.288  14.839
77570W        W49863  36.011  21.544  11.050
77571W        W49864  22.518  26.080   4.295
77572W        W49865  35.869  34.994   1.356
77573W        W49866  18.599  26.480  13.024
77574W        W49867  20.548  39.368   3.351
77575W        W49868  36.943  18.560  14.417
77576W        W49869  40.320  26.599   4.152
77577W        W49870  25.063   3.832  11.057
77578W        W49871  23.084  19.263   4.640
77579W        W49872  26.005   7.697   0.876
77580W        W49873  17.774  17.779   4.622
77581W        W49874  17.722  24.528   4.195
77582W        W49875   9.880  34.120   2.380
77583W        W49876  24.981  35.902  10.541
77584W        W49877  35.875  37.485  11.935
77585W        W49878  37.907   4.230   1.857
77586W        W49879  25.207  37.879   4.178
77587W        W49880  19.756  33.399  13.449
77588W        W49881  27.044  42.982   2.738
77589W        W49882  28.490   4.813  11.404
77590W        W49883  20.545   9.162  13.375
77591W        W49884  15.247  32.573  13.344
77592W        W49885  33.387  27.662  10.550
77593W        W49886   1.943  18.751  12.478
77594W        W49887  36.915  34.570  10.431
77595W        W49888  17.628  34.486   0.344
77596W        W49889  28.583  21.626  12.840
77597W        W49890  28.530  36.044   1.709
77598W        W49891  33.510   7.398   4.629
77599W        W49892  13.326  25.021  13.965
77600W        W49893  35.597  41.358   1.918
77601W        W49894  22.088  10.196   1.276
77602W        W49895  14.165  15.594   4.323
77603W        W49896  30.929   7.779  14.311
77604W        W49897  12.618  15.141   2.686
77605W        W49898  41.401  25.532  10.602
77606W        W49899  41.878  13.347   4.271
77607W        W49900  28.565  43.008   4.309
77608W        W49901   5.897   8.288  12.426
77609W        W49902  40.483  18.206  13.893
77610W        W49903  39.400  40.480   0.355
77611W        W49904  33.996  20.161   2.418
77612W        W49905  29.669  10.377  12.090
77613W        W49906  34.870  34.582   2.194
77614W        W49907  43.365  38.406   1.437
77615W        W49908  25.144  14.799  11.921
77616W        W49909  41.505  34.471  10.424
77617W        W49910   9.258  25.084  14.319
77618W        W49911  42.836  26.577  14.296
77619W        W49912   7.726  12.730   0.324
77620W        W49913  35.003  43.876   0.417
77621W        W49914   4.732  12.201  11.500
77622W        W49915  39.366  22.119   0.762
77623W        W49916  34.973  38.451   0.923
77624W        W49917   6.815  36.419   5.242
77625W        W49918  38.334  10.644   1.278
77626W        W49919   3.244  12.779  11.411
77627W        W49920  17.115  28.967  12.479
77628W        W49921   9.164  24.098  14.515
77629W        W49922   0.292   3.301   3.322
77630W        W49923   1.296  41.979  12.501
77631W        W49924   6.777  15.678  11.040
77632W        W49925  38.433  16.097  13.051
77633W        W49926   0.879  24.042   2.697
77634W        W49927  32.960  44.944   3.648
77635W        W49928  24.511  33.129  11.994
77636W        W49929   3.737   1.928   0.866
77637W        W49930  25.674   9.380   1.323
77638W        W49931  19.571  13.169   1.888
77639W        W49932  31.457   4.904  10.637
77640W        W49933   8.213  33.486   2.296
77641W        W49934  44.297   3.885   0.298
77642W        W49935  31.570  44.911  14.299
77643W        W49936  17.307  32.994  11.073
77644W        W49937   7.760   9.348   3.802
77645W        W49938  29.032   7.355   3.676
77646W        W49939  37.913  20.698  10.579
77647W        W49940   1.312  15.201   1.932
77648W        W49941  23.493  22.657  11.935
77649W        W49942  25.599  28.600   1.369
77650W        W49943  44.778  35.978  10.526
77651W        W49944   9.842   0.750  12.921
77652W        W49945  41.411   1.880  10.979
77653W        W49946  44.003  28.637  14.450
77654W        W49947   6.319   0.323  12.573
77655W        W49948  39.517   0.807  11.606
77656W        W49949  44.376  33.499   2.894
77657W        W49950   7.724  16.767  12.901
77658W        W49951  23.147  29.649  11.078
77659W        W49952   8.656  35.380   2.830
77660W        W49953   5.263  40.044  13.512
77661W        W49954  22.653   0.303  10.912
77662W        W49955  25.026  16.258  13.403
77663W        W49956  11.159  10.800   1.371
77664W        W49957  36.059   7.318  10.960
77665W        W49958  22.573  38.966  12.916
77666W        W49959  40.432  24.555  11.927
77667W        W49960  41.427  13.637  13.511
77668W        W49961  26.172  26.022   4.713
77669W        W49962  21.627   5.393   0.275
77670W        W49963  36.388   4.826  13.985
77671W        W49964  34.955  19.558  13.923
77672W        W49965   8.348  13.113   3.320
77673W        W49966  25.668   7.323   4.319
77674W        W49967  44.301  30.647   0.890
77675W        W49968  38.989  41.304  13.391
77676W        W49969  31.420  44.274   1.875
77677W        W49970  16.584  17.659   2.319
77678W        W49971  33.116  44.395   1.775
77679W        W49972   2.811   0.947   4.292
77680W        W49973  28.571  10.146   1.237
77681W        W49974  33.460  21.713   1.894
77682W        W49975  21.739   1.350   0.914
77683W        W49976  43.469   8.759   0.260
77684W        W49977  19.752  32.937   5.181
77685W        W49978   3.266   5.737  14.277
77686W        W49979  30.573   3.788  14.935
77687W        W49980  25.035  34.396   3.264
77688W        W49981  30.163   7.696   3.375
77689W        W49982  43.794  44.769  10.572
77690W        W49983  11.753  16.740   0.745
77691W        W49984  29.117  16.253  10.491
77692W        W49985  33.950  25.488  14.909
77693W        W49986   0.492  17.585  11.410
77694W        W49987  37.415  31.929   1.868
77695W        W49988  34.037  44.847  13.322
77696W        W49989  42.527  32.981  13.030
77697W        W49990  20.065  12.296   4.139
77698W        W49991  30.022  15.635  12.969
77699W        W49992  36.593  28.023   1.436
77700W        W49993  19.590  11.705  12.045
77701W        W49994  26.137   5.408   2.893
77702W        W49995   4.432  42.356   3.777
77703W        W49996  21.057  23.608   2.723
77704W        W49997  42.781  16.100  11.942
77705W        W49998   4.867   6.785   3.332
77706W        W49999  12.784  38.331  14.868
77707W        W50000  14.733  42.339  13.969
77708W        W50001   4.845   9.308  12.056
77709W        W50002  13.345  15.220   0.740
77710W        W50003  35.927   3.799   3.240
77711W        W50004   7.790  11.233   4.634
77712W        W50005  15.099  30.159   2.891
77713W        W50006  24.681  29.941   1.361
77714W        W50007  30.007  37.342   0.332
77715W        W50008  35.084  38.906   1.359
77716W        W50009  43.855  29.076   3.820
77717W        W50010  31.418  25.469   1.809
77718W        W50011  24.113   1.748   4.828
77719W        W50012   6.844   0.827   2.407
77720W        W50013   0.466  34.526   0.733
77721W        W50014  42.983  32.481  12.046
77722W        W50015  44.836  27.940  14.345
77723W        W50016   6.370  43.807   0.841
77724W        W50017  43.339  15.114   3.260
77725W        W50018  10.139  27.989   4.244
77726W        W50019  13.800   4.415   3.296
77727W        W50020  19.577  44.937   1.435
77728W        W50021  31.040   6.335   4.802
77729W        W50022   9.725  27.580   0.788
77730W        W50023  32.398  43.973  13.861
77731W        W50024  19.202  12.774   0.370
77732W        W50025  18.673   2.363   3.387
77733W        W50026  24.101  27.180  11.973
77734W        W50027  37.862  41.500  13.345
77735W        W50028   8.182  11.813   1.256
77736W        W50029   6.687   6.871   4.810
77737W        W50030  22.606   5.209  13.001
77738W        W50031   4.787  34.526   1.296
77739W        W50032  18.060   1.343  11.943
77740W        W50033  27.057  16.170  12.051
77741W        W50034  20.714  20.627   3.771
77742W        W50035  16.280   7.891   2.240
77743W        W50036   6.367  12.320   1.805
77744W        W50037  40.444  38.966   2.186
77745W        W50038  33.492  14.646  12.359
77746W        W50039  21.097  34.454   0.867
77747W        W50040  10.364  24.685  13.974
77748W        W50041  39.948  14.821   1.713
77749W        W50042  29.010  20.147  11.117
77750W        W50043  23.000   2.859  10.017
77751W        W50044  42.837   4.337  10.944
77752W        W50045  18.091  37.368   1.446
77753W        W50046  11.192  30.596  10.564
77754W        W50047  18.737  21.540  10.893
77755W        W50048   1.787  32.118   1.824
77756W        W50049  38.390  24.991   4.660
77757W        W50050  33.534  40.977  11.933
77758W        W50051  44.299   5.865  13.348
77759W        W50052   0.949   2.281  12.844
77760W        W50053   9.387  40.900   1.275
77761W        W50054  39.985  27.156  13.913
77762W        W50055   9.823  36.950  13.805
77763W        W50056  11.850  11.333  11.534
77764W        W50057  42.317  11.222  14.926
77765W        W50058  41.475  16.750   5.150
77766W        W50059  12.740  18.619  10.430
77767W        W50060  22.235  31.418   1.764
77768W        W50061  23.236   0.407   2.196
77769W        W50062  24.171  24.535  12.065
77770W        W50063  40.030  25.633  13.327
77771W        W50064  14.723  32.950  10.499
77772W        W50065  40.387  37.472   0.817
77773W        W50066  34.883  15.650   2.798
77774W        W50067  14.151   4.837  12.017
77775W        W50068   7.794  23.148  12.458
77776W        W50069  25.028  24.032   2.768
77777W        W50070  42.966  26.672  13.823
77778W        W50071  22.128  15.273   4.680
77779W        W50072  16.291   6.234  11.566
77780W        W50073  28.601  29.102   0.316
77781W        W50074  19.654  34.885   1.284
77782W        W50075  17.642   8.284   3.365
77783W        W50076  11.677  19.124  10.936
77784W        W50077  25.997  37.884   4.322
77785W        W50078  30.136  31.913  14.498
77786W        W50079  23.110  25.014  13.388
77787W        W50080   7.824  25.049   2.318
77788W        W50081  14.800  11.694  12.040
77789W        W50082  36.956  34.106   2.840
77790W        W50083  36.358  11.241   0.254
77791W        W50084  29.031   5.239  10.898
77792W        W50085  22.605   0.412   1.365
77793W        W50086  32.072  43.491  12.085
77794W        W50087  16.139  11.715   0.860
77795W        W50088  14.211   2.832   1.788
77796W        W50089  33.616  14.124   2.402
77797W        W50090  31.017  37.444  10.598
77798W        W50091  37.874  25.043   1.237
77799W        W50092  13.774  16.573  14.835
77800W        W50093  19.156  27.578  11.884
77801W        W50094  35.940  39.324  13.332
77802W        W50095   3.317  13.282  14.996
77803W        W50096  16.617  32.534   2.359
77804W        W50097  24.010  36.061  10.112
77805W        W50098  20.093  40.501   4.277
77806W        W50099  34.038   1.778   4.620
77807W        W50100  26.683  20.112  11.115
77808W        W50101  41.919   8.817   5.148
77809W        W50102  40.371   6.683  14.927
77810W        W50103  11.230  43.852   0.317
77811W        W50104  10.699  31.992   1.921
77812W        W50105  19.608  20.077   2.407
77813W        W50106  32.468   4.335   4.619
77814W        W50107  24.227  26.701  11.602
77815W        W50108  12.848  16.283  12.032
77816W        W50109  19.774  18.575   3.649
77817W        W50110   3.410  32.970  13.481
77818W        W50111  32.419  17.094   3.864
77819W        W50112  41.919  26.562  10.105
77820W        W50113   6.287  12.707   2.392
77821W        W50114  30.636  39.476  11.494
77822W        W50115   3.918  30.579  12.062
77823W        W50116  27.988   8.851  11.420
77824W        W50117  42.017   4.273  12.046
77825W        W50118  37.541   9.834   4.615
77826W        W50119  12.237   2.399  10.452
77827W        W50120  23.191   5.389  12.056
77828W        W50121  41.438  17.148  14.334
77829W        W50122   9.820   8.851   3.216
77830W        W50123  22.157  15.320   2.215
77831W        W50124   4.794  37.378   2.830
77832W        W50125  36.487   3.871   0.757
77833W        W50126  26.044  15.193   1.805
77834W        W50127   7.855   6.208   3.860
77835W        W50128  30.503   5.285  11.018
77836W        W50129  39.952  17.160   0.953
77837W        W50130  33.090   8.289  13.358
77838W        W50131  24.003  31.900   0.757
77839W        W50132  41.345  41.892   4.683
77840W        W50133  40.887   5.751  13.806
77841W        W50134  23.661  41.429   3.221
77842W        W50135   5.213  28.994   0.900
77843W        W50136  30.641  21.148   4.659
77844W        W50137   4.411  40.035   3.274
77845W        W50138  26.100  13.264  11.556
77846W        W50139  24.080  17.304   3.678
77847W        W50140  39.492  29.446   2.771
77848W        W50141  14.661  40.940  11.436
77849W        W50142   5.897  14.252   4.801
77850W        W50143  17.255  37.413  12.424
77851W        W50144  27.971  29.568   0.273
77852W        W50145  40.963  27.113  11.538
77853W        W50146  27.955  26.634   0.478
77854W        W50147  16.072  11.326  12.377
77855W        W50148   4.932  24.002   3.224
77856W        W50149  15.189   0.802  10.916
77857W        W50150  26.084  35.506   4.316
77858W        W50151  27.155   7.739  14.797
77859W        W50152  24.016  17.649  14.018
77860W        W50153   5.307   8.183  13.946
77861W        W50154   0.907  20.192  14.277
77862W        W50155  16.670  44.372   0.358
77863W        W50156  23.055  32.064   1.703
77864W        W50157  14.722  10.357   0.363
77865W        W50158  15.241  36.399   3.797
77866W        W50159   4.315  43.978   3.789
77867W        W50160   7.715  44.469  10.000
77868W        W50161   0.877  29.450  12.407
77869W        W50162  15.670  28.590  12.562
77870W        W50163   0.263  41.034   1.445
77871W        W50164   4.814  12.831  11.542
77872W        W50165  22.609  21.058  13.972
77873W        W50166  22.188  40.390   3.166
77874W        W50167  20.245  23.136  11.018
77875W        W50168  42.820  29.134  12.823
77876W        W50169  19.702  24.535  13.966
77877W        W50170   2.761  21.661   4.287
77878W        W50171  41.824  32.956   4.810
77879W        W50172  43.929   7.388   4.354
77880W        W50173  32.563  23.013  11.098
77881W        W50174  10.795  14.702   4.299
77882W        W50175  38.861  26.625   0.478
77883W        W50176  42.957  37.031   0.422
77884W        W50177  17.673  24.036  11.567
77885W        W50178  31.900  20.161   3.786
77886W        W50179  39.391  28.642  14.974
77887W        W50180   2.269  21.100   5.209
77888W        W50181  15.790  31.008  10.957
77889W        W50182  39.931  21.037  10.540
77890W        W50183   1.928  12.245  10.492
77891W        W50184  37.978  20.605   1.241
77892W        W50185   6.857   0.494   1.312
77893W        W50186  19.063  36.366   4.298
77894W        W50187  31.089  19.670  14.324
77895W        W50188  17.238  37.088  11.434
77896W        W50189  29.490  11.695   3.318
77897W        W50190  32.540  32.572  10.475
77898W        W50191  28.034  32.064   2.694
77899W        W50192  42.376   8.398   2.220
77900W        W50193  10.691  25.115  13.474
77901W        W50194  30.536   0.761   0.277
77902W        W50195   1.907   8.731   0.839
77903W        W50196  37.495   8.840   0.430
77904W        W50197   5.863  32.401  12.887
77905W        W50198  22.013  29.601   3.661
77906W        W50199   1.415   5.713   3.780
77907W        W50200  21.162  15.259   1.697
77908W        W50201  27.078  44.948   0.348
77909W        W50202  13.315  29.604   0.865
77910W        W50203  13.112  43.499   4.262
77911W        W50204  12.617  28.120   0.906
77912W        W50205  25.503   4.833   2.222
77913W        W50206  10.663  31.454  10.934
77914W        W50207  36.063  14.635  10.961
77915W        W50208  26.589  13.812   0.809
77916W        W50209  12.224  41.434   2.837
77917W        W50210  18.742  18.639   3.191
77918W        W50211  12.169  20.181   1.311
77919W        W50212  44.765  20.555  14.990
77920W        W50213  36.032  19.117  11.600
77921W        W50214  27.082  27.946   4.724
77922W        W50215  40.814  44.780  12.564
77923W        W50216  20.211  41.005   2.891
77924W        W50217  31.418   6.745  14.394
77925W        W50218   7.728  29.000   2.265
77926W        W50219  20.630  29.065   0.450
77927W        W50220  34.926  11.784   2.828
77928W        W50221  21.690   1.406  10.540
77929W        W50222  38.974  17.264   1.213
77930W        W50223   9.204  26.154  13.829
77931W        W50224   1.796  25.119  11.901
77932W        W50225  18.622  21.534   3.777
77933W        W50226   2.281  15.619  12.890
77934W        W50227  22.105  11.235  13.333
77935W        W50228  29.001  23.627  13.941
77936W        W50229   7.752   4.324   2.712
77937W        W50230  23.690  14.789   1.705
77938W        W50231  37.831  15.277  11.956
77939W        W50232  28.047  27.123   1.382
77940W        W50233  18.186   1.295   0.869
77941W        W50234   6.851  11.174   1.325
77942W        W50235  34.419  41.798   2.287
77943W        W50236  42.392  19.258   9.932
77944W        W50237  36.947  37.510  13.948
77945W        W50238  35.094  28.677   1.894
77946W        W50239  11.128  44.766  13.917
77947W        W50240  29.986   8.173  10.121
77948W        W50241  33.571  27.091   4.266
77949W        W50242  44.930   8.300  12.482
77950W        W50243  12.306  36.898  11.577
77951W        W50244   6.893  42.016  11.097
77952W        W50245  17.195  11.842   1.785
77953W        W50246  14.746  15.590   0.952
77954W        W50247  30.149  23.117  12.439
77955W        W50248  39.525  11.245  11.011
77956W        W50249   7.181  19.663  11.537
77957W        W50250  29.058  28.617   0.258
77958W        W50251  13.133   7.901  13.013
77959W        W50252  23.988  23.698  10.538
77960W        W50253  14.703  15.625   4.184
77961W        W50254  21.245  42.348  13.817
77962W        W50255  16.278  27.519  11.377
77963W        W50256  19.235  11.258   4.252
77964W        W50257  29.942   3.789  14.459
77965W        W50258   2.902   9.384   1.803
77966W        W50259  14.126  24.658  14.026
77967W        W50260  15.708  20.545   4.775
77968W        W50261   5.825  26.620  12.085
77969W        W50262  38.874  26.679   3.794
77970W        W50263  37.522  31.992   3.859
77971W        W50264  22.141   8.248  12.086
77972W        W50265  15.223  39.340  13.041
77973W        W50266  37.970   6.263  14.342
77974W        W50267   9.246  21.176  10.636
77975W        W50268  11.628  16.301   4.217
77976W        W50269   7.354   0.838  10.487
77977W        W50270  25.120  33.420   0.317
77978W        W50271   2.792  18.583  12.876
77979W        W50272   8.290   0.355  11.514
77980W        W50273  14.794  40.435   2.253
77981W        W50274  12.805  29.499  14.856
77982W        W50275   0.324  42.967  14.390
77983W        W50276  20.766  28.507   4.293
77984W        W50277  13.151   6.368   4.280
77985W        W50278  35.505  22.175  14.006
77986W        W50279  11.762  29.511   0.876
77987W        W50280  37.516   2.465   2.219
77988W        W50281  31.067  23.045   0.923
77989W        W50282  21.157  35.390  12.446
77990W        W50283  31.633  10.231   1.376
77991W        W50284  31.481  34.886  12.472
77992W        W50285  10.149   7.416  12.362
77993W        W50286  35.452   8.214  10.629
77994W        W50287  40.400  39.375   0.265
77995W        W50288  40.931  33.488  13.468
77996W        W50289  40.031  22.145   1.239
77997W        W50290  16.764  37.465  11.436
77998W        W50291  36.559  41.889  13.338
77999W        W50292  13.182  31.055  12.365
78000W        W50293  31.994  42.865   3.727
78001W        W50294   5.278  30.924  10.581
78002W        W50295   2.906  19.628   2.708
78003W        W50296  24.225  41.995  12.389
78004W        W50297   8.827   5.233   3.654
78005W        W50298  19.261  11.295   0.339
78006W        W50299   6.222  37.461  14.935
78007W        W50300   6.689  44.776   2.723
78008W        W50301  19.265   5.848   1.839
78009W        W50302   0.330  16.144   2.409
78010W        W50303  13.766  16.780   2.418
78011W        W50304  37.362   6.851  10.592
78012W        W50305  18.125  16.737   0.748
78013W        W50306  15.762  35.031   1.837
78014W        W50307  11.338  23.197   2.272
78015W        W50308  22.536  15.210  14.896
78016W        W50309  31.410   6.859  12.549
78017W        W50310  22.239  24.528   2.308
78018W        W50311  30.490  10.240  14.760
78019W        W50312  15.311  34.464  13.978
78020W        W50313  18.086   1.358  12.381
78021W        W50314   5.871   0.771   3.839
78022W        W50315  37.057  13.350   2.387
78023W        W50316   1.301  24.480   0.387
78024W        W50317  12.264  10.350  11.609
78025W        W50318  40.825  39.856  12.905
78026W        W50319  11.760  12.135  12.887
78027W        W50320  39.347  29.430   1.416
78028W        W50321  36.576   2.434   1.904
78029W        W50322  35.890  13.615   2.814
78030W        W50323  31.088   5.759   0.756
78031W        W50324  34.467   9.670  14.516
78032W        W50325  39.809   6.189  11.388
78033W        W50326  34.424   0.822  14.917
78034W        W50327   6.813  12.625  12.565
78035W        W50328  26.068  28.118  10.615
78036W        W50329  35.378  36.579   4.688
78037W        W50330   6.304  20.582   0.299
78038W        W50331  22.649   4.400  14.992
78039W        W50332  40.924   3.901   0.957
78040W        W50333  30.413  13.200   1.381
78041W        W50334  30.593   5.356  12.895
78042W        W50335  26.491   9.723   2.195
78043W        W50336   1.416   8.810  12.902
78044W        W50337  17.226  19.176  14.291
78045W        W50338  22.568  11.724  10.509
78046W        W50339  12.355  14.718   1.849
78047W        W50340   8.805  40.046  11.603
78048W        W50341  13.837  18.065  12.546
78049W        W50342  35.448   8.746  11.093
78050W        W50343  21.123  27.133   1.886
78051W        W50344  40.438   3.928  14.854
78052W        W50345  13.322  29.579  14.329
78053W        W50346  27.605   1.254  14.901
78054W        W50347   1.963   9.293  13.821
78055W        W50348  15.625  19.160  12.987
78056W        W50349   4.806  21.062   0.471
78057W        W50350  34.036  12.120  12.897
78058W        W50351  24.059  40.424  11.957
78059W        W50352  38.505  22.046   4.627
78060W        W50353  29.537  32.577  11.051
78061W        W50354  36.866  24.041  10.544
78062W        W50355  16.641   3.771   1.306
78063W        W50356   8.215   1.772  13.378
78064W        W50357  15.696   7.807   3.672
78065W        W50358  19.754  17.171   1.451
78066W        W50359  39.914   7.911   3.270
78067W        W50360  27.098  21.254   3.871
78068W        W50361  38.970  22.093  12.096
78069W        W50362   5.799  31.938  11.489
78070W        W50363  29.553  39.541   2.353
78071W        W50364  25.212  21.516   4.327
78072W        W50365  19.757  27.534  13.508
78073W        W50366  19.689  18.280  11.381
78074W        W50367  12.753   3.385  14.444
78075W        W50368  25.594  14.803  13.916
78076W        W50369  30.131   9.849  11.397
78077W        W50370  26.012  26.498  13.015
78078W        W50371  35.101  40.944  11.487
78079W        W50372  41.476  38.475  12.849
78080W        W50373  12.669  37.556   2.708
78081W        W50374   9.751  13.184  12.920
78082W        W50375  22.687   7.703  11.421
78083W        W50376  37.986  44.493  10.536
78084W        W50377   2.784  35.926   0.773
78085W        W50378  31.906  44.908   0.781
78086W        W50379  23.183  21.679  10.422
78087W        W50380  12.254  36.893   3.350
78088W        W50381   3.936   0.430   4.177
78089W        W50382   6.874  18.760  12.460
78090W        W50383  23.666  42.351  10.620
78091W        W50384   2.364  18.556   0.805
78092W        W50385   6.685  23.147   3.149
78093W        W50386   1.949  23.127   0.448
78094W        W50387  19.257   4.703  13.543
78095W        W50388  22.160   9.313  12.358
78096W        W50389  27.063  40.883  10.534
78097W        W50390   7.274   6.909   3.176
78098W        W50391  27.486  27.011   3.308
78099W        W50392  12.656  20.672   1.412
78100W        W50393  31.908   8.802  13.034
78101W        W50394  36.443   4.272  11.087
78102W        W50395  30.529  25.970   4.683
78103W        W50396  32.025  30.537   3.795
78104W        W50397  18.102  13.668   3.636
78105W        W50398  33.501  25.704  12.025
78106W        W50399  39.886  19.226  10.969
78107W        W50400  35.460  35.537   2.343
78108W        W50401  21.174  35.010  11.068
78109W        W50402  22.569  32.401  11.002
78110W        W50403  12.663  27.481  10.418
78111W        W50404   1.376   3.855  13.395
78112W        W50405  21.526   5.285  14.333
78113W        W50406  15.690  12.297   1.402
78114W        W50407   4.772  34.450  12.439
78115W        W50408  34.081  37.507   1.778
78116W        W50409  15.183  33.389  14.296
78117W        W50410  41.820  27.558   2.322
78118W        W50411  37.932  44.497  12.881
78119W        W50412  41.920  27.090  13.547
78120W        W50413  22.074  15.770   0.832
78121W        W50414   9.655   5.215  14.854
78122W        W50415   5.890  31.964  12.053
78123W        W50416   7.236  30.134   2.754
78124W        W50417  42.819  17.063  12.510
78125W        W50418  37.834   9.390   1.899
78126W        W50419  42.939  13.345   0.393
78127W        W50420   5.753  31.007  11.422
78128W        W50421  19.668   9.782   3.242
78129W        W50422  37.546  37.458  14.474
78130W        W50423   9.199  43.383   4.287
78131W        W50424  10.672  10.733   4.741
78132W        W50425  35.058  38.879  10.894
78133W        W50426  43.774   3.786   2.842
78134W        W50427  12.685  11.858  14.424
78135W        W50428  11.653  11.295   4.618
78136W        W50429  33.018  37.996  13.798
78137W        W50430   2.961  36.092   1.856
78138W        W50431   8.754  31.979   0.298
78139W        W50432  15.711  34.077  12.358
78140W        W50433  38.462  33.574  14.982
78141W        W50434  22.520   2.239   5.719
78142W        W50435  11.249  38.433   2.373
78143W        W50436  38.995  40.932  12.844
78144W        W50437  12.170  44.912  11.960
78145W        W50438  28.012  10.303   4.824
78146W        W50439  19.697  35.931  14.922
78147W        W50440  23.122  34.875  14.854
78148W        W50441  29.557  44.359   1.377
78149W        W50442   8.776  25.108   0.768
78150W        W50443   5.194  32.581   1.323
78151W        W50444   5.765  30.526   3.240
78152W        W50445  17.077  38.072  12.090
78153W        W50446  11.312  41.925  14.400
78154W        W50447  31.471  25.208  14.968
78155W        W50448  38.480  36.978  13.366
78156W        W50449  23.620  30.116  13.865
78157W        W50450   1.252  13.675   3.169
78158W        W50451  28.473  26.138  13.465
78159W        W50452  42.424  42.509  13.983
78160W        W50453   9.335  23.708   3.185
78161W        W50454  12.228  26.962  13.900
78162W        W50455  38.052  25.139  13.993
78163W        W50456   1.823  39.394  13.530
78164W        W50457  40.885  32.547  12.014
78165W        W50458  20.663   4.860  12.989
78166W        W50459  33.470  14.325  12.067
78167W        W50460   8.200  31.953  12.425
78168W        W50461   7.848  14.698  11.924
78169W        W50462  29.118   7.303   0.831
78170W        W50463  14.336  33.949   2.849
78171W        W50464  31.970  24.075   2.346
78172W        W50465  12.341   6.728  14.968
78173W        W50466  42.290   5.849  11.065
78174W        W50467   4.738   7.774   1.442
78175W        W50468  41.421   7.831   2.227
78176W        W50469  26.613  18.693   1.797
78177W        W50470  17.621   4.840  11.997
78178W        W50471  22.667   8.791  10.910
78179W        W50472   0.760  21.749  11.422
78180W        W50473  14.309   0.920   5.278
78181W        W50474  22.221  41.471  12.965
78182W        W50475  25.601  11.721   0.857
78183W        W50476  41.528  30.949  13.314
78184W        W50477  10.715   1.772   3.266
78185W        W50478  35.031  13.173  14.030
78186W        W50479  41.336  12.775  12.515
78187W        W50480  29.951  36.364  13.036
78188W        W50481  17.573   1.297   3.161
78189W        W50482  20.653  44.304   3.258
78190W        W50483  24.555  31.485  11.009
78191W        W50484   9.704  22.514  14.512
78192W        W50485   8.839  36.555  13.050
78193W        W50486   0.781  10.790  11.069
78194W        W50487  10.175  36.893   0.347
78195W        W50488  43.017  27.526  13.926
78196W        W50489   5.889   9.663  11.387
78197W        W50490  30.053  11.711   1.310
78198W        W50491  33.909  25.205  12.556
78199W        W50492  39.848   7.235   1.275
78200W        W50493  19.274  40.917  13.961
78201W        W50494  24.107  38.552   0.747
78202W        W50495  34.455   4.776   2.321
78203W        W50496   7.236  36.381   5.806
78204W        W50497  26.954  38.463  12.878
78205W        W50498   0.333  15.308   2.259
78206W        W50499  19.213  34.052   5.249
78207W        W50500   0.303  20.594   1.880
78208W        W50501  21.184  31.630   4.709
78209W        W50502  13.307  35.460  10.941
78210W        W50503   2.747  31.430   3.304
78211W        W50504  36.068  22.167   0.747
78212W        W50505   1.975   3.255   4.776
78213W        W50506  24.716  38.417   4.760
78214W        W50507   3.278  37.893   4.628
78215W        W50508  23.228   5.273   4.276
78216W        W50509  12.770  16.583   3.260
78217W        W50510  42.483  29.090  11.424
78218W        W50511  17.695  38.350  11.571
78219W        W50512  10.276  16.568   0.905
78220W        W50513  17.216  27.479   3.244
78221W        W50514  19.702  38.960   0.949
78222W        W50515  43.403  35.039   4.335
78223W        W50516  33.079  44.388  13.979
78224W        W50517   8.895  40.334   4.635
78225W        W50518  24.973  30.462   1.336
78226W        W50519  43.403   5.736  11.590
78227W        W50520  14.677  33.435  14.901
78228W        W50521  28.473  19.079  11.560
78229W        W50522   5.375  39.351  12.927
78230W        W50523  29.593  42.486  12.397
78231W        W50524  33.890  15.802  12.580
78232W        W50525  33.095  13.790   3.866
78233W        W50526  21.181  34.543   0.259
78234W        W50527  39.340  27.543  11.424
78235W        W50528  31.418   8.686   1.369
78236W        W50529   2.414  33.428   0.922
78237W        W50530  15.678   2.798  13.006
78238W        W50531  38.824   5.839   3.185
78239W        W50532  21.158  15.299   2.669
78240W        W50533  12.335  37.027  12.569
78241W        W50534  27.101  42.956   0.409
78242W        W50535  30.939  17.595  11.048
78243W        W50536  24.695  25.500  11.450
78244W        W50537  30.655   0.779   1.872
78245W        W50538   2.456  44.836   3.769
78246W        W50539  34.916  22.136  14.331
78247W        W50540  17.191  12.809   4.620
78248W        W50541  24.635   8.862  12.400
78249W        W50542  17.759  27.663   0.805
78250W        W50543  21.222  28.988   4.341
78251W        W50544  31.644  20.147   4.211
78252W        W50545   0.975  37.452   3.362
78253W        W50546  25.714  10.323  10.129
78254W        W50547  10.304   8.768  14.805
78255W        W50548  44.815  44.481  11.999
78256W        W50549  33.885  30.616  14.281
78257W        W50550  32.628   2.762   1.848
78258W        W50551  42.515  14.163   4.123
78259W        W50552  21.179  32.897   3.348
78260W        W50553  25.556  34.552   4.240
78261W        W50554  31.910  34.433  11.378
78262W        W50555  35.429   3.246  10.566
78263W        W50556   6.214  35.545   2.847
78264W        W50557   3.844  28.114   2.269
78265W        W50558  37.870  40.914   4.332
78266W        W50559  15.110  26.023   0.904
78267W        W50560  18.195  27.591   2.713
78268W        W50561  32.608  41.347   4.779
78269W        W50562  19.605   2.883  13.534
78270W        W50563  21.554   2.862  12.440
78271W        W50564   6.237   2.468  14.502
78272W        W50565  16.699  37.480  13.820
78273W        W50566  34.114  32.057   2.681
78274W        W50567  23.546  37.568  12.959
78275W        W50568  39.983  25.080  10.643
78276W        W50569  20.538  18.676  12.932
78277W        W50570  43.812  32.059  10.471
78278W        W50571  26.492   5.877   1.723
78279W        W50572  27.605  18.070   3.331
78280W        W50573  19.536  32.545  14.996
78281W        W50574  31.441  18.226  13.828
78282W        W50575  19.275   4.918  12.934
78283W        W50576  24.174  24.014   3.672
78284W        W50577  37.479  28.456   2.199
78285W        W50578  22.725  39.039   1.277
78286W        W50579   1.461  32.425   0.741
78287W        W50580  42.793  18.734   2.208
78288W        W50581  16.317   6.751   4.822
78289W        W50582  43.446  23.052   1.305
78290W        W50583  21.695   6.423  14.462
78291W        W50584   3.878   0.275   2.668
78292W        W50585  32.122  13.797  14.484
78293W        W50586  39.902  22.572   1.730
78294W        W50587  15.817  25.126   9.989
78295W        W50588  17.170  21.249  14.352
78296W        W50589   8.276  32.990  14.960
78297W        W50590  16.672  10.803   4.765
78298W        W50591  19.088  27.573  11.090
78299W        W50592  37.544  36.877   3.203
78300W        W50593  29.662   9.310  10.031
78301W        W50594  25.149  27.552   1.326
78302W        W50595  29.963  29.947  13.792
78303W        W50596   1.923  11.180  14.830
78304W        W50597  33.945  23.108  14.854
78305W        W50598  20.256  27.631  10.504
78306W        W50599  44.896  26.545  13.968
78307W        W50600  23.081  24.694   0.753
78308W        W50601  38.856  27.018   2.281
78309W        W50602  36.383  23.589  11.441
78310W        W50603  26.470  32.536  14.440
78311W        W50604   2.885  17.638  10.971
78312W        W50605   6.744   6.234  14.970
78313W        W50606  32.548  41.977   0.482
78314W        W50607  14.112  25.664   1.212
78315W        W50608  21.531  37.376  11.935
78316W        W50609  25.494  13.682   0.428
78317W        W50610   4.333  23.691  10.524
78318W        W50611  44.411  39.496   4.282
78319W        W50612  14.298  25.210  11.514
78320W        W50613  37.479  37.853   1.771
78321W        W50614  22.641  43.431  13.999
78322W        W50615  29.479  20.705  14.439
78323W        W50616  12.161  30.131  10.903
78324W        W50617  38.036  13.131   0.888
78325W        W50618  17.575  24.619  10.956
78326W        W50619  21.061  32.558  11.562
78327W        W50620  35.504  26.701   1.406
78328W        W50621  39.960  12.623  13.058
78329W        W50622  25.122  31.582  10.940
78330W        W50623  43.418   5.351   0.802
78331W        W50624  36.081  16.764   0.403
78332W        W50625  42.833  25.683   2.235
78333W        W50626  24.204   1.367   3.637
78334W        W50627  26.603  33.396   2.785
78335W        W50628  21.648   4.718   2.882
78336W        W50629  38.047   8.758   0.886
78337W        W50630  29.442  44.400  12.852
78338W        W50631  21.029  30.635  11.503
78339W        W50632   0.982  37.044   4.787
78340W        W50633  28.513  28.109   1.443
78341W        W50634   8.857  33.088   2.898
78342W        W50635  42.392  26.070   3.637
78343W        W50636  38.893  18.730  14.765
78344W        W50637  31.967  44.804  13.956
78345W        W50638  41.967  23.594  14.923
78346W        W50639  10.738  22.514   0.461
78347W        W50640  17.237   4.325   2.250
78348W        W50641  24.153  18.088  11.031
78349W        W50642   9.735  36.385  10.644
78350W        W50643  34.391   7.803   1.905
78351W        W50644  32.997  14.321   4.775
78352W        W50645  27.508  38.484   0.393
78353W        W50646  10.182  38.045   2.879
78354W        W50647  26.152  26.976  14.891
78355W        W50648  18.648  28.973  10.432
78356W        W50649  39.418  15.590  12.356
78357W        W50650  42.925  10.250  12.546
78358W        W50651  11.705  40.943   4.307
78359W        W50652  35.515   0.299   2.369
78360W        W50653  26.114   4.781   5.220
78361W        W50654   0.435  22.735  13.389
78362W        W50655  39.375  32.466  13.340
78363W        W50656  19.055  38.472   1.421
78364W        W50657  17.790  15.821   1.890
78365W        W50658  33.023   5.730   2.378
78366W        W50659  31.909  33.049  11.414
78367W        W50660  25.633  14.659  14.764
78368W        W50661  22.129  27.604   4.354
78369W        W50662   9.350  27.073   1.918
78370W        W50663  22.030   8.852   4.119
78371W        W50664  25.516  40.820  12.868
78372W        W50665  18.123  42.849   2.334
78373W        W50666  18.560   8.882  11.858
78374W        W50667  33.559  43.840  13.939
78375W        W50668  39.945   3.453  12.445
78376W        W50669  25.580  20.055   2.794
78377W        W50670  11.150  37.874  14.352
78378W        W50671  14.768  30.102  12.846
78379W        W50672  19.750  29.470   4.177
78380W        W50673   4.857   5.725   2.747
78381W        W50674  21.161  23.491   3.242
78382W        W50675   8.270  38.955  10.449
78383W        W50676  31.523  11.822   5.128
78384W        W50677  34.039  28.933  12.364
78385W        W50678  21.511  20.135   0.806
78386W        W50679  16.179  25.096  11.413
78387W        W50680  18.760  18.616   3.723
78388W        W50681  30.453  26.056   2.692
78389W        W50682  22.646  40.805   2.713
78390W        W50683  11.658  21.192   1.910
78391W        W50684  34.022  19.721  10.477
78392W        W50685  11.640   5.713   4.116
78393W        W50686  20.101  23.628   1.371
78394W        W50687  33.399  38.342   3.246
78395W        W50688  32.019  22.738   2.662
78396W        W50689  40.824   4.730   3.281
78397W        W50690   4.206  37.055   4.147
78398W        W50691  36.499   0.386  14.298
78399W        W50692  11.827  19.570  11.882
78400W        W50693   6.392  32.498   3.159
78401W        W50694   6.361  24.032   2.789
78402W        W50695   7.326  41.869  14.479
78403W        W50696  21.171  12.649  10.538
78404W        W50697  10.340  31.923  11.110
78405W        W50698  42.987  22.519  13.351
78406W        W50699  25.087  35.981  13.904
78407W        W50700  40.935  20.684  11.589
78408W        W50701   2.240  33.400   4.636
78409W        W50702  43.372  33.887  11.597
78410W        W50703  10.753  17.195   3.333
78411W        W50704   6.184   3.892   1.886
78412W        W50705  13.845  37.499   1.362
78413W        W50706  32.568   4.922   0.404
78414W        W50707  22.671  37.396  13.451
78415W        W50708  21.174  29.502   1.779
78416W        W50709  21.151  36.039  11.559
78417W        W50710  30.083  44.431   3.215
78418W        W50711   9.810   9.723  12.921
78419W        W50712   0.843  22.018  14.923
78420W        W50713  37.074  18.176   4.599
78421W        W50714   7.376   5.923  10.970
78422W        W50715  27.158  20.035  11.876
78423W        W50716  29.508   0.270  13.522
78424W        W50717  16.749  38.424   1.279
78425W        W50718  14.236   5.782  14.503
78426W        W50719  17.669   5.725  13.452
78427W        W50720  18.746  31.076   0.360
78428W        W50721  23.102  26.090   2.275
78429W        W50722  14.749  30.009  14.290
78430W        W50723  44.265  32.540   1.789
78431W        W50724  27.176   4.319  11.077
78432W        W50725  38.880  17.166   1.821
78433W        W50726  31.442  19.069  13.348
78434W        W50727  36.036  36.421  12.996
78435W        W50728  14.726  22.709  10.104
78436W        W50729  36.562  41.946   0.364
78437W        W50730  20.057   2.255  11.924
78438W        W50731   3.748  14.703  12.978
78439W        W50732  35.110   9.663   3.691
78440W        W50733   5.420  14.634  13.334
78441W        W50734   2.293   3.742  12.023
78442W        W50735  28.591  23.623   5.229
78443W        W50736  27.167  23.045   4.211
78444W        W50737   1.268   4.722  12.084
78445W        W50738   5.303  11.157   3.203
78446W        W50739   9.291  43.427  11.944
78447W        W50740  25.196   7.813   2.686
78448W        W50741  30.069   5.699  10.569
78449W        W50742  43.457  39.434  13.308
78450W        W50743   5.888  26.056   0.278
78451W        W50744  43.790  16.176   4.708
78452W        W50745  32.421   0.426   2.322
78453W        W50746  31.134  40.986   4.799
78454W        W50747   1.459  12.631  14.947
78455W        W50748  35.940  23.563   1.793
78456W        W50749  30.443   9.727   0.330
78457W        W50750  28.672  24.558   4.838
78458W        W50751  22.581  41.459   5.096
78459W        W50752  16.205   4.428   3.286
78460W        W50753  31.633  23.112   4.146
78461W        W50754  20.660  30.008   1.710
78462W        W50755  35.960  19.231  11.955
78463W        W50756  43.270  38.399  14.803
78464W        W50757  18.690  44.425   3.148
78465W        W50758  13.183  33.951  14.976
78466W        W50759  13.338  37.941  12.461
78467W        W50760  33.388  22.183   4.266
78468W        W50761  25.692  20.203   4.239
78469W        W50762  34.984  21.555   2.304
78470W        W50763   2.268   3.755   0.380
78471W        W50764   6.907  37.970  13.350
78472W        W50765  26.968   5.720   1.757
78473W        W50766  20.101  24.684   2.219
78474W        W50767  10.239  41.969   1.787
78475W        W50768  38.892  43.902   1.410
78476W        W50769  39.058  37.087   4.701
78477W        W50770  43.286  19.279   1.366
78478W        W50771  27.064  35.014   1.775
78479W        W50772  26.575   5.335   1.905
78480W        W50773  21.540  41.982  11.371
78481W        W50774  12.203  29.508   0.761
78482W        W50775  18.652  38.007   0.751
78483W        W50776  24.090  15.733   2.725
78484W        W50777  40.050  16.802  12.080
78485W        W50778   5.924  44.931   4.338
78486W        W50779  13.710   5.767  10.937
78487W        W50780  14.186  36.001  11.576
78488W        W50781  37.410  40.917  14.887
78489W        W50782  35.901  36.900   3.169
78490W        W50783  25.155  42.810   4.227
78491W        W50784  24.563   0.453   4.627
78492W        W50785  32.611  35.860  12.076
78493W        W50786  28.938  21.742   9.941
78494W        W50787  14.771   2.877   4.168
78495W        W50788  40.543  36.925  13.389
78496W        W50789  17.759   4.261   1.872
78497W        W50790  26.625  14.318  11.596
78498W        W50791  32.141  32.619   1.284
78499W        W50792  20.171  21.543   4.188
78500W        W50793  40.878   9.814   0.267
78501W        W50794  42.933  18.131  10.500
78502W        W50795  28.013  22.019  14.014
78503W        W50796  15.101  29.038   1.352
78504W        W50797  39.830  24.996  10.955
78505W        W50798  19.763  14.329   3.373
78506W        W50799  14.132  33.086   0.824
78507W        W50800  20.660  44.987   3.866
78508W        W50801  44.998  24.531   0.778
78509W        W50802   4.871   8.817  13.974
78510W        W50803  14.735  39.420   3.675
78511W        W50804  26.555  40.312  12.996
78512W        W50805   6.820  12.793  12.080
78513W        W50806   4.770  10.763  13.894
78514W        W50807  37.570   0.775  14.955
78515W        W50808  17.210  15.233   0.924
78516W        W50809  25.632  23.147  11.901
78517W        W50810  14.206  38.924   3.315
78518W        W50811   5.381  40.431  10.136
78519W        W50812  32.079   1.846  14.475
78520W        W50813   7.805  26.198   4.608
78521W        W50814  12.800  14.182  11.025
78522W        W50815   8.781  44.417  10.429
78523W        W50816  21.651  38.338   2.237
78524W        W50817   4.323  27.968   3.679
78525W        W50818  43.768  36.046  10.010
78526W        W50819  26.983   1.881   1.440
78527W        W50820  16.246  25.570   0.758
78528W        W50821  27.661  43.831   3.847
78529W        W50822  12.822  18.645   4.347
78530W        W50823  44.879   2.437   3.184
78531W        W50824  40.866   5.296   3.687
78532W        W50825  28.161   7.812  12.007
78533W        W50826  23.584   6.309   3.757
78534W        W50827  23.578  17.115   3.147
78535W        W50828   8.718  30.100   0.748
78536W        W50829   3.784  40.812   0.356
78537W        W50830   5.710  22.680   2.789
78538W        W50831  40.537  35.950  13.366
78539W        W50832   4.823  42.893   0.479
78540W        W50833   2.327  41.529   2.239
78541W        W50834  26.958  25.663   4.637
78542W        W50835  10.253   4.362  13.450
78543W        W50836   1.338  25.475   1.367
78544W        W50837  33.494  31.455   9.988
78545W        W50838  39.505   9.270  13.834
78546W        W50839  28.644  22.072  10.423
78547W        W50840  14.284  10.245   3.802
78548W        W50841  34.517  41.011   1.777
78549W        W50842  29.981  31.520  14.951
78550W        W50843  39.012   8.875   3.218
78551W        W50844  37.460  26.085  11.952
78552W        W50845  13.299  37.001  13.819
78553W        W50846  28.603  19.172  14.824
78554W        W50847   9.373   1.357   2.740
78555W        W50848  36.046  22.654   2.675
78556W        W50849  32.092   9.203  14.932
78557W        W50850  30.446   0.802  12.528
78558W        W50851   0.911  12.666   0.756
78559W        W50852  22.665  41.969   3.723
78560W        W50853  36.096  42.787   1.891
78561W        W50854   4.425  16.749  11.579
78562W        W50855  36.929   8.268   1.843
78563W        W50856  44.824   3.423   1.451
78564W        W50857  36.054  10.753   4.674
78565W        W50858  32.627  28.451   2.681
78566W        W50859   4.873  19.258  10.926
78567W        W50860  13.621  19.735   2.321
78568W        W50861  20.043  15.580   1.822
78569W        W50862  11.630  10.816  11.438
78570W        W50863  30.976  21.702  10.971
78571W        W50864  35.580   3.893  14.955
78572W        W50865   4.339   3.788   4.182
78573W        W50866   3.328  31.560  11.056
78574W        W50867  37.554   2.769   1.859
78575W        W50868  26.664   6.882  11.486
78576W        W50869   2.442  13.600  14.842
78577W        W50870  11.621  11.210  14.013
78578W        W50871   8.854  24.124   4.747
78579W        W50872   5.720  15.648  13.822
78580W        W50873  29.482   7.899  13.821
78581W        W50874  32.397  37.420   0.844
78582W        W50875  28.126  18.768  14.909
78583W        W50876  41.799   3.396  11.023
78584W        W50877  21.572  28.006   2.803
78585W        W50878  10.177   8.670  11.883
78586W        W50879  20.762  26.989   3.645
78587W        W50880  25.587  35.862  14.514
78588W        W50881   2.751  22.133   1.258
78589W        W50882   3.775   9.887   2.760
78590W        W50883  40.546  26.149   1.418
78591W        W50884  44.871  12.632   0.755
78592W        W50885   5.333   6.249   4.741
78593W        W50886  17.648  12.855   4.299
78594W        W50887  41.012  17.167  14.919
78595W        W50888   9.298  32.397  12.577
78596W        W50889  35.918   0.394   3.838
78597W        W50890  28.954  17.099  14.787
78598W        W50891  30.102  43.999  14.434
78599W        W50892   2.816  22.732  12.936
78600W        W50893  34.424  31.966   0.736
78601W        W50894  39.364  32.901  14.506
78602W        W50895  39.396  44.799   2.698
78603W        W50896  29.002  30.620   1.841
78604W        W50897  39.898   4.823   2.688
78605W        W50898   7.394  35.959  11.590
78606W        W50899  35.979  32.511  12.027
78607W        W50900  16.698  17.164  11.126
78608W        W50901  27.035   7.684  12.535
78609W        W50902  36.368  32.560  14.967
78610W        W50903  35.598   0.486  11.036
78611W        W50904   2.965  32.441   0.945
78612W        W50905  10.258   8.355   4.225
78613W        W50906  14.594  26.679  12.367
78614W        W50907  32.009  31.540  14.948
78615W        W50908   6.797  33.623   4.819
78616W        W50909   6.376  13.141  10.614
78617W        W50910  10.691  39.990   0.267
78618W        W50911  18.149  44.853  11.033
78619W        W50912  36.503  31.143   1.927
78620W        W50913  42.905  26.480   5.294
78621W        W50914  20.722  44.981  10.521
78622W        W50915  32.524  10.668   2.280
78623W        W50916   9.856  42.991   0.278
78624W        W50917  38.894   2.885  13.951
78625W        W50918  28.138  15.166   0.747
78626W        W50919  18.051  37.077  11.878
78627W        W50920  33.388  12.626   4.783
78628W        W50921  41.786  19.220  11.903
78629W        W50922  33.048  28.038   0.279
78630W        W50923  35.018  18.189   4.650
78631W        W50924  38.026  29.443  12.887
78632W        W50925  29.068   8.876   0.876
78633W        W50926  43.776  26.119  11.445
78634W        W50927  37.985  26.683   1.269
78635W        W50928  35.389  11.661  11.051
78636W        W50929  33.049  22.686  11.000
78637W        W50930  38.929  43.764  11.558
78638W        W50931  12.182   1.867  14.304
78639W        W50932  23.168   7.881  10.565
78640W        W50933   4.410  20.091  11.989
78641W        W50934  35.466   4.777   1.921
78642W        W50935  40.818  30.543  14.948
78643W        W50936  25.029  44.296   2.849
78644W        W50937   3.727  37.362   1.325
78645W        W50938   8.292  21.512  11.465
78646W        W50939  43.274   6.220  10.119
78647W        W50940  15.717  29.647   0.471
78648W        W50941  11.286   9.317   4.719
78649W        W50942  16.286  16.188  10.921
78650W        W50943  34.103   7.299   4.819
78651W        W50944  28.534  43.871   1.701
78652W        W50945  19.623  40.321   1.766
78653W        W50946   0.909  38.905   2.705
78654W        W50947  39.328  16.210  13.804
78655W        W50948  10.240   9.285  13.941
78656W        W50949  35.483  13.215  11.447
78657W        W50950   5.219  34.584   2.408
78658W        W50951  18.714  10.257  14.913
78659W        W50952   3.455  24.044   4.653
78660W        W50953  11.662   1.395  13.932
78661W        W50954  34.498  18.731   4.325
78662W        W50955  22.092  10.331  12.081
78663W        W50956  25.016   4.325   5.685
78664W        W50957  19.206  23.107   0.776
78665W        W50958   8.168  18.230   3.755
78666W        W50959  41.359  34.909   2.306
78667W        W50960  26.469   6.321  13.043
78668W        W50961  40.524  19.731   0.764
78669W        W50962  44.005  38.867  11.971
78670W        W50963  13.238  18.552   1.757
78671W        W50964  34.580  17.663  12.530
78672W        W50965  24.177  24.722  13.958
78673W        W50966   2.922  37.956  13.836
78674W        W50967   4.368  10.215  11.918
78675W        W50968  30.936   6.268  10.942
78676W        W50969  12.291  26.622  14.790
78677W        W50970  23.062  29.561  11.533
78678W        W50971  16.228   6.726  13.341
78679W        W50972  37.553   5.697   0.946
78680W        W50973   6.281  32.535   1.233
78681W        W50974  12.123   4.915  11.877
78682W        W50975   7.689  43.332   1.787
78683W        W50976  24.973  26.466   0.805
78684W        W50977  35.449  34.419  14.804
78685W        W50978  25.018  25.657   1.710
78686W        W50979  30.461  36.003  12.466
78687W        W50980  26.547  31.552   2.305
78688W        W50981  25.974  34.529  14.323
78689W        W50982   0.798  18.784   3.819
78690W        W50983  15.720  12.718  14.920
78691W        W50984  44.821  19.046   4.234
78692W        W50985  32.932  20.155  12.441
78693W        W50986   4.255   8.886   0.931
78694W        W50987  41.899  21.513   2.677
78695W        W50988  38.533   6.688  12.029
78696W        W50989  30.499  24.613  13.908
78697W        W50990  37.422   3.834  14.297
78698W        W50991  42.467  38.370   4.240
78699W        W50992   3.842   3.897   3.175
78700W        W50993  12.127  14.126   2.713
78701W        W50994  24.508   3.215   4.176
78702W        W50995  18.715  44.889  12.827
78703W        W50996  38.043  42.938   1.810
78704W        W50997  16.294   3.457  13.801
78705W        W50998  34.936  19.566   3.253
78706W        W50999  39.438   3.237   2.283
78707W        W51000   0.967  35.508   2.407
78708W        W51001  31.481  19.179  14.307
78709W        W51002  10.749   9.196   1.292
78710W        W51003  11.762  31.404  14.897
78711W        W51004  33.096   9.200   2.380
78712W        W51005   7.276   0.441   3.722
78713W        W51006  14.760  36.397  14.943
78714W        W51007  28.630  23.549   5.699
78715W        W51008  35.043   1.910   0.936
78716W        W51009   5.329  39.955   2.250
78717W        W51010   2.370  27.962   2.217
78718W        W51011  10.325  32.997   2.184
78719W        W51012  13.115   2.415   1.790
78720W        W51013   6.253  12.657  10.046
78721W        W51014  10.679  43.859   3.785
78722W        W51015   4.215  38.340  13.327
78723W        W51016   7.812  39.355   4.709
78724W        W51017  12.255  11.223  11.489
78725W        W51018  42.496  44.771  11.891
78726W        W51019   0.293  10.731   1.388
78727W        W51020  42.943  31.143   1.728
78728W        W51021  12.150   4.393  11.075
78729W        W51022  29.602  34.378   0.929
78730W        W51023  24.643  21.066  13.819
78731W        W51024  11.140  21.110   3.288
78732W        W51025  27.486   8.220  11.090
78733W        W51026  25.015   9.735   4.321
78734W        W51027  21.241  36.088   0.767
78735W        W51028  38.933  12.842   2.220
78736W        W51029  13.248  35.098  14.341
78737W        W51030  28.977   1.466   2.345
78738W        W51031  36.940   0.257  11.395
78739W        W51032  35.014  10.807  11.499
78740W        W51033  33.130   1.950   1.735
78741W        W51034  38.071  44.277   3.670
78742W        W51035  39.480  39.378   1.724
78743W        W51036  42.486  16.608   5.754
78744W        W51037  14.141   2.931  10.568
78745W        W51038  20.151  39.954  11.898
78746W        W51039   4.850  18.775   3.740
78747W        W51040  38.518  13.722   3.796
78748W        W51041  11.140  12.249  13.548
78749W        W51042  20.719   0.471  14.468
78750W        W51043  39.428   2.468  13.502
78751W        W51044  19.122  22.209   0.333
78752W        W51045  34.938  42.322   2.269
78753W        W51046  10.854  44.785   0.430
78754W        W51047  12.705  10.364   1.703
78755W        W51048  28.032  32.508  14.011
78756W        W51049  40.910  28.660  12.970
78757W        W51050   3.766   1.329   1.827
78758W        W51051  24.717  41.991   0.288
78759W        W51052  14.318  34.379   4.644
78760W        W51053   2.874   4.829   4.662
78761W        W51054  41.513  15.604  14.965
78762W        W51055  11.773   5.879  10.458
78763W        W51056  21.627  11.367  12.941
78764W        W51057  39.013  23.078  13.461
78765W        W51058   5.320  24.483   4.789
78766W        W51059  21.243   2.405   4.270
78767W        W51060  16.659  42.850   5.276
78768W        W51061  40.891   3.831  14.927
78769W        W51062  32.004  43.000   1.275
78770W        W51063  18.073  30.046   4.703
78771W        W51064  41.871   7.323   2.220
78772W        W51065  27.452  21.628   5.604
78773W        W51066  18.667  16.137  11.021
78774W        W51067  27.628   0.482   1.413
78775W        W51068   3.457  12.648  13.531
78776W        W51069   8.357  43.015   2.736
78777W        W51070  28.066  32.403   0.376
78778W        W51071  34.963  35.411  13.865
78779W        W51072   3.215  11.281  12.989
78780W        W51073  35.027  25.056   4.212
78781W        W51074  13.621  41.925  13.466
78782W        W51075   8.365  39.862   0.739
78783W        W51076  30.032  43.515  11.866
78784W        W51077  23.227   7.249   1.276
78785W        W51078  16.764  13.234  12.339
78786W        W51079  27.026  15.197   1.303
78787W        W51080  36.500  31.019  14.843
78788W        W51081  19.117  43.787   2.727
78789W        W51082  32.031  17.162   5.085
78790W        W51083  37.013  37.983  12.916
78791W        W51084  10.264  35.046   4.147
78792W        W51085  23.222  44.373   3.864
78793W        W51086  33.621   9.828   0.834
78794W        W51087  24.656  28.962   1.711
78795W        W51088  25.091  22.219   0.339
78796W        W51089   4.446   7.224  11.959
78797W        W51090  29.165  22.210  13.329
78798W        W51091  40.030  44.422   0.824
78799W        W51092  34.430  22.207  11.411
78800W        W51093  39.469  21.729  10.632
78801W        W51094  24.700  33.538  13.857
78802W        W51095  20.081   5.896   3.204
78803W        W51096  13.815   4.343   0.918
78804W        W51097   7.175   0.973   4.158
78805W        W51098  33.579   6.903  12.835
78806W        W51099  38.899  14.720   1.319
78807W        W51100  35.997  38.557   3.355
78808W        W51101  34.104  15.694   4.159
78809W        W51102  42.497  37.020   4.785
78810W        W51103  20.604  41.432   4.180
78811W        W51104  44.418  22.683   4.180
78812W        W51105   5.782  39.853  12.874
78813W        W51106  16.240  29.460  13.898
78814W        W51107  25.017  16.797  11.947
78815W        W51108   6.220  11.227  12.936
78816W        W51109  27.511  18.224  12.543
78817W        W51110  25.049  17.589   4.812
78818W        W51111  10.784  25.589  12.366
78819W        W51112  39.948  25.657   1.300
78820W        W51113  41.923  28.945   5.111
78821W        W51114  33.986   4.266  12.036
78822W        W51115   7.784  16.291   0.854
78823W        W51116  41.336  28.636   2.203
78824W        W51117  38.074  38.403   3.233
78825W        W51118  11.754  29.107  14.978
78826W        W51119  43.278  21.044  11.590
78827W        W51120   3.344   2.258   5.114
78828W        W51121  27.954  42.493  13.835
78829W        W51122   1.969  38.465   4.820
78830W        W51123  20.591  32.118   4.734
78831W        W51124  14.256  36.000  14.292
78832W        W51125  25.032   1.734   3.764
78833W        W51126   5.891   9.188  10.608
78834W        W51127  35.402  17.133   1.730
78835W        W51128  37.388  21.245  13.327
78836W        W51129  15.268  15.238  14.279
78837W        W51130   8.656  16.810  14.779
78838W        W51131  13.314  44.855   2.226
78839W        W51132   6.251  20.698   4.701
78840W        W51133  24.995  11.636  10.994
78841W        W51134  44.478  41.302   2.831
78842W        W51135  23.180  34.941   0.320
78843W        W51136  42.294  12.700  13.041
78844W        W51137  43.795   0.935   2.290
78845W        W51138  20.243  42.410  11.497
78846W        W51139  42.027  14.821   4.748
78847W        W51140  21.527  10.382   4.806
78848W        W51141   1.335  18.657  13.317
78849W        W51142   1.441  44.480  12.053
78850W        W51143  26.027  44.983  11.538
78851W        W51144  38.038   5.204  14.322
78852W        W51145  12.680  27.592   3.166
78853W        W51146  10.354   3.390  13.838
78854W        W51147  31.937  24.169   4.644
78855W        W51148   2.788  39.448  11.556
78856W        W51149  33.951  22.102   2.388
78857W        W51150   4.204  34.469  11.896
78858W        W51151  28.478  16.228  10.993
78859W        W51152   6.294  37.075   1.897
78860W        W51153  20.062   8.891   2.403
78861W        W51154  37.538  24.024  11.870
78862W        W51155   1.876  33.464   2.802
78863W        W51156  23.071  35.415   2.766
78864W        W51157  36.444   4.300   3.168
78865W        W51158  29.503  21.131  12.924
78866W        W51159  31.533  32.083  12.828
78867W        W51160  40.355  36.908  11.081
78868W        W51161  31.080  39.440   2.742
78869W        W51162   3.854  32.009  13.387
78870W        W51163  33.073  20.728  13.341
78871W        W51164  11.164  25.202   0.472
78872W        W51165  26.146  18.138  10.930
78873W        W51166  19.085  39.461   2.234
78874W        W51167  25.484  35.868   2.333
78875W        W51168  34.887  23.186  13.004
78876W        W51169  30.605  28.479   3.298
78877W        W51170   3.404  16.274   0.776
78878W        W51171   6.699   4.325   4.801
78879W        W51172  44.986  30.579  12.552
78880W        W51173  19.096  20.706  13.967
78881W        W51174   3.339  20.213  14.436
78882W        W51175   0.337  26.642   3.686
78883W        W51176   6.786   2.936  10.539
78884W        W51177  18.072  13.667  11.075
78885W        W51178  16.810  28.466   3.642
78886W        W51179  39.346  18.722   4.139
78887W        W51180  42.486  36.351   4.814
78888W        W51181  18.250   3.933   2.258
78889W        W51182  12.304  25.133   2.812
78890W        W51183  41.817  31.125   1.421
78891W        W51184   7.708  43.453  11.461
78892W        W51185  12.147  37.984   3.796
78893W        W51186  26.537   1.446   0.763
78894W        W51187   4.712   2.800   2.321
78895W        W51188  40.982  17.616   2.289
78896W        W51189  22.081  13.266  11.446
78897W        W51190  17.243  20.598  12.913
78898W        W51191  11.198  18.600  14.354
78899W        W51192  19.276  24.107   4.257
78900W        W51193  25.650  11.825  10.403
78901W        W51194   9.326  17.235   4.628
78902W        W51195  43.333   4.914   0.399
78903W        W51196  30.030  14.218  14.425
78904W        W51197  26.626  22.553   5.147
78905W        W51198  20.131  30.907  14.855
78906W        W51199  24.195  42.850   5.230
78907W        W51200  24.201  43.319  11.377
78908W        W51201  34.468   6.271   1.340
78909W        W51202  28.146   5.271   0.964
78910W        W51203  25.005  19.059  13.458
78911W        W51204  25.488  18.183   2.369
78912W        W51205  37.864   6.852   1.768
78913W        W51206  38.359   3.350   1.854
78914W        W51207  33.547  12.727   1.440
78915W        W51208  43.916  14.776  14.995
78916W        W51209   0.963  36.376  14.901
78917W        W51210   8.332  28.039   3.330
78918W        W51211  12.334   6.364   4.654
78919W        W51212  12.138  22.062   4.602
78920W        W51213  22.567  42.344   2.889
78921W        W51214  22.541  30.116   0.751
78922W        W51215  30.139  35.038   1.890
78923W        W51216  21.069  13.222   4.827
78924W        W51217  17.633  19.060  10.443
78925W        W51218  35.520   1.881   1.440
78926W        W51219  17.701  25.524   0.276
78927W        W51220  43.866   9.177  13.880
78928W        W51221  30.455  24.121  14.416
78929W        W51222  19.561  33.107   3.760
78930W        W51223  16.615  19.736   4.352
78931W        W51224  29.000   2.780   0.936
78932W        W51225  21.748   0.400  10.557
78933W        W51226  15.298  22.177  13.948
78934W        W51227  32.611  44.852   4.256
78935W        W51228  35.498  26.667  12.348
78936W        W51229   1.950  43.460   4.599
78937W        W51230   3.903  26.989  14.460
78938W        W51231  13.826  40.049  14.857
78939W        W51232   2.452  11.740   1.793
78940W        W51233  23.144  19.720   1.751
78941W        W51234  28.932  19.709   0.333
78942W        W51235   8.677  24.490  14.866
78943W        W51236   3.852   8.884  12.384
78944W        W51237  24.524  24.684  14.944
78945W        W51238   5.331   7.836   3.755
78946W        W51239  35.055  37.992  14.805
78947W        W51240  38.026   0.411   3.168
78948W        W51241  31.126  20.669   2.410
78949W        W51242  29.554  27.992  12.495
78950W        W51243  37.578  37.388  13.517
78951W        W51244  23.147  27.993   2.308
78952W        W51245  15.227  25.660   1.903
78953W        W51246  43.394  10.698  14.807
78954W        W51247  11.187  20.127  12.070
78955W        W51248  24.669  40.476  12.381
78956W        W51249   2.781  36.926   1.309
78957W        W51250   6.299  24.055  12.832
78958W        W51251  39.865   7.171   4.786
78959W        W51252  12.638  28.999  10.575
78960W        W51253   6.345  34.524   4.354
78961W        W51254  21.746  25.572   0.372
78962W        W51255  41.439  31.088   2.379
78963W        W51256  31.580  30.007   2.254
78964W        W51257  19.191  44.425  12.468
78965W        W51258  40.850  33.528  12.351
78966W        W51259   5.864  13.686  11.010
78967W        W51260  21.240   0.299  10.633
78968W        W51261  33.124   8.232  12.869
78969W        W51262  13.754  17.762   3.147
78970W        W51263  19.717  22.570   1.301
78971W        W51264  12.132  16.730  10.496
78972W        W51265  38.013  32.466   4.732
78973W        W51266  35.022   3.754  12.049
78974W        W51267   6.712  37.941  12.073
78975W        W51268   7.865   6.301  14.278
78976W        W51269  14.594  21.638  12.440
78977W        W51270   3.943   7.352   1.284
78978W        W51271  13.139  29.513   4.692
78979W        W51272  15.676  31.135   2.694
78980W        W51273  28.464  12.122   2.814
78981W        W51274  24.118  24.142  11.536
78982W        W51275   7.819   2.345   1.431
78983W        W51276  22.181  39.501  14.765
78984W        W51277  43.353  29.056  12.044
78985W        W51278  23.015  42.320   1.299
78986W        W51279  36.019  20.665  10.909
78987W        W51280   7.181  39.418   2.273
78988W        W51281  18.717  40.478   2.401
78989W        W51282  23.495  28.449  14.430
78990W        W51283  19.583  38.820   3.166
78991W        W51284  26.094  39.497   0.352
78992W        W51285  13.111  23.560   4.180
78993W        W51286  21.647   2.926   0.303
78994W        W51287  32.418   3.415   3.238
78995W        W51288  18.124  25.652  11.086
78996W        W51289  23.496  40.012  11.051
78997W        W51290  35.428  38.018  11.104
78998W        W51291  22.513  33.913  11.525
78999W        W51292   7.230  24.063  10.467
79000W        W51293   4.385   5.323  14.282
79001W        W51294   9.652   3.811   0.315
79002W        W51295  38.827  25.005  11.597
79003W        W51296   9.644  41.470   4.350
79004W        W51297  41.921  36.095   2.206
79005W        W51298  33.496  44.923  11.012
79006W        W51299  35.521  10.640  11.576
79007W        W51300  13.811   9.842  13.055
79008W        W51301  14.668  12.152   4.287
79009W        W51302  22.575   3.409   9.996
79010W        W51303  24.129  29.573  14.885
79011W        W51304  39.465  14.310   1.892
79012W        W51305   2.803  15.147  11.442
79013W        W51306  43.868   2.445   3.348
79014W        W51307  29.464   1.247  14.984
79015W        W51308  11.730   9.363  12.549
79016W        W51309  28.973  15.685   2.877
79017W        W51310   3.951  37.896  11.906
79018W        W51311   6.227  42.882  13.972
79019W        W51312  41.867   0.265   4.770
79020W        W51313  26.538  44.281   1.270
79021W        W51314  20.741  37.843  12.455
79022W        W51315  16.803  31.047   1.344
79023W        W51316  18.547   8.349  12.999
79024W        W51317  15.243  19.702  13.818
79025W        W51318  29.922  20.580  14.321
79026W        W51319   5.887  43.951   1.845
79027W        W51320  44.313  43.911  10.012
79028W        W51321  19.558  26.521   0.456
79029W        W51322  19.081  44.972   3.200
79030W        W51323   0.442  43.463  12.904
79031W        W51324  27.476  24.180   5.188
79032W        W51325  21.089  39.007   5.250
79033W        W51326   2.859  17.599  10.476
79034W        W51327  33.033  38.552  13.534
79035W        W51328  15.634  34.900   4.316
79036W        W51329  42.788  43.288   0.747
79037W        W51330  23.571  39.361  10.436
79038W        W51331  42.988  13.284   1.323
79039W        W51332  28.097  40.492  11.478
79040W        W51333  16.665   6.385  11.930
79041W        W51334  14.215  30.646   1.340
79042W        W51335  41.818  38.892  11.889
79043W        W51336   6.919   8.390  14.359
79044W        W51337  15.103  40.825   3.210
79045W        W51338   4.377  19.076   0.813
79046W        W51339  28.005  37.960  14.787
79047W        W51340  34.070  23.124  10.575
79048W        W51341   7.364  44.457  13.357
79049W        W51342  24.158  30.432  10.898
79050W        W51343  17.572  36.402  11.025
79051W        W51344   0.311  23.517   4.825
79052W        W51345  39.914   9.824   4.640
79053W        W51346  36.586  10.757   0.923
79054W        W51347   9.366  15.245   0.327
79055W        W51348  29.584  27.562   3.774
79056W        W51349  30.543   1.787   1.761
79057W        W51350  25.665  20.675   4.718
79058W        W51351  19.231  29.501   2.275
79059W        W51352   8.254  15.786  14.423
79060W        W51353  17.141   0.788   0.354
79061W        W51354  33.935   3.270   3.260
79062W        W51355  43.861  44.350  11.606
79063W        W51356   1.483  36.401  11.432
79064W        W51357   4.822   5.282   3.823
79065W        W51358   1.787  16.121   2.339
79066W        W51359  12.722  30.043   2.698
79067W        W51360  20.262  40.400  14.782
79068W        W51361  40.450  20.270   2.338
79069W        W51362  23.151  22.155  10.418
79070W        W51363  44.880  27.151   4.667
79071W        W51364  20.208  11.245   2.353
79072W        W51365   4.875  35.589  11.540
79073W        W51366   3.786  22.512  13.009
79074W        W51367  40.004  39.898  12.032
79075W        W51368  17.162  16.282   2.179
79076W        W51369  30.016  26.554  11.422
79077W        W51370  24.202  10.302  13.400
79078W        W51371  15.277  25.134   0.285
79079W        W51372  37.433  28.058  11.442
79080W        W51373  44.786  25.184   3.701
79081W        W51374  24.104  26.533  11.003
79082W        W51375  10.251  19.280  12.026
79083W        W51376   4.909  15.740   2.406
79084W        W51377   1.847  41.371  14.465
79085W        W51378  21.076  13.109  12.845
79086W        W51379  17.084   8.705  11.932
79087W        W51380   0.779  11.294  10.899
79088W        W51381  16.575  18.083   1.270
79089W        W51382   7.890  40.940   4.221
79090W        W51383  39.468  35.507  12.915
79091W        W51384  34.371  14.335  11.889
79092W        W51385  16.221  39.894   0.359
79093W        W51386  37.905   0.876  13.353
79094W        W51387  10.203  44.378   0.388
79095W        W51388  10.736   1.299   3.231
79096W        W51389  38.459  15.650  13.802
79097W        W51390  32.033   1.378  13.317
79098W        W51391  32.507  21.591  11.577
79099W        W51392  26.205   3.296   2.409
79100W        W51393  12.768  15.767   2.843
79101W        W51394  15.227  33.034  11.468
79102W        W51395  42.014  10.369  14.767
79103W        W51396  36.937  42.328   4.805
79104W        W51397  18.124   1.735   2.746
79105W        W51398  39.416  38.857   0.742
79106W        W51399  44.327   9.753  13.036
79107W        W51400  24.091  40.444  10.580
79108W        W51401  32.954   1.885  13.794
79109W        W51402  29.504  14.675  14.494
79110W        W51403  24.012  15.271   4.631
79111W        W51404  21.714  22.105  12.837
79112W        W51405  37.031  29.464  14.324
79113W        W51406  13.285  27.038   1.236
79114W        W51407  14.645  18.778  13.840
79115W        W51408  20.235  37.927  13.977
79116W        W51409   0.321  26.189  11.542
79117W        W51410  11.839  23.715   3.256
79118W        W51411  23.717  23.526   3.824
79119W        W51412  25.545   6.286   2.777
79120W        W51413  20.742  32.590  13.489
79121W        W51414  13.810  38.937  11.414
79122W        W51415  13.195   2.231  12.481
79123W        W51416  23.595  19.062   4.353
79124W        W51417  31.003   4.905   3.256
79125W        W51418   8.894  22.163   9.989
79126W        W51419   2.323  29.620  14.904
79127W        W51420  32.913  42.348  13.893
79128W        W51421  24.001  33.938   4.226
79129W        W51422  17.734   7.415   1.717
79130W        W51423  11.283  22.083  14.324
79131W        W51424  32.926  44.944   0.799
79132W        W51425  14.303  18.587   2.310
79133W        W51426  22.099  14.106   0.358
79134W        W51427   5.274  39.426   2.190
79135W        W51428  12.141  19.583   1.719
79136W        W51429  22.010  27.687   3.255
79137W        W51430  39.524  27.051  12.571
79138W        W51431  11.285  15.193  12.959
79139W        W51432  17.618  19.272   4.311
79140W        W51433  17.630  36.519  14.369
79141W        W51434   3.284  24.514  10.571
79142W        W51435   3.282   6.383   4.828
79143W        W51436  17.267  30.621  14.284
79144W        W51437  30.640  26.537  14.784
79145W        W51438  19.779  21.735  10.121
79146W        W51439  12.766  30.991  12.078
79147W        W51440   7.373  34.096  14.405
79148W        W51441   1.355   7.890  13.936
79149W        W51442  35.974   6.187  12.877
79150W        W51443  29.930  21.678   1.879
79151W        W51444  43.329  23.144   0.957
79152W        W51445  11.289   1.868  12.577
79153W        W51446   6.754  26.134  13.446
79154W        W51447   3.778  19.697  11.067
79155W        W51448  29.925   1.409  11.044
79156W        W51449   4.366  22.570   0.463
79157W        W51450  35.590   8.298  11.081
79158W        W51451   1.889  37.869  10.555
79159W        W51452  40.480  15.317   0.777
79160W        W51453   9.731  10.647   3.644
79161W        W51454   0.330   6.261  14.871
79162W        W51455  30.109  13.322   0.946
79163W        W51456  44.933  15.237   2.822
79164W        W51457  20.599  43.827   4.771
79165W        W51458  12.304  36.848   2.199
79166W        W51459  40.317  23.183   4.685
79167W        W51460  25.986  26.109   1.754
79168W        W51461  44.893  11.709  10.983
79169W        W51462  18.251   5.721  11.860
79170W        W51463   2.776  34.574  10.533
79171W        W51464   9.729  26.954  12.000
79172W        W51465  22.728  25.025   0.260
79173W        W51466  40.381  17.076   0.881
79174W        W51467  42.982   9.661   4.708
79175W        W51468  30.568   9.659   2.214
79176W        W51469  36.906   2.419   3.151
79177W        W51470  36.024   3.819   3.710
79178W        W51471  43.421  17.177  10.080
79179W        W51472   0.846  19.171   0.965
79180W        W51473  29.473  30.162   2.393
79181W        W51474  27.560  20.107  12.489
79182W        W51475  43.475  12.767  12.016
79183W        W51476  14.708   3.394   1.847
79184W        W51477  23.627   2.285  14.978
79185W        W51478  42.456  27.686  12.898
79186W        W51479  32.586  17.112  14.487
79187W        W51480  36.020  42.456  12.551
79188W        W51481  44.384  14.762   5.262
79189W        W51482  18.137  28.546   0.455
79190W        W51483   4.922  35.481   0.857
79191W        W51484  19.723  20.619   4.214
79192W        W51485  27.674  26.158   4.821
79193W        W51486   7.296  21.663  10.577
79194W        W51487  10.268  40.549   3.757
79195W        W51488  34.039  28.520   3.830
79196W        W51489  30.490  42.023   1.906
79197W        W51490  35.936  15.697  10.993
79198W        W51491   6.301  12.214  13.538
79199W        W51492  20.681  28.137   0.362
79200W        W51493  29.156  38.363   3.770
79201W        W51494  10.869  44.896   1.285
79202W        W51495  34.468  21.680   3.696
79203W        W51496   6.922  39.551  12.382
79204W        W51497  29.101  26.045   3.199
79205W        W51498  36.083  36.057   0.357
79206W        W51499  18.721  40.039  12.917
79207W        W51500  35.402   9.150   2.827
79208W        W51501  23.054  27.167  11.974
79209W        W51502  25.016   5.276   3.651
79210W        W51503  42.011   3.946   2.838
79211W        W51504  32.628  38.048   2.263
79212W        W51505  20.073  19.700   4.197
79213W        W51506   1.369   9.844   3.274
79214W        W51507  38.975   6.296  12.518
79215W        W51508  10.274  41.875   4.812
79216W        W51509  39.400  44.953  11.497
79217W        W51510  35.450  15.084   2.852
79218W        W51511  34.571  28.093  13.814
79219W        W51512  22.553  10.198  14.336
79220W        W51513  11.319   8.366   0.418
79221W        W51514  31.596  13.242  12.044
79222W        W51515   5.404  41.930  12.572
79223W        W51516  37.485  13.255  11.424
79224W        W51517  12.270  38.891  12.017
79225W        W51518  14.192  12.834   2.328
79226W        W51519  22.602  16.088   0.850
79227W        W51520  25.603  22.190  10.929
79228W        W51521  15.299  36.463  10.424
79229W        W51522  34.567  15.132   0.247
79230W        W51523  22.055  34.972   3.641
79231W        W51524  25.079  14.291   4.824
79232W        W51525   4.243   0.923   2.414
79233W        W51526  33.116  29.659  13.451
79234W        W51527  33.509  26.651   9.932
79235W        W51528  26.499   2.355   0.900
79236W        W51529  22.651  21.054   4.262
79237W        W51530  15.684   1.801  10.126
79238W        W51531  24.001   6.385  12.021
79239W        W51532   9.879   5.434   0.858
79240W        W51533  43.396   1.968  13.935
79241W        W51534  39.041  30.467  10.930
79242W        W51535  11.759  25.527   1.791
79243W        W51536  39.461  37.364   3.272
79244W        W51537  22.035  35.971  13.793
79245W        W51538   7.219  12.153  11.436
79246W        W51539   5.789  25.010   1.396
79247W        W51540  38.519  10.265  11.093
79248W        W51541  15.634  39.457   4.751
79249W        W51542   2.349   4.900  14.798
79250W        W51543  23.069  25.634  11.995
79251W        W51544  26.524   3.823  13.018
79252W        W51545   0.441  41.479  10.583
79253W        W51546   5.434  33.403  11.095
79254W        W51547  38.897  11.148  11.554
79255W        W51548  20.048  10.165   3.757
79256W        W51549  25.548  19.552   5.093
79257W        W51550  33.131   5.277  14.901
79258W        W51551  32.454  10.239  11.855
79259W        W51552  24.195  40.038  14.021
79260W        W51553  24.574  10.244   3.267
79261W        W51554  43.776  26.591   4.661
79262W        W51555  21.630  14.758  14.001
79263W        W51556  37.884  33.446   4.609
79264W        W51557  37.919  17.138  11.527
79265W        W51558   9.192  26.095   0.929
79266W        W51559  22.178  10.162  10.953
79267W        W51560  38.404  15.702  10.155
79268W        W51561  44.352  35.076  11.398
79269W        W51562  22.726  29.035  14.278
79270W        W51563  18.553   0.349  10.605
79271W        W51564  17.114  41.355   3.764
79272W        W51565  41.811   4.797   2.797
79273W        W51566  22.249   2.736   4.179
79274W        W51567  33.393  28.165   2.372
79275W        W51568  25.508   5.397   5.753
79276W        W51569  18.141   9.673   1.354
79277W        W51570  23.122   3.440  10.918
79278W        W51571  28.639  39.414   1.297
79279W        W51572  29.539  36.016   0.823
79280W        W51573  21.589  41.844   1.697
79281W        W51574  15.767  41.849   1.430
79282W        W51575  21.598  26.082  11.382
79283W        W51576  32.588   1.809   2.284
79284W        W51577   8.815   6.818  13.529
79285W        W51578  31.961   4.272   0.471
79286W        W51579  31.093  33.890   0.858
79287W        W51580   2.348  11.653  11.521
79288W        W51581  42.327  19.175   0.802
79289W        W51582  14.799  40.514  11.994
79290W        W51583  11.634  43.806  13.492
79291W        W51584   1.761  26.591   2.696
79292W        W51585  18.643  40.851  13.960
79293W        W51586  16.578  37.409   0.955
79294W        W51587  10.673  24.504   3.841
79295W        W51588   5.377  10.666  14.324
79296W        W51589  10.829   8.264   2.743
79297W        W51590  22.685   1.267  11.104
79298W        W51591  30.436   4.901  11.486
79299W        W51592  22.663   3.902  10.084
79300W        W51593   2.924   4.779   3.677
79301W        W51594   1.884  27.065  12.991
79302W        W51595  18.766  15.736  12.410
79303W        W51596  15.264  27.121  13.054
79304W        W51597  20.207  44.898   0.959
79305W        W51598  23.085  39.483   1.923
79306W        W51599   1.445  16.636   4.758
79307W        W51600  32.604  27.613  12.005
79308W        W51601   6.411   7.251   3.646
79309W        W51602  11.664  38.868  10.074
79310W        W51603  38.965  12.829   0.290
79311W        W51604  19.549  20.108   3.721
79312W        W51605   5.434  36.853   3.660
79313W        W51606  26.139  10.695   2.891
79314W        W51607  17.802  30.067   2.398
79315W        W51608  40.357  16.712  14.331
79316W        W51609  14.272  38.534   3.667
79317W        W51610  28.678  43.310   4.307
79318W        W51611  21.044  15.600  11.858
79319W        W51612  17.185   3.458   2.363
79320W        W51613  20.031  40.894  11.938
79321W        W51614  31.445  31.431  13.878
79322W        W51615  10.232  27.067   2.699
79323W        W51616   9.327  41.537  10.523
79324W        W51617  30.151  32.906  13.954
79325W        W51618  37.348  22.698  14.878
79326W        W51619  11.201   6.335  11.087
79327W        W51620  33.107  32.889  11.558
79328W        W51621  17.652  15.606  13.418
79329W        W51622  43.971  16.574  11.399
79330W        W51623  44.313  24.984   4.205
79331W        W51624  11.859  23.656  14.956
79332W        W51625  22.215  30.068   0.274
79333W        W51626  20.062  25.662  10.518
79334W        W51627  31.558  19.205  13.011
79335W        W51628  21.144  18.626   1.344
79336W        W51629  32.937  43.991   2.275
79337W        W51630  26.183  15.101   0.779
79338W        W51631   8.811  42.308  10.482
79339W        W51632  29.482  36.429   2.678
79340W        W51633   5.234  41.002   0.393
79341W        W51634  12.302  39.391   4.711
79342W        W51635  30.046  30.096   3.837
79343W        W51636  38.507  21.074   3.661
79344W        W51637  21.620  23.226   1.867
79345W        W51638  37.921  35.935   1.905
79346W        W51639  24.006  15.316   1.711
79347W        W51640  37.398  23.167   3.260
79348W        W51641  32.501  14.800   1.720
79349W        W51642   4.404  39.848   4.806
79350W        W51643  11.132  15.604  14.933
79351W        W51644  23.552  25.592   1.897
79352W        W51645  21.704  44.298   4.705
79353W        W51646  38.842  31.015  10.982
79354W        W51647   0.278  12.334  13.976
79355W        W51648  24.526  35.374   2.672
79356W        W51649  37.514  15.679   3.783
79357W        W51650  33.003  11.781   3.636
79358W        W51651  26.185  18.112  13.977
79359W        W51652  28.102  12.335   4.315
79360W        W51653  24.675  10.299   2.729
79361W        W51654  35.391  26.967   0.346
79362W        W51655   8.269  25.500  12.489
79363W        W51656  24.506  41.429  10.475
79364W        W51657   1.809  41.484   4.689
79365W        W51658   9.235  10.652   0.323
79366W        W51659   7.687  16.260   4.676
79367W        W51660  14.797  28.510   4.803
79368W        W51661  41.452  14.805   3.358
79369W        W51662  21.709   5.380   2.818
79370W        W51663  43.910   0.961  12.852
79371W        W51664  31.622  43.877   3.370
79372W        W51665   2.824  37.453  13.417
79373W        W51666   4.861  27.630  10.624
79374W        W51667  12.763  15.745  11.097
79375W        W51668  30.569  39.354   3.831
79376W        W51669   4.939   1.854   2.826
79377W        W51670  43.339  16.237   0.390
79378W        W51671  21.722  33.566  12.494
79379W        W51672  25.219  32.937   1.364
79380W        W51673  17.191  29.574   3.808
79381W        W51674  31.140  43.909  11.035
79382W        W51675  32.568  39.859  11.109
79383W        W51676   3.897  43.490   2.892
79384W        W51677  22.629   2.732   2.800
79385W        W51678  28.670  23.099   1.931
79386W        W51679  27.663  11.163   1.387
79387W        W51680  28.566  37.492   0.960
79388W        W51681  17.145  35.564   3.289
79389W        W51682  44.772  10.679  12.566
79390W        W51683  41.873  13.223  11.866
79391W        W51684  32.485   8.240   0.839
79392W        W51685   3.385  26.981  13.454
79393W        W51686  23.518   7.230  11.896
79394W        W51687   4.944  28.472  12.079
79395W        W51688  12.135  37.481   1.337
79396W        W51689  36.395  17.561  12.834
79397W        W51690   4.847  41.319  12.511
79398W        W51691  24.123  18.578   0.778
79399W        W51692  23.605  18.544  10.545
79400W        W51693  24.006  10.792   3.315
79401W        W51694   3.925   9.261  12.428
79402W        W51695   2.409  22.163  12.039
79403W        W51696  19.139  43.921  14.497
79404W        W51697   5.877   1.856  13.882
79405W        W51698  28.499   3.887  13.382
79406W        W51699  40.853  11.638   2.376
79407W        W51700   0.448  39.412   3.267
79408W        W51701  16.785   5.908  10.555
79409W        W51702  27.034  39.357  11.973
79410W        W51703   0.442  12.726   1.869
79411W        W51704  40.346   6.299   4.127
79412W        W51705  18.783  19.776   3.869
79413W        W51706  44.006  35.446   1.930
79414W        W51707  26.157  34.984  14.898
79415W        W51708  34.378  16.272   0.374
79416W        W51709  21.687  17.108  13.348
79417W        W51710  26.677   6.229   4.778
79418W        W51711  31.450   4.914  11.420
79419W        W51712  38.360  22.233   1.255
79420W        W51713  28.954  40.045  14.429
79421W        W51714   8.781   6.876   0.442
79422W        W51715   0.254   7.908   2.218
79423W        W51716  44.455   1.812  13.823
79424W        W51717   7.345  18.217   3.332
79425W        W51718  27.566  31.966  10.088
79426W        W51719  16.742  31.116  12.345
79427W        W51720  13.160   7.221  14.855
79428W        W51721  44.329  19.735   3.638
79429W        W51722  35.045  39.518  12.978
79430W        W51723  25.514   0.302   4.257
79431W        W51724  43.895  17.611  12.030
79432W        W51725  28.051  24.993   0.418
79433W        W51726  42.359  19.639  14.942
79434W        W51727  11.147   8.366  14.449
79435W        W51728  24.509  27.140   0.338
79436W        W51729  15.140   4.788   5.240
79437W        W51730  43.390  42.798  10.128
79438W        W51731  33.094  21.056  12.022
79439W        W51732  35.434  37.524  14.391
79440W        W51733  17.251  38.961   1.833
79441W        W51734  31.464  30.919   0.836
79442W        W51735  11.837   9.737   0.755
79443W        W51736  12.696  22.040   4.774
79444W        W51737  35.995  41.382  12.448
79445W        W51738  12.836  29.106   2.718
79446W        W51739   3.248   0.458   1.447
79447W        W51740  44.400  30.119   0.780
79448W        W51741  37.530  19.680  10.146
79449W        W51742  35.567  39.510  10.937
79450W        W51743  28.943  43.940  11.964
79451W        W51744  17.113   0.313   0.305
79452W        W51745  23.647  11.168   2.312
79453W        W51746  11.628   6.246   1.393
79454W        W51747  43.769  40.442  11.380
79455W        W51748  29.976   5.892   3.182
79456W        W51749  15.114  14.601   1.359
79457W        W51750   5.767  30.108   1.327
79458W        W51751   1.944  26.519  12.963
79459W        W51752   8.231  26.076   4.139
79460W        W51753   8.261  35.553  10.488
79461W        W51754   2.913  33.570   2.882
79462W        W51755  21.582  18.783  11.066
79463W        W51756  11.622  33.538   2.197
79464W        W51757  41.526  37.834   3.278
79465W        W51758   4.278  31.936  14.889
79466W        W51759  39.836  25.994  12.374
79467W        W51760  40.828  21.220   1.715
79468W        W51761  28.100  24.192   5.243
79469W        W51762   1.480  23.666   3.370
79470W        W51763  12.147  20.767   1.402
79471W        W51764  28.536  33.489  12.044
79472W        W51765  25.620  10.766  14.806
79473W        W51766   2.785  22.501  14.975
79474W        W51767  17.127   6.366  14.294
79475W        W51768  27.479  35.080   4.639
79476W        W51769  30.468  38.417   0.820
79477W        W51770  16.233  13.665  12.986
79478W        W51771   2.777  20.676  11.007
79479W        W51772  22.630  20.252   0.473
79480W        W51773  25.012  38.503   3.667
79481W        W51774  24.031  17.108   3.184
79482W        W51775  30.645  44.793   2.189
79483W        W51776  28.540  24.170   5.105
79484W        W51777  12.810  11.772  12.984
79485W        W51778  35.499  29.966   4.156
79486W        W51779  28.095   3.413   0.884
79487W        W51780   1.392  25.123  14.356
79488W        W51781   9.888  16.611   4.207
79489W        W51782  30.979  36.873   1.243
79490W        W51783  12.792  10.207   0.303
79491W        W51784  21.111  18.083   1.219
79492W        W51785   6.733  41.877   1.273
79493W        W51786  42.364  14.607  13.529
79494W        W51787  26.145   3.330   4.306
79495W        W51788  42.004  27.058   3.819
79496W        W51789  30.012  19.187  14.461
79497W        W51790  15.715  40.825   0.457
79498W        W51791  29.443  23.623   0.812
79499W        W51792   1.363  41.856  10.495
79500W        W51793  43.804  35.978   0.945
79501W        W51794  32.418  35.877   0.275
79502W        W51795  36.960  22.723   4.276
79503W        W51796  23.024  31.103  14.993
79504W        W51797  31.094  34.045  11.120
79505W        W51798   2.859  30.111  10.904
79506W        W51799   5.734  42.475   2.697
79507W        W51800  11.228  44.417  14.936
79508W        W51801  33.589   1.350  14.799
79509W        W51802   8.753   3.754  13.867
79510W        W51803  23.077  32.422  12.861
79511W        W51804  26.973  21.670   0.321
79512W        W51805  18.729  36.431  12.884
79513W        W51806  36.006  28.184  14.388
79514W        W51807   2.255  25.517  10.623
79515W        W51808  26.998   2.740   3.664
79516W        W51809   2.908   2.298  11.922
79517W        W51810  24.981  22.235  13.892
79518W        W51811  23.635  35.412  11.558
79519W        W51812  10.355  39.360   5.150
79520W        W51813  12.812   0.925   3.291
79521W        W51814  32.964  20.035  10.539
79522W        W51815  41.977   5.908   9.939
79523W        W51816  38.478  19.257  11.912
79524W        W51817   1.919  20.621  12.560
79525W        W51818  20.576   9.283   0.881
79526W        W51819  12.240  24.046   1.314
79527W        W51820  28.046  17.253  14.943
79528W        W51821  28.472  42.856   1.436
79529W        W51822   0.422  41.385  14.864
79530W        W51823  31.127  23.013  11.947
79531W        W51824  44.431  38.064  14.030
79532W        W51825  22.539   1.917   1.889
79533W        W51826  27.644  30.091  12.852
79534W        W51827  29.595  18.674   4.315
79535W        W51828  13.154  31.567   2.326
79536W        W51829  39.950  40.050  13.060
79537W        W51830   9.177   4.450   3.696
79538W        W51831  35.419  26.059   2.356
79539W        W51832  16.084  30.935   1.784
79540W        W51833  11.164  39.849  14.827
79541W        W51834   7.885   0.788   1.234
79542W        W51835  25.134  22.176  10.476
79543W        W51836  23.615   7.849   3.272
79544W        W51837  27.686  42.387  11.427
79545W        W51838  29.948  21.162   1.919
79546W        W51839  18.230   2.752  11.957
79547W        W51840  11.132  35.920  13.912
79548W        W51841  34.942  35.104  12.475
79549W        W51842  38.427   0.388   4.664
79550W        W51843   5.283  23.604  10.481
79551W        W51844   1.850   6.838  11.928
79552W        W51845  19.280  18.170  11.856
79553W        W51846  25.709   3.955   4.688
79554W        W51847  23.152  25.989  11.946
79555W        W51848  26.988   3.406  13.039
79556W        W51849  40.983  18.206  14.873
79557W        W51850  17.721  18.547  10.558
79558W        W51851  41.292  16.632  10.574
79559W        W51852  33.512  29.136   4.768
79560W        W51853  42.356  11.368  12.987
79561W        W51854  16.093  14.682  11.458
79562W        W51855  28.151  36.026  11.054
79563W        W51856  18.096  39.371   1.318
79564W        W51857  42.939  41.402   9.972
79565W        W51858  40.868   6.325  14.852
79566W        W51859  37.447   3.304  13.975
79567W        W51860  36.429  16.609   3.171
79568W        W51861  39.932  38.521  13.481
79569W        W51862   1.405  42.900   2.202
79570W        W51863  19.653  25.567   2.812
79571W        W51864  21.694   8.761  11.387
79572W        W51865  26.138  23.680   4.775
79573W        W51866  41.874  10.877  13.497
79574W        W51867   9.751  28.084   4.730
79575W        W51868   5.196  35.480  13.323
79576W        W51869  34.888  34.601   0.273
79577W        W51870  20.582  15.707   4.150
79578W        W51871  13.162  30.046   2.234
79579W        W51872  33.964  16.208  10.516
79580W        W51873  13.122  35.433   4.655
79581W        W51874  18.590  43.832   3.834
79582W        W51875  11.305  38.525   1.279
79583W        W51876  26.117  33.513   2.277
79584W        W51877   8.250   8.824   0.343
79585W        W51878  23.666  16.621   1.818
79586W        W51879  44.955  34.412  11.053
79587W        W51880   5.439  39.916   4.755
79588W        W51881  17.073  42.461   3.829
79589W        W51882  22.208  41.456   2.896
79590W        W51883  35.474  14.618   0.865
79591W        W51884  16.595   4.338   1.234
79592W        W51885  38.979  21.097  10.057
79593W        W51886  44.324  17.650   3.224
79594W        W51887  33.522  39.889  11.412
79595W        W51888  31.601  21.233  12.963
79596W        W51889  39.364  14.801   1.748
79597W        W51890  17.785  39.002   0.767
79598W        W51891  44.291  36.441   2.233
79599W        W51892  12.360   6.677   2.785
79600W        W51893  19.085  27.478  10.515
79601W        W51894  35.423   1.365   3.634
79602W        W51895   8.783   1.420   4.137
79603W        W51896  18.266   4.778  12.982
79604W        W51897  27.604  39.482  13.795
79605W        W51898  11.676  35.579   3.370
79606W        W51899  37.368  44.422  14.321
79607W        W51900  16.801  28.619  10.597
79608W        W51901   7.330   4.444   2.805
79609W        W51902  20.747  22.106   1.765
79610W        W51903  22.222  41.375  13.452
79611W        W51904  28.646  41.929   4.624
79612W        W51905  26.165   7.676   1.391
79613W        W51906  23.558  10.860  11.459
79614W        W51907  15.191  32.593   0.772
79615W        W51908  29.621  42.876  11.966
79616W        W51909  34.435  37.891  12.515
79617W        W51910  20.745  41.954  14.898
79618W        W51911  16.314   3.748  14.418
79619W        W51912  19.539   2.944  14.945
79620W        W51913  43.390  43.288  10.526
79621W        W51914  33.520   2.241   1.893
79622W        W51915  40.965   3.840  14.407
79623W        W51916  35.099  18.678  12.396
79624W        W51917  38.413  31.563   3.360
79625W        W51918   3.243  26.014  11.924
79626W        W51919  22.743  22.501  13.439
79627W        W51920  16.238  34.115  10.986
79628W        W51921   0.467  28.440  13.410
79629W        W51922  29.982  12.770   3.749
79630W        W51923  33.128   3.852   4.626
79631W        W51924  41.938  18.551   1.827
79632W        W51925  28.001  39.526   1.858
79633W        W51926  11.336  16.635  10.993
79634W        W51927   0.451  21.246  13.447
79635W        W51928  39.506  10.654   2.374
79636W        W51929  14.708  44.800   4.796
79637W        W51930  39.819  20.761  12.993
79638W        W51931   6.366   2.392   3.840
79639W        W51932  37.546  41.486   4.346
79640W        W51933  21.037  31.947   3.865
79641W        W51934  37.396   1.337  14.817
79642W        W51935  41.482   3.769   1.899
79643W        W51936  41.993  12.324  10.931
79644W        W51937   5.760  23.505  14.958
79645W        W51938   5.199   1.313  14.842
79646W        W51939  43.271  17.687   0.389
79647W        W51940  27.592  30.640  11.980
79648W        W51941   2.857  10.381   1.813
79649W        W51942  32.613  37.056  12.484
79650W        W51943  13.826  38.540   4.824
79651W        W51944  29.102  12.808  13.484
79652W        W51945  29.982  11.262   3.375
79653W        W51946  18.546  43.796  14.391
79654W        W51947  39.469  13.734  13.413
79655W        W51948  25.467   0.277   2.680
79656W        W51949  12.349  27.975   1.347
79657W        W51950  20.268  41.824   4.271
79658W        W51951  14.775  39.470   0.479
79659W        W51952  30.100  13.328   4.237
79660W        W51953  21.095  37.834  11.484
79661W        W51954  28.615   6.826   2.849
79662W        W51955   0.456  24.075  14.473
79663W        W51956  23.658   1.805  11.565
79664W        W51957  16.573  44.348  12.899
79665W        W51958   2.419  42.851  12.513
79666W        W51959   9.327   6.701  14.849
79667W        W51960  11.762  23.642   0.886
79668W        W51961  10.229  29.591   1.437
79669W        W51962  10.368  25.040  14.828
79670W        W51963   2.299  28.109  12.373
79671W        W51964   0.415  20.098  14.009
79672W        W51965  32.511  33.971  10.558
79673W        W51966  18.713  31.923  10.420
79674W        W51967  15.724  27.030   1.401
79675W        W51968  40.352  19.243   2.743
79676W        W51969  33.971  15.671  11.921
79677W        W51970   8.327  13.794  14.793
79678W        W51971  19.549  35.091  14.851
79679W        W51972  29.157   3.438   2.711
79680W        W51973  16.167  25.700   1.398
79681W        W51974  26.035  18.547  14.884
79682W        W51975   0.777  40.002  12.066
79683W        W51976  19.589  11.156  14.423
79684W        W51977  25.964   5.295  11.884
79685W        W51978  27.966  17.306   2.278
79686W        W51979  33.074  28.504  13.910
79687W        W51980  32.605  28.444   3.790
79688W        W51981  30.631  27.485   1.285
79689W        W51982   4.872  13.349   0.875
79690W        W51983  27.080  22.597   4.606
79691W        W51984  43.369  21.756   4.259
79692W        W51985  19.284  24.223  11.023
79693W        W51986  16.087  37.853   4.760
79694W        W51987  28.492  24.215   9.923
79695W        W51988  25.554   8.246   1.805
79696W        W51989   7.254  13.680   1.388
79697W        W51990   7.362   0.927  11.445
79698W        W51991  24.087  27.586  11.393
79699W        W51992  24.657  11.640  11.604
79700W        W51993  26.166  27.653  13.967
79701W        W51994   2.358  20.210   4.265
79702W        W51995  23.075  33.548   2.359
79703W        W51996  38.909  24.668  10.481
79704W        W51997  29.537  20.186  12.565
79705W        W51998   5.928  36.539  14.996
79706W        W51999  24.675  31.049  10.535
79707W        W52000  39.851  41.897   1.875
79708W        W52001  38.028  41.433   1.926
79709W        W52002   6.278  28.027   5.242
79710W        W52003  12.798  35.937   2.365
79711W        W52004  26.544  29.075  13.934
79712W        W52005  13.170  41.017   3.235
79713W        W52006  33.587  17.241   0.738
79714W        W52007  29.958  18.635  10.898
79715W        W52008   0.864  11.129  13.951
79716W        W52009  41.476  13.305   0.480
79717W        W52010  20.232  26.639  11.129
79718W        W52011  42.867  18.198  13.464
79719W        W52012  34.930  20.269  11.040
79720W        W52013   3.454  37.075   0.817
79721W        W52014  37.398  28.975  10.514
79722W        W52015  13.148   3.460   5.301
79723W        W52016  41.924  36.544  14.438
79724W        W52017  11.804  13.645   2.789
79725W        W52018  22.509   4.769   3.208
79726W        W52019  40.963  18.637   5.152
79727W        W52020  13.299   6.185   2.345
79728W        W52021  13.767   9.666   0.758
79729W        W52022  16.726  18.735  13.452
79730W        W52023   4.796  41.452   3.274
79731W        W52024  31.411  14.205   4.741
79732W        W52025  36.371   4.854  14.927
79733W        W52026  29.563  35.502  12.382
79734W        W52027  34.595  37.051  10.428
79735W        W52028  37.392  25.201  11.515
79736W        W52029   1.768  12.711   3.855
79737W        W52030  42.389  16.126  11.865
79738W        W52031  29.067  22.721   2.194
79739W        W52032  27.035  28.539  13.951
79740W        W52033  43.915  28.632   1.231
79741W        W52034  31.428   9.178  13.431
79742W        W52035  29.580  26.985   2.419
79743W        W52036  28.163   4.297   1.896
79744W        W52037  35.525  17.594   1.384
79745W        W52038  31.923  37.478  12.357
79746W        W52039  18.631  34.996  10.950
79747W        W52040  32.002  24.694   2.852
79748W        W52041   3.425  23.182  14.882
79749W        W52042  30.932  17.783  12.560
79750W        W52043  21.740   0.412   4.760
79751W        W52044  28.585  19.091   2.877
79752W        W52045  38.039  18.250   2.842
79753W        W52046  10.237  29.444   0.896
79754W        W52047  30.164  16.302   0.428
79755W        W52048  12.212   5.783  12.476
79756W        W52049   9.759  25.148   2.663
79757W        W52050  20.100  13.233   3.806
79758W        W52051  39.972  24.480   4.287
79759W        W52052  11.141   8.262  12.484
79760W        W52053  32.902  36.455  14.829
79761W        W52054  40.909  31.473  10.485
79762W        W52055  26.185   7.903  11.467
79763W        W52056  43.846  29.146  13.863
79764W        W52057  26.129   8.266   4.153
79765W        W52058  30.613  14.787   2.762
79766W        W52059   3.407  11.702  11.598
79767W        W52060  14.326  31.037   3.853
79768W        W52061   5.295   9.191   3.215
79769W        W52062  29.560   4.269  11.863
79770W        W52063  35.005  16.760   4.170
79771W        W52064  40.524  32.040   3.149
79772W        W52065  19.599  42.987   3.357
79773W        W52066  16.279  21.247   4.776
79774W        W52067  31.987   4.803  11.452
79775W        W52068  37.362  16.730  13.976
79776W        W52069  16.715   1.467   2.832
79777W        W52070  10.175  30.590  14.008
79778W        W52071   2.949  40.887   1.704
79779W        W52072   4.808  23.054  10.630
79780W        W52073  18.564  11.793   2.186
79781W        W52074  19.686  35.402   4.738
79782W        W52075  12.202  15.669   1.439
79783W        W52076  35.450  26.098   1.924
79784W        W52077  10.781   1.967   2.662
79785W        W52078  36.485   1.433   3.333
79786W        W52079  26.047   9.750  11.451
79787W        W52080  12.637  37.057   2.385
79788W        W52081  43.902  22.599  13.891
79789W        W52082  38.984   0.858  14.432
79790W        W52083  15.687   8.342   4.274
79791W        W52084  18.555  23.663  11.115
79792W        W52085  29.502  14.291  10.486
79793W        W52086  38.010  35.536   4.161
79794W        W52087  30.117  44.956   4.767
79795W        W52088   7.187  39.830   2.875
79796W        W52089  15.681  43.917  11.936
79797W        W52090  25.559   4.311   0.399
79798W        W52091  23.553  15.192  12.342
79799W        W52092   0.952  38.971  14.478
79800W        W52093   7.383  18.259  13.996
79801W        W52094  35.072   7.237   9.946
79802W        W52095  23.188  22.037  13.999
79803W        W52096  29.639   7.381  14.374
79804W        W52097  39.932  19.756  11.933
79805W        W52098  11.359  16.678   4.161
79806W        W52099  13.345   2.330   2.808
79807W        W52100  13.345  43.982   0.951
79808W        W52101  13.757   0.476  10.908
79809W        W52102  29.163  31.457  12.857
79810W        W52103  29.061   4.713   9.958
79811W        W52104  28.095  13.157   0.325
79812W        W52105  43.982  26.585  12.394
79813W        W52106   5.361  23.728  14.321
79814W        W52107  26.047  38.353  12.401
79815W        W52108  39.913  40.984   1.837
79816W        W52109  16.089   4.761  10.926
79817W        W52110  26.524  17.706   0.831
79818W        W52111  42.363  44.342   0.900
79819W        W52112   3.291  34.515   2.778
79820W        W52113   7.838  31.917   9.990
79821W        W52114  29.660  13.638  13.968
79822W        W52115  34.976   3.226   2.323
79823W        W52116  39.007  34.906  12.574
79824W        W52117   9.857  12.823   3.301
79825W        W52118  37.344  39.029  10.609
79826W        W52119  21.702  29.170  10.418
79827W        W52120   0.780  33.417   0.402
79828W        W52121  12.139  32.439   4.750
79829W        W52122  25.517  12.620  14.860
79830W        W52123   0.930  38.868   1.372
79831W        W52124  25.036   7.745  14.920
79832W        W52125  43.858   9.710   0.892
79833W        W52126  42.025  36.372   0.250
79834W        W52127  37.892   6.421   1.734
79835W        W52128  41.962  27.628   4.275
79836W        W52129  38.483  27.565  14.806
79837W        W52130  10.229  18.614  12.430
79838W        W52131  21.201  25.507   0.319
79839W        W52132  13.305   1.933  12.489
79840W        W52133  18.230  25.071   4.166
79841W        W52134  14.663  42.867   1.746
79842W        W52135  21.213   4.301   3.698
79843W        W52136  22.078  21.151  13.885
79844W        W52137   0.352  41.846   3.315
79845W        W52138  14.806  25.577  12.552
79846W        W52139  22.120  43.789  12.574
79847W        W52140   5.734  21.623  14.326
79848W        W52141  41.846   8.755  11.466
79849W        W52142  40.342  35.411   3.824
79850W        W52143  10.651   1.966  10.629
79851W        W52144  12.161  21.721   2.816
79852W        W52145  30.101  10.645   2.856
79853W        W52146  44.848  14.100  13.820
79854W        W52147  33.902  30.427  13.062
79855W        W52148  36.029   1.788   3.847
79856W        W52149  32.971  20.748   2.390
79857W        W52150  11.335  37.505  14.836
79858W        W52151  39.850  37.430   3.346
79859W        W52152  38.946   6.312   3.804
79860W        W52153  31.939  14.654  12.044
79861W        W52154  13.137  24.654   1.872
79862W        W52155  34.993  31.418   3.630
79863W        W52156  14.278  21.174  13.025
79864W        W52157  19.744  14.238  12.360
79865W        W52158   9.251  38.345  12.453
79866W        W52159  34.012  38.366  12.022
79867W        W52160  26.530  10.228   4.740
79868W        W52161   6.427  21.526  14.446
79869W        W52162  11.732   7.333  10.428
79870W        W52163  22.606  34.523   3.798
79871W        W52164   3.291  35.105   0.272
79872W        W52165  21.227   1.296  14.375
79873W        W52166  15.683  21.734  13.526
79874W        W52167  31.632  13.240   3.328
79875W        W52168  16.774  16.716   4.246
79876W        W52169  21.725  41.381   5.149
79877W        W52170  33.480  18.548  14.850
79878W        W52171  41.388  27.617   0.837
79879W        W52172  21.103  41.808   0.312
79880W        W52173   0.886   0.473  14.940
79881W        W52174  34.932  29.941  13.413
79882W        W52175  27.959   1.782   1.378
79883W        W52176  10.368  38.420   0.744
79884W        W52177  23.019  34.099   0.449
79885W        W52178  20.263  22.082  11.444
79886W        W52179  32.444  42.425  13.434
79887W        W52180   8.325   6.397   1.845
79888W        W52181  29.055  24.011  13.409
79889W        W52182  11.821  33.568   2.700
79890W        W52183  22.179  17.086  13.538
79891W        W52184  20.092  10.366  10.503
79892W        W52185  10.877  30.165  14.333
79893W        W52186  40.415  17.210   2.788
79894W        W52187  33.525  37.420  10.937
79895W        W52188  43.811  11.265   1.784
79896W        W52189  24.680  15.699   0.314
79897W        W52190  42.817  41.003  13.003
79898W        W52191   4.395  31.591  10.597
79899W        W52192  25.578  20.190   2.200
79900W        W52193   4.922  11.744  13.055
79901W        W52194  32.482  10.716  11.598
79902W        W52195  23.642  31.116   3.177
79903W        W52196  11.674   5.431  13.385
79904W        W52197  28.504  24.039   0.825
79905W        W52198  27.650  37.398   4.151
79906W        W52199   4.763  12.629  13.536
79907W        W52200  34.943  18.258   9.941
79908W        W52201  21.229  22.157   2.705
79909W        W52202  10.304  13.724   3.863
79910W        W52203  27.087  16.751  12.354
79911W        W52204  15.747  26.130   4.349
79912W        W52205  13.307  38.954   3.734
79913W        W52206   1.938  16.772   3.774
79914W        W52207   4.422  24.525   1.265
79915W        W52208  30.576  30.421  10.476
79916W        W52209   0.423   4.903   0.330
79917W        W52210  19.661   4.725  13.875
79918W        W52211  17.693  36.911   3.811
79919W        W52212  28.557  35.546  10.925
79920W        W52213  19.617   0.455  13.491
79921W        W52214   0.482  25.071  11.996
79922W        W52215  27.625  10.190   0.365
79923W        W52216  29.932  16.806  13.543
79924W        W52217  35.523  27.061   2.356
79925W        W52218  17.571   9.731  13.961
79926W        W52219  44.970  42.432   3.817
79927W        W52220   0.860  23.712   1.387
79928W        W52221  26.682  33.406  11.053
79929W        W52222  37.871  40.915   3.683
79930W        W52223   5.402  13.767  14.505
79931W        W52224   1.845  18.732  12.924
79932W        W52225  37.547   8.675  14.853
79933W        W52226  23.128   7.665   2.846
79934W        W52227  42.784  11.356   1.409
79935W        W52228   7.861  34.461  12.076
79936W        W52229  36.498  15.775   1.442
79937W        W52230  27.108  12.323   0.734
79938W        W52231   8.349   3.754  13.923
79939W        W52232  13.301  10.229   0.380
79940W        W52233  21.582  25.504  13.858
79941W        W52234  10.769  15.192   0.736
79942W        W52235  37.048  38.947   0.300
79943W        W52236  13.112  28.935  11.104
79944W        W52237  28.455  15.620  14.397
79945W        W52238  10.838  13.630   2.313
79946W        W52239  13.684  36.569   3.360
79947W        W52240   6.417  17.231  11.519
79948W        W52241  12.128   3.461   0.384
79949W        W52242  39.333  36.900  11.576
79950W        W52243  40.546   9.166  11.925
79951W        W52244   0.977  14.195   5.284
79952W        W52245  28.442  39.414  13.010
79953W        W52246  44.497  24.652  11.405
79954W        W52247  11.361  41.986   4.613
79955W        W52248   3.848  20.065  10.545
79956W        W52249   7.906  43.363   1.393
79957W        W52250  10.229  14.125   5.181
79958W        W52251  25.991  32.471  12.470
79959W        W52252  36.365  26.590  12.340
79960W        W52253  13.768   5.868   2.359
79961W        W52254  31.501  41.906  10.947
79962W        W52255   4.829  29.113  11.611
79963W        W52256  44.377  39.353   0.783
79964W        W52257  11.751  26.054   1.343
79965W        W52258  38.901   6.330  12.839
79966W        W52259  23.498  31.647  13.415
79967W        W52260  36.359   5.893   3.650
79968W        W52261   8.707  10.790  14.903
79969W        W52262   3.231  14.257   4.798
79970W        W52263  24.993  37.547  10.519
79971W        W52264  30.596  14.207  11.949
79972W        W52265  24.520  42.899   3.635
79973W        W52266   5.895  12.196  13.386
79974W        W52267  13.337   2.784   2.840
79975W        W52268   7.706  44.452   5.127
79976W        W52269  39.437  43.853   3.764
79977W        W52270   3.913  25.610  11.927
79978W        W52271  16.778   0.358  12.526
79979W        W52272  20.654  26.977  14.791
79980W        W52273  37.891  15.654  12.965
79981W        W52274  24.082  34.431   1.783
79982W        W52275   6.233  11.736  12.360
79983W        W52276  19.699  20.136   0.365
79984W        W52277  21.574  42.775   1.824
79985W        W52278  37.499   9.279   4.190
79986W        W52279  18.054  19.107   2.842
79987W        W52280  10.269   0.846  11.948
79988W        W52281  22.108  40.835  11.490
79989W        W52282  42.398  11.686   3.162
79990W        W52283  43.355  19.637   5.227
79991W        W52284  13.172  32.404  14.761
79992W        W52285  37.535  38.941   1.811
79993W        W52286  37.382  18.578  10.492
79994W        W52287  40.451   1.851  13.358
79995W        W52288  34.606  40.866   3.305
79996W        W52289  10.344   3.348   3.852
79997W        W52290  12.142  16.782  11.105
79998W        W52291  28.435  43.769   4.645
79999W        W52292  18.663  36.961   4.134
80000W        W52293   8.761  26.570   0.811
80001W        W52294  14.320  10.744   3.314
80002W        W52295  32.931  36.853   4.327
80003W        W52296  30.911   8.364   1.313
80004W        W52297  37.055   6.381   2.864
80005W        W52298  41.538  25.153  10.605
80006W        W52299  14.202   9.221   4.259
80007W        W52300  12.689  22.059  11.392
80008W        W52301   4.760  11.301  13.952
80009W        W52302  23.186  30.510   4.267
80010W        W52303   0.452  27.626  13.317
80011W        W52304  40.473   6.734   0.405
80012W        W52305  26.668  26.063   3.160
80013W        W52306  18.163  39.507  11.053
80014W        W52307  41.986  43.935  14.978
80015W        W52308  16.091   0.988   4.224
80016W        W52309   4.361  42.882   4.642
80017W        W52310  29.470  43.804   1.729
80018W        W52311  20.672  12.300   1.341
80019W        W52312   9.233  19.142  13.540
80020W        W52313  37.006  32.955   1.870
80021W        W52314  18.744  36.469   1.894
80022W        W52315  19.268  33.545  10.592
80023W        W52316  40.456  33.452  11.548
80024W        W52317  19.597  31.144  13.028
80025W        W52318  34.053   1.319  11.452
80026W        W52319  35.593  35.368   1.407
80027W        W52320  43.801   5.741   2.391
80028W        W52321   6.739  11.341  11.516
80029W        W52322  19.671  24.677   2.851
80030W        W52323   2.867   9.717   4.170
80031W        W52324  34.544  13.303  13.858
80032W        W52325   8.813  15.720   2.236
80033W        W52326  43.765   2.238  12.519
80034W        W52327  11.713  44.885  13.842
80035W        W52328   6.894  42.918   1.399
80036W        W52329   1.286   5.304   2.383
80037W        W52330  26.681  21.236   0.463
80038W        W52331  23.630  27.583   1.342
80039W        W52332  13.819   5.262   1.881
80040W        W52333   9.201   9.256  11.516
80041W        W52334  31.417  31.583  11.970
80042W        W52335  42.027  36.973   0.783
80043W        W52336   2.364  30.049  12.853
80044W        W52337  17.183  40.006   0.256
80045W        W52338  30.999  14.825  10.470
80046W        W52339   1.385  21.689  11.396
80047W        W52340   9.779  17.773  10.560
80048W        W52341  37.886  38.397   2.384
80049W        W52342  12.271  25.138  12.565
80050W        W52343  35.363  38.063   0.960
80051W        W52344  18.242   4.440   0.480
80052W        W52345   3.853   7.837  14.314
80053W        W52346  23.545   4.811   2.322
80054W        W52347  33.035  12.247   4.630
80055W        W52348  35.088  19.041  13.479
80056W        W52349  34.501  42.317  13.796
80057W        W52350  31.062  28.157   4.297
80058W        W52351  14.299   0.776   4.217
80059W        W52352  34.875  42.810  11.531
80060W        W52353  24.027  12.340  13.405
80061W        W52354  44.348  34.968   4.704
80062W        W52355  17.211  19.155  12.033
80063W        W52356  24.216  37.525  11.026
80064W        W52357  43.943  24.502   4.678
80065W        W52358   1.459  38.479  12.009
80066W        W52359  21.576   2.376  13.902
80067W        W52360  29.036   9.314   0.334
80068W        W52361  21.248  31.559   0.428
80069W        W52362   2.413  23.572   0.304
80070W        W52363  35.467  23.055   2.286
80071W        W52364  26.064  43.876  14.968
80072W        W52365   0.928   8.292  14.469
80073W        W52366  19.266  31.406   1.277
80074W        W52367  17.736  20.258  13.017
80075W        W52368   8.818   4.344   1.241
80076W        W52369  38.969  20.735   0.248
80077W        W52370   6.197   7.841   3.353
80078W        W52371  42.473   9.252   1.245
80079W        W52372  30.652  28.009  11.570
80080W        W52373   1.940  36.539   4.168
80081W        W52374  23.663  11.213   4.131
80082W        W52375  32.635  17.630  12.417
80083W        W52376  35.895   5.357  13.353
80084W        W52377   3.389  17.161   2.724
80085W        W52378   8.303  26.087  14.418
80086W        W52379   6.758  26.103  10.629
80087W        W52380  22.035  23.043  11.600
80088W        W52381  20.529  40.475   1.786
80089W        W52382  38.884   2.902  10.893
80090W        W52383  23.674   1.236  14.761
80091W        W52384  13.233   8.896  10.151
80092W        W52385   1.801   3.922   1.827
80093W        W52386  39.819  38.365  12.857
80094W        W52387  23.994  44.373   9.993
80095W        W52388  10.640  44.947   4.733
80096W        W52389  30.941  24.107  13.494
80097W        W52390   1.357  10.245   2.268
80098W        W52391   5.727   7.291  10.908
80099W        W52392  31.049  43.335  12.989
80100W        W52393  30.128  29.555  14.781
80101W        W52394   9.653  36.360  13.485
80102W        W52395  10.313   6.241  13.997
80103W        W52396  28.147  36.991   2.232
80104W        W52397  39.811   0.775  12.402
80105W        W52398  37.552  10.166  13.909
80106W        W52399  22.710  12.155  13.925
80107W        W52400  29.105  32.107  14.842
80108W        W52401  18.591  10.347  10.012
80109W        W52402  19.717   9.772  14.400
80110W        W52403   7.304  21.151   0.450
80111W        W52404  30.117  22.596  10.597
80112W        W52405  40.322  44.448  13.469
80113W        W52406  10.379  11.711   4.665
80114W        W52407  39.968   1.865   0.802
80115W        W52408  29.587   9.685   4.766
80116W        W52409  30.060  27.448  13.985
80117W        W52410  15.718  12.646  11.525
80118W        W52411   4.942  39.532  11.902
80119W        W52412  34.441  28.469   0.794
80120W        W52413  32.142  11.680  10.519
80121W        W52414   2.246  27.493   0.934
80122W        W52415  17.631  41.461  11.086
80123W        W52416   9.670   8.401  14.504
80124W        W52417   6.370  43.774   1.711
80125W        W52418   1.370   5.868  12.826
80126W        W52419  33.465  34.463   3.784
80127W        W52420  30.977   3.441   1.741
80128W        W52421  40.803  40.408   3.178
80129W        W52422   4.918  25.110  11.053
80130W        W52423   6.239  22.098  10.644
80131W        W52424   1.916  40.504   2.356
80132W        W52425  43.883  34.588  13.388
80133W        W52426  23.643   5.211  14.031
80134W        W52427   9.224   6.909  13.906
80135W        W52428  27.688  36.410   3.365
80136W        W52429  24.104   6.274  13.440
80137W        W52430   2.471   4.846  12.514
80138W        W52431  34.021  37.402   3.280
80139W        W52432  10.331  37.379   1.808
80140W        W52433  27.621   1.917   3.213
80141W        W52434  18.790  36.964  12.874
80142W        W52435   2.403  21.143  13.941
80143W        W52436  33.101  24.988  11.515
80144W        W52437  26.625  18.660   5.152
80145W        W52438  10.219  18.102   1.275
80146W        W52439  22.228   4.791   4.299
80147W        W52440  40.037  42.412  13.479
80148W        W52441  12.299  18.718   1.753
80149W        W52442  35.108  33.053  11.500
80150W        W52443  28.058   5.280  14.825
80151W        W52444  12.686  20.559  12.452
80152W        W52445  15.716  36.045  13.376
80153W        W52446  11.800  28.134  11.858
80154W        W52447   2.379   4.777  12.034
80155W        W52448  34.550  31.098   1.381
80156W        W52449  38.491   6.887   2.388
80157W        W52450  39.557  43.782  11.428
80158W        W52451   7.193   8.355   3.340
80159W        W52452  33.918  28.153   0.801
80160W        W52453  40.812  23.523   0.436
80161W        W52454  34.061   7.853   4.178
80162W        W52455  31.968  18.574  11.035
80163W        W52456  12.682   6.749   3.781
80164W        W52457  36.494  15.681  14.508
80165W        W52458  22.648  27.498   3.742
80166W        W52459  16.631  33.045   2.263
80167W        W52460  33.601  19.638  12.579
80168W        W52461   3.405  41.530   1.263
80169W        W52462  12.707  22.014  12.948
80170W        W52463   5.263   5.738   4.305
80171W        W52464  16.725  24.213   2.371
80172W        W52465  14.267  43.488  12.983
80173W        W52466  37.426   0.909   0.286
80174W        W52467  41.371  40.362  12.873
80175W        W52468   4.772  29.519   0.270
80176W        W52469  44.335   3.363  11.061
80177W        W52470  24.171  19.540  13.944
80178W        W52471  24.681  20.161  14.513
80179W        W52472  28.126  12.209  14.007
80180W        W52473  33.520  13.631  12.374
80181W        W52474  10.230   7.402  10.935
80182W        W52475   2.933  40.916  13.414
80183W        W52476  27.004   7.760  10.434
80184W        W52477  31.983  31.406   2.685
80185W        W52478  16.235  13.796   3.341
80186W        W52479   1.448  34.968   4.621
80187W        W52480  12.202   7.848   1.347
80188W        W52481  10.780  23.602   0.862
80189W        W52482  23.625   5.830  13.512
80190W        W52483  24.606  15.683  10.410
80191W        W52484   1.873  17.730  13.061
80192W        W52485  14.807  18.625   1.361
80193W        W52486   0.972  15.326  11.608
80194W        W52487  35.425   0.337   0.921
80195W        W52488  19.179   3.910   1.282
80196W        W52489  30.094   0.875  11.893
80197W        W52490   8.204  21.590  14.479
80198W        W52491  40.046  36.850   3.700
80199W        W52492  43.384  36.420  12.884
80200W        W52493  23.100  10.226   0.807
80201W        W52494  24.623  37.851  12.989
80202W        W52495  28.558  21.629   9.934
80203W        W52496  16.134  43.386  10.921
80204W        W52497  12.287   0.887  11.907
80205W        W52498   0.332  23.726   1.243
80206W        W52499  12.701  36.092  12.522
80207W        W52500  43.486  20.666   1.789
80208W        W52501   4.861  22.129   0.404
80209W        W52502  42.467  13.215  14.411
80210W        W52503  19.596   0.805  11.979
80211W        W52504  23.185  10.823   4.317
80212W        W52505  44.337   9.226   1.266
80213W        W52506  40.485  44.755   2.720
80214W        W52507  33.910  32.046   4.235
80215W        W52508  35.412  21.129   4.273
80216W        W52509  13.694  12.127  12.432
80217W        W52510   5.330   0.380  10.937
80218W        W52511   6.851  44.311  12.532
80219W        W52512   4.260   8.289   0.345
80220W        W52513  28.131  10.231   0.925
80221W        W52514  31.597   8.170  13.449
80222W        W52515  29.537   0.491  11.063
80223W        W52516   7.386   2.233  11.994
80224W        W52517  35.059   8.676   2.395
80225W        W52518  13.755  31.104  10.499
80226W        W52519  38.064  42.026   0.274
80227W        W52520   0.982  15.583  14.358
80228W        W52521  17.658   5.396  12.365
80229W        W52522   1.378  44.839  13.542
80230W        W52523  19.110  11.755  13.425
80231W        W52524  34.536  31.584   4.159
80232W        W52525   8.720  41.491   3.195
80233W        W52526   1.427  34.925   3.254
80234W        W52527  37.546   1.761  14.926
80235W        W52528  23.692  43.829  10.533
80236W        W52529  30.153  39.810   0.762
80237W        W52530  35.543  27.514  11.955
80238W        W52531  27.482   1.957  14.505
80239W        W52532   0.853  25.197   4.244
80240W        W52533  31.920   4.766  10.523
80241W        W52534  38.550  15.273  14.436
80242W        W52535  24.993  12.826  11.462
80243W        W52536  40.549   2.254   1.384
80244W        W52537  31.581   2.284  10.986
80245W        W52538  32.484  18.051   0.251
80246W        W52539  29.504  41.936  11.963
80247W        W52540  40.354  35.601   4.628
80248W        W52541  19.699  29.070  11.973
80249W        W52542   8.683  23.670  14.278
80250W        W52543   9.204  30.000   4.337
80251W        W52544  20.121  19.243  14.904
80252W        W52545  29.622  40.379  10.927
80253W        W52546  23.111  27.150  11.453
80254W        W52547  26.519  15.620   0.733
80255W        W52548  13.188  19.050   2.722
80256W        W52549  43.957  28.937   2.296
80257W        W52550   7.374   6.840   2.837
80258W        W52551  23.712  34.025   0.947
80259W        W52552  34.575  16.679  13.410
80260W        W52553   5.915  43.474   3.721
80261W        W52554  21.211  33.588  11.972
80262W        W52555  33.538   8.728   4.777
80263W        W52556   8.387  25.206  10.973
80264W        W52557  32.940   7.739  12.472
80265W        W52558  42.426  31.453  10.454
80266W        W52559  40.007  36.071  11.533
80267W        W52560  34.431  18.668  11.585
80268W        W52561  36.418   1.262   2.288
80269W        W52562  29.991  15.647   4.178
80270W        W52563  25.038  17.199   2.771
80271W        W52564   6.290  10.814   1.344
80272W        W52565   2.745  37.570   0.447
80273W        W52566  42.375  36.457  10.095
80274W        W52567  38.444  12.183  13.474
80275W        W52568  37.348  26.997  11.081
80276W        W52569  32.413  30.578   4.828
80277W        W52570   3.758  20.677   4.226
80278W        W52571  44.331   1.333   0.326
80279W        W52572   4.333  35.490   1.732
80280W        W52573   3.808  24.060  11.913
80281W        W52574  44.505  25.577  12.453
80282W        W52575   1.928  35.467  12.080
80283W        W52576  34.080  36.448  14.303
80284W        W52577  43.982  10.287   1.282
80285W        W52578   1.960  25.609   0.802
80286W        W52579   0.283  20.229  11.035
80287W        W52580  11.694  28.996   3.694
80288W        W52581  41.407  11.286   3.816
80289W        W52582  37.928   8.765  10.528
80290W        W52583  22.142   4.883  10.596
80291W        W52584  28.051  16.180   3.342
80292W        W52585  12.688   4.383   3.376
80293W        W52586  35.096  25.084   3.655
80294W        W52587   3.819   4.403  13.517
80295W        W52588  33.078   8.344  12.519
80296W        W52589  34.903  38.007   4.203
80297W        W52590  26.658   7.883   0.473
80298W        W52591  13.193  33.975   2.408
80299W        W52592  41.961  18.606  13.334
80300W        W52593  18.651  29.932   2.829
80301W        W52594   6.367  14.807  10.924
80302W        W52595   8.768  39.408  12.353
80303W        W52596  17.580   1.407   4.630
80304W        W52597   1.755  28.090   1.932
80305W        W52598   5.429  40.507   2.262
80306W        W52599  25.143  28.938   3.384
80307W        W52600   5.201  11.736  13.900
80308W        W52601  29.062  16.111   2.414
80309W        W52602  19.076  22.147  11.585
80310W        W52603  44.945  12.197  12.383
80311W        W52604  18.554   5.925  14.348
80312W        W52605   2.721  13.287   4.273
80313W        W52606  23.724  42.811  11.119
80314W        W52607  16.679  19.578  14.282
80315W        W52608  30.126  28.106   0.277
80316W        W52609  16.133  15.268   0.779
80317W        W52610   3.393  36.437   0.372
80318W        W52611  20.220  31.996  11.393
80319W        W52612  16.154   2.924  11.982
80320W        W52613   8.309  13.319  10.608
80321W        W52614  36.383  15.677   0.282
80322W        W52615  44.348  37.366   1.745
80323W        W52616  34.425   9.319  10.984
80324W        W52617  11.236   1.323  13.451
80325W        W52618  13.817   8.194  12.857
80326W        W52619  13.183   5.249   3.869
80327W        W52620  42.856  37.005  13.985
80328W        W52621  14.750   5.206   9.559
80329W        W52622  21.037  15.713   5.147
80330W        W52623  22.662   4.770  14.400
80331W        W52624   1.386  27.475   1.746
80332W        W52625  16.263   3.817   0.781
80333W        W52626  35.408  43.400   2.741
80334W        W52627  19.216  35.581   0.858
80335W        W52628  19.271  14.725  13.463
80336W        W52629  24.533  30.637   0.483
80337W        W52630  31.640   6.255   3.831
80338W        W52631  32.576  36.416   3.179
80339W        W52632   2.906  13.177   0.840
80340W        W52633  35.950  12.634  10.936
80341W        W52634  33.941  20.204  11.902
80342W        W52635  16.716   1.966  14.851
80343W        W52636  32.393  35.082  10.000
80344W        W52637  31.441  17.689  14.897
80345W        W52638  14.695   0.320  10.085
80346W        W52639   0.484   5.848  13.047
80347W        W52640  13.777  15.653   3.651
80348W        W52641  27.988  43.394   0.864
80349W        W52642  23.735  15.772   4.602
80350W        W52643  21.739  24.481  11.503
80351W        W52644  15.115  35.860  11.613
80352W        W52645  33.128  21.575   2.788
80353W        W52646  43.019  11.222  11.423
80354W        W52647  40.311  20.576  13.391
80355W        W52648  31.019  30.043   3.365
80356W        W52649  29.087  14.297   1.874
80357W        W52650  19.732  34.587   2.228
80358W        W52651   6.421  36.442   3.347
80359W        W52652  34.869  30.047   0.248
80360W        W52653  14.225   8.675  13.840
80361W        W52654  43.020  22.011   2.219
80362W        W52655   4.850  37.572  12.565
80363W        W52656   6.391  28.060  12.943
80364W        W52657   0.810   3.315   3.842
80365W        W52658  13.184  14.794  14.438
80366W        W52659  37.340  24.720  10.940
80367W        W52660   2.314  29.029  13.897
80368W        W52661  39.960  33.419   2.717
80369W        W52662   7.197  17.071  11.899
80370W        W52663  14.285  15.786   5.301
80371W        W52664  18.678  16.093  12.468
80372W        W52665  39.449   8.690  10.954
80373W        W52666   1.263  28.146  14.762
80374W        W52667  21.594  43.468   0.902
80375W        W52668  37.367  39.348   4.753
80376W        W52669  10.259   3.721  13.426
80377W        W52670  38.951   4.806   2.749
80378W        W52671  24.509  11.845  10.444
80379W        W52672  44.271  27.686   4.177
80380W        W52673  19.218  36.875   3.805
80381W        W52674   4.855  20.229   2.861
80382W        W52675  12.673   7.869   3.869
80383W        W52676   3.914  31.077  11.048
80384W        W52677  16.633  44.431   4.809
80385W        W52678  40.950  43.996   2.241
80386W        W52679  42.488  43.308   2.267
80387W        W52680  11.362  12.817  12.451
80388W        W52681  19.767  26.058  13.970
80389W        W52682  26.680   1.915  14.007
80390W        W52683  20.241  43.902   3.834
80391W        W52684  25.705   0.854  14.826
80392W        W52685  28.076  41.378   4.665
80393W        W52686  35.867  44.761  13.474
80394W        W52687  15.648  42.959  11.934
80395W        W52688  44.458  29.505  11.530
80396W        W52689  34.411  41.925  11.868
80397W        W52690   4.901  25.493   2.413
80398W        W52691  24.063   1.404   4.642
80399W        W52692  25.509  41.797   1.866
80400W        W52693  36.947   3.734  14.850
80401W        W52694  40.436  18.129  10.931
80402W        W52695   2.401  11.300  13.020
80403W        W52696   2.402  26.463   1.422
80404W        W52697   5.789   0.458  13.988
80405W        W52698  17.299   0.924  12.905
80406W        W52699  10.362  20.667  14.026
80407W        W52700  37.367  40.414   4.271
80408W        W52701  28.141   9.322   1.329
80409W        W52702  41.323  14.789  10.635
80410W        W52703  10.188   4.360  11.076
80411W        W52704   6.229   4.304  13.423
80412W        W52705  38.035  16.689   0.479
80413W        W52706  20.244  14.255  10.138
80414W        W52707  12.639  10.864   1.280
80415W        W52708  40.430  15.103  13.885
80416W        W52709  36.097   1.304   3.845
80417W        W52710  42.315  15.103  11.558
80418W        W52711  18.099  15.740   3.741
80419W        W52712  32.399   4.303  11.443
80420W        W52713  25.146  32.068   4.799
80421W        W52714  32.142  15.101   3.817
80422W        W52715  23.209  30.551   3.718
80423W        W52716   0.885  19.773   2.696
80424W        W52717  15.314  30.024   1.357
80425W        W52718  32.078   6.855  11.489
80426W        W52719  43.383  21.511   0.957
80427W        W52720  14.828  23.194  14.841
80428W        W52721  30.607  34.108   1.742
80429W        W52722  12.300  25.669   0.942
80430W        W52723  44.977  38.495   3.280
80431W        W52724  19.632  11.671   1.341
80432W        W52725  28.450  11.149   4.155
80433W        W52726  33.487  24.722  10.897
80434W        W52727  24.039  18.630   3.167
80435W        W52728  29.488  29.660  11.486
80436W        W52729   6.727  39.520  12.958
80437W        W52730  21.753  44.881   1.848
80438W        W52731   8.799  24.692  12.438
80439W        W52732  28.599  40.966  13.915
80440W        W52733  20.263   4.207  13.929
80441W        W52734  30.531  18.586  11.413
80442W        W52735  12.200  20.698   3.851
80443W        W52736  40.359   1.305   0.950
80444W        W52737  25.061   7.253   4.126
80445W        W52738  21.657  20.567  12.868
80446W        W52739  17.743  15.154  14.490
80447W        W52740  12.294  36.878  13.852
80448W        W52741  30.034  22.678   5.650
80449W        W52742  26.549  20.221  13.930
80450W        W52743  41.035  14.710   1.896
80451W        W52744  30.609  29.458  12.915
80452W        W52745  22.153  39.474  11.581
80453W        W52746  18.195  23.187   4.618
80454W        W52747  12.700   2.956  13.855
80455W        W52748   3.774   3.427  13.828
80456W        W52749  15.768  15.698  12.426
80457W        W52750  26.956   5.371  14.497
80458W        W52751  22.087  35.914  14.933
80459W        W52752  24.604  37.557   3.171
80460W        W52753  19.121  26.479   4.343
80461W        W52754  19.778  17.067  12.093
80462W        W52755  22.725   4.938  14.844
80463W        W52756   1.242  38.449  14.920
80464W        W52757  28.121  20.609  13.842
80465W        W52758  38.927   0.290  12.440
80466W        W52759   2.403  19.596   2.678
80467W        W52760   5.380  40.539   1.350
80468W        W52761  15.699  17.632  12.489
80469W        W52762   5.347   6.239  13.964
80470W        W52763  15.703   2.253  12.885
80471W        W52764  35.990  19.244   1.794
80472W        W52765  14.708  22.006   2.782
80473W        W52766  36.024  21.261   1.261
80474W        W52767  31.925  22.602   5.223
80475W        W52768   2.428  16.194  14.498
80476W        W52769   8.199  30.086  14.328
80477W        W52770  31.609  16.671   3.834
80478W        W52771   7.742  27.496  11.969
80479W        W52772  35.862   3.889   2.399
80480W        W52773   7.191   5.365  13.966
80481W        W52774  43.898  27.003   1.342
80482W        W52775  43.889  39.997  10.468
80483W        W52776  39.036   8.186   2.361
80484W        W52777  31.145   9.851   0.395
80485W        W52778   5.892  36.454  12.546
80486W        W52779  22.644  11.333  14.857
80487W        W52780  10.755  35.080  11.548
80488W        W52781   5.827  34.554   4.331
80489W        W52782  31.503  25.162   3.698
80490W        W52783  13.752  19.179  13.063
80491W        W52784  30.014  33.462   2.273
80492W        W52785  12.655  24.692   1.719
80493W        W52786  12.643  28.491   2.324
80494W        W52787  39.388  17.782   4.735
80495W        W52788  24.984  29.165   0.262
80496W        W52789  20.679   0.754  11.959
80497W        W52790  20.680  38.825  10.966
80498W        W52791  34.379  38.339   0.272
80499W        W52792  30.979  38.346   3.770
80500W        W52793  26.542  26.501  14.890
80501W        W52794  19.143  44.478  14.446
80502W        W52795  13.203  42.983  12.348
80503W        W52796  16.167   1.310   2.241
80504W        W52797   8.846  30.936  10.520
80505W        W52798  29.503  28.534  14.491
80506W        W52799  27.112  18.063  13.990
80507W        W52800  29.137  29.551   1.329
80508W        W52801  26.610   2.741  12.932
80509W        W52802  20.201  23.632   2.229
80510W        W52803  22.624  43.903   4.743
80511W        W52804  44.999  19.677   0.294
80512W        W52805  30.922  25.180  10.958
80513W        W52806   5.209   5.278  13.510
80514W        W52807  11.322  25.193  11.538
80515W        W52808  33.422   0.425   1.910
80516W        W52809  41.956   1.396   9.596
80517W        W52810  31.588   1.740   2.719
80518W        W52811  34.491  21.235  10.927
80519W        W52812  10.143   7.340  10.028
80520W        W52813  34.454  25.188   1.727
80521W        W52814  14.657  30.597  12.351
80522W        W52815  26.629  22.638   2.312
80523W        W52816   8.812   5.414  13.956
80524W        W52817  21.557  22.050  14.482
80525W        W52818  23.043  23.109  11.565
80526W        W52819   3.253   0.381   4.341
80527W        W52820  18.093  32.598   0.798
80528W        W52821  17.190  12.293   0.352
80529W        W52822  38.042  17.764   1.320
80530W        W52823  37.850   6.716  10.929
80531W        W52824  42.995  41.968  12.979
80532W        W52825  13.175  33.091   2.800
80533W        W52826  12.630  13.779  11.934
80534W        W52827  23.671  39.932   4.147
80535W        W52828  40.014  23.106   2.241
80536W        W52829  10.349   8.664   0.762
80537W        W52830  42.509  18.791  12.940
80538W        W52831   1.855  38.523   2.343
80539W        W52832   3.457  36.470   2.842
80540W        W52833   4.327  12.669   2.267
80541W        W52834  40.319  18.285  11.393
80542W        W52835   9.675  40.542   3.179
80543W        W52836  31.630  17.233  14.422
80544W        W52837   1.353  22.235  11.507
80545W        W52838  37.475  15.658   5.255
80546W        W52839  39.065   8.264   4.706
80547W        W52840   8.255  18.758   4.343
80548W        W52841  44.418   9.838   0.432
80549W        W52842  20.539  23.556   1.730
80550W        W52843  33.445  32.565  14.392
80551W        W52844  13.200   2.463  10.950
80552W        W52845  39.814  28.157   2.837
80553W        W52846  32.920  43.843   4.784
80554W        W52847   7.832  16.293   2.396
80555W        W52848  17.160  41.013  14.435
80556W        W52849   6.368  20.598  12.575
80557W        W52850  14.625   5.361   1.240
80558W        W52851  14.656  21.036  10.512
80559W        W52852  22.504  23.024   1.263
80560W        W52853   5.843  30.920  13.989
80561W        W52854  19.149  39.864  12.823
80562W        W52855  20.130   7.330  11.559
80563W        W52856  17.228  44.327  14.459
80564W        W52857  42.990  32.581   3.286
80565W        W52858  32.896  37.882   3.790
80566W        W52859   5.373  33.554  13.500
80567W        W52860  36.480  40.478   0.727
80568W        W52861   5.390  27.112   0.354
80569W        W52862  28.637   3.447   9.957
80570W        W52863  24.074  24.611  11.430
80571W        W52864  25.072  37.036  10.479
80572W        W52865  35.535  14.679   3.259
80573W        W52866   9.380  43.486  10.888
80574W        W52867  23.735  16.567  11.061
80575W        W52868  43.901  37.387   0.842
80576W        W52869  23.505  13.170   3.313
80577W        W52870  27.642  40.951   0.426
80578W        W52871  30.645  14.130   4.786
80579W        W52872  11.367  41.836   4.260
80580W        W52873  33.621   1.947   3.250
80581W        W52874  27.665  28.658  14.873
80582W        W52875  18.067  25.652   2.859
80583W        W52876  18.187  30.461  13.825
80584W        W52877  37.952   0.389  12.482
80585W        W52878  25.088  10.849  12.945
80586W        W52879  33.494  19.556  12.857
80587W        W52880  29.539   2.426  12.506
80588W        W52881  14.244   9.202   0.245
80589W        W52882  36.087  43.822  14.947
80590W        W52883  41.937   6.691  13.546
80591W        W52884  36.511  30.042   0.438
80592W        W52885  20.095  42.784   4.175
80593W        W52886  36.539   6.902  10.908
80594W        W52887   8.295   7.355  12.565
80595W        W52888  22.541  34.904  10.471
80596W        W52889  23.682   8.223   3.231
80597W        W52890  26.611  28.166   0.875
80598W        W52891  39.463  24.593  11.051
80599W        W52892  44.859   5.688   0.324
80600W        W52893   3.371   3.419  12.969
80601W        W52894   9.709  38.899   3.735
80602W        W52895  17.784  30.965   1.271
80603W        W52896   9.349   6.795   1.350
80604W        W52897  36.518   0.413   3.316
80605W        W52898  35.379   7.333  10.899
80606W        W52899  17.681   3.302  13.880
80607W        W52900   9.882  29.528  12.562
80608W        W52901  27.529  13.220  12.020
80609W        W52902  36.566  10.791   1.862
80610W        W52903  39.919  16.708   1.828
80611W        W52904  25.067  11.181  10.431
80612W        W52905  29.465  29.640  10.893
80613W        W52906  14.225  42.473  14.801
80614W        W52907   3.841   0.980   4.220
80615W        W52908  14.738  32.448  12.368
80616W        W52909  20.616   0.810  10.457
80617W        W52910   4.939  12.650  13.947
80618W        W52911   0.400   5.901   3.651
80619W        W52912   9.156  10.198   1.869
80620W        W52913  27.681  29.037  13.029
80621W        W52914  44.381  34.110   0.352
80622W        W52915   7.732  32.601   1.358
80623W        W52916  20.181  44.008   4.145
80624W        W52917  13.270   2.744   2.360
80625W        W52918  11.229   8.852   1.394
80626W        W52919  12.260  17.731   1.383
80627W        W52920  36.482  31.928   1.362
80628W        W52921  36.514  20.206   2.668
80629W        W52922  27.975   8.180  13.466
80630W        W52923  37.492  30.497  13.336
80631W        W52924  41.427  36.593   0.768
80632W        W52925  16.201  35.513   0.799
80633W        W52926  25.000  20.734   1.212
80634W        W52927  33.047  27.111   1.275
80635W        W52928   4.257  12.311   0.477
80636W        W52929  44.499  28.054  10.913
80637W        W52930  44.866  18.600   1.405
80638W        W52931  31.121   4.942   5.199
80639W        W52932   6.831  17.798  12.378
80640W        W52933   4.274   6.207   1.842
80641W        W52934  21.658   0.249  13.499
80642W        W52935  18.277  26.034   0.912
80643W        W52936  42.910   8.162   3.768
80644W        W52937   9.664   4.748  12.565
80645W        W52938  10.273  33.472  13.458
80646W        W52939  42.979  24.636   0.469
80647W        W52940  21.621  29.162   2.798
80648W        W52941  32.885  30.060   2.393
80649W        W52942  42.428  22.677   0.383
80650W        W52943  15.714  20.079  10.485
80651W        W52944   1.843  33.575  13.382
80652W        W52945  37.079  20.265  12.009
80653W        W52946  26.131   5.815  13.430
80654W        W52947  41.359   8.284   2.773
80655W        W52948   2.246   7.741  14.832
80656W        W52949   8.734  37.894  10.928
80657W        W52950  16.188  19.088  14.405
80658W        W52951  20.126  32.927   2.739
80659W        W52952  26.049  39.378  10.455
80660W        W52953  11.307   0.760   2.761
80661W        W52954  33.441  27.003  10.937
80662W        W52955   4.761  27.492   5.223
80663W        W52956   7.326  35.504   4.665
80664W        W52957  33.464  30.563  11.038
80665W        W52958  28.492  33.595   3.730
80666W        W52959  32.005  18.261  14.893
80667W        W52960  30.106  27.678   4.729
80668W        W52961   3.327  28.566   2.742
80669W        W52962  36.351  11.666  10.638
80670W        W52963  15.811  36.905  12.991
80671W        W52964  27.538   6.386  12.344
80672W        W52965  12.162   4.383  14.493
80673W        W52966  39.381  41.395  13.523
80674W        W52967  15.221  42.287  12.541
80675W        W52968   8.656   5.417   4.707
80676W        W52969  40.532  44.889   4.309
80677W        W52970   0.483  38.500  13.891
80678W        W52971  23.706  25.689  14.896
80679W        W52972  26.611  23.682  12.969
80680W        W52973  37.419   6.686   3.682
80681W        W52974   2.374  29.556  14.453
80682W        W52975  14.693   2.290   0.396
80683W        W52976  10.676  18.062   5.235
80684W        W52977   1.415  30.136  10.429
80685W        W52978  24.030  24.537  12.870
80686W        W52979  30.550  39.853   2.269
80687W        W52980   5.834  16.610   3.224
80688W        W52981   9.320   9.376   0.479
80689W        W52982  40.896  17.595   5.695
80690W        W52983   2.454  38.505   0.305
80691W        W52984  31.080  17.208   4.791
80692W        W52985  38.891  11.754  11.905
80693W        W52986  16.232  22.208   0.279
80694W        W52987  38.053  32.897  14.797
80695W        W52988  30.099  19.283   3.222
80696W        W52989   2.807  11.314   3.162
80697W        W52990  31.447  19.703   1.911
80698W        W52991  24.201  35.855  14.990
80699W        W52992  30.957  32.492   0.790
80700W        W52993  27.500  20.681   2.232
80701W        W52994  29.079  13.837   3.838
80702W        W52995  40.845  43.885   0.353
80703W        W52996  44.780  35.032   0.778
80704W        W52997  15.266   9.320  13.996
80705W        W52998  41.441  34.530   4.639
80706W        W52999  30.067  20.689   1.311
80707W        W53000  21.604   8.231   0.897
80708W        W53001  19.205  17.783  11.598
80709W        W53002  34.075  36.981   4.188
80710W        W53003  26.573  29.147  12.081
80711W        W53004  37.906   7.323   2.367
80712W        W53005  24.178  40.946  12.380
80713W        W53006   6.261  36.868   0.830
80714W        W53007  33.564  11.188  11.493
80715W        W53008   1.358  17.739  11.380
80716W        W53009   1.962  44.459   1.361
80717W        W53010  14.287  26.622   2.337
80718W        W53011   2.868  15.126  10.574
80719W        W53012   2.394   0.257  14.443
80720W        W53013  15.194   6.797  10.524
80721W        W53014  36.014   6.861   1.795
80722W        W53015   7.901  43.952  10.630
80723W        W53016  25.123  26.130  10.473
80724W        W53017  23.687  27.586   1.927
80725W        W53018  16.234   2.916   4.190
80726W        W53019  33.876   3.225   2.359
80727W        W53020   5.861  21.732  10.611
80728W        W53021  12.200  36.546  12.897
80729W        W53022   3.751  11.276  14.330
80730W        W53023  24.022   7.248  13.488
80731W        W53024   7.350  21.109   4.743
80732W        W53025  41.922  38.390  11.063
80733W        W53026  28.664  22.505  10.102
80734W        W53027  28.653  41.415  12.891
80735W        W53028  21.018  21.237  11.123
80736W        W53029   3.909  28.052  13.519
80737W        W53030  32.988   4.226   1.337
80738W        W53031   4.324  36.590   3.748
80739W        W53032  34.543  21.556   3.149
80740W        W53033   7.226  30.925  13.950
80741W        W53034  25.179  28.500   0.259
80742W        W53035  36.866  31.428  14.324
80743W        W53036  29.977  37.919   1.332
80744W        W53037   9.825  37.542   4.700
80745W        W53038  27.492  22.552   2.216
80746W        W53039  28.540   5.382  11.107
80747W        W53040  11.699  34.901  12.572
80748W        W53041   8.266  29.984  10.462
80749W        W53042  10.659  37.413   4.165
80750W        W53043  11.240  28.967   3.346
80751W        W53044   8.355  20.211  13.526
80752W        W53045  10.149  22.127   1.286
80753W        W53046  10.735   9.226  12.412
80754W        W53047  15.772  16.230  12.932
80755W        W53048  44.820  39.336  11.873
80756W        W53049  14.145  22.730   5.157
80757W        W53050  11.685  31.581   1.212
80758W        W53051  21.597  14.809   3.302
80759W        W53052  33.021   3.826   1.294
80760W        W53053  30.988  23.604   0.294
80761W        W53054  18.553  28.121   3.313
80762W        W53055  33.380   9.677  10.434
80763W        W53056  20.159  31.601  11.929
80764W        W53057  16.700  14.656   0.840
80765W        W53058  36.060  16.099   1.433
80766W        W53059   0.919  11.265  12.873
80767W        W53060  44.426  15.282  14.305
80768W        W53061   1.424  15.742  12.515
80769W        W53062  32.566  23.200   3.816
80770W        W53063   4.759  39.545   1.927
80771W        W53064  14.198  43.908  14.878
80772W        W53065   3.259   3.333  13.375
80773W        W53066  17.155  19.778   5.276
80774W        W53067   2.374  10.836   3.276
80775W        W53068  30.492  35.101  14.473
80776W        W53069  22.192  25.548  13.809
80777W        W53070  12.688  35.891  11.996
80778W        W53071  15.282   1.402  10.467
80779W        W53072  32.630  40.533   0.347
80780W        W53073   7.368  15.287  13.504
80781W        W53074  18.619  36.435   4.313
80782W        W53075  19.746  27.654   1.269
80783W        W53076  12.722  18.183   0.479
80784W        W53077  10.165  17.642  11.875
80785W        W53078  32.477  35.869  12.424
80786W        W53079  35.453  13.799   4.250
80787W        W53080  28.620  44.455  13.063
80788W        W53081  20.262   6.198   3.288
80789W        W53082  16.587  41.309   3.220
80790W        W53083  14.726   0.484  14.321
80791W        W53084  24.074  31.574  10.628
80792W        W53085  13.245  30.565   4.212
80793W        W53086   8.693  17.778  13.033
80794W        W53087  28.014   8.892  14.965
80795W        W53088  11.719  39.039   2.396
80796W        W53089  38.055  17.784  11.003
80797W        W53090  33.977  13.809   2.764
80798W        W53091  28.158  19.276  13.523
80799W        W53092  15.768  38.326   1.392
80800W        W53093  32.910  31.430   2.763
80801W        W53094   3.826  24.712   0.349
80802W        W53095  37.872   3.777   1.720
80803W        W53096  31.470  27.992  11.127
80804W        W53097  17.565  29.525   0.314
80805W        W53098  26.687   1.308   2.890
80806W        W53099  20.032  33.896  12.879
80807W        W53100  42.376  20.173  14.358
80808W        W53101   8.684   6.336   0.427
80809W        W53102  28.669  42.293   2.683
80810W        W53103   9.803  12.276   3.325
80811W        W53104  31.430  33.511   1.386
80812W        W53105  42.335  32.911   3.228
80813W        W53106  42.031  36.370  12.040
80814W        W53107   7.780  24.711   2.380
80815W        W53108  29.046  43.959  12.915
80816W        W53109  10.821  34.940  12.933
80817W        W53110  28.068  13.659   2.212
80818W        W53111  17.306  16.599   2.683
80819W        W53112  14.162  21.758  14.342
80820W        W53113   4.214  26.559   1.761
80821W        W53114  40.493  19.707   1.412
80822W        W53115   4.244  31.569  11.070
80823W        W53116  16.701   7.250  12.398
80824W        W53117  29.453  10.785   2.184
80825W        W53118  33.526   7.799   2.246
80826W        W53119  12.201  27.500  14.994
80827W        W53120  19.536  10.262   4.184
80828W        W53121   1.830  36.932   4.656
80829W        W53122   3.439  25.205  12.080
80830W        W53123  42.901  25.011  13.912
80831W        W53124  21.717  23.023  14.326
80832W        W53125   6.304  12.166   0.297
80833W        W53126  42.404  40.530  14.417
80834W        W53127  29.971  16.629   3.749
80835W        W53128  26.583  44.868   0.796
80836W        W53129  42.874  24.002   5.254
80837W        W53130  18.068  17.596  13.427
80838W        W53131  31.448  11.316   5.196
80839W        W53132   0.857   2.334   2.703
80840W        W53133  35.399  29.086   3.695
80841W        W53134  40.425  16.295  10.462
80842W        W53135   0.370  40.541  12.525
80843W        W53136  34.463   8.310  10.415
80844W        W53137  40.942   1.807   0.295
80845W        W53138  12.237  36.007  10.954
80846W        W53139   6.835  30.977  13.446
80847W        W53140   1.474  13.201  11.568
80848W        W53141  15.688  10.348   4.632
80849W        W53142  38.467  38.530  13.504
80850W        W53143  14.287  16.129   0.333
80851W        W53144  33.454  42.884   4.336
80852W        W53145  37.033  15.790  11.862
80853W        W53146  16.183  34.494  11.939
80854W        W53147  34.941  40.364  11.993
80855W        W53148   4.864  16.199   2.228
80856W        W53149   0.285   4.808  13.509
80857W        W53150   8.381  10.142  12.436
80858W        W53151  15.213  39.051  11.129
80859W        W53152  15.697   4.379  10.920
80860W        W53153   7.793  43.433  11.944
80861W        W53154  40.511  29.554   4.751
80862W        W53155  35.532  35.873  14.309
80863W        W53156  25.025  43.804  12.006
80864W        W53157  28.103   5.692  14.928
80865W        W53158   9.225  12.645  10.491
80866W        W53159  22.042  24.694  13.922
80867W        W53160  17.112   0.830   2.814
80868W        W53161   7.844  23.109  13.941
80869W        W53162  40.910  23.140  14.836
80870W        W53163  25.023  12.239   0.415
80871W        W53164  19.701   3.362   3.208
80872W        W53165  23.678  36.870  13.032
80873W        W53166  16.184  16.117  14.356
80874W        W53167  30.001  35.934   1.223
80875W        W53168  10.311  14.315   2.259
80876W        W53169  39.542  29.543  14.859
80877W        W53170  41.439   3.257  12.075
80878W        W53171   2.357   7.316  10.976
80879W        W53172  27.958  34.574   4.238
80880W        W53173  24.060   2.869  10.539
80881W        W53174  36.588  43.417  13.474
80882W        W53175   9.343   3.875   0.965
80883W        W53176  24.683  17.621   0.748
80884W        W53177  12.221  15.761   3.270
80885W        W53178   0.786  20.157   4.251
80886W        W53179  37.386  40.367  11.916
80887W        W53180  28.656  26.624  13.496
80888W        W53181   7.172   2.756   3.706
80889W        W53182  43.788  11.738   3.720
80890W        W53183  32.959  43.436   3.242
80891W        W53184   8.345  39.829   3.636
80892W        W53185  31.990  23.156   4.799
80893W        W53186   7.828  34.912  14.447
80894W        W53187  19.277  26.060   1.788
80895W        W53188  26.463  11.332   2.356
80896W        W53189  16.207   3.246  10.012
80897W        W53190  11.735   1.292  14.405
80898W        W53191   1.430   8.693   4.669
80899W        W53192  28.162   8.378  11.407
80900W        W53193  42.950  40.961  11.920
80901W        W53194  31.001  20.611   1.405
80902W        W53195  22.178  20.226  11.598
80903W        W53196  43.882  15.105  12.086
80904W        W53197  30.479  29.050   0.950
80905W        W53198  35.389  43.993  14.856
80906W        W53199  37.067  33.037   3.189
80907W        W53200   7.186  42.470   0.433
80908W        W53201  39.323  33.473  13.009
80909W        W53202  42.956  43.369   1.283
80910W        W53203  17.635  18.563   3.191
80911W        W53204   3.363   6.422  10.596
80912W        W53205  36.043  15.301  13.015
80913W        W53206  26.606  23.494   1.728
80914W        W53207  32.923  11.178  13.796
80915W        W53208  28.461  27.457   4.179
80916W        W53209  41.011   2.458   4.761
80917W        W53210  19.738  33.110   2.390
80918W        W53211   2.344   4.390   0.475
80919W        W53212  44.422  29.437   1.242
80920W        W53213  29.093  13.619  14.381
80921W        W53214   3.440  15.689   3.278
80922W        W53215  19.714  34.536   4.697
80923W        W53216  20.033  39.912  13.483
80924W        W53217  23.671  16.810   4.822
80925W        W53218  37.042  16.256   3.828
80926W        W53219  27.668   2.437  11.982
80927W        W53220  34.432   5.781  10.927
80928W        W53221  25.178  13.819  10.890
80929W        W53222  36.090  38.511   1.768
80930W        W53223  17.711   4.778   2.305
80931W        W53224   8.297  14.173   1.823
80932W        W53225  44.493  35.479   2.848
80933W        W53226   6.309  28.997  13.983
80934W        W53227   4.941  42.011  13.849
80935W        W53228  39.834  44.955   4.221
80936W        W53229  17.573   6.201   2.736
80937W        W53230   8.841   7.200   3.384
80938W        W53231  41.349   0.792   2.899
80939W        W53232  34.492  34.380  10.452
80940W        W53233  33.000  17.616  11.973
80941W        W53234  23.202  41.323  12.843
80942W        W53235   4.940  15.822   1.708
80943W        W53236  24.591  11.859   0.883
80944W        W53237   4.226  42.414   0.329
80945W        W53238  27.027   6.243   4.154
80946W        W53239   2.316   6.233   2.778
80947W        W53240  14.646   0.976  12.419
80948W        W53241  12.823  11.662   2.707
80949W        W53242  16.164  10.689  13.886
80950W        W53243   7.758  32.392   0.801
80951W        W53244  40.995   6.231   3.335
80952W        W53245  13.292  21.626  13.371
80953W        W53246  37.056  41.898   1.790
80954W        W53247  11.756  40.415   4.190
80955W        W53248  10.711  16.311   4.636
80956W        W53249  37.078  37.015   2.357
80957W        W53250  10.849  30.985  13.390
80958W        W53251   5.272   0.848   3.316
80959W        W53252  32.095  20.056  14.886
80960W        W53253  33.059  12.821  10.985
80961W        W53254   3.857  40.516   1.718
80962W        W53255  43.294   0.328   0.288
80963W        W53256  39.476  16.710  11.881
80964W        W53257  14.614  37.579  10.155
80965W        W53258  19.202   4.386   2.270
80966W        W53259  15.113  18.764  10.945
80967W        W53260  32.015  10.214   2.751
80968W        W53261  14.696   0.450   4.609
80969W        W53262   6.192  20.625   1.443
80970W        W53263  28.488   5.843  13.997
80971W        W53264  20.100   7.285   4.661
80972W        W53265  34.476  14.234   0.444
80973W        W53266  30.617  16.127  13.941
80974W        W53267  36.003  41.887   1.383
80975W        W53268  36.978  44.258  14.856
80976W        W53269   7.341  44.378   1.926
80977W        W53270  40.849  14.777  11.899
80978W        W53271  38.498  21.547   1.427
80979W        W53272  15.682  44.946   1.272
80980W        W53273  30.545  28.137  12.515
80981W        W53274  34.415  26.083   3.678
80982W        W53275  16.160  29.994   1.234
80983W        W53276  13.790  43.787   1.443
80984W        W53277  13.685  26.186  12.076
80985W        W53278  39.380   2.407   0.322
80986W        W53279  40.947  43.397  13.391
80987W        W53280  36.026  11.290  12.462
80988W        W53281  30.481  37.381  11.426
80989W        W53282   3.952  34.875  13.846
80990W        W53283  39.925   0.251  11.608
80991W        W53284   9.356  36.487   0.812
80992W        W53285   9.230  43.858   4.191
80993W        W53286  26.036   0.325  12.013
80994W        W53287  23.590  10.368   1.282
80995W        W53288  37.375  12.851   1.781
80996W        W53289  29.439  36.085   1.900
80997W        W53290  11.137  33.120   2.727
80998W        W53291  17.775  31.139  13.874
80999W        W53292  25.557  20.190   3.240
81000W        W53293  37.544   5.300   1.304
81001W        W53294   7.243   3.725  10.535
81002W        W53295  23.035   4.717   1.330
81003W        W53296  33.880  26.525  14.446
81004W        W53297  19.721   5.831   0.917
81005W        W53298  11.832  28.645   2.382
81006W        W53299  24.702  40.797  13.528
81007W        W53300  33.006  14.654  14.509
81008W        W53301  29.087   9.748  10.982
81009W        W53302   9.320  20.090  12.431
81010W        W53303   6.297  26.994  13.846
81011W        W53304  28.079   6.820   4.762
81012W        W53305  30.492   7.670  12.866
81013W        W53306  23.006  44.999   0.859
81014W        W53307   1.939  10.730  14.451
81015W        W53308  41.866  15.095   2.286
81016W        W53309  26.121  44.405  13.396
81017W        W53310  13.143  10.245   4.210
81018W        W53311  22.190   3.847  12.439
81019W        W53312  32.584   7.854  11.055
81020W        W53313   3.801  25.699   2.879
81021W        W53314   0.883  39.444   4.600
81022W        W53315  14.175  34.446  12.499
81023W        W53316  25.489  27.664  13.912
81024W        W53317  32.924  30.976   0.917
81025W        W53318  20.255  38.889   2.813
81026W        W53319  40.421   8.364   0.369
81027W        W53320  26.595  39.007  13.544
81028W        W53321  23.088  14.100  12.976
81029W        W53322   1.808  10.140  14.941
81030W        W53323  38.991   8.813  11.605
81031W        W53324  30.146  28.179   2.869
81032W        W53325  34.079  30.019  13.040
81033W        W53326  19.665  27.494   3.674
81034W        W53327   5.251  30.019  13.008
81035W        W53328  25.525   6.737   4.758
81036W        W53329  11.293  15.315  13.403
81037W        W53330  33.461  37.012  14.463
81038W        W53331   4.741  28.021   1.367
81039W        W53332   3.345  23.053  13.891
81040W        W53333  42.354  32.977  11.963
81041W        W53334  31.537  43.426  10.477
81042W        W53335  33.091  29.581   3.289
81043W        W53336  22.730  11.732   0.330
81044W        W53337  35.985  22.579   2.198
81045W        W53338   1.803  24.598   4.778
81046W        W53339   7.244  21.028  10.436
81047W        W53340  23.722  43.492   0.917
81048W        W53341  18.663  27.944   1.336
81049W        W53342  27.589  19.553  11.577
81050W        W53343  36.048  15.125  12.504
81051W        W53344  18.280  38.345   1.233
81052W        W53345  41.300  12.248   4.751
81053W        W53346  42.466  11.831   3.801
81054W        W53347  33.550  23.137   4.784
81055W        W53348  29.590  30.516   2.746
81056W        W53349  24.124  15.693  12.899
81057W        W53350  43.343   2.348  12.534
81058W        W53351  39.814  36.574   2.357
81059W        W53352  33.455   6.877  14.815
81060W        W53353  24.071  11.250   3.205
81061W        W53354   9.702  11.369   4.685
81062W        W53355   9.723   6.281  13.435
81063W        W53356  20.131  44.397   2.825
81064W        W53357  14.777  44.301   0.841
81065W        W53358  42.001   8.706  10.046
81066W        W53359  43.366  11.243  13.052
81067W        W53360  12.748   2.749  14.293
81068W        W53361  25.642  12.151  13.436
81069W        W53362  36.920  44.300  10.608
81070W        W53363  29.494  44.918  12.486
81071W        W53364  11.186  35.912  10.474
81072W        W53365  30.656  38.335   1.219
81073W        W53366  39.401  20.227  14.028
81074W        W53367  22.238  43.447   2.295
81075W        W53368  34.002  41.319   1.870
81076W        W53369   2.460  24.486   3.649
81077W        W53370  19.199  13.640  11.412
81078W        W53371  23.549  25.504  13.955
81079W        W53372  12.627  41.538  14.785
81080W        W53373  33.943  13.194   4.188
81081W        W53374  11.213  43.934  11.078
81082W        W53375  32.982   0.745   3.795
81083W        W53376  27.994  16.691   0.250
81084W        W53377  14.200  20.666  11.520
81085W        W53378  31.405  43.985   0.793
81086W        W53379  38.536   0.845   0.429
81087W        W53380  27.579  19.697  14.316
81088W        W53381  36.038   5.364   2.337
81089W        W53382   9.220  34.925  14.897
81090W        W53383  15.692  12.191  12.912
81091W        W53384   9.735  18.597  13.342
81092W        W53385  10.310   9.155   0.962
81093W        W53386  25.182  41.326   1.248
81094W        W53387  43.795   4.733   0.899
81095W        W53388   2.792  11.807  12.367
81096W        W53389  34.111  26.077  11.993
81097W        W53390  41.297  38.461  12.049
81098W        W53391  23.033  27.085  13.333
81099W        W53392  10.762   7.326   2.189
81100W        W53393  27.691  32.020  10.416
81101W        W53394  12.683  23.593  14.923
81102W        W53395  31.475  33.604   2.708
81103W        W53396  14.705  26.067   3.840
81104W        W53397   2.872  17.568   4.617
81105W        W53398   4.217  16.770  11.125
81106W        W53399  32.983   6.792   4.328
81107W        W53400  32.136   6.293   2.230
81108W        W53401  30.646  44.890  12.852
81109W        W53402  33.987   3.838  13.351
81110W        W53403  13.126  12.850  14.976
81111W        W53404  29.945  28.459   1.436
81112W        W53405  22.231   5.845  14.934
81113W        W53406  42.963   9.179   0.284
81114W        W53407   8.215  34.415   0.328
81115W        W53408  40.384   0.876  12.092
81116W        W53409  17.739   8.891  14.923
81117W        W53410  11.854  31.003   3.354
81118W        W53411   4.780  41.972  14.929
81119W        W53412   2.965  29.981   4.653
81120W        W53413  44.913  18.176  14.905
81121W        W53414  36.933   6.735  14.873
81122W        W53415  35.004  39.369  14.475
81123W        W53416  13.314  32.564  14.505
81124W        W53417   2.382   7.781   5.134
81125W        W53418  14.144  14.641   1.216
81126W        W53419   0.892  20.200   3.343
81127W        W53420  34.982  34.591  10.622
81128W        W53421  12.791   8.778   3.700
81129W        W53422  32.939  18.115  13.997
81130W        W53423  25.209   7.207   3.860
81131W        W53424   3.913  21.243   3.348
81132W        W53425  25.038  10.832   0.471
81133W        W53426  29.133  24.054  10.412
81134W        W53427  33.514  27.560   0.841
81135W        W53428  16.778  34.916  14.955
81136W        W53429   2.749  19.631   3.807
81137W        W53430  14.612  15.251   4.679
81138W        W53431   8.376  24.504   4.265
81139W        W53432  40.971  39.371   4.213
81140W        W53433  38.516   8.246  13.479
81141W        W53434   6.220  30.430  14.901
81142W        W53435  31.523  37.978  11.385
81143W        W53436   9.778  43.999  14.375
81144W        W53437   8.253  40.933  11.913
81145W        W53438  18.658  43.404   2.816
81146W        W53439  18.057   2.723  13.452
81147W        W53440  38.533  15.788  14.813
81148W        W53441  36.393  42.831  13.409
81149W        W53442  16.310  41.527   4.291
81150W        W53443  43.316  43.475   5.319
81151W        W53444  23.045  10.646  14.845
81152W        W53445  41.838   0.910   0.378
81153W        W53446  40.865  15.259   2.725
81154W        W53447   8.893  16.205   4.154
81155W        W53448  14.155  27.129   1.779
81156W        W53449  23.035  37.977   0.945
81157W        W53450   4.293  42.299   0.956
81158W        W53451  10.169  35.875   1.911
81159W        W53452  44.998  39.049  12.906
81160W        W53453  23.494  43.815  13.526
81161W        W53454  31.508  26.203  13.834
81162W        W53455  36.362  43.797  13.976
81163W        W53456  13.349  26.475   9.930
81164W        W53457   1.736  22.118   4.248
81165W        W53458  14.185  10.196   0.839
81166W        W53459   3.783   3.808  12.373
81167W        W53460   4.283  20.254  10.923
81168W        W53461  34.035  25.678  11.372
81169W        W53462  28.120  32.101   2.400
81170W        W53463  20.125  40.498  11.424
81171W        W53464  34.552   4.446   0.248
81172W        W53465  39.882   2.455  14.964
81173W        W53466  35.565  29.639   1.798
81174W        W53467  29.483  22.182   1.876
81175W        W53468  36.982  23.083  10.553
81176W        W53469   4.379  32.008   0.259
81177W        W53470  23.087  44.838  14.943
81178W        W53471  36.972  31.923  12.051
81179W        W53472  29.581   5.872   3.214
81180W        W53473  41.516  33.024   0.797
81181W        W53474  23.996  13.704   2.761
81182W        W53475  43.391   4.422   1.894
81183W        W53476   0.342  37.958   0.249
81184W        W53477   5.299  44.306  14.874
81185W        W53478  34.106   3.739   1.907
81186W        W53479  26.169   5.226  10.465
81187W        W53480   1.768  12.657  14.977
81188W        W53481  38.847  36.990  12.555
81189W        W53482  16.710  34.389   3.703
81190W        W53483  24.593   0.807  13.542
81191W        W53484  37.450  16.271  11.565
81192W        W53485   2.280  43.439  10.521
81193W        W53486  32.395  18.232  10.420
81194W        W53487   7.857  44.394  13.915
81195W        W53488  34.443   1.344   1.834
81196W        W53489  36.863  43.907  11.863
81197W        W53490  25.493   6.394   1.738
81198W        W53491  40.523  10.741  10.996
81199W        W53492   4.912  31.154  12.479
81200W        W53493  34.459  42.450   3.827
81201W        W53494   1.946   5.317  10.985
81202W        W53495  33.056  44.488   2.803
81203W        W53496  37.069  28.666  11.961
81204W        W53497  10.754  11.658  13.807
81205W        W53498  15.290  12.761  12.880
81206W        W53499  20.619  26.077   1.290
81207W        W53500  26.075  14.685   2.416
81208W        W53501  31.611  18.750  13.841
81209W        W53502  17.098  36.484   0.456
81210W        W53503  41.497  23.624   0.841
81211W        W53504  37.338  38.902  13.391
81212W        W53505  22.712  19.610  13.521
81213W        W53506  12.667  13.626  14.515
81214W        W53507   2.749   6.304  13.000
81215W        W53508  26.161  43.323  12.944
81216W        W53509  36.555  44.371  10.523
81217W        W53510  12.626  24.541  14.007
81218W        W53511  30.523  17.712  13.482
81219W        W53512  28.045   1.333   1.384
81220W        W53513  17.222  29.171  10.932
81221W        W53514  25.638  15.327   1.912
81222W        W53515  16.580   8.786   1.417
81223W        W53516  31.432  39.490   1.836
81224W        W53517  12.282  34.933  10.433
81225W        W53518  36.364  19.086  13.487
81226W        W53519  21.135  11.845   0.369
81227W        W53520  28.667  27.967   4.201
81228W        W53521  26.025  33.911   4.689
81229W        W53522  41.910  41.021  14.474
81230W        W53523   1.436   4.436   1.891
81231W        W53524   6.222  15.667  12.964
81232W        W53525  15.705  27.157   4.621
81233W        W53526  36.843   7.767   3.810
81234W        W53527   4.243  19.752  11.871
81235W        W53528  38.858  10.703   2.274
81236W        W53529  35.494  35.492   3.847
81237W        W53530  30.153   6.189  13.981
81238W        W53531  13.300  19.122   1.763
81239W        W53532   2.755  29.459  11.506
81240W        W53533  42.332  40.929   0.954
81241W        W53534  11.246  26.099   0.439
81242W        W53535  40.943  14.597  11.522
81243W        W53536  27.654  21.715   9.560
81244W        W53537  11.184   7.193  12.924
81245W        W53538  20.051  35.551   4.693
81246W        W53539  11.136  21.614   1.218
81247W        W53540   5.386  22.123   0.330
81248W        W53541  12.218  33.083   2.285
81249W        W53542  31.956  24.579   1.806
81250W        W53543  12.614  28.447  13.854
81251W        W53544  29.594  29.475   4.735
81252W        W53545  18.095  44.841   2.890
81253W        W53546  33.114  34.425  13.484
81254W        W53547  27.624  20.219  11.128
81255W        W53548   9.765  33.397  10.912
81256W        W53549  22.615  35.561  11.859
81257W        W53550  25.494  41.467   2.715
81258W        W53551  12.204  26.174  14.807
81259W        W53552  14.831  23.628   1.400
81260W        W53553  43.784  19.581   1.401
81261W        W53554   9.869  34.998   4.138
81262W        W53555  37.981  25.171   9.941
81263W        W53556  44.766  33.447  14.887
81264W        W53557  12.832  37.889   0.758
81265W        W53558  34.454   8.832   2.359
81266W        W53559  33.442  23.082  13.399
81267W        W53560   6.852  23.199   1.824
81268W        W53561  32.522   9.668   3.157
81269W        W53562  34.908   4.246  10.897
81270W        W53563  30.053  29.569   2.897
81271W        W53564  27.135  34.512  12.070
81272W        W53565  11.700  26.672   2.372
81273W        W53566  24.050  19.733  12.546
81274W        W53567  22.017  15.674   4.626
81275W        W53568  22.640   8.263  13.029
81276W        W53569  29.948  22.100  13.349
81277W        W53570  15.117  16.215   1.751
81278W        W53571  12.257  25.523   2.386
81279W        W53572  22.142  44.903  13.469
81280W        W53573   4.362  27.651  13.385
81281W        W53574   6.828  19.759  14.769
81282W        W53575  26.702   0.951  10.959
81283W        W53576  17.096  18.790   0.912
81284W        W53577  10.768   1.836  13.916
81285W        W53578  27.037  17.242  12.078
81286W        W53579  12.714  37.534  11.484
81287W        W53580  38.857  17.122   3.232
81288W        W53581  33.496  33.896  13.365
81289W        W53582   3.729   0.897  11.582
81290W        W53583  30.615   6.375   0.326
81291W        W53584   6.725  34.482   4.228
81292W        W53585  38.887   2.379   1.883
81293W        W53586  19.139  43.474  14.331
81294W        W53587  31.482  11.833   1.251
81295W        W53588  37.485   8.824  14.374
81296W        W53589  38.452  18.058  12.521
81297W        W53590  31.407  15.756   0.938
81298W        W53591  37.002  26.618  11.383
81299W        W53592   3.789  20.757  12.826
81300W        W53593   2.270  20.545   3.192
81301W        W53594   1.830  38.966   0.960
81302W        W53595   5.877   3.283  11.093
81303W        W53596  17.649  34.920  13.043
81304W        W53597  21.653  25.153  11.892
81305W        W53598  10.819  22.653  11.431
81306W        W53599  39.402   7.297  13.480
81307W        W53600  16.622   0.438  13.806
81308W        W53601  17.232   9.271   0.958
81309W        W53602   1.750  17.637   0.758
81310W        W53603  20.664   1.242  10.910
81311W        W53604  41.875  27.024   4.628
81312W        W53605  14.336   2.368   2.721
81313W        W53606   3.829  14.310   4.346
81314W        W53607   6.383  38.384  12.431
81315W        W53608   1.260  18.099  13.490
81316W        W53609  40.429  12.786  13.372
81317W        W53610   0.381  29.029  11.527
81318W        W53611  13.781  10.140  13.483
81319W        W53612  32.550  38.062   3.217
81320W        W53613  25.181  42.975  12.989
81321W        W53614  13.697  39.985   3.694
81322W        W53615  24.511  33.620  11.949
81323W        W53616   6.715  39.878  12.033
81324W        W53617  10.280  30.624  12.474
81325W        W53618  27.624  23.191   2.357
81326W        W53619  28.538  18.726  10.958
81327W        W53620   5.878  32.138   3.636
81328W        W53621  24.201  35.569   0.858
81329W        W53622  44.778  24.169   2.841
81330W        W53623  19.723  24.613   1.701
81331W        W53624  29.151  43.350  12.084
81332W        W53625  29.002  24.524  10.953
81333W        W53626   1.443  27.983   3.804
81334W        W53627   5.357  21.235   0.473
81335W        W53628  44.792   8.242  11.568
81336W        W53629  40.022  35.917  10.527
81337W        W53630  27.474  19.629   4.691
81338W        W53631  23.602  25.530   2.750
81339W        W53632  12.619   2.939  12.979
81340W        W53633  13.184  29.941  13.813
81341W        W53634  32.080  37.080   2.826
81342W        W53635  14.590  17.560   1.239
81343W        W53636  23.574  32.490   0.820
81344W        W53637  42.509  13.780   4.295
81345W        W53638  20.068   2.248   2.361
81346W        W53639  30.473  32.606  12.048
81347W        W53640  21.720  26.701   1.226
81348W        W53641  11.679  36.021   3.643
81349W        W53642  18.611  35.367   1.415
81350W        W53643  22.557  24.114  14.024
81351W        W53644  25.091  35.420   4.753
81352W        W53645   0.288   4.210  12.006
81353W        W53646  23.199  34.518   3.258
81354W        W53647   9.746  17.307  13.794
81355W        W53648  12.692  29.624   1.916
81356W        W53649  43.881  38.905   0.382
81357W        W53650  33.054  28.161  12.864
81358W        W53651  26.577  13.126   4.315
81359W        W53652  11.226  19.136  12.494
81360W        W53653  32.629  36.953   2.406
81361W        W53654  30.039   4.272  11.937
81362W        W53655  26.511   7.779  12.538
81363W        W53656  41.803  15.645   3.296
81364W        W53657  32.890  24.624  13.512
81365W        W53658  28.655  34.419  14.397
81366W        W53659   0.953   0.252  10.510
81367W        W53660  29.933  21.678   9.984
81368W        W53661   1.874   7.230  14.480
81369W        W53662  35.398  17.732   4.828
81370W        W53663  29.542   3.346  11.027
81371W        W53664  36.069  26.996  12.882
81372W        W53665  44.419  31.570  13.840
81373W        W53666  27.993   1.321   2.254
81374W        W53667  11.623  29.932   2.890
81375W        W53668  32.451  18.626  12.442
81376W        W53669   5.346  30.041  11.490
81377W        W53670   7.699  30.612   2.399
81378W        W53671  25.211  19.136   4.234
81379W        W53672  15.308  23.669  14.021
81380W        W53673   7.195  28.006   3.820
81381W        W53674  36.453  22.031   2.760
81382W        W53675   5.409  18.126   0.834
81383W        W53676  39.872  33.089   2.716
81384W        W53677  29.613  34.885  14.423
81385W        W53678  13.300  33.381  14.759
81386W        W53679   4.766  13.819   3.319
81387W        W53680   5.891   7.172  14.500
81388W        W53681  42.413  38.440   1.329
81389W        W53682  44.440  43.925  13.961
81390W        W53683  44.451  21.133  11.549
81391W        W53684   5.894  31.430   0.307
81392W        W53685  11.827  14.766   0.361
81393W        W53686  30.010  41.397   3.362
81394W        W53687  27.615  20.703  10.111
81395W        W53688  33.937  34.876   0.726
81396W        W53689  29.533  16.705   0.960
81397W        W53690  23.049  32.896  11.031
81398W        W53691  14.239   6.834  11.912
81399W        W53692   3.888   1.775  12.568
81400W        W53693   1.921  29.087  11.994
81401W        W53694  40.533  42.990   0.395
81402W        W53695  28.479  21.627   0.361
81403W        W53696  28.935  38.027  14.944
81404W        W53697  24.536  18.723   4.636
81405W        W53698  41.536  15.700  10.622
81406W        W53699   7.268  13.768  11.586
81407W        W53700   2.799  23.521   4.277
81408W        W53701  12.212  20.205  11.095
81409W        W53702  18.581  11.834   1.714
81410W        W53703  11.341  36.024  13.343
81411W        W53704   3.352   9.224   4.748
81412W        W53705  11.645  28.975   1.753
81413W        W53706  10.353  32.070   0.344
81414W        W53707  27.523   0.816   2.366
81415W        W53708  23.210  31.917  13.381
81416W        W53709  18.673  17.690  12.841
81417W        W53710  24.505   4.342  10.018
81418W        W53711  12.255   8.376  11.875
81419W        W53712   6.305  18.122   0.268
81420W        W53713  44.784  18.757   5.648
81421W        W53714   7.911  26.625  14.283
81422W        W53715  27.976  19.623   4.179
81423W        W53716   5.700  18.172  13.891
81424W        W53717  38.988  43.344  10.623
81425W        W53718   9.280   7.777  14.884
81426W        W53719  24.607  41.036   2.394
81427W        W53720   7.695   6.318   1.369
81428W        W53721   3.852  43.942  14.507
81429W        W53722  12.232  14.120   0.390
81430W        W53723  25.146  23.502   0.335
81431W        W53724  12.838   1.439  12.065
81432W        W53725   5.756  37.359   2.329
81433W        W53726  28.054  43.965  14.853
81434W        W53727  19.079  23.168   4.723
81435W        W53728  41.969  38.448  12.921
81436W        W53729  11.821  13.207  12.543
81437W        W53730  14.202  10.176  10.959
81438W        W53731  12.329  33.543   1.347
81439W        W53732  18.642  18.551  11.413
81440W        W53733   7.404   0.926  14.312
81441W        W53734  17.301  32.505   3.846
81442W        W53735  36.512  29.443  11.101
81443W        W53736  27.537  31.079   3.847
81444W        W53737   7.310  37.058  14.923
81445W        W53738  31.084  30.008  14.339
81446W        W53739  21.138  34.087   3.351
81447W        W53740  35.547  30.422   1.733
81448W        W53741  25.708  36.019  14.911
81449W        W53742  39.369   2.340  12.571
81450W        W53743   9.725   9.319   4.811
81451W        W53744  22.074   8.279  12.340
81452W        W53745  21.577  44.842   3.719
81453W        W53746  27.683  40.457   0.956
81454W        W53747  35.992  30.641  11.956
81455W        W53748  37.836  35.003  13.942
81456W        W53749  42.525  14.720   0.855
81457W        W53750   4.428  10.377   3.700
81458W        W53751  12.686   2.885   4.150
81459W        W53752   1.332   1.312   3.689
81460W        W53753  43.361   6.679   3.812
81461W        W53754  22.249   1.381   2.887
81462W        W53755  22.612   9.280  11.479
81463W        W53756  11.714  23.203   0.429
81464W        W53757   0.969  38.870  10.976
81465W        W53758  35.916  24.036   1.359
81466W        W53759  38.365  39.516  14.761
81467W        W53760  27.078  31.906   3.183
81468W        W53761  40.311  28.045   3.315
81469W        W53762  44.308  25.101   5.102
81470W        W53763  29.064   6.806   1.323
81471W        W53764  34.111  19.252   4.336
81472W        W53765   1.908  44.975   1.838
81473W        W53766   2.775  13.228  14.333
81474W        W53767  34.405   1.939   1.710
81475W        W53768   2.268  30.075   1.717
81476W        W53769  33.528  42.008  14.331
81477W        W53770   6.220   5.844   1.288
81478W        W53771  22.509  19.727  10.028
81479W        W53772  30.061  16.257  14.816
81480W        W53773  27.458   2.945  11.374
81481W        W53774  31.526  19.548  14.397
81482W        W53775  29.470  44.416  13.979
81483W        W53776  13.259  36.093  14.982
81484W        W53777  24.176  22.166  14.411
81485W        W53778  38.886  25.069   1.900
81486W        W53779  12.710   6.857   1.926
81487W        W53780  31.612  13.610   1.272
81488W        W53781  44.446  41.503   1.898
81489W        W53782  25.671  44.963  12.368
81490W        W53783  12.357  23.539   4.730
81491W        W53784   3.373  19.726   0.921
81492W        W53785  32.569  27.557   3.839
81493W        W53786  31.026  22.741   0.301
81494W        W53787   1.468  28.458  11.383
81495W        W53788  14.252  41.298   0.796
81496W        W53789   1.896  34.573   0.878
81497W        W53790   1.432  35.037  11.535
81498W        W53791  41.512  36.997   3.780
81499W        W53792  42.484  20.119  10.406
81500W        W53793  40.429  32.526  14.943
81501W        W53794  39.430  38.429  14.303
81502W        W53795   7.223  40.374  13.811
81503W        W53796  43.477  32.510   4.246
81504W        W53797  17.254  39.059   5.099
81505W        W53798  24.680  43.799   3.740
81506W        W53799   5.884  31.933  14.390
81507W        W53800  36.408  21.657   0.439
81508W        W53801   8.673  34.980   2.899
81509W        W53802  11.162  15.181   2.307
81510W        W53803  36.082   8.676   0.875
81511W        W53804  31.623  11.296   0.415
81512W        W53805   6.221  11.649  10.095
81513W        W53806   6.325  37.390  12.453
81514W        W53807  22.019  19.556   2.724
81515W        W53808  37.518  18.678   4.816
81516W        W53809  26.047  30.542  11.590
81517W        W53810   2.339  14.619   3.199
81518W        W53811  17.304  35.517   1.802
81519W        W53812  18.284  36.919   4.836
81520W        W53813  35.871  22.163  13.330
81521W        W53814   5.781  30.998   2.378
81522W        W53815  31.071  10.222  12.086
81523W        W53816  38.032  29.030   3.211
81524W        W53817  44.302   6.792   4.310
81525W        W53818  30.142  15.754   1.934
81526W        W53819   9.728  41.413  14.780
81527W        W53820  39.415   4.296  13.791
81528W        W53821  25.127  14.756   4.244
81529W        W53822   4.927  25.112   0.439
81530W        W53823  12.652  17.623   2.270
81531W        W53824  28.109  44.503   0.956
81532W        W53825   6.208  30.095  12.036
81533W        W53826  39.979  10.334  14.938
81534W        W53827  19.655  42.959   0.893
81535W        W53828  35.862   8.406  11.444
81536W        W53829  15.239  39.966   4.161
81537W        W53830  14.737  36.953  14.963
81538W        W53831  34.379  19.581   1.765
81539W        W53832   6.714   3.433  12.990
81540W        W53833  42.471   8.657   4.748
81541W        W53834  21.527  44.791   1.308
81542W        W53835  40.968  32.898   3.851
81543W        W53836  31.570  44.442  10.938
81544W        W53837  10.736  42.299  12.840
81545W        W53838  31.577  13.329   0.754
81546W        W53839  33.083  42.010  13.062
81547W        W53840  39.010  21.606  14.023
81548W        W53841  11.671   0.988   5.266
81549W        W53842  30.978  39.829   2.416
81550W        W53843   2.452  15.099   1.288
81551W        W53844  33.948  44.990   2.321
81552W        W53845  22.681  17.607   2.668
81553W        W53846  24.575  22.639  14.334
81554W        W53847  22.999   5.695   0.299
81555W        W53848  41.959  43.477   1.898
81556W        W53849  12.204  23.016  14.873
81557W        W53850  18.070  40.851   3.211
81558W        W53851  39.428  36.454  11.454
81559W        W53852  18.674  41.901   3.287
81560W        W53853  25.994  38.862  12.387
81561W        W53854  29.050   0.283  13.928
81562W        W53855   0.817  42.981  11.605
81563W        W53856  22.185   9.181  12.997
81564W        W53857  10.240   6.268  11.017
81565W        W53858  23.083  23.209  12.084
81566W        W53859  32.583  21.055  11.561
81567W        W53860  41.924  14.614  13.996
81568W        W53861   7.243   5.784  14.330
81569W        W53862  26.631  27.669   2.354
81570W        W53863  31.991  42.991   9.968
81571W        W53864   4.713  29.010  13.880
81572W        W53865   0.327  32.424   1.919
81573W        W53866  37.374  34.459  12.518
81574W        W53867  36.903  31.898   4.703
81575W        W53868  15.716  26.568   4.345
81576W        W53869  33.609   0.271   0.831
81577W        W53870  23.235  38.872  14.812
81578W        W53871   2.799   5.288   2.326
81579W        W53872  40.041  21.260   4.742
81580W        W53873   4.810  40.412   2.771
81581W        W53874  31.990  17.784   0.964
81582W        W53875  42.889  10.704   1.283
81583W        W53876  42.874  37.387  13.456
81584W        W53877  38.413   1.397   0.746
81585W        W53878  13.832  16.229   3.249
81586W        W53879  32.063  26.194  14.769
81587W        W53880  10.859  16.162  14.444
81588W        W53881  44.368  29.610   0.927
81589W        W53882  40.824  36.560  11.401
81590W        W53883   5.755  32.894  13.986
81591W        W53884  43.999  31.633  13.968
81592W        W53885  11.649  31.625   0.759
81593W        W53886  14.794  28.586   1.280
81594W        W53887  18.694  37.425   1.222
81595W        W53888  30.445  34.930  10.512
81596W        W53889  33.093  19.072  11.401
81597W        W53890  43.287  13.602  11.948
81598W        W53891  25.037   9.683   2.369
81599W        W53892  32.469  22.096   1.734
81600W        W53893  39.543   2.230   3.367
81601W        W53894  21.150  30.490   4.747
81602W        W53895  31.950   7.209   4.670
81603W        W53896  17.135  37.063   4.265
81604W        W53897  26.170  44.439  12.522
81605W        W53898  31.512   8.406  10.047
81606W        W53899   0.850  36.882  10.642
81607W        W53900  27.958  35.445  12.993
81608W        W53901   3.894  29.175  14.799
81609W        W53902  41.813   6.256   0.364
81610W        W53903  26.648   7.233  13.841
81611W        W53904  15.248   2.768  13.987
81612W        W53905  25.089   1.818  11.581
81613W        W53906  25.101   8.233   3.153
81614W        W53907  39.464  29.001  14.492
81615W        W53908   9.377  29.485  10.573
81616W        W53909  23.051  13.765   0.349
81617W        W53910  41.989  39.458  13.350
81618W        W53911  10.151   3.892  13.037
81619W        W53912   4.216  31.505  12.374
81620W        W53913  32.141  16.268  12.050
81621W        W53914  34.964  27.685  14.970
81622W        W53915   3.768  38.926   4.262
81623W        W53916  38.545  42.414  13.441
81624W        W53917  10.344   3.300   1.370
81625W        W53918   0.451  12.856   3.260
81626W        W53919  19.652   3.772  14.792
81627W        W53920   3.868  27.116   1.333
81628W        W53921  24.688   7.891   1.231
81629W        W53922  41.982   7.179  13.863
81630W        W53923  28.531  30.941  11.420
81631W        W53924  19.705  18.180  12.476
81632W        W53925  32.122  33.505  11.493
81633W        W53926  23.055  40.474   0.924
81634W        W53927  22.528  19.226  13.452
81635W        W53928   5.728  16.140   3.766
81636W        W53929  21.113  28.623   3.145
81637W        W53930  37.336  37.370  11.960
81638W        W53931   4.217  22.605   4.706
81639W        W53932  36.859  35.579   1.276
81640W        W53933  10.242  43.908  10.912
81641W        W53934   1.418  11.192  12.937
81642W        W53935  26.087  40.403   3.193
81643W        W53936  16.081   2.262  13.427
81644W        W53937  43.355   2.835   2.761
81645W        W53938   3.312  19.063  13.854
81646W        W53939  14.609  15.806  10.040
81647W        W53940  17.781  17.769   2.279
81648W        W53941  34.865  22.097   1.804
81649W        W53942  16.673  40.407   2.179
81650W        W53943  37.553   0.915   2.805
81651W        W53944  33.520  44.878   3.183
81652W        W53945   6.739   0.865   0.479
81653W        W53946  40.540  36.867  10.559
81654W        W53947  40.048   3.730   3.699
81655W        W53948  34.115  43.812   1.868
81656W        W53949   2.779  21.621   2.261
81657W        W53950  13.678  23.184   4.129
81658W        W53951  19.713  25.091   1.393
81659W        W53952  36.024  44.841  13.064
81660W        W53953  10.369  17.108   4.282
81661W        W53954  11.671  42.473  10.458
81662W        W53955  13.655   3.232   0.254
81663W        W53956  44.441  16.164   1.326
81664W        W53957  17.614  36.531   4.715
81665W        W53958   7.296  22.048   3.740
81666W        W53959  42.333  33.612   3.345
81667W        W53960  24.482   8.794  14.014
81668W        W53961  43.434  37.418  11.555
81669W        W53962  22.650  16.073  14.390
81670W        W53963  10.346  38.919   2.776
81671W        W53964  28.551  25.014  11.960
81672W        W53965  30.641  12.264  11.022
81673W        W53966  18.698  36.010  14.511
81674W        W53967  31.081  16.614   0.425
81675W        W53968  38.913  11.758   4.241
81676W        W53969  36.499   8.329  11.582
81677W        W53970  35.938  34.555  14.473
81678W        W53971  39.943  28.115   0.884
81679W        W53972  26.673   1.436  12.026
81680W        W53973  13.150  43.865  13.916
81681W        W53974  22.520  28.146   3.862
81682W        W53975  35.495  33.013   0.953
81683W        W53976  37.891  43.907   2.247
81684W        W53977   6.914   4.844   2.693
81685W        W53978   0.314  15.694   2.889
81686W        W53979  18.571  29.507  11.545
81687W        W53980  43.811  41.950   0.846
81688W        W53981  19.140   3.384   5.101
81689W        W53982  34.953  43.939   4.133
81690W        W53983   6.723   7.280  14.356
81691W        W53984  19.553   6.424   1.428
81692W        W53985  16.233  38.989  11.896
81693W        W53986  16.119  18.134   4.832
81694W        W53987   3.293  20.570   0.243
81695W        W53988  32.490   1.736   0.784
81696W        W53989  27.131  19.234   0.441
81697W        W53990  22.708  13.600  11.020
81698W        W53991  23.175  21.214  10.437
81699W        W53992  27.009  13.691   3.826
81700W        W53993   2.241  41.479  12.428
81701W        W53994  19.207   7.816   2.713
81702W        W53995  40.929  31.051  14.422
81703W        W53996  29.495  14.741  12.435
81704W        W53997  21.198   4.238   1.414
81705W        W53998   9.685  18.597   0.939
81706W        W53999  20.664   4.784   2.388
81707W        W54000  16.266  13.694  11.506
81708W        W54001  19.104  10.633  14.504
81709W        W54002  37.539  34.941   2.191
81710W        W54003  36.500  34.516  11.947
81711W        W54004  33.400  26.479   1.802
81712W        W54005   8.227  22.549   4.658
81713W        W54006   0.335  13.275   3.277
81714W        W54007  17.073  11.210  12.391
81715W        W54008  28.539  25.597   1.924
81716W        W54009  43.835  24.500  11.951
81717W        W54010  27.456   6.774   0.908
81718W        W54011   9.700  17.263   4.251
81719W        W54012  14.161  10.756   4.169
81720W        W54013  38.510  21.210  14.762
81721W        W54014  39.395  10.675  10.995
81722W        W54015  33.099  19.606  13.445
81723W        W54016   0.870  26.162   0.878
81724W        W54017  18.240   5.242   3.243
81725W        W54018  35.968   9.794   4.604
81726W        W54019  15.173  10.702  12.081
81727W        W54020   9.888   9.685  14.415
81728W        W54021   9.841  20.092   4.123
81729W        W54022  30.104  43.331   0.272
81730W        W54023   4.411  36.927  10.937
81731W        W54024  41.340   4.938   4.220
81732W        W54025  41.448  34.876   4.315
81733W        W54026  28.090   4.827  12.907
81734W        W54027  33.488  37.989  12.969
81735W        W54028  38.070  35.555   1.233
81736W        W54029  43.508  28.070  12.023
81737W        W54030  40.837  40.996   2.826
81738W        W54031  29.145  24.013   0.421
81739W        W54032  26.502  33.541   4.277
81740W        W54033  32.939  43.300   1.825
81741W        W54034  13.611   3.939  14.394
81742W        W54035  38.345   6.736  11.572
81743W        W54036  35.508   5.740  12.421
81744W        W54037   4.246  39.012  14.513
81745W        W54038   3.859  34.443   4.245
81746W        W54039  41.789  34.481  14.905
81747W        W54040  40.887  27.124   1.703
81748W        W54041   2.796  44.487  14.430
81749W        W54042  43.434  19.227  14.775
81750W        W54043  29.043  41.854   4.793
81751W        W54044  43.932  23.032  13.444
81752W        W54045  44.320  11.810   2.837
81753W        W54046  13.633  26.095   3.719
81754W        W54047  11.290  24.524  13.340
81755W        W54048   9.188  34.376  10.430
81756W        W54049  43.817  34.584  11.575
81757W        W54050   7.904  20.679  11.427
81758W        W54051  14.266  41.882  14.821
81759W        W54052   1.920  32.975  10.967
81760W        W54053  13.110  30.447  13.986
81761W        W54054  30.582   2.788   3.712
81762W        W54055   4.293  11.344  12.910
81763W        W54056  42.452  11.855  13.915
81764W        W54057  10.310   2.913  11.940
81765W        W54058   6.292  30.629  14.391
81766W        W54059  10.799  25.544  14.769
81767W        W54060  41.480   1.837   1.812
81768W        W54061  32.918  35.903  14.990
81769W        W54062  42.913  34.947  12.403
81770W        W54063  35.087  15.179  14.468
81771W        W54064  17.268  44.382   3.843
81772W        W54065   7.794   6.335   4.275
81773W        W54066  20.750  43.990  14.446
81774W        W54067  33.387  17.170   1.263
81775W        W54068  31.418  30.606   3.766
81776W        W54069  43.952  21.219  13.537
81777W        W54070  41.986  43.426  13.064
81778W        W54071  39.861  43.894   5.258
81779W        W54072  37.066  41.349   3.854
81780W        W54073  10.750  14.232  11.038
81781W        W54074  25.977  16.781  13.520
81782W        W54075  22.188   4.830   0.936
81783W        W54076  44.391  34.581   2.343
81784W        W54077  19.095   8.672   3.364
81785W        W54078  13.751   9.207   0.855
81786W        W54079  19.708  39.900  12.038
81787W        W54080  34.909  43.815   1.298
81788W        W54081  23.010   9.263   4.127
81789W        W54082  19.603   4.747  10.981
81790W        W54083   4.848  26.587  13.850
81791W        W54084  30.420  32.539   2.209
81792W        W54085  31.948  26.574   2.899
81793W        W54086  37.034  38.532  13.991
81794W        W54087  20.075  26.587   2.735
81795W        W54088  18.236  30.938  12.096
81796W        W54089  44.447   2.359  13.494
81797W        W54090  19.771  38.935  14.786
81798W        W54091  23.028  31.131  13.486
81799W        W54092   6.709  34.526   0.457
81800W        W54093   0.870   8.267  11.510
81801W        W54094  24.479  14.600  11.916
81802W        W54095   6.284  29.653  13.855
81803W        W54096  29.498  39.513   0.324
81804W        W54097   9.698  33.584  12.561
81805W        W54098   3.759  34.947  12.019
81806W        W54099  37.529  18.094   4.288
81807W        W54100  14.103  36.894  12.908
81808W        W54101  15.605   8.740  13.922
81809W        W54102   8.207  37.387   4.737
81810W        W54103  43.847  34.958   1.272
81811W        W54104  27.449  42.879  14.841
81812W        W54105  41.381  35.985  11.020
81813W        W54106  21.251  14.100  14.294
81814W        W54107  39.504  22.714  10.999
81815W        W54108   0.942  32.621  11.021
81816W        W54109  30.105  20.620  12.437
81817W        W54110   6.250   4.880  12.382
81818W        W54111   7.779  27.637   0.379
81819W        W54112  33.539  15.689   0.878
81820W        W54113  36.366  19.188   0.807
81821W        W54114  26.683  25.712  12.031
81822W        W54115  29.998  36.097  11.108
81823W        W54116   5.234  43.434   0.750
81824W        W54117  32.468  19.609   4.255
81825W        W54118  40.448   7.292  10.451
81826W        W54119  15.272  34.946  12.991
81827W        W54120  21.082  11.146   4.815
81828W        W54121   4.840   3.731  11.453
81829W        W54122   7.822  35.460   0.754
81830W        W54123   6.713  20.724  11.020
81831W        W54124  31.036  22.627  12.830
81832W        W54125  16.790  42.856  13.432
81833W        W54126  43.454  44.289   0.746
81834W        W54127  21.618   5.306  11.487
81835W        W54128  42.974  43.270   3.329
81836W        W54129   9.273  28.077  10.150
81837W        W54130  38.537  13.765   2.815
81838W        W54131  23.020  30.086  13.503
81839W        W54132  18.730  23.214   3.357
81840W        W54133  44.923  35.941  11.043
81841W        W54134  15.603  19.599  14.822
81842W        W54135  10.155  34.082  13.049
81843W        W54136   5.736  22.214  11.894
81844W        W54137  42.901  29.142  13.791
81845W        W54138  28.615  37.503  11.875
81846W        W54139  31.441  43.419  12.440
81847W        W54140  33.379  32.482   4.618
81848W        W54141  26.485  43.312   4.796
81849W        W54142  30.101   1.892  11.421
81850W        W54143   1.288   8.261   3.256
81851W        W54144  18.593  15.656  13.473
81852W        W54145   4.861  37.891   0.320
81853W        W54146  12.203  12.735   3.830
81854W        W54147  14.756  33.495   9.961
81855W        W54148  33.111  13.342   2.797
81856W        W54149  33.014  25.037   0.306
81857W        W54150   3.236  32.561   1.302
81858W        W54151  36.450  40.990   4.335
81859W        W54152  19.190   9.164   2.887
81860W        W54153  41.036  15.086   0.315
81861W        W54154  44.488  44.474   0.903
81862W        W54155  30.596  30.659  11.593
81863W        W54156  34.868  20.560  14.968
81864W        W54157  19.214  23.569  12.947
81865W        W54158  38.870  36.897   3.715
81866W        W54159  22.201  39.959   0.889
81867W        W54160  29.147  33.431   2.861
81868W        W54161   4.392  32.018  12.517
81869W        W54162  32.891  38.048  10.472
81870W        W54163  21.540  26.192   4.616
81871W        W54164  26.648  14.630   2.787
81872W        W54165  36.556  23.007  11.969
81873W        W54166  14.632  12.213  12.856
81874W        W54167  16.739   3.257  13.537
81875W        W54168   1.900   6.791  12.845
81876W        W54169   2.943  41.303   0.301
81877W        W54170  10.280  25.494   0.901
81878W        W54171   6.210   6.685  12.973
81879W        W54172  33.600  14.705  14.771
81880W        W54173   0.907  22.026   3.773
81881W        W54174  42.384   8.182   3.233
81882W        W54175  35.513  25.129   3.800
81883W        W54176  25.010  11.318   0.912
81884W        W54177  32.507  38.366   3.302
81885W        W54178  19.151  30.002   3.169
81886W        W54179   7.879  10.726  13.528
81887W        W54180  23.644  17.778  12.410
81888W        W54181  21.582   3.735   1.716
81889W        W54182  37.401  17.275  10.610
81890W        W54183  22.047   6.774  10.541
81891W        W54184  34.396  41.024  11.111
81892W        W54185  25.085  16.599   0.282
81893W        W54186  25.702  15.592  11.997
81894W        W54187  10.322  14.768   2.234
81895W        W54188  36.898  44.985  11.451
81896W        W54189  15.117  23.987   4.176
81897W        W54190  28.169   7.720   2.796
81898W        W54191  44.955  27.148  11.010
81899W        W54192   6.227  42.454   4.287
81900W        W54193  30.644   5.846   3.829
81901W        W54194  14.163  44.838   0.926
81902W        W54195  31.492  27.623  11.068
81903W        W54196  11.348   3.343   2.386
81904W        W54197  23.657  39.931  12.964
81905W        W54198  10.740   9.665  12.344
81906W        W54199   0.472  15.188  13.901
81907W        W54200  33.928   7.245  14.341
81908W        W54201  26.173  32.605   1.751
81909W        W54202  38.823   7.208   1.273
81910W        W54203  32.457   2.760   2.358
81911W        W54204   6.415  39.443   1.920
81912W        W54205  32.006  14.269  12.871
81913W        W54206  36.011  31.469   4.182
81914W        W54207  18.774  24.721   3.805
81915W        W54208  40.003  22.032   2.254
81916W        W54209  37.832  35.027   4.776
81917W        W54210  23.117  42.016  14.375
81918W        W54211  14.666  22.167  14.984
81919W        W54212   7.886  41.900  13.832
81920W        W54213  37.034  18.191   0.730
81921W        W54214  44.000  17.733   3.823
81922W        W54215  32.605  30.475   5.318
81923W        W54216  24.137  26.689   1.776
81924W        W54217  27.547  38.935   0.244
81925W        W54218   7.226  10.340  11.397
81926W        W54219  22.023   8.865   3.732
81927W        W54220  35.977   6.768   1.250
81928W        W54221  17.303  34.927   4.210
81929W        W54222  31.471  23.078  12.009
81930W        W54223  38.067  15.314   3.791
81931W        W54224  39.334  18.086   2.873
81932W        W54225  43.770  41.962  11.961
81933W        W54226  40.453  10.276   5.162
81934W        W54227  13.346   2.330   4.273
81935W        W54228  40.967   8.781   4.301
81936W        W54229  15.215  24.482   1.778
81937W        W54230  14.246  36.366   0.335
81938W        W54231  16.631  19.073   0.766
81939W        W54232  39.535  12.666  10.587
81940W        W54233   4.834  32.425  12.552
81941W        W54234  22.077  44.937  12.350
81942W        W54235  14.171   7.344   1.871
81943W        W54236  24.652   5.398  10.566
81944W        W54237  42.936  16.802   3.631
81945W        W54238   3.916  34.401   4.760
81946W        W54239  43.303  37.366  12.060
81947W        W54240  17.177  11.144  10.567
81948W        W54241  29.040  26.979   0.907
81949W        W54242  38.864  36.990   0.302
81950W        W54243  35.456   7.375  11.549
81951W        W54244   0.346   5.850  12.576
81952W        W54245   4.323  28.127  14.307
81953W        W54246   4.769  16.584  14.763
81954W        W54247  11.816   7.412   4.349
81955W        W54248   6.738  42.488  12.910
81956W        W54249  36.504  18.065   2.379
81957W        W54250   1.967  13.785   3.811
81958W        W54251   4.703  30.493  13.999
81959W        W54252   7.276  19.272  11.403
81960W        W54253   6.722  10.854  13.484
81961W        W54254   1.396  12.357  13.868
81962W        W54255  42.487  17.738   0.754
81963W        W54256  13.139  22.230  11.988
81964W        W54257  39.463  31.599   2.791
81965W        W54258  34.504  15.301  10.595
81966W        W54259  25.485  32.479   1.321
81967W        W54260   5.347  12.151  12.839
81968W        W54261  34.109  38.855  12.090
81969W        W54262   4.747  44.847  10.615
81970W        W54263  41.376  13.667   4.733
81971W        W54264  39.870  19.232   3.757
81972W        W54265  20.587  19.124   0.261
81973W        W54266   9.152  12.286   1.888
81974W        W54267   6.264  17.708   0.868
81975W        W54268  24.075  35.972  12.865
81976W        W54269  30.104  35.410   0.835
81977W        W54270  29.482  32.589   2.891
81978W        W54271  18.279   2.749  12.933
81979W        W54272   2.305  21.691   2.408
81980W        W54273   2.332  25.543  13.408
81981W        W54274  27.510  17.178  10.464
81982W        W54275   4.724  33.504  12.574
81983W        W54276   7.340  22.523   4.607
81984W        W54277   5.828  27.690  11.874
81985W        W54278  12.740  30.548   2.276
81986W        W54279  27.517   8.223   2.895
81987W        W54280  12.325  40.500  13.024
81988W        W54281  22.175  41.006  14.285
81989W        W54282  31.448  14.807  11.436
81990W        W54283  21.619  12.321  11.915
81991W        W54284  38.915  37.992   1.375
81992W        W54285  39.390   4.809   4.807
81993W        W54286  24.689  38.036  13.949
81994W        W54287  38.076  38.047  13.881
81995W        W54288  10.187   8.744  14.003
81996W        W54289   7.776  35.376   2.361
81997W        W54290  24.677  41.411  14.790
81998W        W54291   9.707  35.880  11.579
81999W        W54292  20.669  34.040  10.043
82000W        W54293  15.130  43.786  14.951
82001W        W54294  36.471   6.367  13.349
82002W        W54295   5.411  20.699  11.547
82003W        W54296  40.809  17.637  13.487
82004W        W54297  18.737  17.079   1.266
82005W        W54298  34.880   9.801  13.890
82006W        W54299  20.682  10.310   2.864
82007W        W54300  32.485  16.138  14.984
82008W        W54301  41.933  21.610   3.305
82009W        W54302  41.380  32.576  12.013
82010W        W54303  16.636  34.554   2.775
82011W        W54304  26.497  18.688   4.345
82012W        W54305   7.753  18.672   1.236
82013W        W54306  38.420   6.834  13.956
82014W        W54307  13.129  32.098   2.820
82015W        W54308  23.107  24.722  14.338
82016W        W54309  16.743  32.025   1.726
82017W        W54310  13.272  19.588   5.197
82018W        W54311  33.955  14.182   4.669
82019W        W54312  34.391  43.362   3.745
82020W        W54313  28.561  25.655   3.377
82021W        W54314   7.707  23.542  13.924
82022W        W54315  34.479   2.731   0.457
82023W        W54316  36.084  25.130   3.760
82024W        W54317  19.041   4.245  11.959
82025W        W54318  37.379  23.635  12.439
82026W        W54319  29.171  25.219   2.719
82027W        W54320   9.160  11.691   5.200
82028W        W54321   8.680  29.540   5.200
82029W        W54322  31.578  23.058   2.699
82030W        W54323   1.833  22.697  11.938
82031W        W54324  30.975  25.051  14.509
82032W        W54325   2.936   3.829  13.524
82033W        W54326   5.422  43.339  11.581
82034W        W54327  25.129  35.372   3.728
82035W        W54328  16.779  21.671   9.999
82036W        W54329  40.869   9.821  14.438
82037W        W54330  29.939  36.544   0.302
82038W        W54331  43.463  12.659  12.471
82039W        W54332  35.958  33.092  11.410
82040W        W54333  25.538  11.627   4.282
82041W        W54334  32.052  27.660   4.212
82042W        W54335  32.069  41.509  12.558
82043W        W54336  37.007  43.811  13.382
82044W        W54337  29.573  36.368   2.282
82045W        W54338   3.859   5.260   2.248
82046W        W54339  22.102   9.662   1.419
82047W        W54340   9.358  40.438  14.788
82048W        W54341  25.631   4.438  13.035
82049W        W54342  31.061  13.141   0.411
82050W        W54343  37.016  28.011  14.842
82051W        W54344  34.372  44.916   4.748
82052W        W54345   8.377  32.094   2.222
82053W        W54346  10.713  35.854  12.468
82054W        W54347  10.796   5.355  14.275
82055W        W54348  20.656  10.810  11.548
82056W        W54349  16.169  34.990  12.414
82057W        W54350   5.755   6.690   2.243
82058W        W54351  40.546  28.511   3.251
82059W        W54352  18.245   7.825   2.254
82060W        W54353  26.546   0.851  10.462
82061W        W54354  14.596  43.817  10.533
82062W        W54355   3.768  19.605   0.277
82063W        W54356  13.205   4.367   5.239
82064W        W54357   2.280  26.456  13.971
82065W        W54358  36.577  40.864   0.364
82066W        W54359  20.550   3.443   2.699
82067W        W54360  26.055  43.866   3.752
82068W        W54361   8.303  29.555  10.898
82069W        W54362   9.646  41.340  13.837
82070W        W54363  16.202  41.348   4.598
82071W        W54364   0.902  39.346  13.821
82072W        W54365  22.115   5.778   3.804
82073W        W54366  23.093  35.014   4.161
82074W        W54367  23.116  23.221   1.743
82075W        W54368  35.946  13.647   0.741
82076W        W54369  12.328  22.131   2.807
82077W        W54370  35.368  20.607  10.939
82078W        W54371  43.882  34.936   1.905
82079W        W54372  20.270  17.730  10.493
82080W        W54373  14.274  26.118   1.215
82081W        W54374  42.373  13.734  14.502
82082W        W54375  21.590   4.416  12.078
82083W        W54376  20.705   1.254  12.398
82084W        W54377  32.138  21.610  13.492
82085W        W54378  29.976  37.992  11.430
82086W        W54379  28.632  31.909   3.252
82087W        W54380  19.649  24.183  13.862
82088W        W54381  31.057   8.390  11.522
82089W        W54382  41.966  44.874  14.365
82090W        W54383  37.424  19.111  12.074
82091W        W54384  29.152  24.193   3.222
82092W        W54385  26.467   8.673   2.281
82093W        W54386  39.933   9.313   4.717
82094W        W54387  15.162  29.656  12.075
82095W        W54388  36.403   9.384   0.310
82096W        W54389  13.298  14.255   4.795
82097W        W54390  37.423  22.249  12.374
82098W        W54391  19.245  31.150   2.183
82099W        W54392  36.560   1.765   2.295
82100W        W54393  15.091  10.359   0.826
82101W        W54394  32.052  23.089  13.871
82102W        W54395   4.742   3.403   4.251
82103W        W54396  43.848   6.370   4.179
82104W        W54397  23.087  26.002   0.726
82105W        W54398  35.871  17.723   3.823
82106W        W54399  37.362   1.295  10.504
82107W        W54400  12.855  26.663  10.461
82108W        W54401  18.194  44.800   1.406
82109W        W54402  21.057  25.133  12.572
82110W        W54403   2.724  27.516   4.227
82111W        W54404  15.154  24.196   4.627
82112W        W54405  23.537   4.414   1.935
82113W        W54406   2.468   4.750   2.722
82114W        W54407  18.195  30.555  12.826
82115W        W54408  44.887  29.623   1.768
82116W        W54409  20.168  43.847  12.964
82117W        W54410  14.266  13.651   0.913
82118W        W54411  12.748  25.481   3.658
82119W        W54412  34.946  17.563  13.545
82120W        W54413  29.971  24.991  11.400
82121W        W54414  35.469  35.966   0.357
82122W        W54415   3.725  20.270  14.818
82123W        W54416  30.988  10.374  13.368
82124W        W54417  20.697  14.810  10.503
82125W        W54418  19.550  21.751  12.080
82126W        W54419  36.080  41.007  12.094
82127W        W54420  18.119  12.660  13.499
82128W        W54421   9.801  23.201  10.552
82129W        W54422   6.202  24.029  10.045
82130W        W54423  44.765   1.809   2.801
82131W        W54424   9.813  13.305   3.264
82132W        W54425  37.465  23.531  14.973
82133W        W54426  33.948   2.919   1.358
82134W        W54427  34.563   5.405   3.630
82135W        W54428   8.168  44.476   0.816
82136W        W54429  21.671  11.650  12.426
82137W        W54430  44.922  27.193   4.143
82138W        W54431  18.717  23.025  14.927
82139W        W54432  15.811  34.876   3.212
82140W        W54433  17.565  12.179  11.382
82141W        W54434  27.014  16.088   1.698
82142W        W54435  17.107   9.215   3.189
82143W        W54436  36.378  29.643   2.304
82144W        W54437  43.506  16.082  14.018
82145W        W54438  29.127   9.206  14.869
82146W        W54439  22.549   0.303  14.857
82147W        W54440   3.313  11.135   4.342
82148W        W54441   2.780  35.070  13.420
82149W        W54442  23.175  43.769  14.310
82150W        W54443  31.528  43.984  14.006
82151W        W54444   3.461  42.872   5.244
82152W        W54445  41.516  29.649  12.495
82153W        W54446   7.232  44.866   1.227
82154W        W54447  32.403  43.502   4.771
82155W        W54448  29.107   1.881  13.023
82156W        W54449  31.105  19.168   3.204
82157W        W54450  26.502  14.289  13.808
82158W        W54451  42.487  29.564  11.969
82159W        W54452   5.314  28.974   4.125
82160W        W54453  23.079  16.101   4.329
82161W        W54454  30.554  11.740   1.226
82162W        W54455   8.216  21.093  10.542
82163W        W54456  21.155  15.821  14.008
82164W        W54457  32.056  15.619   0.375
82165W        W54458  32.552  11.253  13.412
82166W        W54459  11.631  30.135   0.799
82167W        W54460  21.064  23.131  13.456
82168W        W54461  37.895  25.498   4.636
82169W        W54462   1.893   0.456   0.272
82170W        W54463  22.516  26.177  14.295
82171W        W54464   6.851  29.008  12.026
82172W        W54465  27.076  36.007  14.276
82173W        W54466  13.164  36.958  13.028
82174W        W54467  19.590  24.125  14.470
82175W        W54468  14.798  24.082   3.670
82176W        W54469  38.394  31.098   1.775
82177W        W54470  24.605  38.410  10.632
82178W        W54471  37.443  34.568   4.760
82179W        W54472  31.985  11.346  13.901
82180W        W54473  42.917  10.845  13.310
82181W        W54474  20.119   0.819  14.965
82182W        W54475   5.419  25.615  12.945
82183W        W54476  23.032  37.476  12.914
82184W        W54477  33.414  18.091  10.983
82185W        W54478   7.286   7.734   3.763
82186W        W54479  44.318   6.258   0.476
82187W        W54480   0.381  23.560   2.266
82188W        W54481  13.208   3.898   2.859
82189W        W54482  22.612  25.033  11.917
82190W        W54483  22.708  29.454   2.791
82191W        W54484  17.081  31.135   1.754
82192W        W54485   3.223  31.092  14.798
82193W        W54486  14.326   7.781   1.836
82194W        W54487  11.141  30.919  13.977
82195W        W54488  26.471  39.034   3.753
82196W        W54489  13.310   7.755   3.714
82197W        W54490  44.893  37.428  12.954
82198W        W54491  18.269  15.259  11.482
82199W        W54492  30.034  28.996   4.239
82200W        W54493   1.854  19.177  11.013
82201W        W54494  18.158  39.439   0.951
82202W        W54495   6.826   1.901  13.330
82203W        W54496  15.734  23.995  12.085
82204W        W54497  25.683  13.660   3.708
82205W        W54498  22.649   1.825   4.828
82206W        W54499   1.900   8.186  12.862
82207W        W54500  35.504  29.062   3.276
82208W        W54501   6.913  15.166   4.260
82209W        W54502  36.526  14.669   2.378
82210W        W54503   5.345  35.076   3.145
82211W        W54504   0.350  41.322  12.997
82212W        W54505  28.558   7.758  10.446
82213W        W54506   2.284  20.086  13.873
82214W        W54507  20.632  18.276  10.954
82215W        W54508  25.531  26.039   2.325
82216W        W54509  38.823   5.799   0.264
82217W        W54510  29.611   9.685   5.160
82218W        W54511  42.438  33.003   0.894
82219W        W54512  26.474  15.779   0.414
82220W        W54513   6.420  25.184   3.851
82221W        W54514   2.739  26.575  11.025
82222W        W54515  34.577  35.575  13.491
82223W        W54516  39.857  11.790   4.345
82224W        W54517  23.724  18.720  14.513
82225W        W54518  35.069  35.434  13.403
82226W        W54519  18.255  12.733   2.903
82227W        W54520  24.141  22.011  12.096
82228W        W54521  25.102  43.788   0.359
82229W        W54522  10.240  42.982  14.830
82230W        W54523  35.485  23.601  11.446
82231W        W54524  22.639  21.081   3.242
82232W        W54525  41.796  37.355  14.793
82233W        W54526  32.079  39.553   3.194
82234W        W54527   4.291   0.852   4.239
82235W        W54528  26.653   2.299  11.927
82236W        W54529  23.694  32.128  13.871
82237W        W54530  24.124  27.153  11.542
82238W        W54531  11.645  26.999   2.362
82239W        W54532   6.874  38.497   4.825
82240W        W54533  24.539   9.204  11.058
82241W        W54534  30.090  26.701  13.807
82242W        W54535  42.896  33.111   4.684
82243W        W54536  31.640  37.537   9.972
82244W        W54537  22.144  36.529   2.816
82245W        W54538  38.929   4.231   0.810
82246W        W54539  22.626  23.502   0.860
82247W        W54540  34.533  35.093  12.531
82248W        W54541  28.548   0.433   2.408
82249W        W54542  33.083  12.705  11.590
82250W        W54543  23.028  22.226  14.973
82251W        W54544   6.843  37.527  14.841
82252W        W54545   0.377   4.287  11.001
82253W        W54546  31.581  39.351   1.440
82254W        W54547   6.826   6.182  11.995
82255W        W54548  21.567  34.576   5.322
82256W        W54549  14.622  26.490   3.216
82257W        W54550  28.135   2.341   2.822
82258W        W54551  10.722  17.663  10.576
82259W        W54552  26.134  19.755  11.509
82260W        W54553  23.089  42.779   1.366
82261W        W54554   7.271  23.622   1.373
82262W        W54555  24.052  41.360  14.009
82263W        W54556  11.793   9.746  14.980
82264W        W54557  24.624  22.085  10.641
82265W        W54558  34.974  25.475   4.313
82266W        W54559  39.884  27.972  11.911
82267W        W54560  14.198  14.821   4.204
82268W        W54561  13.302  38.943  13.376
82269W        W54562  43.905  27.148  11.126
82270W        W54563  43.322  25.968  11.556
82271W        W54564  23.060  41.467  14.876
82272W        W54565  33.605  34.428  12.391
82273W        W54566  37.459  22.739   0.838
82274W        W54567  17.676  29.959   0.392
82275W        W54568   9.180  44.828   3.255
82276W        W54569  27.006   8.331   2.329
82277W        W54570   6.310  31.545  14.337
82278W        W54571  34.915  38.503  13.545
82279W        W54572  40.959  17.572   0.791
82280W        W54573   0.430  36.565   9.629
82281W        W54574  25.609  19.146  11.441
82282W        W54575   4.311  10.342   1.273
82283W        W54576  20.097   8.706  11.503
82284W        W54577  35.109  14.811  12.971
82285W        W54578  37.465  19.203   1.396
82286W        W54579  35.932  22.637  14.797
82287W        W54580   1.399  26.048  10.917
82288W        W54581  33.070   9.378  13.381
82289W        W54582  29.664  33.404  10.920
82290W        W54583  25.203  42.288  13.935
82291W        W54584   8.814  19.638  12.962
82292W        W54585  37.995  12.811  10.515
82293W        W54586   5.401  26.574  14.946
82294W        W54587   0.956  25.625   2.668
82295W        W54588  35.492  37.477  11.607
82296W        W54589  38.503  31.433   0.908
82297W        W54590   8.838  34.542  11.962
82298W        W54591  29.531  32.524   1.848
82299W        W54592  28.987  38.516  11.005
82300W        W54593  31.492  16.134   1.348
82301W        W54594  41.997  41.474   3.786
82302W        W54595  13.804  41.457  12.348
82303W        W54596  33.130  35.464  12.576
82304W        W54597  32.100  27.181   2.221
82305W        W54598  22.552   3.288  14.959
82306W        W54599  11.196  11.166   4.212
82307W        W54600  38.423  27.992  12.498
82308W        W54601  24.655  37.553   0.307
82309W        W54602  28.062  36.513   3.218
82310W        W54603   2.761   3.836   4.267
82311W        W54604  39.533  39.455   3.214
82312W        W54605  44.003   3.389   1.717
82313W        W54606   8.714  30.976  12.984
82314W        W54607  41.437   6.325   1.342
82315W        W54608   2.351  28.594   0.247
82316W        W54609  27.982  18.548   0.817
82317W        W54610  19.146  40.458  14.412
82318W        W54611   3.278  40.018  12.444
82319W        W54612  41.871  16.246   2.668
82320W        W54613  44.494  36.858   0.257
82321W        W54614  34.573  17.123  10.493
82322W        W54615  32.438   9.801   5.619
82323W        W54616  14.697  43.395  11.051
82324W        W54617  36.088   1.949   4.610
82325W        W54618  20.658  38.387  12.849
82326W        W54619  43.428  19.056   5.266
82327W        W54620  13.221  28.966   3.752
82328W        W54621  21.062  11.842   2.780
82329W        W54622  31.049   2.820   0.933
82330W        W54623   8.282  37.354   1.398
82331W        W54624  37.360  35.483  13.433
82332W        W54625  29.446  33.919  13.949
82333W        W54626  11.861  22.035   3.819
82334W        W54627  40.385  40.525   2.240
82335W        W54628  41.297  35.474   2.770
82336W        W54629  17.635  12.121   4.826
82337W        W54630  39.547  14.255   4.661
82338W        W54631  30.911  24.668   0.261
82339W        W54632  42.870   3.736  13.370
82340W        W54633  39.354  16.684  11.528
82341W        W54634  21.640  31.967  11.934
82342W        W54635  42.300  21.039   1.430
82343W        W54636  40.412  40.983  12.420
82344W        W54637   2.829  14.674   2.880
82345W        W54638  29.096  17.791  11.929
82346W        W54639  33.089   3.734  11.106
82347W        W54640   7.371  39.314   2.692
82348W        W54641   7.254  11.316  12.440
82349W        W54642  39.393  34.940   3.254
82350W        W54643  17.096  27.132  12.569
82351W        W54644  31.954  43.272  13.826
82352W        W54645  15.253  35.075  10.466
82353W        W54646   8.818  28.972   3.761
82354W        W54647  42.525  24.181  13.883
82355W        W54648   9.275  13.623  13.841
82356W        W54649  19.691  32.493  13.979
82357W        W54650  43.453  16.267   3.309
82358W        W54651  17.579  26.532   3.842
82359W        W54652  17.238  10.291   4.250
82360W        W54653  30.157   6.774   3.271
82361W        W54654  25.168   5.303  14.339
82362W        W54655   9.695  37.483   0.957
82363W        W54656  30.996  12.142  11.528
82364W        W54657  16.236  23.715  14.929
82365W        W54658  35.982  34.878  14.442
82366W        W54659  19.756  44.794   0.271
82367W        W54660  27.988  25.150   2.736
82368W        W54661  11.724   3.921  10.094
82369W        W54662  35.088  11.768   4.651
82370W        W54663  41.519  24.196  14.287
82371W        W54664  36.409  24.007   0.306
82372W        W54665   3.264  38.454  10.586
82373W        W54666  14.679   6.792   1.376
82374W        W54667  11.740   6.853  14.508
82375W        W54668  38.903   1.385  11.060
82376W        W54669  28.037  21.069   9.524
82377W        W54670   8.695  26.022  14.394
82378W        W54671  35.992  40.401   2.271
82379W        W54672  27.536  19.058  11.890
82380W        W54673   5.732  30.998   4.198
82381W        W54674  39.509   3.371   3.241
82382W        W54675   3.456   3.459   0.478
82383W        W54676  32.555   1.917  10.596
82384W        W54677  40.462  27.450   1.368
82385W        W54678  34.943  24.186  10.455
82386W        W54679  33.541  10.705  11.918
82387W        W54680  23.553  44.346   2.276
82388W        W54681  23.068   4.250   2.265
82389W        W54682  25.650  35.993   0.925
82390W        W54683  10.815   7.671   4.740
82391W        W54684  21.678  42.844   2.863
82392W        W54685  37.920   7.416  13.007
82393W        W54686   4.327   5.752   2.699
82394W        W54687  34.502  37.053   2.263
82395W        W54688   4.296  14.715  13.333
82396W        W54689  26.153  30.609   0.244
82397W        W54690  26.025  31.411   3.659
82398W        W54691   8.781  44.455   3.670
82399W        W54692  14.602   1.466  11.891
82400W        W54693  16.609  18.199   2.272
82401W        W54694  13.280  44.400   4.733
82402W        W54695  40.875   4.268  11.424
82403W        W54696   5.706  25.518   1.397
82404W        W54697  39.363   0.416   3.864
82405W        W54698   1.871  18.689  13.530
82406W        W54699  22.063  10.728  11.059
82407W        W54700  42.935  28.074  10.529
82408W        W54701  19.175   4.384   4.319
82409W        W54702  37.485   4.397   1.329
82410W        W54703  31.511   3.309   1.923
82411W        W54704  25.052  39.909   0.395
82412W        W54705  36.560   5.850  12.366
82413W        W54706  30.578   7.831   2.831
82414W        W54707  10.329  13.336   5.216
82415W        W54708  14.151  21.513  12.015
82416W        W54709  43.967  40.351   2.281
82417W        W54710  25.512  18.112   0.299
82418W        W54711  15.709   6.814  13.471
82419W        W54712  28.998  38.568  12.919
82420W        W54713  17.729   5.418  10.644
82421W        W54714  31.126  27.967   0.430
82422W        W54715   8.665  37.558   0.467
82423W        W54716  44.852  17.697   0.753
82424W        W54717  31.150  44.819  10.475
82425W        W54718  28.153  10.170  14.458
82426W        W54719   7.244  41.450   0.456
82427W        W54720  41.381  44.452   4.735
82428W        W54721  31.516  22.222   0.281
82429W        W54722  11.163  44.775  14.816
82430W        W54723  12.330   5.276   0.756
82431W        W54724  28.485  23.640  10.580
82432W        W54725  37.443  41.499   0.458
82433W        W54726  13.241  37.912   2.319
82434W        W54727  36.394  34.374   4.222
82435W        W54728  15.175   9.361  10.415
82436W        W54729  17.130  20.055  14.969
82437W        W54730  41.372   4.926   0.862
82438W        W54731   7.870  24.524  13.994
82439W        W54732  24.695  27.133   0.796
82440W        W54733  23.094   9.347  12.542
82441W        W54734  30.490  15.623   1.880
82442W        W54735  42.455   8.363  14.767
82443W        W54736  37.849  20.163  14.765
82444W        W54737  14.704  21.114  12.523
82445W        W54738  29.483  39.066  13.415
82446W        W54739   3.897  37.922   1.256
82447W        W54740   9.841   3.763  12.888
82448W        W54741   8.735   8.335  11.964
82449W        W54742  17.593  38.562   2.704
82450W        W54743   7.726  15.730   4.350
82451W        W54744  34.492  32.082  14.344
82452W        W54745   3.766   2.929   0.738
82453W        W54746  43.937   9.863   2.801
82454W        W54747   8.694  41.953   5.282
82455W        W54748  25.544  17.079  10.894
82456W        W54749  21.665  35.550   0.732
82457W        W54750   2.415   3.743  11.533
82458W        W54751  17.263  14.623  11.453
82459W        W54752  41.531  40.868  15.000
82460W        W54753   7.273  11.697   2.216
82461W        W54754   9.710  15.700  10.517
82462W        W54755  19.720  44.968  11.047
82463W        W54756  11.366  29.466   1.761
82464W        W54757  44.757  20.739  12.399
82465W        W54758   4.828   4.310  14.334
82466W        W54759  16.282   6.374  13.867
82467W        W54760  18.631   7.742   3.825
82468W        W54761  17.669  14.172   3.354
82469W        W54762  31.062  13.840   2.818
82470W        W54763  36.490  30.961  12.409
82471W        W54764  15.596   1.847  11.022
82472W        W54765  43.381  41.407  13.851
82473W        W54766  21.168  39.324   1.912
82474W        W54767  21.526  38.518  12.007
82475W        W54768  13.110  10.194   4.788
82476W        W54769  17.217  11.153   1.755
82477W        W54770   5.337   4.231   2.831
82478W        W54771  22.067   6.885  12.419
82479W        W54772   6.831  24.520  10.442
82480W        W54773  38.838  30.469  12.912
82481W        W54774  10.364  13.624   3.210
82482W        W54775   5.922  42.466   3.206
82483W        W54776  34.422  11.643   3.846
82484W        W54777  32.401  24.597   3.710
82485W        W54778   2.961  14.308  13.975
82486W        W54779   5.346  40.353  11.400
82487W        W54780  29.102  10.747  12.427
82488W        W54781  17.266  24.184  14.823
82489W        W54782  27.087  24.488  11.380
82490W        W54783  12.777  28.676  10.936
82491W        W54784  19.208  30.012   9.993
82492W        W54785  44.296  28.015   3.277
82493W        W54786  15.680  23.565  10.441
82494W        W54787  17.675  25.633   3.741
82495W        W54788  18.084  44.447  11.096
82496W        W54789  18.052  26.568   4.760
82497W        W54790  44.848  18.583  13.345
82498W        W54791  21.520  28.450   0.408
82499W        W54792  25.606  32.989  10.462
82500W        W54793  29.069  19.631  11.930
82501W        W54794  38.057  21.555  10.568
82502W        W54795   1.417   0.893   2.329
82503W        W54796   3.373  37.552   4.667
82504W        W54797  11.227   5.763   4.747
82505W        W54798  43.397  37.996  14.812
82506W        W54799   6.230  33.036   1.229
82507W        W54800  38.021  37.524  11.886
82508W        W54801   8.314   8.390   1.754
82509W        W54802   8.692   8.799  14.771
82510W        W54803  10.215  39.381  11.520
82511W        W54804  31.143  21.060  10.528
82512W        W54805  35.938  21.683   3.208
82513W        W54806   5.739  30.087  11.869
82514W        W54807  40.887  37.401  14.939
82515W        W54808  42.332  39.429   2.384
82516W        W54809   9.716  15.769   2.419
82517W        W54810  17.225  40.840   3.664
82518W        W54811  31.050   2.403   0.371
82519W        W54812  38.440   5.388  11.503
82520W        W54813   8.248  34.979   4.674
82521W        W54814   5.364  11.277  12.035
82522W        W54815  22.041  25.969  11.476
82523W        W54816  36.922  14.338  14.286
82524W        W54817  35.557  25.014  11.532
82525W        W54818  14.759  43.927  11.031
82526W        W54819  16.250  20.265  13.323
82527W        W54820  43.270   3.305  14.490
82528W        W54821   8.690  16.774  12.018
82529W        W54822  35.863  33.461   2.238
82530W        W54823  38.541  36.390  12.049
82531W        W54824  17.265  23.179  13.496
82532W        W54825  32.615  34.072   2.333
82533W        W54826  24.072  33.589  14.444
82534W        W54827  34.480   4.252   3.776
82535W        W54828  25.641  16.709  12.856
82536W        W54829  33.941  22.049   3.283
82537W        W54830  26.152   4.277   0.333
82538W        W54831  41.905  15.686   0.944
82539W        W54832  31.076   9.646  10.120
82540W        W54833  43.447  22.199   4.754
82541W        W54834  14.218  42.500   4.191
82542W        W54835   7.874  38.032  10.496
82543W        W54836  29.960  32.039   1.892
82544W        W54837  22.043   6.849  13.985
82545W        W54838  37.967  24.672  11.531
82546W        W54839  33.992  28.009  13.984
82547W        W54840  40.471  30.518   0.889
82548W        W54841  11.227   5.258  14.512
82549W        W54842   7.278  16.164   3.732
82550W        W54843  29.093  44.366   2.801
82551W        W54844  39.386  26.636   0.386
82552W        W54845  41.292   2.923   2.272
82553W        W54846   2.416  34.877  13.336
82554W        W54847   3.948  30.041  13.322
82555W        W54848   0.402  35.397  12.005
82556W        W54849  28.437   7.864  13.485
82557W        W54850   2.324  23.710   4.801
82558W        W54851  42.350   8.335  11.450
82559W        W54852  35.592  28.556  12.849
82560W        W54853  20.142  42.874   0.298
82561W        W54854   6.913  31.576  14.376
82562W        W54855  32.909   8.801  11.590
82563W        W54856  33.876  35.365   4.166
82564W        W54857  43.947  24.191   4.183
82565W        W54858  11.671  27.587  12.897
82566W        W54859  13.148  38.903   4.275
82567W        W54860  17.620   5.314  12.997
82568W        W54861  35.571   4.370   4.832
82569W        W54862   4.901  34.548   4.253
82570W        W54863  21.034  44.336  11.032
82571W        W54864  30.032  26.534  11.905
82572W        W54865  26.689  37.082   3.809
82573W        W54866  41.354  19.713   2.896
82574W        W54867  42.919  12.683   1.354
82575W        W54868   6.239  37.579   1.784
82576W        W54869  28.632   5.788   2.830
82577W        W54870  23.546  30.430   3.210
82578W        W54871  42.882  37.557   4.270
82579W        W54872  43.403  14.277  10.444
82580W        W54873   6.241  21.693  13.318
82581W        W54874   8.403  11.739   0.334
82582W        W54875   6.186  18.181   3.814
82583W        W54876  15.625  32.111   1.304
82584W        W54877   6.905  40.894   3.174
82585W        W54878   3.735  13.743  11.119
82586W        W54879   1.880  36.457   0.357
82587W        W54880  18.141  27.684   1.322
82588W        W54881  21.109  30.557   1.424
82589W        W54882   4.891  36.487   2.739
82590W        W54883  36.996  13.298   0.914
82591W        W54884  13.713  18.715  12.002
82592W        W54885   8.868  35.493  12.875
82593W        W54886  17.139  25.109   2.218
82594W        W54887  39.401   8.781  10.645
82595W        W54888  21.755   4.798  10.410
82596W        W54889  31.422  21.621  10.475
82597W        W54890  33.385  28.991   4.271
82598W        W54891  21.123   7.301   9.990
82599W        W54892  41.304  43.403  14.323
82600W        W54893  20.114   0.929   1.809
82601W        W54894   7.700  27.599  12.427
82602W        W54895  28.652  29.670  13.025
82603W        W54896  26.646  31.483   4.685
82604W        W54897  43.387  19.116   3.865
82605W        W54898  23.512  37.487   4.608
82606W        W54899  39.857  18.291  10.513
82607W        W54900   3.743  29.020  10.910
82608W        W54901  10.751   2.854  13.406
82609W        W54902  16.584   1.736  13.032
82610W        W54903  32.572   1.473   2.796
82611W        W54904  26.538  23.726  11.406
82612W        W54905  20.267   6.254  13.519
82613W        W54906  17.566   6.312   3.859
82614W        W54907  15.166  31.904  11.582
82615W        W54908  29.655   5.833  11.413
82616W        W54909  11.791   6.228  11.506
82617W        W54910  26.131  40.988  12.444
82618W        W54911   2.897  17.144  13.492
82619W        W54912  24.108   8.720  14.368
82620W        W54913  29.453  13.759   3.656
82621W        W54914  34.400   6.912   4.272
82622W        W54915  25.178   9.837  14.863
82623W        W54916  34.992  15.810   3.697
82624W        W54917   0.820   7.190  12.028
82625W        W54918   3.911  12.655   4.187
82626W        W54919  25.501  43.354  12.421
82627W        W54920  18.158  28.549   4.681
82628W        W54921   2.233  36.486  14.373
82629W        W54922  33.531  37.469  10.128
82630W        W54923  32.460  41.996   3.815
82631W        W54924  22.665  43.943  12.985
82632W        W54925  38.373  34.119   0.923
82633W        W54926  21.120  33.000  12.023
82634W        W54927  17.209   2.233  14.003
82635W        W54928   0.442  19.255   3.384
82636W        W54929  27.496  13.755  13.012
82637W        W54930  24.521  25.181  13.467
82638W        W54931  38.073  38.071   3.639
82639W        W54932  26.673  15.258  10.587
82640W        W54933   5.369   6.752   1.707
82641W        W54934  38.473   6.294   3.716
82642W        W54935  15.731  20.103  13.043
82643W        W54936  35.505  16.722   1.758
82644W        W54937  10.827  15.126   2.714
82645W        W54938   9.862  37.482  12.037
82646W        W54939  43.512   7.813   2.240
82647W        W54940  17.663  16.121  10.984
82648W        W54941  37.062   6.251   1.376
82649W        W54942   1.291  29.491  14.302
82650W        W54943  31.055  15.726  13.849
82651W        W54944  20.670  42.363   3.365
82652W        W54945   0.824  12.142  12.947
82653W        W54946  27.197  18.790  14.340
82654W        W54947  38.007  27.594   4.162
82655W        W54948   2.798  19.236  12.987
82656W        W54949  18.570  36.455  11.400
82657W        W54950  21.532  31.923  12.967
82658W        W54951  14.609  21.569   0.875
82659W        W54952  11.822  43.844  12.429
82660W        W54953  24.195  43.506   3.386
82661W        W54954  36.062   8.820  13.985
82662W        W54955   1.398  11.750  14.030
82663W        W54956  41.360   5.762  11.460
82664W        W54957  17.744  39.460   0.412
82665W        W54958  22.505  32.391  12.431
82666W        W54959  20.160  29.654  10.412
82667W        W54960   5.329  32.513   0.913
82668W        W54961  21.556  16.128  12.949
82669W        W54962  23.071  26.518   4.289
82670W        W54963   0.970  42.879  10.510
82671W        W54964  23.513  33.122  12.971
82672W        W54965  15.741  42.517  10.459
82673W        W54966  38.050  42.478   3.814
82674W        W54967  22.666  37.064   0.340
82675W        W54968  10.827  39.450   1.894
82676W        W54969  37.537  33.064   4.132
82677W        W54970  44.409  38.361   1.370
82678W        W54971  15.130  38.897  12.495
82679W        W54972  39.374  39.995  12.382
82680W        W54973  35.980  14.748  13.854
82681W        W54974  13.256   4.716  10.963
82682W        W54975  27.588   1.852   4.709
82683W        W54976   2.378  31.056  13.939
82684W        W54977  36.524  28.655  12.352
82685W        W54978  38.464  43.371  11.495
82686W        W54979  16.697   0.804   4.793
82687W        W54980   0.754  42.007   2.310
82688W        W54981  22.608  12.164  12.030
82689W        W54982  29.519  42.352   0.909
82690W        W54983  19.633  31.445   4.173
82691W        W54984  21.128  25.164  10.141
82692W        W54985  22.160   6.392   1.342
82693W        W54986  37.912   4.325   0.762
82694W        W54987   4.779   0.886   2.352
82695W        W54988  44.879   9.717  11.996
82696W        W54989  25.022  32.548  13.469
82697W        W54990  35.549  37.847  12.079
82698W        W54991  10.713  42.444   2.709
82699W        W54992  40.030  20.683  11.127
82700W        W54993  35.905  17.105   1.708
82701W        W54994  40.938  28.442   0.745
82702W        W54995  15.105  27.064  11.980
82703W        W54996  26.206  17.118  12.838
82704W        W54997  20.590   8.877   2.810
82705W        W54998  33.595  40.328  11.941
82706W        W54999  10.242  35.568   4.323
82707W        W55000   2.253  10.319   2.769
82708W        W55001  26.196  16.073  13.325
82709W        W55002  21.666  43.342  14.975
82710W        W55003  43.898   8.784  10.604
82711W        W55004   4.823  21.163   4.284
82712W        W55005  35.519   5.810  13.957
82713W        W55006  20.050  43.516   1.900
82714W        W55007  38.460  33.009  13.929
82715W        W55008  10.364  40.813  11.084
82716W        W55009   8.774  31.557  12.970
82717W        W55010  43.921  16.663  13.004
82718W        W55011   1.405  35.493  11.438
82719W        W55012  13.624  36.522   2.834
82720W        W55013  32.986   0.756   4.195
82721W        W55014  14.175  21.693  10.446
82722W        W55015   6.362  41.820   2.305
82723W        W55016  23.591  28.127   1.890
82724W        W55017  10.765  17.204   2.278
82725W        W55018  41.843  15.651  14.394
82726W        W55019  39.340   1.259   1.841
82727W        W55020  43.958  33.390  10.948
82728W        W55021  23.628  28.502  13.374
82729W        W55022   8.688  34.475   4.659
82730W        W55023  12.317   3.233   9.600
82731W        W55024   7.784  35.857  13.795
82732W        W55025  20.243  16.685  12.496
82733W        W55026  27.445   0.867   2.866
82734W        W55027   2.959  31.020   0.332
82735W        W55028  13.177   3.757  12.460
82736W        W55029  26.064  24.540   1.423
82737W        W55030   5.775  32.008   0.455
82738W        W55031  26.590   8.688   1.387
82739W        W55032  20.124  22.188   5.298
82740W        W55033   2.440   5.791   2.868
82741W        W55034  19.700  19.203  11.016
82742W        W55035   9.728  15.644  11.597
82743W        W55036  25.144   7.865   0.375
82744W        W55037  28.016  39.863  13.464
82745W        W55038  19.582  43.278  13.060
82746W        W55039   8.356  19.259   3.673
82747W        W55040  24.605  19.587  14.485
82748W        W55041   6.884  35.918   3.739
82749W        W55042  34.962  27.050   4.182
82750W        W55043   8.665  23.998  12.841
82751W        W55044  12.329  11.774  11.425
82752W        W55045  42.962   7.722  12.543
82753W        W55046  28.489  26.609   4.754
82754W        W55047  32.046  29.067   3.375
82755W        W55048  17.230  42.826   3.379
82756W        W55049   6.302  27.562  11.865
82757W        W55050   3.314  20.754  13.957
82758W        W55051  21.106   8.702  10.611
82759W        W55052  14.199  26.191  10.578
82760W        W55053  36.395   1.737  12.963
82761W        W55054  19.560  32.592  13.347
82762W        W55055  31.523  18.084   4.637
82763W        W55056  15.151   7.784  13.051
82764W        W55057  11.836  18.291   3.263
82765W        W55058  26.567   5.419   0.376
82766W        W55059  19.268  28.598   4.771
82767W        W55060  38.564  42.284   1.726
82768W        W55061  42.404  42.527  14.337
82769W        W55062  27.649   2.955  12.388
82770W        W55063  11.794  10.273  12.574
82771W        W55064  13.328  19.587  12.926
82772W        W55065  25.547  28.054  14.959
82773W        W55066  23.035  24.206   2.804
82774W        W55067   8.721  22.011   3.831
82775W        W55068   3.759  43.813  14.802
82776W        W55069  10.710   0.933   4.779
82777W        W55070  27.687  27.514  11.492
82778W        W55071  12.639  40.435  12.086
82779W        W55072  37.454  25.617  12.007
82780W        W55073  39.436  36.915  12.886
82781W        W55074   0.327  25.165  14.897
82782W        W55075  39.384  42.900  11.943
82783W        W55076   1.360  30.639  12.003
82784W        W55077  19.760  19.206  14.467
82785W        W55078  33.612   5.784  11.561
82786W        W55079  16.086  42.985   0.909
82787W        W55080   8.666   4.206   0.426
82788W        W55081  33.609  23.076  11.513
82789W        W55082  30.425   9.753  10.962
82790W        W55083  30.991   7.875   0.425
82791W        W55084  34.573  22.622  13.402
82792W        W55085   0.386  25.619   1.427
82793W        W55086  37.580  15.256   0.310
82794W        W55087  30.612  24.598   2.372
82795W        W55088   2.741  32.119  12.829
82796W        W55089  40.896  15.269   3.201
82797W        W55090  25.665  26.181  10.971
82798W        W55091   6.348  37.925   4.325
82799W        W55092  23.070  25.678  11.457
82800W        W55093  20.715  32.036  12.457
82801W        W55094  40.531  26.560   1.932
82802W        W55095  29.964  29.940  14.480
82803W        W55096   1.249  32.457   2.405
82804W        W55097  39.396  32.136   4.128
82805W        W55098   9.663  27.600  10.983
82806W        W55099  42.400  23.128   4.341
82807W        W55100  29.540  23.508   1.370
82808W        W55101  22.720   0.386   0.871
82809W        W55102   5.770   2.805  13.929
82810W        W55103  34.454  44.946  11.437
82811W        W55104  22.631  31.006   0.744
82812W        W55105  17.740  24.509  14.403
82813W        W55106  24.716  14.162   1.850
82814W        W55107  23.141  11.137   3.300
82815W        W55108  37.476  44.806  14.337
82816W        W55109  34.900  22.162  12.419
82817W        W55110  19.623  44.811  14.512
82818W        W55111  12.668  43.893   0.481
82819W        W55112   0.379  31.622  14.947
82820W        W55113  11.128  29.970  13.015
82821W        W55114  22.564  35.856  14.408
82822W        W55115  27.110   6.290  12.538
82823W        W55116   1.963   4.774   1.225
82824W        W55117  13.643  19.577  12.862
82825W        W55118  23.708  34.076   1.353
82826W        W55119  42.996  18.710  12.840
82827W        W55120  10.347  39.384   3.285
82828W        W55121  32.127  28.594   0.808
82829W        W55122  44.469  26.132   3.669
82830W        W55123  26.173  15.222   0.462
82831W        W55124   5.378  29.985   0.261
82832W        W55125  34.570  35.546   2.836
82833W        W55126  11.353  28.468   3.783
82834W        W55127  32.398  38.363   0.747
82835W        W55128   7.756  15.582   1.824
82836W        W55129  19.580  20.554   1.298
82837W        W55130  31.428   6.828   1.769
82838W        W55131  15.655   8.693   3.853
82839W        W55132   4.820  14.313   3.753
82840W        W55133   1.923  21.055   3.332
82841W        W55134  27.514  37.488   3.711
82842W        W55135  15.116   2.278  12.865
82843W        W55136  21.697  24.144  14.947
82844W        W55137   1.913  16.643  13.905
82845W        W55138  40.824  23.529   4.788
82846W        W55139  19.046  39.983   1.285
82847W        W55140  25.489   2.436  13.488
82848W        W55141  34.495  21.047   0.915
82849W        W55142  16.194  43.315   4.188
82850W        W55143  14.337  15.787  12.035
82851W        W55144  23.579  35.404   3.251
82852W        W55145  28.497  44.940   0.753
82853W        W55146   3.327   5.865  10.444
82854W        W55147  39.841   6.917  14.393
82855W        W55148  23.206  39.066   3.214
82856W        W55149  32.071  18.667  11.556
82857W        W55150  31.054  38.360   1.766
82858W        W55151  32.629   8.196  13.843
82859W        W55152  14.673  34.022   2.897
82860W        W55153  38.536   6.915  14.933
82861W        W55154  13.343  12.288  12.929
82862W        W55155   9.832  23.665   2.226
82863W        W55156  18.079  20.044  14.319
82864W        W55157  34.456  24.187   4.205
82865W        W55158  25.043  41.029   4.734
82866W        W55159  29.154  38.927   2.225
82867W        W55160  15.104  29.138   3.337
82868W        W55161  19.203  21.197   5.687
82869W        W55162  34.417  24.107  10.969
82870W        W55163  21.094  44.452  13.464
82871W        W55164  38.040  29.130   4.217
82872W        W55165  12.630  25.620   3.174
82873W        W55166  14.110  12.283   2.679
82874W        W55167  18.661  18.267  13.928
82875W        W55168   4.231  28.153   1.888
82876W        W55169  21.052  11.228   3.791
82877W        W55170  28.043   6.762  14.401
82878W        W55171  39.956   6.847  13.419
82879W        W55172  15.579  20.682   2.199
82880W        W55173  16.704  11.808   1.381
82881W        W55174  23.714  27.980   4.619
82882W        W55175  39.859   9.230  10.506
82883W        W55176  33.108  12.661  13.966
82884W        W55177  31.057  38.879  11.405
82885W        W55178  37.453  43.765  11.951
82886W        W55179  24.211   7.752   1.894
82887W        W55180  22.063   0.799  11.909
82888W        W55181   1.356  44.427  11.450
82889W        W55182  24.656   4.902   5.283
82890W        W55183   2.433  24.216   4.199
82891W        W55184  23.650  26.970   1.444
82892W        W55185   4.756  29.940  14.371
82893W        W55186  18.288  38.389  10.938
82894W        W55187  19.061   5.318   2.262
82895W        W55188  22.105  40.452  13.534
82896W        W55189   0.363   0.264  14.353
82897W        W55190  14.629  34.414  11.388
82898W        W55191  33.421  35.022   2.790
82899W        W55192   0.489  22.045  13.393
82900W        W55193  37.525   4.297  14.929
82901W        W55194  13.617  37.945   2.198
82902W        W55195  27.013  43.453  13.455
82903W        W55196  41.516  21.624   2.801
82904W        W55197  11.235  14.651  13.464
82905W        W55198  15.222  28.930  13.023
82906W        W55199   2.297  34.408  12.398
82907W        W55200   8.848  18.185   0.456
82908W        W55201   6.426  40.883   3.364
82909W        W55202  28.591  17.166   3.853
82910W        W55203  22.205  16.761   3.694
82911W        W55204   1.772  37.528  14.023
82912W        W55205  36.997  12.171   0.935
82913W        W55206  43.805  26.479  14.806
82914W        W55207  27.580  27.625  10.406
82915W        W55208   7.789   0.475  12.022
82916W        W55209  15.325  41.386   4.152
82917W        W55210  31.054  14.229  11.124
82918W        W55211  29.161   0.317  14.307
82919W        W55212  27.494   7.244  13.930
82920W        W55213  39.372  41.456   2.675
82921W        W55214  44.829  27.994   4.325
82922W        W55215  16.595  15.107   3.692
82923W        W55216  10.283  44.936  10.925
82924W        W55217  16.692  16.804  13.920
82925W        W55218  41.019  38.355  13.402
82926W        W55219  34.954   2.932   0.396
82927W        W55220   5.709  28.565  14.772
82928W        W55221  42.421  26.009   4.620
82929W        W55222  15.125  22.096  11.936
82930W        W55223  21.153  25.676  14.825
82931W        W55224   4.864  12.285   1.851
82932W        W55225  31.508  33.514  11.057
82933W        W55226  39.438   3.801  13.431
82934W        W55227  13.707  32.509  13.817
82935W        W55228  22.708  26.529  10.441
82936W        W55229  30.957  28.022  14.292
82937W        W55230  33.875  18.731   0.342
82938W        W55231  35.551  16.651  11.510
82939W        W55232   5.929  19.732   1.908
82940W        W55233  12.118  20.267  13.891
82941W        W55234  33.399   0.865   5.164
82942W        W55235  14.783   2.348  10.462
82943W        W55236  16.748   2.345  13.049
82944W        W55237   8.393  23.492   4.725
82945W        W55238  30.065  11.642  13.996
82946W        W55239  21.718  23.120  12.410
82947W        W55240  19.255   1.245  12.553
82948W        W55241  25.126  36.988  14.471
82949W        W55242  37.876  36.390   3.686
82950W        W55243  33.569  24.687  12.031
82951W        W55244  27.636  22.246  12.362
82952W        W55245  37.529  33.996  13.942
82953W        W55246  37.522  34.863   5.150
82954W        W55247   4.883   8.694  11.533
82955W        W55248   1.309  18.086   3.661
82956W        W55249  23.063   2.882  14.769
82957W        W55250  37.864  26.181   2.259
82958W        W55251  35.987  16.718  10.620
82959W        W55252  11.224   5.833   0.444
82960W        W55253  42.821  32.135   2.691
82961W        W55254  23.987  22.559  14.365
82962W        W55255  30.013  28.056  13.858
82963W        W55256   5.289  24.653   2.217
82964W        W55257   0.975  13.230   5.179
82965W        W55258  24.501  43.909   2.377
82966W        W55259   4.836  41.502   5.250
82967W        W55260  26.171   7.846   4.632
82968W        W55261  43.981  10.357   1.707
82969W        W55262  16.585  29.456  13.425
82970W        W55263   0.838  43.878  14.504
82971W        W55264   5.858  24.995   2.222
82972W        W55265  16.204  24.014   2.256
82973W        W55266  36.991   8.164   0.346
82974W        W55267  43.401  36.033  12.873
82975W        W55268  40.362  16.593   0.896
82976W        W55269   0.984  23.042   0.293
82977W        W55270  27.170   3.444  10.966
82978W        W55271  24.114  43.289   2.713
82979W        W55272   8.722  36.990   2.272
82980W        W55273   3.261   3.370   4.729
82981W        W55274  32.629  11.175   1.428
82982W        W55275  41.459  13.774   0.276
82983W        W55276   4.286  27.096   4.657
82984W        W55277  41.362  35.450   4.225
82985W        W55278  24.526   9.756   1.715
82986W        W55279  39.976  37.982  11.880
82987W        W55280   8.796  35.880   1.885
82988W        W55281  11.850  18.555  12.064
82989W        W55282  37.358  13.317   3.643
82990W        W55283  34.450  44.302  12.451
82991W        W55284  41.457  26.661  10.440
82992W        W55285   3.286  23.657   1.429
82993W        W55286   9.889  11.707  14.906
82994W        W55287  23.158   2.251  11.107
82995W        W55288  31.070   0.874   2.309
82996W        W55289  23.197  22.621  12.560
82997W        W55290   8.776  13.811  13.876
82998W        W55291   5.923  16.198  11.596
82999W        W55292  22.008  36.447  12.370
83000W        W55293   0.846  35.090  12.856
83001W        W55294  19.215  34.484  14.843
83002W        W55295   2.394  10.697   2.740
83003W        W55296  28.099  31.067  12.354
83004W        W55297  24.089  44.388   2.877
83005W        W55298  22.600   5.289   4.659
83006W        W55299  30.941  32.929  14.960
83007W        W55300  16.757  41.444   3.698
83008W        W55301   1.761  36.580   1.847
83009W        W55302  38.822  10.737  11.107
83010W        W55303   6.838   6.807  13.404
83011W        W55304  25.091  18.729  14.369
83012W        W55305  26.179   3.811   2.758
83013W        W55306  39.030   0.887   5.101
83014W        W55307   9.365  34.461   1.370
83015W        W55308  26.622  39.913  14.849
83016W        W55309   8.322  44.963   3.205
83017W        W55310  24.676  28.489   1.397
83018W        W55311  31.577  32.590   2.215
83019W        W55312  33.106  19.068  12.073
83020W        W55313  33.878   2.728  14.390
83021W        W55314  36.026  18.641   0.434
83022W        W55315  28.490  35.973   2.372
83023W        W55316  11.342  22.717  11.399
83024W        W55317  16.140  12.789   0.916
83025W        W55318  44.352  36.372   0.756
83026W        W55319   3.401  26.494   2.806
83027W        W55320  39.907  42.398   0.283
83028W        W55321  41.974  10.189  12.893
83029W        W55322  25.688  42.868   3.691
83030W        W55323   0.413  34.565   4.294
83031W        W55324  29.999  26.461   1.733
83032W        W55325  28.597  43.504   0.816
83033W        W55326  39.513  14.685   2.369
83034W        W55327  24.056  42.404  12.919
83035W        W55328  11.264  29.635   3.237
83036W        W55329  21.135  20.659  12.910
83037W        W55330   2.468  18.781   2.301
83038W        W55331  12.808   2.413   2.862
83039W        W55332   9.713  12.703  13.365
83040W        W55333  34.072  31.066   2.884
83041W        W55334  23.103  26.152   3.770
83042W        W55335  11.750  31.016  13.541
83043W        W55336  29.994   8.258  11.457
83044W        W55337  20.114  39.472  11.507
83045W        W55338  11.747  36.512   1.256
83046W        W55339   5.804  19.238  12.367
83047W        W55340  39.490   8.724   3.733
83048W        W55341  26.679  39.979   0.765
83049W        W55342  28.492  37.939   2.230
83050W        W55343  21.710   9.716  14.303
83051W        W55344  40.052  33.081  13.484
83052W        W55345  10.830   2.245   1.429
83053W        W55346  36.016  29.083  12.914
83054W        W55347  42.477  29.111   0.904
83055W        W55348  12.845  31.028  14.425
83056W        W55349   9.266  30.415   1.364
83057W        W55350  41.007  26.126  12.510
83058W        W55351   9.752   5.219   1.333
83059W        W55352  40.503  29.552   0.772
83060W        W55353  41.307  19.617  10.523
83061W        W55354  41.885  42.863   5.680
83062W        W55355  14.646  33.550   0.754
83063W        W55356  23.144  13.210   3.681
83064W        W55357  17.072  19.171   0.941
83065W        W55358  24.221  42.031  10.504
83066W        W55359   9.887   4.339   3.300
83067W        W55360  44.466  36.474  13.805
83068W        W55361  17.666  31.601  11.867
83069W        W55362   2.291   5.873  10.426
83070W        W55363  15.197  19.612   4.204
83071W        W55364   5.255   0.283  12.946
83072W        W55365  27.505  33.433   4.336
83073W        W55366  40.942  13.121   3.719
83074W        W55367  44.912  37.400   2.785
83075W        W55368  17.135   2.306  11.547
83076W        W55369  14.667   0.893   0.415
83077W        W55370  16.126  11.812  10.995
83078W        W55371  28.116   5.925  12.447
83079W        W55372   1.936  15.743  11.518
83080W        W55373  31.093  42.415  14.405
83081W        W55374   3.884  19.653   1.266
83082W        W55375  21.063  33.505   2.829
83083W        W55376   0.375  17.248   2.279
83084W        W55377  13.305  11.779   9.929
83085W        W55378   9.168  17.204   3.359
83086W        W55379  29.980  10.868  10.616
83087W        W55380  28.050  19.572   0.326
83088W        W55381  39.342  38.520  13.993
83089W        W55382  41.312  38.561  13.820
83090W        W55383  26.157  41.961   0.778
83091W        W55384  17.230  23.542   4.679
83092W        W55385  17.753  25.097  11.883
83093W        W55386  14.194  32.442   1.729
83094W        W55387  24.646  25.597  14.432
83095W        W55388   5.247   2.370   2.711
83096W        W55389  30.013   5.418   2.740
83097W        W55390  13.678  41.013  13.423
83098W        W55391   2.901  34.962   4.228
83099W        W55392  34.034   6.375   2.330
83100W        W55393  20.173  36.351   0.338
83101W        W55394  20.188   7.257   3.860
83102W        W55395   4.226  31.408   0.895
83103W        W55396  16.586  13.845  11.900
83104W        W55397  38.339  28.563   4.610
83105W        W55398   4.355  36.993  10.558
83106W        W55399   6.901   7.285  11.518
83107W        W55400  20.623   4.934  12.575
83108W        W55401  40.471   2.944  12.019
83109W        W55402   8.882   4.929   4.218
83110W        W55403  13.655  12.842  12.974
83111W        W55404   7.738  14.649  11.518
83112W        W55405  27.475  22.197   2.854
83113W        W55406   1.818  33.414   1.878
83114W        W55407  32.415  16.192   1.836
83115W        W55408  13.821  28.525   0.932
83116W        W55409  28.163   4.276   9.983
83117W        W55410  29.063  23.125  12.578
83118W        W55411  31.424  32.899  11.071
83119W        W55412  36.039  40.036   0.728
83120W        W55413  32.965  32.061   4.684
83121W        W55414  23.098  43.376  13.904
83122W        W55415  31.087  34.441  11.073
83123W        W55416  17.693  41.878   0.347
83124W        W55417  14.177  32.013  12.901
83125W        W55418  24.154  21.104  10.979
83126W        W55419  23.616  29.640   0.872
83127W        W55420   2.851   1.373  14.970
83128W        W55421  37.516  18.696  13.383
83129W        W55422  18.144   1.249   0.257
83130W        W55423  41.885  32.572  12.535
83131W        W55424  30.071  30.914  12.987
83132W        W55425  14.237  10.154   2.311
83133W        W55426  16.210  33.421   1.282
83134W        W55427  30.972   7.795  10.623
83135W        W55428   0.396  35.591   0.886
83136W        W55429  24.709  36.517   3.805
83137W        W55430  13.330  40.987   4.620
83138W        W55431  20.538   9.157   3.761
83139W        W55432  33.889   9.742   4.156
83140W        W55433  13.301  31.992   5.271
83141W        W55434   5.737  21.130  13.367
83142W        W55435  28.934  40.324  14.822
83143W        W55436  28.023  40.886   1.792
83144W        W55437   1.408  19.672  14.480
83145W        W55438  26.691  14.788  10.991
83146W        W55439  41.321  18.133  14.979
83147W        W55440  16.728  29.120  11.916
83148W        W55441  23.673   1.759  14.769
83149W        W55442  31.471  22.113  10.971
83150W        W55443   9.652  23.022  12.842
83151W        W55444  42.900  42.407  14.884
83152W        W55445  22.096  44.469  12.871
83153W        W55446  20.566  38.878  14.486
83154W        W55447  19.718  29.556  11.400
83155W        W55448   7.880  32.926   2.387
83156W        W55449  35.045   5.822   1.364
83157W        W55450  32.886  29.063   1.443
83158W        W55451  18.259  16.708  14.781
83159W        W55452   2.338  25.698   0.481
83160W        W55453   5.734  22.737  10.617
83161W        W55454  28.002  18.598   2.400
83162W        W55455  11.155  17.732   2.854
83163W        W55456   1.769  27.043  10.599
83164W        W55457  31.014  15.274   2.273
83165W        W55458   7.192  27.069   3.778
83166W        W55459  29.558   1.790  13.795
83167W        W55460  38.846  29.519   4.809
83168W        W55461   2.774  20.061  10.632
83169W        W55462   3.438  41.446  14.411
83170W        W55463  44.998   7.241  11.402
83171W        W55464  12.205  33.047  12.972
83172W        W55465  36.460   6.293   0.472
83173W        W55466  41.025  19.646  11.016
83174W        W55467  34.414  40.417  11.895
83175W        W55468  10.334  27.136  13.044
83176W        W55469  36.389  27.977   3.712
83177W        W55470  33.413  19.185   0.321
83178W        W55471  12.163   8.768  11.467
83179W        W55472  37.965  39.058  14.355
83180W        W55473   0.470  44.780  11.059
83181W        W55474   9.652  18.069  11.971
83182W        W55475  10.747  14.825   2.244
83183W        W55476  22.208  29.100   0.363
83184W        W55477  15.158  23.132   0.777
83185W        W55478  16.696  10.328  14.407
83186W        W55479  29.976  34.952   0.255
83187W        W55480  32.464  35.467   4.189
83188W        W55481  17.263  42.422  13.974
83189W        W55482   1.930   3.362  10.462
83190W        W55483  34.461  12.838  11.890
83191W        W55484  11.356  19.715   2.757
83192W        W55485   9.190  44.431   4.816
83193W        W55486   2.466  30.109  11.589
83194W        W55487  42.430  14.112   2.236
83195W        W55488  12.830   1.355   2.202
83196W        W55489  11.651   5.774   0.319
83197W        W55490  44.484  39.882  11.988
83198W        W55491   0.867   3.845  14.431
83199W        W55492   3.231   0.395  14.891
83200W        W55493  24.644   9.178  10.556
83201W        W55494   8.711  20.216  13.012
83202W        W55495  16.259  39.049  12.571
83203W        W55496  24.998   6.275  13.399
83204W        W55497  32.604  35.586   4.817
83205W        W55498  17.278  43.926   0.855
83206W        W55499  38.401   4.848   4.788
83207W        W55500  12.210  33.597   0.917
83208W        W55501  21.741  43.790  13.860
83209W        W55502  15.752  32.440  11.423
83210W        W55503  37.342  25.521   3.236
83211W        W55504  16.135   3.844   1.261
83212W        W55505  43.452  22.095  13.428
83213W        W55506  12.628  30.083   3.222
83214W        W55507  28.541  12.769   4.804
83215W        W55508  38.862  22.600   1.763
83216W        W55509   8.224  40.021  10.428
83217W        W55510  23.121  39.949   4.734
83218W        W55511  13.286   1.401  13.902
83219W        W55512   9.654  39.816   3.732
83220W        W55513  42.033  14.318  12.543
83221W        W55514  28.980   5.354  12.481
83222W        W55515  20.167   5.846   4.677
83223W        W55516   0.425  42.029  11.478
83224W        W55517  15.763  41.514   0.422
83225W        W55518  25.470  43.421   4.288
83226W        W55519   8.373   8.666   4.789
83227W        W55520  38.543   1.333  14.512
83228W        W55521  22.097  25.087   4.737
83229W        W55522   0.359  23.587   3.247
83230W        W55523   9.348  34.018   1.270
83231W        W55524  31.575  27.558   4.313
83232W        W55525   5.251  33.016   0.937
83233W        W55526  12.831  32.465   2.763
83234W        W55527  36.376  35.867   1.276
83235W        W55528   4.731  24.511   0.415
83236W        W55529   3.284  24.220   5.099
83237W        W55530  18.744  14.179   1.421
83238W        W55531  34.538   5.389  12.870
83239W        W55532  25.628  39.343   2.241
83240W        W55533  38.383   3.458  14.407
83241W        W55534  24.145  10.712   0.357
83242W        W55535  42.367  30.929  14.918
83243W        W55536  28.568  27.165  12.038
83244W        W55537  32.981  14.298  10.931
83245W        W55538  27.487   1.915  13.405
83246W        W55539  44.846  32.122   4.219
83247W        W55540  34.999   7.883   1.909
83248W        W55541  28.649  13.639   3.193
83249W        W55542  43.925  15.618  13.324
83250W        W55543  23.094  43.469  13.413
83251W        W55544  37.052  24.529   2.842
83252W        W55545  39.923  22.087   0.310
83253W        W55546  32.938  43.932  12.485
83254W        W55547   2.748  23.142  12.065
83255W        W55548  28.464  26.131   2.763
83256W        W55549  12.216  33.022  11.429
83257W        W55550  14.254  15.097   2.399
83258W        W55551   5.840  42.945   1.327
83259W        W55552  39.405   4.792   3.662
83260W        W55553   7.840  26.959   4.157
83261W        W55554  42.985  35.093   0.908
83262W        W55555  30.066  32.577  10.888
83263W        W55556  29.992  41.869  11.967
83264W        W55557  16.594  37.903   1.880
83265W        W55558   1.889  12.629   4.800
83266W        W55559  16.233  16.598   2.694
83267W        W55560  29.161   1.309   2.672
83268W        W55561   4.421  36.409  14.366
83269W        W55562   4.420  27.530   1.710
83270W        W55563  34.550  30.006  14.932
83271W        W55564  35.416  33.070  11.997
83272W        W55565  40.443  29.151  11.557
83273W        W55566   2.246  23.540  12.940
83274W        W55567  25.669  43.019   3.271
83275W        W55568   7.357  43.870   4.206
83276W        W55569  40.344   1.921   4.823
83277W        W55570  24.487  14.264  13.798
83278W        W55571  30.998   5.849  13.063
83279W        W55572  32.972   5.205  13.922
83280W        W55573  44.845  37.064  14.308
83281W        W55574  18.775  29.636   5.202
83282W        W55575  13.314  43.392  13.366
83283W        W55576  14.108  43.007   4.148
83284W        W55577  39.040  40.527   2.285
83285W        W55578  21.229   5.195   0.796
83286W        W55579   0.421  28.435  14.927
83287W        W55580  12.826  40.827   2.845
83288W        W55581   4.887   0.406  11.980
83289W        W55582  12.746   9.749  12.075
83290W        W55583   7.370  31.408  14.766
83291W        W55584   6.823  30.648  14.764
83292W        W55585  33.595   6.289   2.678
83293W        W55586  29.441  40.352   2.829
83294W        W55587   3.290  26.082   0.401
83295W        W55588  25.084  42.295  10.511
83296W        W55589  15.169  16.783  13.527
83297W        W55590  30.630  32.025   9.975
83298W        W55591  19.607  13.158   1.242
83299W        W55592  29.608   3.818   3.806
83300W        W55593  34.888  42.341  11.859
83301W        W55594  25.177  36.438  14.866
83302W        W55595  32.932  33.381   0.436
83303W        W55596  25.519  37.480   4.642
83304W        W55597   4.826   8.773   0.391
83305W        W55598  44.999  24.223   0.850
83306W        W55599  42.409  23.496   1.862
83307W        W55600  15.758  36.490  11.603
83308W        W55601  43.501  39.967   4.269
83309W        W55602  14.789  20.590  12.069
83310W        W55603  14.636  20.608  11.466
83311W        W55604  16.702   2.865   1.315
83312W        W55605  23.114   3.257   3.810
83313W        W55606  31.930  37.402   4.665
83314W        W55607  25.057   7.733   5.260
83315W        W55608   7.755  39.447   3.780
83316W        W55609  16.611  37.521   4.817
83317W        W55610  11.173  18.701   0.424
83318W        W55611   3.819  44.878   1.399
83319W        W55612  44.311  11.164  10.432
83320W        W55613  26.541  41.958   1.217
83321W        W55614   6.718   2.781  14.374
83322W        W55615  27.137  38.962   0.288
83323W        W55616  34.025  41.872   4.624
83324W        W55617   9.247  12.211   1.219
83325W        W55618  30.031  32.582  14.946
83326W        W55619  40.360  39.893  10.077
83327W        W55620  31.586  33.114  12.487
83328W        W55621  22.109  17.244  12.917
83329W        W55622   2.246  34.471   2.858
83330W        W55623  23.157   1.407   2.759
83331W        W55624   2.260  42.298   1.415
83332W        W55625  32.632  23.567   3.782
83333W        W55626  27.034  33.521   0.832
83334W        W55627  44.969  14.107  11.948
83335W        W55628   3.403  11.349  14.383
83336W        W55629  17.708  44.852  13.489
83337W        W55630  35.011  31.613  13.367
83338W        W55631   9.247  37.079   3.249
83339W        W55632  19.590   8.218  11.537
83340W        W55633  40.366  21.646  11.106
83341W        W55634  23.163  12.793  10.923
83342W        W55635  26.614  36.414  13.311
83343W        W55636  32.088  10.814  13.468
83344W        W55637   0.961  19.109  13.496
83345W        W55638   8.662  11.768  10.490
83346W        W55639  39.395   6.903   1.440
83347W        W55640  12.249  36.863  14.514
83348W        W55641   2.798  34.564  11.955
83349W        W55642  33.957  32.553  12.464
83350W        W55643   8.236  30.011   0.821
83351W        W55644  18.619  35.900   2.348
83352W        W55645  10.281   0.890   3.660
83353W        W55646   8.330   9.827   1.249
83354W        W55647  37.351  17.797   1.808
83355W        W55648  31.514  35.490  13.437
83356W        W55649  44.784   6.225  11.564
83357W        W55650  19.111   8.717   2.898
83358W        W55651  19.771  12.682   3.748
83359W        W55652  13.659  29.627   4.276
83360W        W55653  26.610  30.618  13.854
83361W        W55654  33.500  43.943   3.181
83362W        W55655  32.585  29.457   2.763
83363W        W55656  33.597  37.506  14.451
83364W        W55657  41.517   6.248   4.747
83365W        W55658  18.227   7.194  13.008
83366W        W55659  39.536  35.512   2.408
83367W        W55660  16.688  37.488   1.795
83368W        W55661  36.350  21.056  13.424
83369W        W55662   8.367  30.966  12.499
83370W        W55663  41.927  18.666   2.279
83371W        W55664   7.863  11.831   3.831
83372W        W55665  40.327  34.004   3.688
83373W        W55666   8.383   2.355  13.382
83374W        W55667   5.206  16.203   4.825
83375W        W55668  11.230  41.413  14.848
83376W        W55669  12.156  26.493   4.798
83377W        W55670  24.603  39.361   2.280
83378W        W55671  32.906   9.359  13.014
83379W        W55672  11.296  23.038   0.481
83380W        W55673  20.527  12.747   1.874
83381W        W55674  11.245  33.126  11.399
83382W        W55675  14.146  24.147   1.329
83383W        W55676   0.816  34.064   3.777
83384W        W55677  31.482  10.672   3.383
83385W        W55678   4.849  22.598  10.893
83386W        W55679  22.196  44.779  14.314
83387W        W55680  11.184  42.843  12.472
83388W        W55681   6.209  36.894  13.839
83389W        W55682  11.690  37.838  14.329
83390W        W55683  29.626  25.036   3.255
83391W        W55684  12.130  23.188   0.249
83392W        W55685  22.689  31.558  13.915
83393W        W55686  19.615  28.675  12.498
83394W        W55687  40.831  31.121   2.781
83395W        W55688  41.444   3.439   0.817
83396W        W55689  27.571  42.462   2.194
83397W        W55690  34.380  29.108  10.968
83398W        W55691   7.862  38.047   2.794
83399W        W55692  38.838  15.303   2.180
83400W        W55693  38.908   7.721   2.197
83401W        W55694  25.190   5.313  13.974
83402W        W55695  33.915  42.027   3.868
83403W        W55696  32.003  36.485  13.867
83404W        W55697  42.944   0.867   4.320
83405W        W55698   6.362   8.810  14.432
83406W        W55699   5.424   0.775  10.631
83407W        W55700   2.435  28.100   4.285
83408W        W55701  24.156  36.008   0.285
83409W        W55702  30.597  35.004  11.490
83410W        W55703   5.693  28.160   3.158
83411W        W55704   1.430   0.283  11.560
83412W        W55705  13.657  30.457   2.668
83413W        W55706  20.528  13.181   1.237
83414W        W55707  16.183  14.211  11.960
83415W        W55708  28.615  32.886  14.489
83416W        W55709  31.597  28.017  14.760
83417W        W55710  27.039  14.323   3.731
83418W        W55711  17.244   7.693   5.142
83419W        W55712   8.848  18.593  10.570
83420W        W55713  13.670  43.936  11.059
83421W        W55714  35.457  25.048  14.420
83422W        W55715  24.203  20.033   2.777
83423W        W55716   5.834  25.149  14.006
83424W        W55717  16.629   4.735  14.967
83425W        W55718   4.717  44.881  11.003
83426W        W55719   2.241  28.653  11.593
83427W        W55720  25.514  41.294  14.331
83428W        W55721  14.700  37.549  14.432
83429W        W55722  40.812  16.728  12.427
83430W        W55723   5.731   6.689   4.153
83431W        W55724  31.062  36.468   4.735
83432W        W55725  23.626  10.278   0.326
83433W        W55726  40.351   0.375  14.978
83434W        W55727  42.872   9.650  10.478
83435W        W55728  18.758  38.925   3.752
83436W        W55729  31.416  24.629   3.749
83437W        W55730  17.566  22.624  10.438
83438W        W55731  17.175  33.453   1.223
83439W        W55732  24.549   7.686  11.493
83440W        W55733   6.853  24.215   1.420
83441W        W55734   1.952  25.518   1.351
83442W        W55735   5.795   2.834   0.294
83443W        W55736  18.269  22.091   3.805
83444W        W55737  22.627  43.336  14.501
83445W        W55738  19.118  14.785  14.941
83446W        W55739  31.120  38.057  12.945
83447W        W55740   5.929  18.785   4.670
83448W        W55741  37.341  17.708   3.693
83449W        W55742  30.161  28.180  12.517
83450W        W55743  15.760  27.500   4.157
83451W        W55744   3.875  39.952   1.831
83452W        W55745  16.719   6.239   4.827
83453W        W55746   6.183  44.926  12.076
83454W        W55747  22.618  36.493   3.828
83455W        W55748  10.343  12.195   0.422
83456W        W55749   9.664  36.421  13.813
83457W        W55750  39.323   7.268   3.837
83458W        W55751  18.196  44.936  13.479
83459W        W55752   5.313  18.297  14.498
83460W        W55753  43.951  23.650  13.911
83461W        W55754  34.986  13.833  12.501
83462W        W55755   7.305  31.966  13.916
83463W        W55756  15.734  11.274  14.291
83464W        W55757  12.785   7.208  12.551
83465W        W55758  33.538   4.752   0.444
83466W        W55759  22.635   6.423   4.119
83467W        W55760  30.457  10.808  10.434
83468W        W55761  15.770  13.158  12.463
83469W        W55762   2.389  26.960   3.380
83470W        W55763  22.157  28.990  11.967
83471W        W55764   9.747  10.262   0.457
83472W        W55765  13.166  27.016  13.821
83473W        W55766  16.181  25.645   4.200
83474W        W55767  11.135   5.915   2.835
83475W        W55768  15.779  27.120  11.938
83476W        W55769   5.340  36.030   1.248
83477W        W55770   4.781   4.756   0.864
83478W        W55771  11.292  20.228  13.056
83479W        W55772  32.551  12.197   3.235
83480W        W55773  32.431  38.517  14.311
83481W        W55774  14.138  43.877  14.419
83482W        W55775  22.091  14.611   3.738
83483W        W55776  34.104  31.462   3.178
83484W        W55777  28.435   5.910   4.786
83485W        W55778  28.066  31.981  14.903
83486W        W55779  24.579  30.950  14.402
83487W        W55780   3.283  23.240  13.519
83488W        W55781   7.733  40.947  14.945
83489W        W55782  25.153  42.437   0.922
83490W        W55783  12.216  41.853  13.827
83491W        W55784  35.930  38.415  11.415
83492W        W55785  41.323  37.912  10.893
83493W        W55786  37.426  12.198  14.957
83494W        W55787   3.877  43.006  10.625
83495W        W55788  42.968  11.371   1.853
83496W        W55789  42.329  42.338   0.483
83497W        W55790   4.445  24.211  11.888
83498W        W55791  31.433   1.875  12.518
83499W        W55792  17.079  14.628   9.931
83500W        W55793  15.244  41.489  12.513
83501W        W55794  34.106   9.786  12.529
83502W        W55795  23.154  24.713   4.201
83503W        W55796   3.805  28.562  11.612
83504W        W55797  36.408  41.964   4.726
83505W        W55798  43.442  41.965   0.797
83506W        W55799  19.105  14.795   3.351
83507W        W55800  37.008  20.746   3.755
83508W        W55801  10.301  10.212   4.219
83509W        W55802  43.945  38.874   2.773
83510W        W55803  29.128   4.210  12.549
83511W        W55804   0.440  29.048  14.285
83512W        W55805  40.804  38.065   4.187
83513W        W55806   1.303  38.504   4.734
83514W        W55807  23.635  40.856  10.591
83515W        W55808  13.618  32.922  14.332
83516W        W55809  26.505   8.315  14.500
83517W        W55810  36.499  28.002  11.069
83518W        W55811   4.329  13.327   4.186
83519W        W55812  44.977   5.220   0.764
83520W        W55813  17.161  36.039  13.997
83521W        W55814  21.633  32.522   2.863
83522W        W55815  13.716  27.588  10.433
83523W        W55816  17.712  37.448  13.045
83524W        W55817  29.511  23.027   3.375
83525W        W55818  44.876  10.779   2.210
83526W        W55819  29.072  12.768   1.445
83527W        W55820  12.215  37.896   4.687
83528W        W55821  16.787  24.645   0.454
83529W        W55822  35.407  41.299   3.721
83530W        W55823  20.111   1.452   3.747
83531W        W55824  19.196  42.390  12.825
83532W        W55825  38.385   6.399   2.732
83533W        W55826   6.761  24.126  14.918
83534W        W55827  19.053  16.810  13.946
83535W        W55828  30.614  42.997  11.447
83536W        W55829   4.266  41.318   3.322
83537W        W55830  14.222  44.971  12.955
83538W        W55831  35.010  40.379  12.524
83539W        W55832  26.601  15.221   1.697
83540W        W55833  15.258  11.794  13.999
83541W        W55834  31.519  29.050  11.381
83542W        W55835  38.064  39.836   1.309
83543W        W55836  21.166  42.414  10.459
83544W        W55837  28.483   0.377   3.698
83545W        W55838   1.839  20.049   4.121
83546W        W55839  10.226   2.751   1.933
83547W        W55840   3.727  38.989   1.263
83548W        W55841   4.410  21.172  14.432
83549W        W55842   0.349  28.463   2.729
83550W        W55843  10.186  18.167   0.251
83551W        W55844  15.330   8.696   2.336
83552W        W55845  36.977  24.686   3.865
83553W        W55846  34.962  23.013  13.861
83554W        W55847   8.183  15.673  10.461
83555W        W55848  34.414   5.399   1.269
83556W        W55849   7.667  17.262  14.872
83557W        W55850  26.066   4.322  13.048
83558W        W55851   4.797   0.351   4.288
83559W        W55852  24.156  11.747  10.984
83560W        W55853  41.311  30.025   4.226
83561W        W55854  36.579   1.388   4.119
83562W        W55855   4.265  32.951  13.842
83563W        W55856  39.002   3.371   1.808
83564W        W55857  12.827   5.876   2.337
83565W        W55858  20.227   2.387  11.055
83566W        W55859  16.091  25.077   1.222
83567W        W55860   1.257  23.710  14.363
83568W        W55861  29.458  44.312   3.802
83569W        W55862  23.728  35.002   1.856
83570W        W55863  20.148  39.825   3.166
83571W        W55864  44.774  14.288   4.312
83572W        W55865   8.805  26.956   0.757
83573W        W55866  24.636  29.655  12.543
83574W        W55867  36.064  18.721   1.701
83575W        W55868   5.832  29.953  12.364
83576W        W55869  21.665  23.150   4.210
83577W        W55870  18.170   0.769  10.447
83578W        W55871  13.273  25.209  12.859
83579W        W55872  32.008  29.660   3.822
83580W        W55873  34.095   7.291   3.153
83581W        W55874   8.213   5.289  10.517
83582W        W55875   5.928  26.598   1.900
83583W        W55876  26.981  38.012  10.609
83584W        W55877  30.160  40.360  11.008
83585W        W55878   4.311  15.738   4.313
83586W        W55879   7.815  31.455  14.027
83587W        W55880  44.281   9.316  10.464
83588W        W55881   4.385   7.814  11.874
83589W        W55882   6.250  21.057   4.790
83590W        W55883  43.338  20.051  11.426
83591W        W55884  16.739   4.285   0.278
83592W        W55885  12.694  18.283   3.356
83593W        W55886   5.700  22.592   3.150
83594W        W55887  25.029  24.153   0.834
83595W        W55888  31.494   2.281   2.675
83596W        W55889   7.873  25.101  13.449
83597W        W55890  39.521   5.744   2.802
83598W        W55891  33.413  37.418   1.702
83599W        W55892  11.748   3.246   3.289
83600W        W55893   2.888  33.124  11.940
83601W        W55894  31.131  38.386  13.947
83602W        W55895  11.267   4.345  11.386
83603W        W55896  35.375  33.938  10.639
83604W        W55897  13.783   6.363   4.279
83605W        W55898  28.564  14.747  12.085
83606W        W55899  38.032  43.404  12.880
83607W        W55900  11.247  39.886  11.591
83608W        W55901  34.890  14.328  10.972
83609W        W55902  35.035   8.250   2.338
83610W        W55903  32.577  36.945   4.648
83611W        W55904  44.978  25.990  13.385
83612W        W55905  31.946  31.064  11.512
83613W        W55906   9.717  23.519  11.077
83614W        W55907  11.244   3.730  14.474
83615W        W55908   7.875  25.174  12.392
83616W        W55909   6.301   8.240  11.911
83617W        W55910  21.580  13.283  11.903
83618W        W55911  11.355   0.840  10.440
83619W        W55912  16.134  34.901  13.064
83620W        W55913   2.291   6.308   4.140
83621W        W55914  22.696   3.916  14.999
83622W        W55915   0.467  15.241   3.723
83623W        W55916  19.608  22.647  11.884
83624W        W55917  30.626  19.186   0.854
83625W        W55918  10.242  10.227  14.827
83626W        W55919  38.360  11.259  14.512
83627W        W55920  44.990   2.407  14.506
83628W        W55921  19.070  36.012  12.944
83629W        W55922   8.876  10.313   3.157
83630W        W55923  35.011  18.052   3.809
83631W        W55924  27.958  29.138  14.026
83632W        W55925  13.287  40.931   2.229
83633W        W55926  16.221  28.932   1.854
83634W        W55927  38.952  28.680  10.427
83635W        W55928  44.475  21.526  13.432
83636W        W55929   5.216  38.875  14.768
83637W        W55930  25.127  23.550  13.873
83638W        W55931  24.157   5.199  13.997
83639W        W55932  42.944  14.321  11.400
83640W        W55933  41.395   8.232  11.425
83641W        W55934  21.603  18.768   2.251
83642W        W55935  17.298  13.107  13.334
83643W        W55936  30.995  31.456   1.905
83644W        W55937  43.873  21.732  10.476
83645W        W55938  38.953   5.736  13.911
83646W        W55939  24.222   3.720  14.952
83647W        W55940   8.767  19.622   0.432
83648W        W55941  30.959  18.145   0.286
83649W        W55942   9.734  42.987   3.153
83650W        W55943  26.555  23.511  13.994
83651W        W55944   8.826  28.123  12.345
83652W        W55945  40.394  24.095   2.271
83653W        W55946  28.674  34.056   2.365
83654W        W55947  41.494  43.945   0.759
83655W        W55948  37.437   5.782   4.755
83656W        W55949  43.823  23.629  14.383
83657W        W55950  15.707  10.320   1.788
83658W        W55951   3.928  12.807   3.372
83659W        W55952  16.291  18.769  12.426
83660W        W55953   3.913  36.049  10.122
83661W        W55954  17.781  17.137   3.310
83662W        W55955  26.026  34.120   0.912
83663W        W55956  31.044  14.668   1.772
83664W        W55957  30.588  22.745   5.125
83665W        W55958  34.454  28.166   1.858
83666W        W55959   9.782  25.520   1.759
83667W        W55960  10.211  42.355  14.906
83668W        W55961  11.761   9.231   0.470
83669W        W55962  17.738   8.843  10.961
83670W        W55963   3.725  34.897   1.429
83671W        W55964  33.979   7.835  13.867
83672W        W55965   5.388  42.440  11.521
83673W        W55966  11.646  42.991  10.505
83674W        W55967  21.071  25.995  12.064
83675W        W55968  10.188  34.893  14.509
83676W        W55969  17.262  36.902  14.290
83677W        W55970   7.329  36.070   9.601
83678W        W55971  17.175  27.156  14.296
83679W        W55972   1.790  38.417   1.323
83680W        W55973   5.275  41.455   4.331
83681W        W55974  25.595  27.127   2.300
83682W        W55975  24.163   2.327  12.934
83683W        W55976  25.546  20.709   1.331
83684W        W55977  33.089  24.124   1.236
83685W        W55978  30.931  36.999   3.792
83686W        W55979  13.713  25.517   4.738
83687W        W55980  35.079  17.248   2.295
83688W        W55981  28.580  32.437   1.438
83689W        W55982   9.819  10.635  10.524
83690W        W55983  16.105  37.857  11.988
83691W        W55984  44.808  29.659  11.472
83692W        W55985  30.145  22.715   5.119
83693W        W55986   3.762  21.221   0.794
83694W        W55987  30.992   6.851   2.351
83695W        W55988  12.808  17.238  14.887
83696W        W55989   4.719  38.467  11.376
83697W        W55990  22.559  41.852   4.140
83698W        W55991  21.103  24.144  14.759
83699W        W55992  38.862  27.166  12.000
83700W        W55993   5.252  42.288   2.820
83701W        W55994  33.904  13.251  11.426
83702W        W55995  26.183  28.164   3.829
83703W        W55996  26.194  42.971  12.068
83704W        W55997  32.570  26.014   4.836
83705W        W55998  20.111  27.968  11.545
83706W        W55999   7.815  32.458   2.869
83707W        W56000  31.953  28.531  11.114
83708W        W56001  27.626   5.366   0.274
83709W        W56002  43.854  29.459  12.404
83710W        W56003  44.390  41.848   1.325
83711W        W56004   9.758  44.480  14.308
83712W        W56005   1.302  41.851   4.199
83713W        W56006   4.804   9.667  13.349
83714W        W56007  18.279  30.535   4.788
83715W        W56008  41.841  32.018  11.479
83716W        W56009  28.648   8.819  10.469
83717W        W56010   9.389  14.663  10.623
83718W        W56011  32.960   6.822   2.188
83719W        W56012  11.138  44.390   3.300
83720W        W56013  28.057   4.306   3.370
83721W        W56014   8.388  38.057  10.581
83722W        W56015  23.510  28.104   3.189
83723W        W56016   8.192  21.625   4.733
83724W        W56017  26.139  36.531  11.113
83725W        W56018   9.853  31.447  11.603
83726W        W56019  26.702   1.330   0.307
83727W        W56020  14.169  43.399   3.771
83728W        W56021  36.556   0.766  14.918
83729W        W56022  25.487   7.397  13.855
83730W        W56023  16.724  25.981  11.916
83731W        W56024  19.545  36.863  13.386
83732W        W56025  39.426  24.707  11.612
83733W        W56026  14.200  33.997  12.488
83734W        W56027  40.988  36.956   0.269
83735W        W56028  17.111  42.831   0.253
83736W        W56029  41.436   9.258   0.390
83737W        W56030  11.863  31.115  14.303
83738W        W56031  13.214   7.911  13.983
83739W        W56032  37.064  29.596   3.228
83740W        W56033  34.401   6.836  13.916
83741W        W56034  32.037  10.198   1.935
83742W        W56035  41.030   7.261   0.840
83743W        W56036  17.671  16.757   1.373
83744W        W56037   6.725  35.561   0.755
83745W        W56038  37.959   1.458  14.383
83746W        W56039  22.008  15.689  12.094
83747W        W56040  40.426   1.274   9.956
83748W        W56041  35.587  21.626   1.266
83749W        W56042   2.823  35.031  14.761
83750W        W56043  23.735  39.524   1.435
83751W        W56044  26.572  16.671  11.600
83752W        W56045  39.845  15.650   0.809
83753W        W56046  29.663   2.424  14.424
83754W        W56047  41.332  28.461  14.308
83755W        W56048  28.613  43.808   1.272
83756W        W56049   2.921  39.903  11.939
83757W        W56050  21.584  24.088   2.738
83758W        W56051  18.754  30.597   0.834
83759W        W56052  28.006  42.324   3.344
83760W        W56053  12.173  17.780   2.341
83761W        W56054  43.295   9.378  13.340
83762W        W56055  23.537  17.773   1.800
83763W        W56056  37.569  10.355  13.488
83764W        W56057  16.757  10.322  12.517
83765W        W56058  35.951  26.159  13.808
83766W        W56059  29.007  34.067   3.361
83767W        W56060  44.333  27.470   4.825
83768W        W56061  17.796  36.372   4.167
83769W        W56062  19.565  24.172   1.715
83770W        W56063   1.795   9.693  14.007
83771W        W56064  38.913   0.413   3.681
83772W        W56065  30.561  22.015   1.838
83773W        W56066  13.304  10.139  12.956
83774W        W56067  27.648  22.195  12.921
83775W        W56068  27.067   5.219  11.010
83776W        W56069  29.141   9.763  10.067
83777W        W56070  15.126  17.684   2.882
83778W        W56071  16.712   4.939   4.252
83779W        W56072  20.768   7.888   4.211
83780W        W56073  13.343   4.727   4.834
83781W        W56074  24.602  42.295   4.134
83782W        W56075  28.004  37.365   3.673
83783W        W56076   1.902  39.902   4.784
83784W        W56077  17.112  16.234  11.549
83785W        W56078  25.640   8.806  12.395
83786W        W56079  10.303   6.835  13.936
83787W        W56080  16.762   3.712   4.268
83788W        W56081  22.160  11.836   1.922
83789W        W56082  32.078  36.492   0.754
83790W        W56083  40.516  39.555  12.393
83791W        W56084   7.252  25.674   1.729
83792W        W56085   1.318  23.221   1.362
83793W        W56086  21.576  40.052   3.863
83794W        W56087   3.342  43.286  13.485
83795W        W56088  15.234   3.712  14.358
83796W        W56089  13.250  31.427  14.915
83797W        W56090  25.211  26.588  10.130
83798W        W56091  32.916  29.934  11.582
83799W        W56092   1.370   6.737  13.460
83800W        W56093  12.257  28.015  14.322
83801W        W56094  27.624  14.651   3.812
83802W        W56095  27.583  15.085   4.231
83803W        W56096   3.777  36.381  14.946
83804W        W56097   5.396  35.398  12.562
83805W        W56098   4.771  34.439   0.273
83806W        W56099  22.111  33.907   3.378
83807W        W56100   1.860   6.921  13.530
83808W        W56101   0.956  19.668  12.361
83809W        W56102  10.274  35.927  13.870
83810W        W56103   1.281   6.708   2.324
83811W        W56104  17.139  14.775   2.853
83812W        W56105  25.660  25.185   2.236
83813W        W56106   6.773  16.278   1.890
83814W        W56107  36.941  19.256  11.079
83815W        W56108  10.192  34.600   0.799
83816W        W56109  30.451   0.249  12.992
83817W        W56110   3.328  10.741  11.395
83818W        W56111   2.362   3.448  13.347
83819W        W56112  17.670  21.035   3.682
83820W        W56113  23.059  44.907   4.187
83821W        W56114   6.812   0.270  12.013
83822W        W56115  32.589  30.507  10.530
83823W        W56116   0.789   0.916   4.807
83824W        W56117  23.187  39.364  12.468
83825W        W56118  37.993  13.281   1.723
83826W        W56119  33.116  33.117   1.445
83827W        W56120  15.655  34.483   9.934
83828W        W56121   5.234   2.435  12.981
83829W        W56122   5.910  35.378   0.807
83830W        W56123  19.543  32.913   9.929
83831W        W56124   1.854  28.947  14.280
83832W        W56125  26.657   2.232  10.443
83833W        W56126  17.778  26.083  14.815
83834W        W56127   4.382  17.565   4.340
83835W        W56128  33.463  40.373  12.358
83836W        W56129  37.424  24.509   2.382
83837W        W56130  21.026  25.015   2.266
83838W        W56131  22.587  37.016  11.903
83839W        W56132  17.231  18.092   0.342
83840W        W56133  29.627  23.005   9.449
83841W        W56134  42.802  20.036  12.431
83842W        W56135  37.569  35.492   1.380
83843W        W56136  15.132  38.447  13.543
83844W        W56137  40.886   1.252  10.627
83845W        W56138  10.293  16.079  13.454
83846W        W56139  26.109   8.171   3.652
83847W        W56140  42.802  35.539   4.651
83848W        W56141   2.721  44.754   0.450
83849W        W56142  17.591  10.825  10.580
83850W        W56143   2.887  23.083   2.664
83851W        W56144   5.377   8.822  11.917
83852W        W56145  13.350  44.754   4.769
83853W        W56146  30.581  23.579  10.950
83854W        W56147   1.482   1.470   4.141
83855W        W56148  36.579  39.005   1.290
83856W        W56149  12.153  43.457  11.384
83857W        W56150  10.674  19.225  13.824
83858W        W56151  16.683   8.232   4.742
83859W        W56152  27.976  13.169   2.390
83860W        W56153  29.508   1.821  10.413
83861W        W56154  42.938  25.193   4.635
83862W        W56155  35.871  30.422  14.459
83863W        W56156  27.038  40.889   0.352
83864W        W56157  18.192  29.500   0.770
83865W        W56158  39.349  41.425  11.865
83866W        W56159  30.092  37.435  11.923
83867W        W56160  14.316   6.383  12.090
83868W        W56161  21.517   6.311   4.616
83869W        W56162  30.953   8.229  14.825
83870W        W56163  31.572  35.482   4.157
83871W        W56164  40.841  31.611  12.448
83872W        W56165  41.945   2.344  11.001
83873W        W56166  18.686  36.453   3.775
83874W        W56167  14.117  43.986   0.456
83875W        W56168   4.415   6.352   2.785
83876W        W56169  18.060  22.070  13.484
83877W        W56170  18.641  10.708  11.387
83878W        W56171  17.624  33.943  11.001
83879W        W56172  43.815  12.355   3.685
83880W        W56173  41.472  25.101  14.976
83881W        W56174  44.395   9.154  10.930
83882W        W56175  38.446  20.767   1.270
83883W        W56176  18.692   7.346  14.984
83884W        W56177  11.635   6.829   3.241
83885W        W56178   3.870   1.908   2.382
83886W        W56179  15.666   2.335  13.437
83887W        W56180  39.887  23.215  13.884
83888W        W56181  13.213  40.460   3.716
83889W        W56182  38.017  13.263  12.483
83890W        W56183  42.967  34.455  14.830
83891W        W56184  26.095  33.520  10.548
83892W        W56185  19.134   2.248   1.886
83893W        W56186  29.943  34.110   1.924
83894W        W56187  16.572   8.358   1.705
83895W        W56188  26.683  23.538  10.544
83896W        W56189  31.955  33.457  14.783
83897W        W56190  20.086  31.905   2.755
83898W        W56191  34.384  25.653   2.875
83899W        W56192  26.104   3.882  11.957
83900W        W56193  17.635  18.580  12.456
83901W        W56194   1.396  27.184   4.797
83902W        W56195  34.994  12.188   0.443
83903W        W56196  38.915  19.688   0.838
83904W        W56197   9.184  24.151   1.755
83905W        W56198  27.061  31.548  11.371
83906W        W56199  13.772   4.885  13.391
83907W        W56200   3.915   0.809   3.668
83908W        W56201   0.940  32.019  13.927
83909W        W56202  25.181  27.542   2.767
83910W        W56203  29.060   9.221   1.875
83911W        W56204  12.718  14.296   1.251
83912W        W56205  30.615  23.681  10.455
83913W        W56206  23.525   2.430  12.498
83914W        W56207  19.058  22.193   1.315
83915W        W56208  34.874  32.542   0.340
83916W        W56209  30.946  11.314   5.092
83917W        W56210  17.589  12.626  12.403
83918W        W56211   5.806   9.880   0.313
83919W        W56212  24.695  12.818   3.742
83920W        W56213  18.171  43.513   1.403
83921W        W56214  23.222  29.157  10.926
83922W        W56215   7.780   9.792  11.063
83923W        W56216  25.563  35.533  11.866
83924W        W56217  14.812  34.575  10.586
83925W        W56218  32.022  16.645  12.990
83926W        W56219  37.453   1.938   3.798
83927W        W56220   5.229  31.524   1.226
83928W        W56221  15.809  14.757  14.456
83929W        W56222   6.900  34.006  11.527
83930W        W56223  11.643  25.171   0.462
83931W        W56224  34.030   3.348  11.587
83932W        W56225  15.615  38.881  14.979
83933W        W56226   1.274  30.120  12.992
83934W        W56227  17.707  28.974  14.988
83935W        W56228   3.801   8.385   1.861
83936W        W56229  41.859  34.563   5.235
83937W        W56230  18.684  44.816   0.286
83938W        W56231   7.739  16.086  10.913
83939W        W56232  36.480  36.396   2.355
83940W        W56233  33.527  27.988   2.765
83941W        W56234  34.095   5.847   1.438
83942W        W56235   1.774   9.656   4.649
83943W        W56236   3.784  23.987   4.349
83944W        W56237   7.886  22.581   1.222
83945W        W56238   1.874  32.519   0.796
83946W        W56239  28.435  33.965   3.380
83947W        W56240  39.822  36.025   1.793
83948W        W56241  23.012   7.857  14.344
83949W        W56242  44.908  33.059  12.027
83950W        W56243  27.582   2.275   2.402
83951W        W56244  24.044  42.778  10.965
83952W        W56245  13.220  17.293   3.200
83953W        W56246  24.068  38.491   1.230
83954W        W56247  34.941  27.671  13.856
83955W        W56248   3.288  38.875   1.835
83956W        W56249  41.937   2.814   1.738
83957W        W56250  36.077   7.189  13.006
83958W        W56251  42.843  13.811   4.253
83959W        W56252  41.305  11.159  13.353
83960W        W56253   4.254  42.839   5.299
83961W        W56254  19.201  37.365   4.199
83962W        W56255  32.440  21.665  13.822
83963W        W56256  14.109  43.314  11.475
83964W        W56257  43.981  31.417   4.838
83965W        W56258  22.716  18.684  11.501
83966W        W56259  41.505  24.109   3.270
83967W        W56260   7.701  40.439   3.208
83968W        W56261  31.104  19.593  13.862
83969W        W56262  22.518  32.424   0.955
83970W        W56263  37.997  36.092  10.929
83971W        W56264  27.602   5.706   1.233
83972W        W56265  11.692  19.724   1.862
83973W        W56266  22.529  14.127  11.898
83974W        W56267  23.654  25.639   4.218
83975W        W56268  18.657  30.425   5.221
83976W        W56269   8.292  20.642  11.976
83977W        W56270  21.071   1.361   1.918
83978W        W56271  26.638  44.774   3.753
83979W        W56272  39.057   2.949   0.782
83980W        W56273  26.135  42.489   1.777
83981W        W56274  15.658   3.929   3.765
83982W        W56275   3.873  26.001  13.957
83983W        W56276  16.259  34.049  12.973
83984W        W56277  43.882  42.817   9.955
83985W        W56278  12.134  22.667   1.773
83986W        W56279  12.762  19.138  11.127
83987W        W56280   6.706   6.684  12.519
83988W        W56281   3.235   0.827   3.692
83989W        W56282  24.048  25.524   0.745
83990W        W56283  13.237  12.662   3.836
83991W        W56284  13.688   2.341  11.501
83992W        W56285  43.278  21.620  14.465
83993W        W56286  28.519  31.109   4.354
83994W        W56287   0.312   8.175   1.351
83995W        W56288  35.375  20.692  10.461
83996W        W56289  36.958  26.093   2.306
83997W        W56290  40.362  15.623  13.797
83998W        W56291  34.372  20.675  10.999
83999W        W56292  10.142   7.869   2.285
84000W        W56293  16.250  32.934   1.798
84001W        W56294  12.794  31.555  14.350
84002W        W56295  11.360  17.798   3.720
84003W        W56296  11.704  16.710  11.534
84004W        W56297   6.349  42.526  13.423
84005W        W56298  13.689   4.382   4.774
84006W        W56299  37.932  22.542  13.914
84007W        W56300  20.176  14.725   4.320
84008W        W56301  43.958  30.995   3.204
84009W        W56302  19.746  16.284  14.376
84010W        W56303  29.481   1.947   3.240
84011W        W56304  15.240   1.263  13.920
84012W        W56305   6.314  35.042  12.553
84013W        W56306  33.449  37.088   1.810
84014W        W56307  16.613  23.590   3.817
84015W        W56308  43.806   4.932   2.201
84016W        W56309  44.440  10.680   2.743
84017W        W56310   8.250  17.688   4.748
84018W        W56311  29.575  36.579   0.245
84019W        W56312  37.447  34.561   2.873
84020W        W56313  39.386  34.425   4.274
84021W        W56314  22.221  17.763   1.318
84022W        W56315  40.979   7.179   3.732
84023W        W56316  40.841  35.417  14.937
84024W        W56317  42.827   3.401  13.875
84025W        W56318   0.420  27.553   1.349
84026W        W56319  15.288  38.979  13.399
84027W        W56320   1.309  44.801   2.878
84028W        W56321   7.877   6.283  13.019
84029W        W56322  22.225   1.761   2.397
84030W        W56323  38.505  14.717  12.073
84031W        W56324  31.533  17.572  13.484
84032W        W56325   6.770  44.448   1.377
84033W        W56326  28.640  38.992  11.043
84034W        W56327  33.547  12.328   0.431
84035W        W56328   3.760  27.976   4.253
84036W        W56329  36.570  11.154   1.810
84037W        W56330  25.632  44.358   1.873
84038W        W56331  44.951   6.323  11.064
84039W        W56332   2.925  40.383   2.704
84040W        W56333  13.127  25.677  11.523
84041W        W56334  24.150  16.721  11.875
84042W        W56335  22.119  17.248   0.826
84043W        W56336  30.617  36.431  14.776
84044W        W56337   3.320   5.307  10.465
84045W        W56338  27.633   7.188  14.798
84046W        W56339  18.266  25.703   4.770
84047W        W56340  12.171  40.312   0.786
84048W        W56341  34.893  42.968  13.016
84049W        W56342   2.234   4.799  11.480
84050W        W56343  27.029  20.565  13.517
84051W        W56344  34.119  11.343  14.790
84052W        W56345  36.365  33.960  13.999
84053W        W56346  38.076  27.585   0.887
84054W        W56347   7.703  21.697  10.958
84055W        W56348  30.078  34.970   0.965
84056W        W56349  26.702   2.276   0.258
84057W        W56350  15.207  21.664   0.299
84058W        W56351  30.155  20.187  12.387
84059W        W56352  24.636   0.352  12.028
84060W        W56353   8.839   5.816   0.953
84061W        W56354  19.174  34.530   2.249
84062W        W56355   0.282  24.158   4.294
84063W        W56356  19.659  35.983  13.395
84064W        W56357  31.141  22.533   2.691
84065W        W56358  15.726  29.534  14.776
84066W        W56359   2.857   1.360   2.273
84067W        W56360  12.723  26.020  10.973
84068W        W56361  30.147  14.692  11.116
84069W        W56362  29.172  42.349   3.847
84070W        W56363  16.240   4.280   1.362
84071W        W56364  30.440  16.302  14.475
84072W        W56365  26.466   2.378   2.746
84073W        W56366  36.028   4.705  13.399
84074W        W56367  26.001   2.354  12.983
84075W        W56368  32.563  28.665  14.338
84076W        W56369   5.383  21.529  10.940
84077W        W56370   6.336  26.570   1.378
84078W        W56371  35.004  27.052  11.885
84079W        W56372  37.974   3.442  12.468
84080W        W56373  19.674  10.214   1.708
84081W        W56374  29.094  32.600   2.245
84082W        W56375  13.260   9.243   3.754
84083W        W56376  42.322   6.212   1.711
84084W        W56377  38.071  35.959   1.382
84085W        W56378   1.407  35.088  11.056
84086W        W56379  34.029  10.196  12.422
84087W        W56380  26.503   5.425   3.319
84088W        W56381  39.878  28.559   3.150
84089W        W56382   7.329  32.129   3.383
84090W        W56383  35.089  30.536  10.993
84091W        W56384  10.729  44.004  13.334
84092W        W56385  29.145  27.139  11.492
84093W        W56386  34.088  14.673   2.322
84094W        W56387  40.503  18.557  10.603
84095W        W56388   5.317  39.442   2.711
84096W        W56389  24.684  40.523  14.980
84097W        W56390  14.630   4.837   0.323
84098W        W56391  29.994  31.468   1.803
84099W        W56392  36.968  34.392   0.899
84100W        W56393   4.841  26.683   2.841
84101W        W56394  41.802  22.013  12.466
84102W        W56395  15.790  44.815   3.348
84103W        W56396   0.952  40.527   1.451
84104W        W56397  36.441  22.519  11.109
84105W        W56398  25.639  30.638   9.982
84106W        W56399  32.584  13.307  13.390
84107W        W56400  34.993  28.150   3.832
84108W        W56401  30.979  27.035  10.548
84109W        W56402   8.849   3.331  12.372
84110W        W56403  17.633  13.636  13.945
84111W        W56404  44.918  22.674  11.900
84112W        W56405   1.328  44.457   2.867
84113W        W56406  20.102  13.655  12.939
84114W        W56407  25.486  27.103   4.758
84115W        W56408   4.371  17.679  13.798
84116W        W56409  16.298  25.117   2.736
84117W        W56410  29.048  37.453   4.758
84118W        W56411  21.686  28.161  14.394
84119W        W56412  13.139   9.755   4.146
84120W        W56413  40.305  28.015   1.776
84121W        W56414  41.530   4.760  10.617
84122W        W56415  15.656   2.830   4.631
84123W        W56416   5.244  37.384   2.265
84124W        W56417   8.781  32.953  11.396
84125W        W56418  14.822  22.095   2.350
84126W        W56419  43.948  37.943   0.855
84127W        W56420  19.751  10.282   5.216
84128W        W56421  20.252  30.049   0.393
84129W        W56422  23.547  36.519   4.251
84130W        W56423  43.975   5.329  13.321
84131W        W56424  43.887  36.995  13.913
84132W        W56425   2.298  28.005   2.874
84133W        W56426  13.304  38.363   4.185
84134W        W56427  36.480   8.259  13.895
84135W        W56428  19.210  10.693  11.558
84136W        W56429  23.173   7.685  14.919
84137W        W56430  17.723  20.202  12.006
84138W        W56431  30.099  20.563  11.918
84139W        W56432  31.098  18.547  13.389
84140W        W56433  28.637  39.014   3.726
84141W        W56434  26.165  15.138   2.243
84142W        W56435   7.819  14.273   0.931
84143W        W56436  43.458  21.553  13.904
84144W        W56437  11.214  30.637   1.366
84145W        W56438  35.856  29.169  12.571
84146W        W56439  42.422   3.402  14.323
84147W        W56440  38.420  24.214   0.320
84148W        W56441  18.711  14.274  10.544
84149W        W56442  32.096  35.872   2.305
84150W        W56443  23.015   1.792   4.251
84151W        W56444  35.963  38.434  12.476
84152W        W56445   0.299  42.429  13.802
84153W        W56446   0.478   8.359  12.512
84154W        W56447   7.356   3.897   4.284
84155W        W56448  20.083  18.582  11.075
84156W        W56449  31.572  15.110   4.186
84157W        W56450   2.403   5.718   4.326
84158W        W56451   3.822  28.994  10.473
84159W        W56452  21.642  10.297   0.937
84160W        W56453   5.760  29.104   2.752
84161W        W56454  37.842  11.866  11.387
84162W        W56455  40.955  37.390  12.869
84163W        W56456  12.651  39.405  11.514
84164W        W56457  11.820   8.359  13.840
84165W        W56458  20.745  43.304   3.232
84166W        W56459  40.926   7.735  10.548
84167W        W56460  44.278  11.287   2.194
84168W        W56461  31.137  44.948   0.313
84169W        W56462  20.198  27.986  14.945
84170W        W56463   0.969  35.511  11.986
84171W        W56464  43.333   3.834  12.042
84172W        W56465   7.263  19.565  14.883
84173W        W56466  42.347  20.622   4.139
84174W        W56467   2.834  17.741  12.985
84175W        W56468  14.239  19.185   3.303
84176W        W56469  15.626  23.176  11.612
84177W        W56470  30.120   9.801  11.017
84178W        W56471  34.422  21.208  14.030
84179W        W56472  40.490  23.579   5.087
84180W        W56473  43.967  29.129  12.875
84181W        W56474  17.681  13.306  12.392
84182W        W56475  33.951  32.626   1.897
84183W        W56476  24.539  43.345   3.814
84184W        W56477  36.390  18.121   4.731
84185W        W56478  33.033  42.411  11.967
84186W        W56479  40.451   2.959  14.506
84187W        W56480  41.999  10.230   0.861
84188W        W56481  39.517  16.599  11.078
84189W        W56482   6.740  32.523   4.703
84190W        W56483  37.402   6.757  12.836
84191W        W56484  37.923   8.310   0.946
84192W        W56485   3.816  14.760   3.322
84193W        W56486  14.222  16.206  14.997
84194W        W56487  35.380   6.323  11.603
84195W        W56488  23.029  21.082  11.127
84196W        W56489  26.462  31.039  10.590
84197W        W56490  40.485   6.904  10.522
84198W        W56491  15.219  29.173  11.912
84199W        W56492  26.971   7.901  14.484
84200W        W56493   3.303  14.198  11.391
84201W        W56494  27.106  10.279  14.459
84202W        W56495  37.957  26.165   4.230
84203W        W56496   4.938  27.023   3.212
84204W        W56497  26.150   9.806  11.935
84205W        W56498  34.019  32.612  10.482
84206W        W56499  21.172  14.619   2.295
84207W        W56500  44.761  27.614  13.062
84208W        W56501  12.822  16.109   1.305
84209W        W56502  33.612  27.570   1.906
84210W        W56503  39.903  24.093   3.277
84211W        W56504   2.810  38.553   0.750
84212W        W56505   6.343  27.586   3.688
84213W        W56506  32.615  44.492   2.663
84214W        W56507  31.922  43.502   3.209
84215W        W56508  20.087  20.758  14.434
84216W        W56509  17.751  13.224   1.341
84217W        W56510  19.577   7.793   1.305
84218W        W56511  28.055  44.388   5.242
84219W        W56512   4.877  32.945   9.990
84220W        W56513  22.711  25.483   2.831
84221W        W56514  32.020   7.891   5.082
84222W        W56515  31.582  11.767   4.779
84223W        W56516  27.578  37.338  10.451
84224W        W56517  26.576  36.914   1.880
84225W        W56518  35.108  28.978  12.869
84226W        W56519  17.659  20.042  13.315
84227W        W56520  33.443  44.489   5.288
84228W        W56521   4.784   8.809   2.222
84229W        W56522   6.807  20.667   3.856
84230W        W56523   2.324  13.171   2.267
84231W        W56524  11.294  39.487  12.028
84232W        W56525  10.728   2.926  11.922
84233W        W56526  29.436  32.632  13.475
84234W        W56527  10.637   8.656   2.387
84235W        W56528   9.682  20.715  12.406
84236W        W56529  42.856  15.149  14.454
84237W        W56530  11.766  13.270   2.406
84238W        W56531  43.825  12.774   3.768
84239W        W56532  13.334  14.685   2.300
84240W        W56533  17.729  27.046  13.543
84241W        W56534  24.517  18.654   1.278
84242W        W56535  25.630  42.819   0.890
84243W        W56536  17.725  43.962  12.884
84244W        W56537  34.384   6.205  11.118
84245W        W56538  27.524  19.176  10.949
84246W        W56539   6.236   1.907  13.972
84247W        W56540  36.002  15.213   2.866
84248W        W56541  38.837  42.362   2.871
84249W        W56542   1.826  40.542  10.548
84250W        W56543  22.249  21.152   3.270
84251W        W56544   4.285   0.266   2.339
84252W        W56545  39.831  20.033  13.450
84253W        W56546   5.744  13.270  11.936
84254W        W56547  10.704   8.827  13.862
84255W        W56548  35.866  33.978  11.375
84256W        W56549  16.167  25.660  12.035
84257W        W56550   2.395  16.794  11.990
84258W        W56551  15.225  12.117   2.872
84259W        W56552  41.867   6.391   3.179
84260W        W56553  27.497  22.612  12.389
84261W        W56554  42.353  23.152  14.885
84262W        W56555  42.940  11.258  11.015
84263W        W56556  44.850  43.808   3.762
84264W        W56557  42.944  19.602   0.416
84265W        W56558  19.122  28.596  11.936
84266W        W56559  33.991  40.332   1.730
84267W        W56560  13.821  26.096   4.266
84268W        W56561  42.397   8.773   3.829
84269W        W56562   8.803  28.070  11.925
84270W        W56563  33.987   8.693  10.586
84271W        W56564   1.850  13.208  13.024
84272W        W56565  15.117  40.943  11.449
84273W        W56566   5.255   9.224   1.806
84274W        W56567  38.562  26.568   1.695
84275W        W56568  32.056  33.094  14.321
84276W        W56569  28.950   4.377  13.514
84277W        W56570  42.854  42.962   4.614
84278W        W56571  40.985  35.054  12.340
84279W        W56572  32.042   8.744   2.810
84280W        W56573  28.619  33.399   0.292
84281W        W56574   7.389  17.675  10.933
84282W        W56575   5.742  34.522   5.698
84283W        W56576   1.460  34.585  12.850
84284W        W56577  44.468  13.242  10.952
84285W        W56578  29.499  22.026   2.180
84286W        W56579  29.563   3.286   1.315
84287W        W56580  18.641  38.985   0.398
84288W        W56581  20.571  19.633   2.679
84289W        W56582  24.637  27.690  12.037
84290W        W56583  35.475  26.641   2.234
84291W        W56584  36.944  20.672   0.887
84292W        W56585  12.722  41.297   2.748
84293W        W56586  34.064   8.225   1.444
84294W        W56587  22.581  31.037  14.904
84295W        W56588  18.611  15.620  10.942
84296W        W56589  27.188  11.343  14.904
84297W        W56590  36.862  30.938   2.357
84298W        W56591   7.871  39.930   1.245
84299W        W56592  40.866  35.999   2.398
84300W        W56593  14.657  31.563  14.341
84301W        W56594  44.309   4.230   0.352
84302W        W56595  39.888  44.843  13.993
84303W        W56596  30.090  41.949   1.783
84304W        W56597   2.951  19.767   1.877
84305W        W56598  40.877  38.516   4.784
84306W        W56599  32.911  18.120  11.004
84307W        W56600  10.382  10.210   1.242
84308W        W56601   4.878  24.095  11.099
84309W        W56602  34.425  27.055   0.466
84310W        W56603  29.999  24.022   1.832
84311W        W56604  44.774  31.980  14.914
84312W        W56605   1.445  16.738  12.434
84313W        W56606  29.578  43.340  14.764
84314W        W56607  21.530  31.442  10.560
84315W        W56608  29.625  22.197   4.282
84316W        W56609  35.399  20.672  11.509
84317W        W56610  11.304  30.565  10.918
84318W        W56611   9.182  21.631  11.553
84319W        W56612   1.768  25.975   1.824
84320W        W56613  12.337  24.980   4.268
84321W        W56614   2.955  19.717   2.212
84322W        W56615  40.938  27.508  13.421
84323W        W56616  43.933  40.925   1.429
84324W        W56617  35.019  42.478  13.954
84325W        W56618  24.061  44.781  14.024
84326W        W56619  18.132  35.368   0.449
84327W        W56620   7.730  19.143   0.776
84328W        W56621  43.457  23.654   0.461
84329W        W56622  40.461   5.405  11.864
84330W        W56623  27.942  20.607   0.285
84331W        W56624   2.958   4.860  14.874
84332W        W56625  34.925  27.123  13.958
84333W        W56626  43.352   6.855   2.246
84334W        W56627  43.508  20.219  12.553
84335W        W56628  21.718   2.857   2.758
84336W        W56629  35.425  32.919   3.341
84337W        W56630  42.894  19.180  10.016
84338W        W56631   4.362  13.655  13.501
84339W        W56632  24.149   5.304   1.280
84340W        W56633  14.726  33.549   1.347
84341W        W56634  17.775  21.099   5.141
84342W        W56635  41.871  37.867   2.852
84343W        W56636  13.332   0.278   2.786
84344W        W56637  14.639   0.312   1.269
84345W        W56638  41.839   7.171  14.794
84346W        W56639  19.097  12.741  11.940
84347W        W56640  39.984  23.661  11.556
84348W        W56641  37.553   7.274   0.378
84349W        W56642  14.768   8.255  14.288
84350W        W56643  16.670  35.047  10.420
84351W        W56644  38.561  26.017   4.654
84352W        W56645  44.385  28.622  11.968
84353W        W56646  17.208  32.454  13.844
84354W        W56647  32.041  29.032   0.390
84355W        W56648  35.075  15.104   4.647
84356W        W56649   1.291  41.846  14.337
84357W        W56650  16.575  12.757   4.654
84358W        W56651  40.828  40.032   1.797
84359W        W56652  13.658  18.129   3.638
84360W        W56653  42.354  14.097   2.775
84361W        W56654  14.165  27.453  12.532
84362W        W56655   0.761  44.406  13.905
84363W        W56656   4.929  40.026   4.758
84364W        W56657  24.579   0.283  13.047
84365W        W56658  14.155   0.881   0.326
84366W        W56659  29.626  16.767   1.383
84367W        W56660   1.795  16.810   3.314
84368W        W56661   8.378  24.012   1.214
84369W        W56662  24.633  35.582   3.285
84370W        W56663  31.609   3.802  12.971
84371W        W56664  35.084  35.997  12.363
84372W        W56665   9.372  44.442  10.551
84373W        W56666  36.463  13.844   3.828
84374W        W56667  29.121  20.622   0.848
84375W        W56668  27.506  23.214   1.697
84376W        W56669  25.118  23.205  12.543
84377W        W56670  34.461  24.685   3.866
84378W        W56671   0.759  16.117  12.869
84379W        W56672  32.583  35.963   4.812
84380W        W56673  16.104  19.135  13.929
84381W        W56674  21.673  36.881  11.866
84382W        W56675  33.055  34.412   0.481
84383W        W56676   6.401  40.035  11.105
84384W        W56677  32.013  37.860   1.262
84385W        W56678  30.441   0.338   4.145
84386W        W56679  41.889  29.550  13.356
84387W        W56680  19.064  25.990  14.403
84388W        W56681  25.134  27.062  12.085
84389W        W56682   8.866  27.030  13.480
84390W        W56683  31.595  41.030   1.830
84391W        W56684   7.197  17.745  12.995
84392W        W56685  35.856  34.483  13.063
84393W        W56686  34.915  13.319   1.230
84394W        W56687  20.617  26.129   2.781
84395W        W56688   0.982  42.380   1.348
84396W        W56689  29.125  28.011  11.937
84397W        W56690   0.964  16.761  12.833
84398W        W56691  41.842   2.806   4.149
84399W        W56692  18.780  33.031   9.980
84400W        W56693  11.262  24.537   1.281
84401W        W56694  20.169   4.698   1.402
84402W        W56695   9.370  22.670  10.562
84403W        W56696   3.733  32.059  10.527
84404W        W56697   1.264  42.418  12.402
84405W        W56698  31.569   7.356  10.972
84406W        W56699  27.995  28.498  11.580
84407W        W56700  22.735  26.543   0.394
84408W        W56701  20.767  29.556   2.782
84409W        W56702  18.054   8.168  13.398
84410W        W56703   9.391  38.558  13.321
84411W        W56704  21.160  41.301  12.090
84412W        W56705  37.429  28.604   4.226
84413W        W56706  20.734   4.359   2.248
84414W        W56707  43.315  21.206   4.190
84415W        W56708  15.186  39.438  14.400
84416W        W56709  16.103  12.232   0.261
84417W        W56710  20.714  26.527  12.471
84418W        W56711  12.329  10.158  14.405
84419W        W56712  23.570   7.284  14.863
84420W        W56713   2.936  16.587   1.383
84421W        W56714  11.343  34.557   1.716
84422W        W56715   2.917  22.639   1.272
84423W        W56716  17.101   6.209   5.153
84424W        W56717  43.883   5.866   1.757
84425W        W56718  32.494   6.364   4.335
84426W        W56719  21.122  43.369   2.398
84427W        W56720  24.077  14.135  11.423
84428W        W56721  33.948  33.091  13.454
84429W        W56722  31.412   0.472  11.885
84430W        W56723  11.697  40.346  13.335
84431W        W56724   3.329  11.710   1.245
84432W        W56725  16.263  27.135   3.745
84433W        W56726  24.117  35.391  10.550
84434W        W56727  15.693  23.016   0.823
84435W        W56728   2.355  41.511  12.933
84436W        W56729  14.761  22.245  11.406
84437W        W56730  26.130  42.521   2.258
84438W        W56731  33.967  31.603  12.072
84439W        W56732  39.010  14.183   5.215
84440W        W56733  30.524  12.252  12.452
84441W        W56734  14.834  41.462  14.813
84442W        W56735  34.477  20.654   1.413
84443W        W56736  36.942  44.929  12.580
84444W        W56737  27.571  36.423   2.271
84445W        W56738  43.362   5.214   1.329
84446W        W56739  28.959  37.983  11.605
84447W        W56740   5.708  25.156  12.558
84448W        W56741  22.736  27.026  10.419
84449W        W56742   9.805  37.931  14.787
84450W        W56743  25.571  29.103  14.904
84451W        W56744  43.283  38.921  14.391
84452W        W56745  20.668  11.826  14.995
84453W        W56746  37.871  33.454   0.911
84454W        W56747  30.941  31.502   0.787
84455W        W56748  22.184  21.535  14.964
84456W        W56749  35.928   3.344   3.357
84457W        W56750  18.170  33.023   5.232
84458W        W56751   2.921   7.720   4.157
84459W        W56752  17.713  28.478  10.622
84460W        W56753  35.898   9.694   2.840
84461W        W56754   7.799  38.053   3.721
84462W        W56755  17.183  23.227   3.724
84463W        W56756  25.654  38.038   1.745
84464W        W56757  41.530  27.561   1.297
84465W        W56758  25.060  38.944   2.809
84466W        W56759   8.845   2.359   0.257
84467W        W56760  38.068   8.703   2.731
84468W        W56761  17.162  39.016  14.954
84469W        W56762  23.588  36.011  14.296
84470W        W56763  30.539  30.413  14.386
84471W        W56764  24.488  44.306   2.341
84472W        W56765   5.206  12.848   3.240
84473W        W56766  31.036  19.103   4.694
84474W        W56767   9.373  20.100   2.885
84475W        W56768  43.837  11.209   3.866
84476W        W56769  35.563  19.598  13.453
84477W        W56770  16.265  39.508   2.277
84478W        W56771  33.601  20.737   3.358
84479W        W56772  15.779  23.509  12.359
84480W        W56773  31.050   3.783   4.149
84481W        W56774  40.457  21.143  10.506
84482W        W56775  16.614  25.098  11.456
84483W        W56776  31.089  18.737  10.436
84484W        W56777  14.592   5.872  10.603
84485W        W56778   6.267  11.868   4.832
84486W        W56779  10.368  10.690   2.193
84487W        W56780  19.585  18.617  14.457
84488W        W56781  28.934  18.615  13.328
84489W        W56782  18.644  38.020  12.487
84490W        W56783  24.658  29.944  12.567
84491W        W56784  26.194   3.899   1.931
84492W        W56785  23.053  41.303   4.340
84493W        W56786  44.491  28.054   5.091
84494W        W56787  26.090   0.464  11.411
84495W        W56788  17.664  25.581  14.368
84496W        W56789  13.277  22.561  13.945
84497W        W56790  17.194   1.332   1.393
84498W        W56791  26.046  40.894  13.880
84499W        W56792   4.871  19.264   3.658
84500W        W56793  16.089   3.293   2.805
84501W        W56794   0.421   6.788   3.322
84502W        W56795  25.967  22.009   1.282
84503W        W56796   7.784  39.324   0.935
84504W        W56797  13.261  19.658  11.936
84505W        W56798  32.600  41.876  14.887
84506W        W56799  22.230  24.606   3.867
84507W        W56800  37.402  35.896   4.816
84508W        W56801  17.209  36.433  13.836
84509W        W56802  37.554  25.493  12.429
84510W        W56803   6.698   1.422  12.516
84511W        W56804  43.342  11.144  14.859
84512W        W56805  28.102  36.985   0.290
84513W        W56806  42.402  13.114   4.719
84514W        W56807   2.286  15.133   4.349
84515W        W56808  23.594  32.897   2.717
84516W        W56809  40.977  30.467   3.694
84517W        W56810   6.360   2.312  11.602
84518W        W56811  43.904   0.433   1.884
84519W        W56812  17.766   6.761   4.314
84520W        W56813  41.453   3.877  13.441
84521W        W56814   6.398  18.599   0.304
84522W        W56815  38.998  11.741  12.375
84523W        W56816  44.401  35.470  14.903
84524W        W56817  28.970  20.052   3.816
84525W        W56818   1.357  31.994   2.768
84526W        W56819  26.057  29.157  10.521
84527W        W56820  22.055  16.760   1.216
84528W        W56821   5.765  36.844   0.432
84529W        W56822   1.815  43.864  14.948
84530W        W56823  11.745  15.701  12.960
84531W        W56824  30.916   8.815   1.292
84532W        W56825   5.873  26.652  14.424
84533W        W56826  43.321  40.877  12.428
84534W        W56827  40.438  22.163   2.236
84535W        W56828  42.352   0.303   0.250
84536W        W56829  15.783  27.164  13.796
84537W        W56830   6.396  23.653   0.329
84538W        W56831   2.394  17.774  13.390
84539W        W56832  11.753  26.650   1.357
84540W        W56833  21.173  44.380   1.244
84541W        W56834   2.435   5.259   3.676
84542W        W56835  20.732  24.109   2.664
84543W        W56836  34.992  21.682  13.998
84544W        W56837  19.602   7.400   2.814
84545W        W56838  11.181  17.064  10.462
84546W        W56839  18.052  22.100  14.395
84547W        W56840  39.982   2.382   2.831
84548W        W56841   6.738  28.978  10.427
84549W        W56842  15.669  43.870   4.732
84550W        W56843   6.761  20.145  12.502
84551W        W56844  32.121  32.527   3.871
84552W        W56845   8.853   0.446   1.706
84553W        W56846  42.797  40.029   2.853
84554W        W56847  17.279  22.527   1.748
84555W        W56848  25.469  27.528   0.740
84556W        W56849  10.765  18.129   4.657
84557W        W56850   6.677  36.522  10.484
84558W        W56851  24.612  38.367  11.393
84559W        W56852   5.861   8.374   4.688
84560W        W56853   7.810  33.112   4.305
84561W        W56854   9.878  39.446  14.409
84562W        W56855   5.925  20.071  10.643
84563W        W56856  31.452   5.300   1.413
84564W        W56857   9.701  14.167  11.983
84565W        W56858  12.234  25.521   1.266
84566W        W56859  41.019  21.066   0.278
84567W        W56860   1.787   2.809   4.705
84568W        W56861  31.995  42.884   1.854
84569W        W56862  33.973  19.695  12.554
84570W        W56863  19.108  20.707   4.228
84571W        W56864  35.978  37.977   4.350
84572W        W56865  26.045  34.913   2.320
84573W        W56866   6.879   6.392   4.747
84574W        W56867  16.618  42.782   3.815
84575W        W56868  29.549  27.616  10.630
84576W        W56869  18.111   5.841  13.533
84577W        W56870  12.225  38.349   3.187
84578W        W56871  38.925  20.269   1.308
84579W        W56872  22.631  18.116   4.648
84580W        W56873  15.255  10.188   2.831
84581W        W56874   8.213  41.031  10.631
84582W        W56875  10.868  13.770   0.906
84583W        W56876  12.288  25.966  14.024
84584W        W56877  34.937  43.283  11.473
84585W        W56878  30.561   0.256  14.403
84586W        W56879   6.219  22.145   9.957
84587W        W56880  16.108  31.586  11.894
84588W        W56881   7.729  20.111  10.430
84589W        W56882  29.594   9.205  11.893
84590W        W56883  26.975  29.629   1.851
84591W        W56884  37.866  28.046   1.913
84592W        W56885   2.825  27.002  14.772
84593W        W56886  27.963  14.121   1.337
84594W        W56887   8.218  22.606  10.608
84595W        W56888  44.883   0.466  12.872
84596W        W56889  30.550  13.778   4.220
84597W        W56890  32.620  34.380   4.136
84598W        W56891  14.612  10.255   1.411
84599W        W56892  29.465  29.441  14.306
84600W        W56893  36.073  31.606  14.315
84601W        W56894  22.731  21.591  12.494
84602W        W56895   4.884   6.912  10.924
84603W        W56896   9.797  11.818  13.372
84604W        W56897  33.386  40.853  14.378
84605W        W56898  17.614   0.338  12.351
84606W        W56899  14.754  40.929   4.330
84607W        W56900   8.336  22.744   0.312
84608W        W56901  35.068  35.975  12.054
84609W        W56902  31.530  44.980  12.949
84610W        W56903  37.836  19.594  14.374
84611W        W56904   2.935  12.689  10.502
84612W        W56905  16.073  39.381  13.341
84613W        W56906  30.586   3.258  14.866
84614W        W56907  20.586  24.138  11.028
84615W        W56908  38.493  14.767  12.479
84616W        W56909  22.637  39.929   1.224
84617W        W56910  29.611   6.888   0.329
84618W        W56911  20.768  44.391  13.917
84619W        W56912  39.977  26.059  14.874
84620W        W56913  41.019  38.064   2.754
84621W        W56914  29.928  19.062  10.480
84622W        W56915  22.564  14.758   1.745
84623W        W56916  36.475   4.822   3.286
84624W        W56917   3.441  11.715  11.916
84625W        W56918  29.022  13.182   2.752
84626W        W56919  23.031   9.781  10.891
84627W        W56920   5.286  30.621  10.613
84628W        W56921   3.771  35.557   2.822
84629W        W56922  18.713  12.753  12.971
84630W        W56923  34.436   8.257   0.748
84631W        W56924  21.212  16.302  10.631
84632W        W56925  27.119  10.745  10.946
84633W        W56926  25.183   6.910  12.072
84634W        W56927  10.206  39.363  13.033
84635W        W56928  31.547  27.502  13.508
84636W        W56929   1.953  31.634   2.377
84637W        W56930  30.970  29.547   3.291
84638W        W56931  12.848   0.332   3.188
84639W        W56932  13.258  38.032  11.949
84640W        W56933  33.453   4.206  12.579
84641W        W56934   3.358  32.466  11.575
84642W        W56935   3.384  17.692  14.023
84643W        W56936  40.873  18.786  13.026
84644W        W56937  10.685   1.397  13.508
84645W        W56938  44.313  21.733  11.592
84646W        W56939  14.207   0.417   4.316
84647W        W56940  32.921  18.566  12.367
84648W        W56941   5.314   7.813  12.387
84649W        W56942  11.643   5.798  13.056
84650W        W56943  35.602  36.392   3.347
84651W        W56944  25.161  15.119  14.426
84652W        W56945  11.198  28.095  14.884
84653W        W56946  18.682  43.322   4.599
84654W        W56947  15.651  38.924   2.763
84655W        W56948  20.534  23.629  10.920
84656W        W56949  44.288  35.587   3.710
84657W        W56950  43.322   5.900   4.256
84658W        W56951   5.712  10.282  13.457
84659W        W56952  44.856   8.900   1.794
84660W        W56953  12.342  32.559   2.368
84661W        W56954  39.328  20.144   0.423
84662W        W56955  31.905   5.932  10.578
84663W        W56956   8.200  14.109  14.906
84664W        W56957  39.334  32.068   1.771
84665W        W56958  32.544   4.810  11.899
84666W        W56959  32.391  21.543   1.932
84667W        W56960   4.709  26.471   1.248
84668W        W56961  31.104  35.099   0.951
84669W        W56962   0.861  17.197   1.271
84670W        W56963  12.762  25.684   1.866
84671W        W56964  36.943  34.438   4.776
84672W        W56965  30.022  10.362   0.806
84673W        W56966  28.031  34.906  13.988
84674W        W56967  13.727   2.333   2.693
84675W        W56968  33.033   1.308  12.378
84676W        W56969  38.384  19.687   0.260
84677W        W56970  38.843  43.334  14.382
84678W        W56971  39.402  15.816  14.327
84679W        W56972  34.092  24.655   2.204
84680W        W56973  41.041  44.429   4.128
84681W        W56974   2.272   0.386  11.068
84682W        W56975  37.069   8.676   0.387
84683W        W56976  20.691  42.409   0.737
84684W        W56977  33.085  37.419   0.300
84685W        W56978  36.377  10.144   3.374
84686W        W56979  32.910  30.948  13.061
84687W        W56980  37.394   4.204  10.047
84688W        W56981  11.229  18.226  12.532
84689W        W56982  22.547  15.226  13.464
84690W        W56983  28.158   9.693   2.390
84691W        W56984  39.341  42.789  14.329
84692W        W56985  23.132  23.683   3.740
84693W        W56986  26.164   0.866   2.714
84694W        W56987  32.966  10.180  10.116
84695W        W56988  35.575  30.574   1.307
84696W        W56989  30.631  21.108  11.075
84697W        W56990   1.393  34.070   2.891
84698W        W56991  15.307  25.542  13.487
84699W        W56992  33.596  38.920  14.819
84700W        W56993  10.279   8.362   2.294
84701W        W56994   9.281   0.340  14.383
84702W        W56995  24.200  26.684   4.724
84703W        W56996  40.437  40.891  13.487
84704W        W56997  17.756   0.334  11.937
84705W        W56998   9.286   9.693  13.500
84706W        W56999  39.438  26.020   2.238
84707W        W57000  21.625  20.548  14.771
84708W        W57001  35.591  29.637  13.432
84709W        W57002   1.891  22.631  11.438
84710W        W57003  35.028  20.182   3.781
84711W        W57004  14.230  21.227  11.509
84712W        W57005  23.507   4.445   4.250
84713W        W57006   3.371  31.902  12.015
84714W        W57007  21.511  27.011   0.850
84715W        W57008  15.776  41.532  13.995
84716W        W57009   3.257  16.682   4.633
84717W        W57010  23.031  29.098  12.346
84718W        W57011   0.942   9.393  11.914
84719W        W57012  42.974  16.715  14.827
84720W        W57013  33.468   5.329   2.318
84721W        W57014  21.625  34.058  12.860
84722W        W57015   5.192  13.328  13.016
84723W        W57016  33.057  11.699  11.861
84724W        W57017   2.356  20.131  13.544
84725W        W57018  35.485   6.356  14.997
84726W        W57019   1.362  33.034   4.811
84727W        W57020  22.108  14.691  13.451
84728W        W57021  40.413  15.328  10.521
84729W        W57022   0.459  13.839   2.822
84730W        W57023  43.299  21.203   2.375
84731W        W57024  22.226  20.191   0.764
84732W        W57025  19.749   9.664  11.973
84733W        W57026  32.572  43.962   3.210
84734W        W57027  25.593  19.737   0.777
84735W        W57028  22.746   9.662  13.460
84736W        W57029   6.767  32.930   1.412
84737W        W57030   4.408  19.536   4.129
84738W        W57031  37.075  36.401   1.333
84739W        W57032  15.722  41.012  10.583
84740W        W57033   8.337  19.737   2.283
84741W        W57034  30.984   2.937   3.650
84742W        W57035  11.141   6.389   3.226
84743W        W57036  34.042  42.847  13.842
84744W        W57037  29.529  29.497   1.890
84745W        W57038  29.969   6.905  12.088
84746W        W57039  41.790  10.728   0.908
84747W        W57040  31.039  33.601   2.837
84748W        W57041  20.642  14.763   2.256
84749W        W57042  12.771  42.783  13.334
84750W        W57043  37.472  22.666  14.410
84751W        W57044  37.399  35.936   3.685
84752W        W57045  22.583   7.873   1.909
84753W        W57046  11.235  33.899  13.947
84754W        W57047   9.828   1.351  13.874
84755W        W57048  39.869  30.491   1.739
84756W        W57049   4.301  14.629  11.895
84757W        W57050   9.886  27.989   2.776
84758W        W57051  33.477  27.196  13.828
84759W        W57052  28.616  42.505   1.367
84760W        W57053  16.604  28.933  10.634
84761W        W57054  17.595   0.916  11.970
84762W        W57055   7.897  25.109  10.140
84763W        W57056  19.048  33.893  12.070
84764W        W57057  17.623  37.944   0.859
84765W        W57058  21.594  32.904   3.166
84766W        W57059  42.972   5.699  14.763
84767W        W57060   5.852  32.134  10.603
84768W        W57061  40.913  44.816  14.867
84769W        W57062  40.034   2.432  11.126
84770W        W57063  25.503  14.267  12.499
84771W        W57064   8.353  39.458   2.873
84772W        W57065  36.983   5.701   4.148
84773W        W57066  38.501   9.667  11.054
84774W        W57067   7.800  19.180  13.908
84775W        W57068  31.003  15.216  11.541
84776W        W57069   9.364   1.364   4.159
84777W        W57070  19.103  42.921   1.289
84778W        W57071   3.730  13.679   2.888
84779W        W57072  33.909  14.240   1.359
84780W        W57073  30.598  41.375  10.576
84781W        W57074  27.546   6.326   0.747
84782W        W57075   7.283  16.759  12.064
84783W        W57076  17.148   1.787  13.968
84784W        W57077  19.274  29.986   4.678
84785W        W57078  42.992  29.610   3.693
84786W        W57079  12.800  25.537   2.748
84787W        W57080  20.631  13.616  13.955
84788W        W57081  17.289   3.781  10.522
84789W        W57082  20.028  32.560   3.843
84790W        W57083   6.270  25.692   1.704
84791W        W57084  26.196  39.816   4.818
84792W        W57085  29.424   3.749   2.252
84793W        W57086  19.780  34.009  10.599
84794W        W57087  26.003  11.627  13.796
84795W        W57088  33.626  22.702   5.132
84796W        W57089  35.357  12.716  10.988
84797W        W57090   6.787  15.093   1.704
84798W        W57091  21.702  41.000  14.372
84799W        W57092  18.666  39.534   3.244
84800W        W57093   1.394  19.123   0.833
84801W        W57094  33.575  20.036  10.153
84802W        W57095  30.063  35.863  14.503
84803W        W57096  10.321  36.458   2.214
84804W        W57097  15.607  13.193  11.519
84805W        W57098   6.793   4.822  10.462
84806W        W57099  12.816  28.535   1.252
84807W        W57100  18.065  14.207  14.932
84808W        W57101  11.372  20.066   2.218
84809W        W57102  36.500  43.503  11.402
84810W        W57103   1.733  29.505  13.012
84811W        W57104  27.130   0.926  10.591
84812W        W57105  12.261   5.267  13.313
84813W        W57106  15.194  37.056  12.553
84814W        W57107   1.756   2.758   2.332
84815W        W57108  32.616   1.865   4.132
84816W        W57109  36.370  39.042  10.587
84817W        W57110  38.964  36.527   0.363
84818W        W57111  24.226  11.327   1.347
84819W        W57112  41.856  38.072  12.382
84820W        W57113  22.662  21.119   0.464
84821W        W57114  31.931  32.561   3.152
84822W        W57115  29.037  14.626   4.832
84823W        W57116  23.550  10.728   3.818
84824W        W57117  18.592  31.543   0.280
84825W        W57118  37.467   3.439   0.837
84826W        W57119  44.423   2.911  14.374
84827W        W57120  16.209  18.082  13.517
84828W        W57121  22.115  31.998   3.264
84829W        W57122  31.954  16.230   2.304
84830W        W57123  35.536  38.428   4.291
84831W        W57124   3.438   9.219  14.315
84832W        W57125   0.272  19.695   1.375
84833W        W57126  14.639  25.698  13.519
84834W        W57127  21.666   3.405   3.264
84835W        W57128  22.677  24.604   1.810
84836W        W57129  40.010  13.304   2.668
84837W        W57130   0.857  15.805  10.959
84838W        W57131  14.591  19.139   3.359
84839W        W57132   0.949  26.625   1.340
84840W        W57133  31.005   1.407   2.853
84841W        W57134   0.913   2.241   3.864
84842W        W57135  33.504  37.926   3.753
84843W        W57136  17.103  36.377   3.237
84844W        W57137  20.718  23.071   5.697
84845W        W57138  24.033  40.426   0.834
84846W        W57139  28.005  10.156   2.396
84847W        W57140  26.149  28.965  13.843
84848W        W57141  43.302   0.249   5.238
84849W        W57142   0.961   5.844   3.731
84850W        W57143   5.757  16.611   4.641
84851W        W57144  32.463  38.947  13.962
84852W        W57145   4.825  33.573   2.407
84853W        W57146   4.827  41.905  11.958
84854W        W57147  36.425  30.481  10.903
84855W        W57148  20.132   4.339   0.876
84856W        W57149  14.168  12.358   4.730
84857W        W57150  20.583  36.551  12.947
84858W        W57151  15.281  17.731  14.311
84859W        W57152  28.650  32.416   2.198
84860W        W57153  21.138  31.530  14.898
84861W        W57154  19.106   6.680   0.409
84862W        W57155  10.693   6.401   1.838
84863W        W57156  29.945  23.991  10.581
84864W        W57157   4.289  27.023  12.920
84865W        W57158  13.213  21.624   3.797
84866W        W57159  38.495   9.688   1.360
84867W        W57160  27.534  20.113   0.330
84868W        W57161  22.734  25.588   1.786
84869W        W57162   0.443  19.198  14.988
84870W        W57163  44.962   5.326  11.398
84871W        W57164  31.929  34.953  13.447
84872W        W57165  19.672  25.163  12.991
84873W        W57166  13.209  19.225  11.875
84874W        W57167  21.042   6.299   3.640
84875W        W57168  41.804  43.307   5.785
84876W        W57169  13.807  18.785  14.433
84877W        W57170  42.781   8.832   1.396
84878W        W57171   5.204  35.500   1.765
84879W        W57172   3.833  22.657   0.855
84880W        W57173  35.001  40.946  12.397
84881W        W57174  28.524  40.910  11.418
84882W        W57175  19.716  39.903  11.584
84883W        W57176  28.100  37.428  14.012
84884W        W57177  10.791  44.375   3.811
84885W        W57178   3.382  16.106   2.755
84886W        W57179  43.343   5.767  10.489
84887W        W57180   2.924  38.955   4.280
84888W        W57181   0.376  34.450  13.466
84889W        W57182  39.372   3.750   3.220
84890W        W57183  22.032   9.166   3.186
84891W        W57184   6.701   3.808  11.955
84892W        W57185  27.041   1.442  13.019
84893W        W57186  11.829  38.947   1.220
84894W        W57187  21.102  26.690  12.909
84895W        W57188  18.155  29.140  14.819
84896W        W57189  25.003  29.533  14.423
84897W        W57190  31.499  19.181   1.906
84898W        W57191  16.729   3.287   3.869
84899W        W57192  28.522  12.125   1.425
84900W        W57193  41.450   9.840   2.783
84901W        W57194  13.650   2.472   1.234
84902W        W57195  37.376   3.347  12.939
84903W        W57196  35.396  10.817   4.310
84904W        W57197  23.114   3.752   1.229
84905W        W57198   8.788  22.663   1.422
84906W        W57199   7.328   5.358   0.363
84907W        W57200  39.453  12.154  10.415
84908W        W57201  18.606  23.500   1.299
84909W        W57202   4.253  10.169   3.164
84910W        W57203  28.954  38.517   3.170
84911W        W57204  32.475  18.117  11.018
84912W        W57205  44.889  33.952  13.330
84913W        W57206  33.559  38.525  11.502
84914W        W57207   7.870  12.211  14.973
84915W        W57208  18.050  44.416   4.290
84916W        W57209  41.950  36.891  14.765
84917W        W57210   7.776  25.985  10.446
84918W        W57211   9.772   0.452  14.003
84919W        W57212  11.267  11.373   3.762
84920W        W57213  25.010  42.981   1.832
84921W        W57214  33.897  34.871   3.151
84922W        W57215  15.179  36.389   1.875
84923W        W57216  32.919  34.954  13.803
84924W        W57217  26.112  19.709   1.720
84925W        W57218  16.274  26.544  11.884
84926W        W57219   4.700  16.304  12.472
84927W        W57220  21.706  41.349   3.804
84928W        W57221  18.646   9.328   1.779
84929W        W57222  10.253   1.379  10.907
84930W        W57223   4.376  25.509   0.915
84931W        W57224  15.203  22.999   1.335
84932W        W57225  24.131  26.074  12.825
84933W        W57226  18.294  42.341   4.253
84934W        W57227  33.997   1.762   0.367
84935W        W57228  14.253  42.974  12.833
84936W        W57229  28.620  20.525   2.775
84937W        W57230  18.089  14.223   0.358
84938W        W57231  41.306  18.244   5.126
84939W        W57232   0.803  22.618   4.725
84940W        W57233   2.230  32.069  12.525
84941W        W57234  15.703  22.174   4.796
84942W        W57235  27.546  34.531  13.942
84943W        W57236  31.440  16.268   4.735
84944W        W57237  25.169  44.318  13.965
84945W        W57238  10.815  33.052  12.982
84946W        W57239  28.951  44.386   4.614
84947W        W57240  34.044  30.643   1.793
84948W        W57241   8.684  16.176  11.483
84949W        W57242  39.961  35.004  12.839
84950W        W57243  32.528  15.229   4.604
84951W        W57244  40.356  33.937  10.423
84952W        W57245  29.998  21.173  12.364
84953W        W57246  16.168   1.899   4.147
84954W        W57247  38.942   9.847   1.368
84955W        W57248   8.321  10.255   4.621
84956W        W57249   2.446   5.826   3.244
84957W        W57250  20.621  29.616   3.190
84958W        W57251   3.937  34.487  10.917
84959W        W57252   1.335  37.000   4.655
84960W        W57253  21.229   4.325   3.161
84961W        W57254  26.130   9.202   4.696
84962W        W57255  18.050  15.722  11.879
84963W        W57256  30.439  39.060   1.749
84964W        W57257   1.386  30.153  14.489
84965W        W57258  42.012  23.083   4.327
84966W        W57259  28.097   8.282   1.700
84967W        W57260  16.172  42.309   4.211
84968W        W57261  43.442   8.892  12.872
84969W        W57262   8.778   0.459  13.960
84970W        W57263   6.705   4.316  14.308
84971W        W57264  41.786  32.576  10.451
84972W        W57265  25.502   1.754  10.159
84973W        W57266  18.290  24.684  12.965
84974W        W57267  31.920  26.009   1.373
84975W        W57268  29.923  23.002  14.010
84976W        W57269  12.818  27.995  10.484
84977W        W57270  16.793  31.971  13.857
84978W        W57271  13.264   6.209  11.466
84979W        W57272  34.450   3.764  14.783
84980W        W57273  37.448  23.135  13.843
84981W        W57274  11.867  35.853   1.427
84982W        W57275  38.967  39.808  13.353
84983W        W57276  27.673   2.367  14.939
84984W        W57277  31.504  12.175   0.409
84985W        W57278  32.430  25.962   3.835
84986W        W57279  11.851  24.501  11.529
84987W        W57280  27.195  28.466   2.801
84988W        W57281  15.307  23.204  10.416
84989W        W57282  35.593   3.903  13.054
84990W        W57283  32.444  35.896   3.647
84991W        W57284   2.330  14.673   4.825
84992W        W57285  30.074  41.839   4.235
84993W        W57286   6.239  17.120  13.490
84994W        W57287   9.244  33.034   3.149
84995W        W57288   8.785  43.785   2.346
84996W        W57289   5.343  22.529  13.915
84997W        W57290  30.981   9.374  12.997
84998W        W57291  10.303   1.262  10.455
84999W        W57292  40.495  39.349  10.509
85000W        W57293   0.846  21.143   3.662
85001W        W57294  34.428  28.120  11.526
85002W        W57295  14.190  34.892   0.456
85003W        W57296   7.718  10.245  12.832
85004W        W57297  37.374  36.945   0.963
85005W        W57298   8.346  36.069   5.785
85006W        W57299  25.217   3.800   4.231
85007W        W57300  12.731  31.015   3.870
85008W        W57301  18.126   4.326   0.888
85009W        W57302  16.252  23.524  10.467
85010W        W57303  43.516  19.200  14.379
85011W        W57304  41.463  25.588   1.215
85012W        W57305  26.622   3.313  12.020
85013W        W57306  21.125   4.845   2.715
85014W        W57307  37.021  17.255   3.255
85015W        W57308  40.469  34.997   4.704
85016W        W57309  20.158  37.853   2.379
85017W        W57310   6.395   1.756  12.359
85018W        W57311   4.831  36.046  10.596
85019W        W57312  33.493  35.969   0.789
85020W        W57313  44.329  18.163  11.482
85021W        W57314  42.899  39.019  12.518
85022W        W57315  25.013  34.071   1.706
85023W        W57316  13.310  12.164  14.772
85024W        W57317  31.987  17.667   1.737
85025W        W57318  38.447   0.282   0.246
85026W        W57319   6.735  13.697  14.383
85027W        W57320  30.541  20.165  13.045
85028W        W57321   0.797  36.897   3.807
85029W        W57322  15.631   8.813  10.029
85030W        W57323  35.940   1.753  13.033
85031W        W57324  19.043  28.549  11.440
85032W        W57325  32.631  19.565   1.846
85033W        W57326  28.671  38.839  14.447
85034W        W57327  29.596   3.800  11.461
85035W        W57328  22.721  38.385  11.565
85036W        W57329  14.682  40.833   2.870
85037W        W57330  29.489  30.087   1.416
85038W        W57331  30.468  11.787  14.848
85039W        W57332  25.680   5.296  14.413
85040W        W57333  39.500   3.857  14.350
85041W        W57334  40.440  39.043   1.330
85042W        W57335  27.124  15.243   4.287
85043W        W57336  30.102  14.176  11.501
85044W        W57337   7.378  18.230  11.059
85045W        W57338   0.775  33.393  12.432
85046W        W57339  21.114  21.140   1.722
85047W        W57340  19.113   3.217  10.589
85048W        W57341  40.431  10.652   2.862
85049W        W57342  44.299  19.109   1.874
85050W        W57343  16.711  29.575   4.299
85051W        W57344   0.433   9.333  10.471
85052W        W57345   4.354   8.225   4.342
85053W        W57346  28.996  36.906  10.442
85054W        W57347  28.046  33.075  12.976
85055W        W57348   3.868  12.229   1.764
85056W        W57349  14.164   7.746  14.283
85057W        W57350   1.740  25.600  11.424
85058W        W57351  39.419  18.690  11.495
85059W        W57352  35.906   2.913  13.925
85060W        W57353  32.966   0.957   1.375
85061W        W57354  32.059  38.421  13.010
85062W        W57355   6.341  34.547   4.830
85063W        W57356   3.268  32.475   1.918
85064W        W57357   3.409   4.226  12.843
85065W        W57358  36.986   0.943   2.682
85066W        W57359  35.365  25.689   0.919
85067W        W57360  21.668  15.114   2.306
85068W        W57361  21.732   9.841   4.832
85069W        W57362   3.830  44.331   4.167
85070W        W57363  12.681   3.917  11.542
85071W        W57364  28.641   8.698   0.846
85072W        W57365   8.380  15.186   2.682
85073W        W57366  33.506   1.403   2.204
85074W        W57367  39.314  44.422   2.701
85075W        W57368  14.203  36.520  12.363
85076W        W57369   6.856  41.990   4.689
85077W        W57370  42.355   1.798  12.992
85078W        W57371  15.584  34.458  12.881
85079W        W57372  34.871  37.513  12.421
85080W        W57373  26.702  23.582  14.769
85081W        W57374  41.409  40.372   1.376
85082W        W57375  22.093  17.600   3.648
85083W        W57376   9.755  27.579  11.422
85084W        W57377  26.968  16.206  12.912
85085W        W57378  42.970  33.097   0.737
85086W        W57379   8.273  19.767   4.719
85087W        W57380   5.352   2.410  12.519
85088W        W57381  37.027  41.470  13.917
85089W        W57382  15.649  15.815  13.425
85090W        W57383  30.637  12.662  10.605
85091W        W57384  15.154  29.621  11.513
85092W        W57385  21.524  30.522   1.272
85093W        W57386  19.281   0.771  14.418
85094W        W57387  27.174   1.812  11.425
85095W        W57388   6.916  31.062  10.536
85096W        W57389   4.732   1.384  11.115
85097W        W57390   7.854  30.999  10.975
85098W        W57391  19.650  36.968  13.038
85099W        W57392  42.914  33.970   3.769
85100W        W57393  24.130  25.711  10.463
85101W        W57394  41.976  27.077  14.906
85102W        W57395  37.559  18.631  14.986
85103W        W57396  13.248   1.311  11.536
85104W        W57397   0.366   7.328  13.920
85105W        W57398  36.571  23.634  11.038
85106W        W57399  21.222   5.334  10.946
85107W        W57400   3.236  10.713   0.416
85108W        W57401  34.446  33.536   2.704
85109W        W57402  40.839  38.355   3.811
85110W        W57403   2.420  39.842  12.499
85111W        W57404  38.864  31.548  14.495
85112W        W57405  39.313   0.459  12.397
85113W        W57406   0.323   4.342   3.311
85114W        W57407  26.093  40.871   1.766
85115W        W57408  34.936  16.717   1.321
85116W        W57409  20.245  33.626   0.892
85117W        W57410  23.637  10.747  13.546
85118W        W57411  17.789  41.310   2.256
85119W        W57412  10.669   3.945   2.665
85120W        W57413  44.469   6.701   9.969
85121W        W57414  17.687  31.460   1.286
85122W        W57415  21.618  42.402  13.994
85123W        W57416  38.541   8.356   0.788
85124W        W57417  42.395   6.395   4.147
85125W        W57418   4.791   0.465   0.259
85126W        W57419  43.425  18.708   5.284
85127W        W57420  11.284  12.355  11.128
85128W        W57421  32.616  37.456   2.860
85129W        W57422  33.002   5.878   0.407
85130W        W57423  18.252  12.734  11.462
85131W        W57424  41.305  25.102   3.221
85132W        W57425   6.754  18.150   1.241
85133W        W57426   7.378  40.031  11.601
85134W        W57427  43.471  10.807  13.401
85135W        W57428  26.608  25.088   4.351
85136W        W57429  26.116  36.869   0.792
85137W        W57430  10.285  31.604   0.429
85138W        W57431   0.436  27.448  12.072
85139W        W57432  16.748  16.077   4.341
85140W        W57433  21.706  30.076   4.284
85141W        W57434  21.110  12.275  14.029
85142W        W57435  17.643  21.175   0.273
85143W        W57436  33.889  33.578   2.752
85144W        W57437  15.291  15.304   2.751
85145W        W57438  39.487  16.138   2.409
85146W        W57439  12.793  41.452   0.470
85147W        W57440  34.055  29.622   0.245
85148W        W57441  35.066   9.808  12.846
85149W        W57442  40.396  18.586  13.889
85150W        W57443  39.464  29.607  11.419
85151W        W57444  25.618  34.066  11.516
85152W        W57445  32.015  16.310   1.826
85153W        W57446  38.516  31.588   2.674
85154W        W57447  19.231  28.667   4.354
85155W        W57448  13.826  24.597  13.057
85156W        W57449   5.929   5.765   0.818
85157W        W57450  18.607  41.021   0.434
85158W        W57451   9.383  26.073  14.320
85159W        W57452  38.343  12.133  11.532
85160W        W57453  25.541  10.180   2.673
85161W        W57454  28.106  32.125   0.469
85162W        W57455  35.533  11.227  10.888
85163W        W57456  39.042  41.029  14.426
85164W        W57457  21.631  20.756   4.190
85165W        W57458  13.234  21.617  14.505
85166W        W57459   7.306  21.657   4.603
85167W        W57460  39.398   5.753   3.183
85168W        W57461  44.883  41.340  12.893
85169W        W57462  26.653  40.859   4.732
85170W        W57463  37.464  23.217   1.894
85171W        W57464  15.674  44.483  14.915
85172W        W57465  39.476  23.590   0.851
85173W        W57466  42.498  34.430   0.802
85174W        W57467  33.502  22.174   1.267
85175W        W57468  39.022   5.409  13.030
85176W        W57469  36.022  44.500   4.802
85177W        W57470  32.956  36.005  13.934
85178W        W57471  10.840  22.127  10.901
85179W        W57472  15.583  42.844   0.304
85180W        W57473  41.008  37.532   1.909
85181W        W57474  12.728  20.093  14.328
85182W        W57475  40.998  20.184   4.782
85183W        W57476  28.951  20.739   3.189
85184W        W57477  35.438  17.237  13.054
85185W        W57478  12.666  20.639   0.872
85186W        W57479  32.620   8.226   4.303
85187W        W57480  11.794  38.425  13.532
85188W        W57481  33.985  19.579   2.867
85189W        W57482  12.348  28.075   2.385
85190W        W57483  12.714  34.492  12.466
85191W        W57484  14.647  34.905  12.899
85192W        W57485  32.053  22.624  11.057
85193W        W57486  15.635  17.623  13.057
85194W        W57487  21.207  37.003   3.818
85195W        W57488  19.056   6.897   1.838
85196W        W57489  36.513  30.573   4.628
85197W        W57490  40.442  43.862   1.390
85198W        W57491  44.968   4.369  11.076
85199W        W57492  43.972  29.640  11.576
85200W        W57493   1.391   3.391   1.314
85201W        W57494  29.168  21.121   2.257
85202W        W57495   0.376  16.230   0.833
85203W        W57496  19.203   8.246  12.860
85204W        W57497  19.704  35.990   1.750
85205W        W57498  36.938   2.747   0.254
85206W        W57499  30.042  38.501  13.051
85207W        W57500  29.557  28.976  13.511
85208W        W57501  21.753  12.227   1.261
85209W        W57502  14.747  14.644  11.517
85210W        W57503  30.942  13.168  11.554
85211W        W57504  18.292  12.348  14.304
85212W        W57505  26.192  32.021  11.466
85213W        W57506  29.131   4.386   3.296
85214W        W57507   8.229  21.514   0.346
85215W        W57508   8.819   7.846   0.255
85216W        W57509  20.699  18.120   0.287
85217W        W57510  29.019  23.643  11.476
85218W        W57511  38.423  20.144   1.451
85219W        W57512  21.709  42.406  11.884
85220W        W57513  39.029  11.259   1.389
85221W        W57514  26.510   9.316  12.939
85222W        W57515  42.306  28.944   3.237
85223W        W57516  35.912   6.427   3.680
85224W        W57517  40.398  27.100  14.834
85225W        W57518  15.146   0.325   3.258
85226W        W57519   7.893  41.019   1.331
85227W        W57520  18.756  36.992   0.953
85228W        W57521  38.821   5.290   0.446
85229W        W57522   6.301   1.739  12.983
85230W        W57523   7.706  11.789  14.363
85231W        W57524  17.667  12.664  11.870
85232W        W57525  22.129  18.601  13.528
85233W        W57526  35.597  16.812  12.390
85234W        W57527  23.108   4.285  11.519
85235W        W57528   8.189  14.696  13.813
85236W        W57529   4.867  20.561  10.580
85237W        W57530   4.776  42.012   1.383
85238W        W57531  39.536  26.099   0.911
85239W        W57532   9.748  12.188  12.374
85240W        W57533  12.327  31.424   2.711
85241W        W57534   5.916  20.523  10.936
85242W        W57535  27.172  15.184  10.458
85243W        W57536  28.458  40.025   1.399
85244W        W57537  39.368  13.177   2.870
85245W        W57538  18.577   8.213   2.343
85246W        W57539  18.783   1.920   4.642
85247W        W57540  28.046  38.828   9.964
85248W        W57541  41.518  26.506  13.412
85249W        W57542  31.426  31.011  11.513
85250W        W57543  21.089  28.555  14.917
85251W        W57544   0.477   0.456  13.392
85252W        W57545  42.329  30.542   2.226
85253W        W57546  10.165  23.146   2.787
85254W        W57547   0.764  27.501   2.203
85255W        W57548  25.687  27.483   1.902
85256W        W57549   6.730  11.342  13.905
85257W        W57550  21.068  12.657  14.960
85258W        W57551  19.734  44.283   3.825
85259W        W57552  38.979   1.268   1.311
85260W        W57553  11.672  25.019   0.731
85261W        W57554  10.163  12.633   2.279
85262W        W57555  19.255  20.159  13.960
85263W        W57556   6.231  14.167   0.286
85264W        W57557  17.249  36.853  14.986
85265W        W57558  43.006  42.841   3.223
85266W        W57559  39.531  12.679   3.201
85267W        W57560   5.711  18.734   0.895
85268W        W57561  30.083  40.832  11.991
85269W        W57562  35.056  42.372  14.318
85270W        W57563   7.186   2.947  11.376
85271W        W57564  35.428  11.740   1.215
85272W        W57565   7.787  43.948  12.981
85273W        W57566  35.072  18.286  12.860
85274W        W57567  23.015  40.486   1.857
85275W        W57568  35.504   7.888  14.385
85276W        W57569  14.766   4.438   5.658
85277W        W57570   5.821  27.080  10.989
85278W        W57571  15.629  39.402  14.323
85279W        W57572   7.278  36.590  10.941
85280W        W57573  37.008  27.680  12.424
85281W        W57574  43.823  39.560   4.683
85282W        W57575  13.301   9.753   2.385
85283W        W57576  17.715  24.034   2.354
85284W        W57577  18.644   7.678  11.127
85285W        W57578  15.765  11.289  11.474
85286W        W57579  26.529  42.860   9.920
85287W        W57580  44.914  11.775  14.431
85288W        W57581  44.483   4.380  13.409
85289W        W57582  41.920  34.888  12.527
85290W        W57583  39.332  40.353   0.841
85291W        W57584  41.499  40.359   0.403
85292W        W57585  31.043  39.857   4.747
85293W        W57586  23.726  14.712   4.239
85294W        W57587   8.785   6.747   0.942
85295W        W57588  21.068  18.583  14.935
85296W        W57589   6.371  32.048  12.975
85297W        W57590  20.569   8.363  14.858
85298W        W57591  10.683  16.134   4.184
85299W        W57592   6.783   8.834  11.421
85300W        W57593  31.152  13.327  13.048
85301W        W57594  19.642   4.429  12.869
85302W        W57595  32.939  44.445  14.868
85303W        W57596  10.342   8.204  13.841
85304W        W57597  12.165  34.970   1.308
85305W        W57598   2.728  24.509   3.260
85306W        W57599   0.746   1.416   3.660
85307W        W57600  25.709  11.196  13.922
85308W        W57601  29.934   0.980   0.261
85309W        W57602  37.982   0.342   4.143
85310W        W57603  21.164   0.415   0.916
85311W        W57604  31.483  10.874  12.054
85312W        W57605  17.206  26.054   0.278
85313W        W57606   0.792   5.747   2.812
85314W        W57607  44.406  21.517  12.438
85315W        W57608  36.863   0.780  12.409
85316W        W57609  21.749  29.094   1.747
85317W        W57610   4.412   9.304   3.725
85318W        W57611  22.187  36.021   1.771
85319W        W57612  21.617  21.656   0.425
85320W        W57613   7.183  10.774  12.826
85321W        W57614   8.812  24.484   3.282
85322W        W57615  42.014  21.202   5.103
85323W        W57616  44.872  44.785   1.410
85324W        W57617  25.055  23.057   2.773
85325W        W57618  16.699  10.755  12.397
85326W        W57619  23.676  31.900   3.769
85327W        W57620  37.567  44.939  13.039
85328W        W57621   1.398   7.905  13.487
85329W        W57622  28.590  23.220  12.554
85330W        W57623  37.347   6.188  11.423
85331W        W57624   7.749  42.351   1.772
85332W        W57625  10.218  19.772  12.508
85333W        W57626   3.895  42.024  11.567
85334W        W57627  44.505  38.903  11.015
85335W        W57628   3.265  31.534   0.394
85336W        W57629  31.144  22.223   4.279
85337W        W57630   6.227  43.336  12.823
85338W        W57631  37.071  44.399   3.269
85339W        W57632   6.199  29.986  14.365
85340W        W57633   3.905   6.221   1.725
85341W        W57634  27.475  27.513   2.368
85342W        W57635   5.327  24.669  13.995
85343W        W57636   3.320   3.334   1.739
85344W        W57637  15.214  41.928  14.023
85345W        W57638   1.767  28.500   2.382
85346W        W57639  15.676  37.014   4.114
85347W        W57640  29.121   8.842   2.201
85348W        W57641  18.669  18.715   0.845
85349W        W57642  24.033   3.247  10.954
85350W        W57643  36.048  29.169   0.479
85351W        W57644  31.640  25.154   4.715
85352W        W57645  20.249  13.123   0.931
85353W        W57646  10.773  41.439   3.682
85354W        W57647  13.250   3.774  12.901
85355W        W57648  40.850   1.417  11.485
85356W        W57649   2.286  32.908  10.582
85357W        W57650  23.731  29.669   2.258
85358W        W57651  30.595  23.646  13.889
85359W        W57652   0.747  40.872   4.126
85360W        W57653  14.761   2.812  14.514
85361W        W57654   7.412  20.167  14.934
85362W        W57655  13.840   3.258  14.397
85363W        W57656  43.887  44.997  14.454
85364W        W57657  20.207   6.844   4.299
85365W        W57658  18.785  33.477   2.872
85366W        W57659  23.524  15.614   2.786
85367W        W57660  13.787  20.062   0.964
85368W        W57661   6.852  12.816   2.772
85369W        W57662  34.551  35.432  13.063
85370W        W57663   5.389  34.531  14.839
85371W        W57664  11.199  31.129   3.674
85372W        W57665   7.387  42.381   2.265
85373W        W57666  40.489   6.316   0.361
85374W        W57667  28.079  34.393   1.338
85375W        W57668  18.270  19.096   4.812
85376W        W57669  35.875  29.594  11.585
85377W        W57670  23.631   6.919  14.886
85378W        W57671  33.479   6.778  13.479
85379W        W57672  33.914  37.538  13.021
85380W        W57673  34.965  44.321  10.616
85381W        W57674  15.229   5.287   0.771
85382W        W57675  31.108  25.651   1.889
85383W        W57676  34.992  38.892  11.992
85384W        W57677  39.929  36.348   4.750
85385W        W57678  25.972  26.651  14.419
85386W        W57679   5.886  31.410  12.921
85387W        W57680   9.694  34.094  14.771
85388W        W57681   1.455   7.260   1.277
85389W        W57682  31.957   7.743  12.911
85390W        W57683  21.256   5.770  11.002
85391W        W57684  34.894   1.824  11.968
85392W        W57685   2.305   9.231   0.777
85393W        W57686  33.438  43.943   0.264
85394W        W57687  42.293  30.088   2.693
85395W        W57688  27.187  30.550  10.925
85396W        W57689  41.928  16.075  14.786
85397W        W57690  30.519  11.758   3.675
85398W        W57691   0.408  38.480   0.413
85399W        W57692  23.534  11.806   2.320
85400W        W57693  29.997  24.119  14.291
85401W        W57694  25.026  21.683   2.713
85402W        W57695   3.432  35.596   1.419
85403W        W57696  22.219   8.720   4.604
85404W        W57697  11.652  28.168  14.856
85405W        W57698  13.818  43.479   2.241
85406W        W57699  29.138   7.711   1.374
85407W        W57700   3.844  27.042   4.832
85408W        W57701  33.051  20.709   4.683
85409W        W57702   0.484  12.174   2.711
85410W        W57703  14.136  12.810   0.336
85411W        W57704  30.122  27.946  12.076
85412W        W57705  21.135  12.204  14.792
85413W        W57706  24.021  13.146  10.627
85414W        W57707  26.627  42.391   3.859
85415W        W57708  34.060  11.769  12.570
85416W        W57709  41.337  11.192   2.733
85417W        W57710  43.397   0.270  13.324
85418W        W57711   6.681  42.963   4.222
85419W        W57712   8.714  12.831  12.036
85420W        W57713  31.978   4.388  12.906
85421W        W57714  18.188  27.133  13.530
85422W        W57715  19.616  33.114   2.795
85423W        W57716  25.069  42.026   2.818
85424W        W57717  40.373  19.675  13.379
85425W        W57718  34.952  39.507   4.649
85426W        W57719  23.166  20.590  14.928
85427W        W57720  21.687  13.280   3.659
85428W        W57721  25.617   1.768   4.220
85429W        W57722  40.029  44.489   2.888
85430W        W57723   5.272  40.415   4.323
85431W        W57724   9.729  18.085   0.912
85432W        W57725  15.329  13.159   3.202
85433W        W57726   6.353   4.838  10.501
85434W        W57727  14.654   1.978  11.420
85435W        W57728  27.995  38.911   2.666
85436W        W57729  29.098  11.259   3.345
85437W        W57730  11.819   1.464  10.972
85438W        W57731  23.092   3.403   2.748
85439W        W57732  35.601  24.104   1.719
85440W        W57733  20.680   2.892   4.629
85441W        W57734  41.913   7.347   3.647
85442W        W57735  15.726   5.889   0.342
85443W        W57736   4.749   5.293  10.908
85444W        W57737  15.083  31.069  10.899
85445W        W57738   3.803  32.007   0.285
85446W        W57739  16.617  43.427  13.823
85447W        W57740  17.724  22.134  12.572
85448W        W57741  40.963  33.039  11.928
85449W        W57742   9.356   9.293   1.434
85450W        W57743  24.112   6.188   0.282
85451W        W57744  24.996  44.840   4.728
85452W        W57745  29.973  40.013  11.063
85453W        W57746  21.128  40.391  10.424
85454W        W57747  39.376  26.546   2.394
85455W        W57748  13.256   9.337  11.105
85456W        W57749   2.352  22.572  13.952
85457W        W57750  26.991  13.819  14.028
85458W        W57751  14.740  43.426   0.933
85459W        W57752  14.738  35.508   3.856
85460W        W57753  19.191  41.999  10.642
85461W        W57754  44.961  22.068   3.153
85462W        W57755  36.934  33.996  11.571
85463W        W57756  37.043  27.600  13.977
85464W        W57757  23.732  23.114  14.388
85465W        W57758  11.700  35.957   5.251
85466W        W57759  31.593   2.236   0.868
85467W        W57760  30.565  34.909   1.819
85468W        W57761  38.933  17.180   9.984
85469W        W57762  32.025  42.796  12.416
85470W        W57763  37.053  42.995  13.401
85471W        W57764  42.283  39.954   4.337
85472W        W57765  21.617  16.210  14.818
85473W        W57766  30.117   9.750  13.997
85474W        W57767  33.102  42.848   4.151
85475W        W57768   3.358  20.619  11.052
85476W        W57769  27.010   0.278  12.951
85477W        W57770   2.735  37.580   4.156
85478W        W57771  31.900  13.143   4.219
85479W        W57772   2.764  14.114  10.413
85480W        W57773   7.328  29.657   3.783
85481W        W57774   2.461  26.592   3.269
85482W        W57775  41.812  38.507   3.247
85483W        W57776  34.544  14.650  11.082
85484W        W57777  21.243  18.779  14.487
85485W        W57778  18.651  29.505  11.928
85486W        W57779  12.262  34.097  12.567
85487W        W57780  23.141  10.750  12.386
85488W        W57781   2.447  16.197   4.215
85489W        W57782  23.152   0.408   4.678
85490W        W57783  33.395  22.139  11.423
85491W        W57784  41.040  25.583   1.284
85492W        W57785   5.292   3.801   2.252
85493W        W57786   8.345  14.103  13.483
85494W        W57787  27.126  27.105  11.950
85495W        W57788  18.053  32.530   0.441
85496W        W57789  15.650  32.597   3.789
85497W        W57790  39.436  10.139   3.160
85498W        W57791  23.991   4.216  14.958
85499W        W57792   1.789   1.794   1.403
85500W        W57793  42.014  24.507  11.473
85501W        W57794  44.827  25.714  13.041
85502W        W57795  39.980   5.822  11.103
85503W        W57796   6.193   0.382   3.739
85504W        W57797  44.873  10.811  12.833
85505W        W57798  40.837   3.260  14.350
85506W        W57799  11.685  13.154  12.906
85507W        W57800   6.381  44.870  12.894
85508W        W57801  21.250  41.455   3.331
85509W        W57802  14.235  21.691   3.849
85510W        W57803  27.520  22.209  11.870
85511W        W57804  18.194   0.795   3.710
85512W        W57805   6.228  35.374   2.350
85513W        W57806  35.989  23.149   4.237
85514W        W57807  38.892  20.736  11.470
85515W        W57808  35.937  31.127  12.006
85516W        W57809  27.138  22.163  11.562
85517W        W57810  22.744  38.877   4.620
85518W        W57811  17.595   5.799   1.214
85519W        W57812  28.079  39.409   2.733
85520W        W57813  24.632  24.649  12.393
85521W        W57814  15.594  35.513   0.944
85522W        W57815   3.444  15.104  10.538
85523W        W57816  39.893  30.964  10.573
85524W        W57817  22.112  33.481  13.909
85525W        W57818  33.014  18.198   2.671
85526W        W57819  35.452   8.737   4.168
85527W        W57820  20.205   3.937   0.463
85528W        W57821  36.366  13.651   0.834
85529W        W57822  33.626  29.580   0.803
85530W        W57823  33.482  28.161   1.427
85531W        W57824  44.952  35.591   9.978
85532W        W57825  40.902  13.291   0.843
85533W        W57826  13.677  16.144   2.722
85534W        W57827  33.400  27.615   4.762
85535W        W57828  26.067  41.462  13.861
85536W        W57829   6.903  35.865  13.504
85537W        W57830  15.805  17.252  13.413
85538W        W57831  40.935  19.606  12.032
85539W        W57832  28.099  19.565  12.363
85540W        W57833  37.898  38.046   2.416
85541W        W57834   7.181   2.371  14.432
85542W        W57835  25.576   1.415   4.290
85543W        W57836   8.164  39.394  11.004
85544W        W57837  41.469  10.810   3.240
85545W        W57838   1.903  33.577   3.723
85546W        W57839  23.490  34.412  13.442
85547W        W57840  10.822  14.754   1.433
85548W        W57841  42.868  12.296  13.445
85549W        W57842  41.837   3.373   5.263
85550W        W57843  24.662   0.939   1.219
85551W        W57844  21.227  37.042   1.923
85552W        W57845  26.625  27.685  14.431
85553W        W57846  38.964  24.019  12.970
85554W        W57847   2.895   0.781  14.281
85555W        W57848  20.525  35.988   3.358
85556W        W57849   7.221   4.372  12.091
85557W        W57850  39.353  32.415   0.799
85558W        W57851  10.812  21.048   0.958
85559W        W57852   2.341  31.038  14.877
85560W        W57853  44.843  18.583  13.844
85561W        W57854  26.580  23.539  10.966
85562W        W57855   3.246  44.403  14.920
85563W        W57856  21.603  32.567  12.936
85564W        W57857  11.815  18.102   0.326
85565W        W57858  19.099  16.095  13.837
85566W        W57859  18.252  39.816  12.491
85567W        W57860  41.976  20.176  11.929
85568W        W57861  24.724   8.862  13.361
85569W        W57862  17.273  19.559   3.381
85570W        W57863  28.946  13.796  13.515
85571W        W57864  43.421   1.400  12.488
85572W        W57865  37.964   6.276   3.163
85573W        W57866  35.423   1.787   4.238
85574W        W57867  25.510  16.193  13.414
85575W        W57868  31.591  37.900   2.759
85576W        W57869  26.165   5.902   2.716
85577W        W57870  19.610  16.109   0.807
85578W        W57871  23.669  22.514  13.943
85579W        W57872  11.187  34.489   4.812
85580W        W57873  29.575   1.468   1.345
85581W        W57874  39.371  41.948  11.541
85582W        W57875   6.343  38.067  14.500
85583W        W57876  12.176  14.321  14.974
85584W        W57877  27.588  24.558  11.524
85585W        W57878  40.378  21.249  12.342
85586W        W57879   3.382  33.937   1.438
85587W        W57880   7.265  25.172  14.996
85588W        W57881   0.341  21.545   4.648
85589W        W57882  14.709   0.841  11.526
85590W        W57883  32.593  19.162  10.415
85591W        W57884  12.792  27.648   1.248
85592W        W57885   4.222  39.998  14.870
85593W        W57886   7.346  44.359   2.325
85594W        W57887  35.405  28.668   3.343
85595W        W57888  38.480   0.485  10.903
85596W        W57889  25.624  34.894  13.406
85597W        W57890  27.059  18.292  14.886
85598W        W57891  21.212   2.268  13.398
85599W        W57892  10.336  20.108  11.563
85600W        W57893   2.321  22.232   0.812
85601W        W57894   4.395  29.480  12.340
85602W        W57895  14.182  44.300   0.349
85603W        W57896   0.367  21.680   3.797
85604W        W57897  12.184   6.306   2.330
85605W        W57898  31.099   0.483   1.740
85606W        W57899  14.748  29.026   5.297
85607W        W57900  37.879  39.891  13.485
85608W        W57901  40.817  38.337  14.818
85609W        W57902  23.241   4.369   0.428
85610W        W57903  14.096  26.568  10.916
85611W        W57904  36.092   4.707  10.477
85612W        W57905   0.280  19.766  13.001
85613W        W57906  11.305   0.881  14.886
85614W        W57907  24.069  29.980  10.533
85615W        W57908  16.632  26.019  14.312
85616W        W57909   8.274  44.912   4.294
85617W        W57910  14.182  43.810   2.833
85618W        W57911  10.872  19.642   3.706
85619W        W57912  15.231  31.076   3.329
85620W        W57913  13.837  44.916   1.704
85621W        W57914  12.343  19.171  13.908
85622W        W57915  32.973  33.387  11.563
85623W        W57916  42.966   9.866  12.840
85624W        W57917  13.328   6.840   0.946
85625W        W57918   1.432  29.533  11.583
85626W        W57919   1.472   9.696  10.498
85627W        W57920  36.410  19.576  12.939
85628W        W57921  31.615  16.082  14.848
85629W        W57922  18.788  14.684  13.928
85630W        W57923  43.314  25.642  10.892
85631W        W57924  37.414  41.896  14.862
85632W        W57925  19.254   2.889   2.878
85633W        W57926  34.527  31.996   1.769
85634W        W57927  23.677  34.100   4.628
85635W        W57928  18.111  26.003  14.491
85636W        W57929  10.777   8.168   2.200
85637W        W57930  41.531  18.671  13.839
85638W        W57931   1.816  39.854   3.263
85639W        W57932   8.736  22.553   5.309
85640W        W57933  24.625  10.720   3.156
85641W        W57934  11.811  23.545   3.790
85642W        W57935   7.857  40.308   4.156
85643W        W57936  17.165  33.614   1.831
85644W        W57937  43.970   1.360  12.529
85645W        W57938   7.320  15.188  10.970
85646W        W57939  23.168  10.241  12.342
85647W        W57940  32.126  17.282   3.167
85648W        W57941  32.396  25.115   5.125
85649W        W57942  12.786   4.825   9.959
85650W        W57943  44.903  23.211  13.855
85651W        W57944   5.367  14.626  11.458
85652W        W57945   8.662  11.202   4.737
85653W        W57946   7.739  42.451  14.454
85654W        W57947  38.856   9.689  14.335
85655W        W57948  10.822  29.926  11.400
85656W        W57949  23.621   0.943  14.394
85657W        W57950  27.109  11.263   3.290
85658W        W57951  36.994  21.217  12.484
85659W        W57952   2.775  43.429   4.286
85660W        W57953  26.049  20.542   0.252
85661W        W57954  37.867  40.831  10.466
85662W        W57955  26.055  34.396   4.718
85663W        W57956  35.085  44.400  13.310
85664W        W57957  15.763  37.084   3.688
85665W        W57958  10.172  34.519  11.400
85666W        W57959  29.029  42.287   2.870
85667W        W57960  12.191   8.813  11.990
85668W        W57961  35.493  15.824   0.248
85669W        W57962  27.471   6.818   0.465
85670W        W57963  23.164   6.301  11.597
85671W        W57964  29.097  21.558   3.743
85672W        W57965  36.852  39.559  11.010
85673W        W57966  14.751   1.429  14.926
85674W        W57967  18.723  39.387  13.876
85675W        W57968   3.849   0.831   2.203
85676W        W57969  38.370  37.527   4.675
85677W        W57970  18.205  20.572  13.331
85678W        W57971   6.420   6.401   1.433
85679W        W57972  40.987  22.108  11.430
85680W        W57973  38.040   2.470   0.470
85681W        W57974  38.869  33.910  11.064
85682W        W57975  30.130  42.904   1.882
85683W        W57976  23.101  13.279   1.921
85684W        W57977  41.043   9.328   3.347
85685W        W57978  20.175  38.497  11.070
85686W        W57979  23.018   8.828  13.894
85687W        W57980  40.388  25.139  14.846
85688W        W57981   8.858  44.434   2.730
85689W        W57982  17.233   1.339   0.322
85690W        W57983   0.757   7.825  12.482
85691W        W57984  38.421   1.314  14.837
85692W        W57985  44.494  37.887   0.761
85693W        W57986  11.724  19.121  11.530
85694W        W57987  41.824  42.777  12.844
85695W        W57988  42.936  32.058   4.699
85696W        W57989  34.492  34.991  13.874
85697W        W57990  34.515   2.322   4.825
85698W        W57991   9.345   5.398  11.581
85699W        W57992   0.263  22.243  13.920
85700W        W57993  27.024   8.898  14.824
85701W        W57994  20.765   3.296  11.399
85702W        W57995  12.245  42.844  13.445
85703W        W57996  33.453   0.283  12.343
85704W        W57997  13.752  44.007  13.326
85705W        W57998  25.968  11.761   2.721
85706W        W57999  11.790  40.953   0.327
85707W        W58000  40.357  11.854  11.558
85708W        W58001   7.321  15.660   4.275
85709W        W58002  44.264  14.331  13.058
85710W        W58003  11.750  14.598  11.407
85711W        W58004   7.230  16.577   1.935
85712W        W58005  33.003   1.326   3.363
85713W        W58006   6.241  31.588   4.308
85714W        W58007  43.280  28.636   0.933
85715W        W58008  18.553  26.142   4.339
85716W        W58009   1.426  16.732   3.740
85717W        W58010  38.953  19.666   2.186
85718W        W58011  19.697  38.975   0.441
85719W        W58012  26.111  41.338  13.012
85720W        W58013  10.179  18.593  13.938
85721W        W58014  43.877  29.561  10.633
85722W        W58015   1.905  30.010  12.502
85723W        W58016  36.529  20.053  10.961
85724W        W58017  28.619  27.101  11.448
85725W        W58018  30.984  14.739  12.346
85726W        W58019  23.142  36.365   1.400
85727W        W58020  12.785   1.334   3.377
85728W        W58021  17.632  15.673  12.978
85729W        W58022   4.845  29.570   4.264
85730W        W58023  19.547  42.400  13.537
85731W        W58024   6.353  32.021   4.260
85732W        W58025  16.580  14.711   0.357
85733W        W58026   0.413  40.834  13.350
85734W        W58027   8.166  15.315  11.921
85735W        W58028   3.375  18.062   1.875
85736W        W58029  34.488  40.038  11.887
85737W        W58030  27.180  18.574  11.093
85738W        W58031  36.059  22.643  13.045
85739W        W58032  22.615  30.612  10.531
85740W        W58033  44.317  17.567  12.377
85741W        W58034   2.725  30.448  14.938
85742W        W58035  17.107  42.784  13.390
85743W        W58036   6.814  17.236   2.185
85744W        W58037   4.809   7.212   1.219
85745W        W58038   5.330  23.149   4.227
85746W        W58039  25.543   7.364  14.921
85747W        W58040  23.582   3.827   1.721
85748W        W58041  42.365  36.966  11.960
85749W        W58042  18.074  42.305  13.452
85750W        W58043  29.120  28.010   0.832
85751W        W58044  32.950  15.743   0.435
85752W        W58045  20.086  37.445  11.941
85753W        W58046  13.735  15.189   1.917
85754W        W58047  18.670  13.785   0.444
85755W        W58048  38.822  43.439   3.184
85756W        W58049  42.822  16.678  13.532
85757W        W58050  35.065  10.254  10.565
85758W        W58051   3.376   7.340   0.726
85759W        W58052  44.464  23.664   3.276
85760W        W58053  32.467  27.483   3.240
85761W        W58054  21.536  21.254  14.860
85762W        W58055  36.963   0.922  10.518
85763W        W58056   8.801   4.306   2.670
85764W        W58057  31.017  19.256  11.026
85765W        W58058  10.353  27.002   3.741
85766W        W58059  28.947  17.759  13.910
85767W        W58060   2.340  20.611   4.297
85768W        W58061  38.425  33.026   1.421
85769W        W58062  16.615  14.181  12.992
85770W        W58063   4.315  25.535   2.800
85771W        W58064  32.021  15.743   2.705
85772W        W58065  17.682   4.437  13.375
85773W        W58066  12.199   1.479   3.807
85774W        W58067  14.629   7.732   0.278
85775W        W58068  16.655  19.130   1.433
85776W        W58069  39.419  42.884   2.899
85777W        W58070  39.844   2.238   0.890
85778W        W58071  36.396   1.862  11.604
85779W        W58072  20.043  41.824  13.411
85780W        W58073  42.026   0.325   0.424
85781W        W58074  21.219   2.919  12.477
85782W        W58075   7.744   9.213   3.331
85783W        W58076  38.976   4.807   3.821
85784W        W58077   3.856  26.193   3.702
85785W        W58078  18.760  23.987  14.468
85786W        W58079  35.468  13.105  14.279
85787W        W58080  18.686  17.639  11.554
85788W        W58081  34.102  33.924  13.040
85789W        W58082  16.115  11.285   2.768
85790W        W58083   2.401  36.865  11.515
85791W        W58084  16.711  15.272  12.394
85792W        W58085   8.783  18.078  10.409
85793W        W58086  35.861  28.024  13.472
85794W        W58087   1.312   1.437  11.392
85795W        W58088   4.859  36.577   4.699
85796W        W58089  31.539   2.769  10.893
85797W        W58090  18.230  20.077   0.342
85798W        W58091  12.644  11.249  10.957
85799W        W58092  16.165  43.860   1.436
85800W        W58093  16.159  26.145  10.926
85801W        W58094  21.757  12.758  12.987
85802W        W58095  35.562  35.440  10.444
85803W        W58096   0.815  37.033   2.783
85804W        W58097  40.845   3.458  12.852
85805W        W58098  22.133  22.157  12.852
85806W        W58099  34.555   7.301   0.948
85807W        W58100  16.159  27.648   4.186
85808W        W58101   9.339   8.299  14.928
85809W        W58102  11.807  37.084  14.003
85810W        W58103  15.243  38.337  10.896
85811W        W58104  40.499  37.519   1.236
85812W        W58105   1.319  28.165   3.159
85813W        W58106   5.895  23.142  12.856
85814W        W58107  31.093  12.139  10.936
85815W        W58108  34.969  14.212   4.630
85816W        W58109  21.078   4.209  11.585
85817W        W58110  20.104   4.854  12.437
85818W        W58111  18.051  44.454   2.253
85819W        W58112  26.129  35.033   3.334
85820W        W58113  33.965  33.992  13.842
85821W        W58114  31.616  41.952   3.633
85822W        W58115  18.253  22.055   1.254
85823W        W58116  31.606   9.181   3.644
85824W        W58117  40.008  12.248   0.418
85825W        W58118  27.499  38.877   3.209
85826W        W58119   6.911  18.266   4.830
85827W        W58120  19.711  28.027  13.943
85828W        W58121  27.665  11.177  12.040
85829W        W58122   8.862  39.828  10.888
85830W        W58123   3.911  34.478   2.274
85831W        W58124  10.675   5.713   2.892
85832W        W58125  44.474  31.477  11.589
85833W        W58126  33.433   3.380   1.863
85834W        W58127  20.585  11.793   1.770
85835W        W58128   0.817  35.991   0.914
85836W        W58129   8.234  10.857   0.907
85837W        W58130  34.990  31.949   2.877
85838W        W58131  34.398  16.766  12.897
85839W        W58132  44.926   9.823  12.520
85840W        W58133  35.550  36.955   0.829
85841W        W58134   0.430   9.245  14.303
85842W        W58135  37.011  23.569   2.817
85843W        W58136   0.440  22.745   0.459
85844W        W58137  41.381   0.381  14.914
85845W        W58138  41.008   5.387   4.610
85846W        W58139  43.882  36.558  11.425
85847W        W58140  25.019  40.038   3.853
85848W        W58141  39.826  17.610   2.339
85849W        W58142   0.460   8.223   2.683
85850W        W58143  23.168  38.067  11.092
85851W        W58144   2.393  42.499  12.956
85852W        W58145  30.515   6.849   0.733
85853W        W58146  17.734  44.411   2.341
85854W        W58147  32.960  42.922  14.301
85855W        W58148   3.350  19.131  14.925
85856W        W58149   4.712  16.316   4.644
85857W        W58150   4.920  28.066  13.009
85858W        W58151  39.481  23.504  12.380
85859W        W58152  27.656  28.007   3.374
85860W        W58153  42.953  25.019   2.187
85861W        W58154  37.078  30.135   3.325
85862W        W58155   4.344  28.538  11.919
85863W        W58156   0.946  12.351   1.864
85864W        W58157  40.346  31.029   0.455
85865W        W58158  26.475  35.922  12.414
85866W        W58159   9.394  12.286   3.829
85867W        W58160   8.256  34.535  12.057
85868W        W58161  35.866  28.540   4.674
85869W        W58162  21.670   1.966   2.341
85870W        W58163  31.550  22.070  12.925
85871W        W58164   8.789  41.943   3.319
85872W        W58165  22.553  15.324   2.689
85873W        W58166  10.737  33.599  14.982
85874W        W58167  20.653  11.655  11.098
85875W        W58168  38.325   4.307  11.114
85876W        W58169  38.496   5.315  14.780
85877W        W58170  17.207  21.125  10.021
85878W        W58171  23.555  40.822   4.814
85879W        W58172  17.304   5.769   1.881
85880W        W58173  21.253  20.663  12.018
85881W        W58174  36.931  35.558  13.360
85882W        W58175  21.197  26.474   1.445
85883W        W58176  17.800   3.312  12.496
85884W        W58177  39.884  18.060  14.501
85885W        W58178   4.835  16.106  13.509
85886W        W58179  38.567   7.896  13.913
85887W        W58180  18.632  25.219   9.932
85888W        W58181  12.771   8.714  11.582
85889W        W58182  19.552   3.888   3.345
85890W        W58183  28.675  22.635  12.883
85891W        W58184  35.598  19.580   0.424
85892W        W58185  12.142  26.052   1.355
85893W        W58186  16.648  33.958   2.746
85894W        W58187   1.844   1.843  12.006
85895W        W58188  21.026   5.881   0.304
85896W        W58189  42.950   6.807   3.801
85897W        W58190   3.228  35.089  14.481
85898W        W58191  22.216   5.893   1.339
85899W        W58192  33.058  23.192   2.347
85900W        W58193  39.920  25.518  12.506
85901W        W58194   9.650   8.212   0.363
85902W        W58195  42.518   7.374   2.211
85903W        W58196   2.794   0.346  14.325
85904W        W58197   8.882  16.311  14.763
85905W        W58198  37.365  24.518   4.331
85906W        W58199  13.177  13.776  14.840
85907W        W58200  32.418   4.723   4.175
85908W        W58201  41.840  34.566   4.647
85909W        W58202  42.294  26.588  10.564
85910W        W58203  39.889  44.491   2.289
85911W        W58204   8.229  29.003   4.773
85912W        W58205  17.560  11.186   4.307
85913W        W58206   8.697  42.949  13.833
85914W        W58207  26.098  39.318  11.445
85915W        W58208  19.694  16.652   3.753
85916W        W58209   3.912  13.735   1.853
85917W        W58210  38.492  36.498   3.188
85918W        W58211  42.393  29.139  12.973
85919W        W58212   7.864   2.839  11.507
85920W        W58213   6.679   5.359   0.244
85921W        W58214  36.880  40.833   3.161
85922W        W58215  36.017  25.488  12.373
85923W        W58216  18.226  31.055   3.694
85924W        W58217  18.697  42.285   1.807
85925W        W58218  25.583   4.790   2.881
85926W        W58219   9.247  26.970  10.577
85927W        W58220  37.869   8.399  13.468
85928W        W58221  36.979   9.257   3.772
85929W        W58222  32.062  10.200   5.319
85930W        W58223  27.551  44.780   4.323
85931W        W58224  42.299  18.583   4.813
85932W        W58225  20.203  21.082  12.054
85933W        W58226  31.638  23.175  11.434
85934W        W58227  35.502  29.002  14.450
85935W        W58228   8.311  32.455   4.298
85936W        W58229  23.563   4.704  11.913
85937W        W58230  30.002   4.753  11.045
85938W        W58231   7.409  15.302   3.722
85939W        W58232  31.466  25.078   2.389
85940W        W58233  15.191   4.365   3.750
85941W        W58234  32.441  43.473   3.745
85942W        W58235  17.783  13.320  10.587
85943W        W58236   9.809  15.274  10.602
85944W        W58237  44.761  17.654   3.715
85945W        W58238   7.391  20.659   3.722
85946W        W58239  43.379  18.705  11.563
85947W        W58240   5.294   3.439   2.387
85948W        W58241  20.614  31.433   4.126
85949W        W58242  32.013   1.744   0.463
85950W        W58243  41.889  19.149   1.707
85951W        W58244   5.231   7.732   1.754
85952W        W58245   4.701  15.125  13.356
85953W        W58246  41.441  42.910   1.376
85954W        W58247  16.195  43.956   4.274
85955W        W58248   4.751  22.202   4.206
85956W        W58249  21.051  34.536  13.913
85957W        W58250  19.669  43.320  13.426
85958W        W58251  23.564   3.951   4.734
85959W        W58252  37.952  26.472  11.433
85960W        W58253   6.779   8.404  11.902
85961W        W58254  24.696  26.485   4.651
85962W        W58255  31.922  17.149   2.350
85963W        W58256  12.781  10.686  11.469
85964W        W58257  13.224   1.955  12.921
85965W        W58258   8.329  24.496  14.798
85966W        W58259  17.729  44.957  12.920
85967W        W58260  22.215  25.117   3.721
85968W        W58261  24.052  12.273  10.523
85969W        W58262  42.452  44.335   3.641
85970W        W58263   4.841  12.810  10.493
85971W        W58264  25.972  29.481   3.252
85972W        W58265  27.996  40.922   0.912
85973W        W58266  35.567  37.019  14.459
85974W        W58267  42.460  19.041   2.785
85975W        W58268  15.689  16.208   1.333
85976W        W58269   8.825  33.968   0.473
85977W        W58270  39.984   9.810  13.982
85978W        W58271   1.361  32.888  10.602
85979W        W58272  14.293  41.001  14.834
85980W        W58273   0.840  39.833   0.941
85981W        W58274  36.404  10.349  12.934
85982W        W58275  17.204  11.275   3.221
85983W        W58276   9.857   8.183   2.273
85984W        W58277   1.911  12.753   1.210
85985W        W58278  44.823  32.623   4.639
85986W        W58279  21.730   2.911  10.543
85987W        W58280  35.527  23.661  11.983
85988W        W58281   9.308  27.953  14.858
85989W        W58282  25.100  21.699  10.895
85990W        W58283  22.132  27.097  12.917
85991W        W58284  24.629  13.183  12.004
85992W        W58285  18.116   5.908  11.023
85993W        W58286  28.573   9.353  12.064
85994W        W58287  26.027  36.948  12.542
85995W        W58288  39.934  40.437   2.711
85996W        W58289  30.062  42.915   0.840
85997W        W58290  13.241  13.612   4.273
85998W        W58291  17.741   3.229   0.943
85999W        W58292  44.771   4.698  12.497
86000W        W58293  20.198   1.312  14.314
86001W        W58294  40.024  41.391  11.501
86002W        W58295  39.012  44.938   5.236
86003W        W58296  17.220  40.824   1.704
86004W        W58297  44.293  27.685   2.890
86005W        W58298  21.096  18.648  10.997
86006W        W58299  15.125   0.328  11.409
86007W        W58300  33.911  29.932  14.951
86008W        W58301   8.294   1.447   4.233
86009W        W58302   4.759  17.755  11.118
86010W        W58303  39.405  43.317   4.201
86011W        W58304  10.788  40.378  10.022
86012W        W58305  17.193  14.194   3.158
86013W        W58306   5.426  29.064  13.392
86014W        W58307  26.209  21.588  13.499
86015W        W58308  43.493  30.590  13.335
86016W        W58309  23.510  33.057  14.845
86017W        W58310  28.965  14.251   2.215
86018W        W58311   6.725  33.003   0.272
86019W        W58312  40.052  34.507   4.696
86020W        W58313  40.346  20.217  14.413
86021W        W58314  32.448  40.927   3.366
86022W        W58315   8.657  34.563  12.910
86023W        W58316  31.509  31.957   2.848
86024W        W58317  33.931  20.579   2.346
86025W        W58318  14.258   6.762   2.369
86026W        W58319  41.299  32.547   2.816
86027W        W58320  17.240  19.688   4.156
86028W        W58321  26.972  28.617  11.120
86029W        W58322  34.038  16.086   4.714
86030W        W58323  30.537  43.374  14.781
86031W        W58324  12.744  27.447  10.987
86032W        W58325  30.525  42.807   3.736
86033W        W58326  26.993  18.755   3.256
86034W        W58327  28.038  42.799   2.308
86035W        W58328  32.444  40.494   0.903
86036W        W58329  42.352  18.608   9.964
86037W        W58330   3.845   7.873  11.419
86038W        W58331   1.753   2.858   1.917
86039W        W58332   9.319  34.918  14.352
86040W        W58333  21.224   5.723  13.348
86041W        W58334  42.311  30.472   0.910
86042W        W58335  44.912  32.523  11.109
86043W        W58336  28.002  26.142   4.309
86044W        W58337  41.408   5.836   0.902
86045W        W58338  20.190  28.443  14.966
86046W        W58339  20.129  39.321   1.275
86047W        W58340   5.798  18.699   2.355
86048W        W58341  42.916  23.564   3.696
86049W        W58342  27.690   4.289   4.288
86050W        W58343  14.693  24.502   0.393
86051W        W58344  23.735   5.420  11.928
86052W        W58345   6.842  28.147   0.349
86053W        W58346   2.817   8.746   1.322
86054W        W58347  32.972  15.124   2.808
86055W        W58348   5.826  40.477  11.585
86056W        W58349  37.931  14.768  11.377
86057W        W58350  17.563  26.167   3.777
86058W        W58351   8.661   9.679   2.832
86059W        W58352  29.611  23.582   3.302
86060W        W58353  38.994  20.070   2.250
86061W        W58354  30.040  24.601  13.885
86062W        W58355  11.344  36.507   2.290
86063W        W58356  23.026  35.414   0.418
86064W        W58357  31.629   7.280  14.515
86065W        W58358  35.446   6.265  11.969
86066W        W58359  16.643  15.635  14.914
86067W        W58360   4.909  27.680  14.411
86068W        W58361  32.632  11.267  12.500
86069W        W58362  28.563  31.543   1.317
86070W        W58363  23.723  24.550   1.298
86071W        W58364  27.110  10.872   3.349
86072W        W58365   6.830  27.511  11.562
86073W        W58366  42.964  33.549  12.010
86074W        W58367  13.845  41.466   4.124
86075W        W58368  22.546  11.666   5.109
86076W        W58369  15.117  16.653   3.164
86077W        W58370   6.389  26.168  13.884
86078W        W58371  43.507  36.961  12.402
86079W        W58372  15.767  37.571   1.445
86080W        W58373  31.439  44.373   0.888
86081W        W58374  21.109  21.711  13.791
86082W        W58375  42.865  27.533   2.341
86083W        W58376  26.124  11.332   1.399
86084W        W58377  44.825  41.400   0.745
86085W        W58378  43.796  39.984  10.966
86086W        W58379   5.436  38.915   4.817
86087W        W58380   4.817   7.318   3.371
86088W        W58381   5.261  26.116   2.684
86089W        W58382  21.739  26.144  14.944
86090W        W58383  36.582  39.431   2.687
86091W        W58384   5.754  40.827  13.926
86092W        W58385  40.426  37.529  13.861
86093W        W58386  28.552  25.659   4.281
86094W        W58387  17.181   5.893   4.796
86095W        W58388  39.898   7.228   3.291
86096W        W58389  43.966  28.940   4.315
86097W        W58390  36.078  11.636   1.760
86098W        W58391  23.670  40.002   2.240
86099W        W58392  36.057   1.908  12.055
86100W        W58393  44.884  44.309  13.054
86101W        W58394  14.154  23.017  13.004
86102W        W58395  11.288  11.349   4.729
86103W        W58396  12.166   7.719  11.861
86104W        W58397  17.240  41.374   1.397
86105W        W58398  32.115  27.185   3.251
86106W        W58399   1.371   3.771  14.935
86107W        W58400  19.771  33.035   4.834
86108W        W58401   1.267  27.047  12.899
86109W        W58402  29.162  25.977  12.384
86110W        W58403  27.667  19.128  11.475
86111W        W58404  24.022  21.593  10.538
86112W        W58405  11.193  14.594   0.283
86113W        W58406  38.925  27.690  14.446
86114W        W58407  35.482   6.383   0.781
86115W        W58408   2.319  35.416  13.511
86116W        W58409  15.094  26.667   1.221
86117W        W58410  37.344  18.614   5.199
86118W        W58411  17.688  18.117   3.175
86119W        W58412  30.138  15.737  13.853
86120W        W58413  19.179  43.289  12.932
86121W        W58414   0.328  17.199   2.745
86122W        W58415   0.893  23.986   3.372
86123W        W58416   6.727  23.565  14.277
86124W        W58417  25.490  34.506   2.849
86125W        W58418  30.964  23.087  11.371
86126W        W58419  17.294  39.328   3.172
86127W        W58420  26.997  41.039   3.149
86128W        W58421  29.992  16.264   3.159
86129W        W58422  28.505   6.291   2.708
86130W        W58423  28.984  29.143   3.675
86131W        W58424  41.365  42.933   2.384
86132W        W58425  31.981  37.964  14.835
86133W        W58426  35.537   0.757  11.514
86134W        W58427  22.678  26.119  11.966
86135W        W58428  17.172  24.638   4.239
86136W        W58429  37.391  18.683  12.481
86137W        W58430  29.532  14.340  12.960
86138W        W58431  44.455   5.229   1.701
86139W        W58432  28.951  40.826   1.787
86140W        W58433  10.767  16.714   2.898
86141W        W58434  13.301  22.223  12.399
86142W        W58435   3.445  14.623   3.361
86143W        W58436   9.332  41.026   2.306
86144W        W58437  31.626  21.642   3.224
86145W        W58438   0.329  35.376   4.815
86146W        W58439  27.018  26.468  12.045
86147W        W58440  10.720  37.004   1.761
86148W        W58441  32.518  14.599  12.909
86149W        W58442  14.782  35.411  14.379
86150W        W58443  34.546   4.370   2.776
86151W        W58444  16.767  10.374  13.523
86152W        W58445  29.510  10.383   3.746
86153W        W58446  26.463  14.645  13.812
86154W        W58447   5.357  42.976  12.955
86155W        W58448  43.890  42.849   1.717
86156W        W58449  12.361  38.949  10.979
86157W        W58450  12.175   3.828  14.514
86158W        W58451  39.873  11.868   0.327
86159W        W58452  16.099  33.444  10.604
86160W        W58453   6.367  37.948   0.906
86161W        W58454  24.132  40.884   4.718
86162W        W58455   5.717   6.781   0.462
86163W        W58456  27.542  19.638   2.243
86164W        W58457   4.339  30.159   1.435
86165W        W58458  36.563  31.951  14.759
86166W        W58459   5.720   4.746   0.319
86167W        W58460   9.753  10.366   1.826
86168W        W58461  27.579  14.709  13.408
86169W        W58462   4.817  32.409   2.774
86170W        W58463  44.950  18.184  12.447
86171W        W58464  34.538  25.089   0.295
86172W        W58465  25.019  20.189   1.228
86173W        W58466  19.680  16.193   4.194
86174W        W58467  12.747  23.130  14.948
86175W        W58468  13.109  39.425  14.391
86176W        W58469  41.980  27.050   0.448
86177W        W58470  15.133  34.940  14.915
86178W        W58471  12.157  37.522   0.303
86179W        W58472  43.480  18.233   2.709
86180W        W58473  33.499   7.862  14.932
86181W        W58474   9.347  37.543  10.092
86182W        W58475  21.561  12.779  11.429
86183W        W58476  30.960  24.576  14.335
86184W        W58477  11.743  25.508   4.735
86185W        W58478  28.454   9.768  13.383
86186W        W58479  44.380  36.501  11.503
86187W        W58480  20.669  33.934  12.998
86188W        W58481  29.113  30.609  11.520
86189W        W58482  44.783   0.844  13.505
86190W        W58483  41.897  22.613   9.970
86191W        W58484  34.111  33.887  12.377
86192W        W58485   5.742  23.637   1.384
86193W        W58486   1.420  30.563   0.860
86194W        W58487  21.117  13.784  13.448
86195W        W58488   3.894  35.524   0.954
86196W        W58489  19.685  10.636   3.686
86197W        W58490  14.212  43.372  10.463
86198W        W58491  24.207  28.584  11.445
86199W        W58492  41.476  36.084   2.838
86200W        W58493  13.238  36.460   3.296
86201W        W58494  17.267  15.798  10.626
86202W        W58495   8.838  29.576   1.853
86203W        W58496   5.918   8.768  13.345
86204W        W58497  27.028  31.447   1.824
86205W        W58498  36.420  10.277   4.776
86206W        W58499  17.173  35.948  12.508
86207W        W58500  36.974  41.533   2.323
86208W        W58501  20.253  34.886   0.346
86209W        W58502  12.779   9.859   3.827
86210W        W58503  41.981  41.379   1.887
86211W        W58504  35.906  36.982  13.852
86212W        W58505  25.999   0.395  12.970
86213W        W58506  36.929  11.247   2.241
86214W        W58507  44.319  33.128   1.284
86215W        W58508  30.571  43.365   2.693
86216W        W58509  24.660  24.974   0.904
86217W        W58510   5.688  10.299   3.373
86218W        W58511  26.625   2.764  14.346
86219W        W58512  43.438  38.929   1.437
86220W        W58513  32.394  18.616  14.475
86221W        W58514  28.056  15.590  11.476
86222W        W58515  30.026  37.850  12.514
86223W        W58516  17.661   9.384  10.611
86224W        W58517  22.623  18.194   3.716
86225W        W58518  27.162  38.547   4.799
86226W        W58519   3.913  22.253  13.911
86227W        W58520  11.215   3.321   0.351
86228W        W58521  44.849  40.491   4.778
86229W        W58522  24.979   5.383   5.259
86230W        W58523   0.759  26.634  13.881
86231W        W58524  27.105  33.068   0.338
86232W        W58525  10.707  21.708   3.784
86233W        W58526  28.041  12.682  13.877
86234W        W58527  14.785  41.805  11.552
86235W        W58528  19.220  18.077   1.702
86236W        W58529   1.373   2.282   1.407
86237W        W58530  30.560  38.543  12.066
86238W        W58531  11.647   8.316   3.234
86239W        W58532   5.788  41.948   0.826
86240W        W58533  25.069  14.795   1.290
86241W        W58534  21.520  38.410   0.869
86242W        W58535  31.961  27.645   1.218
86243W        W58536   6.747   8.291  14.958
86244W        W58537  26.496  31.064   4.606
86245W        W58538  33.435  40.891   3.332
86246W        W58539  38.058  13.706   0.831
86247W        W58540  16.306   9.308  12.016
86248W        W58541   6.288  17.128   9.933
86249W        W58542  23.525  14.323  11.968
86250W        W58543  12.645   7.320   1.736
86251W        W58544   4.708   1.327   0.768
86252W        W58545  33.027   3.300  11.058
86253W        W58546  40.308  30.104   0.915
86254W        W58547  28.672  31.439   0.915
86255W        W58548  23.160   1.471  12.567
86256W        W58549  29.636  22.713   0.861
86257W        W58550   6.814  12.813  10.585
86258W        W58551  15.611  13.775  10.412
86259W        W58552  22.704   4.720   5.099
86260W        W58553  41.420  40.964  14.313
86261W        W58554  10.698  16.623   0.286
86262W        W58555  23.569  35.058  10.475
86263W        W58556   4.798  20.763  11.074
86264W        W58557   4.409  35.531   2.178
86265W        W58558  10.725  44.473   4.741
86266W        W58559  22.103  17.068   1.919
86267W        W58560  39.348  12.304   3.383
86268W        W58561  27.018  40.961   4.686
86269W        W58562  22.600   3.423  12.389
86270W        W58563  12.793  16.582  13.341
86271W        W58564  30.507  27.615   0.741
86272W        W58565  39.439  39.895  10.591
86273W        W58566  36.459  17.777  12.494
86274W        W58567  33.016  10.868   3.832
86275W        W58568  38.002  38.477  12.985
86276W        W58569  35.359  29.611   2.713
86277W        W58570  28.605  17.751   1.700
86278W        W58571   0.328  26.663  14.009
86279W        W58572  35.866  22.677   4.240
86280W        W58573  11.771  15.651   0.297
86281W        W58574   2.225  39.421  14.382
86282W        W58575  40.026  22.037  14.457
86283W        W58576  28.622  22.738  11.388
86284W        W58577   9.209  22.124   3.258
86285W        W58578   5.207  36.994  14.504
86286W        W58579  42.438  40.498   4.816
86287W        W58580  37.393   9.714   3.376
86288W        W58581  24.530  19.665  13.796
86289W        W58582  38.401  28.062  11.460
86290W        W58583  17.300  36.566  11.433
86291W        W58584   3.905  21.206   1.323
86292W        W58585  15.211  41.393   3.194
86293W        W58586  18.667  39.381   4.311
86294W        W58587  20.268  39.317   2.746
86295W        W58588   2.832   1.297   3.239
86296W        W58589  42.012  18.202   1.231
86297W        W58590   4.310  25.163   1.280
86298W        W58591  26.079  31.912  14.315
86299W        W58592  35.879   1.872   4.233
86300W        W58593  18.123  14.715   4.814
86301W        W58594  32.571   1.320  13.335
86302W        W58595  12.180  40.463  10.451
86303W        W58596  25.153   0.250   0.319
86304W        W58597  36.470  21.065  14.960
86305W        W58598  16.282  40.034   4.231
86306W        W58599  43.288  16.685  11.061
86307W        W58600  32.030  20.632  12.868
86308W        W58601  15.252   5.393  14.399
86309W        W58602   6.676  26.145  12.412
86310W        W58603  36.891  12.690  13.863
86311W        W58604  10.335   2.256   0.249
86312W        W58605  15.292   2.739  14.971
86313W        W58606  44.325  21.688   2.716
86314W        W58607  23.094  37.446   3.662
86315W        W58608  23.720  36.384  14.785
86316W        W58609  43.272  36.956  11.028
86317W        W58610  10.219  22.581   4.272
86318W        W58611  33.055  39.433   2.687
86319W        W58612   7.340  18.181  13.547
86320W        W58613  15.643  21.721  12.363
86321W        W58614  17.131  35.005  13.919
86322W        W58615  22.076  24.528   1.729
86323W        W58616  19.584   6.903  12.931
86324W        W58617  41.466  15.757   3.210
86325W        W58618  10.743  20.235   3.291
86326W        W58619  30.553  36.084   3.719
86327W        W58620  10.847  41.955   1.217
86328W        W58621  21.682  21.698   2.751
86329W        W58622  41.867  24.655  13.958
86330W        W58623   3.297  12.296  12.364
86331W        W58624  12.153  33.525   2.383
86332W        W58625  23.112  19.574   3.158
86333W        W58626  44.983  17.198   9.988
86334W        W58627  36.589  10.279  14.305
86335W        W58628  37.341   2.936   3.861
86336W        W58629  14.130  12.174  10.510
86337W        W58630  17.264  22.673  14.800
86338W        W58631  40.919  24.078   1.884
86339W        W58632  40.030  20.114   1.714
86340W        W58633   0.745  36.921  13.934
86341W        W58634  19.200  16.312   3.844
86342W        W58635   2.810  26.577  11.495
86343W        W58636  31.433  34.931   2.236
86344W        W58637  19.052  21.542   3.725
86345W        W58638   9.741   1.951   4.635
86346W        W58639   6.735  23.066  14.360
86347W        W58640  38.959  44.979  13.441
86348W        W58641  25.079  43.313   1.854
86349W        W58642  11.642   3.741  11.502
86350W        W58643  37.960  26.567   4.281
86351W        W58644  24.606  33.056   2.737
86352W        W58645  27.667  35.537  13.886
86353W        W58646  30.059  43.437  14.347
86354W        W58647  31.935   8.163   1.419
86355W        W58648  16.620  11.146  14.897
86356W        W58649  34.082  13.793  13.952
86357W        W58650   2.340  11.203  13.507
86358W        W58651  17.647   7.335   2.342
86359W        W58652  25.485  22.200  10.559
86360W        W58653  39.000  35.489  13.829
86361W        W58654  33.939  25.536  14.007
86362W        W58655  16.719   7.257   2.391
86363W        W58656   0.765   2.432  13.794
86364W        W58657  31.460   9.700   5.099
86365W        W58658  43.891   0.459   1.427
86366W        W58659  24.564  37.002  11.978
86367W        W58660   6.426  39.462  11.507
86368W        W58661   4.382   8.774   2.321
86369W        W58662  43.332  10.678   4.297
86370W        W58663  37.517  39.318  11.044
86371W        W58664  36.049  33.943   2.242
86372W        W58665  16.073  43.421   4.650
86373W        W58666  35.007   5.359  13.887
86374W        W58667  13.262  19.614  12.395
86375W        W58668  26.665  15.267  14.933
86376W        W58669   5.223  27.984   3.828
86377W        W58670   2.346   3.290   1.221
86378W        W58671  38.900  17.690   4.741
86379W        W58672  39.408  28.492   0.807
86380W        W58673   4.359  16.237  13.474
86381W        W58674  16.658  39.007  13.401
86382W        W58675   6.713  44.940  13.001
86383W        W58676  26.675   4.825   1.257
86384W        W58677  17.605  41.475   0.428
86385W        W58678   4.775  39.431   4.169
86386W        W58679  34.976  19.280  12.414
86387W        W58680  16.753  18.277  11.113
86388W        W58681  34.390   7.193   2.697
86389W        W58682   6.750   9.790  13.017
86390W        W58683  39.943  43.509  12.037
86391W        W58684  43.489  10.740   4.813
86392W        W58685  21.031  33.620   0.948
86393W        W58686   7.197  28.669   2.394
86394W        W58687  11.149  41.502   1.887
86395W        W58688  20.531  26.592   0.368
86396W        W58689  12.259   2.383   5.152
86397W        W58690   3.396   9.750   3.645
86398W        W58691  25.978  28.148   3.307
86399W        W58692  42.428  34.439  14.859
86400W        W58693  42.874  21.180  13.419
86401W        W58694  39.983  19.739   1.290
86402W        W58695  35.988  35.586   2.393
86403W        W58696  21.584  11.309  14.825
86404W        W58697  44.349  28.679   0.421
86405W        W58698  43.965  27.196   3.169
86406W        W58699  28.053  35.549  10.455
86407W        W58700  39.864  10.729  11.061
86408W        W58701  39.900  44.430  14.982
86409W        W58702  38.426  37.575  11.402
86410W        W58703  13.322  13.226  14.311
86411W        W58704  14.298  30.017   4.314
86412W        W58705  14.801  27.111  13.793
86413W        W58706  21.562  18.081  11.989
86414W        W58707   6.918  39.353  13.941
86415W        W58708  22.118  39.922  13.867
86416W        W58709   9.155  18.647  14.878
86417W        W58710  24.016  23.103   1.428
86418W        W58711  32.060  17.220   0.853
86419W        W58712  12.717   5.739   2.844
86420W        W58713  23.195  20.076  14.423
86421W        W58714  44.299   5.399   2.735
86422W        W58715  38.530  22.572   2.841
86423W        W58716  30.515   7.219   0.962
86424W        W58717   7.720  36.083   5.790
86425W        W58718  10.755  11.853   2.266
86426W        W58719  16.576  20.073   1.357
86427W        W58720  19.106  16.753   2.709
86428W        W58721   3.818  27.528   2.682
86429W        W58722  40.814  24.485  13.896
86430W        W58723  19.120  36.475  14.304
86431W        W58724  19.218  12.338  11.063
86432W        W58725  19.054  32.922  14.487
86433W        W58726  30.092  37.960   2.367
86434W        W58727  32.405  20.526   2.413
86435W        W58728  10.238  32.420  13.849
86436W        W58729   2.873   6.336  10.424
86437W        W58730  44.423  35.993   3.283
86438W        W58731  34.998  16.122  12.564
86439W        W58732  32.560   8.810  13.372
86440W        W58733   8.332  11.285  13.833
86441W        W58734  29.175   4.256   2.238
86442W        W58735   5.368   1.285   4.167
86443W        W58736  11.253   9.787   0.381
86444W        W58737  13.668   4.890   5.647
86445W        W58738  29.428  10.257  13.480
86446W        W58739  17.758  17.207  12.563
86447W        W58740  30.616  24.178   3.231
86448W        W58741  17.220  37.892   2.837
86449W        W58742  10.761  27.193  11.122
86450W        W58743  18.584  37.479   4.713
86451W        W58744  39.388  35.980   3.700
86452W        W58745   4.857  28.114   1.798
86453W        W58746   6.784   6.779   3.774
86454W        W58747  19.072  24.031  14.765
86455W        W58748  20.565  35.016  14.289
86456W        W58749  40.448  31.146   2.363
86457W        W58750  36.424  31.553   1.899
86458W        W58751   7.364  30.627   2.205
86459W        W58752   2.779   4.709   2.842
86460W        W58753  33.581  32.490   3.257
86461W        W58754  40.836   4.902  12.359
86462W        W58755  10.145   9.233  10.474
86463W        W58756   5.350   0.255  11.997
86464W        W58757  36.537   4.322  13.031
86465W        W58758   8.386   2.769  11.998
86466W        W58759  30.948  42.286  12.047
86467W        W58760   6.214  30.472   0.746
86468W        W58761  32.893  42.365  13.479
86469W        W58762  20.633  38.401  13.826
86470W        W58763  32.905  10.873  12.038
86471W        W58764   4.227  19.663   3.201
86472W        W58765  43.849  43.485   0.874
86473W        W58766  38.889  44.330  12.576
86474W        W58767  25.605  33.011   1.706
86475W        W58768  20.674   7.906   3.176
86476W        W58769  21.048  21.189   3.817
86477W        W58770  36.886  15.603   1.911
86478W        W58771  19.739  37.357  12.421
86479W        W58772  42.407  35.942   0.879
86480W        W58773  22.548   6.804   3.194
86481W        W58774  31.540  31.557   2.704
86482W        W58775   3.861  13.640   4.134
86483W        W58776   6.337  42.805   0.284
86484W        W58777  14.796   9.809   2.223
86485W        W58778  30.914  22.044  12.882
86486W        W58779  40.880   1.456  13.461
86487W        W58780  14.766  37.843   1.265
86488W        W58781   6.857   6.200   2.335
86489W        W58782  18.097  17.762  12.884
86490W        W58783   1.875   1.316   2.314
86491W        W58784   5.424  29.951   4.196
86492W        W58785   3.720  42.833  12.541
86493W        W58786   2.926  18.112  14.353
86494W        W58787  41.465  41.365  12.505
86495W        W58788  18.549  15.683  13.830
86496W        W58789  31.503  33.527  10.524
86497W        W58790  39.512  16.707  14.392
86498W        W58791  36.535  39.507   0.408
86499W        W58792  41.844  38.972   1.751
86500W        W58793   5.796  20.209   1.266
86501W        W58794   1.365  35.083  12.529
86502W        W58795  40.012   8.863  11.490
86503W        W58796  18.779   5.239  12.031
86504W        W58797  23.004   2.286  11.400
86505W        W58798  37.070   2.313  11.928
86506W        W58799  27.484  11.691   1.742
86507W        W58800   8.764   8.344  13.983
86508W        W58801  20.267   3.229  11.895
86509W        W58802  10.160   8.292   3.683
86510W        W58803  16.282  30.024  12.576
86511W        W58804  19.624   2.445   3.360
86512W        W58805  14.673  35.395  12.068
86513W        W58806  41.855  16.647   9.669
86514W        W58807  34.447  15.237   1.338
86515W        W58808  39.548  26.694   3.742
86516W        W58809  34.527  17.160  11.957
86517W        W58810  35.508  30.942  12.966
86518W        W58811  40.484  25.611   3.649
86519W        W58812  10.290  36.483   1.404
86520W        W58813  26.052  19.577   1.230
86521W        W58814   8.771   8.853   0.752
86522W        W58815  13.604   4.761   3.302
86523W        W58816   2.328   1.840   1.315
86524W        W58817  39.326  38.547   0.760
86525W        W58818  42.459   0.949   3.764
86526W        W58819  15.813  15.226   0.353
86527W        W58820  18.604   5.862  12.935
86528W        W58821  32.991  17.090  12.466
86529W        W58822  41.877  26.192  14.331
86530W        W58823  26.510  19.749   3.259
86531W        W58824   1.812  20.543  13.021
86532W        W58825   1.427  12.272  12.826
86533W        W58826  16.142  44.319  11.432
86534W        W58827  34.493  30.005  11.557
86535W        W58828  15.197  34.548   4.257
86536W        W58829  24.666  38.509  12.030
86537W        W58830  23.719  38.408  11.535
86538W        W58831  26.540  35.440   2.360
86539W        W58832  16.571  11.627  14.466
86540W        W58833  37.019   8.700  14.787
86541W        W58834  22.704  42.407   3.634
86542W        W58835   7.242  18.576   1.741
86543W        W58836  25.574  35.920   4.598
86544W        W58837  38.562  40.437  13.940
86545W        W58838   0.419   9.375   1.293
86546W        W58839   8.848  18.739  11.468
86547W        W58840   2.766  42.373  10.909
86548W        W58841  23.095   3.940   5.100
86549W        W58842  31.404  28.085   2.287
86550W        W58843  21.611   0.976   2.395
86551W        W58844  42.369  39.375  14.789
86552W        W58845  39.012  20.737   1.893
86553W        W58846  39.914  20.182  12.014
86554W        W58847  36.451  36.982   3.856
86555W        W58848  40.433  25.989  12.057
86556W        W58849  35.005   9.833   0.829
86557W        W58850  33.496  36.983   4.765
86558W        W58851  22.514  13.342   4.277
86559W        W58852  20.194  43.900  11.413
86560W        W58853  41.869  10.205  13.377
86561W        W58854   5.280  37.850  11.953
86562W        W58855  44.455  14.685   3.186
86563W        W58856  35.091   5.920  11.577
86564W        W58857  27.175   3.218  11.393
86565W        W58858  24.528  17.800  11.022
86566W        W58859  10.244  43.777  12.973
86567W        W58860   4.744   9.278   4.777
86568W        W58861  13.654  43.485  13.857
86569W        W58862   0.317   4.856   2.244
86570W        W58863  42.506  35.364  13.915
86571W        W58864  10.191   6.797  14.902
86572W        W58865  20.170  32.892  13.005
86573W        W58866   1.762   2.448  12.833
86574W        W58867  34.548   3.290   1.795
86575W        W58868  24.666   1.915  14.494
86576W        W58869   3.364   2.938  12.359
86577W        W58870  43.269   4.333   1.275
86578W        W58871  29.592   7.410   2.263
86579W        W58872  23.092  37.991  10.438
86580W        W58873  34.890  42.935  12.413
86581W        W58874  34.519   4.406  13.965
86582W        W58875  13.715  24.189   1.869
86583W        W58876  16.153  25.474  11.054
86584W        W58877  36.429   8.833   0.256
86585W        W58878   0.828   6.904   1.754
86586W        W58879  25.082  14.124   3.699
86587W        W58880  35.521  10.331   1.841
86588W        W58881  40.965  32.057   2.352
86589W        W58882   3.710   5.208   3.336
86590W        W58883   1.419  35.992   1.886
86591W        W58884  29.070  17.655  10.559
86592W        W58885   7.867  35.399   5.211
86593W        W58886  10.273  12.794   1.709
86594W        W58887   5.195  33.111   3.658
86595W        W58888  21.513  11.307   3.219
86596W        W58889   4.330   9.810  10.469
86597W        W58890  29.997  26.954  14.498
86598W        W58891  27.034  36.549  12.095
86599W        W58892  12.246   2.769   2.222
86600W        W58893  28.519   6.789  14.363
86601W        W58894  43.923  42.030   2.229
86602W        W58895  39.459  12.229  14.851
86603W        W58896  29.135  18.213   0.752
86604W        W58897  37.968  18.293  12.371
86605W        W58898  19.590   0.779   2.370
86606W        W58899  36.054  31.900  12.058
86607W        W58900  15.138  15.755   4.224
86608W        W58901  10.324   3.935   4.240
86609W        W58902  13.771  28.089  12.517
86610W        W58903  23.184  12.628   4.168
86611W        W58904  33.961  31.055  14.323
86612W        W58905   7.198   1.775  12.532
86613W        W58906  35.904   7.312  14.509
86614W        W58907  32.426  11.825  11.000
86615W        W58908  42.292  21.742  11.946
86616W        W58909  42.473  37.473  13.049
86617W        W58910   7.834  40.993   4.754
86618W        W58911  33.936   6.778  13.870
86619W        W58912  29.612  30.963  14.482
86620W        W58913   5.366  32.482  11.498
86621W        W58914  42.779   7.888  11.374
86622W        W58915  28.942  35.421   3.150
86623W        W58916  12.271   8.685   3.230
86624W        W58917  10.809  41.878   2.365
86625W        W58918  32.583  19.081  11.539
86626W        W58919  30.119  38.909   4.200
86627W        W58920  19.709  40.952  14.786
86628W        W58921  35.859  35.444   4.207
86629W        W58922   8.190  27.632  11.030
86630W        W58923  15.189  23.035   3.825
86631W        W58924  23.623  20.576   2.666
86632W        W58925  22.112   4.318   5.279
86633W        W58926  37.053  15.734   0.919
86634W        W58927   5.688  30.017  14.476
86635W        W58928  11.356  25.126   3.174
86636W        W58929  44.398  31.126  10.907
86637W        W58930  38.441  40.473   3.735
86638W        W58931  12.680  14.760   1.443
86639W        W58932  43.824  40.908  11.910
86640W        W58933  10.844  34.398  12.553
86641W        W58934   7.783  27.977   3.368
86642W        W58935  41.019  35.469  12.949
86643W        W58936  38.872  10.267  10.534
86644W        W58937  22.006  14.200   3.674
86645W        W58938   6.306  34.426   2.194
86646W        W58939   7.805  44.863  14.930
86647W        W58940  36.921   5.768   4.795
86648W        W58941  18.621  44.394   2.845
86649W        W58942  23.606  38.008   2.692
86650W        W58943  33.964   5.229  13.909
86651W        W58944  20.591  17.672  11.064
86652W        W58945  40.998  32.499  10.450
86653W        W58946  13.270  25.965   1.290
86654W        W58947  26.467  11.746   0.922
86655W        W58948  27.610  32.404   2.750
86656W        W58949   0.331  44.966  13.060
86657W        W58950  16.665  41.019  12.921
86658W        W58951   5.697   3.921   3.266
86659W        W58952  20.668  42.790  14.415
86660W        W58953   7.817   6.686  13.986
86661W        W58954  34.604  36.088   0.920
86662W        W58955  14.157   7.289  11.449
86663W        W58956  36.898  32.530   2.306
86664W        W58957   6.706   5.856  14.764
86665W        W58958   4.917  30.592  10.151
86666W        W58959  38.419   0.464  12.356
86667W        W58960  26.033   8.161  13.495
86668W        W58961  28.606  10.669   3.292
86669W        W58962  32.413  19.133   2.376
86670W        W58963  16.650  23.119  11.391
86671W        W58964  26.476  21.237   2.389
86672W        W58965  26.487  24.042   2.718
86673W        W58966  17.798  29.439   2.238
86674W        W58967  31.637  32.402   3.277
86675W        W58968   0.312  12.206  12.484
86676W        W58969  17.618  35.099   3.219
86677W        W58970  21.097  23.624   2.268
86678W        W58971  35.570  31.112  11.434
86679W        W58972  31.588  13.302  12.417
86680W        W58973  17.637  13.625   3.845
86681W        W58974   8.848  21.565   2.395
86682W        W58975  40.855   3.350  13.318
86683W        W58976  33.609  37.968   3.279
86684W        W58977  28.165  34.111   4.187
86685W        W58978  42.437  27.084  10.423
86686W        W58979  10.202  27.477   0.432
86687W        W58980   8.180  19.698  11.057
86688W        W58981  43.952  11.210  12.830
86689W        W58982  36.077  17.199   2.296
86690W        W58983  33.572  18.602  13.946
86691W        W58984  19.046  26.080  12.879
86692W        W58985  24.192  20.603   0.479
86693W        W58986  37.340   4.788  10.463
86694W        W58987   2.784  23.491  12.362
86695W        W58988  11.373  19.570   3.704
86696W        W58989  20.144  11.809   2.234
86697W        W58990   8.243  44.848  14.279
86698W        W58991   6.922  39.824  14.992
86699W        W58992  38.482   6.752   3.358
86700W        W58993   4.442  30.099  12.886
86701W        W58994   2.349  26.584   2.310
86702W        W58995  30.424  34.499   3.711
86703W        W58996  27.513   0.832  13.831
86704W        W58997   8.719  17.248   4.638
86705W        W58998  44.951  34.603  14.286
86706W        W58999   2.327  19.681   0.947
86707W        W59000  41.797  12.308  10.636
86708W        W59001  37.527  15.328  12.428
86709W        W59002  40.964  26.016   4.146
86710W        W59003  18.554   6.761   0.784
86711W        W59004  25.558   7.378  14.316
86712W        W59005  32.890  31.978   1.866
86713W        W59006  39.316  42.831   4.214
86714W        W59007  41.985  43.302   3.684
86715W        W59008   2.838  25.481  12.559
86716W        W59009  42.972  29.972   0.433
86717W        W59010  40.377  41.834   0.889
86718W        W59011  26.077   4.707  12.343
86719W        W59012  40.403  41.029  12.903
86720W        W59013  35.976  29.603  12.067
86721W        W59014  28.952   1.257   1.248
86722W        W59015  36.439  15.164   1.409
86723W        W59016  38.831  23.153  13.055
86724W        W59017   9.822  32.537  12.016
86725W        W59018  10.191  31.460  11.516
86726W        W59019  16.720  18.664   2.238
86727W        W59020   7.901  19.113   1.335
86728W        W59021  41.316  24.572   3.248
86729W        W59022  32.888  26.191  14.499
86730W        W59023  35.858  37.357  10.587
86731W        W59024  16.312  24.669  13.446
86732W        W59025   0.254  33.008  11.040
86733W        W59026  31.071  41.821   2.753
86734W        W59027  24.708  27.095   3.647
86735W        W59028  19.584  38.483  12.393
86736W        W59029  39.833   9.741   2.693
86737W        W59030  23.986  29.047  12.839
86738W        W59031  35.061  30.471  14.409
86739W        W59032   1.921   0.866  13.407
86740W        W59033  25.512  32.591   0.848
86741W        W59034  17.188  20.139  11.564
86742W        W59035  24.201   9.754   0.734
86743W        W59036  28.151  34.427   0.940
86744W        W59037   7.332  34.464  11.521
86745W        W59038  28.520  19.620   3.184
86746W        W59039   2.367  39.924  11.925
86747W        W59040  19.062  42.856  12.833
86748W        W59041  31.600  14.216  11.101
86749W        W59042   7.392  40.413  11.581
86750W        W59043  24.719  22.095  14.373
86751W        W59044   8.360  30.544  13.403
86752W        W59045  37.047  38.906  11.969
86753W        W59046  10.751  17.792  13.531
86754W        W59047  39.515   0.902  14.981
86755W        W59048  42.453  11.716  11.499
86756W        W59049  27.449   9.670   1.780
86757W        W59050  37.861  41.967   0.943
86758W        W59051  41.365   3.760   0.271
86759W        W59052  14.822  42.486   2.294
86760W        W59053  10.308  29.095   2.817
86761W        W59054   2.753  26.472  12.918
86762W        W59055  31.042  22.084  12.432
86763W        W59056  20.105  26.073  10.991
86764W        W59057  13.821   8.350   0.414
86765W        W59058   6.860   8.375   0.823
86766W        W59059  24.994  29.011   1.427
86767W        W59060  19.661   0.905  13.964
86768W        W59061  18.133  34.007  10.544
86769W        W59062  23.139  34.421  12.477
86770W        W59063  33.118   7.211  10.948
86771W        W59064   3.785  18.124  10.441
86772W        W59065  31.943  24.616  11.959
86773W        W59066  30.429  34.406  14.409
86774W        W59067   2.438  38.331  11.449
86775W        W59068  25.158  38.026  12.489
86776W        W59069   0.975   1.337   1.433
86777W        W59070  23.146  38.918   0.414
86778W        W59071  23.604  21.110   0.410
86779W        W59072  14.679   0.932  10.476
86780W        W59073  38.047  39.425  13.827
86781W        W59074  24.180   8.161   2.322
86782W        W59075  28.936   5.229   4.281
86783W        W59076  31.101  10.836  13.534
86784W        W59077  11.691  16.802  12.055
86785W        W59078  22.532   7.810   3.674
86786W        W59079  33.590  15.579   5.103
86787W        W59080  15.126   5.421   4.664
86788W        W59081  32.947  16.216   1.307
86789W        W59082  23.610   7.684  14.489
86790W        W59083  28.553  31.100   4.722
86791W        W59084  24.710  28.184  11.467
86792W        W59085  13.183  13.617   3.208
86793W        W59086   6.374   1.767   2.858
86794W        W59087  44.918  33.947  10.057
86795W        W59088   6.848  44.443   3.720
86796W        W59089  25.599  43.971  12.385
86797W        W59090  39.056  43.880  12.520
86798W        W59091  22.159   2.300   0.395
86799W        W59092  30.063  26.528  14.904
86800W        W59093  13.816   1.463   2.358
86801W        W59094   5.813  29.601  14.896
86802W        W59095   4.795  29.470  12.930
86803W        W59096  11.691  28.469  12.941
86804W        W59097  34.387   6.337   4.806
86805W        W59098  41.521  41.999   2.356
86806W        W59099  27.533  30.085   3.639
86807W        W59100  15.142  28.995  12.577
86808W        W59101  23.701  13.173  14.516
86809W        W59102   8.744  34.552   0.770
86810W        W59103  10.731   3.854   0.248
86811W        W59104  27.179   5.872  11.970
86812W        W59105  23.127  24.128  13.986
86813W        W59106   9.322   3.954  11.045
86814W        W59107  22.680  22.682   0.746
86815W        W59108  34.058  23.063  13.314
86816W        W59109  35.002  35.367  12.431
86817W        W59110  23.678   3.251   2.258
86818W        W59111  37.385  15.270   2.304
86819W        W59112  30.481   3.795  11.381
86820W        W59113   7.788  32.000   3.798
86821W        W59114  15.297   8.729   3.754
86822W        W59115   2.381  25.655   1.352
86823W        W59116  17.593  26.576  10.587
86824W        W59117   0.803  36.993   1.291
86825W        W59118  22.155   1.876   4.175
86826W        W59119  30.424  25.179  12.888
86827W        W59120  33.396   9.795  12.028
86828W        W59121  28.103  44.355   0.458
86829W        W59122   3.368  26.479   5.319
86830W        W59123   7.361  28.127   1.872
86831W        W59124  19.095   9.654   1.372
86832W        W59125   9.367  25.633  14.285
86833W        W59126  10.745  21.578   4.703
86834W        W59127  42.940   7.690   2.822
86835W        W59128  33.043   2.940  12.526
86836W        W59129   1.319  14.167  11.973
86837W        W59130   7.383  28.619   3.266
86838W        W59131  19.733   8.364  13.808
86839W        W59132  33.880   0.344   0.866
86840W        W59133  34.965  39.884   0.880
86841W        W59134   2.364  44.361  11.413
86842W        W59135  34.558  14.226  12.978
86843W        W59136  16.732  27.564   0.762
86844W        W59137  28.486  21.513  14.458
86845W        W59138  22.629  12.674   2.737
86846W        W59139   5.308  22.019  11.050
86847W        W59140  15.283  13.207  13.465
86848W        W59141  35.972  30.019  12.486
86849W        W59142  32.550  25.541  13.843
86850W        W59143  34.055   9.341  13.447
86851W        W59144   3.935  40.036  12.852
86852W        W59145  33.075  20.247  11.866
86853W        W59146   2.250   1.255   4.661
86854W        W59147  43.504  26.095  14.361
86855W        W59148  40.496  22.560  13.377
86856W        W59149  37.377  22.646   3.153
86857W        W59150   7.675   4.775  13.820
86858W        W59151  32.421  42.968  12.358
86859W        W59152  26.666   7.831   3.867
86860W        W59153  44.439  19.148   2.287
86861W        W59154   9.655   8.211   3.868
86862W        W59155   9.672   9.353   2.264
86863W        W59156  28.500  28.560  11.099
86864W        W59157   5.830  44.305   0.418
86865W        W59158  27.538  39.325  12.019
86866W        W59159   8.793  28.511  13.898
86867W        W59160  26.492  22.076   2.774
86868W        W59161  15.777  19.553  13.314
86869W        W59162   2.365  37.891  12.458
86870W        W59163   3.734  42.915  14.426
86871W        W59164  14.242  35.528   1.289
86872W        W59165  34.537  34.548   3.334
86873W        W59166  12.204  30.938   0.320
86874W        W59167  40.350  44.420   0.284
86875W        W59168  33.017  19.619   3.158
86876W        W59169  20.615  31.036  14.494
86877W        W59170   3.874  36.967  12.374
86878W        W59171  20.555  11.260  10.904
86879W        W59172  23.052   1.353   0.785
86880W        W59173  37.860  22.728   1.355
86881W        W59174  28.039  31.931   9.937
86882W        W59175  19.542   7.227   0.754
86883W        W59176  11.309   4.700   4.792
86884W        W59177   0.776  39.398  12.894
86885W        W59178   4.341  24.118  13.001
86886W        W59179  37.969  28.583  14.330
86887W        W59180  21.090  23.060  12.494
86888W        W59181  34.500  25.066  12.866
86889W        W59182  39.015  37.508  10.939
86890W        W59183  43.943   6.189  12.905
86891W        W59184  25.093  37.421  10.924
86892W        W59185  13.820   2.360   3.222
86893W        W59186  18.575  30.487  11.868
86894W        W59187   1.801  16.212   3.310
86895W        W59188  10.194  35.862  12.021
86896W        W59189  30.507   4.441  13.906
86897W        W59190  14.692  39.463   4.282
86898W        W59191  26.178  18.708  13.395
86899W        W59192  21.232  34.947   3.847
86900W        W59193   7.200  16.573   2.869
86901W        W59194  23.513  40.358  12.074
86902W        W59195  12.835  18.171   3.670
86903W        W59196  15.256   1.398   0.416
86904W        W59197  41.790   0.358   9.468
86905W        W59198  31.996  29.555   1.773
86906W        W59199  27.140  27.959   2.316
86907W        W59200  38.960  14.760  10.641
86908W        W59201   3.249  32.922   0.408
86909W        W59202  38.938  25.473  12.858
86910W        W59203  29.622  17.076   2.703
86911W        W59204  15.180  20.525   0.277
86912W        W59205   5.373  43.883   2.326
86913W        W59206  36.845  28.650   2.288
86914W        W59207  42.474  41.836  14.923
86915W        W59208   4.413  44.425  14.765
86916W        W59209  13.818  31.421   0.784
86917W        W59210  43.338   2.252   4.303
86918W        W59211  32.539  41.032  13.337
86919W        W59212  30.160  12.136  14.279
86920W        W59213   3.722  36.535  12.342
86921W        W59214  39.489  15.636   4.667
86922W        W59215  11.670  19.197  14.773
86923W        W59216   9.363  19.555   3.763
86924W        W59217   6.788   2.250  12.897
86925W        W59218  25.994  21.089   4.137
86926W        W59219  38.388   2.276  14.485
86927W        W59220  10.761  12.772  10.555
86928W        W59221  24.600  29.117   3.857
86929W        W59222  15.775  37.456   4.729
86930W        W59223  32.399  39.390  11.129
86931W        W59224  44.275  42.493   0.804
86932W        W59225  33.412   7.804   4.281
86933W        W59226  27.958  26.588  11.878
86934W        W59227   0.429  40.438  14.785
86935W        W59228  41.898   4.376  14.515
86936W        W59229  37.045  14.778   0.472
86937W        W59230  18.126  25.131  12.959
86938W        W59231  41.929  44.289   4.145
86939W        W59232  21.574   5.223  13.859
86940W        W59233   8.685  25.570   2.808
86941W        W59234   0.359  44.279  13.056
86942W        W59235  38.867  14.795   1.706
86943W        W59236  13.840  17.130  13.479
86944W        W59237  36.084  32.572  14.807
86945W        W59238  37.027  22.036   2.773
86946W        W59239  16.763   8.353  14.764
86947W        W59240  13.244  39.542   1.391
86948W        W59241   5.314  24.485  11.575
86949W        W59242  21.609  32.498   5.600
86950W        W59243   7.233   2.892   1.218
86951W        W59244  33.064  34.073  10.960
86952W        W59245   5.322   5.232  10.958
86953W        W59246   4.727  43.791  14.302
86954W        W59247  22.156  26.983   1.727
86955W        W59248  11.852   3.792  12.390
86956W        W59249   5.711  30.968  13.442
86957W        W59250  16.573  10.856   1.354
86958W        W59251  41.893  12.680  14.901
86959W        W59252  37.511  38.983   0.389
86960W        W59253  35.903   7.876   1.738
86961W        W59254  42.433   0.427  12.508
86962W        W59255  18.214  21.122  10.587
86963W        W59256  25.153   7.880   1.926
86964W        W59257  33.572  22.118   3.698
86965W        W59258  31.904  36.075   1.331
86966W        W59259  42.016  40.431   3.330
86967W        W59260   9.215  16.258   2.383
86968W        W59261  33.033   3.366   1.810
86969W        W59262  18.547   4.706   4.708
86970W        W59263   7.694  32.057   4.750
86971W        W59264  33.556   8.398   2.857
86972W        W59265  17.099  32.083  14.512
86973W        W59266  41.804  39.873  12.034
86974W        W59267   3.321  43.307   4.743
86975W        W59268  18.109  31.431  13.051
86976W        W59269  32.008  34.000  10.512
86977W        W59270  37.399  26.152  13.871
86978W        W59271  24.681   3.721  13.464
86979W        W59272  34.542  15.222  13.490
86980W        W59273  11.680  18.668   1.905
86981W        W59274  34.953  31.113  13.941
86982W        W59275  42.963  14.188  14.464
86983W        W59276  40.933  31.638  11.916
86984W        W59277  28.446  10.719  13.522
86985W        W59278  24.061  37.455  11.969
86986W        W59279  32.451   3.947  14.434
86987W        W59280  28.059  36.587  12.453
86988W        W59281  31.080  11.865   1.817
86989W        W59282   5.732  39.971   0.297
86990W        W59283  14.631   1.842   3.319
86991W        W59284  32.419  17.666  14.354
86992W        W59285  17.722  36.397  12.901
86993W        W59286  15.694  40.513   3.210
86994W        W59287   5.346   3.779   0.848
86995W        W59288  27.979  39.014   2.265
86996W        W59289  32.024  16.152  12.466
86997W        W59290  22.031  35.927   1.234
86998W        W59291  44.916  26.524  14.807
86999W        W59292   9.867   2.875  13.331
87000W        W59293   8.264  33.587  12.965
87001W        W59294  44.923  30.475  12.871
87002W        W59295  29.544   6.364   3.660
87003W        W59296  33.411  16.571  12.064
87004W        W59297  15.709   8.224  13.005
87005W        W59298   5.842  43.447   1.906
87006W        W59299  37.931  39.420  12.907
87007W        W59300  35.859  12.361   4.694
87008W        W59301  34.922  34.109   3.848
87009W        W59302  11.127  27.667  13.849
87010W        W59303  32.569  12.810  10.500
87011W        W59304  18.575   7.837   0.779
87012W        W59305  16.808  31.615   0.790
87013W        W59306  18.699  38.568   3.380
87014W        W59307  33.903  21.751  11.516
87015W        W59308  21.105  35.400  13.910
87016W        W59309  20.126  14.118  11.457
87017W        W59310   9.287  15.118  10.945
87018W        W59311  26.031  10.853  14.027
87019W        W59312   9.238  11.638   4.702
87020W        W59313   6.243  17.138   2.841
87021W        W59314  33.942  25.189   1.925
87022W        W59315  23.578  10.338   1.852
87023W        W59316  15.142   5.824   2.832
87024W        W59317  17.091  26.572  13.877
87025W        W59318  17.187  38.357  14.759
87026W        W59319   4.945  29.490  11.099
87027W        W59320   3.245  35.453   4.247
87028W        W59321  34.004   8.247   2.807
87029W        W59322  34.040  19.618  14.412
87030W        W59323  26.637  12.661  11.122
87031W        W59324  43.276  25.108  14.346
87032W        W59325   9.353   4.923  12.460
87033W        W59326  39.530  12.306   1.713
87034W        W59327  12.702   0.431   3.786
87035W        W59328  19.066  41.305   1.704
87036W        W59329   0.478  28.628   4.779
87037W        W59330  35.435  31.009   1.296
87038W        W59331  21.589   8.384  13.969
87039W        W59332  22.639   2.735   1.929
87040W        W59333  20.613  22.739   4.353
87041W        W59334  40.911  19.207   4.318
87042W        W59335  14.282  21.739   4.626
87043W        W59336  21.173  22.048   4.709
87044W        W59337   0.926   5.248   2.780
87045W        W59338  37.337  43.890   4.312
87046W        W59339  23.985  13.763  14.807
87047W        W59340   1.828  19.694   0.833
87048W        W59341  18.171  25.484  12.384
87049W        W59342   7.301   6.754   1.230
87050W        W59343  28.458  13.294  13.060
87051W        W59344   1.309   8.808   9.977
87052W        W59345  23.648   3.258   1.247
87053W        W59346  20.745  28.484  11.076
87054W        W59347  43.859  26.051  12.374
87055W        W59348  13.845  38.008   2.896
87056W        W59349  26.508  30.495   0.936
87057W        W59350  18.075  37.077   0.263
87058W        W59351   4.784  24.564  10.933
87059W        W59352   9.305  40.860   0.966
87060W        W59353  43.305  37.840   1.284
87061W        W59354  34.946  30.021  12.530
87062W        W59355  16.593   2.449   1.884
87063W        W59356   9.840  19.227   4.203
87064W        W59357  43.849  27.494   4.247
87065W        W59358   6.856  30.106   1.312
87066W        W59359  12.209  32.528  11.482
87067W        W59360   4.246  19.198  11.582
87068W        W59361  29.452  17.275   3.792
87069W        W59362  24.067  27.644   2.183
87070W        W59363   4.704  15.149   4.228
87071W        W59364  35.084  29.464   4.350
87072W        W59365  36.943  31.477   1.267
87073W        W59366  40.526   0.769   0.437
87074W        W59367  30.621  15.145  11.968
87075W        W59368   0.988  41.509  13.368
87076W        W59369  36.930  38.846   3.270
87077W        W59370  21.142  30.623  10.083
87078W        W59371  23.679   9.689  14.280
87079W        W59372   9.687  29.080  14.024
87080W        W59373  31.979  16.613   4.759
87081W        W59374   8.240  26.503  10.479
87082W        W59375   7.262  26.968  12.555
87083W        W59376  38.922  15.705  14.275
87084W        W59377  41.316  41.412  12.831
87085W        W59378  33.041  12.712   1.232
87086W        W59379  37.927  29.465   3.733
87087W        W59380  28.505  26.039  13.821
87088W        W59381  44.380  13.687  14.983
87089W        W59382   4.789   0.988  13.843
87090W        W59383  24.706  14.831  13.967
87091W        W59384  10.635  39.998  14.318
87092W        W59385  11.250  34.516  13.462
87093W        W59386  33.500  42.853  11.612
87094W        W59387  16.658  29.176  14.380
87095W        W59388   9.821  29.555  12.932
87096W        W59389   0.939  33.058  14.020
87097W        W59390  34.950   7.810   2.727
87098W        W59391  27.146   6.207  14.496
87099W        W59392   7.839  26.521  11.857
87100W        W59393  30.143  32.893  13.037
87101W        W59394  39.914  29.024   3.331
87102W        W59395   2.435  19.211  14.310
87103W        W59396  26.147  32.921   0.435
87104W        W59397   2.725  37.992  13.342
87105W        W59398  31.428  32.497   4.744
87106W        W59399  19.210  35.099  11.112
87107W        W59400  25.704  24.172   9.997
87108W        W59401  18.236  34.935   2.228
87109W        W59402  27.186  12.149  12.089
87110W        W59403  41.848  43.937   4.686
87111W        W59404  44.397   8.322  14.441
87112W        W59405  31.533  30.434  14.467
87113W        W59406  14.213  33.889   0.408
87114W        W59407  39.823  15.651  12.946
87115W        W59408  23.507  12.229  14.412
87116W        W59409  33.517  10.805   1.809
87117W        W59410  43.944   7.715  11.607
87118W        W59411  31.548   0.301   4.232
87119W        W59412  15.710  20.525  13.042
87120W        W59413  12.706   2.409  14.298
87121W        W59414  15.792  44.869   2.736
87122W        W59415  14.829  44.783   3.158
87123W        W59416  24.627  14.628   4.811
87124W        W59417  34.598  10.292   2.884
87125W        W59418  24.991  16.306   2.313
87126W        W59419  41.790  22.629  13.851
87127W        W59420   1.426  20.646  13.865
87128W        W59421  13.821  30.984  13.344
87129W        W59422  21.088  11.814  11.862
87130W        W59423  27.184  32.009   2.838
87131W        W59424  26.650  28.088  11.106
87132W        W59425  41.850  35.506   4.835
87133W        W59426  37.357  33.993   0.847
87134W        W59427  42.414  10.367  12.394
87135W        W59428  13.340  42.901   1.416
87136W        W59429  19.663  18.193  13.494
87137W        W59430   1.907   7.410   2.829
87138W        W59431  11.317   3.362   1.717
87139W        W59432   2.249   7.806   2.697
87140W        W59433   7.826  12.330   2.744
87141W        W59434  24.672  29.017   4.175
87142W        W59435   6.395  18.629  13.427
87143W        W59436  22.143  14.729   0.789
87144W        W59437  39.325  42.944   1.338
87145W        W59438  24.593  20.186  10.471
87146W        W59439  18.592  44.935  13.471
87147W        W59440  32.086  33.545   3.759
87148W        W59441   0.865  43.351   3.246
87149W        W59442  20.750  15.209  12.534
87150W        W59443  17.071  30.604  10.462
87151W        W59444  23.114  31.614   0.377
87152W        W59445   5.405  30.525   3.246
87153W        W59446  12.159  40.458  11.038
87154W        W59447  25.623   3.445  11.437
87155W        W59448  32.498  29.969   4.598
87156W        W59449  41.982  12.279  12.966
87157W        W59450  19.143  28.498   3.687
87158W        W59451   8.732   3.305   2.354
87159W        W59452  31.406  27.040   4.827
87160W        W59453  18.083   2.758   2.202
87161W        W59454  28.579   9.217   1.272
87162W        W59455  34.072   8.333   1.771
87163W        W59456  35.556  36.995   1.333
87164W        W59457   0.352  43.494  11.925
87165W        W59458  33.097  25.040   3.826
87166W        W59459   9.693  20.138  10.970
87167W        W59460  27.096  24.622   1.226
87168W        W59461  15.704  20.151   3.362
87169W        W59462   8.727  13.609  14.507
87170W        W59463  29.558   4.924  12.533
87171W        W59464   1.270  32.919  13.956
87172W        W59465  12.253  27.172  13.382
87173W        W59466  18.765   0.896  13.356
87174W        W59467  10.670  33.935   3.739
87175W        W59468   0.790  33.122   0.321
87176W        W59469  35.410  28.045  10.976
87177W        W59470  35.098  42.972   0.752
87178W        W59471  39.539  39.937   3.242
87179W        W59472  43.320  29.046   4.281
87180W        W59473  42.423   8.825   0.463
87181W        W59474  12.756  12.298   3.148
87182W        W59475  26.137  38.351   1.786
87183W        W59476  17.240  14.242  12.083
87184W        W59477   6.835  28.938   3.671
87185W        W59478   0.494   2.752   0.317
87186W        W59479  25.660  19.285   4.298
87187W        W59480   6.831  23.560  14.846
87188W        W59481   4.775  43.378  11.423
87189W        W59482  15.678  28.115   4.683
87190W        W59483   1.975  11.335   3.252
87191W        W59484  38.047  43.514  14.394
87192W        W59485  13.668  13.756   2.245
87193W        W59486   1.457   0.472  13.392
87194W        W59487  24.181  25.495  12.959
87195W        W59488  24.032   5.758   4.783
87196W        W59489  29.433   8.759   3.241
87197W        W59490  17.691   1.258  14.799
87198W        W59491  30.480  28.598   1.381
87199W        W59492  37.578  18.719   0.387
87200W        W59493  20.559  33.124   2.266
87201W        W59494  18.642  42.846   3.167
87202W        W59495  40.867  43.910   5.749
87203W        W59496   5.865  16.758   3.844
87204W        W59497  20.050  44.355   3.189
87205W        W59498  15.233  12.811   0.844
87206W        W59499  17.101   0.800  11.071
87207W        W59500  35.495   5.883  12.859
87208W        W59501  23.631  23.714   0.768
87209W        W59502  18.747   1.875   1.328
87210W        W59503  15.283  26.981   4.694
87211W        W59504  26.472  37.940   0.899
87212W        W59505   4.913   4.747  12.930
87213W        W59506  41.450  31.918  12.960
87214W        W59507  40.467  12.763   5.230
87215W        W59508  38.562  44.379   3.778
87216W        W59509  41.331  42.896   5.718
87217W        W59510   9.156  43.987  14.452
87218W        W59511  39.028  40.922   0.954
87219W        W59512  22.641  19.105   0.731
87220W        W59513  26.208  40.402  11.506
87221W        W59514  23.676  23.051  13.993
87222W        W59515  27.663  38.033  11.523
87223W        W59516   9.266  29.570  14.855
87224W        W59517   2.260  24.081  13.822
87225W        W59518  44.841  17.255   4.279
87226W        W59519   2.440  17.121  10.551
87227W        W59520  15.785  25.582   3.718
87228W        W59521  44.968  43.888   4.121
87229W        W59522  43.435  25.048  10.907
87230W        W59523  19.539  33.920  14.430
87231W        W59524  19.041  32.603   0.367
87232W        W59525  41.912  17.799   0.479
87233W        W59526  30.013  19.118  11.001
87234W        W59527  13.703  10.801  11.893
87235W        W59528  23.145  25.063  14.807
87236W        W59529  10.292  34.379  14.411
87237W        W59530  11.245   4.342   2.386
87238W        W59531   9.645  14.745   4.663
87239W        W59532  29.654   3.777   4.804
87240W        W59533  39.339  41.382  11.416
87241W        W59534  29.146   4.424   4.219
87242W        W59535  38.984  29.473   5.124
87243W        W59536  35.537   2.428   3.816
87244W        W59537   5.205  39.330  12.005
87245W        W59538  34.951  30.133  11.916
87246W        W59539   6.781  40.398  13.871
87247W        W59540  22.713  24.027  13.431
87248W        W59541  19.744  13.292   4.635
87249W        W59542  42.005  13.675  14.787
87250W        W59543   6.353  10.344  11.127
87251W        W59544  36.986  38.007   4.321
87252W        W59545  16.577  13.176  13.952
87253W        W59546  41.533  12.320  13.342
87254W        W59547  27.983  25.647   4.213
87255W        W59548  25.497   2.303  12.361
87256W        W59549  24.062   7.389  10.498
87257W        W59550   9.359  40.539  12.471
87258W        W59551  19.644   7.760  11.476
87259W        W59552  33.551  16.226  11.596
87260W        W59553  36.096   4.864   4.671
87261W        W59554   0.379  19.643   3.663
87262W        W59555  14.167  15.678  14.305
87263W        W59556  30.460  29.954   4.133
87264W        W59557   0.355  17.566  13.521
87265W        W59558  36.497  41.485   1.885
87266W        W59559  11.330  24.187   1.327
87267W        W59560  29.576  28.159   4.135
87268W        W59561   6.280  39.858   1.346
87269W        W59562  29.932  28.586   0.819
87270W        W59563  30.612   6.279   3.149
87271W        W59564   3.376  17.756   0.330
87272W        W59565  24.484  40.054  13.826
87273W        W59566  44.328   8.237  11.609
87274W        W59567  17.081  25.149  10.980
87275W        W59568  33.967  39.987   1.716
87276W        W59569  31.073  18.191   1.790
87277W        W59570   0.767   7.370   3.733
87278W        W59571   4.743  10.255  11.122
87279W        W59572  23.084  19.124   2.772
87280W        W59573   8.876  18.788  10.995
87281W        W59574  35.950  20.108  12.889
87282W        W59575  22.674  44.382   4.319
87283W        W59576   5.266  41.360   3.202
87284W        W59577  23.513  38.995  13.931
87285W        W59578  16.659  38.485   0.770
87286W        W59579   3.742   7.893  12.488
87287W        W59580   8.267  28.940   3.869
87288W        W59581  23.676  41.030  14.447
87289W        W59582  11.329  31.500  11.427
87290W        W59583  19.106  24.165   0.303
87291W        W59584  19.699  33.109   3.233
87292W        W59585  39.925  43.472   0.946
87293W        W59586   3.880   4.366   3.369
87294W        W59587  29.446  10.311   1.420
87295W        W59588  35.390  33.488  14.863
87296W        W59589   2.853   4.942  13.909
87297W        W59590  10.788  42.924   5.160
87298W        W59591  43.502  40.051  11.443
87299W        W59592   8.235  27.668  10.643
87300W        W59593  12.611   9.799  14.883
87301W        W59594  10.651   8.866  14.790
87302W        W59595  16.238  37.954  11.460
87303W        W59596  24.125   3.302   0.732
87304W        W59597   2.730  27.011  13.968
87305W        W59598  42.783   4.230   2.711
87306W        W59599   5.875   4.371   3.328
87307W        W59600  13.805  22.031   3.222
87308W        W59601  25.122  42.818  11.018
87309W        W59602   2.738  32.517  14.817
87310W        W59603  12.117   2.450  12.081
87311W        W59604  40.393  16.295  11.406
87312W        W59605  31.092   8.215   9.533
87313W        W59606   8.251  33.948  13.837
87314W        W59607  13.344  31.080  14.850
87315W        W59608  20.046  31.508   0.913
87316W        W59609  24.095  20.164  10.423
87317W        W59610  15.701  38.866   3.791
87318W        W59611  10.847  12.127   3.179
87319W        W59612  18.197  20.602   3.291
87320W        W59613  42.805  33.916  12.414
87321W        W59614   8.402  11.712  11.439
87322W        W59615  29.536  27.658   2.334
87323W        W59616  18.294   7.187   3.662
87324W        W59617  15.203  20.593  11.077
87325W        W59618  33.395  25.564   0.761
87326W        W59619  35.449  44.753  13.904
87327W        W59620  38.420  26.183   2.311
87328W        W59621   4.716  39.842   3.826
87329W        W59622  18.166   7.883   1.353
87330W        W59623  23.991  15.618   1.793
87331W        W59624  36.585  18.271  11.081
87332W        W59625  10.296   9.779   4.190
87333W        W59626   6.347  19.621  14.776
87334W        W59627  29.509   0.887   5.085
87335W        W59628  14.327  18.663   4.737
87336W        W59629   1.245   9.872  12.892
87337W        W59630  42.802  42.372  12.075
87338W        W59631   8.289  26.180   2.873
87339W        W59632  12.857  35.921  11.440
87340W        W59633  21.164  11.156  11.449
87341W        W59634   5.395  16.134   0.967
87342W        W59635  15.795  27.654   0.822
87343W        W59636  34.878  40.835   0.842
87344W        W59637  42.837   9.387  10.583
87345W        W59638  37.903  34.023  11.560
87346W        W59639  14.130   2.917   4.320
87347W        W59640  20.761  26.957  11.534
87348W        W59641  42.931  11.155   3.339
87349W        W59642   2.333  35.494  14.937
87350W        W59643  34.373  12.138  12.016
87351W        W59644   7.765  23.062   4.276
87352W        W59645  24.625  28.157   2.733
87353W        W59646   3.775  33.389   4.786
87354W        W59647  17.584  40.440   4.806
87355W        W59648  29.010  11.776  13.853
87356W        W59649  41.819  31.416   4.775
87357W        W59650   9.174   2.408  12.420
87358W        W59651  43.919  13.309   3.808
87359W        W59652  12.655  20.089   3.653
87360W        W59653  37.879  40.484   3.846
87361W        W59654  24.226  42.895   4.669
87362W        W59655  28.116  28.966  14.363
87363W        W59656  26.120   6.373   2.325
87364W        W59657  18.656  12.137   0.314
87365W        W59658   7.217   0.253   0.905
87366W        W59659  40.955  20.265  14.015
87367W        W59660  17.248   1.912   2.408
87368W        W59661  18.214  11.736  10.984
87369W        W59662  20.667  21.051  11.856
87370W        W59663  43.005  38.002   2.894
87371W        W59664  34.370  37.513   2.693
87372W        W59665  15.165  26.005   4.285
87373W        W59666   6.752   1.912   1.388
87374W        W59667  20.610  37.051   3.680
87375W        W59668  20.709  40.913   0.812
87376W        W59669  43.005  35.412   5.170
87377W        W59670  33.072  16.318  13.008
87378W        W59671  28.012   4.929   1.739
87379W        W59672  30.453  30.918   0.831
87380W        W59673   9.177  20.522  13.936
87381W        W59674  27.547  33.106  14.885
87382W        W59675  26.143   1.416  12.416
87383W        W59676  18.055  32.526   2.894
87384W        W59677  44.463   0.909   1.315
87385W        W59678  36.511  25.595  13.454
87386W        W59679  30.153  18.618  10.442
87387W        W59680  19.572  27.970  13.312
87388W        W59681  13.817  26.201  12.437
87389W        W59682  42.916  24.528   2.750
87390W        W59683   9.193  21.184   4.691
87391W        W59684  34.037  15.223   4.326
87392W        W59685  32.604  43.494  11.057
87393W        W59686  10.234  11.826   4.206
87394W        W59687  44.305   3.324  11.415
87395W        W59688  10.252  28.137   0.743
87396W        W59689  10.763  30.521   3.271
87397W        W59690   5.858   3.261  12.954
87398W        W59691  17.132  23.118   2.825
87399W        W59692  20.729  30.552   1.891
87400W        W59693   3.917   6.842   4.223
87401W        W59694  42.991   6.204   5.314
87402W        W59695  28.504  37.451  10.957
87403W        W59696  13.193  20.158  14.322
87404W        W59697   5.294  13.333   0.897
87405W        W59698  25.152  36.059   1.900
87406W        W59699   8.182  34.381   4.170
87407W        W59700   0.260  35.490   0.350
87408W        W59701   8.301  16.728   1.872
87409W        W59702  32.441  35.974   1.283
87410W        W59703   3.345  28.596   2.358
87411W        W59704  29.050  33.545  10.933
87412W        W59705  26.647  42.418  11.581
87413W        W59706  13.260  27.598  11.537
87414W        W59707  40.309  10.788   3.169
87415W        W59708  30.507  10.182  14.416
87416W        W59709  35.565   6.839  13.313
87417W        W59710  16.215  32.947  10.980
87418W        W59711  16.171   9.692   2.195
87419W        W59712  24.685   8.852   2.755
87420W        W59713   5.268  31.540  13.423
87421W        W59714  32.543  44.923   2.675
87422W        W59715  19.659  31.139   1.763
87423W        W59716  37.910  32.906   2.709
87424W        W59717  12.774  18.230   1.699
87425W        W59718  30.072  10.350   4.790
87426W        W59719   0.817  35.884   4.634
87427W        W59720  44.431  23.717   2.388
87428W        W59721  28.540  25.679  14.792
87429W        W59722  15.094  34.992   0.958
87430W        W59723  11.138   4.426   4.216
87431W        W59724   9.713  29.553   0.889
87432W        W59725  39.977  38.356   0.838
87433W        W59726  26.510  42.379  13.490
87434W        W59727  12.709   4.919  13.896
87435W        W59728  16.635  14.302  11.452
87436W        W59729  28.932  10.220   1.733
87437W        W59730  36.435  24.502  12.417
87438W        W59731   4.831  29.153  14.313
87439W        W59732  18.139  16.111  10.436
87440W        W59733  22.082   8.290   3.699
87441W        W59734  38.954  34.988   0.385
87442W        W59735  33.394  23.580   1.397
87443W        W59736  44.960  15.790   4.285
87444W        W59737  26.082  12.339  11.388
87445W        W59738  37.345  33.520  11.566
87446W        W59739  38.915  33.462  13.358
87447W        W59740   1.784  12.834  12.857
87448W        W59741  35.366  22.716   4.740
87449W        W59742   8.293  31.030  13.061
87450W        W59743  17.561  15.300  12.030
87451W        W59744  26.601  12.723   9.940
87452W        W59745  36.546  16.704  11.948
87453W        W59746  23.662   5.809   0.327
87454W        W59747   6.840  19.177   1.344
87455W        W59748  43.788  41.409  11.924
87456W        W59749  22.021   9.667   4.714
87457W        W59750  44.781  18.177  11.081
87458W        W59751   1.376   6.371   4.791
87459W        W59752  43.834  28.146   1.782
87460W        W59753  34.435  14.207  10.535
87461W        W59754  44.481  34.449   5.567
87462W        W59755   8.721   7.372  13.953
87463W        W59756  34.061   5.833  12.434
87464W        W59757  29.056  34.417  11.486
87465W        W59758   3.740  38.443   1.778
87466W        W59759  23.143  16.720  11.376
87467W        W59760  32.978  34.977   4.190
87468W        W59761  25.110   9.262   1.743
87469W        W59762   2.824   5.841  14.820
87470W        W59763   7.798  23.229  14.465
87471W        W59764  42.777  23.198  11.414
87472W        W59765  37.409  20.599  10.957
87473W        W59766  26.629  22.513  13.976
87474W        W59767  36.503   3.261  11.393
87475W        W59768  39.961  13.785  11.952
87476W        W59769   6.839  16.114  10.409
87477W        W59770  29.601  34.431   3.695
87478W        W59771  25.703  30.027   0.317
87479W        W59772  42.452  37.368  14.788
87480W        W59773  37.441  27.122  14.825
87481W        W59774   3.291   3.944   0.892
87482W        W59775  43.014  12.351   2.810
87483W        W59776  42.350   2.333  14.341
87484W        W59777  44.844  28.124  13.848
87485W        W59778   7.189  35.053  13.337
87486W        W59779   2.747  24.144   3.184
87487W        W59780   7.250   7.912  12.352
87488W        W59781   9.262  11.688  13.021
87489W        W59782  27.157  16.088   4.252
87490W        W59783  42.312  40.873   1.867
87491W        W59784   0.926  14.165   0.943
87492W        W59785  21.519   5.344   4.235
87493W        W59786  35.888   6.782  11.883
87494W        W59787  37.970  18.290   1.706
87495W        W59788  12.729   3.950   2.224
87496W        W59789   1.467   4.220  13.900
87497W        W59790  15.816   3.775   5.139
87498W        W59791   6.372  22.216  13.362
87499W        W59792  14.115   3.878  14.951
87500W        W59793  37.478   6.712  14.499
87501W        W59794   5.928  37.362   1.396
87502W        W59795   5.275  40.321  12.915
87503W        W59796   7.770  35.520  10.988
87504W        W59797   3.275   0.882   2.840
87505W        W59798  34.458   7.818  10.937
87506W        W59799   0.919  30.415   2.208
87507W        W59800  14.101   2.890  12.499
87508W        W59801  16.689  26.671  13.411
87509W        W59802  12.765  39.454   0.442
87510W        W59803   3.438   1.255   4.310
87511W        W59804  17.570  13.807   4.734
87512W        W59805  44.342  41.794  12.526
87513W        W59806  16.110  21.017   2.702
87514W        W59807  38.040  12.633  14.462
87515W        W59808  31.536  34.480   3.302
87516W        W59809  33.003  40.438  13.979
87517W        W59810  30.946   2.229  14.028
87518W        W59811  11.662  11.785  14.835
87519W        W59812  44.463  25.099   3.637
87520W        W59813  14.715  43.372   2.273
87521W        W59814   6.894  20.743   4.309
87522W        W59815  14.108  37.985   1.851
87523W        W59816  15.820  39.379   1.888
87524W        W59817  12.123  44.784   2.281
87525W        W59818  26.535   8.896   5.172
87526W        W59819  10.179  19.187  13.960
87527W        W59820  39.851  38.838   3.757
87528W        W59821   9.813  34.117   2.852
87529W        W59822  36.098  38.425  14.796
87530W        W59823  33.064  13.718  14.424
87531W        W59824   3.932   1.470   3.820
87532W        W59825  32.477   1.330  11.099
87533W        W59826  10.835  25.157   5.163
87534W        W59827  40.976   2.425  12.465
87535W        W59828   6.752  16.659   1.930
87536W        W59829   7.245  32.971  11.105
87537W        W59830  28.102  10.338   3.381
87538W        W59831  30.085  22.200  13.042
87539W        W59832  37.070  29.069  14.858
87540W        W59833  38.535  11.263   3.261
87541W        W59834  22.073  31.116   0.348
87542W        W59835  11.131  32.557  14.431
87543W        W59836  20.099  11.311  10.472
87544W        W59837   6.302  31.004  14.887
87545W        W59838  23.650   5.703   2.674
87546W        W59839   1.334  14.247   2.859
87547W        W59840  15.157   3.216  14.783
87548W        W59841   7.277   7.383  10.475
87549W        W59842  30.139  10.272   9.500
87550W        W59843   1.303  32.056  13.803
87551W        W59844  35.100  12.715   2.316
87552W        W59845  27.172  26.951  11.015
87553W        W59846  29.525  26.516  10.955
87554W        W59847  12.688  26.121  12.346
87555W        W59848  20.144  17.135  11.491
87556W        W59849   3.947  42.486  11.517
87557W        W59850  17.276  39.340  11.903
87558W        W59851   3.734  14.337  10.612
87559W        W59852  18.550  41.465  12.959
87560W        W59853  44.351  28.175  14.849
87561W        W59854  13.149  18.151   2.220
87562W        W59855   0.272  43.309  13.430
87563W        W59856  44.784  34.960   5.319
87564W        W59857   1.403  31.017   0.359
87565W        W59858  22.585  35.513  14.460
87566W        W59859  29.470  19.175  10.917
87567W        W59860  39.346  35.468  14.965
87568W        W59861   0.442  12.684  11.518
87569W        W59862   3.441  25.622  10.542
87570W        W59863  23.642  44.467   4.618
87571W        W59864   7.718   6.863   0.807
87572W        W59865  26.651  29.112  13.508
87573W        W59866  36.959  19.700   2.782
87574W        W59867  27.147  36.081   2.667
87575W        W59868  26.666  42.348   0.481
87576W        W59869  37.050   3.887  12.572
87577W        W59870  15.181  13.284  10.472
87578W        W59871   5.275  19.778  12.075
87579W        W59872  32.474   5.899   4.157
87580W        W59873  26.545  37.459   5.272
87581W        W59874  19.669  17.599   2.379
87582W        W59875   6.224  30.142   3.683
87583W        W59876  19.226  16.185   1.311
87584W        W59877  26.987  30.436  12.404
87585W        W59878  12.853  31.485   3.640
87586W        W59879  11.307  24.160  12.880
87587W        W59880   2.817  10.257  13.011
87588W        W59881  14.164  37.548  13.499
87589W        W59882  14.145   2.307   4.260
87590W        W59883  16.207  11.186  14.298
87591W        W59884  14.648  36.910  13.383
87592W        W59885  40.400  22.034   0.278
87593W        W59886  19.583  41.878  11.482
87594W        W59887   6.300  30.500  13.847
87595W        W59888  40.379  34.392   0.372
87596W        W59889  24.642  26.660  10.550
87597W        W59890   8.812  42.876   2.393
87598W        W59891  18.176   6.273  12.025
87599W        W59892  28.514  40.327  11.522
87600W        W59893  32.591  23.044  13.830
87601W        W59894  15.741   2.964   1.363
87602W        W59895  32.400  43.862   1.760
87603W        W59896   3.864  15.758  14.429
87604W        W59897  29.536  36.506  10.453
87605W        W59898   4.807  39.860  12.987
87606W        W59899  22.592  11.311   2.407
87607W        W59900  22.524  35.373   0.966
87608W        W59901  36.406  15.622   2.290
87609W        W59902  37.978   1.912   4.261
87610W        W59903  33.913  31.452  12.918
87611W        W59904  30.514  12.132   4.725
87612W        W59905  20.646   5.316   0.834
87613W        W59906  30.433  10.266   5.241
87614W        W59907   3.840  19.140   0.451
87615W        W59908  24.165   8.306  12.877
87616W        W59909   3.818  17.776   2.322
87617W        W59910  16.204   3.765   0.256
87618W        W59911  15.704  25.625   1.762
87619W        W59912  15.118  41.489  13.436
87620W        W59913  34.976  41.354   5.240
87621W        W59914  31.952  12.241  11.045
87622W        W59915  10.673  24.676  10.455
87623W        W59916  13.828  44.794  11.919
87624W        W59917  43.948  21.245   2.221
87625W        W59918  23.040   0.359  10.927
87626W        W59919  34.901  15.137   0.362
87627W        W59920  33.464  31.944  14.896
87628W        W59921  24.097  41.374   3.757
87629W        W59922  35.061   2.452  11.483
87630W        W59923   5.851   3.387   4.247
87631W        W59924   2.331  23.489  14.935
87632W        W59925   0.359  42.855   0.335
87633W        W59926  14.106  23.704  12.500
87634W        W59927   0.305  13.835  11.555
87635W        W59928   0.758  31.471  12.043
87636W        W59929   6.263  20.766   4.227
87637W        W59930  34.515  26.528   4.351
87638W        W59931  42.914   9.350  13.806
87639W        W59932   0.302  29.492  12.395
87640W        W59933  15.753  10.205  14.486
87641W        W59934  14.172   9.274   5.280
87642W        W59935  37.995  42.944  12.010
87643W        W59936   4.287  38.060  13.993
87644W        W59937  24.587  43.437   1.280
87645W        W59938  39.873  37.984   0.934
87646W        W59939  28.989   0.250   4.764
87647W        W59940  37.493  32.050   4.710
87648W        W59941  38.969  29.988   0.308
87649W        W59942   2.745   9.807   1.909
87650W        W59943   8.884   4.757   1.349
87651W        W59944  12.278  11.250  13.474
87652W        W59945  31.533  39.004  11.856
87653W        W59946  13.696   6.280   2.684
87654W        W59947  30.914  13.686  11.574
87655W        W59948  24.700  32.020  13.364
87656W        W59949  22.049   4.797   2.178
87657W        W59950  41.971   1.316  10.127
87658W        W59951  33.513  38.352   4.729
87659W        W59952  26.189   4.302  14.384
87660W        W59953  22.078  23.576   1.242
87661W        W59954   4.736  10.729  14.887
87662W        W59955   3.758  26.667   4.742
87663W        W59956   3.453   7.406  11.494
87664W        W59957   9.754  15.110   2.675
87665W        W59958  35.358   6.901  13.882
87666W        W59959  25.980  22.664  14.433
87667W        W59960   7.249  27.606   2.326
87668W        W59961   8.760  23.139   1.899
87669W        W59962  11.836  18.763  10.644
87670W        W59963  20.268   4.833   4.335
87671W        W59964  32.596   4.400   2.903
87672W        W59965  12.668  43.333   4.337
87673W        W59966   0.980  20.075   0.405
87674W        W59967  23.089   6.841   3.168
87675W        W59968  14.683  20.710   1.745
87676W        W59969  39.040   5.317  14.912
87677W        W59970  36.396  27.457  14.449
87678W        W59971  27.666  18.745  12.972
87679W        W59972  34.887   1.279   3.722
87680W        W59973   4.244  40.040   0.466
87681W        W59974  37.545   4.740  14.969
87682W        W59975  43.894   5.932  11.081
87683W        W59976  10.249  31.911  11.550
87684W        W59977  16.773   3.746   0.354
87685W        W59978  21.017  24.160   0.307
87686W        W59979  35.381   7.351   4.629
87687W        W59980  25.124   7.412   2.323
87688W        W59981  25.476  19.770  12.000
87689W        W59982  33.479  21.213  11.924
87690W        W59983  21.252  31.927  13.833
87691W        W59984   1.314   8.189  10.992
87692W        W59985  24.118  13.781   1.277
87693W        W59986  20.143  10.205  14.412
87694W        W59987   3.858  14.780  13.838
87695W        W59988   0.767  26.702   0.251
87696W        W59989  43.970  24.497  11.609
87697W        W59990  40.847  43.483   9.480
87698W        W59991  26.586  16.620  10.999
87699W        W59992  28.000  14.780   4.666
87700W        W59993  34.041  12.805  13.313
87701W        W59994  10.648  22.715  10.065
87702W        W59995  14.820  13.274   2.676
87703W        W59996   7.378  39.045  12.484
87704W        W59997  20.589  33.897  13.821
87705W        W59998  15.666  38.830  10.621
87706W        W59999  37.342   4.849  14.489
87707W        W60000   6.424  41.408  10.948
87708W        W60001   6.266  20.135  11.980
87709W        W60002   5.193  18.244  13.807
87710W        W60003  34.084   6.798   0.840
87711W        W60004  42.501  34.554   0.360
87712W        W60005  40.467   3.340  14.837
87713W        W60006  19.536  19.244  10.438
87714W        W60007  20.654   5.231  10.524
87715W        W60008  24.538  12.343  11.005
87716W        W60009  34.032  38.471  12.916
87717W        W60010  20.743  18.290   4.194
87718W        W60011  31.027   9.340  14.378
87719W        W60012  25.602  17.265  13.411
87720W        W60013   3.366  12.652   0.426
87721W        W60014  21.557  10.674  12.569
87722W        W60015  31.927  42.021   4.327
87723W        W60016  21.550  41.343   2.857
87724W        W60017  12.840   7.863  11.577
87725W        W60018  33.046  15.824   2.893
87726W        W60019  16.721  12.227  12.484
87727W        W60020  43.775   1.284  12.054
87728W        W60021  19.247  41.838   3.834
87729W        W60022  10.331   5.427   0.847
87730W        W60023  14.300  23.137   4.668
87731W        W60024  21.187  39.347  14.004
87732W        W60025  24.677  23.688   2.747
87733W        W60026  12.251  13.106   3.822
87734W        W60027  26.590  25.686   1.772
87735W        W60028  37.035   7.741   4.810
87736W        W60029  39.470  34.549   3.377
87737W        W60030  14.279  29.641  11.390
87738W        W60031  32.421  37.450  13.495
87739W        W60032  19.582  42.487  14.951
87740W        W60033  35.109   0.969   2.213
87741W        W60034  25.660  19.709  10.134
87742W        W60035  26.539  17.260  13.350
87743W        W60036  27.034  31.143  12.523
87744W        W60037  44.974  31.585  10.587
87745W        W60038  17.728  41.911   2.856
87746W        W60039   2.314  25.552  11.540
87747W        W60040  33.480  32.032  12.877
87748W        W60041   3.775  23.084   1.915
87749W        W60042  15.136   5.362  14.921
87750W        W60043  33.406  44.937   0.855
87751W        W60044  22.506  17.105   3.746
87752W        W60045  34.402  10.727  14.941
87753W        W60046  37.410  29.972  11.036
87754W        W60047  37.031  41.971   2.770
87755W        W60048   1.449  38.897  13.951
87756W        W60049  22.523  28.954   3.783
87757W        W60050   9.744  11.279   0.962
87758W        W60051  37.439  41.291   4.713
87759W        W60052  16.679   9.274  11.101
87760W        W60053  36.394  24.111   0.967
87761W        W60054  17.152  15.155  10.917
87762W        W60055   6.397  33.032   3.376
87763W        W60056  31.123  44.895   3.265
87764W        W60057  31.579   7.252  11.411
87765W        W60058  20.523  27.098  10.505
87766W        W60059   0.366  27.690   0.385
87767W        W60060  31.917  38.964  13.922
87768W        W60061  17.703   1.271   3.833
87769W        W60062  13.712   8.698  14.294
87770W        W60063  39.839  17.290  14.780
87771W        W60064  41.433  16.759   2.673
87772W        W60065  25.962   2.347  12.363
87773W        W60066  11.646  17.719   3.795
87774W        W60067  13.606  35.011   4.726
87775W        W60068  31.611  40.000   4.279
87776W        W60069  42.293   4.801  13.448
87777W        W60070  22.503  14.122   1.859
87778W        W60071  30.541  35.924  14.285
87779W        W60072  17.653  43.942  14.457
87780W        W60073   3.387  21.708   0.381
87781W        W60074  19.564  29.144   4.269
87782W        W60075  39.450   6.189  14.766
87783W        W60076  14.605  36.879   4.794
87784W        W60077  29.160  17.244  11.063
87785W        W60078  43.390  12.748  11.601
87786W        W60079  31.987  11.146  13.035
87787W        W60080  31.576  17.063   4.154
87788W        W60081  29.990  22.567  11.095
87789W        W60082  33.975   0.474  11.522
87790W        W60083  27.683  20.167   2.871
87791W        W60084  24.589  27.497   4.806
87792W        W60085  35.363  35.415  13.534
87793W        W60086  32.888  42.873   1.392
87794W        W60087  29.171  11.693  12.929
87795W        W60088  34.509  28.533   2.265
87796W        W60089   5.704  43.970  14.014
87797W        W60090   0.921  27.961  13.926
87798W        W60091  10.312  14.260   4.238
87799W        W60092  19.692  36.002   4.832
87800W        W60093  19.535  11.688   3.262
87801W        W60094  18.166  31.114   0.913
87802W        W60095  35.500  31.586  11.119
87803W        W60096   3.826  18.625   3.225
87804W        W60097   6.750   0.444   0.739
87805W        W60098   6.182  13.804  11.897
87806W        W60099  29.599  32.119  12.874
87807W        W60100  29.510   5.244  13.471
87808W        W60101   2.909   6.812   1.316
87809W        W60102  43.276   3.323  11.903
87810W        W60103  26.089   9.713  12.926
87811W        W60104  34.906  24.587  12.046
87812W        W60105  14.178  27.563   4.274
87813W        W60106   5.906   5.691  13.528
87814W        W60107   5.250  44.498   0.350
87815W        W60108  21.606  26.039   2.884
87816W        W60109  29.998  24.512  10.643
87817W        W60110  38.466  32.567   1.268
87818W        W60111   1.845  41.366  10.930
87819W        W60112  26.121  22.092   0.918
87820W        W60113  30.462   6.784   1.932
87821W        W60114  26.478   0.941   4.209
87822W        W60115  16.291  13.731   1.788
87823W        W60116  21.636   1.340   0.396
87824W        W60117  14.589  14.127   2.665
87825W        W60118  43.510  11.149  11.096
87826W        W60119  30.099   2.447   2.782
87827W        W60120  31.562  35.969  13.828
87828W        W60121   1.949  35.083  13.793
87829W        W60122  29.016  34.049   4.210
87830W        W60123  28.993  24.581  12.522
87831W        W60124  44.760  33.897  10.991
87832W        W60125   0.352   6.834  13.319
87833W        W60126   6.329  37.039   3.859
87834W        W60127   9.681  30.005   2.233
87835W        W60128  28.985  11.257  10.969
87836W        W60129  27.627  35.104   0.961
87837W        W60130   8.311   3.910   4.145
87838W        W60131  40.933  11.145   0.904
87839W        W60132  35.009  39.001  10.439
87840W        W60133   8.195  13.607   0.955
87841W        W60134  38.539  10.739   3.211
87842W        W60135  35.517   2.892  14.509
87843W        W60136   6.736  35.097  14.936
87844W        W60137  37.531  13.155  14.820
87845W        W60138  30.031   1.396  13.325
87846W        W60139  10.658  43.321   1.721
87847W        W60140  33.499  13.737  12.887
87848W        W60141  43.938  30.527   4.663
87849W        W60142   7.794  13.320   3.284
87850W        W60143   8.320  19.153  13.353
87851W        W60144   5.343  14.135  11.562
87852W        W60145  15.319  41.963   3.684
87853W        W60146  21.085   1.330  11.039
87854W        W60147  24.203  10.839   4.808
87855W        W60148  29.161  35.918  14.285
87856W        W60149   6.906  23.094   3.868
87857W        W60150  40.938  34.098   2.885
87858W        W60151  21.256   4.217  14.803
87859W        W60152  30.569  34.466  13.454
87860W        W60153  27.649  17.756   4.328
87861W        W60154  19.741  26.013  13.464
87862W        W60155   3.300  38.340   0.461
87863W        W60156  39.934  39.825   0.787
87864W        W60157  21.694  43.389  13.884
87865W        W60158   4.376  15.677   0.743
87866W        W60159   1.387  30.570  13.944
87867W        W60160  42.361  31.920   0.753
87868W        W60161  21.636  37.864   4.166
87869W        W60162  33.910  20.200   0.867
87870W        W60163  20.075  22.600  11.125
87871W        W60164  44.990  44.880   3.701
87872W        W60165  29.573  24.572  12.482
87873W        W60166  43.513  30.969   4.600
87874W        W60167  10.751  14.754  10.926
87875W        W60168   8.813  11.365  12.355
87876W        W60169  10.732   0.819   1.245
87877W        W60170  31.983  21.516  11.973
87878W        W60171   9.697  16.689   0.289
87879W        W60172  30.448  31.439  12.057
87880W        W60173  34.414   5.367  11.879
87881W        W60174  16.228  39.474  10.608
87882W        W60175   0.814  35.099  10.628
87883W        W60176   9.716  31.035  11.000
87884W        W60177  44.308  15.811   2.409
87885W        W60178   5.379  39.023  13.856
87886W        W60179   3.249  11.234   0.417
87887W        W60180  33.026  21.084   2.180
87888W        W60181  18.157  20.086   4.737
87889W        W60182  37.985  25.013   0.262
87890W        W60183  16.122  19.117  14.879
87891W        W60184  35.106  12.727  11.097
87892W        W60185  13.304  32.526   0.836
87893W        W60186  35.974  13.675  14.952
87894W        W60187  10.263  40.993   3.278
87895W        W60188  15.743  21.617   2.759
87896W        W60189  37.387  20.529   3.725
87897W        W60190  34.976  31.475   1.232
87898W        W60191  19.669  17.225   5.236
87899W        W60192   7.226  12.201   4.806
87900W        W60193  38.413  29.991  12.923
87901W        W60194   9.867  12.124   1.382
87902W        W60195  43.950  20.089  13.467
87903W        W60196  12.839  30.069   2.341
87904W        W60197   6.822  27.026   0.936
87905W        W60198   4.889  33.610   4.181
87906W        W60199   9.768  27.668   4.622
87907W        W60200  22.070  28.613  11.529
87908W        W60201  17.780  44.386  11.390
87909W        W60202  13.185  32.965  12.859
87910W        W60203  37.020  12.645   3.682
87911W        W60204  26.007  39.812  11.572
87912W        W60205   4.298   8.723   0.347
87913W        W60206  33.611  15.187  10.548
87914W        W60207  31.053  24.072   2.793
87915W        W60208   8.330   5.738  12.473
87916W        W60209   3.822  12.763   0.849
87917W        W60210  16.093  26.637  10.596
87918W        W60211  28.165   6.350  14.883
87919W        W60212  26.469  19.252  11.438
87920W        W60213  29.070  23.149  11.914
87921W        W60214  19.189  34.475  11.897
87922W        W60215  25.612  26.698   1.779
87923W        W60216  21.728  27.622  12.077
87924W        W60217   5.908  29.995  10.641
87925W        W60218   8.778   4.760  11.102
87926W        W60219  33.381  12.639  10.978
87927W        W60220  33.972  38.556   0.382
87928W        W60221  33.970  32.399   3.640
87929W        W60222  21.134  30.025   0.845
87930W        W60223   9.340  34.926  11.040
87931W        W60224   1.898  23.518   4.184
87932W        W60225  28.052  38.043  12.560
87933W        W60226  20.192   0.361   1.446
87934W        W60227  30.006   6.302   4.201
87935W        W60228  33.406  23.522  13.378
87936W        W60229  30.572  20.199   2.761
87937W        W60230  44.831  12.689   4.129
87938W        W60231  23.184  14.215  10.993
87939W        W60232  42.378  34.097  14.031
87940W        W60233  44.791  18.722   5.216
87941W        W60234  40.019  22.154  13.833
87942W        W60235   2.776  23.606   0.463
87943W        W60236   3.922  30.946   4.183
87944W        W60237  10.753  19.652   4.241
87945W        W60238  23.552  31.471   3.846
87946W        W60239   7.409   0.980   1.868
87947W        W60240  13.700  34.942  11.128
87948W        W60241  23.139  35.422   0.872
87949W        W60242  26.025  32.534   2.187
87950W        W60243   4.757  10.667  11.611
87951W        W60244   6.281  11.175  13.817
87952W        W60245  26.191  34.894  12.447
87953W        W60246  41.361  36.993   1.862
87954W        W60247  24.031   0.847  11.922
87955W        W60248  39.978   7.232  14.459
87956W        W60249  25.213  29.166   4.274
87957W        W60250  12.810  38.054  12.379
87958W        W60251  11.362  29.063  11.108
87959W        W60252  31.497  40.831  11.950
87960W        W60253  42.845   7.679   5.083
87961W        W60254  14.807   0.262  11.877
87962W        W60255   4.204   5.347  14.886
87963W        W60256  17.679   4.307   3.239
87964W        W60257  34.076   8.797   2.784
87965W        W60258   2.798  35.056  10.580
87966W        W60259  35.380  30.555  12.552
87967W        W60260  18.576  42.839   2.197
87968W        W60261  24.153   0.276  12.934
87969W        W60262  14.295   2.320  10.583
87970W        W60263  22.706  38.003  11.880
87971W        W60264   8.371  25.713  13.447
87972W        W60265  41.473  22.213   4.765
87973W        W60266  10.320  13.334  13.032
87974W        W60267   8.227  30.975   3.722
87975W        W60268  35.070  42.017   3.361
87976W        W60269  42.321  12.139   2.692
87977W        W60270  39.846   7.784   1.362
87978W        W60271  25.555   6.853   2.815
87979W        W60272   8.667   4.417  10.950
87980W        W60273  34.427  13.200  12.568
87981W        W60274  19.091  42.419  12.089
87982W        W60275  43.289  32.398  14.409
87983W        W60276  11.321   9.234  11.045
87984W        W60277  40.836  36.030   1.268
87985W        W60278  30.051  30.012   1.216
87986W        W60279   2.332  13.116   0.390
87987W        W60280  21.730  18.087   3.729
87988W        W60281  19.736  37.985   1.770
87989W        W60282  41.414  15.314   4.765
87990W        W60283  44.772   6.413   3.186
87991W        W60284   8.351  35.901   0.438
87992W        W60285   0.923  23.053   3.373
87993W        W60286   1.380  16.295   4.680
87994W        W60287  17.629  22.632  13.459
87995W        W60288  30.485   8.323   1.431
87996W        W60289  21.106  19.614  10.055
87997W        W60290   1.292  39.883  11.598
87998W        W60291  30.978  19.572  12.374
87999W        W60292  13.167  42.379  13.447
88000W        W60293  38.481  22.733  12.056
88001W        W60294  44.414  43.936  11.017
88002W        W60295  14.128  11.762   4.711
88003W        W60296  21.246   1.972   2.309
88004W        W60297  15.628  23.038   0.245
88005W        W60298  20.576  34.918  13.457
88006W        W60299  23.544  20.744   3.775
88007W        W60300  17.192  24.551  13.959
88008W        W60301  43.884   8.877  12.455
88009W        W60302  37.850   8.295  12.442
88010W        W60303  20.131   1.306  12.828
88011W        W60304   0.320   3.927  12.868
88012W        W60305  41.337  33.106  11.510
88013W        W60306   2.403  37.484  11.916
88014W        W60307  44.919  26.671  10.968
88015W        W60308  41.386  39.336   2.350
88016W        W60309  44.351  40.540  12.834
88017W        W60310  37.434  30.953   1.840
88018W        W60311  32.886   8.355  10.956
88019W        W60312   2.255  26.973  14.868
88020W        W60313  18.653   4.390   4.166
88021W        W60314  36.036  19.731  11.012
88022W        W60315  20.616  34.062   3.764
88023W        W60316  16.591   6.691  13.796
88024W        W60317   9.391  20.094   4.820
88025W        W60318  26.459   6.779  13.837
88026W        W60319  10.283  42.469   3.173
88027W        W60320  32.608  12.300   3.725
88028W        W60321   1.453   0.270   1.329
88029W        W60322   9.204   0.393   4.802
88030W        W60323   7.310  26.160   0.483
88031W        W60324  19.166  21.058   9.658
88032W        W60325  33.485  42.860   5.198
88033W        W60326  13.326   3.330   2.219
88034W        W60327   9.723  41.325   2.349
88035W        W60328  36.482  14.781   4.631
88036W        W60329  11.306  18.660  12.961
88037W        W60330  21.709  25.580  13.327
88038W        W60331  18.183  24.153   1.294
88039W        W60332   4.779  38.426   5.225
88040W        W60333  26.076  23.654  10.910
88041W        W60334  35.941  25.661  14.763
88042W        W60335   3.918  42.455   3.224
88043W        W60336   1.258  16.736   1.233
88044W        W60337   4.698  32.064  14.420
88045W        W60338  44.294  35.404   4.138
88046W        W60339  28.113  38.386  13.325
88047W        W60340  41.349   3.828   1.401
88048W        W60341  20.274   9.762   1.806
88049W        W60342  15.789  17.601  13.948
88050W        W60343  24.990  19.203   4.812
88051W        W60344  26.519  36.056   1.712
88052W        W60345   8.686   9.184  13.879
88053W        W60346  15.127  40.398   4.310
88054W        W60347   1.748  37.894  12.374
88055W        W60348  30.440  32.062  11.908
88056W        W60349   5.737   8.756   0.838
88057W        W60350  43.278  23.181  14.926
88058W        W60351  17.687  24.119  13.950
88059W        W60352  34.592  12.831  14.321
88060W        W60353  36.962  21.655   0.932
88061W        W60354  27.560   7.712   3.632
88062W        W60355  15.802  16.753   2.705
88063W        W60356  37.972  17.129  14.836
88064W        W60357   2.851   9.192   3.243
88065W        W60358  24.163  33.381  13.905
88066W        W60359  26.133   1.332  10.414
88067W        W60360  17.760  33.523   0.272
88068W        W60361  44.357  10.237   1.267
88069W        W60362  21.730  39.993   0.825
88070W        W60363  33.555  25.544  13.475
88071W        W60364  31.471   3.763   4.160
88072W        W60365  17.643  28.076  14.809
88073W        W60366  20.728   0.792  13.488
88074W        W60367  32.016  36.907  11.484
88075W        W60368   2.795   5.820   0.941
88076W        W60369   4.245   4.843  13.491
88077W        W60370   6.746  42.897   0.427
88078W        W60371   5.781   1.772   3.263
88079W        W60372  18.246  29.166   2.798
88080W        W60373  19.633  42.314  10.995
88081W        W60374  31.945  39.942   0.342
88082W        W60375  19.204   1.745   2.389
88083W        W60376  42.330  41.814   4.721
88084W        W60377  42.896  11.643  13.401
88085W        W60378  16.707  36.579   1.368
88086W        W60379  27.968   8.389   3.825
88087W        W60380  41.447   0.407   1.886
88088W        W60381  40.940  34.915   1.698
88089W        W60382   6.200  42.856  13.445
88090W        W60383  26.025  12.149   0.415
88091W        W60384  21.110   3.927  12.943
88092W        W60385   9.250  35.512  11.470
88093W        W60386   1.939  25.505  12.978
88094W        W60387  21.044  26.618   0.899
88095W        W60388  44.846  35.495  12.866
88096W        W60389  29.083  41.903   2.792
88097W        W60390  37.582  29.513   4.769
88098W        W60391  43.334   9.741   3.801
88099W        W60392   4.867  34.015  11.874
88100W        W60393  12.250  37.495  12.966
88101W        W60394  31.074  44.434  12.066
88102W        W60395   1.893   1.392  12.568
88103W        W60396  17.626   0.402  14.778
88104W        W60397  39.473   0.966   0.902
88105W        W60398  29.433   5.408   3.312
88106W        W60399  44.794   7.711  12.832
88107W        W60400  38.029  30.933   4.290
88108W        W60401  23.233  24.514  12.375
88109W        W60402  21.260  34.382   3.224
88110W        W60403  38.820  32.065   5.207
88111W        W60404  32.104  38.497  13.366
88112W        W60405  15.709   5.409  11.496
88113W        W60406   9.729  32.523  12.918
88114W        W60407  42.341  16.598   2.322
88115W        W60408  32.112  21.063   4.269
88116W        W60409  12.164   4.837  12.471
88117W        W60410  37.938   0.904   1.284
88118W        W60411  26.523  42.398   4.651
88119W        W60412   0.390  18.767   3.720
88120W        W60413  17.158  12.781   3.377
88121W        W60414  28.154  42.336  12.911
88122W        W60415  41.010  30.505   2.839
88123W        W60416  28.627  22.629   1.695
88124W        W60417  15.265   6.390  12.573
88125W        W60418  44.976  38.983   2.785
88126W        W60419  38.952   4.331  10.521
88127W        W60420   7.865  40.370  10.590
88128W        W60421  41.530  17.294   0.746
88129W        W60422  30.983  10.295  12.990
88130W        W60423  36.440   5.399   3.259
88131W        W60424  14.223  21.094  14.471
88132W        W60425  44.354  44.426   1.376
88133W        W60426  28.109  27.089   0.820
88134W        W60427  16.807  26.675   2.311
88135W        W60428  31.005  33.478  12.529
88136W        W60429  23.704  35.943   2.325
88137W        W60430  35.474   4.702  10.418
88138W        W60431  36.844   5.728  11.525
88139W        W60432  25.991  24.523  11.073
88140W        W60433  20.583   2.304  14.387
88141W        W60434  13.787  33.398  14.031
88142W        W60435  35.508  22.170   3.699
88143W        W60436  30.979  24.572  10.475
88144W        W60437  32.527  26.961  13.870
88145W        W60438   1.239  38.518   2.324
88146W        W60439  18.663  22.703   2.288
88147W        W60440   4.749   9.812  10.991
88148W        W60441   7.858  30.448   2.734
88149W        W60442  24.630  34.415  11.584
88150W        W60443  27.009  29.964  14.409
88151W        W60444  25.168  26.122   1.216
88152W        W60445  31.078   9.229   1.910
88153W        W60446  10.320  27.476   3.223
88154W        W60447  22.725  17.195   0.736
88155W        W60448  16.303  23.238  12.494
88156W        W60449  30.128  26.064  12.373
88157W        W60450  16.811  37.445   4.324
88158W        W60451  39.336  31.598   3.219
88159W        W60452  42.932   8.200   1.310
88160W        W60453  16.119  34.054  13.383
88161W        W60454   1.831  29.511   1.353
88162W        W60455  42.423  33.129  11.524
88163W        W60456   0.874  40.825  11.126
88164W        W60457  22.121  33.108   3.307
88165W        W60458  14.215  18.680  12.915
88166W        W60459  26.657  22.158   3.364
88167W        W60460  13.310  27.173  11.559
88168W        W60461   9.841  44.000  14.951
88169W        W60462  27.684  21.752   0.762
88170W        W60463  27.451  18.173   0.771
88171W        W60464  40.028  12.834   3.668
88172W        W60465  13.276  40.357   0.857
88173W        W60466  30.634  43.301  12.369
88174W        W60467  43.271  36.528  11.098
88175W        W60468  43.822   2.300   4.256
88176W        W60469  38.967  18.142  14.278
88177W        W60470  20.673  41.886  11.509
88178W        W60471   7.851  44.782   2.306
88179W        W60472  14.149  17.568   3.336
88180W        W60473   8.719   3.810   0.295
88181W        W60474   9.760   7.328   4.660
88182W        W60475  41.830   1.394   2.266
88183W        W60476  37.380  35.103  12.518
88184W        W60477  23.191  24.689   3.676
88185W        W60478  38.900  14.302  13.530
88186W        W60479  31.626  15.784   1.742
88187W        W60480  28.141  18.692   5.271
88188W        W60481   2.325  40.872   3.333
88189W        W60482  43.848  21.059   4.816
88190W        W60483  39.948   4.750  10.430
88191W        W60484  26.622  31.967  10.098
88192W        W60485   7.768  24.106  12.012
88193W        W60486   2.268  10.726  14.961
88194W        W60487  39.461  35.077  13.932
88195W        W60488   0.438  16.138  10.574
88196W        W60489  18.175  25.137  14.319
88197W        W60490  21.563  13.659   4.252
88198W        W60491  40.516   4.321  10.519
88199W        W60492  20.593  38.334   4.193
88200W        W60493  30.438  33.913   4.702
88201W        W60494  37.925  22.562   3.670
88202W        W60495  15.821  17.256   3.857
88203W        W60496  13.291  27.960   0.897
88204W        W60497  11.314  22.128   2.877
88205W        W60498  29.051  16.087   3.268
88206W        W60499  35.378   9.677  14.820
88207W        W60500  21.648  31.422   4.781
88208W        W60501  32.446   5.233   0.250
88209W        W60502   7.706  42.352   4.688
88210W        W60503  35.568  32.937   3.675
88211W        W60504  36.953   6.224  14.995
88212W        W60505  34.602  35.404   3.758
88213W        W60506  30.418   2.858  13.858
88214W        W60507  36.395  42.293   4.178
88215W        W60508  24.067  27.197   2.838
88216W        W60509  15.236  39.850   2.275
88217W        W60510  35.398  18.097  14.980
88218W        W60511  18.191  21.595  12.342
88219W        W60512   8.323  18.673  13.791
88220W        W60513  24.594  41.399  12.093
88221W        W60514  32.935  29.611  11.994
88222W        W60515   7.353  19.192  14.958
88223W        W60516  44.388  22.566  11.476
88224W        W60517  44.961  18.181   2.734
88225W        W60518  15.711   0.812   3.639
88226W        W60519   2.319   7.720  11.529
88227W        W60520  23.615  31.924  11.023
88228W        W60521  23.668  28.438  13.849
88229W        W60522  33.392  23.079   4.196
88230W        W60523  34.593   3.714   4.685
88231W        W60524  40.831  31.144   4.209
88232W        W60525  31.452  26.100  12.513
88233W        W60526  41.884   4.755  14.025
88234W        W60527  40.358   1.406   2.672
88235W        W60528  32.528  44.342   4.294
88236W        W60529  20.191   4.741  11.506
88237W        W60530  41.827  30.511  10.053
88238W        W60531  14.306  30.111  10.906
88239W        W60532  19.747  39.885   4.351
88240W        W60533   2.325   6.783   3.747
88241W        W60534  33.599  12.168   4.813
88242W        W60535  40.424  25.492  14.292
88243W        W60536  21.597  13.610   1.308
88244W        W60537   6.880  10.248  13.478
88245W        W60538  25.013  27.192  10.922
88246W        W60539  41.388  23.214  12.824
88247W        W60540  18.777  38.360   2.902
88248W        W60541   6.820  39.928   4.247
88249W        W60542  29.531  40.414  13.804
88250W        W60543  28.037  11.250  14.390
88251W        W60544  20.702  28.180  10.441
88252W        W60545   6.870  44.827  11.406
88253W        W60546  14.791  30.422  13.540
88254W        W60547  22.653  41.929  14.421
88255W        W60548   9.870  27.020   2.236
88256W        W60549  12.775  24.480   2.831
88257W        W60550   7.324  41.835   0.959
88258W        W60551  35.020  31.644  10.905
88259W        W60552  11.798  35.019  11.511
88260W        W60553  15.177  31.090  13.463
88261W        W60554   6.784  33.984   9.449
88262W        W60555  29.551  16.267   3.246
88263W        W60556   3.216  19.104   2.392
88264W        W60557  38.473   1.830   0.338
88265W        W60558   2.906  39.498  13.373
88266W        W60559   6.780   1.308  12.977
88267W        W60560  24.030   0.850  10.493
88268W        W60561  38.824  21.139   3.664
88269W        W60562  16.304  17.658  11.886
88270W        W60563  29.624  15.122   4.319
88271W        W60564   8.831  14.832  12.530
88272W        W60565   8.258  29.980   2.823
88273W        W60566  21.074  21.053  11.975
88274W        W60567  20.563  13.199  11.080
88275W        W60568  30.616  39.470  11.976
88276W        W60569  22.615  34.019  14.009
88277W        W60570  11.630  26.535  10.641
88278W        W60571  39.328  28.931   2.901
88279W        W60572  36.564  25.093  11.956
88280W        W60573   7.835  43.329  14.842
88281W        W60574  40.861  15.134  10.450
88282W        W60575  13.754   1.381  14.977
88283W        W60576  37.364  34.452  10.922
88284W        W60577  15.233  33.399   1.233
88285W        W60578  23.029   9.679   2.838
88286W        W60579   7.688   0.451   4.639
88287W        W60580  31.516  11.640  13.465
88288W        W60581  38.904  37.459  13.501
88289W        W60582  39.063  29.486  14.881
88290W        W60583  40.540  13.247  13.365
88291W        W60584  25.523  14.830   0.931
88292W        W60585   8.866  26.635   3.697
88293W        W60586  35.007   2.319   4.291
88294W        W60587  16.090   5.917   2.726
88295W        W60588  17.800  23.734  12.982
88296W        W60589  44.375   9.178  12.445
88297W        W60590   4.263   7.189   0.372
88298W        W60591  26.970  24.021   2.724
88299W        W60592   8.829  27.687   3.208
88300W        W60593  35.506  39.968  14.944
88301W        W60594  14.782  40.828   1.391
88302W        W60595   7.722   8.792   5.294
88303W        W60596  29.139  23.687   0.773
88304W        W60597  29.631  37.380   3.244
88305W        W60598  28.667   3.421   0.954
88306W        W60599   5.764   8.820  14.014
88307W        W60600  13.798   9.307   1.408
88308W        W60601  25.206  39.042   4.638
88309W        W60602  19.227  24.231  10.641
88310W        W60603  39.904  30.068   0.384
88311W        W60604  16.571  21.031  14.904
88312W        W60605  36.958  34.116  11.933
88313W        W60606  20.580  23.098  13.055
88314W        W60607   3.283  34.931  14.029
88315W        W60608   8.398  36.497   2.204
88316W        W60609  13.688  11.768  13.312
88317W        W60610  15.312   2.905   2.683
88318W        W60611  13.228  17.304   1.293
88319W        W60612  14.121  25.080   1.421
88320W        W60613  11.371  27.176  12.448
88321W        W60614   1.878  28.545  11.030
88322W        W60615   3.396  38.423  13.055
88323W        W60616   0.870  37.874   1.730
88324W        W60617  12.757  33.091   3.823
88325W        W60618   0.266  17.583   3.758
88326W        W60619   8.707   6.341   4.731
88327W        W60620  22.043  43.295  10.445
88328W        W60621  21.075  17.671   3.787
88329W        W60622  35.488   6.362  14.486
88330W        W60623  26.547  27.144   4.120
88331W        W60624  24.103   8.665   1.436
88332W        W60625  10.353   1.452   1.742
88333W        W60626   1.341  14.771   4.788
88334W        W60627   7.337  24.094  14.461
88335W        W60628   8.328   8.673  12.395
88336W        W60629   3.235  37.520  10.643
88337W        W60630  33.014  12.343   3.812
88338W        W60631  44.413  25.179  12.532
88339W        W60632  41.340  12.155  14.898
88340W        W60633  38.367  29.999   0.737
88341W        W60634  24.080  10.291   4.671
88342W        W60635  37.527  31.645   3.673
88343W        W60636  35.875  37.020   1.756
88344W        W60637  19.224  29.624  10.504
88345W        W60638   7.229  40.398   1.736
88346W        W60639  39.956   5.925   1.252
88347W        W60640  22.629  11.764  11.414
88348W        W60641   9.188  29.129   4.742
88349W        W60642  38.921  28.095  10.427
88350W        W60643  13.254  11.244   1.387
88351W        W60644  41.461   8.202  14.775
88352W        W60645   3.354  38.076   3.754
88353W        W60646   9.742  24.689   4.344
88354W        W60647   4.290   1.353   1.449
88355W        W60648  31.953   2.817   0.297
88356W        W60649  34.874   1.884   2.689
88357W        W60650  15.112  21.262  12.544
88358W        W60651   9.806  11.792  14.004
88359W        W60652  32.961  24.500   4.138
88360W        W60653   4.720  22.609  13.315
88361W        W60654  37.523  14.178  13.364
88362W        W60655  22.089  24.515  14.961
88363W        W60656  39.902  11.279  12.031
88364W        W60657  30.943   4.784   1.398
88365W        W60658  19.543  21.107   9.613
88366W        W60659  36.426  23.657  13.830
88367W        W60660  24.565  10.362  13.910
88368W        W60661   3.896  14.297   0.752
88369W        W60662   5.387  21.065  14.394
88370W        W60663  10.186  42.295   2.244
88371W        W60664   3.375  29.097  14.771
88372W        W60665  30.639  42.925   0.909
88373W        W60666   7.741  24.122  12.435
88374W        W60667  42.929  26.628  10.633
88375W        W60668  42.835  28.527   1.330
88376W        W60669  10.251  10.833   1.382
88377W        W60670  36.945  43.889  11.549
88378W        W60671  17.680  22.526   5.236
88379W        W60672  14.724  16.740  12.978
88380W        W60673   8.311   0.288  13.003
88381W        W60674  42.409  35.461   1.216
88382W        W60675  25.170  20.172  10.624
88383W        W60676  33.389  27.614   3.291
88384W        W60677  44.974   8.282   2.800
88385W        W60678  37.470  36.579  12.534
88386W        W60679  40.004   0.428   4.180
88387W        W60680  42.833   5.753  10.498
88388W        W60681  27.034  21.514  13.526
88389W        W60682  18.125   9.163   2.419
88390W        W60683  25.650  35.584   1.902
88391W        W60684  44.935  27.069   2.895
88392W        W60685  42.807  34.376  11.552
88393W        W60686  40.896  40.974  13.930
88394W        W60687  24.573  33.943  13.515
88395W        W60688  15.688  16.734   2.225
88396W        W60689  18.293  41.364   0.801
88397W        W60690   4.251   7.791   3.846
88398W        W60691  44.827  16.282   4.284
88399W        W60692  34.926  10.868  12.494
88400W        W60693  24.016  40.424   1.873
88401W        W60694   1.823  13.609  11.525
88402W        W60695  25.180  23.227  10.897
88403W        W60696  44.399  34.093   2.828
88404W        W60697   5.759   8.819  14.438
88405W        W60698   6.898  29.923  10.962
88406W        W60699   9.765  35.040  14.815
88407W        W60700   0.771  10.644   4.748
88408W        W60701  39.028  11.338   0.358
88409W        W60702   6.705  19.746  14.346
88410W        W60703  41.831  28.939   0.307
88411W        W60704  35.550  37.065  12.362
88412W        W60705   9.810  35.473  12.058
88413W        W60706   8.796  23.624  11.376
88414W        W60707  27.116   8.804   4.262
88415W        W60708  16.760  19.564   3.763
88416W        W60709   0.823  16.272   0.478
88417W        W60710  19.622  26.473   4.159
88418W        W60711  42.399  33.498   4.791
88419W        W60712  34.933  18.635   3.153
88420W        W60713  18.698  17.154  10.615
88421W        W60714  38.958  16.666  14.994
88422W        W60715  43.780  16.811   4.231
88423W        W60716  31.978   9.159   1.838
88424W        W60717  34.534  42.355   2.311
88425W        W60718  20.701   4.724  14.867
88426W        W60719  11.641  24.636  12.543
88427W        W60720  30.011  21.083   2.793
88428W        W60721  34.118  36.428   2.874
88429W        W60722   1.329  43.993  14.876
88430W        W60723  23.733  17.098  12.490
88431W        W60724  25.131  30.055   1.237
88432W        W60725  27.019   4.323  13.894
88433W        W60726   8.700  15.639  14.388
88434W        W60727  42.841  24.989  13.444
88435W        W60728  38.506  32.038  10.438
88436W        W60729  28.176   2.913  11.480
88437W        W60730  43.354  36.043   1.742
88438W        W60731  42.816  12.689  14.298
88439W        W60732  11.325  23.665   3.153
88440W        W60733  21.057  22.553  13.371
88441W        W60734  13.842  31.063   3.797
88442W        W60735  33.617  35.930  10.084
88443W        W60736  40.864  31.117  14.851
88444W        W60737   6.282   4.401   0.483
88445W        W60738   9.699  33.099  14.853
88446W        W60739  26.615  21.225  13.546
88447W        W60740  23.638  18.784  12.951
88448W        W60741  32.063  38.041  12.432
88449W        W60742  26.113  15.604  10.590
88450W        W60743   7.804  18.628  14.422
88451W        W60744  23.207   1.404   1.711
88452W        W60745  15.200   7.377   2.748
88453W        W60746   0.749  12.755  13.359
88454W        W60747  43.893  21.731  11.511
88455W        W60748  14.773  44.314  13.507
88456W        W60749  11.644   8.897  11.445
88457W        W60750  29.154  28.652  12.443
88458W        W60751   5.220   0.826   0.848
88459W        W60752  44.908   6.860  10.610
88460W        W60753  36.940  24.009   4.312
88461W        W60754  32.428  13.653  14.797
88462W        W60755  19.151   3.297  11.913
88463W        W60756  42.308  12.738  14.856
88464W        W60757  14.736  32.549   3.309
88465W        W60758  10.788   8.308   3.158
88466W        W60759  30.554  44.802   2.848
88467W        W60760  29.964  14.264  13.351
88468W        W60761  41.830  39.002  13.453
88469W        W60762  38.509  14.830  11.560
88470W        W60763  33.383  28.113  10.986
88471W        W60764  19.176  36.582  14.768
88472W        W60765  25.122  22.574   1.731
88473W        W60766  42.371  32.421   3.845
88474W        W60767  20.547  29.073  10.626
88475W        W60768  22.682  15.105  11.955
88476W        W60769  34.966  10.864  10.924
88477W        W60770  26.991  40.360  13.838
88478W        W60771   0.272  14.617   0.483
88479W        W60772  29.050  38.832   0.364
88480W        W60773   6.765  35.600   1.767
88481W        W60774  33.127  13.619   0.872
88482W        W60775  36.590  12.262   2.684
88483W        W60776   4.358  17.089  14.915
88484W        W60777  40.441  39.383   2.305
88485W        W60778   1.396  14.109   0.806
88486W        W60779  24.172  11.354   4.164
88487W        W60780  40.502  43.878   0.476
88488W        W60781  27.531   4.266  14.289
88489W        W60782  10.873  43.463   0.390
88490W        W60783  30.495   2.834  14.450
88491W        W60784   6.183  33.594   1.316
88492W        W60785  31.462  26.514  10.466
88493W        W60786  12.680   0.936   3.752
88494W        W60787  24.506  19.221  12.382
88495W        W60788   3.346  22.662   3.291
88496W        W60789  23.633  19.673   0.445
88497W        W60790  42.868  43.407  13.341
88498W        W60791  12.821  43.963   0.833
88499W        W60792   5.324  23.536   2.371
88500W        W60793  36.561   9.788   1.923
88501W        W60794  22.098  39.815  14.898
88502W        W60795  16.221   5.781  12.554
88503W        W60796   1.315  18.134   0.766
88504W        W60797  16.161  33.094   3.680
88505W        W60798  35.904   6.340  13.348
88506W        W60799   8.799   2.373  13.344
88507W        W60800   5.299   4.733   3.856
88508W        W60801  25.587  14.805  10.628
88509W        W60802   1.799   6.295  11.426
88510W        W60803  24.642  36.502   4.654
88511W        W60804   2.865  30.498   3.287
88512W        W60805   5.284  13.117  13.887
88513W        W60806  31.094   3.828   1.222
88514W        W60807  23.590   8.865   3.177
88515W        W60808  43.815   6.855   3.851
88516W        W60809  43.828   2.847  14.366
88517W        W60810  24.660  25.539  13.310
88518W        W60811   8.245   2.806  13.454
88519W        W60812   5.199  10.340   1.811
88520W        W60813  39.815  37.407   4.240
88521W        W60814  17.154  11.292  10.103
88522W        W60815  13.635  13.311  13.030
88523W        W60816   7.766  12.124   3.809
88524W        W60817  42.493  23.660  10.496
88525W        W60818  19.565   2.425   0.424
88526W        W60819   3.737  41.537  12.467
88527W        W60820  30.591  29.657  11.530
88528W        W60821  15.096   6.911  13.477
88529W        W60822   9.657  41.356   2.822
88530W        W60823  15.323  42.518   2.704
88531W        W60824   1.890   5.863  12.441
88532W        W60825  20.721   2.426  11.981
88533W        W60826  39.812   2.960  10.454
88534W        W60827  35.401  32.986   1.794
88535W        W60828  19.153  33.874   2.743
88536W        W60829  10.295   0.744   1.935
88537W        W60830  31.526  19.605   1.400
88538W        W60831  27.570   1.762   1.838
88539W        W60832  40.917  11.864   2.809
88540W        W60833  11.782  39.433  12.955
88541W        W60834  39.869  39.500  11.066
88542W        W60835  15.224  34.572   2.718
88543W        W60836   8.219   2.317   0.757
88544W        W60837  37.518  20.712  13.547
88545W        W60838  28.099  22.747   3.868
88546W        W60839  29.502  28.466   4.224
88547W        W60840  28.662  27.547  14.367
88548W        W60841   5.895  14.242  11.584
88549W        W60842  24.492  16.776  10.512
88550W        W60843  25.670  18.652  14.411
88551W        W60844  32.974   1.436  11.559
88552W        W60845   6.400  15.650   2.234
88553W        W60846  35.513   2.433  12.905
88554W        W60847   1.740  13.159   3.850
88555W        W60848   4.243  17.797  11.583
88556W        W60849  20.241  20.070  14.416
88557W        W60850  27.553  26.089   3.247
88558W        W60851  17.086  12.837  12.893
88559W        W60852   7.299  23.081  11.371
88560W        W60853  25.488   4.752  13.443
88561W        W60854  10.202  30.907  13.334
88562W        W60855   0.458  28.178  13.359
88563W        W60856  44.908  43.825   2.327
88564W        W60857  38.339  26.203  10.567
88565W        W60858   8.685  40.358  11.422
88566W        W60859  20.144  22.523   1.407
88567W        W60860  21.615  11.710  11.407
88568W        W60861   7.828  35.408  13.433
88569W        W60862  17.179  25.117   1.377
88570W        W60863   3.813  37.903  14.790
88571W        W60864  35.585  26.456   1.771
88572W        W60865  30.563  42.857  10.511
88573W        W60866  10.849   3.253   3.766
88574W        W60867  27.044  22.534   2.885
88575W        W60868  19.160  33.882   1.925
88576W        W60869   4.403   0.360  14.905
88577W        W60870  42.455  15.638   0.921
88578W        W60871  29.118  20.567  10.927
88579W        W60872  21.723  26.671  13.045
88580W        W60873  35.071  12.294  11.982
88581W        W60874  34.578  34.961   3.658
88582W        W60875  38.457   9.275  13.340
88583W        W60876  33.988  10.796  14.004
88584W        W60877  44.296  34.058  10.076
88585W        W60878  20.659  42.877   1.397
88586W        W60879  35.469  33.970   1.922
88587W        W60880  28.031  43.802   0.412
88588W        W60881  34.463  35.065  13.344
88589W        W60882  30.597  31.615   0.288
88590W        W60883   6.781  12.143   2.234
88591W        W60884  19.595  18.178   0.801
88592W        W60885  28.531  15.093   1.285
88593W        W60886  12.220  35.532  12.393
88594W        W60887  33.921  11.806   1.246
88595W        W60888   2.750  42.449   0.276
88596W        W60889  20.044  30.105  14.462
88597W        W60890  15.306  24.569  11.410
88598W        W60891   5.434  41.481  14.977
88599W        W60892  33.079   5.384  12.505
88600W        W60893  32.073  18.572   2.795
88601W        W60894   8.805  12.292   2.343
88602W        W60895  42.808   3.844  10.514
88603W        W60896  16.687  23.684   4.608
88604W        W60897  41.432  39.043   1.430
88605W        W60898   2.278  12.674  10.006
88606W        W60899  34.038  33.582  13.923
88607W        W60900  29.505  42.363  13.910
88608W        W60901  11.836  25.604   3.660
88609W        W60902  27.976  44.854  12.921
88610W        W60903  37.922  24.533   4.191
88611W        W60904   0.792  16.689   0.918
88612W        W60905   3.221  28.932  10.970
88613W        W60906  13.133   0.280   1.742
88614W        W60907  36.074  41.870   0.319
88615W        W60908  14.134  29.008   2.202
88616W        W60909  25.574  20.632   0.752
88617W        W60910  29.477  29.125   0.755
88618W        W60911  19.761  42.947  14.930
88619W        W60912   0.872   2.823  12.854
88620W        W60913  32.940  10.654   0.301
88621W        W60914   6.873  11.671   2.705
88622W        W60915  17.166   9.653  10.998
88623W        W60916  43.909  16.675   9.483
88624W        W60917  12.290  19.163  10.951
88625W        W60918  39.453  43.458   0.744
88626W        W60919  41.512  40.322   1.926
88627W        W60920  35.455   9.301  11.873
88628W        W60921  43.788  34.038   1.242
88629W        W60922  31.519  23.539   1.220
88630W        W60923   4.393   3.840   4.680
88631W        W60924   7.889  10.729  14.286
88632W        W60925  44.809  23.564  14.378
88633W        W60926  36.570  30.482  12.547
88634W        W60927  35.072  16.604   2.765
88635W        W60928  33.111   3.727   1.837
88636W        W60929   9.157  10.178  10.017
88637W        W60930   9.865  29.174   0.847
88638W        W60931  22.066   6.324   0.468
88639W        W60932  18.585  43.827   2.763
88640W        W60933   8.277  37.521  11.426
88641W        W60934  16.596  10.318   3.271
88642W        W60935  40.938   3.340   2.771
88643W        W60936  27.978  22.604  12.069
88644W        W60937  21.212  39.035   1.284
88645W        W60938  21.058  13.302   3.790
88646W        W60939  23.580   7.375  10.577
88647W        W60940   5.905   0.330  14.281
88648W        W60941  13.123  28.929  13.370
88649W        W60942  35.914   0.383  14.027
88650W        W60943  39.975   5.255   0.330
88651W        W60944  34.988  15.245  11.119
88652W        W60945  36.868  35.925   3.862
88653W        W60946   0.765  40.884   4.632
88654W        W60947  14.814   4.796   4.614
88655W        W60948  28.638   3.890  11.378
88656W        W60949  35.039  15.616  14.421
88657W        W60950  42.776  17.114   5.183
88658W        W60951  34.403  41.909   2.881
88659W        W60952   1.749  41.815   3.670
88660W        W60953  31.457  22.143   1.356
88661W        W60954  18.140  43.885  13.396
88662W        W60955   9.279  35.598  10.888
88663W        W60956  30.006  31.020   1.836
88664W        W60957  31.917  27.084  10.498
88665W        W60958  22.177  20.708  10.933
88666W        W60959  33.958  10.677  12.376
88667W        W60960  13.286  24.054  10.505
88668W        W60961  40.462  17.217  11.946
88669W        W60962  19.153   4.324   1.383
88670W        W60963  14.155  19.751  10.427
88671W        W60964  44.782   4.334   1.871
88672W        W60965  33.546  44.865   2.688
88673W        W60966  38.439  42.445   4.812
88674W        W60967   3.890  25.693   2.336
88675W        W60968  44.772  31.600  11.964
88676W        W60969  26.135  38.398  12.894
88677W        W60970  24.017   3.361   2.703
88678W        W60971  14.653  20.162   4.674
88679W        W60972   1.445   3.832  12.033
88680W        W60973   9.835   0.367  14.785
88681W        W60974  12.220  30.102   4.655
88682W        W60975  34.585  18.232  13.512
88683W        W60976  31.972   9.738   3.313
88684W        W60977  21.184   6.368   5.128
88685W        W60978  26.039  36.356  10.553
88686W        W60979  17.121   5.248   3.266
88687W        W60980   4.854  33.917   3.187
88688W        W60981  37.084  16.240   4.649
88689W        W60982  27.564  20.035  13.829
88690W        W60983  34.008   3.802   0.834
88691W        W60984  38.975  42.023   3.213
88692W        W60985  12.733  16.646   4.783
88693W        W60986   5.321  31.019  12.941
88694W        W60987  36.977  16.139   3.254
88695W        W60988   9.190  24.496   2.288
88696W        W60989  28.163  30.658  10.100
88697W        W60990  13.110  41.493   3.752
88698W        W60991  16.781  38.331   3.714
88699W        W60992  30.939  29.627  12.041
88700W        W60993  33.604   5.414  14.926
88701W        W60994  39.956  37.986   1.307
88702W        W60995  12.298  34.453  12.421
88703W        W60996  41.518  15.683  12.948
88704W        W60997   5.204  16.227  14.407
88705W        W60998   8.717   8.298  11.403
88706W        W60999  18.183  39.373   2.812
88707W        W61000  24.169  24.196   4.329
88708W        W61001   5.756   4.246   4.238
88709W        W61002  33.877  22.523  12.092
88710W        W61003  29.975  28.001   3.215
88711W        W61004  22.689   6.398  14.333
88712W        W61005  32.915   3.248  10.484
88713W        W61006  18.200  13.621   0.366
88714W        W61007  43.857  16.733  13.879
88715W        W61008  44.761   7.777   0.877
88716W        W61009   3.728  28.472   3.720
88717W        W61010  17.664  30.438   1.270
88718W        W61011  33.481   8.845  10.014
88719W        W61012   7.685  36.460  13.479
88720W        W61013   5.342   9.742   1.314
88721W        W61014   3.832  39.418  11.568
88722W        W61015  14.276   6.289   5.196
88723W        W61016  34.920  28.009   4.834
88724W        W61017  35.913  39.548  13.064
88725W        W61018  30.157  40.402   4.745
88726W        W61019  32.119   0.829  11.074
88727W        W61020  34.069  39.504   2.770
88728W        W61021  24.096  35.107  14.400
88729W        W61022  20.639   2.791  10.404
88730W        W61023  29.020   7.898  13.817
88731W        W61024  35.027  34.402  11.609
88732W        W61025  12.759   8.405   3.782
88733W        W61026   3.899   8.274   0.796
88734W        W61027  37.352  28.145  10.929
88735W        W61028  39.313  33.885   0.277
88736W        W61029  18.178  33.405   4.717
88737W        W61030   1.479  37.352   2.762
88738W        W61031  24.589   6.224   1.397
88739W        W61032  38.959  30.010   3.277
88740W        W61033  18.586  10.353  10.510
88741W        W61034  27.986  40.315  12.067
88742W        W61035   3.728  28.668  14.504
88743W        W61036   3.442  38.059  14.837
88744W        W61037  26.648  32.892  10.066
88745W        W61038  26.660   8.266   1.224
88746W        W61039   7.247   5.733   0.931
88747W        W61040  34.924  14.682  13.384
88748W        W61041  17.651  40.494  10.615
88749W        W61042   3.426  17.075  13.920
88750W        W61043  22.509  31.925   2.301
88751W        W61044  44.276  41.865   3.358
88752W        W61045  18.749  16.722   2.185
88753W        W61046  28.113  25.508  13.382
88754W        W61047   4.355  38.957  13.309
88755W        W61048  36.517  25.089   2.381
88756W        W61049  19.626  43.008  12.995
88757W        W61050  32.088   1.434   4.838
88758W        W61051   8.857  23.123   1.242
88759W        W61052  10.817  39.331  13.866
88760W        W61053  12.693   9.692  13.451
88761W        W61054   5.913  23.701  11.535
88762W        W61055  31.458   0.472   1.872
88763W        W61056   7.824  42.371  12.554
88764W        W61057  21.192  35.517  10.995
88765W        W61058   4.721  21.195   4.746
88766W        W61059  40.468  17.212   0.267
88767W        W61060  26.036   4.291   4.763
88768W        W61061   5.305  30.598  11.029
88769W        W61062  42.321  12.664   4.643
88770W        W61063  40.904  38.893   4.211
88771W        W61064  30.922  42.367   4.835
88772W        W61065  25.051  11.212  11.023
88773W        W61066  16.633   4.367   3.249
88774W        W61067  36.466   0.436   2.349
88775W        W61068  42.931  26.090  13.450
88776W        W61069  36.558  25.663   1.222
88777W        W61070   1.316   9.789   0.322
88778W        W61071  30.986   8.240  11.948
88779W        W61072  44.957  11.284   0.915
88780W        W61073  29.081  21.202   3.387
88781W        W61074  23.201  14.700  11.092
88782W        W61075   8.216  40.050   0.359
88783W        W61076  35.423  41.439  12.505
88784W        W61077   0.807   4.211  11.584
88785W        W61078  40.878   0.938   2.277
88786W        W61079  40.996  30.161  14.392
88787W        W61080   2.366  44.501   0.245
88788W        W61081  19.617  20.184  12.998
88789W        W61082  26.192   2.891   0.858
88790W        W61083  29.531  36.464   0.848
88791W        W61084   8.205  29.583  10.645
88792W        W61085  22.563  14.107   4.698
88793W        W61086   7.227   4.390   1.422
88794W        W61087   2.322  27.663   3.708
88795W        W61088  37.387  23.051  12.454
88796W        W61089  10.246   5.855   1.818
88797W        W61090  32.484  40.456   1.264
88798W        W61091  30.482  44.962   0.412
88799W        W61092  14.709  41.418   1.733
88800W        W61093   5.430  44.765  11.414
88801W        W61094  32.091   7.790  14.968
88802W        W61095  42.425   4.894   4.292
88803W        W61096  27.115  41.403   1.414
88804W        W61097  29.527   6.189  14.767
88805W        W61098  24.724   0.845   2.271
88806W        W61099  28.659  44.336  13.794
88807W        W61100   9.257   2.898  11.587
88808W        W61101   6.705  44.424  12.052
88809W        W61102  31.423  34.024   2.226
88810W        W61103  12.356  23.203   2.257
88811W        W61104   6.706   9.670  10.415
88812W        W61105  15.266  18.227  10.530
88813W        W61106  18.186  11.632  11.961
88814W        W61107  10.854   0.453   4.138
88815W        W61108  19.555  19.174  11.502
88816W        W61109  31.018  15.193  10.892
88817W        W61110  27.467  32.929   2.749
88818W        W61111  22.128   5.754  11.604
88819W        W61112  37.916  31.439   2.770
88820W        W61113  19.043  18.555   3.633
88821W        W61114  26.098   1.919  11.969
88822W        W61115  13.297  34.935   4.750
88823W        W61116  22.511  39.851   4.113
88824W        W61117  28.626  30.986   1.787
88825W        W61118  25.028  21.555   4.613
88826W        W61119   1.746  37.924  14.828
88827W        W61120  35.514  30.416  13.903
88828W        W61121   9.690  39.443   1.908
88829W        W61122  25.085  41.835   0.817
88830W        W61123  26.687  12.703  14.907
88831W        W61124  32.491   7.800   4.294
88832W        W61125  10.643  32.587   0.949
88833W        W61126  33.420  37.420  14.853
88834W        W61127  14.273  16.152   1.401
88835W        W61128  38.837   0.804   0.353
88836W        W61129  36.962  30.457   3.800
88837W        W61130  11.366  24.226   1.705
88838W        W61131  18.295  13.194   2.778
88839W        W61132   6.750  36.522  10.908
88840W        W61133  39.461   3.344   4.209
88841W        W61134  31.493  24.666  11.053
88842W        W61135  23.543  12.736   0.332
88843W        W61136  10.709   2.840   2.202
88844W        W61137  41.425  21.230   0.376
88845W        W61138   1.933  12.192   4.612
88846W        W61139   2.468  26.596   0.952
88847W        W61140  15.586   0.932   0.778
88848W        W61141  42.352  22.146  14.845
88849W        W61142  40.547  26.986   2.756
88850W        W61143   7.282  16.659  10.514
88851W        W61144  25.514   5.277   0.953
88852W        W61145  11.259  38.072   2.335
88853W        W61146  21.035  23.145   4.610
88854W        W61147   7.323   7.192   0.360
88855W        W61148  29.073  36.526  11.959
88856W        W61149  20.673  25.571   0.927
88857W        W61150  16.642   1.257  13.463
88858W        W61151  20.687   6.731   0.762
88859W        W61152  24.098  25.023  12.570
88860W        W61153  16.768  42.402   2.327
88861W        W61154   0.840  33.439  13.446
88862W        W61155  44.322  14.780  14.463
88863W        W61156  19.697   7.810  14.843
88864W        W61157  38.555  34.613   1.357
88865W        W61158  40.529   0.329   1.371
88866W        W61159  19.684   8.655   4.215
88867W        W61160  22.183  16.153   3.385
88868W        W61161   7.813   1.451  10.523
88869W        W61162  38.877   3.408   2.711
88870W        W61163  21.228  10.727   4.752
88871W        W61164  11.263   8.370  10.531
88872W        W61165  42.363  32.902  13.836
88873W        W61166  44.841  19.045   2.680
88874W        W61167  44.310  33.020  12.502
88875W        W61168  10.838   6.809   0.455
88876W        W61169   5.911  15.735   2.863
88877W        W61170  41.878  38.373  11.384
88878W        W61171   7.879  34.394  10.458
88879W        W61172  21.649  20.171  11.573
88880W        W61173  15.628  26.554  12.984
88881W        W61174  44.394   7.814   4.261
88882W        W61175   3.456  11.627   3.382
88883W        W61176  24.724  20.607  11.503
88884W        W61177  14.806  35.362  13.471
88885W        W61178  27.015  24.576  12.424
88886W        W61179  37.995  44.492  10.083
88887W        W61180  22.092  44.830  12.983
88888W        W61181  32.005   1.756  13.952
88889W        W61182  43.329   9.798   4.288
88890W        W61183  38.051  19.222  11.953
88891W        W61184   0.974   8.362  14.025
88892W        W61185  29.027   3.934  10.588
88893W        W61186  16.262  22.060  13.012
88894W        W61187   9.830  12.835  10.893
88895W        W61188  40.797   3.796   3.735
88896W        W61189  23.690  25.177   1.420
88897W        W61190   5.775  34.548  13.041
88898W        W61191  13.269  20.725   0.369
88899W        W61192  44.489  21.236  12.564
88900W        W61193  25.082  39.858  12.410
88901W        W61194  27.000  35.906  12.428
88902W        W61195  36.500  16.571  11.030
88903W        W61196  32.551   6.265  13.346
88904W        W61197   5.818  29.146  11.512
88905W        W61198  21.216  36.363   1.369
88906W        W61199   8.672  16.608   0.462
88907W        W61200  16.737  13.117  10.519
88908W        W61201  24.572  26.615  13.482
88909W        W61202  43.431  42.512   2.772
88910W        W61203  37.855  18.189  11.607
88911W        W61204  33.036  14.253   4.212
88912W        W61205   0.890  13.217  14.492
88913W        W61206   6.216  25.067  14.785
88914W        W61207  29.006   7.254   0.445
88915W        W61208  19.731   9.867  13.000
88916W        W61209  23.599  12.640   4.341
88917W        W61210  19.561  21.236  11.528
88918W        W61211  23.153  18.778   1.898
88919W        W61212  17.795  30.590  12.996
88920W        W61213  40.485   7.733   2.800
88921W        W61214  15.682  20.090   4.813
88922W        W61215  34.596  40.818   4.201
88923W        W61216  42.871  19.098   4.647
88924W        W61217  28.570  36.848   2.318
88925W        W61218  13.792  37.535   0.809
88926W        W61219   7.284  11.296  14.952
88927W        W61220  11.809  35.537  14.285
88928W        W61221  37.873  42.415  11.873
88929W        W61222  24.077  23.729   2.899
88930W        W61223   9.808  44.758  10.558
88931W        W61224   0.747  31.487  10.937
88932W        W61225  43.399  40.332  12.007
88933W        W61226   8.300  24.154  14.310
88934W        W61227  41.885  21.197   2.835
88935W        W61228  18.545  42.965   2.709
88936W        W61229  41.412  24.176   0.838
88937W        W61230   3.255  27.548   1.333
88938W        W61231  43.869  35.894  14.485
88939W        W61232  20.608   7.685  13.991
88940W        W61233  20.151  21.611  10.958
88941W        W61234  28.963  26.952   4.615
88942W        W61235  37.542  24.194  13.881
88943W        W61236  32.435   8.897  12.573
88944W        W61237  15.693  19.156  11.607
88945W        W61238  37.518   5.835   3.725
88946W        W61239  30.560  34.487   0.775
88947W        W61240  34.939  42.847  14.350
88948W        W61241  12.760  44.975  10.560
88949W        W61242  25.512  43.324  14.330
88950W        W61243  27.190  28.652   0.397
88951W        W61244  39.541   5.240  14.418
88952W        W61245  41.791  12.855  10.506
88953W        W61246  33.432  27.492   3.858
88954W        W61247  38.368  13.208   0.285
88955W        W61248  27.102  28.508  12.855
88956W        W61249  12.202  13.826   0.373
88957W        W61250  25.644  24.505  13.435
88958W        W61251  28.019   7.396  10.152
88959W        W61252  38.499   7.177  14.906
88960W        W61253  10.782  26.637   2.724
88961W        W61254  25.059  40.877  12.954
88962W        W61255  14.672  15.119  10.444
88963W        W61256   3.412  37.985  12.946
88964W        W61257   6.742  25.136  11.998
88965W        W61258  19.062  29.599  14.391
88966W        W61259  27.968  24.114   0.352
88967W        W61260  32.032  28.112   5.268
88968W        W61261   1.290  23.211   3.847
88969W        W61262  24.123   9.811  13.976
88970W        W61263  36.850  13.830  14.279
88971W        W61264  15.712  20.676  13.811
88972W        W61265  44.911   0.249  14.373
88973W        W61266  36.091  21.698  11.449
88974W        W61267   0.462  38.945  12.826
88975W        W61268   5.828  36.543   3.806
88976W        W61269  44.465  39.508  13.801
88977W        W61270  37.839  27.127   1.364
88978W        W61271   2.769   2.336  14.436
88979W        W61272  44.945  26.498   4.799
88980W        W61273  43.484  44.780   4.801
88981W        W61274   0.960   1.440  14.350
88982W        W61275   4.321  19.689   0.959
88983W        W61276   6.723  37.576  13.046
88984W        W61277  43.926  29.959  10.574
88985W        W61278   6.374  15.605   0.381
88986W        W61279   7.176  30.079   3.173
88987W        W61280  38.912   8.169  10.433
88988W        W61281   4.791  30.469   3.739
88989W        W61282  10.794   8.839  12.061
88990W        W61283   0.753  31.125   4.270
88991W        W61284  44.977   5.898   1.872
88992W        W61285   8.680   8.253   4.659
88993W        W61286  21.206   2.351   3.661
88994W        W61287   8.368   2.336   2.774
88995W        W61288  10.350   2.456   4.793
88996W        W61289  44.325  14.750   4.122
88997W        W61290  44.349   1.287   3.801
88998W        W61291  19.606  18.172   4.169
88999W        W61292   9.214  16.742  11.092
89000W        W61293  21.736  28.524  10.477
89001W        W61294   6.754  33.878   1.381
89002W        W61295  23.191  33.076   1.758
89003W        W61296  20.171   4.265   3.813
89004W        W61297  41.827  12.716   2.894
89005W        W61298   1.897  24.593  14.388
89006W        W61299  43.911  33.414  12.044
89007W        W61300  28.630   3.871   4.764
89008W        W61301  30.915  22.612   2.351
89009W        W61302  35.886  19.123   2.832
89010W        W61303  18.295  14.680  12.884
89011W        W61304  40.357  19.283  11.864
89012W        W61305  15.266  28.646  13.363
89013W        W61306  28.046  21.543   3.235
89014W        W61307  43.315  16.805  13.391
89015W        W61308  22.172   0.295  11.907
89016W        W61309  11.189   7.684  10.428
89017W        W61310   5.822  37.537   3.291
89018W        W61311  27.508  42.799  10.461
89019W        W61312  26.572  19.199   3.860
89020W        W61313  10.769  29.454  11.478
89021W        W61314   7.812  31.120   4.148
89022W        W61315  21.252  20.709   0.273
89023W        W61316  42.965  40.484  13.001
89024W        W61317  39.990  14.190   4.760
89025W        W61318  30.568   9.228   4.705
89026W        W61319  37.460  14.807  12.960
89027W        W61320   8.271  19.689   0.848
89028W        W61321  15.588  40.046  11.874
89029W        W61322  17.108   5.916   0.477
89030W        W61323  14.681  20.213   3.274
89031W        W61324  41.482   8.369   1.918
89032W        W61325   0.273   2.289   1.277
89033W        W61326  20.567  19.650   3.231
89034W        W61327  32.437  25.117  11.384
89035W        W61328   7.675  22.185  10.983
89036W        W61329  10.724   8.310   3.782
89037W        W61330  21.616  39.883  10.940
89038W        W61331  29.620  33.082  12.878
89039W        W61332   5.903  15.656   2.409
89040W        W61333  40.984  18.119  13.812
89041W        W61334  28.440  35.480  11.438
89042W        W61335  21.633  21.617  11.550
89043W        W61336  27.037  26.692  11.408
89044W        W61337  18.251  39.824   0.473
89045W        W61338  40.364   7.296  10.084
89046W        W61339  44.502   6.808  10.999
89047W        W61340  18.085  23.011   3.837
89048W        W61341  29.539  14.112   9.988
89049W        W61342  29.161  13.142  14.508
89050W        W61343   2.882  28.438   3.214
89051W        W61344  19.191  35.973  10.588
89052W        W61345  17.181   1.838   0.876
89053W        W61346  32.491  24.100  12.994
89054W        W61347   7.754   1.329  11.380
89055W        W61348  18.736  11.857  14.367
89056W        W61349  41.449  42.484   1.418
89057W        W61350  11.792  43.489  10.919
89058W        W61351   9.328   7.315  14.807
89059W        W61352  17.652   5.339   4.201
89060W        W61353   5.831  31.515   3.794
89061W        W61354   9.711   3.845  11.055
89062W        W61355   1.451  14.596  13.881
89063W        W61356  36.396  39.340  10.630
89064W        W61357   0.411  24.578   4.759
89065W        W61358  20.196  18.123   1.443
89066W        W61359  44.489   3.350   2.317
89067W        W61360  22.191  29.020  10.436
89068W        W61361  27.050   2.749   2.221
89069W        W61362  25.058   8.811   1.258
89070W        W61363   0.780  17.621   2.711
89071W        W61364  12.275  20.760  10.977
89072W        W61365  13.170  24.114  12.036
89073W        W61366  14.820  20.091  11.868
89074W        W61367  11.225   4.863  14.014
89075W        W61368  29.125   8.223  14.943
89076W        W61369  35.476  33.932   3.245
89077W        W61370  23.553  31.902  13.522
89078W        W61371  41.520  31.042  12.983
89079W        W61372  37.056  25.671   1.243
89080W        W61373  27.666   9.353  13.974
89081W        W61374  16.270  27.076   4.179
89082W        W61375  34.035  16.668   1.788
89083W        W61376  38.038  40.808   1.812
89084W        W61377  15.706   1.477   3.644
89085W        W61378  35.378  13.789   0.405
89086W        W61379   4.441   1.427   0.769
89087W        W61380  16.802   3.271  14.825
89088W        W61381  24.032   9.341   1.386
89089W        W61382  43.413  34.446   1.445
89090W        W61383  19.628  43.892  14.306
89091W        W61384  40.055  36.023   3.681
89092W        W61385  26.208  40.526  12.495
89093W        W61386   2.797   3.321   3.294
89094W        W61387  36.896  20.275  10.572
89095W        W61388  32.565   8.198   2.322
89096W        W61389  37.080  42.032  14.307
89097W        W61390  25.121   5.706   3.193
89098W        W61391  10.785   0.855  10.079
89099W        W61392   5.823  42.848  13.927
89100W        W61393  33.973   1.872  12.925
89101W        W61394   8.757  21.079  10.029
89102W        W61395  37.385  38.379  12.533
89103W        W61396  20.230   8.732  12.849
89104W        W61397   9.825  40.474  13.881
89105W        W61398  23.716  32.047   4.684
89106W        W61399   2.382  31.585   2.190
89107W        W61400  18.190  44.279   0.819
89108W        W61401  25.998   1.333   4.744
89109W        W61402  29.106   5.355   4.628
89110W        W61403  32.009  12.831  13.042
89111W        W61404  31.491   7.767  12.524
89112W        W61405  29.138   8.680  10.973
89113W        W61406   0.809  18.706   4.829
89114W        W61407   0.295   6.799  13.944
89115W        W61408  40.030  35.404  12.996
89116W        W61409  44.373  41.024  12.421
89117W        W61410   6.261  43.869  13.021
89118W        W61411  33.115  31.616  14.824
89119W        W61412   4.259  42.350   4.737
89120W        W61413  44.432  35.902   0.870
89121W        W61414   7.897  35.575   4.645
89122W        W61415  13.192  20.106   2.714
89123W        W61416  27.014  18.198   1.831
89124W        W61417  36.869  40.054  12.579
89125W        W61418  26.193  27.170  11.584
89126W        W61419  44.448  10.774  13.059
89127W        W61420  44.469   8.257  10.962
89128W        W61421   2.278   0.369   3.367
89129W        W61422  41.499  16.107  12.023
89130W        W61423  13.186   5.868   4.801
89131W        W61424  10.749  39.454   2.694
89132W        W61425  36.884  19.603  12.952
89133W        W61426  15.176  29.059  14.473
89134W        W61427  27.514  21.661  11.437
89135W        W61428   0.817   2.467  11.437
89136W        W61429   0.829  39.916   1.902
89137W        W61430   9.721  19.275   3.227
89138W        W61431  29.535  32.048   2.740
89139W        W61432  28.166   6.236   4.806
89140W        W61433  36.939  23.607  13.430
89141W        W61434  19.148  35.422  14.864
89142W        W61435  43.392   9.356  10.999
89143W        W61436   4.724  29.997  13.822
89144W        W61437  31.925  36.091   3.859
89145W        W61438  28.030  29.588  14.949
89146W        W61439   3.716   2.823   3.668
89147W        W61440  22.700  31.985   4.157
89148W        W61441  43.877  15.176   4.604
89149W        W61442  43.365  24.195   2.314
89150W        W61443  43.939  23.632   0.874
89151W        W61444  38.001   3.317  13.802
89152W        W61445  19.744  36.385   4.325
89153W        W61446  17.755   4.279  12.901
89154W        W61447  43.371  37.892   3.830
89155W        W61448  24.514  44.499  14.431
89156W        W61449  33.622  18.244   2.823
89157W        W61450  29.107   0.933  13.424
89158W        W61451  44.905  34.901  13.870
89159W        W61452   8.721  13.761   1.784
89160W        W61453  28.977   1.901   3.634
89161W        W61454  23.645  28.069   0.887
89162W        W61455  35.953   5.236  12.390
89163W        W61456  20.614   3.849  14.930
89164W        W61457  24.490  15.742   3.263
89165W        W61458  12.353  44.283  13.945
89166W        W61459  27.173  39.026  10.412
89167W        W61460  12.772  31.536  13.409
89168W        W61461  16.624   6.190  10.945
89169W        W61462   3.949  13.321   2.703
89170W        W61463  20.060  43.442   2.704
89171W        W61464  38.333  10.241   4.350
89172W        W61465   2.753   4.804   1.768
89173W        W61466  11.740  39.834   4.616
89174W        W61467  29.624   8.238   2.339
89175W        W61468  40.852  22.189   4.712
89176W        W61469  43.361  26.654   4.605
89177W        W61470  26.461  27.537  12.524
89178W        W61471  21.231  22.996   2.899
89179W        W61472  40.419  44.265  10.985
89180W        W61473  17.557  40.548  13.469
89181W        W61474  18.091   8.252  14.355
89182W        W61475  37.956  38.043   0.902
89183W        W61476  23.211  28.441   0.856
89184W        W61477  12.330   1.423  10.527
89185W        W61478  36.067   4.770   3.858
89186W        W61479  32.530  18.284   2.849
89187W        W61480  40.390  16.653   4.832
89188W        W61481  37.884   0.462  11.940
89189W        W61482  18.176  25.079   3.252
89190W        W61483  25.180  12.687  14.278
89191W        W61484  24.066   4.751   5.229
89192W        W61485  14.237  36.440   3.631
89193W        W61486  44.969   4.205  13.524
89194W        W61487   4.260  27.522   2.340
89195W        W61488  44.935  25.497   1.839
89196W        W61489  13.716   3.800   3.332
89197W        W61490   4.258  25.979  14.421
89198W        W61491  37.475  12.259   2.413
89199W        W61492  21.663  24.147  12.430
89200W        W61493  43.822  17.564  14.791
89201W        W61494  42.523  38.940  10.437
89202W        W61495   5.241   1.238   3.240
89203W        W61496  44.343  11.243  14.340
89204W        W61497  25.653  39.055   4.726
89205W        W61498  34.019  30.549   1.313
89206W        W61499  36.029  39.026  11.378
89207W        W61500  32.937   2.765   3.832
89208W        W61501  37.464  16.098   0.837
89209W        W61502  11.145  33.533  12.901
89210W        W61503  30.101   6.282   3.724
89211W        W61504   5.863  11.127   3.175
89212W        W61505  44.008  41.962   0.306
89213W        W61506  13.722  14.612  10.507
89214W        W61507  27.449   4.911  12.969
89215W        W61508  39.856  42.845   3.859
89216W        W61509  41.887  42.992   0.283
89217W        W61510  10.233  33.021  10.618
89218W        W61511  28.625   1.314   2.871
89219W        W61512   2.380   0.988   0.855
89220W        W61513  20.219  28.930  14.406
89221W        W61514  33.459  31.473   3.326
89222W        W61515   7.205   2.467   0.942
89223W        W61516  24.088  13.629  14.299
89224W        W61517  16.727   6.335   3.811
89225W        W61518   7.807   0.840   2.246
89226W        W61519  16.768  32.121  12.915
89227W        W61520  41.477  16.626  11.064
89228W        W61521   9.680  16.718  14.772
89229W        W61522  40.549   4.428  10.911
89230W        W61523  10.735   9.829  11.012
89231W        W61524  13.832  27.105   2.286
89232W        W61525   3.726  24.571   1.880
89233W        W61526   4.444  15.311  14.475
89234W        W61527  29.434  27.944   3.718
89235W        W61528   1.470  32.595  13.967
89236W        W61529  35.479  23.574   3.660
89237W        W61530   5.243  15.756   2.383
89238W        W61531  20.115   4.397   1.840
89239W        W61532  44.322  28.442   2.211
89240W        W61533  35.093  33.440  13.367
89241W        W61534  19.269  18.683   0.869
89242W        W61535  31.090  28.060  11.959
89243W        W61536  25.053  14.720  11.417
89244W        W61537  42.817  13.682  14.776
89245W        W61538  17.155   0.858  13.449
89246W        W61539   7.877  18.667   4.245
89247W        W61540  31.562  15.157   3.630
89248W        W61541  15.307   7.842  11.571
89249W        W61542  19.053  22.034  11.024
89250W        W61543   1.930  11.859  12.054
89251W        W61544   7.407   4.822   2.740
89252W        W61545  32.585  29.473   4.667
89253W        W61546  11.701   0.781  13.794
89254W        W61547  17.111  41.887   3.350
89255W        W61548  20.644  21.211  14.972
89256W        W61549  23.104  21.199  13.390
89257W        W61550   7.318  18.158   2.318
89258W        W61551  23.141  40.430  11.985
89259W        W61552  34.914  33.401  12.950
89260W        W61553  24.144  35.581  13.804
89261W        W61554   1.858  11.275  13.460
89262W        W61555  39.829   0.397   0.279
89263W        W61556   3.723   7.375   0.355
89264W        W61557  11.195  37.956  12.989
89265W        W61558  20.575  42.473  11.527
89266W        W61559  15.154  41.384  11.943
89267W        W61560  42.980  34.546   4.290
89268W        W61561  35.014  20.687   2.770
89269W        W61562  37.055   1.419  12.910
89270W        W61563   7.258  24.018   1.787
89271W        W61564  10.648  36.348  11.448
89272W        W61565   2.931  44.841  13.456
89273W        W61566  33.401  41.501   0.949
89274W        W61567  11.843  24.002  11.932
89275W        W61568  19.751  36.889  14.816
89276W        W61569   0.864   7.383   0.882
89277W        W61570  14.096  28.481   1.747
89278W        W61571  21.541  13.118   1.251
89279W        W61572  27.538  14.100   2.752
89280W        W61573  13.176  36.918  10.921
89281W        W61574   8.825  23.214  13.515
89282W        W61575  33.617  12.151   2.897
89283W        W61576  23.710   4.943   4.248
89284W        W61577  43.333   7.897  12.829
89285W        W61578   5.331  21.614   3.803
89286W        W61579   6.691   8.256   0.422
89287W        W61580  33.926  41.952   1.851
89288W        W61581   1.249  33.418  13.798
89289W        W61582  33.594  36.454  13.817
89290W        W61583   6.710  32.942  14.790
89291W        W61584  30.645  38.534   4.340
89292W        W61585  18.181   9.737  14.787
89293W        W61586  30.463   7.176   5.159
89294W        W61587   4.276  36.367  11.943
89295W        W61588  37.352  19.080   4.629
89296W        W61589  24.166  43.011   2.783
89297W        W61590  18.250   2.377  13.426
89298W        W61591  44.859  19.271   0.853
89299W        W61592  29.645   7.220   2.786
89300W        W61593  26.095  12.137  10.643
89301W        W61594  31.477  25.519  13.976
89302W        W61595  43.499  29.945   0.264
89303W        W61596  25.692  32.587  13.468
89304W        W61597  32.625  28.642   1.791
89305W        W61598  31.503  40.513   1.740
89306W        W61599  36.958  16.254  14.901
89307W        W61600  30.915  39.908  13.358
89308W        W61601  35.396  36.874   2.274
89309W        W61602  44.978  33.080   9.561
89310W        W61603  28.652  27.149  14.918
89311W        W61604  40.456  35.998   4.776
89312W        W61605  13.343  15.749   4.671
89313W        W61606   7.199  29.937   3.761
89314W        W61607  37.492  15.795   4.235
89315W        W61608   5.371  15.657  10.920
89316W        W61609  29.120  26.059  11.984
89317W        W61610   5.781   4.855  10.929
89318W        W61611   0.339  43.938  14.839
89319W        W61612  44.947  38.432  13.826
89320W        W61613  39.047  44.302   5.178
89321W        W61614  31.440  31.095  13.976
89322W        W61615  16.149  33.102  10.406
89323W        W61616   5.724  24.103  11.407
89324W        W61617  30.012  27.061  11.111
89325W        W61618  33.884  16.192   2.768
89326W        W61619  44.277  17.084  14.458
89327W        W61620  27.069  43.456   0.400
89328W        W61621  21.585  38.843  13.857
89329W        W61622  22.520  17.070  10.925
89330W        W61623  11.859   4.397   3.838
89331W        W61624  42.383   9.251  11.562
89332W        W61625  27.514  41.401   2.318
89333W        W61626   6.691  11.705   3.656
89334W        W61627  44.782  32.070   5.137
89335W        W61628  22.134   1.463   4.196
89336W        W61629  30.434  25.620   4.803
89337W        W61630  38.353   9.669  12.503
89338W        W61631  24.189  30.110   1.743
89339W        W61632   6.408  36.058   9.984
89340W        W61633   2.403   4.382   3.649
89341W        W61634  22.709  32.429  13.481
89342W        W61635  13.816  16.235  14.349
89343W        W61636  37.882  20.564  12.825
89344W        W61637  36.065  23.185   0.849
89345W        W61638  30.013   4.700  11.575
89346W        W61639  32.411  21.063  12.993
89347W        W61640  20.524   3.907   2.316
89348W        W61641  32.030  16.669   2.334
89349W        W61642  35.439  44.323  12.949
89350W        W61643  13.617  40.358   1.861
89351W        W61644  42.881  38.046  10.453
89352W        W61645  44.377  44.305   3.189
89353W        W61646  38.868  34.469   1.224
89354W        W61647  17.279  35.374   0.927
89355W        W61648  16.602  40.403  11.583
89356W        W61649  24.048  38.354  13.321
89357W        W61650  38.844  20.178  10.563
89358W        W61651  36.512  12.758   3.317
89359W        W61652  37.414  17.653  13.860
89360W        W61653  33.099   7.314  12.989
89361W        W61654  40.885  13.829  10.920
89362W        W61655  39.001  13.764   0.425
89363W        W61656  20.760  30.109   0.327
89364W        W61657  18.667   1.931   2.852
89365W        W61658  13.185  39.828   4.162
89366W        W61659  25.217  26.091  12.008
89367W        W61660  33.434  40.414   0.358
89368W        W61661  44.367  16.104   2.179
89369W        W61662  35.521  23.234   4.777
89370W        W61663   1.399  39.027  10.613
89371W        W61664  10.822  42.922  12.026
89372W        W61665  35.900  44.470  14.470
89373W        W61666  10.727  15.582   1.924
89374W        W61667  36.467  14.281  12.562
89375W        W61668  10.231  15.285   1.317
89376W        W61669  21.128  37.046  14.825
89377W        W61670  12.233  11.682  13.866
89378W        W61671  15.106  15.084   3.763
89379W        W61672   8.192  13.156  11.074
89380W        W61673  29.989   6.676  10.427
89381W        W61674  12.211   9.388   4.608
89382W        W61675  10.218   3.283   2.301
89383W        W61676  19.046  21.168   3.820
89384W        W61677   4.413  42.290  13.380
89385W        W61678  38.411  13.611  10.552
89386W        W61679  36.075  24.199  12.870
89387W        W61680  24.101  40.472   2.900
89388W        W61681   4.829  41.941   2.357
89389W        W61682  12.128  39.476  10.977
89390W        W61683  36.868  25.112  13.890
89391W        W61684  21.642  38.018   2.753
89392W        W61685  11.254  35.358  11.544
89393W        W61686  37.919  42.849   4.200
89394W        W61687  41.301  16.305  10.556
89395W        W61688  11.634  10.375   1.762
89396W        W61689   0.430   5.379  10.638
89397W        W61690   8.180  26.955   4.166
89398W        W61691   4.412  32.012  12.825
89399W        W61692   7.182  34.494   2.782
89400W        W61693  37.030  32.617  11.472
89401W        W61694  32.028   9.688   0.821
89402W        W61695  24.023   6.352   2.816
89403W        W61696  32.399  37.488  14.301
89404W        W61697   2.758   8.163   2.864
89405W        W61698  27.052   7.276   4.161
89406W        W61699  35.538  25.200  10.415
89407W        W61700   7.351   7.797   2.691
89408W        W61701  12.310   0.964   3.678
89409W        W61702  40.380  14.206  10.944
89410W        W61703   0.462  39.527   2.896
89411W        W61704   3.865  43.919   2.229
89412W        W61705  26.564  43.914  11.590
89413W        W61706  28.531  20.121  12.895
89414W        W61707  25.031  14.101  10.932
89415W        W61708  13.800   1.832   4.159
89416W        W61709  41.917  28.494  14.468
89417W        W61710  21.740   1.740   1.744
89418W        W61711  12.834  22.671   0.332
89419W        W61712  34.895  13.168   0.311
89420W        W61713  36.880   7.746   0.312
89421W        W61714   7.869  37.524   0.375
89422W        W61715  29.466  23.692   2.662
89423W        W61716  25.585   8.379   4.735
89424W        W61717  10.260  39.029   0.934
89425W        W61718  14.730  35.885  13.905
89426W        W61719   2.900  43.487  13.414
89427W        W61720  24.642  10.843  14.359
89428W        W61721  44.836  10.212  13.378
89429W        W61722  30.972  28.678  13.936
89430W        W61723  35.020   6.843  10.593
89431W        W61724  16.684  44.455  10.916
89432W        W61725  42.411  14.165  13.416
89433W        W61726  10.169  20.694  11.947
89434W        W61727  44.912  43.384  13.314
89435W        W61728  10.361  31.577   4.727
89436W        W61729  24.064  26.494   9.990
89437W        W61730  10.368  42.495   1.222
89438W        W61731  12.653  22.015   4.177
89439W        W61732  25.021   8.218   2.732
89440W        W61733  43.826  12.853  13.985
89441W        W61734   0.975  34.591  10.091
89442W        W61735  26.530  31.059   1.887
89443W        W61736  33.028  34.609  13.917
89444W        W61737  22.103   7.220   1.707
89445W        W61738  15.665   9.222  14.448
89446W        W61739   1.371  17.700  11.948
89447W        W61740   9.212  24.229   3.846
89448W        W61741  18.213   4.247  10.917
89449W        W61742  32.477   1.278   1.763
89450W        W61743  20.655   3.896   3.387
89451W        W61744  10.383  28.041  10.538
89452W        W61745  44.911  44.808   1.935
89453W        W61746  17.284  42.841  12.860
89454W        W61747  17.203  28.111   1.214
89455W        W61748  29.094  15.216   3.750
89456W        W61749  28.653  24.574  11.532
89457W        W61750  40.541  37.898   4.804
89458W        W61751  32.890  36.937  14.494
89459W        W61752  30.983  10.268   2.418
89460W        W61753  42.987  23.186   0.483
89461W        W61754  42.943  18.573   2.873
89462W        W61755  33.894  26.700   2.329
89463W        W61756  29.087  41.008  10.440
89464W        W61757  32.094   3.767   4.146
89465W        W61758  22.640   1.750   0.386
89466W        W61759  25.968  18.141   1.813
89467W        W61760  14.791  30.062  14.814
89468W        W61761  13.744  24.679  10.918
89469W        W61762  24.611  42.976   2.260
89470W        W61763   3.730   9.371   2.244
89471W        W61764  36.889   4.285   4.802
89472W        W61765  22.230  31.150  13.450
89473W        W61766  15.218  13.338   0.966
89474W        W61767  24.538  42.876  11.011
89475W        W61768  28.977  25.640  11.877
89476W        W61769  41.988  37.341  10.628
89477W        W61770  30.937  44.287   0.824
89478W        W61771  38.859  15.714   1.303
89479W        W61772  31.476  28.078   0.939
89480W        W61773  44.347  22.575  12.349
89481W        W61774  30.134  33.928  13.875
89482W        W61775  15.788  10.768  13.451
89483W        W61776   5.313  43.326   3.205
89484W        W61777  10.212  28.013  11.113
89485W        W61778  15.201  11.805  11.966
89486W        W61779  10.725  24.564   1.837
89487W        W61780   5.409  10.676   0.421
89488W        W61781  43.872  15.663  12.968
89489W        W61782  28.514  13.130   4.722
89490W        W61783  22.227  15.092   2.897
89491W        W61784  36.380  28.547   4.228
89492W        W61785  13.225  38.355  14.948
89493W        W61786  39.947   6.220  13.986
89494W        W61787  38.999  29.936  13.307
89495W        W61788  29.464  14.168  14.912
89496W        W61789  35.014  35.988   0.264
89497W        W61790  25.494  17.700   2.383
89498W        W61791  25.696  37.875  13.987
89499W        W61792  33.051  25.152  12.980
89500W        W61793  42.471  14.331  13.967
89501W        W61794   8.178  12.169   2.664
89502W        W61795  29.469  43.450  13.033
89503W        W61796   5.195   6.230  13.329
89504W        W61797  10.722   5.705   4.816
89505W        W61798  33.431   0.302  10.403
89506W        W61799  41.448  44.322   3.356
89507W        W61800  29.491  33.005  12.506
89508W        W61801  38.443  11.245  12.576
89509W        W61802  20.055  43.490  11.594
89510W        W61803  11.275   2.899  12.030
89511W        W61804  40.860   3.415  13.851
89512W        W61805  10.260  21.243   4.157
89513W        W61806  42.842  32.057  11.126
89514W        W61807  37.910  24.604   0.765
89515W        W61808  25.569  40.030   1.852
89516W        W61809  25.597  19.214   0.300
89517W        W61810  17.113  35.977   2.748
89518W        W61811   3.447  39.918   2.705
89519W        W61812   0.331  36.565   1.812
89520W        W61813  20.168  38.917  10.090
89521W        W61814  16.616  30.073  10.522
89522W        W61815  36.577  42.945   4.774
89523W        W61816  25.069  35.036  12.512
89524W        W61817  18.748  18.696  13.521
89525W        W61818  10.162   5.712  10.577
89526W        W61819   7.711  21.098   9.985
89527W        W61820  40.906  42.457   0.408
89528W        W61821  15.736  39.348  11.993
89529W        W61822  21.656  27.587  10.987
89530W        W61823  11.791  19.604   2.694
89531W        W61824  10.733  10.869  14.844
89532W        W61825  36.869  30.590   3.281
89533W        W61826   3.852  38.878   3.698
89534W        W61827   6.857  39.044   1.389
89535W        W61828  32.967  33.886  14.330
89536W        W61829  38.042   2.343   2.290
89537W        W61830   7.743  39.349   4.301
89538W        W61831  33.979  33.408  12.853
89539W        W61832   1.908  43.805   4.608
89540W        W61833  26.017   8.672   3.839
89541W        W61834  35.598  42.784   2.313
89542W        W61835  11.168  28.050   2.399
89543W        W61836  29.113   6.736   2.667
89544W        W61837   9.355  39.881  13.030
89545W        W61838  10.328  32.517  11.890
89546W        W61839  23.659  24.606   0.874
89547W        W61840  25.670  24.081   0.815
89548W        W61841  30.984  37.063   0.924
89549W        W61842   2.872  17.756   3.752
89550W        W61843  39.870   4.416  13.993
89551W        W61844   4.845  32.620  13.967
89552W        W61845  33.388   9.263  11.433
89553W        W61846  39.861  40.376  10.444
89554W        W61847  22.062  42.326   2.280
89555W        W61848  38.553  40.887   3.678
89556W        W61849   1.269  33.928   4.272
89557W        W61850   5.232  19.204  13.904
89558W        W61851   4.855  42.816   3.738
89559W        W61852  36.058   1.406   1.263
89560W        W61853  31.982   0.265   1.293
89561W        W61854  24.223  16.784  12.512
89562W        W61855  34.464  33.002  11.535
89563W        W61856   9.293   8.672   0.949
89564W        W61857  12.147   2.781   5.799
89565W        W61858  25.110  20.142   0.426
89566W        W61859   1.743  16.671  11.473
89567W        W61860  28.463  34.492   2.337
89568W        W61861   1.930  15.636  11.074
89569W        W61862  34.893  11.246   1.430
89570W        W61863   9.872  27.680  14.418
89571W        W61864   1.475  28.445   2.876
89572W        W61865  28.076  42.425   1.290
89573W        W61866  12.777  26.121  13.877
89574W        W61867  43.328  26.134  14.870
89575W        W61868   8.168  14.729   1.809
89576W        W61869  24.045  10.327  14.950
89577W        W61870   9.252   4.370   1.415
89578W        W61871  25.665   4.213   9.558
89579W        W61872  10.262  32.433   1.371
89580W        W61873  24.143  27.495   1.701
89581W        W61874  26.006  31.559   2.254
89582W        W61875  31.943  27.641  13.965
89583W        W61876  32.466  15.783   2.254
89584W        W61877  43.009  18.213  10.892
89585W        W61878  34.615  34.046   1.728
89586W        W61879  36.943  19.612  14.993
89587W        W61880  21.261  34.032   1.405
89588W        W61881  40.529  12.144   1.375
89589W        W61882  32.493  34.413  11.956
89590W        W61883  24.626  31.011   1.349
89591W        W61884  18.785  33.121  13.423
89592W        W61885  26.172  14.787   4.710
89593W        W61886  13.676  30.995  11.460
89594W        W61887   8.320  31.542   1.927
89595W        W61888   2.926  37.420  12.474
89596W        W61889  22.009  30.005   1.935
89597W        W61890  42.397  16.669  13.843
89598W        W61891  32.549   1.830  12.982
89599W        W61892  31.991  37.074  14.778
89600W        W61893  32.117   3.310  10.592
89601W        W61894   2.901  24.207  11.432
89602W        W61895  13.826  34.028  12.501
89603W        W61896  12.288   8.663  13.443
89604W        W61897   0.422  36.580  10.569
89605W        W61898  24.112  39.043  10.887
89606W        W61899  31.126   7.231   5.281
89607W        W61900  37.554  19.633  10.411
89608W        W61901  26.087  37.473   1.236
89609W        W61902  19.690  42.009  12.846
89610W        W61903  14.207  20.580  10.611
89611W        W61904  16.255   9.751  12.929
89612W        W61905  28.010  17.167   0.773
89613W        W61906  41.893  11.700  10.161
89614W        W61907  30.944  21.571  13.444
89615W        W61908  21.153  42.981   2.390
89616W        W61909  27.668   5.341  12.978
89617W        W61910  15.300  29.649   2.338
89618W        W61911  44.006  35.370  13.535
89619W        W61912  40.540  24.502   2.178
89620W        W61913   7.270  41.387  13.464
89621W        W61914  11.139  38.824  10.543
89622W        W61915  32.546   6.792  11.373
89623W        W61916  33.008  35.906   4.818
89624W        W61917   1.254  14.305  14.386
89625W        W61918   5.713   2.292   2.882
89626W        W61919  11.778  24.059   3.204
89627W        W61920  43.782  11.820  11.485
89628W        W61921  26.682  23.136   2.372
89629W        W61922   2.896  28.576   4.187
89630W        W61923  36.961  38.957  11.486
89631W        W61924  11.185   8.211   2.190
89632W        W61925   2.953  36.569   1.211
89633W        W61926  18.631   0.325   4.782
89634W        W61927  27.656  22.128   2.312
89635W        W61928  29.486   1.972   2.768
89636W        W61929  34.926  40.433   1.899
89637W        W61930  36.984  33.875   1.716
89638W        W61931  30.105   8.371  11.923
89639W        W61932   6.247   3.827  12.089
89640W        W61933  20.216  23.704  14.916
89641W        W61934  41.016   8.735   2.699
89642W        W61935  36.370  36.925   4.604
89643W        W61936  23.130  18.669   0.456
89644W        W61937  34.524  31.145   2.734
89645W        W61938  36.506  32.505   0.372
89646W        W61939  36.006  23.185   1.750
89647W        W61940  23.712  19.043  12.376
89648W        W61941  12.318  31.969   2.662
89649W        W61942  25.489  31.471   3.258
89650W        W61943  18.249  28.517   3.727
89651W        W61944   8.311  19.211   1.259
89652W        W61945  34.980   4.428   4.781
89653W        W61946  30.975  18.667   0.727
89654W        W61947  29.583  30.468  14.951
89655W        W61948   9.342  28.505   0.935
89656W        W61949  20.591  30.021  11.453
89657W        W61950  37.391  31.484   4.321
89658W        W61951  14.640  13.200   2.365
89659W        W61952  39.030  30.914   4.612
89660W        W61953  27.166   0.836   3.207
89661W        W61954   9.218  11.726   1.750
89662W        W61955  28.448   8.261   4.791
89663W        W61956  41.977  19.749  14.382
89664W        W61957  31.937   2.325   2.294
89665W        W61958   5.418  41.328   1.761
89666W        W61959   4.409  13.193  11.080
89667W        W61960  13.212   8.326  14.281
89668W        W61961  40.470  16.637  10.553
89669W        W61962  12.274  32.042  11.963
89670W        W61963  31.108  44.291  14.000
89671W        W61964  11.757   3.440  12.070
89672W        W61965  14.326   6.834  14.363
89673W        W61966  44.807   0.472   1.358
89674W        W61967  42.959  41.520   2.306
89675W        W61968  23.217  44.008   3.271
89676W        W61969  29.173   3.432   3.857
89677W        W61970  35.076  18.773  11.384
89678W        W61971  21.023  33.011  12.351
89679W        W61972  37.079  26.675   3.811
89680W        W61973  38.472  37.847   3.769
89681W        W61974   8.195   6.325  11.892
89682W        W61975  18.182  31.065  13.928
89683W        W61976   0.378  30.999  13.839
89684W        W61977  37.987  37.957  13.019
89685W        W61978  29.142  21.231  14.405
89686W        W61979  29.634  43.314  11.990
89687W        W61980  34.462  21.597   2.303
89688W        W61981  16.248  37.055  10.619
89689W        W61982   7.752  36.481   1.891
89690W        W61983   4.321  34.032   0.851
89691W        W61984   8.177  26.074  12.049
89692W        W61985  44.322   6.797  12.981
89693W        W61986   0.475  34.878   5.309
89694W        W61987  20.745  44.955   2.408
89695W        W61988  16.603  34.543  12.945
89696W        W61989  20.670   0.366  11.880
89697W        W61990   4.920  14.830   2.812
89698W        W61991  34.864  15.214  10.484
89699W        W61992  38.058   1.891  12.998
89700W        W61993  18.082  20.591  11.595
89701W        W61994   4.911  27.627   2.180
89702W        W61995  32.058  33.941  10.938
89703W        W61996  30.595  25.992  12.404
89704W        W61997   3.388  32.475   4.642
89705W        W61998  33.398   1.413   4.696
89706W        W61999  42.011  17.186   9.608
89707W        W62000  43.901  32.109   3.277
89708W        W62001   4.226  11.327  14.814
89709W        W62002  44.987  39.977  11.045
89710W        W62003  18.088  24.568  13.837
89711W        W62004  20.663  21.550   9.675
89712W        W62005  44.453  35.963   2.333
89713W        W62006  12.636  14.673   2.393
89714W        W62007  30.534  41.378  11.938
89715W        W62008  25.210  33.492  12.995
89716W        W62009  43.812  10.149   0.827
89717W        W62010   9.203  11.268   3.711
89718W        W62011  36.576  42.346   0.243
89719W        W62012  25.544  17.205   0.949
89720W        W62013  32.087  30.612   3.367
89721W        W62014  27.577  34.056  12.544
89722W        W62015  24.630   1.856   4.671
89723W        W62016   7.187   1.393   4.731
89724W        W62017  44.007  32.467  11.977
89725W        W62018   0.316  26.016  11.049
89726W        W62019  19.066  20.182   2.811
89727W        W62020  22.534  43.503   2.835
89728W        W62021  37.556  13.178  12.983
89729W        W62022  38.954  27.479  14.981
89730W        W62023  32.500  12.851   5.259
89731W        W62024  16.791   1.832  10.956
89732W        W62025   2.786  41.462  13.920
89733W        W62026  28.542   5.405  12.432
89734W        W62027  28.947  36.400   2.306
89735W        W62028  25.099   1.376  13.828
89736W        W62029  38.369  34.901   4.800
89737W        W62030   3.733  41.015  12.854
89738W        W62031  33.431  40.442   2.407
89739W        W62032  19.156  35.510  12.941
89740W        W62033  24.013   2.854  11.415
89741W        W62034  37.521   4.271   0.257
89742W        W62035  29.666  23.058   0.406
89743W        W62036  19.572  28.956  13.878
89744W        W62037  38.853  24.173  12.381
89745W        W62038  37.857   3.220   1.244
89746W        W62039   0.856  26.663   3.276
89747W        W62040  29.548  27.144  11.395
89748W        W62041  16.570  21.230   1.707
89749W        W62042  40.478  15.638   3.656
89750W        W62043  41.525  21.254  13.917
89751W        W62044  35.454  11.316   3.741
89752W        W62045  10.642  32.965  12.459
89753W        W62046  21.167  10.777   4.315
89754W        W62047  29.033  26.963  14.028
89755W        W62048  11.747  12.326   2.848
89756W        W62049  24.098  30.957   2.240
89757W        W62050  36.500  33.006   4.178
89758W        W62051  35.587   6.851   3.739
89759W        W62052  39.443  20.623  13.877
89760W        W62053  44.357   2.291  13.052
89761W        W62054  21.023  13.337  13.486
89762W        W62055  10.659  41.537  11.563
89763W        W62056   9.807  14.319   4.146
89764W        W62057  33.060  26.596   1.872
89765W        W62058  34.873  35.428  11.907
89766W        W62059   7.778  14.668   4.636
89767W        W62060  40.340  19.141  13.496
89768W        W62061  25.510  40.367   1.211
89769W        W62062  40.863  34.509   0.869
89770W        W62063  33.511  41.296   9.991
89771W        W62064   3.360   0.492   2.327
89772W        W62065   0.852   2.355   1.334
89773W        W62066  11.778  11.714  11.474
89774W        W62067  18.691  37.044   3.249
89775W        W62068   0.462  40.504  13.949
89776W        W62069   6.878  35.881  14.866
89777W        W62070  16.149   7.308  13.366
89778W        W62071  21.198  38.571   4.614
89779W        W62072  10.154   2.258   9.931
89780W        W62073  20.635  10.169  14.794
89781W        W62074  17.138  30.155  10.950
89782W        W62075  11.811   7.356   5.168
89783W        W62076  42.872   7.778   0.349
89784W        W62077   7.707  18.203   2.789
89785W        W62078  16.723  32.111  11.560
89786W        W62079  27.485  13.819  13.863
89787W        W62080  35.902  18.206   0.964
89788W        W62081  26.967  32.044  11.032
89789W        W62082   8.166   0.781  14.278
89790W        W62083  38.875  22.011   0.884
89791W        W62084   3.737  30.452   3.720
89792W        W62085  42.506   0.313  14.371
89793W        W62086  32.528  16.280   1.380
89794W        W62087  23.633  25.011   1.827
89795W        W62088  42.872  37.473  14.363
89796W        W62089  17.234   1.895   2.705
89797W        W62090  19.255  33.888  13.952
89798W        W62091  28.448   5.752   3.843
89799W        W62092  19.669  18.693   0.403
89800W        W62093  13.154  19.133   2.303
89801W        W62094  42.280   2.811  10.423
89802W        W62095  14.670  30.446   4.329
89803W        W62096  32.496  33.960  13.337
89804W        W62097  38.952  31.997   4.830
89805W        W62098  32.983  31.972   0.881
89806W        W62099  13.669   2.858  11.518
89807W        W62100   0.834  12.249  14.349
89808W        W62101   1.912  29.604  13.526
89809W        W62102   2.817  18.786   4.732
89810W        W62103  37.082  29.024   2.325
89811W        W62104  32.041  15.106   1.721
89812W        W62105  23.690  32.440  11.527
89813W        W62106  39.005  30.029   1.697
89814W        W62107  32.503  44.290   1.828
89815W        W62108  35.865  28.598   2.204
89816W        W62109   8.809   0.362  11.882
89817W        W62110  26.069  11.825   1.273
89818W        W62111  14.208  44.859   3.189
89819W        W62112  25.488  28.582   2.253
89820W        W62113  14.722  29.590  11.904
89821W        W62114   9.251  40.820  14.772
89822W        W62115  11.204  11.227  13.930
89823W        W62116  14.772  39.405   2.368
89824W        W62117  42.514  10.676  11.041
89825W        W62118  19.124  12.178  14.973
89826W        W62119   0.791   3.902   0.368
89827W        W62120  40.399  39.553  13.907
89828W        W62121  35.079   2.400   0.470
89829W        W62122  26.593   1.881   4.837
89830W        W62123   8.349  38.477   2.297
89831W        W62124   7.878  15.814   2.286
89832W        W62125  32.018  18.227  12.500
89833W        W62126   8.780   8.898  11.866
89834W        W62127  28.490  39.856  12.404
89835W        W62128   0.895  18.654  14.494
89836W        W62129  20.661  36.988   1.321
89837W        W62130  14.740   6.270   3.377
89838W        W62131  29.502   4.239   2.869
89839W        W62132  39.365  40.452   3.270
89840W        W62133   0.465  29.472  11.489
89841W        W62134  27.613  23.236  12.423
89842W        W62135   9.352   7.295   3.853
89843W        W62136  20.251  33.500  13.025
89844W        W62137  44.492  34.956  11.921
89845W        W62138   8.759  43.476  12.547
89846W        W62139  23.666  12.361  13.310
89847W        W62140  15.669  20.082  13.863
89848W        W62141  42.957   6.717  12.945
89849W        W62142  29.015  23.617   5.272
89850W        W62143   6.826  41.947   0.291
89851W        W62144  15.208  29.012   1.852
89852W        W62145   5.358  16.624  13.415
89853W        W62146  27.985  37.929   3.686
89854W        W62147  14.340  29.602   1.767
89855W        W62148  14.834  21.658  11.003
89856W        W62149   9.153   4.915   4.227
89857W        W62150   6.251   3.327  11.976
89858W        W62151  33.529  39.361   1.352
89859W        W62152  38.503  11.671   0.349
89860W        W62153   4.280   2.451   0.947
89861W        W62154   1.858   9.370  14.513
89862W        W62155  38.031   5.433   2.782
89863W        W62156   3.910  11.708   3.740
89864W        W62157  12.610   0.316   2.902
89865W        W62158   9.755  20.574  10.525
89866W        W62159  18.781  21.127   4.120
89867W        W62160  44.897   0.766  11.055
89868W        W62161  37.896  26.468   3.810
89869W        W62162  20.647  33.426  13.423
89870W        W62163   4.392   7.411  10.465
89871W        W62164  24.128  20.124   0.274
89872W        W62165  34.021  44.440  13.905
89873W        W62166  26.981  15.295  12.051
89874W        W62167  40.458  25.139  13.999
89875W        W62168  39.810  10.299  10.637
89876W        W62169  22.692  30.595   3.252
89877W        W62170  30.010  42.024   2.327
89878W        W62171  42.434  42.495  10.105
89879W        W62172  28.156   2.826   9.973
89880W        W62173  34.562  33.469  14.821
89881W        W62174  20.100  31.635   3.328
89882W        W62175  44.964  26.101  14.958
89883W        W62176  16.671  13.142   3.756
89884W        W62177  39.990  39.513  11.535
89885W        W62178  18.744  27.963   0.920
89886W        W62179   7.832   4.234  13.530
89887W        W62180   1.806  28.467   0.304
89888W        W62181  35.899  24.081   0.436
89889W        W62182   2.782  43.275  14.504
89890W        W62183  30.601  37.901  11.475
89891W        W62184  30.141   9.650  12.056
89892W        W62185  31.117  29.101   0.955
89893W        W62186  12.262  37.575  12.520
89894W        W62187   2.843  37.349   1.424
89895W        W62188  29.456  11.236  14.314
89896W        W62189   3.274  26.540   9.969
89897W        W62190  13.204  28.035  14.894
89898W        W62191  43.493   1.381   2.881
89899W        W62192  26.194  12.758  12.509
89900W        W62193  27.168  41.962  12.091
89901W        W62194   6.308  34.970  11.509
89902W        W62195   4.375  33.105  11.991
89903W        W62196   8.400  14.213  11.991
89904W        W62197  35.540  15.131   1.713
89905W        W62198  26.576  29.156  12.568
89906W        W62199  16.222  19.698   0.781
89907W        W62200  24.107  41.361   1.220
89908W        W62201   7.190   3.763  13.347
89909W        W62202  11.311  39.921   4.235
89910W        W62203  25.534  43.833   3.378
89911W        W62204  21.082  31.498  12.849
89912W        W62205  25.628  26.510   0.269
89913W        W62206   7.836  11.134   2.842
89914W        W62207   7.686  41.358  13.421
89915W        W62208   2.276  40.408   3.747
89916W        W62209  42.817  24.044  14.324
89917W        W62210   5.738  38.357   1.703
89918W        W62211  16.133  40.526  13.966
89919W        W62212  39.927  29.631  13.050
89920W        W62213   9.390  11.215   2.253
89921W        W62214  44.488   9.827  10.082
89922W        W62215  43.839  19.676  14.810
89923W        W62216   4.322   2.958   2.755
89924W        W62217  22.665   5.199  14.897
89925W        W62218  18.225  36.391  11.468
89926W        W62219  40.802  26.119   2.191
89927W        W62220  34.105  15.115   3.167
89928W        W62221   6.229   5.436   1.933
89929W        W62222  12.116  33.384  14.352
89930W        W62223  28.589  22.135   4.282
89931W        W62224   4.418  18.212  14.450
89932W        W62225  15.649   4.706  10.440
89933W        W62226   5.357  42.355   4.761
89934W        W62227  22.506   9.774   4.278
89935W        W62228  39.008  26.481  10.103
89936W        W62229  27.618  32.940  14.022
89937W        W62230  29.530  13.829   0.739
89938W        W62231   0.486  29.973  13.546
89939W        W62232  27.586  11.692  10.895
89940W        W62233  13.312  34.074  12.419
89941W        W62234  16.769  29.606   3.241
89942W        W62235  32.412   9.287   3.169
89943W        W62236  38.019  20.619   0.351
89944W        W62237  32.480   8.785   1.423
89945W        W62238  39.031  16.666   2.882
89946W        W62239  18.185  20.031   2.887
89947W        W62240  26.492  43.319   4.235
89948W        W62241  20.531  21.253   1.214
89949W        W62242  14.176   0.463  10.520
89950W        W62243  36.545  19.103   2.348
89951W        W62244  41.850  42.491   9.513
89952W        W62245  13.335  14.215   3.668
89953W        W62246  22.583   6.691   4.816
89954W        W62247   2.302  10.854  12.385
89955W        W62248  36.463  12.768   1.729
89956W        W62249  10.805  36.973  11.976
89957W        W62250   5.904   6.799  10.507
89958W        W62251  42.009   0.904   2.901
89959W        W62252  36.936  35.483   1.806
89960W        W62253  12.182  21.649   4.629
89961W        W62254  32.431  30.424   3.317
89962W        W62255   0.473  13.282  13.030
89963W        W62256  25.178  39.906   3.343
89964W        W62257  16.109  27.047  12.834
89965W        W62258  26.110  12.157  13.046
89966W        W62259  26.065  38.046   3.829
89967W        W62260  10.661   8.864  10.610
89968W        W62261  32.564   3.874   2.724
89969W        W62262  27.152  27.624  11.884
89970W        W62263  17.088  16.207   3.848
89971W        W62264   1.853  17.251  12.096
89972W        W62265  44.928  17.736   1.731
89973W        W62266   5.797   9.225   0.451
89974W        W62267  44.800  35.415  12.430
89975W        W62268  24.660  21.048  13.497
89976W        W62269  35.055  32.970   2.287
89977W        W62270  20.554  27.551   1.841
89978W        W62271  20.102  13.179  11.411
89979W        W62272  35.425  19.584   3.222
89980W        W62273  19.557  10.815  12.518
89981W        W62274  18.061  32.129  10.064
89982W        W62275  44.452  15.611  12.889
89983W        W62276  37.850  36.455  11.959
89984W        W62277  24.532   7.415  14.010
89985W        W62278  23.493  34.561  10.498
89986W        W62279   9.836  15.209   0.879
89987W        W62280   6.245  28.463   4.635
89988W        W62281  30.443   4.345   4.706
89989W        W62282   1.905  20.561   0.320
89990W        W62283   0.940  15.787  12.575
89991W        W62284  20.672  44.877   0.250
89992W        W62285  25.091   8.210   0.342
89993W        W62286  26.524   9.806   3.665
89994W        W62287  20.666  28.013   3.379
89995W        W62288   0.421  19.172  10.904
89996W        W62289  18.685  13.831  10.545
89997W        W62290  35.585  25.978  14.977
89998W        W62291  33.034  12.851  11.996
89999W        W62292  13.313  41.817   0.352
90000W        W62293   6.813  17.140  14.336
90001W        W62294  33.010   0.410  14.803
90002W        W62295  39.547  35.532  11.095
90003W        W62296  31.909  26.592  12.965
90004W        W62297  41.346  34.926   3.179
90005W        W62298  27.569  27.658   1.412
90006W        W62299   1.777  41.424   1.908
90007W        W62300  29.087  18.689  10.497
90008W        W62301  40.952   6.756   0.369
90009W        W62302   3.408  20.032   5.097
90010W        W62303  23.021   5.295   2.756
90011W        W62304  44.783  30.124   4.193
90012W        W62305  36.588  32.011  11.495
90013W        W62306  36.866   3.373   3.732
90014W        W62307   0.414  27.586   2.844
90015W        W62308  34.558  14.638   4.701
90016W        W62309  34.107  43.958   2.301
90017W        W62310  14.739  27.652  13.456
90018W        W62311  18.546  38.996   1.263
90019W        W62312   2.329  41.916   1.219
90020W        W62313  28.535  21.587  13.419
90021W        W62314  15.694  15.104   4.278
90022W        W62315   4.319  30.535   0.439
90023W        W62316   5.861  37.457  11.872
90024W        W62317  37.432  35.468   2.688
90025W        W62318  26.195  39.973  13.041
90026W        W62319  15.178  19.750   0.291
90027W        W62320  28.680  16.590   4.208
90028W        W62321  20.641  11.781  13.528
90029W        W62322   4.339  42.902   1.703
90030W        W62323  16.226   8.354   4.823
90031W        W62324  12.789  25.024  11.049
90032W        W62325   8.848  12.283  12.918
90033W        W62326  30.644  26.653   4.740
90034W        W62327  18.719  35.925   4.308
90035W        W62328  22.010  38.868   2.226
90036W        W62329   9.681  24.039   3.302
90037W        W62330   4.412  10.636  13.980
90038W        W62331   4.838  29.441   2.260
90039W        W62332  30.599  12.845   0.817
90040W        W62333  10.294  12.143   1.706
90041W        W62334   9.718  10.715  14.429
90042W        W62335  17.243   3.866   3.659
90043W        W62336   1.388  42.953  14.293
90044W        W62337   1.903  41.346  14.993
90045W        W62338   3.743  37.081  10.490
90046W        W62339   1.425  21.020   0.795
90047W        W62340  31.606  39.936  10.501
90048W        W62341  24.037  14.622  14.352
90049W        W62342  37.964  30.060   3.794
90050W        W62343   1.462  38.338   1.787
90051W        W62344   9.834  10.858   0.463
90052W        W62345   4.852  38.332   3.270
90053W        W62346   7.316   2.722  13.308
90054W        W62347  24.002  36.884   2.262
90055W        W62348  25.988  19.262   3.366
90056W        W62349   7.401  42.503   1.891
90057W        W62350  44.863   3.360   0.478
90058W        W62351  18.052   8.747   4.282
90059W        W62352   1.301  26.676   3.162
90060W        W62353  15.133   9.725   0.755
90061W        W62354  35.855  38.937  13.890
90062W        W62355  10.683  37.979   4.742
90063W        W62356  27.164  14.310  14.763
90064W        W62357  25.502  20.112   4.802
90065W        W62358  40.826  41.384   2.692
90066W        W62359  44.931  11.156  14.793
90067W        W62360  43.394   2.774  11.979
90068W        W62361  40.414  22.124  13.444
90069W        W62362  36.438   4.281   2.306
90070W        W62363  19.681   8.881   4.808
90071W        W62364  43.470  44.363   5.276
90072W        W62365  20.084  28.610  13.414
90073W        W62366  22.668   7.799   2.697
90074W        W62367  43.392  27.061   0.426
90075W        W62368  40.888  15.234  14.904
90076W        W62369  44.893  39.969   0.266
90077W        W62370   0.251  42.343   2.310
90078W        W62371   0.486   0.332  14.952
90079W        W62372  44.781  17.234   3.812
90080W        W62373  33.600  17.732   3.635
90081W        W62374  43.851   5.804  12.909
90082W        W62375  22.595  23.528   3.839
90083W        W62376   5.873  42.874   1.885
90084W        W62377  25.051  25.076  10.021
90085W        W62378  15.087  23.094  11.397
90086W        W62379  28.049  14.780  14.020
90087W        W62380  29.670   8.805   5.784
90088W        W62381  16.781  43.312   4.795
90089W        W62382  36.842  31.922  10.480
90090W        W62383  37.896  15.597   0.422
90091W        W62384  38.460   9.182   4.721
90092W        W62385   7.273  35.421   2.881
90093W        W62386  25.218  20.602  12.026
90094W        W62387   1.853  22.245   3.271
90095W        W62388   9.780  15.608   4.837
90096W        W62389   8.806  21.707   1.768
90097W        W62390  24.479  31.597  13.050
90098W        W62391  26.560  14.726  12.474
90099W        W62392  11.170  10.279  14.843
90100W        W62393  26.567  44.804   2.793
90101W        W62394   8.695  10.238  14.997
90102W        W62395  15.623   9.737   3.780
90103W        W62396  11.720  15.212  14.028
90104W        W62397  42.409  22.585   4.668
90105W        W62398  20.145  39.919   5.082
90106W        W62399  30.525  22.033   4.687
90107W        W62400  17.772   5.197  11.595
90108W        W62401  15.664  38.433   0.960
90109W        W62402  15.284  38.507   0.443
90110W        W62403  27.605  28.103   2.821
90111W        W62404  19.768  31.020  13.422
90112W        W62405  36.004  14.691   3.222
90113W        W62406  41.496  24.994   2.324
90114W        W62407   1.937   8.736  14.467
90115W        W62408  26.960  34.497  13.502
90116W        W62409  16.642  34.100  12.397
90117W        W62410  29.992  36.851   1.309
90118W        W62411  43.018  18.133   0.753
90119W        W62412  41.868  33.118   1.777
90120W        W62413   5.893  39.416   1.893
90121W        W62414   7.666   0.451   3.827
90122W        W62415   9.197  36.419  10.072
90123W        W62416  12.719  12.655  11.931
90124W        W62417  12.268   5.720   4.292
90125W        W62418   7.883   3.253  12.985
90126W        W62419  15.731  44.463  11.976
90127W        W62420  34.543   5.839  14.508
90128W        W62421  17.066  41.311   1.837
90129W        W62422  12.825  33.103  14.292
90130W        W62423  41.318  39.338  14.381
90131W        W62424  28.496  28.577   4.199
90132W        W62425  13.121  26.979  14.417
90133W        W62426  44.319  14.736  13.329
90134W        W62427  34.074  20.747  12.934
90135W        W62428  35.853  43.447   3.644
90136W        W62429   1.957  19.188  12.935
90137W        W62430  42.937  28.959  13.462
90138W        W62431   5.814  33.119   2.692
90139W        W62432  37.064  33.128   3.737
90140W        W62433  19.210  43.923   3.735
90141W        W62434  44.505   5.249  13.391
90142W        W62435  29.505  20.738   1.451
90143W        W62436  27.617  33.031  11.967
90144W        W62437   3.774  19.603  10.030
90145W        W62438  25.187  34.978   0.313
90146W        W62439   0.361  10.240   3.162
90147W        W62440  34.577   6.208   0.273
90148W        W62441  23.059  27.461   4.230
90149W        W62442  36.504  31.115   4.679
90150W        W62443  14.826  28.564  14.383
90151W        W62444  33.384  11.745   4.322
90152W        W62445  35.581  15.588   4.291
90153W        W62446  28.496   1.337  14.449
90154W        W62447  23.494  30.083   3.281
90155W        W62448  10.160   9.653  13.793
90156W        W62449  20.633  34.103   1.714
90157W        W62450   0.424   6.742   0.809
90158W        W62451  33.554  26.103  12.567
90159W        W62452   6.750  30.944   2.239
90160W        W62453  17.570   2.890  14.767
90161W        W62454  29.562  20.649  11.577
90162W        W62455  28.658   8.264  13.426
90163W        W62456  13.315  23.049   1.414
90164W        W62457  10.699  42.481   4.171
90165W        W62458  33.123  17.131  11.592
90166W        W62459  15.145   7.864   1.313
90167W        W62460  35.592  11.237   2.817
90168W        W62461  18.060   5.754   4.203
90169W        W62462   6.847  41.307   2.194
90170W        W62463  27.196  41.342   4.235
90171W        W62464  33.540  32.006  13.357
90172W        W62465  10.376  10.140   2.192
90173W        W62466  28.438  38.511  12.948
90174W        W62467  29.069   2.881   0.371
90175W        W62468  32.892   3.435   0.874
90176W        W62469  40.536   5.787   2.218
90177W        W62470   9.859  42.365   1.358
90178W        W62471  12.754   4.765   3.322
90179W        W62472  12.793  32.484  12.091
90180W        W62473   8.243   7.890   4.262
90181W        W62474  11.626  31.914   3.336
90182W        W62475   2.957  24.687   1.721
90183W        W62476  11.281  10.807  14.023
90184W        W62477  15.089  19.730   1.397
90185W        W62478  36.939  32.419   2.747
90186W        W62479  27.682   6.374  13.541
90187W        W62480   7.902  37.056   4.699
90188W        W62481  35.047  33.461   1.869
90189W        W62482  32.487  29.981  12.911
90190W        W62483  16.746  22.119   0.279
90191W        W62484  24.484  42.943  14.452
90192W        W62485  44.763  30.497   3.318
90193W        W62486  13.291  39.943   2.670
90194W        W62487  30.939  24.557  12.509
90195W        W62488   2.875  41.833  14.343
90196W        W62489   9.260  40.427  11.503
90197W        W62490  36.975  42.319  14.437
90198W        W62491  30.940  27.020  14.838
90199W        W62492  18.123  23.995   2.404
90200W        W62493  31.523  37.394   0.451
90201W        W62494   3.838  28.659  12.864
90202W        W62495  21.570  25.616  12.962
90203W        W62496  12.180  24.701   1.449
90204W        W62497   2.812  20.051   3.352
90205W        W62498  15.329  42.416   4.812
90206W        W62499  24.482  21.626  11.587
90207W        W62500  17.748  14.671   2.889
90208W        W62501  16.735   4.795  13.862
90209W        W62502  38.993  23.591   3.680
90210W        W62503  14.288   6.266   3.311
90211W        W62504  34.923   3.265   3.321
90212W        W62505  20.558  44.285   2.293
90213W        W62506  38.433  29.603   4.617
90214W        W62507   8.686  15.804   5.284
90215W        W62508   7.363  42.825  13.927
90216W        W62509  12.754  28.087  13.420
90217W        W62510   3.909  30.657   4.639
90218W        W62511  31.544  30.006  13.419
90219W        W62512  19.283  20.581  10.628
90220W        W62513  36.076  18.115  14.432
90221W        W62514  44.791   7.351   3.264
90222W        W62515  24.157   6.328   1.247
90223W        W62516   2.768  35.863   1.384
90224W        W62517   8.805   8.842   2.885
90225W        W62518  34.576   4.894   1.826
90226W        W62519  23.712  21.621  11.515
90227W        W62520  13.790  37.969   4.616
90228W        W62521  24.130  38.835   1.898
90229W        W62522  16.295   1.316  12.025
90230W        W62523  31.445  23.683  14.345
90231W        W62524  40.465   4.707  13.944
90232W        W62525   1.323  16.706   0.258
90233W        W62526  24.492   3.802  10.091
90234W        W62527  11.228  12.132   3.309
90235W        W62528  35.013  27.667   3.298
90236W        W62529  28.621  28.477  10.599
90237W        W62530  25.084  13.716  13.443
90238W        W62531  38.916   2.464  14.892
90239W        W62532   9.279  18.769  12.508
90240W        W62533  28.662  42.846  12.847
90241W        W62534  34.034  10.250   3.789
90242W        W62535   2.909  23.034   1.854
90243W        W62536  29.506  22.637  14.443
90244W        W62537  16.231   0.400   4.134
90245W        W62538  33.881  13.168   4.826
90246W        W62539  30.977  24.516   3.648
90247W        W62540  24.035  15.302   3.369
90248W        W62541  12.723  10.653  13.943
90249W        W62542  37.377   6.406   2.896
90250W        W62543  43.951   1.322   4.654
90251W        W62544   3.756  20.763  11.055
90252W        W62545   3.237  42.789  11.380
90253W        W62546   0.434  23.178  14.390
90254W        W62547  22.611  26.197  11.011
90255W        W62548   7.683  21.555   3.753
90256W        W62549  16.746  14.287   0.412
90257W        W62550  41.971   5.428  10.895
90258W        W62551   4.778  36.398   3.203
90259W        W62552  21.224  11.246  13.007
90260W        W62553  23.046   7.911  11.553
90261W        W62554  18.635  38.972  11.520
90262W        W62555  33.476  39.383  12.413
90263W        W62556  13.109  16.083   1.321
90264W        W62557  19.679   7.867  11.920
90265W        W62558  30.525  13.184   3.154
90266W        W62559  19.652  16.781  11.500
90267W        W62560   1.302   8.702   0.741
90268W        W62561  34.464   1.867   4.731
90269W        W62562  38.360  44.927  10.989
90270W        W62563  26.130  39.520  13.313
90271W        W62564  36.909  29.160   0.355
90272W        W62565  12.223  34.079  13.910
90273W        W62566   7.351  41.447   1.385
90274W        W62567  22.587  22.580   3.779
90275W        W62568   8.180  26.087   3.205
90276W        W62569  30.537  41.844  13.537
90277W        W62570  16.119   4.784   0.250
90278W        W62571  32.013  14.684  14.450
90279W        W62572  40.515  20.087   1.303
90280W        W62573  12.178  18.183  14.337
90281W        W62574  32.431  36.844   3.386
90282W        W62575  38.049  17.560  14.503
90283W        W62576  11.370  38.042  11.373
90284W        W62577  12.706  26.131   3.384
90285W        W62578   8.773   0.419   4.143
90286W        W62579  17.770  23.205   4.201
90287W        W62580  34.440   6.722  13.428
90288W        W62581  42.871  17.066   2.372
90289W        W62582  20.765  13.326  12.851
90290W        W62583  34.604  28.008   0.286
90291W        W62584  34.425   7.902  14.804
90292W        W62585  32.023  41.321  14.286
90293W        W62586   4.796  29.934  14.925
90294W        W62587  28.570  10.315  14.361
90295W        W62588  23.984  42.823  12.425
90296W        W62589   6.287  28.509  13.436
90297W        W62590  12.349  20.037  11.550
90298W        W62591  34.467  15.128  10.936
90299W        W62592  20.114   2.429  12.373
90300W        W62593   5.927  40.904  11.467
90301W        W62594  26.145   7.698  11.023
90302W        W62595   7.258  37.926  14.382
90303W        W62596  34.066  36.468  13.867
90304W        W62597   1.794  37.037   3.739
90305W        W62598   1.789  14.176  10.455
90306W        W62599  31.569  12.818  10.576
90307W        W62600   2.416  39.436  11.047
90308W        W62601  28.482   3.315   3.290
90309W        W62602  10.310  44.968  12.544
90310W        W62603  14.312  34.504   2.861
90311W        W62604  11.798  14.206  12.834
90312W        W62605  21.094  31.102  12.386
90313W        W62606   9.300  42.316  12.938
90314W        W62607  33.553  12.325   2.312
90315W        W62608  34.533  33.624   1.295
90316W        W62609  40.004  30.079  11.508
90317W        W62610  44.349   0.359   3.660
90318W        W62611  22.158  13.674  12.012
90319W        W62612  40.396  30.059   3.198
90320W        W62613  43.889  35.068  11.121
90321W        W62614  24.166  11.780  12.413
90322W        W62615  10.378  16.593   3.255
90323W        W62616  37.503  38.566  11.412
90324W        W62617  23.996  16.275  12.368
90325W        W62618  34.530  40.856   4.640
90326W        W62619  24.506  39.821   4.126
90327W        W62620  18.619   4.942  12.441
90328W        W62621   3.239   3.385  14.858
90329W        W62622  21.576  13.617  14.781
90330W        W62623   4.244  23.085   2.889
90331W        W62624  39.507   4.840   0.734
90332W        W62625  10.184  12.746  14.785
90333W        W62626   7.349  12.636   0.442
90334W        W62627   9.395   5.837  11.957
90335W        W62628  41.495  31.933  13.875
90336W        W62629  42.913  29.131  11.510
90337W        W62630  28.153  32.480   3.335
90338W        W62631  24.125   4.857  12.921
90339W        W62632  31.624  14.633  11.861
90340W        W62633  37.438  32.990  14.859
90341W        W62634   3.403   2.277   0.448
90342W        W62635  28.444   2.739   4.216
90343W        W62636  12.207  32.039  10.932
90344W        W62637  21.097   0.293   1.284
90345W        W62638   6.694   2.445   2.304
90346W        W62639   0.926  28.444   2.200
90347W        W62640  38.555  35.443   0.377
90348W        W62641   6.237  20.694   2.312
90349W        W62642   7.722  18.560   1.718
90350W        W62643  11.811  33.407   0.272
90351W        W62644  31.561  19.045   0.268
90352W        W62645  12.304  29.151  13.992
90353W        W62646   8.871  32.013   4.651
90354W        W62647  12.754  20.713  13.943
90355W        W62648  12.724   5.687   0.827
90356W        W62649  41.519  22.726   0.879
90357W        W62650   7.835  25.482   0.402
90358W        W62651   7.748  40.407  14.422
90359W        W62652  39.872  32.577  12.005
90360W        W62653  42.366  34.876  14.412
90361W        W62654  43.388  27.010  11.412
90362W        W62655   1.276   0.956  12.520
90363W        W62656  39.531   1.344  13.519
90364W        W62657  18.608   3.415   4.818
90365W        W62658   1.315  23.202   4.153
90366W        W62659  24.154  24.554   2.407
90367W        W62660  30.990  37.900   2.748
90368W        W62661  12.792   0.770  12.086
90369W        W62662   9.235  15.728  11.493
90370W        W62663  10.831  40.499   4.797
90371W        W62664  21.680  20.751  10.896
90372W        W62665   3.868   0.481   0.277
90373W        W62666  29.561  25.004   2.810
90374W        W62667  22.612  33.568   0.412
90375W        W62668  36.534  44.368  13.377
90376W        W62669  38.009   1.334   2.827
90377W        W62670  41.880  27.027   3.228
90378W        W62671   2.432  27.123   4.322
90379W        W62672  25.505  12.856   3.780
90380W        W62673  10.672  41.039   0.950
90381W        W62674  18.651  13.253   4.648
90382W        W62675  34.959  39.528   3.305
90383W        W62676   5.371  24.513  12.906
90384W        W62677  31.469   6.766  13.895
90385W        W62678  11.678  35.055   2.700
90386W        W62679   6.709  29.569   1.274
90387W        W62680   5.419  22.059   2.693
90388W        W62681  39.848  12.811   3.260
90389W        W62682   4.866  40.870  12.463
90390W        W62683  21.643  28.071  12.496
90391W        W62684   4.373   7.733   0.952
90392W        W62685  36.876  32.113   0.398
90393W        W62686  44.429  19.646   5.136
90394W        W62687   5.883   8.287  12.962
90395W        W62688  41.812  32.455  14.851
90396W        W62689   6.909  11.360  12.350
90397W        W62690  25.568  19.766  13.410
90398W        W62691   5.907  43.367   0.962
90399W        W62692   2.386  18.643   2.805
90400W        W62693   6.760  15.810  12.556
90401W        W62694  18.070   4.907   3.330
90402W        W62695   5.229   9.725  13.352
90403W        W62696  28.511  24.526   1.439
90404W        W62697  44.977   5.804   2.717
90405W        W62698   6.861   0.971  11.040
90406W        W62699  19.684   7.822   1.787
90407W        W62700  24.996  20.736   2.875
90408W        W62701  34.575  23.027   2.246
90409W        W62702  39.421  15.618   2.243
90410W        W62703  41.404  42.896  13.872
90411W        W62704  29.002  32.947   3.670
90412W        W62705  27.556  41.422   3.303
90413W        W62706  40.990  13.207  14.830
90414W        W62707  10.711  38.878  11.010
90415W        W62708  16.728   3.726  13.413
90416W        W62709  42.898   4.260  10.633
90417W        W62710  12.155  41.458  13.501
90418W        W62711  31.563  10.654   1.267
90419W        W62712  26.175  31.424   3.211
90420W        W62713  17.188  14.629  14.975
90421W        W62714  33.896  22.654  14.975
90422W        W62715  10.359   5.750   4.203
90423W        W62716   3.740  36.354  11.551
90424W        W62717  41.024  18.580  14.005
90425W        W62718  19.153  38.073   4.726
90426W        W62719  30.573  35.534  14.849
90427W        W62720  41.935  29.940  11.440
90428W        W62721  31.452  36.910   0.847
90429W        W62722  35.946  27.190   2.899
90430W        W62723  32.512  10.651   4.318
90431W        W62724  24.521  42.483  11.384
90432W        W62725  29.925  42.376   0.956
90433W        W62726  22.146  40.032  10.433
90434W        W62727   7.313  16.082   0.447
90435W        W62728  17.265  10.724  12.044
90436W        W62729  21.087  41.470  10.555
90437W        W62730  25.708  15.089   4.339
90438W        W62731  18.666  35.464   3.838
90439W        W62732  25.667   5.753   1.771
90440W        W62733  35.533   5.258   0.886
90441W        W62734  26.543  15.608   1.394
90442W        W62735  31.446  35.906  14.372
90443W        W62736  26.550  23.993  11.380
90444W        W62737  31.616  26.150  13.366
90445W        W62738  25.653  22.051  14.948
90446W        W62739   1.386  28.015   2.845
90447W        W62740  26.177   2.421   0.473
90448W        W62741   0.758  35.047  11.971
90449W        W62742  17.175  24.613   0.729
90450W        W62743  27.141  39.876   2.843
90451W        W62744  14.771  15.212   3.300
90452W        W62745  35.921   9.358  11.938
90453W        W62746   1.832  35.364  14.391
90454W        W62747  14.246  21.158   5.213
90455W        W62748  25.705  36.456  14.350
90456W        W62749  30.604  11.161   1.817
90457W        W62750  30.022   3.329  14.795
90458W        W62751  32.014  18.225  12.903
90459W        W62752  41.987   2.237   0.455
90460W        W62753  12.129  44.758  13.017
90461W        W62754  41.891  19.744  13.492
90462W        W62755   1.825  22.149   3.744
90463W        W62756   5.312  30.037   0.743
90464W        W62757  18.770  38.983   1.855
90465W        W62758   0.878  21.036   2.702
90466W        W62759   3.717  15.296   0.850
90467W        W62760  19.074  37.449   2.353
90468W        W62761  27.103  18.126  12.947
90469W        W62762  21.716   3.711   2.366
90470W        W62763  21.221  22.018  13.874
90471W        W62764  43.924  31.584  11.047
90472W        W62765  39.333   7.772   3.190
90473W        W62766  13.644  39.454   1.254
90474W        W62767  38.337  23.023  12.508
90475W        W62768   6.225   3.743  14.366
90476W        W62769  33.379   7.196  14.339
90477W        W62770  31.410  41.948   2.809
90478W        W62771   3.757  34.999  13.496
90479W        W62772  27.542  38.497   1.761
90480W        W62773  17.138  14.252   1.256
90481W        W62774   8.659   5.309   4.251
90482W        W62775   0.744  20.087  11.118
90483W        W62776   6.755  19.579  13.477
90484W        W62777   1.968  15.275  12.564
90485W        W62778  26.514  33.415  12.935
90486W        W62779  38.933  29.543   2.419
90487W        W62780  15.135  16.230  13.413
90488W        W62781  21.756  27.591   2.895
90489W        W62782  38.975  43.874  14.308
90490W        W62783  15.676  40.837  11.050
90491W        W62784  41.327   9.776  12.345
90492W        W62785   4.211  21.691   3.283
90493W        W62786  29.457  41.357   5.244
90494W        W62787  19.243  14.696   1.276
90495W        W62788  44.857  11.839   2.902
90496W        W62789  26.149  21.081   3.380
90497W        W62790   9.249  26.492  11.071
90498W        W62791   4.816   4.323   4.223
90499W        W62792  26.130  26.137   1.441
90500W        W62793  42.891  36.868  11.406
90501W        W62794  19.087  25.612  10.998
90502W        W62795  39.942  18.778   4.294
90503W        W62796  38.953   9.180  13.373
90504W        W62797  36.875   1.293  14.829
90505W        W62798  33.905  30.533   4.749
90506W        W62799  28.156   1.357  10.458
90507W        W62800  31.050  14.593   2.765
90508W        W62801  44.866  15.619  12.889
90509W        W62802  33.966  32.496  11.119
90510W        W62803  32.495  10.342   1.905
90511W        W62804  23.670   9.316   0.761
90512W        W62805   2.291  22.515   3.250
90513W        W62806  36.914  25.073   2.261
90514W        W62807   1.851  15.084   0.252
90515W        W62808   7.288  36.427  14.280
90516W        W62809  43.376  32.982   0.764
90517W        W62810  33.423  19.184   2.401
90518W        W62811  34.543  39.348  12.523
90519W        W62812  28.057  22.109  12.005
90520W        W62813  12.358  21.663  14.768
90521W        W62814   3.409  14.664  11.126
90522W        W62815  14.258  14.635  14.467
90523W        W62816  42.830   5.896  12.833
90524W        W62817   0.373   3.898   3.658
90525W        W62818   3.325  10.643   4.670
90526W        W62819  19.153   5.806   4.625
90527W        W62820  13.811   5.735   4.702
90528W        W62821  32.576   0.968  12.831
90529W        W62822  39.898  43.444   2.306
90530W        W62823  31.015  27.017   4.608
90531W        W62824   9.155  10.764  14.475
90532W        W62825  37.984  31.966  12.499
90533W        W62826  31.103   4.432  12.490
90534W        W62827  38.012  36.940   1.725
90535W        W62828   7.911  16.579  14.469
90536W        W62829   9.203   3.935  14.960
90537W        W62830   4.771  38.488  12.871
90538W        W62831  26.001  37.578   2.844
90539W        W62832  16.165   5.708  10.404
90540W        W62833  28.671  32.417   3.714
90541W        W62834  23.596  33.564   2.339
90542W        W62835  29.448  20.548   0.274
90543W        W62836   6.755  27.598   0.735
90544W        W62837   9.795   3.949   1.248
90545W        W62838  10.264  30.111   1.343
90546W        W62839  26.099  33.061  14.405
90547W        W62840  24.552  31.989  10.924
90548W        W62841  23.105   0.450  12.919
90549W        W62842   8.782   9.774   3.196
90550W        W62843   4.850  31.950  13.355
90551W        W62844  23.043   0.820   4.296
90552W        W62845  15.760  15.775  11.960
90553W        W62846  39.431   0.436  11.480
90554W        W62847  14.706   5.337  12.969
90555W        W62848  41.838  17.774   4.231
90556W        W62849  18.292  15.318  14.302
90557W        W62850   6.688  10.791   3.369
90558W        W62851  28.600  10.142   4.227
90559W        W62852  40.422   4.885   3.705
90560W        W62853  23.029  27.082   1.305
90561W        W62854  39.846   3.453   1.223
90562W        W62855   7.355   6.707   1.899
90563W        W62856   3.439  40.020   4.738
90564W        W62857  23.525  39.506  11.459
90565W        W62858  28.640  32.961   3.194
90566W        W62859   6.722  15.105  12.450
90567W        W62860  37.552  18.633   3.340
90568W        W62861  36.876  16.640   3.756
90569W        W62862  11.856   8.754  13.378
90570W        W62863  44.452  38.844   3.241
90571W        W62864  29.932  24.722   4.772
90572W        W62865  18.122  37.081   1.782
90573W        W62866  11.824   6.187   4.600
90574W        W62867  22.146  23.005  13.990
90575W        W62868   2.914  28.474  14.814
90576W        W62869  18.790  18.593  14.833
90577W        W62870   6.678  37.371   0.885
90578W        W62871  36.494  14.256  13.435
90579W        W62872  27.985   4.751  13.492
90580W        W62873   3.382  10.375   0.439
90581W        W62874   9.233  12.324  14.956
90582W        W62875  15.238  32.492   3.302
90583W        W62876   7.318   7.888   3.152
90584W        W62877  32.040  42.498   4.354
90585W        W62878  23.231   4.803  13.492
90586W        W62879   2.472  32.001  11.015
90587W        W62880   4.729   5.769   4.615
90588W        W62881  41.400  21.017   3.199
90589W        W62882  32.139  22.089  14.030
90590W        W62883  14.691  23.519  10.459
90591W        W62884  30.063  17.186  11.049
90592W        W62885  12.616   9.718   0.818
90593W        W62886  18.227  17.113   1.394
90594W        W62887  27.605  33.516  11.404
90595W        W62888   2.231  38.973   2.296
90596W        W62889  26.162   1.837   1.913
90597W        W62890   2.417  21.746  12.878
90598W        W62891  10.829  25.483  14.282
90599W        W62892  41.490  34.069  14.999
90600W        W62893  41.028   3.812   1.365
90601W        W62894  19.559  22.198  10.474
90602W        W62895  15.233  32.394  10.914
90603W        W62896  38.984  18.791  10.628
90604W        W62897  17.106  34.069   2.724
90605W        W62898  28.634  30.097   0.751
90606W        W62899   6.883  34.930   1.911
90607W        W62900  28.947  38.340  11.452
90608W        W62901  23.619   0.812   0.875
90609W        W62902  12.232  36.555  14.808
90610W        W62903   0.355   2.464   4.261
90611W        W62904   2.932   9.299   4.167
90612W        W62905  13.779  21.134  13.913
90613W        W62906  15.604  36.481   2.370
90614W        W62907  35.409  19.628  13.830
90615W        W62908  20.215  23.986  14.806
90616W        W62909  35.394  17.180   4.345
90617W        W62910  34.017  38.825   0.771
90618W        W62911  35.576  14.169  13.008
90619W        W62912   0.780   8.721  10.942
90620W        W62913  25.611   3.732  13.462
90621W        W62914  25.093   7.390  14.891
90622W        W62915  41.904   5.215   4.333
90623W        W62916  24.539  20.181  11.455
90624W        W62917  38.884  32.564   2.671
90625W        W62918  31.943  25.474  14.336
90626W        W62919  12.338   1.905  11.949
90627W        W62920  13.831  40.464  11.439
90628W        W62921  43.413  42.283   4.309
90629W        W62922   4.839  11.172   3.321
90630W        W62923   4.902  14.318  10.616
90631W        W62924  18.715  32.058  13.539
90632W        W62925  35.362  41.914  10.633
90633W        W62926  30.551  36.347  11.127
90634W        W62927  23.666  24.054   4.694
90635W        W62928  33.958  15.596  14.845
90636W        W62929  10.175  23.531  12.959
90637W        W62930  39.978  14.229   4.151
90638W        W62931   6.295  39.007   5.175
90639W        W62932  23.720  29.652   1.892
90640W        W62933  14.639  43.510   1.416
90641W        W62934  44.306  29.970  14.909
90642W        W62935  16.181  32.936   4.622
90643W        W62936   8.887  33.054   3.662
90644W        W62937   3.766  33.962  11.394
90645W        W62938  41.025  38.983  13.988
90646W        W62939  38.026  14.645   2.346
90647W        W62940   4.240  11.345   3.836
90648W        W62941   4.797  39.847   0.802
90649W        W62942  31.482   3.358   2.337
90650W        W62943  40.038  24.648   3.848
90651W        W62944   9.825  10.142  11.860
90652W        W62945   8.885  42.001  12.024
90653W        W62946  27.517  15.217  12.504
90654W        W62947  25.177  27.976  11.588
90655W        W62948  16.248  24.564   4.695
90656W        W62949  10.314  31.620  14.490
90657W        W62950  30.020  34.000   0.336
90658W        W62951   9.648  43.369   2.351
90659W        W62952  33.452  13.843   1.262
90660W        W62953  15.620  19.693  13.901
90661W        W62954  23.065  13.810   2.818
90662W        W62955  17.101  13.799  14.410
90663W        W62956  40.011  37.398  14.801
90664W        W62957  27.480  44.293   2.855
90665W        W62958  26.041  22.079  11.124
90666W        W62959   2.388  38.522   0.889
90667W        W62960   1.454   7.776   3.329
90668W        W62961   2.924  26.155  12.932
90669W        W62962   2.746  35.933   3.180
90670W        W62963  11.784  21.171   2.336
90671W        W62964  44.913  19.562  12.828
90672W        W62965   7.793  15.182  12.962
90673W        W62966   6.732  27.161  14.509
90674W        W62967   7.243   8.345   0.806
90675W        W62968  11.805   4.324  14.506
90676W        W62969  34.967  10.302  10.910
90677W        W62970  19.712  37.466  13.904
90678W        W62971  44.282  30.979  10.578
90679W        W62972   6.263   6.853   3.312
90680W        W62973  21.052   1.316  12.997
90681W        W62974  38.331  17.082  11.585
90682W        W62975   0.466  20.056   0.439
90683W        W62976   2.432   0.346  11.891
90684W        W62977  13.709  23.020  13.950
90685W        W62978   4.846  30.620   4.833
90686W        W62979  22.617   7.251   0.472
90687W        W62980  28.106   0.800   0.957
90688W        W62981  32.524  14.738   3.756
90689W        W62982  18.185  28.019   4.159
90690W        W62983  40.967  12.356  11.604
90691W        W62984  15.321  31.470  12.989
90692W        W62985   6.272  39.462  14.948
90693W        W62986  39.864  16.638  14.292
90694W        W62987  34.010  12.785  10.602
90695W        W62988   5.223  20.641   2.399
90696W        W62989   1.451   6.894   2.857
90697W        W62990  38.331  43.970   0.475
90698W        W62991  34.597  12.801   2.399
90699W        W62992  27.955   5.217   3.175
90700W        W62993  13.839  32.112   4.635
90701W        W62994  12.276  26.649  12.085
90702W        W62995  27.132  27.159   0.882
90703W        W62996   8.710  23.170  10.529
90704W        W62997  10.721   5.719  11.583
90705W        W62998  28.088  24.719  14.434
90706W        W62999  36.002  44.455  13.945
90707W        W63000  22.534  39.035  13.983
90708W        W63001  16.668   8.830  14.473
90709W        W63002  33.006  29.933   3.639
90710W        W63003  12.310  36.904   4.253
90711W        W63004  32.087  20.728   0.275
90712W        W63005  13.673  40.983  10.896
90713W        W63006  41.299  24.069   1.733
90714W        W63007  36.359  44.958   3.232
90715W        W63008  26.587   6.852  13.323
90716W        W63009  42.522  11.351  11.047
90717W        W63010   6.710   5.238  12.568
90718W        W63011  16.569  42.351   2.769
90719W        W63012  24.228  16.809   0.890
90720W        W63013  40.023  22.061  12.413
90721W        W63014  17.773   7.776   1.377
90722W        W63015  31.426  33.959  13.917
90723W        W63016   4.760  25.183   3.802
90724W        W63017  41.832   1.246  10.568
90725W        W63018  24.479  27.108   2.852
90726W        W63019  43.510  16.569  11.491
90727W        W63020  14.640  21.605   0.423
90728W        W63021  42.798   8.750   2.853
90729W        W63022  28.003  11.287   0.753
90730W        W63023  10.738  33.879  13.363
90731W        W63024   9.229  15.594   0.412
90732W        W63025  13.741  16.168  10.455
90733W        W63026  32.518  24.543  14.314
90734W        W63027  20.029  42.894  12.072
90735W        W63028  24.208   5.882  13.941
90736W        W63029  23.223  21.568  13.815
90737W        W63030   5.243   8.307  14.275
90738W        W63031  32.621  19.672   2.770
90739W        W63032  10.275  17.301   3.335
90740W        W63033  15.650   5.774   4.639
90741W        W63034  40.340  34.104   4.171
90742W        W63035  40.314   8.784  11.030
90743W        W63036  21.652  21.174  11.488
90744W        W63037  16.579  30.549   3.835
90745W        W63038  37.499  36.063  11.947
90746W        W63039  27.101  16.276  10.576
90747W        W63040  27.132   7.753   3.307
90748W        W63041  43.765   5.781  11.939
90749W        W63042  35.419  16.075   0.451
90750W        W63043  41.428  44.479   4.132
90751W        W63044  26.569  20.051  10.611
90752W        W63045  44.906  38.963   4.715
90753W        W63046  24.041  12.820  13.488
90754W        W63047  29.528  19.659  13.400
90755W        W63048  14.192  12.307  14.285
90756W        W63049   3.897   5.278  13.541
90757W        W63050  43.781  30.656   2.673
90758W        W63051  33.429  28.571   3.705
90759W        W63052  10.273  12.706  12.951
90760W        W63053  31.452  43.982   4.350
90761W        W63054  38.361  27.688   3.734
90762W        W63055  10.846  37.832  12.857
90763W        W63056  21.173  11.215  13.855
90764W        W63057  23.505  26.683   2.265
90765W        W63058  23.993  28.587  14.461
90766W        W63059  24.188   8.280  11.876
90767W        W63060  24.062  42.780   0.428
90768W        W63061   7.848  36.976  10.073
90769W        W63062  12.630  20.559  12.826
90770W        W63063  26.465   4.314  14.979
90771W        W63064  40.890  25.064   0.457
90772W        W63065  19.211  33.015   0.382
90773W        W63066   8.228  20.733  10.899
90774W        W63067  25.491  38.532  12.921
90775W        W63068  18.226   3.310  14.296
90776W        W63069  18.083  27.580  12.402
90777W        W63070  34.546  24.193  13.389
90778W        W63071  42.470  38.526   1.890
90779W        W63072  43.340  11.205  14.380
90780W        W63073  14.238  10.168  13.499
90781W        W63074  18.173  27.494  12.921
90782W        W63075   6.913   5.256   4.705
90783W        W63076   3.851  27.006   0.301
90784W        W63077  22.533  10.864   1.850
90785W        W63078   8.391  16.195  10.448
90786W        W63079   6.859  29.605   4.781
90787W        W63080  22.220  31.567  12.033
90788W        W63081   1.788  13.790   1.816
90789W        W63082  19.630  29.115  10.568
90790W        W63083   0.836  37.400   0.776
90791W        W63084   7.269  24.710  11.960
90792W        W63085  14.732   6.403  14.810
90793W        W63086  14.607  17.200   3.348
90794W        W63087  18.271  15.143  14.856
90795W        W63088   6.770  21.132  10.553
90796W        W63089  42.387  18.748   1.735
90797W        W63090  21.180   2.763  13.030
90798W        W63091  15.190   5.826  14.866
90799W        W63092  26.646  42.449  11.891
90800W        W63093  34.904  28.488  12.913
90801W        W63094  19.737  37.468  10.428
90802W        W63095  44.798   0.910   3.851
90803W        W63096  26.571  17.745  14.770
90804W        W63097   2.914  16.289   0.918
90805W        W63098  28.520  37.923  11.407
90806W        W63099   0.416   8.835   2.261
90807W        W63100  23.722   1.794   3.828
90808W        W63101  39.354  44.432   1.349
90809W        W63102  39.542  30.136  13.838
90810W        W63103  21.165  23.509  11.935
90811W        W63104  14.650  24.486   3.732
90812W        W63105  21.686  39.052   2.833
90813W        W63106  22.032   0.333   3.716
90814W        W63107  14.620  10.664  14.435
90815W        W63108  33.952  41.391  13.932
90816W        W63109  19.089  25.973   0.932
90817W        W63110  44.480  29.171   4.238
90818W        W63111  13.333  22.600   4.180
90819W        W63112  27.470  22.597   1.316
90820W        W63113   3.270  19.095  11.479
90821W        W63114  16.163  37.463   3.387
90822W        W63115  18.093  40.943  11.905
90823W        W63116  28.618  27.477   4.726
90824W        W63117  24.129  30.531  10.411
90825W        W63118  36.845  19.281  11.585
90826W        W63119  25.145  42.784  13.905
90827W        W63120  24.065   1.436  12.569
90828W        W63121   8.354  16.701  10.545
90829W        W63122  26.195  20.127   2.182
90830W        W63123   3.319  25.643  14.799
90831W        W63124  36.069  20.035   2.840
90832W        W63125  36.031  17.162  13.481
90833W        W63126  40.409   1.422  14.348
90834W        W63127  31.909  29.592   3.266
90835W        W63128  30.111  32.430   1.704
90836W        W63129  39.396  31.490   4.635
90837W        W63130  20.572  21.589  11.100
90838W        W63131  18.626   8.774   1.421
90839W        W63132  25.060  29.919  10.607
90840W        W63133   3.459  22.243  11.902
90841W        W63134   0.966  42.509   0.792
90842W        W63135  27.507  25.659   0.414
90843W        W63136  18.201  37.958  10.970
90844W        W63137  42.448  37.353   2.415
90845W        W63138  26.996   9.772   0.243
90846W        W63139   3.330   4.773  14.840
90847W        W63140  22.523  25.526  14.031
90848W        W63141  39.354  14.602  14.008
90849W        W63142  13.176   1.315  13.369
90850W        W63143   5.692  20.253  12.963
90851W        W63144  12.854  27.462   1.811
90852W        W63145   7.315   5.409   3.158
90853W        W63146  11.279  16.748  11.916
90854W        W63147  32.937  23.701  14.337
90855W        W63148  23.163  10.828   4.653
90856W        W63149   8.789  44.371  11.989
90857W        W63150  38.898   6.357  11.523
90858W        W63151  43.899  28.470  12.384
90859W        W63152  13.187  43.467   0.892
90860W        W63153  16.219  31.501   2.257
90861W        W63154  17.124  40.444  14.783
90862W        W63155  13.274  28.050  10.100
90863W        W63156  28.513  12.139   3.343
90864W        W63157  26.469  12.734  13.342
90865W        W63158   9.258  39.314  11.491
90866W        W63159  26.607  13.668  12.393
90867W        W63160   7.338  29.990   1.325
90868W        W63161  23.139   3.256  10.510
90869W        W63162   9.783   6.287   0.243
90870W        W63163  36.060  26.044   1.304
90871W        W63164  17.260  26.703   2.787
90872W        W63165  17.627  36.423  11.442
90873W        W63166  13.610   7.831  11.907
90874W        W63167   7.288   4.376   0.415
90875W        W63168  18.639  16.218  10.504
90876W        W63169  22.534  40.915  10.516
90877W        W63170   4.709  10.640   3.688
90878W        W63171  15.177  18.587  10.521
90879W        W63172   9.205  13.614   3.819
90880W        W63173   6.260  23.187   1.345
90881W        W63174  26.989  18.124  10.892
90882W        W63175  31.618  26.185   2.290
90883W        W63176  16.747   4.718  11.389
90884W        W63177  35.499  12.341   3.209
90885W        W63178  43.504  27.499  13.989
90886W        W63179   7.781  10.757  13.011
90887W        W63180   0.272  18.643  14.772
90888W        W63181  30.623  27.967   0.896
90889W        W63182  18.249  14.334   4.133
90890W        W63183  41.809  13.314   2.852
90891W        W63184  29.156  25.552  12.540
90892W        W63185  34.058  23.647  12.400
90893W        W63186  14.286   4.832  12.402
90894W        W63187  27.148   4.848  11.028
90895W        W63188  41.846  33.902  13.338
90896W        W63189  29.526  37.449   4.230
90897W        W63190  27.116  23.525   9.450
90898W        W63191   7.807  29.047  11.969
90899W        W63192  42.796  37.022   1.888
90900W        W63193  14.247  12.616  11.918
90901W        W63194   2.761  27.447   0.458
90902W        W63195  26.626  17.064  14.298
90903W        W63196  40.337  13.622  10.559
90904W        W63197  43.806  42.477   4.127
90905W        W63198  17.614  12.327   2.242
90906W        W63199  44.836   9.373  14.786
90907W        W63200  36.515   5.706   4.336
90908W        W63201   1.856  32.103  14.449
90909W        W63202  42.032  29.035   0.948
90910W        W63203  43.316   8.172   0.831
90911W        W63204  22.541   5.845   4.232
90912W        W63205  17.620  33.406  10.445
90913W        W63206  23.499   9.347  13.361
90914W        W63207  14.800  38.384   4.344
90915W        W63208  12.831   6.830  10.964
90916W        W63209   5.832  38.549   2.727
90917W        W63210  14.806   7.735   4.609
90918W        W63211  17.728  15.823   0.839
90919W        W63212   1.339   3.789  13.015
90920W        W63213  23.195  41.362   0.750
90921W        W63214  43.329  20.085  10.489
90922W        W63215  24.624  22.653   1.845
90923W        W63216  44.288   7.399  13.316
90924W        W63217  42.361  30.526  11.885
90925W        W63218  16.095  37.866  13.808
90926W        W63219  41.985   5.227   3.171
90927W        W63220  29.126  40.939   0.728
90928W        W63221  14.099   3.726  13.800
90929W        W63222  38.372  32.568  13.381
90930W        W63223   5.895  11.315  13.542
90931W        W63224  23.170  25.589   0.855
90932W        W63225  26.492  11.680   3.814
90933W        W63226  43.935   9.804   4.249
90934W        W63227   3.821   6.307  12.868
90935W        W63228  36.408  31.422  10.594
90936W        W63229   2.468  32.488  11.976
90937W        W63230   0.892  25.163  13.809
90938W        W63231  14.796  23.210  12.374
90939W        W63232  13.800  37.531  14.817
90940W        W63233  14.672  40.498   3.360
90941W        W63234  25.644  37.540   0.762
90942W        W63235  37.512   9.783  14.776
90943W        W63236  18.200  18.758   4.192
90944W        W63237  19.222  12.345   3.238
90945W        W63238  18.222  13.760  12.350
90946W        W63239  29.645   5.841  14.290
90947W        W63240  16.118  44.786  11.940
90948W        W63241  11.813  17.147   5.313
90949W        W63242  24.220  17.648   1.284
90950W        W63243  30.089   7.706  12.484
90951W        W63244  21.534   4.724  13.855
90952W        W63245  20.705  17.573  14.948
90953W        W63246  29.518  30.071  14.816
90954W        W63247  44.837   7.835   4.614
90955W        W63248   3.445  19.099  13.431
90956W        W63249   1.366  30.487   3.174
90957W        W63250  43.486  25.529  13.443
90958W        W63251   7.712  36.893  11.892
90959W        W63252  14.833  37.522   4.310
90960W        W63253  42.024   2.952  13.924
90961W        W63254  14.611  33.051   1.269
90962W        W63255  19.579  44.274   5.208
90963W        W63256   0.882  20.750  12.394
90964W        W63257  35.428  21.628   4.145
90965W        W63258  12.709  30.611  11.941
90966W        W63259  44.931  33.108   0.738
90967W        W63260   5.214  24.554   1.273
90968W        W63261  23.683  11.170  14.912
90969W        W63262  14.823   5.382   4.737
90970W        W63263  30.011  30.467  13.388
90971W        W63264   5.924  26.072  12.904
90972W        W63265   4.817  18.209   0.851
90973W        W63266  41.978   6.202   4.306
90974W        W63267   3.774  18.163  13.432
90975W        W63268  41.367  41.981  10.508
90976W        W63269   0.768   6.236   4.819
90977W        W63270  29.123  15.820   2.374
90978W        W63271  12.202  40.547   4.266
90979W        W63272  26.625  10.289  11.059
90980W        W63273   2.831  29.542   2.897
90981W        W63274  17.603  16.101  13.955
90982W        W63275   3.871   7.294  14.982
90983W        W63276  41.999  15.127   0.889
90984W        W63277  18.673  17.210  13.544
90985W        W63278  23.517  44.358  13.935
90986W        W63279  34.410  31.420  12.453
90987W        W63280  24.105  44.299  10.895
90988W        W63281  11.132  24.564  12.068
90989W        W63282  22.685  10.191   1.431
90990W        W63283  21.551  17.766   2.708
90991W        W63284  35.931  25.023   2.703
90992W        W63285  22.191  28.595   0.303
90993W        W63286  16.756  21.181  12.505
90994W        W63287  42.957   8.900  13.469
90995W        W63288   4.873  12.697  14.894
90996W        W63289  38.533  15.282  13.862
90997W        W63290  17.070  41.366   0.863
90998W        W63291   0.279   0.759   0.378
90999W        W63292  30.491  39.452  14.890
91000W        W63293  28.438   0.489  14.434
91001W        W63294  31.075  41.490  13.969
91002W        W63295  36.432   1.441   4.813
91003W        W63296   5.897   5.804   3.225
91004W        W63297  18.208  22.055  12.975
91005W        W63298   3.222  29.001  14.469
91006W        W63299  12.159  11.146  12.474
91007W        W63300  26.111  23.189  14.978
91008W        W63301  21.555  14.742   0.288
91009W        W63302  42.794  17.742  13.453
91010W        W63303  42.428  27.053   4.835
91011W        W63304  18.196  28.930  12.077
91012W        W63305   9.381   2.899   1.813
91013W        W63306   5.764  33.599   1.362
91014W        W63307  14.339  13.154  14.293
91015W        W63308  25.051   6.303   1.275
91016W        W63309  42.923  36.442   0.361
91017W        W63310  36.489  30.586   3.216
91018W        W63311  17.654  33.908  13.883
91019W        W63312  26.623  27.110  11.436
91020W        W63313  32.425  20.677  14.993
91021W        W63314  13.767  36.483   1.765
91022W        W63315  11.178   5.273  11.589
91023W        W63316  31.956  39.546  14.287
91024W        W63317  24.622  22.574  11.870
91025W        W63318  15.138  10.216  13.325
91026W        W63319   7.829  30.969   2.199
91027W        W63320  40.806  21.530  14.330
91028W        W63321  15.741  24.985   2.263
91029W        W63322  12.260  34.874   2.796
91030W        W63323   9.698  23.171  11.470
91031W        W63324  32.983   1.893  10.629
91032W        W63325   2.417   9.236   2.291
91033W        W63326  43.774   6.196   0.805
91034W        W63327   9.870  43.934  11.555
91035W        W63328  24.650   9.833  13.915
91036W        W63329  12.664  25.665  13.526
91037W        W63330  15.754  30.643   2.709
91038W        W63331   9.691  15.271   0.351
91039W        W63332   0.808  21.555   4.715
91040W        W63333  26.154  31.574  11.501
91041W        W63334  42.964   6.730  14.963
91042W        W63335   0.294  20.037   4.251
91043W        W63336  15.663  21.515  14.452
91044W        W63337  18.700  29.430   1.440
91045W        W63338  33.533   3.926   2.784
91046W        W63339  41.892  26.532   4.700
91047W        W63340  11.733  31.942   1.361
91048W        W63341   2.265  32.442   2.729
91049W        W63342  30.034  33.496   2.847
91050W        W63343   6.774  22.517   1.292
91051W        W63344  21.537   8.219  12.396
91052W        W63345   3.281  18.216  14.501
91053W        W63346   2.824   4.730  14.482
91054W        W63347  30.446  35.570  11.385
91055W        W63348   3.764  17.689   1.878
91056W        W63349  22.079   2.372   2.689
91057W        W63350  30.434  11.695   0.863
91058W        W63351   2.414  20.624  11.032
91059W        W63352  23.004  42.473   0.374
91060W        W63353  25.707  14.720  13.318
91061W        W63354  29.029  16.786   3.754
91062W        W63355  33.593   2.463   4.297
91063W        W63356   9.304  22.670   0.771
91064W        W63357  39.368  42.777   0.279
91065W        W63358  22.690  40.950  12.550
91066W        W63359  40.874   9.695   1.882
91067W        W63360  16.703   5.807  10.962
91068W        W63361  12.260  16.184   0.901
91069W        W63362  17.699   9.871   3.802
91070W        W63363  16.783  39.987  12.997
91071W        W63364  15.603   6.750   3.289
91072W        W63365   8.768   5.242   1.800
91073W        W63366  31.636  13.236   3.749
91074W        W63367  33.092  11.775  13.339
91075W        W63368  43.849  12.688   4.256
91076W        W63369   4.325  40.828   2.752
91077W        W63370  38.520  39.416  14.467
91078W        W63371  16.204  35.006   3.751
91079W        W63372  15.280  37.942  13.794
91080W        W63373  16.289  42.368  12.509
91081W        W63374  44.780  17.195  12.390
91082W        W63375  43.934  10.830   4.190
91083W        W63376  11.187  37.432   0.928
91084W        W63377  21.037  19.164  11.398
91085W        W63378   6.912  33.415  12.567
91086W        W63379  31.606  35.540  12.020
91087W        W63380  19.272  17.076   2.414
91088W        W63381  30.535  20.145   3.158
91089W        W63382  37.022  17.570   0.303
91090W        W63383   2.378  20.105  14.956
91091W        W63384  17.658  33.036   1.306
91092W        W63385   4.274  42.996   2.677
91093W        W63386  12.722  31.898   2.252
91094W        W63387  15.267   5.749  11.516
91095W        W63388   3.379  39.957  14.989
91096W        W63389  22.166   1.447  11.911
91097W        W63390  21.533   9.175   0.749
91098W        W63391  25.033  11.827  13.385
91099W        W63392   3.748  22.712  14.919
91100W        W63393  20.234  11.843   0.783
91101W        W63394  18.709   4.263  12.061
91102W        W63395  18.729  14.700  11.595
91103W        W63396  26.969  40.405   1.851
91104W        W63397  15.703  32.400  13.425
91105W        W63398  20.612  42.803   5.227
91106W        W63399  17.064   9.323  11.887
91107W        W63400   7.769  21.699   1.892
91108W        W63401  42.929   9.369   1.361
91109W        W63402  41.470  42.828  14.982
91110W        W63403   6.730  23.181  12.950
91111W        W63404   5.376  20.656  12.906
91112W        W63405  41.316   4.785   1.300
91113W        W63406  37.365  35.031  11.974
91114W        W63407  30.159  34.461  12.380
91115W        W63408   3.272  28.134  13.478
91116W        W63409  31.433   8.866   3.151
91117W        W63410  27.479   9.365  14.879
91118W        W63411   0.489  17.592  12.830
91119W        W63412  31.578  37.470   2.394
91120W        W63413  20.139  15.749  12.862
91121W        W63414  13.803  14.271   2.245
91122W        W63415  38.830  33.520  11.120
91123W        W63416  35.935  10.698  10.461
91124W        W63417  13.325  32.950  11.892
91125W        W63418  20.187  29.655   1.389
91126W        W63419  11.355  38.528   3.820
91127W        W63420  34.595  21.521  12.552
91128W        W63421   5.932  44.988   0.251
91129W        W63422  37.902  40.325   9.949
91130W        W63423  42.451  35.895   9.940
91131W        W63424  32.932  15.313  12.367
91132W        W63425   2.323  42.292  13.522
91133W        W63426  30.095   3.239   0.439
91134W        W63427  24.126  30.939   3.825
91135W        W63428  21.086  36.458  12.047
91136W        W63429   3.268  30.967   2.282
91137W        W63430  20.617  22.728   3.841
91138W        W63431  34.094  14.736  12.496
91139W        W63432   6.858  26.999   2.216
91140W        W63433  20.093  26.059   0.845
91141W        W63434  28.670  36.928  11.065
91142W        W63435  14.788  44.860   0.841
91143W        W63436  27.970  30.646   0.404
91144W        W63437   3.789  39.368  10.507
91145W        W63438  37.413  13.763   1.367
91146W        W63439   7.272   3.953   3.710
91147W        W63440   3.355  43.420  12.075
91148W        W63441  21.151   2.250   0.731
91149W        W63442   5.896  16.586  13.885
91150W        W63443   5.920   6.192  11.889
91151W        W63444  26.649   3.884   1.845
91152W        W63445  31.446  34.975  12.014
91153W        W63446  36.497   4.754  12.065
91154W        W63447  18.592  40.979  14.788
91155W        W63448  28.657  10.278   0.783
91156W        W63449  38.031  10.309  11.041
91157W        W63450  43.863   2.445   4.682
91158W        W63451  10.709  41.901   4.272
91159W        W63452  23.986  23.599   5.254
91160W        W63453  25.525   9.883  10.639
91161W        W63454  32.453  43.952   2.402
91162W        W63455  12.145  42.952   4.676
91163W        W63456  29.060  40.925  11.962
91164W        W63457   9.343  40.421   1.695
91165W        W63458   1.844  41.370   3.370
91166W        W63459  15.813  16.763  11.496
91167W        W63460   4.879  13.845  11.596
91168W        W63461  15.096  39.040   4.766
91169W        W63462   5.928  34.416  11.408
91170W        W63463  16.147   4.428   1.899
91171W        W63464   2.415  26.117  10.423
91172W        W63465  21.146  25.970  14.840
91173W        W63466  11.239  21.058   2.846
91174W        W63467  22.108  26.986  10.925
91175W        W63468  10.282  32.891   4.295
91176W        W63469  20.644  10.772   0.941
91177W        W63470  29.600  32.024  12.032
91178W        W63471   6.809  34.611  12.546
91179W        W63472  32.034  22.597   1.919
91180W        W63473  37.020  24.101  10.947
91181W        W63474   6.727  30.599  12.580
91182W        W63475   3.397  41.961   2.196
91183W        W63476  11.320  36.568   3.243
91184W        W63477  34.453  33.124   4.146
91185W        W63478  28.676   8.303  12.534
91186W        W63479  20.031  22.610   5.303
91187W        W63480  38.415  18.759   3.860
91188W        W63481   2.260  22.747   0.934
91189W        W63482  30.448  23.231  13.423
91190W        W63483  42.006  13.170  14.782
91191W        W63484   3.740  35.360  14.824
91192W        W63485  41.790  10.269  11.010
91193W        W63486  22.246  22.598   2.826
91194W        W63487  32.623  19.593   0.825
91195W        W63488   2.242  15.275   1.732
91196W        W63489  26.990  31.132  10.926
91197W        W63490  33.398  29.632  11.546
91198W        W63491  42.478  40.914  14.825
91199W        W63492  25.103   1.398   3.307
91200W        W63493  15.088  10.194   4.136
91201W        W63494  28.129  30.605   0.858
91202W        W63495  36.893   9.775  12.962
91203W        W63496  34.018  17.114   3.326
91204W        W63497   5.746  16.156  12.924
91205W        W63498  44.854  43.806  13.327
91206W        W63499  10.345  34.406   3.856
91207W        W63500  38.968  31.985  11.419
91208W        W63501  39.509  37.980   1.736
91209W        W63502   8.879  35.392   3.709
91210W        W63503  25.687  16.697  13.518
91211W        W63504  36.867  17.240  11.083
91212W        W63505  18.221  22.227   2.263
91213W        W63506   5.294  42.860  11.058
91214W        W63507  12.614  29.965   3.711
91215W        W63508  32.444   7.409   0.429
91216W        W63509  13.671  33.490   3.779
91217W        W63510   6.737  22.105  12.384
91218W        W63511  10.754  16.225  11.592
91219W        W63512  21.580  35.384   0.248
91220W        W63513  18.151   6.193   3.785
91221W        W63514  14.329  18.568   3.761
91222W        W63515   1.913  29.076   2.795
91223W        W63516  16.712   9.207  13.846
91224W        W63517  23.165  22.114  12.553
91225W        W63518  32.974  42.866  13.027
91226W        W63519  28.139  22.079  14.425
91227W        W63520  10.859   3.826   1.411
91228W        W63521  33.997   2.950   0.956
91229W        W63522  14.794  27.471  14.947
91230W        W63523  31.093   1.777   4.326
91231W        W63524  30.436   3.224   1.298
91232W        W63525  19.243  10.329  11.385
91233W        W63526  23.154   0.471   0.433
91234W        W63527  43.938  29.547   2.372
91235W        W63528  23.676  21.263  13.954
91236W        W63529  22.665  20.697  10.119
91237W        W63530   0.465   2.328  12.052
91238W        W63531   9.703  19.111   2.374
91239W        W63532  23.027  13.206   2.709
91240W        W63533  11.145  34.524   2.701
91241W        W63534   4.830  10.192  13.015
91242W        W63535   7.305  22.698  10.500
91243W        W63536  29.998  11.344   4.250
91244W        W63537  27.194  17.258  10.007
91245W        W63538   4.793  35.043  13.972
91246W        W63539  36.351   5.274  13.980
91247W        W63540  10.305  35.910   3.631
91248W        W63541  35.495  38.862  14.316
91249W        W63542  33.585  13.794  11.874
91250W        W63543  31.934  43.929  11.602
91251W        W63544  23.003  26.679   0.453
91252W        W63545  21.709  42.997   0.939
91253W        W63546  30.909  10.164   4.744
91254W        W63547  12.832   4.225   0.958
91255W        W63548  29.057  19.704  12.359
91256W        W63549  37.943  14.144  13.800
91257W        W63550   1.282  20.686  10.603
91258W        W63551  39.038  12.153  12.857
91259W        W63552  42.434  37.837  11.506
91260W        W63553  44.300  34.910  13.445
91261W        W63554  20.194  11.688  11.608
91262W        W63555  10.377  37.059  10.912
91263W        W63556  26.155  14.195  13.434
91264W        W63557  10.745  31.022  14.780
91265W        W63558  41.011  43.381   5.587
91266W        W63559  27.029   6.231   2.899
91267W        W63560  32.041  22.746  13.319
91268W        W63561  33.457  10.860   2.794
91269W        W63562  37.950  25.041  12.896
91270W        W63563  28.066  29.099   3.221
91271W        W63564   8.888  17.117  12.479
91272W        W63565   6.888   9.665   0.307
91273W        W63566  30.462  44.315   0.917
91274W        W63567  34.418  10.663   1.364
91275W        W63568  19.116   9.857  10.490
91276W        W63569   0.981  20.652  14.925
91277W        W63570  13.286  32.535   1.444
91278W        W63571  20.037   5.248  11.026
91279W        W63572   8.295  36.854  14.465
91280W        W63573  10.384   4.943  10.958
91281W        W63574  10.261  40.517   0.432
91282W        W63575  11.645   3.277   4.744
91283W        W63576  44.957  39.972   4.315
91284W        W63577  13.709  34.576  12.985
91285W        W63578   3.291  27.049   2.835
91286W        W63579  12.189  11.373  13.811
91287W        W63580  24.099  23.022  11.066
91288W        W63581   1.255  17.066  13.480
91289W        W63582  20.196  30.643  13.011
91290W        W63583   2.951  15.183  11.954
91291W        W63584  37.441  23.657   1.761
91292W        W63585  30.041  22.507   2.856
91293W        W63586  26.622  15.807   4.255
91294W        W63587  24.159  18.601   0.413
91295W        W63588  42.285  25.671   3.671
91296W        W63589  20.132  35.953   0.403
91297W        W63590  12.219  21.178  10.001
91298W        W63591   2.785  43.457  12.065
91299W        W63592  19.667  39.977   2.802
91300W        W63593   1.817  18.617   2.709
91301W        W63594  43.377  36.356  11.914
91302W        W63595  28.500  38.380  14.922
91303W        W63596  23.201   3.336   0.776
91304W        W63597  20.230  10.672  14.330
91305W        W63598  18.656  43.476   3.863
91306W        W63599  37.901   6.831   4.250
91307W        W63600   9.154  42.935   1.824
91308W        W63601  32.018  16.671   3.233
91309W        W63602  17.250  40.387  11.379
91310W        W63603   4.900   2.325  11.546
91311W        W63604  30.152  43.783  12.492
91312W        W63605  40.324  27.196  13.795
91313W        W63606  42.382  12.787   0.442
91314W        W63607  39.519  15.718  10.436
91315W        W63608   9.791  44.382   0.938
91316W        W63609  31.975  21.040  13.363
91317W        W63610  29.564  19.768  13.063
91318W        W63611  21.533  40.864   1.792
91319W        W63612  21.742  12.215   4.194
91320W        W63613   0.272  42.362   0.739
91321W        W63614  19.158  22.660  11.573
91322W        W63615   9.197  38.990  10.008
91323W        W63616  41.472  18.585  11.900
91324W        W63617   2.763  10.299  12.491
91325W        W63618  28.119   9.279   3.836
91326W        W63619  19.232  11.779  14.949
91327W        W63620  28.519  27.079   4.299
91328W        W63621  27.560   6.783  14.827
91329W        W63622  36.584  19.648   1.899
91330W        W63623  39.329  44.437   4.767
91331W        W63624  34.473  43.968   3.783
91332W        W63625  28.008  16.651  14.997
91333W        W63626  43.860  37.000  13.033
91334W        W63627   6.238   9.294  11.545
91335W        W63628   8.669  18.682   4.209
91336W        W63629  10.370  35.872   0.781
91337W        W63630  31.500  22.736  11.541
91338W        W63631  43.811   6.885  10.619
91339W        W63632  36.035  32.997  13.518
91340W        W63633  40.008  40.476  13.063
91341W        W63634  18.602  44.336  13.402
91342W        W63635  36.447  17.268  13.503
91343W        W63636  31.540  22.035  12.023
91344W        W63637   0.310  42.996  13.034
91345W        W63638  43.272  20.611   4.257
91346W        W63639  12.141   2.417   9.532
91347W        W63640  13.829   9.879   0.367
91348W        W63641  16.757  37.915  14.849
91349W        W63642  33.506  31.987   0.356
91350W        W63643  38.923  44.505   4.133
91351W        W63644   2.285   4.330  13.387
91352W        W63645  36.497  18.569  13.443
91353W        W63646   8.811  10.693   4.812
91354W        W63647  17.151  40.447   4.822
91355W        W63648  37.984  43.496   1.766
91356W        W63649  41.963  36.922   3.738
91357W        W63650  28.099  11.799   2.779
91358W        W63651  17.265   9.772  14.872
91359W        W63652   9.664  14.619  10.951
91360W        W63653  26.190  27.184   4.186
91361W        W63654   9.684  26.526   0.274
91362W        W63655   2.888  38.819  11.509
91363W        W63656  38.501  43.511   2.343
91364W        W63657   3.441  20.666   2.735
91365W        W63658  44.865  38.995  12.431
91366W        W63659  22.147   8.333  14.475
91367W        W63660  32.626  16.724   4.720
91368W        W63661   3.446  22.117   4.813
91369W        W63662  41.869  32.581  13.415
91370W        W63663  13.830  19.056  11.507
91371W        W63664   8.358   6.776  12.967
91372W        W63665  34.404  16.107  14.888
91373W        W63666   1.387  15.204   1.247
91374W        W63667  24.667  15.755  13.804
91375W        W63668  34.608  26.492  13.968
91376W        W63669  26.009  44.300  13.980
91377W        W63670  27.036  21.246   2.868
91378W        W63671   9.696  36.417  12.997
91379W        W63672  27.094  42.448  14.960
91380W        W63673   9.394  18.642   1.796
91381W        W63674  31.523   2.311   1.445
91382W        W63675  20.168  29.532  13.503
91383W        W63676  41.863  12.359   0.252
91384W        W63677  36.479  36.393  12.451
91385W        W63678  18.649  42.990   0.774
91386W        W63679   8.327  27.144   1.312
91387W        W63680  26.680  27.975   1.853
91388W        W63681   7.388  23.646   2.693
91389W        W63682  15.673  13.299   3.661
91390W        W63683   8.270  31.416  11.998
91391W        W63684   3.273  34.608  10.580
91392W        W63685  41.941  30.450  12.024
91393W        W63686  20.662  37.518   0.823
91394W        W63687   9.348  43.953   0.417
91395W        W63688  27.987  27.145   3.204
91396W        W63689  19.588  21.190   4.707
91397W        W63690   4.821  12.764   3.808
91398W        W63691  37.847  42.292  10.585
91399W        W63692  41.422  42.935  10.405
91400W        W63693  36.992  20.267   2.702
91401W        W63694  20.525  17.162   3.297
91402W        W63695  12.724  29.499   4.774
91403W        W63696  26.527  24.029   0.471
91404W        W63697  42.461   3.730  12.040
91405W        W63698  23.731  20.573  12.506
91406W        W63699   8.227  17.109   3.358
91407W        W63700  36.990  44.905   3.253
91408W        W63701  37.438   2.358  11.469
91409W        W63702   4.881   1.881   4.132
91410W        W63703   9.724  34.426   9.964
91411W        W63704  27.103  41.416   0.414
91412W        W63705  33.393  26.188  13.526
91413W        W63706   0.846  17.189   3.692
91414W        W63707  44.868  38.956  10.473
91415W        W63708  40.422  22.554   4.210
91416W        W63709  40.843  15.113  12.387
91417W        W63710  16.138   1.301  14.781
91418W        W63711  19.142  44.894   1.268
91419W        W63712   6.261  15.778  11.958
91420W        W63713  24.109  42.788  11.489
91421W        W63714  36.974   1.888  10.587
91422W        W63715  17.718   0.861  14.277
91423W        W63716  28.091  27.637  14.515
91424W        W63717  14.141   8.676   0.740
91425W        W63718  36.981   2.744   1.389
91426W        W63719  44.858  36.489   5.174
91427W        W63720  18.258   1.848   4.310
91428W        W63721   7.177  16.078   3.184
91429W        W63722  11.769  21.537  10.434
91430W        W63723  15.162  30.572   1.763
91431W        W63724  16.807  23.583  12.929
91432W        W63725   2.380  37.058  14.504
91433W        W63726  16.800  19.161   3.246
91434W        W63727  12.246  29.505   2.231
91435W        W63728  28.957   0.797  14.780
91436W        W63729  35.384  38.057   3.250
91437W        W63730  36.365  23.657  12.347
91438W        W63731  23.092  36.566   0.820
91439W        W63732  21.554  41.490   4.750
91440W        W63733  11.697  30.141   1.824
91441W        W63734  33.998   6.777   1.303
91442W        W63735  43.397  20.752   3.303
91443W        W63736  41.787   1.777   3.274
91444W        W63737  28.013  44.828  14.500
91445W        W63738   8.824  27.965   1.869
91446W        W63739  25.471   0.911  11.598
91447W        W63740  41.907  22.215   1.410
91448W        W63741  30.580   5.238  14.419
91449W        W63742  35.492  17.561  13.410
91450W        W63743  12.345  10.642   1.326
91451W        W63744   5.778  15.208   4.822
91452W        W63745  21.566  26.643   3.813
91453W        W63746  16.118  20.119   2.776
91454W        W63747  13.290  11.154   0.903
91455W        W63748  24.595   2.457   2.820
91456W        W63749  37.557   0.369  11.900
91457W        W63750  10.283  34.896   0.736
91458W        W63751   0.915  26.519   2.340
91459W        W63752  15.806  23.660   4.277
91460W        W63753  22.053   5.320  10.430
91461W        W63754  37.500  24.040   0.408
91462W        W63755  38.831  26.475  12.074
91463W        W63756  31.128  20.744  11.064
91464W        W63757  31.480  20.523   1.247
91465W        W63758   3.797  36.089  14.787
91466W        W63759   7.407   5.202   4.124
91467W        W63760  37.477  36.392   2.738
91468W        W63761  33.879  19.080  14.777
91469W        W63762  16.188  30.114   2.857
91470W        W63763  13.685  40.806   2.206
91471W        W63764  26.659   1.887   3.201
91472W        W63765   9.220  32.967   3.742
91473W        W63766  37.033  42.405  11.397
91474W        W63767  19.566  13.628   4.237
91475W        W63768  23.608  11.680  12.563
91476W        W63769  28.173  12.184  10.434
91477W        W63770  34.033   0.255   2.807
91478W        W63771  13.669  32.395   3.277
91479W        W63772  32.945  36.414   4.609
91480W        W63773  21.574  24.095   1.718
91481W        W63774   0.960  29.516  14.805
91482W        W63775  13.137  33.021   0.745
91483W        W63776  23.523  42.834   2.355
91484W        W63777  30.443  10.149   2.284
91485W        W63778  37.358   1.898   2.382
91486W        W63779  30.608  11.772   2.301
91487W        W63780   5.335  33.888  14.013
91488W        W63781   0.286   2.386  12.913
91489W        W63782  38.348  26.069  14.495
91490W        W63783  15.731  24.975  14.776
91491W        W63784  11.342  38.904  11.431
91492W        W63785   9.845  42.878  12.024
91493W        W63786   7.764   9.664  14.364
91494W        W63787  28.435  12.837  13.874
91495W        W63788  29.425  30.030  14.023
91496W        W63789  43.939   4.785  10.592
91497W        W63790  27.967  39.999  12.363
91498W        W63791  42.462   0.265   4.685
91499W        W63792   9.300  26.083  11.441
91500W        W63793  21.033  34.902  12.926
91501W        W63794  16.248  14.333   1.849
91502W        W63795  42.842   4.347   3.705
91503W        W63796  11.166  12.194   4.352
91504W        W63797   9.393   0.484   3.331
91505W        W63798  10.309  12.360  13.397
91506W        W63799  26.078  21.580   2.326
91507W        W63800  38.899   1.924  13.947
91508W        W63801  14.145  21.692  14.884
91509W        W63802  38.448  44.436   0.870
91510W        W63803  25.636  12.673   3.351
91511W        W63804  17.761   7.406   4.803
91512W        W63805   8.656  30.600  11.907
91513W        W63806  22.069   1.897  10.012
91514W        W63807  10.315  25.698   3.284
91515W        W63808   5.803  29.553  14.458
91516W        W63809   4.735  31.550   3.365
91517W        W63810  22.670  18.572   4.154
91518W        W63811  32.565  15.265  13.961
91519W        W63812   7.295  21.679   0.288
91520W        W63813  37.374  21.122   1.730
91521W        W63814  24.987  10.750   0.734
91522W        W63815   8.876  22.177  11.856
91523W        W63816  15.164  34.458  11.942
91524W        W63817  31.442   1.311   4.215
91525W        W63818   0.888  14.591   1.752
91526W        W63819  10.170  43.957  10.010
91527W        W63820  44.991  32.415  14.028
91528W        W63821  39.829   6.186   2.858
91529W        W63822  41.841  41.292   3.248
91530W        W63823  26.680  39.539  11.425
91531W        W63824  33.081  38.503  12.828
91532W        W63825  40.412  29.113  10.018
91533W        W63826  24.146  42.500   1.856
91534W        W63827  40.985  16.244   1.283
91535W        W63828  36.593  32.405   2.770
91536W        W63829   2.311  11.759  13.808
91537W        W63830  40.971   3.735  10.993
91538W        W63831  42.466  14.238  12.048
91539W        W63832  39.919  13.240   3.782
91540W        W63833  30.139   1.847   0.428
91541W        W63834  12.235  11.243  13.021
91542W        W63835  19.674  14.793   3.865
91543W        W63836  30.094  44.806   3.682
91544W        W63837  12.177  22.025  13.925
91545W        W63838   4.419  38.502   3.276
91546W        W63839  14.653  17.675  11.054
91547W        W63840  42.349  24.179  10.642
91548W        W63841  30.037  39.979  12.547
91549W        W63842  39.986  13.684  10.902
91550W        W63843  20.533   1.289   2.758
91551W        W63844  27.555  30.417   1.865
91552W        W63845  15.716  33.428  11.379
91553W        W63846  34.887  26.028  10.640
91554W        W63847  11.325  27.515   2.803
91555W        W63848  22.199  31.485  10.978
91556W        W63849  28.583  38.906  13.415
91557W        W63850  14.125  14.701  13.997
91558W        W63851  30.528  29.978   2.294
91559W        W63852   4.440  27.072  11.495
91560W        W63853  14.148  17.634  12.374
91561W        W63854  11.161  10.311  14.470
91562W        W63855  37.532   1.911  10.072
91563W        W63856  31.409  40.951   3.251
91564W        W63857   5.317  24.198   2.386
91565W        W63858  29.491  35.390  10.922
91566W        W63859  13.341  40.398  10.445
91567W        W63860  23.997  31.094   3.232
91568W        W63861  42.781   0.802   3.769
91569W        W63862  33.420   8.708   0.925
91570W        W63863  15.200  42.474   1.723
91571W        W63864  26.065  15.619   3.381
91572W        W63865   0.274  37.377   4.781
91573W        W63866  33.522  19.182  13.795
91574W        W63867  35.909  43.788   3.823
91575W        W63868  19.702  40.407  12.492
91576W        W63869  10.143  32.093   4.151
91577W        W63870  44.902  23.611  11.971
91578W        W63871  31.443  40.865  11.592
91579W        W63872  10.216  18.100   3.689
91580W        W63873  39.527   8.347   4.183
91581W        W63874   5.204  13.774   4.161
91582W        W63875  43.505  31.548   4.751
91583W        W63876  42.309  35.057  13.314
91584W        W63877  38.350  39.403  11.072
91585W        W63878  25.049  18.622   4.695
91586W        W63879  11.354  44.290   0.248
91587W        W63880  31.416   9.331  14.885
91588W        W63881  28.055  24.558  10.105
91589W        W63882  41.936  25.580  11.034
91590W        W63883  34.106  30.644   2.675
91591W        W63884  35.421  17.613   2.789
91592W        W63885  43.343   4.702   1.766
91593W        W63886  22.072  28.561   4.236
91594W        W63887  36.976  40.536   4.291
91595W        W63888  13.244  24.030   3.651
91596W        W63889  22.202  33.065  14.874
91597W        W63890  33.462  24.984  14.477
91598W        W63891  26.982   1.875  14.762
91599W        W63892  41.472   9.334   1.235
91600W        W63893  19.163  12.658  13.833
91601W        W63894  30.020  22.121  11.556
91602W        W63895  16.114  39.008  11.043
91603W        W63896  10.356  12.824   4.792
91604W        W63897  30.548  15.157  14.376
91605W        W63898  41.449   1.286   0.357
91606W        W63899  27.964  29.600   5.261
91607W        W63900  41.508  24.697   1.786
91608W        W63901  35.870  26.120  14.311
91609W        W63902  17.734  31.595   5.600
91610W        W63903   5.919  13.757  12.402
91611W        W63904  44.278   5.696   0.383
91612W        W63905  41.967  16.687   0.441
91613W        W63906  40.520  12.744   2.354
91614W        W63907  11.665   4.737  10.005
91615W        W63908  35.873  23.048  13.910
91616W        W63909  29.081  13.756  10.609
91617W        W63910  15.634  19.282   1.216
91618W        W63911   0.396  15.694  13.447
91619W        W63912  25.568  29.027  10.499
91620W        W63913  27.084  19.735   2.190
91621W        W63914  19.260   0.351  14.817
91622W        W63915  25.035  19.040  14.785
91623W        W63916   1.428  31.125   3.677
91624W        W63917  18.771   4.754  10.615
91625W        W63918  14.183  26.699   4.626
91626W        W63919  37.831   8.188  13.001
91627W        W63920  30.644  23.188   0.772
91628W        W63921  38.843  12.643   3.794
91629W        W63922  44.858   4.884  14.004
91630W        W63923  33.404  36.530  10.510
91631W        W63924  31.944  24.086   3.735
91632W        W63925   7.866  28.045  12.550
91633W        W63926  36.504   4.799  12.519
91634W        W63927  35.880  27.101   4.707
91635W        W63928  30.426  34.967   3.216
91636W        W63929  15.651  27.680  12.019
91637W        W63930   2.406   1.955  12.513
91638W        W63931   8.786  33.904   3.351
91639W        W63932  24.620  26.191   2.214
91640W        W63933  21.141  34.958  13.481
91641W        W63934   6.781  26.095   1.910
91642W        W63935  18.719  11.236   0.261
91643W        W63936  41.469  36.584   1.814
91644W        W63937  41.903  30.055   2.685
91645W        W63938   0.456  21.702  12.858
91646W        W63939  43.924  34.001  14.817
91647W        W63940  20.121  32.938   3.741
91648W        W63941  16.276  35.853  10.502
91649W        W63942  28.093  11.307   2.210
91650W        W63943  21.026   1.891   1.318
91651W        W63944  22.577  18.164  13.535
91652W        W63945  35.895   6.277   0.900
91653W        W63946  26.121   9.277  12.345
91654W        W63947  16.699  20.684   2.190
91655W        W63948  38.405   9.680  10.504
91656W        W63949   5.689  31.490   0.936
91657W        W63950  29.959  20.061   0.477
91658W        W63951   8.364  25.160  11.452
91659W        W63952  22.080   4.923  10.043
91660W        W63953  19.073   6.790   0.809
91661W        W63954  44.009   0.331   4.653
91662W        W63955  19.223  32.946  12.011
91663W        W63956   8.189  22.028  11.909
91664W        W63957  23.689  29.937  13.479
91665W        W63958  16.616  44.297  12.514
91666W        W63959   0.975  41.492  12.346
91667W        W63960  17.197  33.471  12.894
91668W        W63961  15.295  23.571   2.854
91669W        W63962  38.404  42.004   2.251
91670W        W63963  39.015   0.446   0.967
91671W        W63964  29.491  40.029  10.904
91672W        W63965  25.690   1.930  12.418
91673W        W63966  42.846  37.433  11.533
91674W        W63967   2.334  34.497   1.278
91675W        W63968  41.358  25.150   1.872
91676W        W63969  31.513   2.305  12.413
91677W        W63970  31.641  17.081  11.054
91678W        W63971  38.459  27.450   4.648
91679W        W63972  38.326   4.221   4.330
91680W        W63973  24.138  44.418  13.049
91681W        W63974   7.708  33.932   1.777
91682W        W63975  15.668  32.464   5.271
91683W        W63976   4.210  40.409   2.708
91684W        W63977  36.068  13.144  11.047
91685W        W63978  38.071   7.715   3.630
91686W        W63979  34.057  26.560   4.184
91687W        W63980  21.704  28.097  10.028
91688W        W63981  25.664   3.228  14.318
91689W        W63982  20.156  16.168   4.319
91690W        W63983  22.226  32.925   2.817
91691W        W63984   8.188  14.733  14.393
91692W        W63985  39.533  21.027   1.423
91693W        W63986  26.994  38.883  10.970
91694W        W63987  33.406  43.873   1.756
91695W        W63988  20.078  40.839   0.358
91696W        W63989  31.969  23.035   0.916
91697W        W63990   7.883  26.999  14.490
91698W        W63991   3.310  34.561  14.917
91699W        W63992  20.738   7.810  13.030
91700W        W63993  30.607  24.560  14.884
91701W        W63994  27.452   8.720   0.816
91702W        W63995   2.322  35.471   3.708
91703W        W63996   4.701  13.679   4.796
91704W        W63997  26.463   3.453  10.965
91705W        W63998  28.496  19.605   0.748
91706W        W63999  42.872  10.273   2.280
91707W        W64000  14.284  19.586   3.380
91708W        W64001  19.572  23.690   0.890
91709W        W64002  14.180   9.800   1.781
91710W        W64003  21.169  38.848   4.713
91711W        W64004  14.717   3.895   2.332
91712W        W64005   9.348  26.149   4.252
91713W        W64006  15.084   4.831  10.600
91714W        W64007  32.062  28.558   2.218
91715W        W64008   7.296  13.693  11.091
91716W        W64009  15.250  19.134  13.416
91717W        W64010  36.427  22.607   1.855
91718W        W64011  39.521  33.486  13.486
91719W        W64012  12.272  24.981  14.766
91720W        W64013  30.459  44.824  12.053
91721W        W64014  16.080  37.517   0.817
91722W        W64015  43.994   5.421   4.224
91723W        W64016  11.369  12.285  10.469
91724W        W64017  40.803  22.724  11.042
91725W        W64018   8.187  30.567   4.231
91726W        W64019  30.472  23.997  14.010
91727W        W64020  23.574  21.525   3.824
91728W        W64021  14.793   3.950   5.284
91729W        W64022   7.258  14.696  11.050
91730W        W64023   5.386  44.875   4.295
91731W        W64024  17.093  13.835   4.830
91732W        W64025   0.357  31.144  12.916
91733W        W64026  31.601   3.232  13.532
91734W        W64027  38.414  15.815   1.785
91735W        W64028  36.914   4.773   4.200
91736W        W64029   3.953   3.406   3.683
91737W        W64030  14.653  32.513  12.988
91738W        W64031  19.708  31.465   1.812
91739W        W64032   2.248   8.806  12.355
91740W        W64033  43.506  15.682  13.043
91741W        W64034  42.798  35.026   3.362
91742W        W64035   4.808   8.779  13.337
91743W        W64036  19.749  11.691  13.847
91744W        W64037   8.399   7.304   0.462
91745W        W64038   3.309  17.766   3.337
91746W        W64039   5.851  36.500   4.755
91747W        W64040  10.269  34.958   1.221
91748W        W64041  35.506  32.948   4.754
91749W        W64042   6.804  37.834   0.411
91750W        W64043  44.886  17.704   2.794
91751W        W64044  20.671   1.341  14.916
91752W        W64045  38.981  13.682  13.390
91753W        W64046  13.836  27.000   4.602
91754W        W64047  17.743  34.545   1.383
91755W        W64048  13.722  19.086   0.270
91756W        W64049  40.018  11.841  14.453
91757W        W64050  17.160  30.925   2.837
91758W        W64051  29.087  31.408  11.042
91759W        W64052   8.314  31.985   2.752
91760W        W64053  16.169  29.597  12.096
91761W        W64054   3.272  19.564   1.419
91762W        W64055  28.934  17.228  13.845
91763W        W64056  17.109  37.410   1.446
91764W        W64057  28.982   9.857   1.332
91765W        W64058  37.856  24.626   3.759
91766W        W64059   0.484  36.909   1.438
91767W        W64060  44.307  17.700   0.872
91768W        W64061  37.453  18.232  14.428
91769W        W64062  30.659  33.406   1.257
91770W        W64063  36.448  14.692  11.394
91771W        W64064   6.821  33.070   3.196
91772W        W64065   3.788  17.274  12.480
91773W        W64066  31.101  32.991  12.465
91774W        W64067  18.133   0.908   1.709
91775W        W64068   7.668  37.930  12.450
91776W        W64069  31.622  38.546  12.890
91777W        W64070  32.475   7.677   2.295
91778W        W64071  37.964  36.984   1.307
91779W        W64072  29.576   2.237   4.609
91780W        W64073  27.516  11.671   2.294
91781W        W64074  10.648  36.369   4.739
91782W        W64075   0.405   4.314   2.781
91783W        W64076  23.059   3.839  12.517
91784W        W64077   9.328  40.479   0.398
91785W        W64078  33.543  24.569  10.536
91786W        W64079  21.026  40.332   2.228
91787W        W64080  24.582  28.977  11.012
91788W        W64081   0.828  15.755  12.961
91789W        W64082  44.468   9.732   2.789
91790W        W64083  21.723  10.828   2.897
91791W        W64084  16.754   5.933   3.221
91792W        W64085  11.685  28.082  13.792
91793W        W64086  20.557   6.905  14.476
91794W        W64087  21.075  37.581  10.890
91795W        W64088   9.840   5.363   1.864
91796W        W64089  26.970  16.294  11.452
91797W        W64090  34.585  32.983   0.802
91798W        W64091   9.338  30.137  11.387
91799W        W64092  36.476  34.612  10.054
91800W        W64093   4.226  13.160   3.639
91801W        W64094  34.866  40.492   0.736
91802W        W64095  13.126  39.984  14.977
91803W        W64096  40.809   7.357   2.302
91804W        W64097  21.258  42.489  13.481
91805W        W64098  42.862  14.338  10.143
91806W        W64099  43.899   3.932  13.810
91807W        W64100   8.390  24.640   2.840
91808W        W64101  21.649  25.550  11.032
91809W        W64102  37.434   9.375   5.225
91810W        W64103  15.640  42.013  13.824
91811W        W64104  27.666  21.692   1.722
91812W        W64105  29.998  12.343  11.979
91813W        W64106  30.575  12.324  12.888
91814W        W64107  16.655   2.395  11.884
91815W        W64108  36.906  34.959  13.363
91816W        W64109  38.488   2.803  10.549
91817W        W64110   2.904  44.952  12.567
91818W        W64111  18.255  34.056   4.184
91819W        W64112  34.871  14.665  13.900
91820W        W64113   7.238  29.029  12.548
91821W        W64114  14.773  11.771  10.610
91822W        W64115  44.377  16.255   4.725
91823W        W64116  15.140  37.520   1.826
91824W        W64117   0.859  37.916  13.887
91825W        W64118  21.243  28.634  10.967
91826W        W64119   7.854  38.452   1.828
91827W        W64120  18.162  41.819   0.267
91828W        W64121   6.734  33.544  12.874
91829W        W64122   2.379  32.983  12.064
91830W        W64123  12.709  36.485  13.519
91831W        W64124  31.084  34.970   3.706
91832W        W64125  28.016  13.171  14.972
91833W        W64126  16.688  26.011   2.289
91834W        W64127   2.345   1.844   0.266
91835W        W64128  33.998  20.222  14.949
91836W        W64129  13.321  14.724   1.847
91837W        W64130  33.459  34.519   0.307
91838W        W64131  25.469  40.867   0.919
91839W        W64132  16.315  40.528   1.282
91840W        W64133  39.560  33.094  11.055
91841W        W64134  17.642  21.236   5.759
91842W        W64135  11.194  36.070   3.223
91843W        W64136  20.639  10.787  13.467
91844W        W64137   2.231   0.840  14.974
91845W        W64138  23.605  32.983  11.540
91846W        W64139   4.828  28.584  14.498
91847W        W64140  26.694  40.000   4.808
91848W        W64141  24.013  22.164   4.609
91849W        W64142  33.512   2.392   5.174
91850W        W64143  21.057  42.917  10.578
91851W        W64144  29.936  15.269  14.323
91852W        W64145   4.918   3.720   0.871
91853W        W64146  20.529  15.798  10.533
91854W        W64147   0.982  44.793   2.274
91855W        W64148  13.652   1.390  10.578
91856W        W64149  42.349   7.383  10.983
91857W        W64150  26.495  16.657  10.055
91858W        W64151  10.247   3.323  11.507
91859W        W64152   2.738  10.151  10.644
91860W        W64153  10.736  18.125  11.478
91861W        W64154  36.379  29.500  12.481
91862W        W64155  28.594  34.067  12.929
91863W        W64156   0.360  33.418  11.069
91864W        W64157  24.592  37.835  13.449
91865W        W64158  19.202  29.043  10.626
91866W        W64159  36.842  12.145  11.545
91867W        W64160  15.710  39.366   3.364
91868W        W64161  37.533  42.025  12.836
91869W        W64162  11.361  34.087  14.431
91870W        W64163   6.254   0.424  11.038
91871W        W64164  29.993  11.235  11.993
91872W        W64165  23.085  30.002  11.058
91873W        W64166  39.982  39.809  13.959
91874W        W64167   6.325  21.166  13.386
91875W        W64168   6.383  18.637   3.201
91876W        W64169  42.323   4.721  12.402
91877W        W64170  12.117  44.955   4.190
91878W        W64171  32.561  44.943   3.716
91879W        W64172  21.249  13.283  12.501
91880W        W64173   5.205  40.501  14.276
91881W        W64174  20.154  18.270   4.723
91882W        W64175  36.552  25.565   3.757
91883W        W64176  18.267  40.418   2.378
91884W        W64177  28.465  37.421  12.554
91885W        W64178  38.031  31.036  14.939
91886W        W64179  35.375  18.082  14.365
91887W        W64180  21.665  17.195   0.790
91888W        W64181  12.656  40.038   0.960
91889W        W64182  33.463   6.745  10.404
91890W        W64183  10.879  32.486   1.738
91891W        W64184  15.794  42.831  13.504
91892W        W64185  33.914   5.233  14.768
91893W        W64186   3.858   9.809   2.274
91894W        W64187  13.791  33.567   2.212
91895W        W64188   3.435  17.097  14.786
91896W        W64189  17.729   0.917   1.807
91897W        W64190   4.804   5.799  12.536
91898W        W64191   3.228  35.602  12.951
91899W        W64192   2.767  24.668   4.748
91900W        W64193  30.521  41.483   2.181
91901W        W64194  41.460  17.217  13.385
91902W        W64195  33.409  14.169  14.424
91903W        W64196  37.864  35.396   0.927
91904W        W64197  31.070  34.423  14.977
91905W        W64198  41.944  44.424  12.975
91906W        W64199  17.791  13.735   1.816
91907W        W64200  20.682  21.609   3.842
91908W        W64201   1.870  35.899  14.513
91909W        W64202   8.248  24.532   0.320
91910W        W64203  25.143   4.418  14.352
91911W        W64204  44.358  12.716  14.280
91912W        W64205   6.390   1.383   2.856
91913W        W64206   4.704  24.126   1.857
91914W        W64207  31.500  35.358  10.541
91915W        W64208  17.164   0.419  13.002
91916W        W64209  35.078  41.881   0.462
91917W        W64210  14.166   7.898  11.060
91918W        W64211  39.954  32.586   2.825
91919W        W64212  35.471  14.833  14.445
91920W        W64213  43.966  14.095  10.941
91921W        W64214  32.002  28.060  12.004
91922W        W64215  44.800  18.632  12.427
91923W        W64216  29.171   5.412   2.709
91924W        W64217  37.415  43.378   1.731
91925W        W64218  35.514  12.840   2.898
91926W        W64219  40.454  33.552   3.703
91927W        W64220  14.725   9.859   4.614
91928W        W64221   2.429  27.111  10.470
91929W        W64222   4.267  43.935  11.416
91930W        W64223  16.726  22.188  11.554
91931W        W64224  28.939  24.150  14.796
91932W        W64225  20.091  17.662  10.977
91933W        W64226  15.718   4.267   0.792
91934W        W64227   7.907  36.589  11.557
91935W        W64228  37.047   4.242   4.194
91936W        W64229  29.017  42.364  13.992
91937W        W64230  25.691  29.965   3.315
91938W        W64231  32.547  14.122   3.244
91939W        W64232   0.915  14.253   1.387
91940W        W64233  17.273  29.114   1.731
91941W        W64234   4.317  15.786   1.245
91942W        W64235  40.027   3.291   2.868
91943W        W64236  41.833   1.344  11.021
91944W        W64237  36.850  27.013   4.663
91945W        W64238  12.831  13.760   1.854
91946W        W64239  26.643   6.279  12.022
91947W        W64240  24.178  43.280  13.030
91948W        W64241   7.208   8.357   1.231
91949W        W64242   5.707   9.289  13.361
91950W        W64243  15.149  27.519  14.895
91951W        W64244  25.127  27.465  13.463
91952W        W64245  40.839  18.544   2.331
91953W        W64246  35.923   0.299  12.509
91954W        W64247  12.701   5.271   1.818
91955W        W64248  30.950  43.974  11.465
91956W        W64249  28.100   6.301   3.650
91957W        W64250   9.361   3.224  12.560
91958W        W64251  39.867  29.115   1.347
91959W        W64252  26.611   0.383  10.149
91960W        W64253  18.776  26.559  13.393
91961W        W64254  44.807  14.222  11.586
91962W        W64255  29.947   7.278  11.560
91963W        W64256  16.159  16.313   2.295
91964W        W64257  19.579  26.025   0.423
91965W        W64258  10.649  29.062  13.353
91966W        W64259  19.615  44.289   2.793
91967W        W64260   0.391  11.276   2.405
91968W        W64261  16.634   7.816  13.506
91969W        W64262  15.220   8.288   2.793
91970W        W64263   6.228   4.783  13.498
91971W        W64264  23.215  16.109  13.513
91972W        W64265  42.318   2.265   2.259
91973W        W64266  31.540  36.427  10.902
91974W        W64267  44.836  39.952   1.768
91975W        W64268  14.658  31.953  14.802
91976W        W64269  22.507  28.947   0.300
91977W        W64270   9.851  30.101   4.626
91978W        W64271  10.143   0.335  13.324
91979W        W64272  32.038   1.251   2.676
91980W        W64273  40.339  39.943  10.919
91981W        W64274  36.424  29.024  14.805
91982W        W64275  24.029  16.762   4.304
91983W        W64276   3.380  13.705   4.275
91984W        W64277  10.230  10.183  12.945
91985W        W64278  27.970   5.233   4.785
91986W        W64279  37.348  30.093  13.891
91987W        W64280   8.713   1.393  12.507
91988W        W64281  28.500  30.489  12.078
91989W        W64282  29.117  12.274  12.460
91990W        W64283  22.040   0.896  13.512
91991W        W64284   5.842   3.751   2.273
91992W        W64285  36.841  10.752  14.927
91993W        W64286  35.938  11.218   2.758
91994W        W64287   1.243   2.466  14.895
91995W        W64288  41.886   8.352   1.795
91996W        W64289   6.277   4.347   3.821
91997W        W64290  16.257  32.412   4.608
91998W        W64291  43.284  17.733   2.395
91999W        W64292  14.754  38.877   0.372
92000W        W64293  15.683   1.393   1.411
92001W        W64294   8.291   2.924   3.691
92002W        W64295  34.033  39.316   3.255
92003W        W64296   1.924  24.634   2.357
92004W        W64297  39.822   4.837  13.973
92005W        W64298  29.933  15.283  12.087
92006W        W64299  31.946  29.082   2.415
92007W        W64300  43.895  20.757   0.741
92008W        W64301  26.473  22.739  12.469
92009W        W64302  17.630  11.255   0.410
92010W        W64303  10.361   2.349  12.470
92011W        W64304   4.296  21.526   3.847
92012W        W64305   4.716  35.437  12.372
92013W        W64306   7.396   8.336  14.485
92014W        W64307  44.920   0.825   2.374
92015W        W64308  36.947  33.056  11.036
92016W        W64309  15.236  16.765  14.831
92017W        W64310   8.311  18.132   4.790
92018W        W64311  17.725   0.971   3.782
92019W        W64312  20.127   7.258   3.215
92020W        W64313  14.667   3.939   4.679
92021W        W64314  35.508   0.410   0.357
92022W        W64315  38.482   1.950  12.984
92023W        W64316  12.267  31.428  12.420
92024W        W64317  18.567  40.513   0.394
92025W        W64318  37.855   1.865  14.309
92026W        W64319  42.923   0.866  10.444
92027W        W64320  28.508  19.206  11.005
92028W        W64321   7.299  22.164  10.942
92029W        W64322  30.658  30.442  13.881
92030W        W64323  42.496   0.311   2.310
92031W        W64324  30.439   0.462   0.321
92032W        W64325  14.602  20.083  14.419
92033W        W64326  23.037  34.471   4.789
92034W        W64327  37.006  11.184   0.316
92035W        W64328  13.743   9.842   2.824
92036W        W64329   3.724  39.497  13.520
92037W        W64330   9.235  44.857  11.444
92038W        W64331  44.915   7.670  14.301
92039W        W64332  43.478  23.591   2.364
92040W        W64333   7.911   5.247   4.321
92041W        W64334  41.896  20.182  11.413
92042W        W64335  32.994   3.311   2.817
92043W        W64336   3.724  38.989  10.896
92044W        W64337  42.464  36.356  13.357
92045W        W64338   5.737   6.721  12.340
92046W        W64339  34.451  44.882  12.342
92047W        W64340  21.035  14.622  13.802
92048W        W64341  32.467   2.357   3.348
92049W        W64342  42.960  18.745  12.091
92050W        W64343   8.663  13.669  10.627
92051W        W64344  41.393  27.982   4.791
92052W        W64345  25.642  41.472   1.373
92053W        W64346   4.292  23.101  13.865
92054W        W64347   5.379  39.454  13.985
92055W        W64348  34.887  36.853   4.328
92056W        W64349  10.264  18.717  13.004
92057W        W64350  31.097  43.452   2.763
92058W        W64351  14.601   5.300   1.714
92059W        W64352   5.300  15.759   0.861
92060W        W64353  32.463  23.025  14.422
92061W        W64354  35.389   3.364  13.358
92062W        W64355  36.028   0.794   3.789
92063W        W64356  31.032  32.106  11.465
92064W        W64357  27.052  21.711  14.885
92065W        W64358  37.033   4.806   2.862
92066W        W64359  35.379  39.319  14.796
92067W        W64360  29.993  16.568  12.015
92068W        W64361   6.259   0.270   4.803
92069W        W64362  25.207  25.678   2.387
92070W        W64363  26.011   9.727  13.434
92071W        W64364   3.413  19.535  10.557
92072W        W64365   4.413  28.586  11.435
92073W        W64366  43.432  44.784  12.466
92074W        W64367  11.334  39.853   3.191
92075W        W64368  35.978  37.567   0.944
92076W        W64369  37.526   6.209   5.180
92077W        W64370  28.096   7.391  10.535
92078W        W64371   4.371   0.748  13.459
92079W        W64372   1.345  18.743  12.841
92080W        W64373   6.208  17.130   1.391
92081W        W64374  42.481  15.580  14.008
92082W        W64375  22.186  35.440   4.799
92083W        W64376  29.941  17.121   3.382
92084W        W64377  19.067  22.684   0.761
92085W        W64378   8.864   0.843   2.178
92086W        W64379   6.367  40.536   3.774
92087W        W64380  37.076  37.555  11.004
92088W        W64381  10.325  40.439   0.930
92089W        W64382  25.676  29.528  14.905
92090W        W64383  23.100  32.118  11.595
92091W        W64384  36.040  42.998  14.922
92092W        W64385  26.602  41.476   0.466
92093W        W64386  42.499  11.156   3.363
92094W        W64387  11.624  28.995   0.751
92095W        W64388   3.271  14.260  10.415
92096W        W64389  24.696   6.753  10.432
92097W        W64390  21.536  34.960   0.866
92098W        W64391   6.390   2.867   2.711
92099W        W64392  41.924  11.649  14.759
92100W        W64393   3.896  30.014   0.288
92101W        W64394  15.797  16.258  11.398
92102W        W64395  20.735  24.652   2.401
92103W        W64396  16.223  14.629  12.362
92104W        W64397  39.057  43.308  11.124
92105W        W64398  29.135  32.937  14.364
92106W        W64399   8.877   3.412  12.951
92107W        W64400  11.320  22.647   0.293
92108W        W64401  30.471  43.356   3.868
92109W        W64402   7.842  28.612  13.505
92110W        W64403  15.736  24.006  11.085
92111W        W64404  11.178  22.058  13.381
92112W        W64405  28.564  27.943   3.739
92113W        W64406  37.429  44.855   1.221
92114W        W64407  26.097  11.215   3.678
92115W        W64408  13.844  41.462  14.312
92116W        W64409  42.016  43.314   2.686
92117W        W64410  40.011  32.560   4.720
92118W        W64411   8.354   2.456   2.228
92119W        W64412  34.576  15.780   0.346
92120W        W64413   9.254   6.363  12.037
92121W        W64414  44.830  26.122   1.935
92122W        W64415  14.295   7.286  14.984
92123W        W64416  24.164  13.246  11.007
92124W        W64417  17.664  44.814   4.246
92125W        W64418  31.112   8.810  11.446
92126W        W64419  42.973  13.326  11.556
92127W        W64420  11.154   8.821   5.233
92128W        W64421  24.974  10.862   4.681
92129W        W64422   9.191  39.040  14.998
92130W        W64423  43.807  15.192  13.436
92131W        W64424  17.569  28.439  11.959
92132W        W64425  18.094   9.364  14.453
92133W        W64426  19.689   6.346  12.475
92134W        W64427  40.799   3.757  11.591
92135W        W64428  15.705  21.580   3.647
92136W        W64429   8.280  19.202   2.328
92137W        W64430  23.985  16.673   1.232
92138W        W64431  23.053  36.390  12.902
92139W        W64432  18.696  12.146  13.404
92140W        W64433  39.870  20.233   4.827
92141W        W64434  27.187  44.928   1.279
92142W        W64435  25.982  41.808  13.358
92143W        W64436  18.088  31.415   5.623
92144W        W64437   8.323  21.136   0.410
92145W        W64438  41.040  18.618   1.920
92146W        W64439  14.210   6.261   0.396
92147W        W64440  28.548  40.993  14.353
92148W        W64441  26.572  26.684  11.907
92149W        W64442  34.058  19.239   2.726
92150W        W64443   6.249   2.837  13.947
92151W        W64444   9.278  17.694  10.506
92152W        W64445  17.635   9.206   3.325
92153W        W64446  11.262  13.269  14.017
92154W        W64447   1.385  24.629  11.447
92155W        W64448  37.833   3.914   4.201
92156W        W64449   6.410   1.363   4.828
92157W        W64450   4.326  38.984  11.975
92158W        W64451  36.047  24.102  11.089
92159W        W64452   4.925  26.108   4.204
92160W        W64453  36.565  40.466  12.527
92161W        W64454   2.382  41.458  14.798
92162W        W64455  33.119  38.821   3.357
92163W        W64456   0.779  37.351  12.995
92164W        W64457   9.850  27.067  14.505
92165W        W64458  17.732   1.407  12.089
92166W        W64459  41.442  37.426  12.026
92167W        W64460   6.404  23.137  10.945
92168W        W64461  41.891   2.801   3.709
92169W        W64462  18.583  34.941   3.815
92170W        W64463   1.252  13.141   2.722
92171W        W64464  10.855  35.061  10.507
92172W        W64465   5.847  19.202   2.385
92173W        W64466  31.943  24.026  14.943
92174W        W64467   7.348  27.563   4.664
92175W        W64468  26.027  31.006  13.848
92176W        W64469  31.952  34.582  11.965
92177W        W64470  14.822  34.075  14.864
92178W        W64471  44.281  18.072   2.768
92179W        W64472  40.480  25.102   3.836
92180W        W64473   4.729   1.236  14.322
92181W        W64474  36.997  33.433  14.309
92182W        W64475  23.985  30.554   9.968
92183W        W64476  23.058   6.313  13.440
92184W        W64477   3.455  27.690  14.371
92185W        W64478  22.541   0.925  13.877
92186W        W64479   6.280  28.658  12.400
92187W        W64480   1.280  27.469   0.865
92188W        W64481   5.203  18.748   3.845
92189W        W64482  24.982  40.941  13.479
92190W        W64483  31.132  42.977  14.485
92191W        W64484  19.253  44.356   2.389
92192W        W64485  12.654  41.028  12.074
92193W        W64486  42.481  10.205  14.761
92194W        W64487  36.524   0.294  13.334
92195W        W64488  40.451  19.268  14.415
92196W        W64489  10.190  28.090  13.490
92197W        W64490  41.386  30.931  11.063
92198W        W64491  25.043  17.167   4.231
92199W        W64492  28.579  28.974   0.863
92200W        W64493  20.718  13.728  13.020
92201W        W64494   3.715  25.158   4.311
92202W        W64495  32.398  17.626   3.292
92203W        W64496  36.844  37.458  10.462
92204W        W64497  18.551  31.034   2.322
92205W        W64498   6.221  22.238   4.687
92206W        W64499   9.727   2.831   3.218
92207W        W64500   7.685  33.028  12.054
92208W        W64501  42.371  12.617  14.001
92209W        W64502  25.473  41.363   0.421
92210W        W64503   7.188  41.524  11.437
92211W        W64504   0.314  33.623  12.526
92212W        W64505   3.941  16.760   2.758
92213W        W64506  10.853  31.585  13.482
92214W        W64507  35.898  30.480  12.393
92215W        W64508  44.411  43.504   3.773
92216W        W64509  11.865  26.130   9.950
92217W        W64510   2.365   5.352   0.340
92218W        W64511  32.077  44.322  12.566
92219W        W64512   2.784  23.012   4.652
92220W        W64513   8.205  20.249   3.241
92221W        W64514  11.249  28.664  13.826
92222W        W64515   1.734  43.904   3.808
92223W        W64516  29.571  16.317   1.336
92224W        W64517  27.081  19.064   3.856
92225W        W64518  40.890  13.155   2.313
92226W        W64519  25.170  35.490  14.919
92227W        W64520  12.661  35.082  10.446
92228W        W64521  28.009  14.735  12.859
92229W        W64522   9.273  34.558   4.618
92230W        W64523  13.136  44.325   3.719
92231W        W64524   2.792  14.287  11.374
92232W        W64525  17.654  25.162   0.914
92233W        W64526  21.570  13.347   4.156
92234W        W64527  27.093   2.310  14.394
92235W        W64528   3.787   0.422  14.298
92236W        W64529  35.366  10.836   0.769
92237W        W64530  23.236   7.750  13.456
92238W        W64531  28.465  17.639  12.552
92239W        W64532  17.172  10.161   0.448
92240W        W64533  19.663  38.932  14.387
92241W        W64534  23.614  17.769  14.013
92242W        W64535   4.780  28.151  14.505
92243W        W64536  29.012  40.924   4.658
92244W        W64537   4.886   0.852   4.145
92245W        W64538  16.083  26.511   2.192
92246W        W64539  30.626  31.931   0.830
92247W        W64540  16.765   4.747   1.895
92248W        W64541  14.187  19.174   0.943
92249W        W64542  12.693  19.201   1.420
92250W        W64543  24.975  26.077  14.779
92251W        W64544  38.446  27.547   0.728
92252W        W64545  15.209  44.987  10.559
92253W        W64546  36.439  17.697  14.771
92254W        W64547   3.760  30.525   2.718
92255W        W64548  29.948  20.184  13.983
92256W        W64549  21.556  18.069  14.889
92257W        W64550  28.962   7.259  13.026
92258W        W64551   2.912  13.836  14.375
92259W        W64552  43.426  21.749   2.680
92260W        W64553  21.712  40.306  11.941
92261W        W64554  43.482  23.200  12.841
92262W        W64555   1.838   3.294   2.698
92263W        W64556  24.692   5.265   0.811
92264W        W64557  30.920  17.713   1.238
92265W        W64558  15.587  24.493   2.298
92266W        W64559   1.855  10.876  11.529
92267W        W64560   5.286  12.150   3.272
92268W        W64561  33.062  26.006   4.820
92269W        W64562   7.734   4.766   2.350
92270W        W64563  44.877  19.059  10.420
92271W        W64564  13.759   0.851   4.285
92272W        W64565  31.520  26.026  12.077
92273W        W64566  38.464  11.847   2.840
92274W        W64567  21.640   3.389   5.283
92275W        W64568   3.340  39.459  11.472
92276W        W64569  39.532  37.578   4.661
92277W        W64570  21.162   1.436  10.532
92278W        W64571  14.774  18.192  11.433
92279W        W64572   9.822  31.643   0.729
92280W        W64573   7.805  26.702  13.540
92281W        W64574   1.799   8.865   1.920
92282W        W64575  11.825  40.928  13.546
92283W        W64576  31.976   5.300  14.947
92284W        W64577  36.899   9.842  14.003
92285W        W64578  43.992  13.250  14.887
92286W        W64579  14.167  22.224   3.350
92287W        W64580  24.228   3.860   0.933
92288W        W64581   3.934  21.683   3.303
92289W        W64582   1.965  29.996   0.814
92290W        W64583   3.913  28.963   4.311
92291W        W64584  33.083  17.229  11.892
92292W        W64585   0.384  19.595   4.739
92293W        W64586   4.836  33.033  12.094
92294W        W64587   8.675  28.547   0.728
92295W        W64588  35.588  40.373  13.056
92296W        W64589  36.927  11.736   1.427
92297W        W64590  22.656   1.424   4.604
92298W        W64591  21.156  40.493  10.928
92299W        W64592  33.919   6.264   0.936
92300W        W64593   8.303  38.956   3.235
92301W        W64594   1.433  19.248   1.748
92302W        W64595  41.493  20.554   2.822
92303W        W64596  42.808  21.140   4.721
92304W        W64597  36.031   8.301   1.401
92305W        W64598   5.419  18.050  12.437
92306W        W64599  21.085  32.055   0.802
92307W        W64600  43.371  28.487   2.869
92308W        W64601  14.234  44.976  11.393
92309W        W64602  34.561  35.012  11.511
92310W        W64603  22.117  13.663  10.460
92311W        W64604  16.106  38.043   3.279
92312W        W64605  36.467   0.865   3.846
92313W        W64606  23.610  33.976  10.559
92314W        W64607   0.422  42.509   3.338
92315W        W64608  27.083  37.439  10.514
92316W        W64609   4.830  40.464   0.928
92317W        W64610  11.644   1.387   1.312
92318W        W64611   7.691  35.064   0.305
92319W        W64612  21.211   0.853   5.189
92320W        W64613  20.043  15.323  11.551
92321W        W64614   6.751  25.595  13.343
92322W        W64615  25.501  42.857  12.971
92323W        W64616   7.410  27.666   0.294
92324W        W64617  10.368   3.381  12.559
92325W        W64618  33.886  10.834  11.002
92326W        W64619  30.534  29.065  12.056
92327W        W64620  30.939   0.962   3.771
92328W        W64621  36.426  38.880  12.076
92329W        W64622  32.070  42.859  13.398
92330W        W64623  31.897  14.599   2.720
92331W        W64624   3.418  27.114  13.795
92332W        W64625  23.003  14.163  11.422
92333W        W64626  21.017  36.348  12.442
92334W        W64627  31.923  24.625   0.891
92335W        W64628  44.766  11.740   3.658
92336W        W64629  31.515  24.638  14.947
92337W        W64630  22.612  32.397   4.665
92338W        W64631   2.947   1.774   4.776
92339W        W64632  38.485  41.997   2.795
92340W        W64633   4.313  23.727   3.713
92341W        W64634  29.159  29.966   0.956
92342W        W64635  16.685  27.549   2.317
92343W        W64636  24.542  42.527  13.385
92344W        W64637   9.799   5.411  12.975
92345W        W64638  10.345  40.517   2.840
92346W        W64639  40.928  33.417  12.085
92347W        W64640  18.233   1.927   3.814
92348W        W64641  23.535  31.406  14.381
92349W        W64642   5.217  20.740   2.699
92350W        W64643  41.024  33.556   3.710
92351W        W64644  17.656  26.103   2.230
92352W        W64645  13.324  28.444   2.400
92353W        W64646  25.209  26.187  14.449
92354W        W64647  19.083  26.171  11.516
92355W        W64648  32.605  31.506   1.729
92356W        W64649  41.998  39.521  13.978
92357W        W64650  36.908  19.591  11.044
92358W        W64651   0.302   9.347  12.010
92359W        W64652  16.656  16.690  10.954
92360W        W64653  15.107  34.904   2.296
92361W        W64654  29.617  41.420   4.268
92362W        W64655  13.239   2.249  10.143
92363W        W64656  37.975  39.059  14.910
92364W        W64657  15.706   9.356  12.432
92365W        W64658   4.400  12.804  14.514
92366W        W64659   1.800  19.276   1.306
92367W        W64660  17.583  13.129   0.831
92368W        W64661  43.970  30.455   1.900
92369W        W64662   0.375   0.868  12.575
92370W        W64663  30.946  21.568   2.679
92371W        W64664  39.551  14.247   1.348
92372W        W64665  40.375  32.432  14.343
92373W        W64666   8.758   5.193  13.035
92374W        W64667   3.294   0.826   3.351
92375W        W64668  37.581  44.761   4.225
92376W        W64669  20.258  43.796  12.474
92377W        W64670  15.694  34.901   4.671
92378W        W64671   7.396  18.687   0.805
92379W        W64672   1.440  20.555   1.910
92380W        W64673   4.742  23.638  14.801
92381W        W64674   7.875  41.884   0.883
92382W        W64675  14.234  15.313   3.852
92383W        W64676  20.136   7.729  13.029
92384W        W64677  43.376  42.379   0.825
92385W        W64678  35.086  20.617   1.816
92386W        W64679  22.200  19.763   3.832
92387W        W64680  18.551  32.448   4.217
92388W        W64681  11.127   3.754   0.862
92389W        W64682  25.198   0.805   4.209
92390W        W64683  42.830  14.811  10.429
92391W        W64684  11.228   0.833   1.211
92392W        W64685  22.709  38.471   2.702
92393W        W64686   9.822  13.749  13.392
92394W        W64687  22.599  32.063  14.881
92395W        W64688  32.136  15.813  14.280
92396W        W64689  29.015  42.998  11.520
92397W        W64690  12.622   3.244   1.720
92398W        W64691   8.873  16.262   0.358
92399W        W64692  28.627  15.167  11.401
92400W        W64693  18.676  38.944  10.581
92401W        W64694  21.234   0.936   3.265
92402W        W64695   8.756  21.068   3.738
92403W        W64696  13.240  31.412   3.340
92404W        W64697  44.966  38.361   2.357
92405W        W64698  39.400  18.111   3.647
92406W        W64699  17.785  25.162  10.606
92407W        W64700   5.880  17.612   3.201
92408W        W64701  11.776  19.734   0.376
92409W        W64702   8.304  36.371  13.809
92410W        W64703  43.300   4.777  12.348
92411W        W64704   2.794  31.063   3.687
92412W        W64705  17.229  18.256   2.391
92413W        W64706  17.131  44.972  10.938
92414W        W64707  44.881  38.564   0.478
92415W        W64708  13.833  11.253  12.573
92416W        W64709  20.666  14.770   3.258
92417W        W64710  41.807  24.192   2.392
92418W        W64711  24.703  31.137  11.480
92419W        W64712  35.493  29.116   2.415
92420W        W64713  23.598  22.686   1.391
92421W        W64714   0.988  13.231   0.410
92422W        W64715  29.600  12.159   2.716
92423W        W64716  12.753   1.284  11.396
92424W        W64717  38.999   6.346   2.228
92425W        W64718  23.715  34.916   2.830
92426W        W64719  12.616  18.219  10.604
92427W        W64720   4.435  29.964   4.276
92428W        W64721  38.907  44.997  10.927
92429W        W64722  24.014  39.984   3.275
92430W        W64723  33.900  26.620  10.495
92431W        W64724  29.430  40.480  14.794
92432W        W64725  43.411  23.204  11.501
92433W        W64726   4.307   5.924   3.277
92434W        W64727   8.867  36.848   1.855
92435W        W64728  29.948  36.579  11.477
92436W        W64729  31.119  10.726   9.575
92437W        W64730  34.393  38.447   3.147
92438W        W64731  36.489  43.510   3.302
92439W        W64732  17.232   5.276  14.954
92440W        W64733  36.433   8.691  14.024
92441W        W64734  13.604  41.789  10.931
92442W        W64735   7.259  35.969  10.644
92443W        W64736  32.000  22.655  13.859
92444W        W64737  39.545  15.650  13.471
92445W        W64738  15.785   9.300  13.346
92446W        W64739   6.305  35.456  11.975
92447W        W64740  34.429  37.353   1.249
92448W        W64741  35.369   4.706   3.658
92449W        W64742  35.417  44.404   3.810
92450W        W64743  35.049  40.464   2.216
92451W        W64744  40.917  31.017   3.841
92452W        W64745  27.579  36.999  10.592
92453W        W64746  43.376  42.295   1.212
92454W        W64747   9.167   3.267   9.962
92455W        W64748  17.161  24.150   2.676
92456W        W64749  43.876  39.961   4.750
92457W        W64750  15.146  31.922  11.030
92458W        W64751  40.507  25.535   2.306
92459W        W64752  26.458  22.511   2.701
92460W        W64753  18.216  40.999   2.875
92461W        W64754  22.166   9.199  13.438
92462W        W64755   1.851  17.257   1.259
92463W        W64756  33.043   1.471  12.013
92464W        W64757   1.378  31.457   4.181
92465W        W64758  28.540  16.243  12.856
92466W        W64759  20.566  43.922  14.927
92467W        W64760  15.757  21.743   4.131
92468W        W64761   5.903  43.490  12.352
92469W        W64762   0.263  37.476   9.966
92470W        W64763  12.311   2.798  10.151
92471W        W64764   9.376  30.463  11.114
92472W        W64765  19.701  12.143  10.913
92473W        W64766  41.393  26.982  11.014
92474W        W64767  12.203  38.403  10.506
92475W        W64768  19.257   7.202  13.846
92476W        W64769   0.941  35.938  10.561
92477W        W64770   8.784  39.958  13.833
92478W        W64771  27.547  14.170   4.139
92479W        W64772  42.845   7.333   3.760
92480W        W64773  21.619  43.009  14.029
92481W        W64774  28.506  14.792   2.806
92482W        W64775  16.768  38.501  11.513
92483W        W64776  43.964  24.191   2.866
92484W        W64777  26.986  27.948  11.407
92485W        W64778  20.130   4.854   0.243
92486W        W64779   5.765   8.272  10.935
92487W        W64780  39.005  26.584   0.799
92488W        W64781  16.594  44.852   3.823
92489W        W64782  35.032  21.019  13.863
92490W        W64783  19.749  24.108   2.199
92491W        W64784   4.712  15.255  12.354
92492W        W64785  33.951  27.564   0.334
92493W        W64786  28.609  44.275  11.983
92494W        W64787  11.829  17.162  10.946
92495W        W64788  34.985  13.186  12.008
92496W        W64789   9.688  34.512   4.209
92497W        W64790   6.788  41.411  11.943
92498W        W64791  23.195  37.358   1.735
92499W        W64792   6.263  24.991   4.624
92500W        W64793  28.661  17.585   2.707
92501W        W64794  29.961  40.822   1.450
92502W        W64795  33.079   9.800   5.097
92503W        W64796  13.834  43.495  13.539
92504W        W64797  17.091  30.593   2.411
92505W        W64798  30.651   7.716  14.447
92506W        W64799  24.203  22.566  12.360
92507W        W64800  20.054  43.805   1.289
92508W        W64801  39.818  35.596   2.397
92509W        W64802  18.111  19.166   1.431
92510W        W64803  15.265   9.162   2.393
92511W        W64804   3.929  30.986  14.002
92512W        W64805   5.700  34.971   3.747
92513W        W64806  31.982  21.115   4.628
92514W        W64807  19.660  43.274   0.433
92515W        W64808   2.410  44.325  13.810
92516W        W64809  23.697   2.257  14.465
92517W        W64810  44.830   7.228   3.784
92518W        W64811   3.939  13.217  10.999
92519W        W64812   3.785  34.611   3.249
92520W        W64813  28.068  13.827  13.324
92521W        W64814  24.225   7.868  14.014
92522W        W64815  10.692  31.069  14.004
92523W        W64816  27.552  30.931   2.662
92524W        W64817  25.986   4.851   1.808
92525W        W64818   2.463  30.558   3.723
92526W        W64819  37.510  15.207  11.448
92527W        W64820  19.178  19.744  13.868
92528W        W64821  37.429  11.293   1.765
92529W        W64822  33.397  15.288  14.423
92530W        W64823  21.205  15.134   3.330
92531W        W64824  27.602  36.414   1.385
92532W        W64825  27.190  30.039   2.228
92533W        W64826  32.393  22.716   1.249
92534W        W64827  10.144  18.730  13.470
92535W        W64828  34.604  30.094   4.349
92536W        W64829  35.946  16.175  13.915
92537W        W64830   0.810   7.306  11.021
92538W        W64831  18.292  40.845   0.901
92539W        W64832  36.581  30.094  13.877
92540W        W64833  11.245  14.135  11.556
92541W        W64834  39.504   2.728  14.924
92542W        W64835  32.404  23.127   2.331
92543W        W64836  42.845  20.755  13.925
92544W        W64837  26.131  43.847  12.370
92545W        W64838   7.707   4.388  10.934
92546W        W64839   3.776  27.153   3.265
92547W        W64840   4.227   4.282  12.395
92548W        W64841   2.778  37.406   0.881
92549W        W64842  12.785  40.395   3.851
92550W        W64843  44.826  15.106  13.393
92551W        W64844   7.698  40.420   1.714
92552W        W64845  22.560  23.720   5.130
92553W        W64846  15.618  44.296   2.193
92554W        W64847  21.728  38.860  14.827
92555W        W64848  37.368  13.313   1.793
92556W        W64849  44.863  35.380  11.528
92557W        W64850  17.746  21.038  13.468
92558W        W64851  21.703  22.718  13.524
92559W        W64852  18.671   2.300  13.512
92560W        W64853  38.408  30.502  13.329
92561W        W64854  12.123  34.445   4.757
92562W        W64855  30.617   3.242   1.806
92563W        W64856  24.586   7.678  13.366
92564W        W64857  28.659  20.045  14.497
92565W        W64858  40.519  33.901  11.598
92566W        W64859  30.547   0.300  10.621
92567W        W64860  21.601  33.482  10.133
92568W        W64861  12.719   4.301  11.953
92569W        W64862  32.890  34.874   3.811
92570W        W64863  21.203  11.156  14.286
92571W        W64864   2.837  10.227  13.881
92572W        W64865   6.328  22.563   4.806
92573W        W64866  17.588   2.899   4.344
92574W        W64867  14.721   5.411  11.038
92575W        W64868  35.468  24.671   1.348
92576W        W64869  27.633  41.919   0.344
92577W        W64870  33.607   1.738   9.980
92578W        W64871   7.703  28.093  11.087
92579W        W64872  29.608  30.982   3.721
92580W        W64873  18.646  34.555  13.896
92581W        W64874  27.574  36.034   4.184
92582W        W64875  22.621   4.391  10.625
92583W        W64876  32.473  33.625   4.222
92584W        W64877   7.782   1.279  12.011
92585W        W64878  11.730   4.808  11.487
92586W        W64879  32.421  13.659   2.744
92587W        W64880  20.073  42.395   3.725
92588W        W64881  27.017   3.765   1.424
92589W        W64882  14.285  29.474  13.926
92590W        W64883   6.697  11.145  14.944
92591W        W64884  24.145  24.059   3.253
92592W        W64885  15.689  35.984  14.420
92593W        W64886  35.073  19.135   4.816
92594W        W64887  15.811  36.362   0.787
92595W        W64888   7.819  42.373  11.459
92596W        W64889  10.638  11.252   0.825
92597W        W64890  11.280  13.607  14.883
92598W        W64891  43.372   2.905   0.773
92599W        W64892  19.684  30.442   1.869
92600W        W64893  33.905  17.177  13.061
92601W        W64894   5.220  42.396   1.851
92602W        W64895  34.426  25.660  14.370
92603W        W64896  12.260   3.257   4.228
92604W        W64897  33.486  20.189   4.629
92605W        W64898   9.726   0.944   4.695
92606W        W64899  23.170  34.006  12.966
92607W        W64900  20.193  15.262   0.859
92608W        W64901  41.866  42.457   4.228
92609W        W64902   4.941  28.941   0.746
92610W        W64903  40.000  37.976  14.416
92611W        W64904   9.777   1.787   3.763
92612W        W64905  37.848  12.145  10.437
92613W        W64906  30.089  39.415  12.060
92614W        W64907   0.250  20.602  11.390
92615W        W64908  12.763  42.483  12.861
92616W        W64909   2.246  11.709   1.420
92617W        W64910  20.168  17.699   4.230
92618W        W64911   2.314  35.503  13.862
92619W        W64912   9.364  20.095   0.340
92620W        W64913   5.871  28.931   2.307
92621W        W64914  20.061   2.442  13.884
92622W        W64915   9.653   2.458  11.449
92623W        W64916   4.440  22.705  12.024
92624W        W64917  33.030  12.615  10.498
92625W        W64918  21.259  20.643   1.885
92626W        W64919  16.270  18.276  14.301
92627W        W64920  34.928  20.221  13.012
92628W        W64921   5.299  35.869  10.461
92629W        W64922   1.901  23.019  13.010
92630W        W64923  28.482   1.885  10.924
92631W        W64924  24.519  14.714  10.527
92632W        W64925  35.564   4.780  14.913
92633W        W64926  19.234   6.222   1.417
92634W        W64927  25.678  36.084  11.503
92635W        W64928   8.301  44.340  10.053
92636W        W64929  31.954   0.378  12.519
92637W        W64930  34.017  43.390   2.853
92638W        W64931  18.094   5.854   0.876
92639W        W64932  18.571   0.830  13.913
92640W        W64933   9.248  40.052  11.869
92641W        W64934  38.481  24.147   2.275
92642W        W64935  16.161   8.862   4.656
92643W        W64936  36.521  44.909  14.467
92644W        W64937   5.816  20.759   1.740
92645W        W64938  12.148   9.352  11.542
92646W        W64939   1.309   2.848  12.965
92647W        W64940  40.868   9.267   3.781
92648W        W64941  37.563  17.673   2.370
92649W        W64942   5.894  15.245   0.399
92650W        W64943  15.745  38.875   0.918
92651W        W64944  12.167  29.626  13.345
92652W        W64945  24.686  41.874   3.864
92653W        W64946  24.205  20.257   3.355
92654W        W64947  36.545   0.272  11.119
92655W        W64948   4.911  36.007   4.267
92656W        W64949  33.381  28.949   9.979
92657W        W64950  33.956   4.282   3.785
92658W        W64951  33.130   7.248  11.999
92659W        W64952  24.581   6.814   0.358
92660W        W64953  36.466  18.702   0.849
92661W        W64954  24.993  24.096   0.432
92662W        W64955  19.059  35.464   1.219
92663W        W64956  38.017   7.860   2.790
92664W        W64957  14.334  35.477  13.527
92665W        W64958   4.849   4.716  12.056
92666W        W64959   8.892  39.963   3.324
92667W        W64960  32.492  39.329  12.971
92668W        W64961   8.223  12.699  11.041
92669W        W64962   0.356  33.975   9.622
92670W        W64963  13.843  41.809  14.851
92671W        W64964   8.303  20.151   2.714
92672W        W64965   5.747  34.587   3.867
92673W        W64966  23.656   2.338   1.441
92674W        W64967   2.288   8.783   4.643
92675W        W64968   0.288  40.474   3.817
92676W        W64969  43.847  38.924  14.402
92677W        W64970  40.834  32.479  10.980
92678W        W64971  13.172  14.189  14.909
92679W        W64972  36.580  23.615   2.325
92680W        W64973  17.062   0.248  13.524
92681W        W64974  26.595  21.140   4.806
92682W        W64975  42.470  41.383  11.460
92683W        W64976  19.127  34.516   9.540
92684W        W64977  14.679  18.762  13.488
92685W        W64978  21.704   0.298  12.875
92686W        W64979   0.400  17.728  12.372
92687W        W64980  13.325  40.537  12.420
92688W        W64981   0.345  22.671  11.510
92689W        W64982  16.207   8.228  14.826
92690W        W64983  42.360  37.547   2.812
92691W        W64984  13.648  34.524  12.449
92692W        W64985   9.330   2.837  13.984
92693W        W64986  36.975  22.194   4.679
92694W        W64987  26.039  30.440  14.951
92695W        W64988  27.189  23.155   3.223
92696W        W64989   4.795  38.531   2.193
92697W        W64990   3.441  28.525   0.900
92698W        W64991  21.257   8.187  11.893
92699W        W64992  16.779  24.083  12.460
92700W        W64993  26.669   4.344   4.292
92701W        W64994   9.829  21.616  13.807
92702W        W64995  16.099  23.542  12.427
92703W        W64996  10.343   7.789   3.657
92704W        W64997  16.674  19.668   0.779
92705W        W64998  37.567  32.461  10.498
92706W        W64999  15.144  31.028   0.802
92707W        W65000  12.663   3.747  13.839
92708W        W65001  36.498  29.127  11.496
92709W        W65002   7.845  36.946  12.558
92710W        W65003  14.319  10.283  12.983
92711W        W65004  25.087  32.131  12.933
92712W        W65005  13.194  40.305  14.460
92713W        W65006  18.739  37.979  13.865
92714W        W65007  19.658  37.455   4.822
92715W        W65008  23.990   7.792   2.364
92716W        W65009  26.486  44.974  12.978
92717W        W65010  13.197  18.177  12.414
92718W        W65011  23.232  11.199   0.290
92719W        W65012   1.476   0.848  13.026
92720W        W65013  20.191   7.795   2.710
92721W        W65014  37.002  28.456  13.839
92722W        W65015   8.739   2.272  14.500
92723W        W65016   8.857  17.229   4.184
92724W        W65017  44.335  24.192   0.360
92725W        W65018  29.135   5.386  11.479
92726W        W65019   2.867  29.973  14.919
92727W        W65020  22.702  32.436  12.014
92728W        W65021  37.429  22.121   4.673
92729W        W65022  29.086  30.046   3.669
92730W        W65023  16.116  10.817  11.090
92731W        W65024  18.630  13.667   2.293
92732W        W65025  34.419  16.635  11.931
92733W        W65026  28.154  22.732  12.411
92734W        W65027   5.335  34.961   1.267
92735W        W65028  10.773  14.647   0.848
92736W        W65029  22.612  40.345  10.964
92737W        W65030   3.276  31.130  11.376
92738W        W65031  16.154  30.609  11.923
92739W        W65032   5.927  25.072  12.997
92740W        W65033  15.179  30.113  10.618
92741W        W65034  31.508   0.480   1.210
92742W        W65035  41.476  39.877  10.467
92743W        W65036  36.036  21.623   0.461
92744W        W65037  34.054  27.030  10.980
92745W        W65038  28.461  22.076   0.867
92746W        W65039  35.107   5.246  13.474
92747W        W65040  15.189   9.816  13.919
92748W        W65041  25.580  24.508   4.127
92749W        W65042  21.243  12.650  12.984
92750W        W65043   5.835  44.955   1.847
92751W        W65044  27.450   3.367  10.007
92752W        W65045  33.059   0.406  10.602
92753W        W65046   9.731  28.612   3.768
92754W        W65047  40.411  10.216   0.741
92755W        W65048  36.086   5.894  14.371
92756W        W65049  17.668  21.681   0.278
92757W        W65050  44.982  34.959   4.774
92758W        W65051   8.661  40.393   0.899
92759W        W65052  21.028  36.039  12.475
92760W        W65053  21.627   9.760  12.351
92761W        W65054   0.370  42.291   2.677
92762W        W65055   5.697  14.785   1.828
92763W        W65056   2.438  36.522   1.827
92764W        W65057  25.655  23.141   4.698
92765W        W65058   6.428   6.367  11.986
92766W        W65059  26.556  35.963   4.716
92767W        W65060  42.405  22.230   2.867
92768W        W65061  39.542  12.762   0.945
92769W        W65062  20.738  21.189   0.791
92770W        W65063   2.237  41.405  12.028
92771W        W65064  33.067  11.652   3.254
92772W        W65065  25.709  21.119   9.985
92773W        W65066  29.960  33.533  13.487
92774W        W65067  24.479  10.278  13.038
92775W        W65068  22.014  16.097   1.389
92776W        W65069  24.031   8.322  11.527
92777W        W65070  43.446  34.914  12.477
92778W        W65071  25.208  36.564   2.902
92779W        W65072  11.353   8.727   4.813
92780W        W65073  25.157  37.016  14.867
92781W        W65074  43.909   6.767   0.811
92782W        W65075  30.564  11.813  13.321
92783W        W65076  37.870  44.805  13.431
92784W        W65077  17.294  25.030  11.535
92785W        W65078  23.015  26.997  13.899
92786W        W65079  11.298  13.256  11.405
92787W        W65080  30.085   2.445   0.742
92788W        W65081  37.075   4.794   2.328
92789W        W65082  32.622   6.770   2.211
92790W        W65083  25.497   3.825   2.765
92791W        W65084  39.523  27.076   2.762
92792W        W65085  35.596  18.757   4.675
92793W        W65086  33.035  14.174   0.798
92794W        W65087  19.643   7.348   3.849
92795W        W65088  13.249   0.931   4.755
92796W        W65089   3.288  13.715  14.015
92797W        W65090   5.409   3.822   2.864
92798W        W65091  34.563  18.294   3.260
92799W        W65092   6.749  24.135  13.856
92800W        W65093   8.343  44.930   0.399
92801W        W65094  20.631  26.642   3.657
92802W        W65095  43.494  37.446   4.750
92803W        W65096  21.566   2.404   1.426
92804W        W65097  34.611  25.554  11.611
92805W        W65098   6.260   5.431  13.925
92806W        W65099   7.258   4.876   4.287
92807W        W65100  37.432   7.809  11.413
92808W        W65101  30.972  13.167  12.046
92809W        W65102  10.805  33.521   3.815
92810W        W65103  41.987  29.130  14.426
92811W        W65104  33.508   4.226   2.667
92812W        W65105  19.072  33.537   0.372
92813W        W65106   2.887  19.203   0.832
92814W        W65107  39.347   8.771  12.002
92815W        W65108  34.955  21.104   4.714
92816W        W65109   2.459  30.536   4.763
92817W        W65110   9.284  28.147  13.391
92818W        W65111   0.744  14.781  12.828
92819W        W65112  43.843  17.124  12.479
92820W        W65113  44.308   4.282   5.154
92821W        W65114  27.446  10.333   0.867
92822W        W65115  15.184  28.930  10.434
92823W        W65116  39.365  17.065  13.806
92824W        W65117  14.116  41.861   4.647
92825W        W65118  25.587  19.615   0.373
92826W        W65119  18.238  25.141  12.368
92827W        W65120  22.744  30.067   1.787
92828W        W65121   2.280  43.999   2.766
92829W        W65122  19.242  21.636   0.909
92830W        W65123  31.590  21.745  10.935
92831W        W65124  33.945  10.353   0.881
92832W        W65125  10.366  25.053   4.615
92833W        W65126  31.112  23.504  10.537
92834W        W65127   9.198  39.878   1.271
92835W        W65128  24.974  17.574  10.420
92836W        W65129   7.785  11.841   0.940
92837W        W65130  38.364  29.622   1.256
92838W        W65131  30.445  18.687   4.256
92839W        W65132   7.203  38.510  13.881
92840W        W65133  42.452  34.412   3.181
92841W        W65134  23.040  43.490   3.729
92842W        W65135  12.188  39.037  10.471
92843W        W65136  17.204   1.892   0.328
92844W        W65137  42.398  41.915  10.894
92845W        W65138  19.090   8.290   1.298
92846W        W65139  36.458  34.941  11.589
92847W        W65140  19.731   5.225  10.469
92848W        W65141  19.063  44.795   4.798
92849W        W65142  21.684  27.485  14.356
92850W        W65143  23.666   3.929  11.496
92851W        W65144  36.083   1.353  12.932
92852W        W65145  33.079   4.917  13.365
92853W        W65146   9.722  26.521  10.891
92854W        W65147  20.768   1.444  11.494
92855W        W65148   0.861   5.389  12.569
92856W        W65149   4.781  38.525  12.368
92857W        W65150   9.258  25.121  14.865
92858W        W65151   9.307  30.467  13.474
92859W        W65152   6.271  34.016  14.294
92860W        W65153  15.121  12.850  14.435
92861W        W65154  13.217  14.271   3.338
92862W        W65155  43.497  42.388   3.174
92863W        W65156  32.904  39.921  14.452
92864W        W65157  11.176  33.490   1.323
92865W        W65158   7.204  11.237   2.214
92866W        W65159  39.910  35.518  13.512
92867W        W65160  15.323  27.966  12.091
92868W        W65161  21.721  41.293  12.069
92869W        W65162  29.485  19.557  11.864
92870W        W65163  25.967  19.080   4.165
92871W        W65164  12.148  29.043  13.446
92872W        W65165  17.621   7.326  11.096
92873W        W65166  33.025  24.525  10.469
92874W        W65167   3.388  41.518  10.494
92875W        W65168  14.337  19.239  12.418
92876W        W65169  33.106  24.590  13.975
92877W        W65170  22.163  33.500  13.398
92878W        W65171   2.387  22.584  13.503
92879W        W65172  34.117  13.342   0.820
92880W        W65173   0.355  38.856  14.823
92881W        W65174   3.917  42.336   2.402
92882W        W65175  39.836  24.170  13.918
92883W        W65176  31.139  39.029  13.352
92884W        W65177   9.817   7.856  13.504
92885W        W65178  11.168  26.193  10.638
92886W        W65179   5.891  21.246  14.763
92887W        W65180  39.987  12.739   1.758
92888W        W65181  16.654  35.394   1.440
92889W        W65182  26.991   2.375   3.827
92890W        W65183  35.901  25.557  11.124
92891W        W65184  37.865  19.761   2.192
92892W        W65185  41.979  37.078  12.067
92893W        W65186  41.884  24.048   1.249
92894W        W65187  21.076  20.227   4.145
92895W        W65188  42.027  16.626   3.701
92896W        W65189  12.339  28.507  13.796
92897W        W65190  14.688  10.149  11.427
92898W        W65191  28.495  33.987  10.999
92899W        W65192  29.493  36.072   2.209
92900W        W65193  31.150   1.774  14.295
92901W        W65194  33.130  11.771  12.544
92902W        W65195  35.871  44.803  12.570
92903W        W65196   5.908  21.256   3.154
92904W        W65197   3.897  25.700   3.264
92905W        W65198  33.877  16.233   0.327
92906W        W65199  33.391  14.235  11.074
92907W        W65200   4.210  33.041  14.882
92908W        W65201  23.007  21.044   1.842
92909W        W65202   3.808  24.510  14.419
92910W        W65203  34.910  10.142   4.183
92911W        W65204   8.780  11.351   1.355
92912W        W65205  13.775  24.222   4.682
92913W        W65206  36.997  42.354   2.252
92914W        W65207  37.508  30.103   2.265
92915W        W65208  39.514  38.833  13.500
92916W        W65209   8.785   6.426  12.039
92917W        W65210  27.676  31.448   3.658
92918W        W65211   8.326  13.739   1.735
92919W        W65212   3.384  34.562  12.843
92920W        W65213  36.452  25.127   0.467
92921W        W65214  34.868  35.050  11.077
92922W        W65215   0.904   7.691  11.488
92923W        W65216   6.708  34.514   4.601
92924W        W65217  11.680  14.237   4.312
92925W        W65218   7.870   9.292   4.207
92926W        W65219   3.901  16.634  10.564
92927W        W65220  29.017  43.477   0.741
92928W        W65221   5.412  10.675  14.901
92929W        W65222  31.648  34.889  14.932
92930W        W65223   1.258  22.154   2.255
92931W        W65224   3.785  27.080   3.663
92932W        W65225  44.834  11.344   1.869
92933W        W65226  43.466  11.755   1.825
92934W        W65227  39.557  11.360  10.583
92935W        W65228   2.272  24.515  11.985
92936W        W65229  42.330   1.249   4.168
92937W        W65230   0.483   2.277   0.879
92938W        W65231   1.822  42.411   2.284
92939W        W65232  40.495  37.945  12.476
92940W        W65233   2.944   5.259   3.173
92941W        W65234   3.266  15.137  13.405
92942W        W65235  35.449  36.526   3.832
92943W        W65236  27.142  17.768  14.987
92944W        W65237  14.304  19.114   2.790
92945W        W65238  37.425  32.618   0.944
92946W        W65239  40.966  20.137   2.382
92947W        W65240  38.462  15.607  11.054
92948W        W65241   2.757  10.830   0.751
92949W        W65242  17.775  43.969   3.349
92950W        W65243  42.860  15.710   2.221
92951W        W65244  22.996   6.285  12.547
92952W        W65245  33.083  22.129  13.058
92953W        W65246   7.722  35.864   3.785
92954W        W65247  40.373  19.103   0.728
92955W        W65248  19.656  36.870   4.723
92956W        W65249  37.487  21.547  10.942
92957W        W65250  44.861   1.811  12.515
92958W        W65251  26.496  33.079   2.880
92959W        W65252  18.669  33.497  12.486
92960W        W65253  38.438  21.716  13.512
92961W        W65254  31.406  30.443   4.263
92962W        W65255  37.402  24.161  12.976
92963W        W65256  14.109   7.355  12.468
92964W        W65257  12.804  14.693   3.645
92965W        W65258   6.894  38.887  13.047
92966W        W65259  27.185  22.612  12.556
92967W        W65260  15.736   5.250   1.779
92968W        W65261  31.431  13.734  11.612
92969W        W65262  13.338   2.954  11.023
92970W        W65263  43.819  37.478  10.508
92971W        W65264  17.736  21.688  12.515
92972W        W65265  23.515   0.909  11.019
92973W        W65266  33.506  32.611   3.634
92974W        W65267  10.790  11.208  13.311
92975W        W65268  16.726  12.712  13.497
92976W        W65269  35.987  42.501   1.864
92977W        W65270  12.260  38.433  12.527
92978W        W65271   9.314   2.762  14.444
92979W        W65272  17.205  37.023  12.991
92980W        W65273  33.536  34.505  10.532
92981W        W65274  34.903  40.474   2.699
92982W        W65275  44.350   3.774  14.885
92983W        W65276   7.672  30.635  12.576
92984W        W65277  41.500  41.519   2.193
92985W        W65278  34.048  30.998  13.350
92986W        W65279   6.428  35.375   3.202
92987W        W65280   4.715  34.100  10.585
92988W        W65281   0.333   3.395  12.872
92989W        W65282  13.645  28.148   1.911
92990W        W65283   4.757  14.756   1.849
92991W        W65284  13.646  42.349   4.259
92992W        W65285  17.700   1.840  13.026
92993W        W65286  11.722  14.592  12.539
92994W        W65287  15.084  35.053   1.216
92995W        W65288  44.353  39.416  10.093
92996W        W65289  27.130  28.119   3.728
92997W        W65290  17.063  18.244  12.487
92998W        W65291  13.308  42.928   1.857
92999W        W65292  42.444  33.015   2.763
93000W        W65293  36.569  22.523  14.994
93001W        W65294  11.700  33.462   4.764
93002W        W65295  40.931  25.216  12.557
93003W        W65296  33.577  44.822  10.463
93004W        W65297  38.515  19.202   0.808
93005W        W65298  15.800  33.989  14.388
93006W        W65299  35.884  22.180  13.011
93007W        W65300  18.665  22.132  11.518
93008W        W65301   1.356  32.890   1.277
93009W        W65302  31.138  18.652  13.889
93010W        W65303   3.445   7.842   2.277
93011W        W65304  41.856  31.068   4.620
93012W        W65305  38.368  13.307  12.836
93013W        W65306  36.573   4.247   2.765
93014W        W65307   7.864  25.965  12.399
93015W        W65308  28.986  10.842  11.422
93016W        W65309  26.962  44.300   0.436
93017W        W65310  22.525  44.296  13.025
93018W        W65311   5.423   4.882  14.344
93019W        W65312  35.958   5.218   1.796
93020W        W65313  14.670  12.257   1.895
93021W        W65314  44.893  38.972   0.838
93022W        W65315  19.713  41.827  11.056
93023W        W65316  15.673  34.887   2.835
93024W        W65317  39.031  32.414   3.764
93025W        W65318   6.273  30.443  12.446
93026W        W65319  10.332  23.080   4.297
93027W        W65320   8.771  43.920   2.842
93028W        W65321  28.651   2.231   1.740
93029W        W65322  13.611  36.092  10.507
93030W        W65323  33.011   7.758  11.455
93031W        W65324  21.263  34.381  13.467
93032W        W65325  44.839  20.180  13.972
93033W        W65326  40.025   8.795   0.797
93034W        W65327  15.675   7.863   2.771
93035W        W65328  33.049  28.984   0.464
93036W        W65329  14.807  10.188   3.271
93037W        W65330   7.301  22.736  10.888
93038W        W65331   3.277  43.473  14.820
93039W        W65332  11.731  39.868   1.382
93040W        W65333  42.333  36.995   0.803
93041W        W65334  26.587  25.594  12.990
93042W        W65335  25.529  22.212   4.791
93043W        W65336  29.658   2.456  10.928
93044W        W65337  41.374   3.844   4.683
93045W        W65338  31.953  36.968   3.215
93046W        W65339  18.600  29.030  11.927
93047W        W65340   8.814  12.836  13.344
93048W        W65341  41.321  19.102  14.882
93049W        W65342  11.368  37.075   1.391
93050W        W65343  21.044   5.308  11.860
93051W        W65344  22.715  38.463   2.368
93052W        W65345  34.091   8.830   1.851
93053W        W65346  29.498   9.393  12.375
93054W        W65347  21.695   5.798  11.393
93055W        W65348  42.364  17.276   2.363
93056W        W65349  26.641  41.856   4.288
93057W        W65350   9.351  31.419  11.425
93058W        W65351  23.240   6.903  10.903
93059W        W65352   9.719  26.595   5.116
93060W        W65353   0.298  17.684  11.066
93061W        W65354  13.613  15.311  10.464
93062W        W65355  38.928   4.840  11.469
93063W        W65356   2.395   6.923   1.334
93064W        W65357  18.616  24.582  12.436
93065W        W65358  42.955  40.833   0.452
93066W        W65359  35.479   3.246   4.179
93067W        W65360  37.388  11.704  10.890
93068W        W65361   1.313  35.415  11.963
93069W        W65362  37.352  43.286  10.501
93070W        W65363   3.444  14.780  12.353
93071W        W65364  17.772  26.598  13.407
93072W        W65365  15.694  23.578  14.817
93073W        W65366  15.707  18.573  14.795
93074W        W65367  20.621  29.053   1.322
93075W        W65368  23.150  12.181   1.898
93076W        W65369  23.604  39.343   3.278
93077W        W65370  24.709  12.831   4.119
93078W        W65371  33.514  25.146  14.892
93079W        W65372  17.179  35.886   2.378
93080W        W65373  13.351  15.115  13.041
93081W        W65374  22.595  24.715   3.797
93082W        W65375  19.708  32.009  12.072
93083W        W65376  26.563  43.296   3.315
93084W        W65377  33.106   8.245   9.552
93085W        W65378  13.678  36.847  12.040
93086W        W65379   9.711  26.093   0.824
93087W        W65380  34.015  31.592  13.369
93088W        W65381  12.197   6.328  10.506
93089W        W65382  39.395  31.466   2.371
93090W        W65383  14.826  19.561   5.182
93091W        W65384  31.082  38.929   2.736
93092W        W65385  31.096  11.232   0.399
93093W        W65386  34.064  15.647   3.837
93094W        W65387  13.314  30.149  14.826
93095W        W65388  17.751  40.825  10.549
93096W        W65389  22.125  14.831  11.928
93097W        W65390  17.255  22.152   1.416
93098W        W65391  35.563  27.474  10.894
93099W        W65392   4.386  28.444   2.848
93100W        W65393  25.659  35.956   5.178
93101W        W65394   8.366   7.377  11.048
93102W        W65395  37.571  31.905  13.008
93103W        W65396  24.585   1.274   0.791
93104W        W65397   3.780   3.389   2.347
93105W        W65398   3.363  27.960   5.215
93106W        W65399  42.467  15.255   4.615
93107W        W65400  14.692   8.835  14.800
93108W        W65401  19.539  16.575   0.850
93109W        W65402  33.015   9.171  11.975
93110W        W65403  44.416  28.097   1.820
93111W        W65404  39.981   3.948   3.341
93112W        W65405   7.668  11.255  12.493
93113W        W65406  32.065   2.927   3.843
93114W        W65407   8.303  44.413  12.386
93115W        W65408  42.917  14.267   2.829
93116W        W65409  18.294   2.891   3.767
93117W        W65410  12.272  19.573  11.035
93118W        W65411  20.559  35.928   2.289
93119W        W65412  40.339   4.270   1.216
93120W        W65413  11.651  26.067   3.766
93121W        W65414  23.112  10.762   3.821
93122W        W65415  14.313  30.141   1.707
93123W        W65416  28.038  24.075   4.701
93124W        W65417  29.654  38.848  14.012
93125W        W65418   8.272  22.064  13.802
93126W        W65419  21.606   8.726   2.397
93127W        W65420   2.380  29.567   1.791
93128W        W65421  20.734   4.884   1.702
93129W        W65422  16.257  29.659  12.419
93130W        W65423  21.677   2.256   3.843
93131W        W65424  32.946  16.784  13.920
93132W        W65425   3.364  41.978  14.836
93133W        W65426  30.036  13.826   3.387
93134W        W65427  32.926  24.977   4.171
93135W        W65428  21.685   5.919   2.728
93136W        W65429  38.830  23.575  14.316
93137W        W65430  20.231  26.659  12.408
93138W        W65431   4.376  22.022   3.789
93139W        W65432  29.966  38.456  13.796
93140W        W65433   2.721   5.273  13.935
93141W        W65434  20.525  44.340   0.336
93142W        W65435   5.709   9.656   4.193
93143W        W65436  44.858  20.125   2.680
93144W        W65437  43.511  19.242   4.187
93145W        W65438  39.514   1.278  11.508
93146W        W65439   6.835  13.783  11.396
93147W        W65440   5.857  33.571   2.837
93148W        W65441  24.484  18.101  12.357
93149W        W65442  43.444  27.514  12.826
93150W        W65443  37.931  36.911   3.708
93151W        W65444  20.572  29.531  11.932
93152W        W65445   9.717  12.678   0.313
93153W        W65446  44.007  15.143   0.730
93154W        W65447  20.233  11.206   4.234
93155W        W65448  41.830  44.293  12.345
93156W        W65449  43.963  37.504  12.542
93157W        W65450  20.219  41.328   4.221
93158W        W65451   4.263   7.294  14.278
93159W        W65452  43.885   8.245   2.189
93160W        W65453  15.259  40.934  13.479
93161W        W65454  44.370   2.780  11.485
93162W        W65455   1.292  12.164   3.149
93163W        W65456  38.971   7.222   1.742
93164W        W65457  10.641  22.569  11.862
93165W        W65458  38.824  44.491  13.356
93166W        W65459  30.151  36.579  12.501
93167W        W65460  10.733  23.629   2.721
93168W        W65461  25.504  17.663   4.317
93169W        W65462   1.369  40.034   0.834
93170W        W65463  35.383  14.227  11.002
93171W        W65464  31.613   7.343  11.997
93172W        W65465   8.680  32.561   3.366
93173W        W65466  27.178   7.196   2.244
93174W        W65467   9.303  11.228  10.612
93175W        W65468  43.476  23.046   4.333
93176W        W65469  29.153  12.304   2.890
93177W        W65470  43.362  33.988   1.832
93178W        W65471   6.882  44.272   4.266
93179W        W65472   0.818  29.955  14.409
93180W        W65473  22.165   2.419   4.311
93181W        W65474  12.635  22.604   1.904
93182W        W65475  19.741  18.098   1.362
93183W        W65476  16.604  11.200   1.760
93184W        W65477  41.424   4.346  13.012
93185W        W65478  13.649  26.107  14.932
93186W        W65479   5.227  38.976  12.961
93187W        W65480   1.952  41.389  12.851
93188W        W65481  31.462   0.798   2.300
93189W        W65482  14.236  27.491  13.012
93190W        W65483  15.766  18.664  10.556
93191W        W65484   2.754  43.404   0.900
93192W        W65485  38.871  32.002   2.765
93193W        W65486  29.957  36.930   2.392
93194W        W65487  37.386  31.920  11.446
93195W        W65488   1.323  12.811  11.034
93196W        W65489  16.566  43.895   1.373
93197W        W65490  16.745  16.622  12.069
93198W        W65491   3.295  26.520   3.190
93199W        W65492  17.705  44.768  14.784
93200W        W65493  29.599  15.629   9.962
93201W        W65494  25.688  36.929  11.897
93202W        W65495  40.382   2.834   0.264
93203W        W65496   1.955  17.783   1.282
93204W        W65497  20.247  41.486   0.370
93205W        W65498  22.528  22.057  11.556
93206W        W65499  12.271  20.721  13.006
93207W        W65500  19.112  21.592   3.335
93208W        W65501  21.557  15.317   3.309
93209W        W65502  35.960  29.921   3.234
93210W        W65503   2.451  31.077   3.779
93211W        W65504  30.124   7.696  11.053
93212W        W65505  33.034  37.946  14.453
93213W        W65506  27.961  21.252   3.324
93214W        W65507  21.681  38.971  10.447
93215W        W65508  27.564  22.645   3.859
93216W        W65509   1.769   2.919  11.068
93217W        W65510  43.846  30.015  10.932
93218W        W65511  13.792  21.110   3.793
93219W        W65512  33.424   6.305  13.383
93220W        W65513  16.801  17.605  11.029
93221W        W65514  29.013  36.019   4.706
93222W        W65515  15.701   1.375  14.451
93223W        W65516  15.098  11.362  14.819
93224W        W65517  33.065  10.154  13.944
93225W        W65518  23.573   6.416   2.317
93226W        W65519   4.285  43.797   0.457
93227W        W65520  42.916  18.663  14.980
93228W        W65521  13.317  28.018  12.032
93229W        W65522   9.187   2.779  11.041
93230W        W65523  14.595  35.935   1.844
93231W        W65524  16.276   3.792   5.637
93232W        W65525  23.072  36.436  11.069
93233W        W65526  18.153  28.041  14.889
93234W        W65527  33.535   0.842   4.184
93235W        W65528   9.359  33.492   4.757
93236W        W65529  22.626   4.741   4.657
93237W        W65530  19.643  37.841  13.921
93238W        W65531  43.276  40.449   0.334
93239W        W65532  12.197  44.781  14.031
93240W        W65533  32.024  14.644   3.301
93241W        W65534   0.408  35.985  10.561
93242W        W65535  41.297  31.036   0.743
93243W        W65536   0.361  27.025  11.509
93244W        W65537  39.935   5.373  12.012
93245W        W65538  40.851  29.578   0.462
93246W        W65539  24.649  24.989  11.066
93247W        W65540  25.071  18.258   2.284
93248W        W65541  36.896  14.283   1.387
93249W        W65542  29.431   9.230  14.983
93250W        W65543  34.466   1.821  10.607
93251W        W65544  43.290  37.531  12.892
93252W        W65545   9.762   4.257  10.437
93253W        W65546  20.651  12.200   1.801
93254W        W65547  38.505  29.428   3.193
93255W        W65548  29.047   8.401  10.971
93256W        W65549  42.474  20.050  13.851
93257W        W65550  10.733  14.130  11.967
93258W        W65551  33.576  19.151  13.000
93259W        W65552  33.888  24.041  14.951
93260W        W65553  37.898  32.909   1.394
93261W        W65554  29.470  37.858   2.882
93262W        W65555  10.274  25.038   0.397
93263W        W65556  24.664  33.131   0.434
93264W        W65557  42.445  35.090  10.918
93265W        W65558  43.504   6.188   0.777
93266W        W65559   7.277   8.781  10.608
93267W        W65560  29.647  20.127  13.337
93268W        W65561   4.930  26.188  11.929
93269W        W65562   2.737  38.038   2.224
93270W        W65563  26.669  29.532  11.928
93271W        W65564  39.063  29.077  12.437
93272W        W65565  35.873  34.948  11.494
93273W        W65566  33.586   0.307  11.392
93274W        W65567  31.972  23.714   4.818
93275W        W65568  14.634  25.183  10.551
93276W        W65569  37.874  27.040   3.260
93277W        W65570  24.551  36.906  14.347
93278W        W65571   4.240  26.606  14.909
93279W        W65572  18.618   5.781  12.450
93280W        W65573  12.198  33.509  12.876
93281W        W65574  24.632  19.751   4.346
93282W        W65575  25.057  16.278  14.781
93283W        W65576  20.049   0.294   2.706
93284W        W65577  24.198  14.690   1.331
93285W        W65578  33.526  40.385   2.746
93286W        W65579  42.894  34.097  13.811
93287W        W65580  32.142  14.751  13.837
93288W        W65581  14.637  28.661   4.262
93289W        W65582  31.639  18.729  11.960
93290W        W65583  32.542  16.799  14.494
93291W        W65584  18.624  40.822  10.439
93292W        W65585  22.148   2.230  10.488
93293W        W65586  16.301  22.646   3.634
93294W        W65587  33.620  24.585   0.835
93295W        W65588  13.123   6.922   3.812
93296W        W65589  24.510  26.002  12.555
93297W        W65590  40.342  33.109  11.910
93298W        W65591  21.630  40.951  12.974
93299W        W65592  13.615  31.142  12.985
93300W        W65593  43.939  11.654   4.259
93301W        W65594   3.322  41.884   1.344
93302W        W65595  28.511   9.704   3.656
93303W        W65596  15.623  23.617  13.962
93304W        W65597  13.161  42.448   3.242
93305W        W65598  44.960  15.808  10.620
93306W        W65599  13.283   2.382   5.298
93307W        W65600  38.841  38.866   2.181
93308W        W65601  39.497  24.111   4.226
93309W        W65602  25.196  43.999  11.511
93310W        W65603  39.826  28.101  12.488
93311W        W65604  14.828  38.365  12.985
93312W        W65605  34.455  31.501   0.300
93313W        W65606   3.869  33.974   4.231
93314W        W65607  27.680  33.924  10.954
93315W        W65608  28.476  17.145  13.334
93316W        W65609  37.072  44.001   3.366
93317W        W65610  44.384  43.375   4.741
93318W        W65611  29.047  37.892  10.579
93319W        W65612   0.411  44.380  11.398
93320W        W65613  41.511   7.310  11.934
93321W        W65614  33.551   9.658  13.893
93322W        W65615  19.533  15.194   1.856
93323W        W65616  32.428  14.816  14.504
93324W        W65617  31.548  15.086   1.782
93325W        W65618  11.821  32.894   1.723
93326W        W65619  38.916  44.813   3.257
93327W        W65620  29.450  21.150  14.303
93328W        W65621  18.751  18.641   2.247
93329W        W65622  22.604  10.140  11.539
93330W        W65623  11.860   2.859  10.421
93331W        W65624  37.945   0.836   0.435
93332W        W65625  23.014   3.740   0.343
93333W        W65626  41.944  17.237  10.584
93334W        W65627   2.325   6.899  10.586
93335W        W65628  21.175  23.066  14.923
93336W        W65629  37.053  34.592  13.439
93337W        W65630  19.702  31.085  13.960
93338W        W65631  15.317  33.510  10.544
93339W        W65632   0.485   4.892  11.116
93340W        W65633  10.701  29.105  10.407
93341W        W65634  33.392  33.030  14.940
93342W        W65635  12.662  18.258  12.524
93343W        W65636  14.717  29.502  13.953
93344W        W65637  21.257  20.133  10.554
93345W        W65638  31.932  35.471   4.258
93346W        W65639   6.849  35.003   3.231
93347W        W65640   8.173  33.932  11.395
93348W        W65641  41.841   0.435   4.192
93349W        W65642  44.403  27.980   4.297
93350W        W65643  24.201   6.194  12.353
93351W        W65644   0.318  28.078   2.731
93352W        W65645  25.198  11.829  12.480
93353W        W65646   1.406   4.435   2.696
93354W        W65647   4.728  36.001  13.812
93355W        W65648  21.087   8.310   1.335
93356W        W65649  38.908  23.018   3.812
93357W        W65650  37.860  31.488  10.489
93358W        W65651  31.595  19.074   2.187
93359W        W65652  39.981  33.566   0.459
93360W        W65653  24.547  27.040  12.925
93361W        W65654  10.875   7.368  12.451
93362W        W65655  14.785  34.514   1.372
93363W        W65656   8.791   8.256   3.255
93364W        W65657  30.958  33.924   2.275
93365W        W65658   5.382  17.561   1.819
93366W        W65659  34.486  35.379  11.901
93367W        W65660  42.864  21.709  10.411
93368W        W65661  28.498   9.365  13.398
93369W        W65662  12.197  34.417  12.872
93370W        W65663   6.390  13.802  10.596
93371W        W65664   2.379   3.719   1.357
93372W        W65665   6.314   3.448  12.382
93373W        W65666   1.270  37.488  14.819
93374W        W65667   3.724  22.116  14.985
93375W        W65668  21.615  23.150  12.883
93376W        W65669   7.705  31.067  12.953
93377W        W65670  27.474  44.891   1.335
93378W        W65671  26.693  11.847  12.093
93379W        W65672  30.088   7.236  12.838
93380W        W65673  33.526  10.824  11.078
93381W        W65674  15.180  32.128   0.859
93382W        W65675  44.262  41.488   4.145
93383W        W65676  22.700  44.784   2.872
93384W        W65677  44.479   1.855   3.342
93385W        W65678  13.307  32.503  13.826
93386W        W65679  18.641  18.080   2.294
93387W        W65680  20.258  15.139  10.420
93388W        W65681   4.750   9.360   3.687
93389W        W65682  41.805  22.539   1.225
93390W        W65683  33.910  33.511  10.482
93391W        W65684  24.146   3.456   1.808
93392W        W65685  44.496  28.619   2.875
93393W        W65686  12.219   6.791   0.462
93394W        W65687  10.691   6.207   0.456
93395W        W65688  12.815   1.973   1.716
93396W        W65689  37.953  36.467   4.810
93397W        W65690   3.417  12.792  14.453
93398W        W65691  15.582  14.163  12.400
93399W        W65692   2.805  23.726  14.430
93400W        W65693  21.084  44.405  14.782
93401W        W65694  36.953   0.316  10.913
93402W        W65695  14.703  33.019  13.505
93403W        W65696   4.446   8.666  13.797
93404W        W65697  11.254  17.686  12.944
93405W        W65698  21.254  19.536  12.929
93406W        W65699  32.089  36.932   0.383
93407W        W65700  24.722   7.185   0.931
93408W        W65701   8.660  16.104   3.860
93409W        W65702  31.981  16.206  14.399
93410W        W65703  42.947  23.546   2.232
93411W        W65704   5.902   5.790  14.886
93412W        W65705  16.136  27.959  10.982
93413W        W65706  22.010   4.864   4.720
93414W        W65707   7.178  22.601   2.666
93415W        W65708  24.099  37.506   1.255
93416W        W65709   4.354   2.876   3.233
93417W        W65710  44.375  19.537  13.510
93418W        W65711  38.548  19.710   3.797
93419W        W65712  38.982  36.574  12.071
93420W        W65713   9.876  12.280  12.055
93421W        W65714   2.400  39.525  14.939
93422W        W65715  39.005  38.486  12.364
93423W        W65716   8.868  19.534  11.520
93424W        W65717  16.603  25.047   3.767
93425W        W65718   9.235  38.015   2.816
93426W        W65719  37.513  17.091   5.183
93427W        W65720  10.145  41.819  14.325
93428W        W65721  22.236  18.135  13.908
93429W        W65722  18.651  44.850  12.040
93430W        W65723  37.352  14.241   3.713
93431W        W65724  29.944  43.937   2.324
93432W        W65725  36.544  39.433  11.981
93433W        W65726  28.143   4.286  10.413
93434W        W65727  22.694  20.124  14.315
93435W        W65728  18.067  44.378   2.673
93436W        W65729  23.614  32.492  12.933
93437W        W65730  44.286  12.686  10.915
93438W        W65731  17.061   8.758   2.689
93439W        W65732  23.726  33.453   3.776
93440W        W65733   8.174  44.325   0.445
93441W        W65734  11.202  17.778   4.793
93442W        W65735  20.242  34.939   1.769
93443W        W65736  33.522   9.274   4.737
93444W        W65737  31.113   0.292   0.397
93445W        W65738  12.612  38.894  11.119
93446W        W65739  20.721  24.050  14.956
93447W        W65740  29.430  18.291  14.432
93448W        W65741  23.068  22.576  11.979
93449W        W65742   2.328   5.737   1.783
93450W        W65743  27.187  20.056   2.832
93451W        W65744  12.693  19.738   0.326
93452W        W65745  39.463  28.176   0.327
93453W        W65746  43.016   9.377   1.910
93454W        W65747   4.865  21.258  10.503
93455W        W65748  29.965   4.244   1.720
93456W        W65749  20.765  16.277  12.027
93457W        W65750  34.917  31.974   3.813
93458W        W65751  14.119  22.073   2.789
93459W        W65752  30.578  34.047  13.475
93460W        W65753   5.313   3.334   2.717
93461W        W65754   6.851  39.904   0.921
93462W        W65755  29.447  18.607  12.966
93463W        W65756  42.462  42.838   4.305
93464W        W65757  25.182   5.246  14.813
93465W        W65758  37.570  37.527  11.572
93466W        W65759   8.670   1.329   3.685
93467W        W65760  34.384  28.545  14.513
93468W        W65761   6.282  32.914  14.973
93469W        W65762   8.326  40.015  12.900
93470W        W65763  36.560  28.152   5.188
93471W        W65764  26.541  28.473  13.948
93472W        W65765  44.335  18.185   4.188
93473W        W65766  14.253  29.438   2.886
93474W        W65767  11.807   4.236  12.477
93475W        W65768  20.738  16.302  12.545
93476W        W65769   4.805   9.388   1.932
93477W        W65770  15.325   2.355  11.467
93478W        W65771  26.688   7.273  13.495
93479W        W65772  40.461   4.741   0.857
93480W        W65773  41.413  23.205   0.871
93481W        W65774  11.175  35.522  14.461
93482W        W65775   2.733  10.788   0.389
93483W        W65776   6.417  22.165   1.713
93484W        W65777  30.960  27.519   3.841
93485W        W65778   6.194  11.642   1.446
93486W        W65779  23.205  44.496  12.025
93487W        W65780   0.459   5.254   1.734
93488W        W65781  29.544  27.942  11.429
93489W        W65782  10.708  11.773   3.667
93490W        W65783  43.017  22.101  13.400
93491W        W65784   2.828  39.992   4.269
93492W        W65785  40.845  19.721   4.283
93493W        W65786  31.029   8.898   3.342
93494W        W65787  43.015  35.100   0.421
93495W        W65788  24.568  11.742  14.337
93496W        W65789  17.617  43.784   2.689
93497W        W65790  12.625   3.909   1.402
93498W        W65791  27.023  35.515   4.664
93499W        W65792   3.872  25.681   1.911
93500W        W65793  23.563   1.262  10.525
93501W        W65794  43.361  28.494   3.385
93502W        W65795  37.964  11.266  11.603
93503W        W65796  27.133  24.977  11.121
93504W        W65797  34.103  42.333  11.068
93505W        W65798  44.282  19.543  11.075
93506W        W65799  11.140   7.314  11.095
93507W        W65800  17.657   8.289   0.476
93508W        W65801  19.146  27.029   3.743
93509W        W65802   4.326  35.383  10.599
93510W        W65803   0.913  11.204  11.535
93511W        W65804  38.831  11.657  14.358
93512W        W65805  31.987   7.734  11.111
93513W        W65806  37.421  18.062  12.016
93514W        W65807  16.801  25.667   2.873
93515W        W65808   3.845  30.099   3.638
93516W        W65809  39.357  31.531   0.943
93517W        W65810  21.194  20.610  12.536
93518W        W65811   3.426  22.717   4.323
93519W        W65812  17.209  40.505  14.513
93520W        W65813   2.314  20.623   4.760
93521W        W65814   6.315  35.516  13.504
93522W        W65815  24.129  37.509  12.526
93523W        W65816  10.786   0.965  12.887
93524W        W65817  34.381   6.370   4.192
93525W        W65818  34.513  38.002  10.612
93526W        W65819  37.059  30.927  13.049
93527W        W65820  28.959  25.111   2.384
93528W        W65821  35.370  41.528   1.236
93529W        W65822   3.266  39.441  12.361
93530W        W65823  37.981   3.451   5.127
93531W        W65824  28.606   7.765  14.942
93532W        W65825  37.429  14.304   1.416
93533W        W65826  31.446   4.256   3.805
93534W        W65827  25.216  33.569   0.951
93535W        W65828  34.496   6.856  14.993
93536W        W65829  20.769  26.967   2.350
93537W        W65830  43.295  33.982   2.857
93538W        W65831   3.299  29.009   3.147
93539W        W65832  32.903  15.165  12.011
93540W        W65833  30.549  30.037  13.855
93541W        W65834   9.260  39.380   1.323
93542W        W65835  21.035  41.986  12.939
93543W        W65836  26.528  11.817  14.422
93544W        W65837  13.622  18.110   0.471
93545W        W65838   7.819  23.678   3.193
93546W        W65839  28.989  37.082   2.373
93547W        W65840  22.136  14.813   4.819
93548W        W65841  21.160  39.908   1.740
93549W        W65842  26.042   0.324  14.945
93550W        W65843  44.878   3.832   0.906
93551W        W65844   0.463  27.133   4.158
93552W        W65845  18.194  43.996   3.282
93553W        W65846  21.165   6.424   1.752
93554W        W65847  12.752   1.461   3.702
93555W        W65848  36.927  27.941   3.834
93556W        W65849   7.875   8.781  11.921
93557W        W65850   9.765  13.203   2.701
93558W        W65851   8.263  10.730   2.865
93559W        W65852  36.902  30.613   4.273
93560W        W65853  41.298  14.688   4.674
93561W        W65854  40.845  42.495  14.382
93562W        W65855  41.796  38.014   4.631
93563W        W65856  16.630  17.121   3.176
93564W        W65857  40.969  31.555  14.299
93565W        W65858  11.338  10.282   1.721
93566W        W65859  10.731  20.523   1.931
93567W        W65860  29.010   6.344  14.872
93568W        W65861  10.207  33.612  11.104
93569W        W65862  29.122   6.792   3.683
93570W        W65863  26.559  33.910  14.292
93571W        W65864  42.900  39.976  11.039
93572W        W65865  24.161  43.815   1.905
93573W        W65866   4.296  22.602  11.022
93574W        W65867  20.671  35.373   1.920
93575W        W65868  26.635  12.782  11.594
93576W        W65869   4.223   4.361  12.071
93577W        W65870  31.565   4.333  11.905
93578W        W65871   7.839  30.127   1.271
93579W        W65872  14.335   5.773   1.215
93580W        W65873  14.156  26.539   1.437
93581W        W65874  22.040  12.831   2.258
93582W        W65875  11.747  19.044   1.874
93583W        W65876  10.304   1.746   0.418
93584W        W65877   2.367  39.560  11.957
93585W        W65878  21.556   8.314   1.773
93586W        W65879  39.521   8.305   2.293
93587W        W65880   3.366  29.539  13.924
93588W        W65881  29.979   8.839   0.385
93589W        W65882  30.510  21.711  13.921
93590W        W65883   2.933  26.634   3.378
93591W        W65884   3.426  28.032  10.490
93592W        W65885  10.695   4.716   9.944
93593W        W65886  44.401  23.540   2.866
93594W        W65887  18.259  26.507   2.323
93595W        W65888  24.194  14.156   4.336
93596W        W65889  35.539  26.488  10.629
93597W        W65890  40.939  44.834   1.815
93598W        W65891  12.174   8.246   4.711
93599W        W65892  27.607   4.789  11.872
93600W        W65893  43.399  36.002  11.898
93601W        W65894  19.690  16.685  14.466
93602W        W65895  17.218   6.212   1.817
93603W        W65896   3.856   9.208   2.853
93604W        W65897   9.662  20.207   0.353
93605W        W65898  33.911  27.623  14.471
93606W        W65899   8.725  11.761  13.850
93607W        W65900  30.148  24.596  14.368
93608W        W65901  30.088   8.254  12.910
93609W        W65902  12.653  39.347  13.509
93610W        W65903  17.651  44.758  11.441
93611W        W65904  11.813   5.763  11.997
93612W        W65905  14.689  36.423   1.749
93613W        W65906  16.165   6.413   0.751
93614W        W65907  44.857  13.728  14.457
93615W        W65908  29.523  21.731   5.307
93616W        W65909  39.842  24.611  12.004
93617W        W65910   9.695  28.155  12.934
93618W        W65911  12.743  35.550   1.391
93619W        W65912  40.387   5.276  14.436
93620W        W65913  39.441  39.353  10.513
93621W        W65914  22.167  33.469   1.859
93622W        W65915   9.229   7.207   4.276
93623W        W65916  36.976   4.322   1.898
93624W        W65917  36.537  34.003  14.811
93625W        W65918  32.603  29.163   0.476
93626W        W65919  23.036  27.665  13.541
93627W        W65920  40.815   1.828   4.605
93628W        W65921  33.939  11.211  10.890
93629W        W65922  17.719   0.800   0.778
93630W        W65923  43.017   6.895   0.929
93631W        W65924  20.135   8.378   3.313
93632W        W65925  22.646  30.508  14.911
93633W        W65926  27.193   9.681   4.346
93634W        W65927  29.961  16.590  12.542
93635W        W65928  19.540   9.886  14.966
93636W        W65929  11.809   4.921   3.286
93637W        W65930   6.848  15.095   3.697
93638W        W65931  11.295  34.032  13.397
93639W        W65932  30.059  32.450   3.160
93640W        W65933  10.757  18.627  14.284
93641W        W65934  24.675  20.634   2.831
93642W        W65935  16.261   9.219  13.333
93643W        W65936  13.775   3.450  13.357
93644W        W65937  37.547  21.635  14.989
93645W        W65938   4.409  34.888   2.259
93646W        W65939  15.712  44.966  11.457
93647W        W65940  41.297  14.272   4.672
93648W        W65941  14.292  31.620   1.309
93649W        W65942  19.646  28.620  11.040
93650W        W65943  17.750   8.342  11.054
93651W        W65944  39.433  36.867  13.979
93652W        W65945  12.250  24.081   3.758
93653W        W65946  25.122  40.525  14.982
93654W        W65947  31.041  19.683  10.972
93655W        W65948  26.140  23.184   9.444
93656W        W65949  42.403  39.465   1.751
93657W        W65950  22.084   3.784   1.844
93658W        W65951   6.705  17.199  10.505
93659W        W65952   9.803  16.186   3.337
93660W        W65953   7.273  24.492   4.769
93661W        W65954  25.185  39.034  11.002
93662W        W65955   8.237  15.784   2.368
93663W        W65956  29.620  39.838  13.398
93664W        W65957  19.625  42.904  11.953
93665W        W65958  16.209  11.313  11.524
93666W        W65959  33.418   5.778   0.246
93667W        W65960  16.728   5.723  14.966
93668W        W65961  25.982  13.274  13.003
93669W        W65962  20.072  22.642  10.006
93670W        W65963  37.385  43.789   2.196
93671W        W65964  24.019  44.896   0.826
93672W        W65965  35.089  42.286   3.314
93673W        W65966   7.853  24.554  11.537
93674W        W65967  34.614   3.261   5.162
93675W        W65968  36.502  24.600  14.350
93676W        W65969   8.736  11.255   3.659
93677W        W65970  14.284   3.825   3.720
93678W        W65971   9.706  16.614   1.347
93679W        W65972  40.910  44.306   3.668
93680W        W65973  24.526  15.688   1.311
93681W        W65974  33.131  42.522   3.199
93682W        W65975   9.284  41.342  14.388
93683W        W65976   5.236  39.021   1.436
93684W        W65977   4.885   1.394   4.661
93685W        W65978   3.880   1.352  11.055
93686W        W65979  18.718  12.279   4.190
93687W        W65980  41.510  15.274  12.879
93688W        W65981  42.027   7.719   1.924
93689W        W65982  38.872  22.010  13.954
93690W        W65983  22.696  17.288   1.325
93691W        W65984  30.102  35.977   4.698
93692W        W65985  44.933  14.122   3.632
93693W        W65986  15.748   8.226  11.544
93694W        W65987   0.352  18.759   1.337
93695W        W65988   1.823   9.256   0.317
93696W        W65989  25.676  20.232  13.884
93697W        W65990   7.318  15.774   2.224
93698W        W65991  14.688  29.061  12.420
93699W        W65992  17.186  38.501  14.294
93700W        W65993  35.489   2.384  11.565
93701W        W65994  28.624  16.207   0.340
93702W        W65995   1.775  14.111  13.827
93703W        W65996  22.648  23.705  13.843
93704W        W65997  22.717  21.682   4.695
93705W        W65998  13.844  28.505   1.746
93706W        W65999  24.086  41.376  10.091
93707W        W66000  25.526  37.354   5.111
93708W        W66001  23.559  10.202  10.627
93709W        W66002  40.514  19.266   3.243
93710W        W66003  27.493  11.349   4.329
93711W        W66004   3.880  29.637   0.738
93712W        W66005  21.030   1.829  11.856
93713W        W66006  21.604  12.304   3.866
93714W        W66007   6.351  34.001   3.181
93715W        W66008  36.539  42.375  14.984
93716W        W66009  22.566  22.061  12.398
93717W        W66010  33.382  36.089   5.097
93718W        W66011  39.446  13.348  14.886
93719W        W66012  16.810  33.478  12.848
93720W        W66013   6.232  11.811   3.823
93721W        W66014  26.120  29.499  14.484
93722W        W66015  23.087   5.860   4.348
93723W        W66016  16.088  19.630   5.317
93724W        W66017  15.579  27.178  10.554
93725W        W66018  16.637  17.161  10.489
93726W        W66019  44.982  24.017  14.884
93727W        W66020   0.788  15.773  11.421
93728W        W66021  10.833  23.222  11.437
93729W        W66022  34.932  26.607  14.332
93730W        W66023  42.521   7.378  12.925
93731W        W66024   3.885   6.307   1.279
93732W        W66025   9.216  11.680   1.375
93733W        W66026  24.699  31.964  11.606
93734W        W66027  30.527   0.798   3.257
93735W        W66028  36.499  23.179  12.450
93736W        W66029  34.935  26.464   0.935
93737W        W66030  19.139  11.693  12.852
93738W        W66031  24.029  38.046   4.127
93739W        W66032  33.898  26.075   3.313
93740W        W66033  13.260   2.444   0.944
93741W        W66034  42.905  31.538  12.018
93742W        W66035  22.079  27.094   0.457
93743W        W66036  15.254  25.208  13.037
93744W        W66037  42.311   5.327   4.258
93745W        W66038  34.566   0.488   3.149
93746W        W66039   3.343  21.589  11.410
93747W        W66040  37.480   3.747   5.253
93748W        W66041   7.260  16.099   2.827
93749W        W66042  19.625  44.794  13.312
93750W        W66043  17.241  15.273  13.055
93751W        W66044  32.113  33.413   4.159
93752W        W66045  42.842   9.820   3.187
93753W        W66046  28.145  18.228  12.037
93754W        W66047   6.770  36.920  12.937
93755W        W66048  41.846  37.894  10.414
93756W        W66049  19.629  10.343   3.681
93757W        W66050  13.722   6.783  11.391
93758W        W66051  24.043  21.195  13.840
93759W        W66052   0.268  41.475   0.350
93760W        W66053  33.612   3.354   4.647
93761W        W66054  24.559  22.230  14.029
93762W        W66055  35.433  23.092   1.347
93763W        W66056  16.256  17.747  12.451
93764W        W66057   6.202   0.802   3.246
93765W        W66058  20.694  21.727   1.741
93766W        W66059  30.600  24.688   4.703
93767W        W66060  21.555  30.423  11.968
93768W        W66061   8.384  37.926  13.436
93769W        W66062  13.166  36.348  11.919
93770W        W66063   0.296  28.072  14.784
93771W        W66064   5.846  14.335   3.776
93772W        W66065  37.966  21.063   0.362
93773W        W66066  42.974   6.275  12.870
93774W        W66067  23.654  24.122  10.621
93775W        W66068  15.747   7.250   1.262
93776W        W66069   2.346  12.678  11.516
93777W        W66070  21.083  23.111   4.290
93778W        W66071  19.281  32.112   0.416
93779W        W66072  25.531  25.211  14.437
93780W        W66073  29.653  11.862   0.429
93781W        W66074  36.381  25.504  10.986
93782W        W66075  22.251   2.819   1.931
93783W        W66076  38.472   3.923  12.514
93784W        W66077  16.759  23.090   3.250
93785W        W66078  10.377  39.829  10.551
93786W        W66079  34.445  41.840   4.633
93787W        W66080  11.858   0.965   2.235
93788W        W66081   7.415  37.365   3.845
93789W        W66082  40.511   3.720   4.286
93790W        W66083  41.849   1.328   2.743
93791W        W66084  28.500  37.475   2.787
93792W        W66085  22.745  27.994  12.526
93793W        W66086   7.375  14.609   4.334
93794W        W66087  20.179   7.258  11.959
93795W        W66088   7.832  17.208   2.685
93796W        W66089  31.433  19.739  10.938
93797W        W66090   3.777  10.708   2.822
93798W        W66091  19.174   6.412   0.951
93799W        W66092  39.910   7.383  14.977
93800W        W66093  22.134  19.560   3.304
93801W        W66094  14.731  15.765  13.504
93802W        W66095  33.488  23.061  12.446
93803W        W66096  17.600  35.036  14.407
93804W        W66097  44.941  27.570  12.468
93805W        W66098  43.001  19.686  11.591
93806W        W66099  27.052   6.836   4.240
93807W        W66100  42.434  24.696  13.017
93808W        W66101  20.758  43.286   4.313
93809W        W66102   1.381  42.923   3.694
93810W        W66103  25.474  17.623   0.375
93811W        W66104  36.053  26.052   2.804
93812W        W66105  27.184  23.651   3.681
93813W        W66106  40.348   4.205  13.377
93814W        W66107   8.328  26.004  13.055
93815W        W66108  14.740  14.256  12.578
93816W        W66109  16.710  31.070   4.609
93817W        W66110   1.928  21.166  11.104
93818W        W66111  26.480   4.348  12.033
93819W        W66112  30.036  19.122  12.049
93820W        W66113   1.888  17.062   1.778
93821W        W66114  11.814  26.104  14.920
93822W        W66115   3.888  12.166  14.772
93823W        W66116  22.701  25.968   3.706
93824W        W66117  24.662  13.808   0.870
93825W        W66118   8.279   5.386   3.810
93826W        W66119  12.807  38.077  14.352
93827W        W66120  44.979  25.474  11.116
93828W        W66121  16.111  25.964   3.641
93829W        W66122   6.229   1.847  14.988
93830W        W66123  20.256  28.186  12.523
93831W        W66124   3.227   6.362  12.420
93832W        W66125  34.581  20.170  13.497
93833W        W66126  25.621  16.111   4.772
93834W        W66127  22.579  44.410   0.459
93835W        W66128  30.634  40.924  11.055
93836W        W66129   4.245   5.291   2.735
93837W        W66130   3.442  29.024   0.330
93838W        W66131  17.656  33.097  12.421
93839W        W66132  40.802  10.703  11.049
93840W        W66133  44.795   8.352  13.857
93841W        W66134  33.015   7.199   3.811
93842W        W66135  25.514  11.191   4.800
93843W        W66136  22.599   5.890  11.938
93844W        W66137  20.053  12.647   2.334
93845W        W66138  22.571  40.453  13.003
93846W        W66139   6.872   9.260  10.461
93847W        W66140  12.160  38.922  13.424
93848W        W66141  14.188   3.935  12.847
93849W        W66142  14.332   0.947   1.314
93850W        W66143   5.838  31.430   2.677
93851W        W66144  29.648   1.866  13.450
93852W        W66145  34.102  26.493   0.465
93853W        W66146  35.473  26.175  11.554
93854W        W66147  38.042  11.359   3.678
93855W        W66148  21.251   9.854  14.431
93856W        W66149  30.069  30.059  10.901
93857W        W66150  15.319  31.472   2.240
93858W        W66151  35.373  28.041  10.613
93859W        W66152  40.026  14.703   0.894
93860W        W66153  42.515   3.442   1.710
93861W        W66154  44.428  30.058  12.369
93862W        W66155   3.849  43.329  13.878
93863W        W66156   8.739  12.327  12.442
93864W        W66157  20.109  19.083  12.091
93865W        W66158  25.155   9.800  11.481
93866W        W66159  27.547  13.754   4.728
93867W        W66160   4.803  35.430  11.865
93868W        W66161  44.991  44.842   4.127
93869W        W66162  27.562  43.837   1.418
93870W        W66163  38.907  28.986   0.812
93871W        W66164   8.892   0.394  13.007
93872W        W66165  41.985  32.476   1.787
93873W        W66166  44.937  22.251  11.095
93874W        W66167  16.576  15.233  10.902
93875W        W66168  40.004  25.074   0.929
93876W        W66169  26.002  16.724  13.040
93877W        W66170  33.123   2.253  12.430
93878W        W66171   6.878  28.629   4.642
93879W        W66172  34.927  17.622  13.860
93880W        W66173  28.542  31.553   0.256
93881W        W66174  11.164  10.341   4.225
93882W        W66175  33.481  32.892  13.405
93883W        W66176  32.572  39.988   4.230
93884W        W66177  43.898  26.649   3.802
93885W        W66178  34.948  44.337  12.512
93886W        W66179  36.098  14.107   3.733
93887W        W66180  37.577  29.669  14.328
93888W        W66181  40.508  18.602  10.987
93889W        W66182   2.312  14.740   1.225
93890W        W66183  36.561  14.813   1.852
93891W        W66184  34.030  32.029  10.635
93892W        W66185   9.263  14.126   2.213
93893W        W66186  14.595  37.374  14.821
93894W        W66187  38.325  25.703   0.285
93895W        W66188   6.235  43.942   2.828
93896W        W66189   0.476  44.001  11.593
93897W        W66190  15.278   4.771   0.937
93898W        W66191  15.677  23.196   2.850
93899W        W66192  42.781   0.336  12.409
93900W        W66193  24.662  15.681  10.984
93901W        W66194  12.813  18.760  13.340
93902W        W66195  25.125  13.320  11.994
93903W        W66196  21.567  34.962   4.320
93904W        W66197  36.899   0.879  13.387
93905W        W66198  21.578  19.585   1.891
93906W        W66199   9.279  42.921  12.382
93907W        W66200  26.606  13.245   3.257
93908W        W66201   1.801  15.587   9.932
93909W        W66202  27.054   7.805   2.305
93910W        W66203  36.997  21.581   2.789
93911W        W66204  15.670   3.806   1.401
93912W        W66205  40.415  31.410  14.915
93913W        W66206  13.726  43.796   0.789
93914W        W66207  34.904   0.465   3.863
93915W        W66208  34.401  13.616   1.886
93916W        W66209  17.083  32.501  12.406
93917W        W66210  32.472  30.589   1.908
93918W        W66211  44.402  15.149   0.335
93919W        W66212  26.984  43.946  11.940
93920W        W66213  34.972   2.306  14.494
93921W        W66214  13.325  42.836   4.147
93922W        W66215  30.074  18.211   4.746
93923W        W66216  10.705  25.111   1.840
93924W        W66217   6.322   8.655   1.928
93925W        W66218   5.294  25.167   1.322
93926W        W66219   4.792  24.138   0.966
93927W        W66220  41.294   3.828  10.428
93928W        W66221  36.855  10.187  10.578
93929W        W66222  38.472  39.018   2.681
93930W        W66223  43.314  40.920   4.622
93931W        W66224  18.271  19.665   2.860
93932W        W66225   5.349  41.519  13.307
93933W        W66226  42.328  21.535   4.275
93934W        W66227  41.790  44.472  14.997
93935W        W66228  10.269  22.657  12.451
93936W        W66229  41.324  38.451   3.244
93937W        W66230   5.822  38.906   3.212
93938W        W66231  22.193  23.671   3.280
93939W        W66232  30.928  39.383   4.245
93940W        W66233  26.509   7.734  10.518
93941W        W66234  43.504  25.555   0.926
93942W        W66235   7.810  17.779   0.928
93943W        W66236  22.129  24.643   4.272
93944W        W66237  19.050  38.504  14.400
93945W        W66238  22.647  31.501  11.901
93946W        W66239  11.756  40.431   0.866
93947W        W66240  10.261  12.756  12.435
93948W        W66241  22.159   7.254  10.998
93949W        W66242   7.771  23.092   2.190
93950W        W66243  33.066   4.919   2.876
93951W        W66244  26.676  43.789  13.315
93952W        W66245  39.937  40.032   0.466
93953W        W66246  40.482  11.279  14.808
93954W        W66247  14.739  32.099  12.072
93955W        W66248  17.635  20.535  14.920
93956W        W66249  26.957  24.212   1.288
93957W        W66250   4.219  17.640   3.837
93958W        W66251  29.109  31.913  13.997
93959W        W66252  26.072  40.050   0.729
93960W        W66253  22.194  42.515   1.716
93961W        W66254  36.971  22.598  11.406
93962W        W66255   0.904  33.016  11.381
93963W        W66256  22.119  39.983  14.489
93964W        W66257  17.061   4.772   9.938
93965W        W66258   5.852  11.259   0.303
93966W        W66259  41.422  40.890  10.930
93967W        W66260  15.249  36.587   2.851
93968W        W66261  20.236  16.261   1.212
93969W        W66262  28.664   9.244  10.987
93970W        W66263  38.421  15.272   4.345
93971W        W66264   4.896   8.698  12.538
93972W        W66265  36.412  24.117  14.480
93973W        W66266  23.040  12.217  11.118
93974W        W66267   6.907  22.155  11.602
93975W        W66268  22.660   0.459   2.247
93976W        W66269  23.241   5.250  12.838
93977W        W66270  20.133   3.727   4.223
93978W        W66271  21.104   5.773   4.292
93979W        W66272   0.979   2.284   3.303
93980W        W66273  28.627  10.155  12.540
93981W        W66274  26.073   0.326   4.209
93982W        W66275  11.327  17.264   2.814
93983W        W66276  33.938  44.495   4.181
93984W        W66277   4.349  31.418   3.691
93985W        W66278  19.272  19.677   0.461
93986W        W66279  25.178  42.502  13.006
93987W        W66280  38.550  27.043  13.451
93988W        W66281  39.337   6.738  12.860
93989W        W66282   9.804  38.555  13.808
93990W        W66283   0.357  25.499  12.089
93991W        W66284  24.563  39.947   4.679
93992W        W66285   3.767  29.012  11.971
93993W        W66286   5.193   7.840   0.410
93994W        W66287  28.541  10.237  11.558
93995W        W66288  10.701  15.254  13.946
93996W        W66289  24.151  42.888  12.895
93997W        W66290  40.385  13.257  13.850
93998W        W66291  30.601  31.969   3.646
93999W        W66292   4.874  38.385  10.061
94000W        W66293   1.423  35.479  14.904
94001W        W66294   6.749   0.893  11.482
94002W        W66295   8.406  39.908  13.462
94003W        W66296   8.836  16.217  12.018
94004W        W66297  12.185  42.506   4.210
94005W        W66298  24.651  35.404  13.418
94006W        W66299  26.103   2.959   1.234
94007W        W66300  12.152  32.455   2.857
94008W        W66301  36.097  11.622  11.471
94009W        W66302  13.264  23.171  11.463
94010W        W66303   0.931  28.962  10.519
94011W        W66304  39.461   8.389   3.695
94012W        W66305  16.105  23.207  14.805
94013W        W66306  21.029  34.382  10.516
94014W        W66307   5.389  29.940   1.379
94015W        W66308  24.183  22.677   5.269
94016W        W66309  12.826  26.472   4.742
94017W        W66310   9.664  21.037   2.733
94018W        W66311  37.509  19.119  13.010
94019W        W66312   8.814  34.614   5.099
94020W        W66313  15.620  43.887   3.261
94021W        W66314  18.129  11.355   1.934
94022W        W66315  28.010  38.376  12.924
94023W        W66316  44.287  22.738  14.441
94024W        W66317  23.708  16.581  11.992
94025W        W66318   6.760  10.369  14.997
94026W        W66319  10.779  15.168   2.340
94027W        W66320   2.956  26.480   1.750
94028W        W66321  41.477  38.394  13.538
94029W        W66322   8.272  25.544  14.277
94030W        W66323   1.947  13.764  10.407
94031W        W66324  41.968  19.046   1.287
94032W        W66325  13.712   7.306   4.183
94033W        W66326  21.644   0.483  10.906
94034W        W66327   7.798  33.989  13.386
94035W        W66328   8.300   0.838   3.742
94036W        W66329  32.574  21.650  11.981
94037W        W66330  40.045  40.486  13.488
94038W        W66331  44.340   1.255  12.560
94039W        W66332  13.196   5.906  14.925
94040W        W66333   3.216  27.117   0.285
94041W        W66334  42.373  22.703  12.544
94042W        W66335   6.779   6.291  12.855
94043W        W66336  28.142  38.445  12.342
94044W        W66337  10.822  44.944  12.448
94045W        W66338  43.355  43.393  12.042
94046W        W66339  33.499   0.413   9.960
94047W        W66340  30.468   2.732   4.779
94048W        W66341  16.080   0.759  10.636
94049W        W66342   7.743  13.752   1.892
94050W        W66343  12.284  41.441   4.683
94051W        W66344  43.466   1.279  14.336
94052W        W66345  14.185  30.997   0.322
94053W        W66346  30.104  28.457  11.008
94054W        W66347  29.163  19.165  12.577
94055W        W66348  24.482  24.074  12.017
94056W        W66349  29.101  15.307  10.534
94057W        W66350  11.763  12.788  13.548
94058W        W66351  27.064   4.252   3.215
94059W        W66352  16.805  42.820  12.372
94060W        W66353  31.428  10.820  13.376
94061W        W66354  16.767  16.596   3.665
94062W        W66355  15.798  28.127   1.856
94063W        W66356   0.378   6.291   3.275
94064W        W66357  21.668  20.041  12.965
94065W        W66358  39.368  44.260   0.341
94066W        W66359  17.146  43.820  12.469
94067W        W66360  10.692  40.522  11.052
94068W        W66361  43.463  23.988  11.873
94069W        W66362  40.993  29.098   2.662
94070W        W66363  28.643   5.379   0.246
94071W        W66364   4.424  31.561   4.652
94072W        W66365  42.490  32.625  12.548
94073W        W66366  25.695  22.673  11.459
94074W        W66367  14.606  15.769  14.984
94075W        W66368  27.101  38.337  14.980
94076W        W66369  36.942  16.624  11.566
94077W        W66370  28.671  20.634  10.507
94078W        W66371  34.933  28.072  12.830
94079W        W66372  11.291  36.848  12.552
94080W        W66373  31.073  26.128   3.157
94081W        W66374  10.282  30.929   4.633
94082W        W66375  29.449  13.221  14.844
94083W        W66376   3.893  24.565  11.117
94084W        W66377  39.377   6.321  14.306
94085W        W66378  32.956  20.678  14.931
94086W        W66379  10.187  10.218   4.730
94087W        W66380  44.784  40.957  12.046
94088W        W66381   5.233   2.403   4.831
94089W        W66382  29.166  11.628   3.843
94090W        W66383   3.406  11.205   2.884
94091W        W66384  16.171  19.766  11.917
94092W        W66385  12.775  15.675   3.695
94093W        W66386  13.629   2.360  14.333
94094W        W66387  42.365  10.776   1.283
94095W        W66388   3.810  34.388   3.850
94096W        W66389  24.665   6.748  13.413
94097W        W66390  23.102   4.719  12.535
94098W        W66391  26.003  18.160  12.465
94099W        W66392  28.939  24.506  13.467
94100W        W66393  12.155  34.975  10.112
94101W        W66394  17.113  37.579  12.017
94102W        W66395  30.582   8.187  14.278
94103W        W66396  14.763  12.826  11.079
94104W        W66397  30.988  17.281  14.442
94105W        W66398  41.407  32.997  12.942
94106W        W66399   1.966   1.378   4.598
94107W        W66400  13.245   4.760  13.318
94108W        W66401   6.720  38.973  14.355
94109W        W66402  27.105  15.580   0.359
94110W        W66403  28.632  27.556   3.232
94111W        W66404  23.984  43.815  14.406
94112W        W66405  25.141   6.316   0.793
94113W        W66406   3.774  36.494  11.127
94114W        W66407   5.732  42.783  12.045
94115W        W66408  24.670   3.265   3.227
94116W        W66409   6.199  32.453   4.747
94117W        W66410   8.273  43.839  14.805
94118W        W66411  43.785  28.471  14.831
94119W        W66412  35.577  22.615  13.475
94120W        W66413   1.259  17.795  14.447
94121W        W66414  21.113  16.260  13.962
94122W        W66415   5.381  11.255   1.883
94123W        W66416  26.485  19.534  14.472
94124W        W66417   3.946  10.197  10.607
94125W        W66418   5.726   9.797   4.695
94126W        W66419  27.540  29.946  11.402
94127W        W66420  27.474  30.967   2.344
94128W        W66421  18.678  21.669   1.310
94129W        W66422  12.195  26.053  10.948
94130W        W66423  31.121   5.915  10.117
94131W        W66424   3.425   1.270  11.530
94132W        W66425  19.666  21.120  14.361
94133W        W66426  13.727  12.791   1.918
94134W        W66427   6.306  16.608  12.952
94135W        W66428  26.957  26.605  10.031
94136W        W66429  38.863  32.565  12.915
94137W        W66430   6.338  41.979  12.868
94138W        W66431  32.532  21.640   1.433
94139W        W66432  11.781  28.014   2.401
94140W        W66433  18.090  38.462  12.057
94141W        W66434  18.077  17.200   4.784
94142W        W66435   7.327  35.554  13.536
94143W        W66436  21.657  13.600   0.741
94144W        W66437   2.944  37.569   1.836
94145W        W66438  10.647   2.952  10.484
94146W        W66439  24.580  34.586   2.668
94147W        W66440  43.978  33.428   2.350
94148W        W66441  14.601   1.410   2.224
94149W        W66442  11.314  31.490   4.331
94150W        W66443  33.006  13.239  13.003
94151W        W66444  43.939   4.815   1.929
94152W        W66445  37.869  28.157  12.026
94153W        W66446  35.497   7.229   2.415
94154W        W66447  35.974  37.855  13.548
94155W        W66448  13.288  19.590   0.342
94156W        W66449  40.916  38.057   3.346
94157W        W66450  37.085  18.172   1.224
94158W        W66451  40.314  28.089  14.022
94159W        W66452  23.648   0.766  11.439
94160W        W66453  43.516  17.157   0.343
94161W        W66454  22.076  29.428   0.857
94162W        W66455  19.248  40.322   2.362
94163W        W66456  32.587  29.070   3.694
94164W        W66457  41.841  25.078  13.810
94165W        W66458   9.734  34.072   5.624
94166W        W66459  31.623  36.946  11.544
94167W        W66460  40.911  32.967   3.357
94168W        W66461  39.891  33.087  14.424
94169W        W66462  31.430  16.806  11.414
94170W        W66463  36.593  44.443   1.884
94171W        W66464   7.372   3.219  10.516
94172W        W66465   9.707   3.292  14.386
94173W        W66466  20.040  32.570   9.963
94174W        W66467   7.667   3.302   2.866
94175W        W66468  11.360   8.242  13.009
94176W        W66469  22.549  35.050  12.896
94177W        W66470  24.044  44.331  12.400
94178W        W66471  23.047  36.841  12.495
94179W        W66472  29.633   3.279  14.780
94180W        W66473  36.501  43.347   0.355
94181W        W66474  34.881  24.704  12.926
94182W        W66475  40.050  27.036   3.806
94183W        W66476   7.344  37.077  11.565
94184W        W66477  17.215  42.907   2.729
94185W        W66478  40.517   5.885   4.679
94186W        W66479  28.631  39.395  13.952
94187W        W66480  25.116   4.247   3.234
94188W        W66481   3.719  12.850  12.843
94189W        W66482  18.712  27.679   3.631
94190W        W66483   8.362   0.805  14.767
94191W        W66484  39.016  31.030   1.226
94192W        W66485  37.935  39.831   2.314
94193W        W66486  19.152  10.279  13.898
94194W        W66487  30.052  30.158   2.383
94195W        W66488   2.962  16.803   3.320
94196W        W66489  31.647  14.169  12.972
94197W        W66490  41.896  39.854   4.311
94198W        W66491   0.267  15.269  10.892
94199W        W66492   5.833  37.352  12.935
94200W        W66493  42.933  32.572  14.779
94201W        W66494  28.993  11.842  11.540
94202W        W66495  12.648   7.354  13.381
94203W        W66496  22.014  16.586  11.946
94204W        W66497  32.592   7.204   2.290
94205W        W66498  25.473  19.157  14.998
94206W        W66499  33.901  38.494  10.636
94207W        W66500  17.602  43.427   0.361
94208W        W66501  26.660  29.643  10.515
94209W        W66502  38.999  36.068  12.526
94210W        W66503   0.788  29.171  13.886
94211W        W66504  14.606  35.010  10.411
94212W        W66505  21.702  10.288   3.165
94213W        W66506  42.807  30.614  13.442
94214W        W66507  31.495   5.366  12.552
94215W        W66508   3.875  35.892  13.540
94216W        W66509  34.592  20.566  14.333
94217W        W66510   2.260   6.806  13.032
94218W        W66511   7.332   6.872   0.243
94219W        W66512  29.473  37.042  13.987
94220W        W66513  11.332   3.877   3.314
94221W        W66514  42.026  39.833   4.743
94222W        W66515   5.260   4.214   1.293
94223W        W66516   4.360   7.261  13.898
94224W        W66517  32.393  13.140  12.382
94225W        W66518  20.047  16.079  11.999
94226W        W66519  18.167  18.059   2.718
94227W        W66520  33.885  42.921  11.000
94228W        W66521   4.407  41.506   4.318
94229W        W66522  33.095  19.179  14.514
94230W        W66523  23.490  18.252  10.551
94231W        W66524  21.649  33.110   1.389
94232W        W66525  33.563  32.908  11.971
94233W        W66526  23.195  31.596   1.377
94234W        W66527   7.706  37.537  11.857
94235W        W66528  18.179  33.474  11.943
94236W        W66529  23.033  17.234   2.291
94237W        W66530  18.725  34.022  10.553
94238W        W66531  24.699   5.789  10.550
94239W        W66532  30.047  34.993  13.410
94240W        W66533  12.205  27.162  10.514
94241W        W66534  33.000  15.179   3.265
94242W        W66535  34.395  31.079   4.207
94243W        W66536  26.139  15.218   3.680
94244W        W66537  43.021  12.253  13.968
94245W        W66538  22.089   4.700   3.385
94246W        W66539  22.709  25.970  13.534
94247W        W66540  42.408  23.638  14.289
94248W        W66541  21.537  32.454   5.210
94249W        W66542   7.216  13.705  12.507
94250W        W66543  43.444  24.204   1.351
94251W        W66544  39.358  43.493  11.892
94252W        W66545   8.180  12.248   1.886
94253W        W66546  38.948   3.317   3.272
94254W        W66547   1.845  37.554  12.887
94255W        W66548  38.971   4.305  14.466
94256W        W66549  24.687  31.417  11.418
94257W        W66550   0.308   9.848  11.013
94258W        W66551  41.444  29.164  14.772
94259W        W66552  17.792  30.968  13.039
94260W        W66553  19.267  43.410   0.449
94261W        W66554  27.078   7.288  10.448
94262W        W66555  24.089  39.880  14.513
94263W        W66556  20.083  23.021   9.982
94264W        W66557  43.399   0.883   1.920
94265W        W66558   6.733  34.902  10.076
94266W        W66559   5.791  37.890   0.921
94267W        W66560  34.475   1.312  11.877
94268W        W66561   1.904  42.007  14.432
94269W        W66562  19.184   4.402  10.444
94270W        W66563  32.479  29.022  13.830
94271W        W66564  35.108  31.982   1.729
94272W        W66565  34.996  31.611  11.557
94273W        W66566  11.648  32.559  13.902
94274W        W66567  23.576  41.867  14.815
94275W        W66568   0.846  19.608  13.804
94276W        W66569  12.854  15.726  11.609
94277W        W66570  21.620  30.438  14.302
94278W        W66571  41.999  42.000   0.276
94279W        W66572  41.424   1.347   2.299
94280W        W66573  42.424  10.282  12.890
94281W        W66574  20.598  26.206   3.248
94282W        W66575  30.533  28.977   1.324
94283W        W66576  43.470  19.610  12.548
94284W        W66577  11.691  34.555  14.371
94285W        W66578  35.501   0.854   4.338
94286W        W66579  30.923  38.390  11.550
94287W        W66580  17.192  13.263   1.401
94288W        W66581  20.267  24.667   3.715
94289W        W66582  31.558  38.490   0.483
94290W        W66583   3.879  10.833   4.284
94291W        W66584  10.207  16.737   2.814
94292W        W66585  23.570  18.647   1.274
94293W        W66586  21.033   8.376   4.307
94294W        W66587  20.132  32.569  11.923
94295W        W66588  10.847  22.112  11.973
94296W        W66589  14.717  44.869   2.254
94297W        W66590  20.264  23.492  10.039
94298W        W66591   3.861  22.083  14.405
94299W        W66592  27.591   8.734  14.320
94300W        W66593   8.807  41.339  14.776
94301W        W66594  14.785  32.958  10.891
94302W        W66595  43.388  28.134  10.007
94303W        W66596   4.854  33.542  14.028
94304W        W66597   4.350   5.817  12.490
94305W        W66598   9.770  37.007   1.297
94306W        W66599  39.859   7.716   4.222
94307W        W66600  34.900  21.119  12.538
94308W        W66601  29.955   1.813   2.389
94309W        W66602  27.654  33.476   0.869
94310W        W66603   0.891   3.804   1.422
94311W        W66604  16.176  17.737   4.745
94312W        W66605  43.903  27.941   3.859
94313W        W66606  31.105   4.727   4.304
94314W        W66607  36.384  40.951  13.816
94315W        W66608  39.421   4.248   1.726
94316W        W66609  22.714  37.045   1.707
94317W        W66610   5.884  40.017  11.913
94318W        W66611  35.102  13.827   3.714
94319W        W66612  24.206  35.039   3.799
94320W        W66613   8.199  18.196   0.380
94321W        W66614  28.980  17.099  12.472
94322W        W66615  41.974   5.255   3.842
94323W        W66616  38.449   4.707   4.206
94324W        W66617  24.671  40.433   3.215
94325W        W66618  24.534  14.780  13.360
94326W        W66619   1.789  39.347  14.771
94327W        W66620  22.067  43.956   4.749
94328W        W66621  21.542   5.307   2.210
94329W        W66622  31.554  44.499   3.786
94330W        W66623  44.891  27.611   1.214
94331W        W66624   3.377  22.124   0.885
94332W        W66625  37.078  30.453  11.518
94333W        W66626  13.736   6.786  12.884
94334W        W66627  39.950  22.137  14.895
94335W        W66628  39.813   9.815  14.873
94336W        W66629   6.367  33.422  12.926
94337W        W66630  38.956  21.647   1.340
94338W        W66631  29.133  27.053   4.314
94339W        W66632   0.404   6.680  10.454
94340W        W66633   9.720  19.590   1.783
94341W        W66634  38.918  26.007   2.880
94342W        W66635  34.947  13.741   2.745
94343W        W66636   6.400  43.765   3.667
94344W        W66637  19.561  33.963   4.270
94345W        W66638  16.087  24.053   0.438
94346W        W66639  38.354  27.964   3.260
94347W        W66640   2.935  35.493  11.530
94348W        W66641  17.147   6.789  14.343
94349W        W66642  29.426   6.372  11.898
94350W        W66643  32.429  31.600  13.429
94351W        W66644  28.672  39.554   4.806
94352W        W66645  43.935  13.685   2.329
94353W        W66646  37.509   5.294   2.788
94354W        W66647  10.314  34.925   2.356
94355W        W66648   7.220   2.812  12.996
94356W        W66649   8.655  25.005  13.021
94357W        W66650  11.216  23.668   1.877
94358W        W66651  44.867  21.081  13.359
94359W        W66652  31.456  33.521   0.281
94360W        W66653  31.908  15.219   4.729
94361W        W66654  30.946  17.185   1.773
94362W        W66655   1.462   8.686  12.364
94363W        W66656  38.466  16.580  10.500
94364W        W66657  21.052  24.154   1.326
94365W        W66658  21.046  17.656   0.964
94366W        W66659  43.271  28.483   3.751
94367W        W66660  15.277  44.767  11.570
94368W        W66661  22.040   2.759  13.044
94369W        W66662  43.889   7.349   2.347
94370W        W66663  10.283  40.941   0.913
94371W        W66664  18.648  34.039  12.928
94372W        W66665  43.004  19.102  11.108
94373W        W66666   1.897   0.366  12.004
94374W        W66667  41.001  39.008  14.950
94375W        W66668  20.769  11.627  14.359
94376W        W66669   4.437  12.698  11.448
94377W        W66670  19.690  14.620   2.280
94378W        W66671  17.083  26.075  13.374
94379W        W66672  16.317  39.935  12.366
94380W        W66673  10.779  13.135  12.953
94381W        W66674  30.605  31.580   4.609
94382W        W66675   5.880  17.123  13.487
94383W        W66676  36.544  33.489   3.360
94384W        W66677  44.853   1.247  13.031
94385W        W66678  30.537  33.931   2.871
94386W        W66679   9.660  35.073  12.838
94387W        W66680  37.523  31.971  13.889
94388W        W66681  29.450  38.846   5.081
94389W        W66682  21.247   8.207   0.792
94390W        W66683  26.612  40.397  14.873
94391W        W66684   4.700  31.622   4.651
94392W        W66685  20.237   3.777   4.751
94393W        W66686  11.738  21.167  11.977
94394W        W66687  17.079  14.697   3.673
94395W        W66688  15.766  28.652  13.413
94396W        W66689   2.280  41.959   0.885
94397W        W66690  14.311  24.685  10.929
94398W        W66691  12.732  38.511  11.039
94399W        W66692   5.861   3.444  10.573
94400W        W66693   1.882  11.746  12.927
94401W        W66694  32.393  29.068   4.773
94402W        W66695   0.918  10.304  13.453
94403W        W66696  34.984  44.978   2.238
94404W        W66697  26.004  38.032   0.325
94405W        W66698  38.443  32.127   0.921
94406W        W66699  36.076  42.933  12.470
94407W        W66700  24.072  24.594   2.692
94408W        W66701   6.334  14.123   4.635
94409W        W66702  17.755  41.457  12.838
94410W        W66703   5.252   4.849  13.427
94411W        W66704   1.930  10.139   1.928
94412W        W66705   5.761  29.162  13.484
94413W        W66706  18.746  16.076   4.171
94414W        W66707  39.543  17.062  12.921
94415W        W66708  17.097  37.415   3.267
94416W        W66709  20.744   5.688  11.565
94417W        W66710  16.249  11.628  14.023
94418W        W66711  12.771  38.004  14.920
94419W        W66712   2.891  14.705  11.410
94420W        W66713  26.013  20.104  10.482
94421W        W66714  35.951  28.621   1.797
94422W        W66715  44.946   9.652  14.943
94423W        W66716  38.568  42.289  12.848
94424W        W66717  35.446  14.212   1.410
94425W        W66718  40.001  38.522  12.480
94426W        W66719   5.777   1.741   2.327
94427W        W66720  11.142   3.713  12.052
94428W        W66721  22.560  20.204   0.877
94429W        W66722  19.069  19.044  11.573
94430W        W66723   5.270  34.464  13.478
94431W        W66724  37.069  43.303  14.970
94432W        W66725  39.913   5.249  13.017
94433W        W66726  26.520  33.380  12.075
94434W        W66727  38.380  43.289  14.292
94435W        W66728   5.200   1.876   0.422
94436W        W66729   7.819  29.100  12.936
94437W        W66730  22.109  11.292  11.913
94438W        W66731  34.974  24.130   3.855
94439W        W66732  39.850  12.244  14.777
94440W        W66733  18.151   9.834  13.879
94441W        W66734   9.180   8.205   4.808
94442W        W66735   9.217  34.108   1.706
94443W        W66736  18.229  24.539   4.343
94444W        W66737  14.127  19.146   3.690
94445W        W66738   2.247  34.893   0.266
94446W        W66739  13.259  42.011  11.580
94447W        W66740  23.496  31.118   4.837
94448W        W66741  11.815  25.647  12.948
94449W        W66742  40.943  17.700  12.383
94450W        W66743   7.724  29.164  13.516
94451W        W66744  40.043  28.600   1.315
94452W        W66745  41.794  11.646   4.731
94453W        W66746  41.970  14.143   0.776
94454W        W66747   5.776   5.193  13.455
94455W        W66748  36.395  28.140   4.256
94456W        W66749  16.736  19.162  10.916
94457W        W66750  13.823  10.802   2.209
94458W        W66751  44.353  14.167  10.541
94459W        W66752  21.588  32.024  13.517
94460W        W66753  34.976  21.521   4.697
94461W        W66754  24.607  27.024  14.840
94462W        W66755  11.265  38.827  12.035
94463W        W66756  38.829   9.757   0.907
94464W        W66757  35.917  27.497   2.348
94465W        W66758  28.122  40.460   1.728
94466W        W66759  14.708   6.777  11.430
94467W        W66760  32.510  23.512   2.418
94468W        W66761  25.546  30.636  11.915
94469W        W66762  17.573  18.699   2.218
94470W        W66763  20.028  10.376   0.750
94471W        W66764  30.069  24.661  13.405
94472W        W66765   0.742  17.066   2.668
94473W        W66766  24.509   4.323   3.247
94474W        W66767  31.032   9.228   0.901
94475W        W66768  22.718  16.625   2.788
94476W        W66769   8.750  18.095   1.230
94477W        W66770  21.614  33.482   3.649
94478W        W66771  13.140  35.925   3.263
94479W        W66772   8.894  38.443   0.903
94480W        W66773  34.080   2.938   2.827
94481W        W66774  41.497  19.705   3.281
94482W        W66775  41.538  42.292  13.891
94483W        W66776  40.519  21.577  13.344
94484W        W66777  44.449  16.077  13.844
94485W        W66778  33.874  17.653  13.421
94486W        W66779   4.854  27.109   4.177
94487W        W66780  22.181  14.811  14.449
94488W        W66781   7.219  41.833  12.021
94489W        W66782   9.748   0.384   4.784
94490W        W66783  13.600  41.889  12.477
94491W        W66784   4.295   5.264  12.901
94492W        W66785  27.690  29.425  11.398
94493W        W66786   9.734  29.027   3.325
94494W        W66787  28.496  38.518  14.017
94495W        W66788  41.484  22.672   1.874
94496W        W66789   8.193  19.078   4.304
94497W        W66790  42.338   3.831  12.563
94498W        W66791  17.126  10.383   4.751
94499W        W66792  44.472  17.268  13.339
94500W        W66793  12.694  19.183  14.455
94501W        W66794  36.966   9.161  13.051
94502W        W66795  41.795  16.258  13.436
94503W        W66796  36.435   7.729   4.219
94504W        W66797  42.893  28.630   4.223
94505W        W66798  15.679  29.144  11.891
94506W        W66799  23.652  38.439   0.929
94507W        W66800  23.137  18.702   2.389
94508W        W66801   3.842  24.209  10.643
94509W        W66802  42.006   0.359   3.352
94510W        W66803   2.748  41.521   0.860
94511W        W66804  20.549  35.498  10.901
94512W        W66805  21.672   6.212  14.012
94513W        W66806  26.694  38.862  12.388
94514W        W66807  10.283  39.854  13.454
94515W        W66808  14.664  35.057  10.923
94516W        W66809  16.106  22.681   1.886
94517W        W66810  14.311  23.660  10.419
94518W        W66811  38.896  21.146   2.785
94519W        W66812  17.159  11.633   0.479
94520W        W66813  17.141   9.711  12.394
94521W        W66814  24.489  13.606   3.249
94522W        W66815  14.639  38.563  11.902
94523W        W66816  25.527   8.859  14.839
94524W        W66817  10.324  37.449  13.477
94525W        W66818  19.663  21.256   5.236
94526W        W66819  34.441  28.542   3.699
94527W        W66820  30.450  28.534  11.530
94528W        W66821  22.611   3.938  11.490
94529W        W66822  43.825   7.764  11.094
94530W        W66823  36.916  23.165   0.483
94531W        W66824  28.629   4.271  14.483
94532W        W66825   9.261  24.594   3.686
94533W        W66826   0.842  39.471  11.042
94534W        W66827  25.100  40.437  12.856
94535W        W66828  19.707  32.597   2.720
94536W        W66829  36.984  24.543  11.424
94537W        W66830  27.046  36.547  11.087
94538W        W66831  21.721   2.806   1.394
94539W        W66832  42.977  28.526  14.824
94540W        W66833  35.497  33.031  13.880
94541W        W66834   4.942  21.028  10.998
94542W        W66835  33.385  22.147   2.184
94543W        W66836  25.583  34.449  12.563
94544W        W66837  12.855  44.494  13.383
94545W        W66838  40.349  10.226  13.354
94546W        W66839   8.293  30.975   1.397
94547W        W66840  44.393   5.365   4.178
94548W        W66841  25.664   9.354   0.790
94549W        W66842  24.981   1.758   2.875
94550W        W66843  10.681   2.381   1.883
94551W        W66844   1.279  36.577  13.398
94552W        W66845  15.226   8.203  13.339
94553W        W66846  26.647   0.287   2.353
94554W        W66847  25.109  39.486  14.030
94555W        W66848  23.727  34.011   1.753
94556W        W66849  40.803  15.330  12.025
94557W        W66850  37.527   2.918  12.460
94558W        W66851  35.064  20.596  10.519
94559W        W66852   9.391   8.664  11.429
94560W        W66853  10.191   9.326   4.838
94561W        W66854   3.257  18.738  14.908
94562W        W66855  40.006   6.297   0.318
94563W        W66856  29.065  32.084   1.409
94564W        W66857  40.015  23.554  11.112
94565W        W66858  25.669  26.099  12.029
94566W        W66859   8.870  30.622  12.958
94567W        W66860   6.324  41.354  10.595
94568W        W66861  21.032  10.683   0.333
94569W        W66862   9.330   8.750   1.870
94570W        W66863  35.883   2.438   2.383
94571W        W66864  32.952  13.239  11.532
94572W        W66865  35.564  37.430   4.259
94573W        W66866   4.308   7.878   0.347
94574W        W66867  15.785  12.270   3.327
94575W        W66868   5.837   8.720   1.269
94576W        W66869  18.713  28.120   5.090
94577W        W66870  14.329  23.627   0.431
94578W        W66871  19.227   0.946  14.897
94579W        W66872  26.995  23.510  12.484
94580W        W66873  35.495  40.908   2.727
94581W        W66874   2.266   8.742  10.629
94582W        W66875  43.911  38.039  10.469
94583W        W66876  32.566  29.531   3.357
94584W        W66877  19.685  17.775   2.727
94585W        W66878  20.174  31.009  12.401
94586W        W66879   4.443  28.992   1.900
94587W        W66880   8.786  22.225   3.227
94588W        W66881  44.775   6.301   1.700
94589W        W66882  37.469   3.801   0.366
94590W        W66883  41.945  10.657  12.073
94591W        W66884  34.016  33.066   2.319
94592W        W66885  35.025   6.919  11.953
94593W        W66886  18.283  18.712  10.637
94594W        W66887   3.389  36.383  12.009
94595W        W66888  31.079   8.177   9.939
94596W        W66889  22.016  38.438   3.719
94597W        W66890  21.713  40.414  11.448
94598W        W66891  38.923   7.665  10.472
94599W        W66892   4.813  14.674  14.889
94600W        W66893  13.636  32.619   1.414
94601W        W66894  29.539  31.434  11.376
94602W        W66895  29.456  12.640   1.803
94603W        W66896  41.987  34.026   0.825
94604W        W66897  30.047  38.402   3.869
94605W        W66898  20.755  41.986   1.398
94606W        W66899  35.951  25.617   0.390
94607W        W66900  21.229  44.822  13.854
94608W        W66901  41.327  23.547   2.700
94609W        W66902  24.530   1.345  11.059
94610W        W66903  41.009   6.403  13.484
94611W        W66904  43.825  34.560   1.706
94612W        W66905  38.408   4.771  12.047
94613W        W66906  36.557  16.614   0.258
94614W        W66907  24.021  20.126  12.020
94615W        W66908   0.961  33.934   0.354
94616W        W66909  33.924  38.887  11.503
94617W        W66910  31.632  17.631   1.311
94618W        W66911   3.322  24.070   2.886
94619W        W66912   7.831  37.497   1.864
94620W        W66913   5.777  33.411   2.318
94621W        W66914  38.399  11.301   0.853
94622W        W66915   3.426  37.962  13.906
94623W        W66916  12.263  19.167   0.339
94624W        W66917  42.876  28.518   2.765
94625W        W66918  36.548  44.413   1.298
94626W        W66919  24.557  16.739  14.284
94627W        W66920  29.623  44.424  14.863
94628W        W66921  18.231  36.574  14.874
94629W        W66922  16.230   6.325   4.229
94630W        W66923  19.163  17.284  12.891
94631W        W66924  23.684  26.585  13.840
94632W        W66925  37.431   7.668  12.537
94633W        W66926   7.305   0.391   2.714
94634W        W66927  39.027   1.754  10.928
94635W        W66928  33.449  38.859  11.918
94636W        W66929  17.577  15.676  10.082
94637W        W66930  32.008  40.953   0.851
94638W        W66931   4.803  29.971   3.655
94639W        W66932  39.449  23.111   0.349
94640W        W66933   8.252  12.352  12.016
94641W        W66934  43.375  18.576   4.191
94642W        W66935   3.306  18.761  14.281
94643W        W66936   7.302   6.305  12.543
94644W        W66937  17.560  23.645   5.174
94645W        W66938  34.082  42.776   4.756
94646W        W66939  19.106  32.132  14.367
94647W        W66940  27.167  12.146   4.644
94648W        W66941   0.782  15.180  14.382
94649W        W66942   6.381  29.921   1.440
94650W        W66943   3.814   7.196   4.354
94651W        W66944  11.634   1.431   3.217
94652W        W66945  43.341   4.787   1.345
94653W        W66946  31.567   6.415   2.893
94654W        W66947   8.846  10.769  10.479
94655W        W66948   2.732  19.584  12.398
94656W        W66949  32.017  12.656  14.978
94657W        W66950  38.077  23.999   3.240
94658W        W66951  40.839  10.284  10.505
94659W        W66952   6.917  11.157   3.773
94660W        W66953  15.202  17.266  12.553
94661W        W66954   2.745  42.928   4.751
94662W        W66955   0.955  31.462  13.540
94663W        W66956   8.818  38.564  13.949
94664W        W66957  24.995   2.410   4.277
94665W        W66958  25.000  36.575   3.713
94666W        W66959   7.341  15.306  12.516
94667W        W66960  33.967   2.755  13.416
94668W        W66961  43.825  36.993  14.776
94669W        W66962  35.540  12.669  12.420
94670W        W66963   1.359   9.166  12.377
94671W        W66964  29.491  42.420   1.226
94672W        W66965   7.359   8.188  11.586
94673W        W66966  31.615  10.241   3.211
94674W        W66967  10.817  36.940   1.344
94675W        W66968  40.357  37.081   2.807
94676W        W66969   4.304   6.194  13.018
94677W        W66970  42.299  24.999  14.758
94678W        W66971  27.493  26.186  14.888
94679W        W66972   5.714  23.682  14.288
94680W        W66973  38.544   4.353  14.414
94681W        W66974  11.331  37.027  14.304
94682W        W66975  11.803  21.195   4.144
94683W        W66976  15.685  13.723  11.454
94684W        W66977  25.570  32.088  11.871
94685W        W66978  25.159  17.124   2.369
94686W        W66979   0.972  18.141   1.285
94687W        W66980  42.990  29.090  10.500
94688W        W66981  37.057   3.308   0.959
94689W        W66982   5.436  14.288   2.804
94690W        W66983  16.683  16.691   1.268
94691W        W66984   8.213  25.696   0.917
94692W        W66985   9.848   6.708   3.856
94693W        W66986  27.123  22.578   1.807
94694W        W66987   5.863   7.336   1.809
94695W        W66988  40.870  28.942  13.503
94696W        W66989  40.981  24.631   4.156
94697W        W66990   8.893  19.729  14.282
94698W        W66991  27.971  16.262   2.252
94699W        W66992   3.395  30.093   4.766
94700W        W66993   9.720  33.881  13.019
94701W        W66994  11.290  14.278  10.526
94702W        W66995   4.285  16.161   0.957
94703W        W66996  37.507   9.160  13.389
94704W        W66997  22.598   8.693  10.479
94705W        W66998   2.260   2.876  14.488
94706W        W66999  31.108   7.320   0.851
94707W        W67000  40.812  32.438  14.792
94708W        W67001  26.504  12.677   4.737
94709W        W67002  24.094  32.987   4.653
94710W        W67003  29.561  41.917  14.874
94711W        W67004  23.172  34.373   2.691
94712W        W67005  28.141   8.767  14.344
94713W        W67006   4.893  21.707  12.932
94714W        W67007   7.296  14.291  13.542
94715W        W67008  16.578  21.232  12.029
94716W        W67009  31.622  26.106  11.382
94717W        W67010   5.358  36.368  10.477
94718W        W67011  43.014  34.482  10.504
94719W        W67012   7.333  29.577  13.375
94720W        W67013  18.788  23.015  13.792
94721W        W67014  27.003  35.919   1.814
94722W        W67015  44.999  33.579   1.748
94723W        W67016  19.709  31.053   0.906
94724W        W67017  44.489  38.397  10.629
94725W        W67018  10.857  26.464   3.652
94726W        W67019  12.224  32.992  14.361
94727W        W67020  38.843  15.753  13.964
94728W        W67021  29.035  44.820  14.468
94729W        W67022  29.959  37.529  10.566
94730W        W67023  12.678  35.491   3.300
94731W        W67024  32.127   2.384   4.640
94732W        W67025  42.827  23.153   3.779
94733W        W67026   1.298  37.926  11.534
94734W        W67027   3.408  23.730  13.867
94735W        W67028   2.379  28.508   3.672
94736W        W67029  18.194  19.654  10.942
94737W        W67030   1.910   0.976   2.255
94738W        W67031  27.117  13.601   0.924
94739W        W67032   7.696  18.113   3.662
94740W        W67033  13.124  21.612   0.799
94741W        W67034   9.833  38.891  12.359
94742W        W67035  41.292  40.373   0.775
94743W        W67036   2.451   6.345  13.969
94744W        W67037  39.889   8.278   4.290
94745W        W67038  41.468  23.221   1.343
94746W        W67039  40.880  10.700  10.460
94747W        W67040  40.931  30.137  12.557
94748W        W67041  43.795  13.647   0.738
94749W        W67042  11.314  25.545   2.811
94750W        W67043  23.049  41.911   0.928
94751W        W67044  12.744  19.246   0.309
94752W        W67045  11.745  16.574  14.906
94753W        W67046  31.593   4.362   2.666
94754W        W67047  22.243   6.817  13.062
94755W        W67048  10.693   5.352   3.745
94756W        W67049  29.544  31.620  10.560
94757W        W67050  21.261  38.847   0.380
94758W        W67051  25.199  13.325  10.530
94759W        W67052  11.748  37.550   4.619
94760W        W67053  16.160  28.049   2.411
94761W        W67054  29.057  19.771   2.390
94762W        W67055  33.987  39.939   2.698
94763W        W67056  23.683  22.692  10.971
94764W        W67057  34.050  29.961   2.211
94765W        W67058  27.674  10.660   3.272
94766W        W67059  16.796  16.255  12.900
94767W        W67060  17.739   9.206   3.755
94768W        W67061  18.195   7.255  13.914
94769W        W67062   0.936  41.830  11.031
94770W        W67063  28.172  10.759   3.819
94771W        W67064  22.050   2.238   1.764
94772W        W67065  33.947  27.061  11.907
94773W        W67066   3.747  21.618  14.909
94774W        W67067   9.769  38.410  12.547
94775W        W67068  32.504  29.525  11.484
94776W        W67069   4.334  37.495   0.897
94777W        W67070  35.410  43.294  14.412
94778W        W67071  26.952  21.065  14.011
94779W        W67072   9.212   4.394   3.230
94780W        W67073  19.214  29.102   1.927
94781W        W67074  40.346  38.906  10.519
94782W        W67075  33.560  39.816   2.784
94783W        W67076   6.404  41.440   1.791
94784W        W67077  34.416  15.822   4.611
94785W        W67078  32.045  17.745   3.353
94786W        W67079  42.929  37.934   0.796
94787W        W67080  36.091  21.625  10.527
94788W        W67081  25.119  31.469   1.434
94789W        W67082  36.563  20.168   3.674
94790W        W67083   1.374  15.184  14.294
94791W        W67084  31.061  31.420   4.766
94792W        W67085  23.240  22.241   1.914
94793W        W67086  27.607  36.078   0.863
94794W        W67087   7.821  26.675   0.870
94795W        W67088  27.609  28.102  11.929
94796W        W67089  40.471  15.158  12.008
94797W        W67090  39.905  33.931  12.037
94798W        W67091   6.353  43.999   0.458
94799W        W67092  16.615  41.033   2.222
94800W        W67093  42.894   7.860   1.400
94801W        W67094  40.406  27.610  10.505
94802W        W67095  36.949  33.387   0.952
94803W        W67096  43.421  44.442   4.736
94804W        W67097  21.140   8.235   3.797
94805W        W67098  17.237  29.175   2.830
94806W        W67099  41.407   0.397   5.088
94807W        W67100  38.860   7.252  11.600
94808W        W67101  18.550  41.863   0.949
94809W        W67102  39.000  26.609  14.764
94810W        W67103  14.103  33.983   4.754
94811W        W67104   6.256   8.891   3.807
94812W        W67105  22.088  16.164   2.292
94813W        W67106   7.309  43.935  13.964
94814W        W67107  12.703  32.971   2.854
94815W        W67108  41.837  31.140   0.414
94816W        W67109  43.972  24.695   1.918
94817W        W67110  33.520   4.927   2.310
94818W        W67111  12.777   3.727   5.100
94819W        W67112  42.483  28.130   0.256
94820W        W67113  29.125  10.227  13.836
94821W        W67114  24.227  15.581  14.328
94822W        W67115   8.401  27.160  12.522
94823W        W67116  29.584  36.022   3.681
94824W        W67117   3.383  20.542  14.800
94825W        W67118  32.027  30.955  10.429
94826W        W67119  12.128  22.136  14.365
94827W        W67120  42.363  29.452  12.839
94828W        W67121  40.970   1.274  10.964
94829W        W67122  10.166  16.576  14.878
94830W        W67123  13.642  41.008  14.011
94831W        W67124  16.808  35.868   1.776
94832W        W67125   2.385  10.867   4.157
94833W        W67126  14.173  33.459  13.325
94834W        W67127  30.089  26.652   4.723
94835W        W67128  44.283   5.815   0.907
94836W        W67129  19.540  33.994  10.160
94837W        W67130  10.684  27.451  12.852
94838W        W67131  31.119  15.608   1.808
94839W        W67132   4.217  44.774   2.899
94840W        W67133  33.403   6.895  13.892
94841W        W67134  36.503  38.051   1.921
94842W        W67135   2.267  32.125   0.736
94843W        W67136  38.409  19.642   4.139
94844W        W67137  10.258   1.361  13.446
94845W        W67138  28.108  12.300   0.944
94846W        W67139   9.691  11.345  13.405
94847W        W67140  16.127  26.044   4.785
94848W        W67141   7.216  14.714   3.720
94849W        W67142  31.539   2.759  13.452
94850W        W67143  23.148  35.579   1.741
94851W        W67144  43.354  39.396   1.779
94852W        W67145  25.988  42.896   4.835
94853W        W67146  11.292  25.077  13.875
94854W        W67147  42.873  20.106  11.074
94855W        W67148   4.842  17.779  14.004
94856W        W67149  15.323  17.197  11.414
94857W        W67150   2.855  29.966   0.946
94858W        W67151  34.401  25.187   2.215
94859W        W67152  33.387  33.954   1.390
94860W        W67153  16.147   2.861  10.530
94861W        W67154   8.164  33.442   3.195
94862W        W67155   6.199  39.853  13.840
94863W        W67156  23.650  33.009   4.822
94864W        W67157  16.207  20.555  13.342
94865W        W67158  44.402  28.655   4.125
94866W        W67159  19.254   2.252  12.504
94867W        W67160  31.034   6.704   3.862
94868W        W67161  44.985  30.541  13.862
94869W        W67162  16.790   6.815  11.410
94870W        W67163  38.562  32.390  14.925
94871W        W67164  32.038  27.660   9.926
94872W        W67165  23.699  27.641  10.991
94873W        W67166  42.525  19.651  14.411
94874W        W67167   7.343  17.671   1.221
94875W        W67168  35.950  34.050   2.690
94876W        W67169  21.662  32.136   2.377
94877W        W67170   8.376   3.952   3.185
94878W        W67171  44.787  33.549  12.032
94879W        W67172  41.341   7.191  10.421
94880W        W67173   9.219   6.902  12.094
94881W        W67174  16.807   3.453   2.213
94882W        W67175  34.090  24.517  14.480
94883W        W67176  34.408  42.494  11.875
94884W        W67177   3.443  29.436  12.932
94885W        W67178   1.790  14.827   1.694
94886W        W67179  28.095  20.052  13.806
94887W        W67180  19.211  13.145   4.212
94888W        W67181  14.807  34.033   0.921
94889W        W67182  35.381  21.080   0.862
94890W        W67183  27.581  24.586   0.390
94891W        W67184  17.130   1.255  13.900
94892W        W67185  40.336  29.946   2.398
94893W        W67186  39.419   1.346   2.306
94894W        W67187   0.960   3.303  11.594
94895W        W67188   7.739   4.388  12.830
94896W        W67189  20.129  27.473   0.434
94897W        W67190  26.975  43.375  12.948
94898W        W67191  16.302  37.524  12.848
94899W        W67192  25.187   9.322   4.772
94900W        W67193  28.006  41.949  11.477
94901W        W67194  43.429  35.445   9.925
94902W        W67195  20.709  34.085  14.846
94903W        W67196  42.333  36.933  12.930
94904W        W67197  28.645  20.067  12.056
94905W        W67198  40.541  40.428   1.765
94906W        W67199  24.103  28.060   2.707
94907W        W67200  42.795  10.184  11.058
94908W        W67201   9.240  40.043   3.666
94909W        W67202  13.300  26.514  14.005
94910W        W67203  19.769  31.609   3.700
94911W        W67204  41.350  12.770   2.777
94912W        W67205  39.392  15.683   0.740
94913W        W67206  29.005   4.392   2.765
94914W        W67207  18.641   4.829  13.534
94915W        W67208   0.256  36.565  10.057
94916W        W67209  30.621  30.574  10.025
94917W        W67210  21.081   2.789   0.419
94918W        W67211  29.996  14.208  14.975
94919W        W67212  32.925   8.166   4.649
94920W        W67213   4.882  33.910   2.369
94921W        W67214  38.996   3.824  10.583
94922W        W67215  44.918  11.718  12.369
94923W        W67216  36.982  42.893   3.729
94924W        W67217   4.333  29.942  10.575
94925W        W67218   1.401  17.222   1.395
94926W        W67219   1.930  19.272  10.549
94927W        W67220  39.395  41.978   4.611
94928W        W67221   1.263   3.293  11.031
94929W        W67222   6.216  34.575   0.273
94930W        W67223   6.209  23.668   2.670
94931W        W67224  39.990  29.456   4.206
94932W        W67225  14.241  12.244  14.932
94933W        W67226   1.379  33.011  12.079
94934W        W67227  42.928  43.804   3.204
94935W        W67228  39.989  17.161   4.294
94936W        W67229  19.604   9.759   1.738
94937W        W67230   6.238  10.257  11.587
94938W        W67231  38.379  18.146  13.837
94939W        W67232   0.748   1.853   0.899
94940W        W67233  23.023   6.384  11.963
94941W        W67234   3.920  24.175   3.319
94942W        W67235  41.990  29.128  11.864
94943W        W67236   4.341   3.735  14.816
94944W        W67237  25.995  41.469   4.814
94945W        W67238  30.965   7.910   5.686
94946W        W67239  17.306  13.216  13.955
94947W        W67240  26.184  33.571  12.998
94948W        W67241  20.721  43.938  10.961
94949W        W67242  11.865  29.491  11.027
94950W        W67243  19.547  10.172  13.982
94951W        W67244  43.335   7.238  14.417
94952W        W67245  17.769  42.474  14.355
94953W        W67246  26.488  44.762  11.098
94954W        W67247  15.106  22.638  14.835
94955W        W67248   8.676  14.745   1.756
94956W        W67249  31.943  13.185   1.782
94957W        W67250  26.063  37.437  10.959
94958W        W67251  31.622   5.775   0.463
94959W        W67252   9.876  26.660  10.412
94960W        W67253   5.426   5.330  11.961
94961W        W67254  15.241  29.070  14.011
94962W        W67255  18.233   2.370   1.932
94963W        W67256  33.000  31.036   0.446
94964W        W67257  24.589  23.060   3.162
94965W        W67258   1.348  42.930  11.612
94966W        W67259  39.978   0.824  13.869
94967W        W67260  36.428  16.140   0.421
94968W        W67261  28.477   2.937  13.395
94969W        W67262  44.430   5.408  10.537
94970W        W67263  11.196  12.652  14.934
94971W        W67264  27.594  36.034   3.651
94972W        W67265  30.144  37.048  14.390
94973W        W67266   9.310  20.265   3.747
94974W        W67267  15.626  21.142  13.390
94975W        W67268  35.549  20.100   1.296
94976W        W67269   8.878  34.083   2.225
94977W        W67270  14.315  30.533  11.006
94978W        W67271   1.364  19.579   4.160
94979W        W67272  24.678   7.909  12.085
94980W        W67273  39.950   8.804   1.724
94981W        W67274  33.457  26.519   3.839
94982W        W67275  35.075  41.307  14.286
94983W        W67276  31.473  33.441  14.795
94984W        W67277  10.299  21.248  11.084
94985W        W67278  40.414  14.116  10.155
94986W        W67279  23.186   7.183   2.413
94987W        W67280  12.195  41.340  13.890
94988W        W67281  38.065  42.412  13.959
94989W        W67282   5.866   7.374   2.853
94990W        W67283  29.026  20.116  11.404
94991W        W67284  14.258   1.948  13.865
94992W        W67285  42.452  29.493   2.812
94993W        W67286   9.186  41.326   5.283
94994W        W67287  12.793   2.250   5.576
94995W        W67288  24.559  12.118   0.412
94996W        W67289   4.793  18.176   4.133
94997W        W67290  39.030  31.555  10.594
94998W        W67291  12.829  16.596   2.807
94999W        W67292  42.945  37.911  14.357
95000W        W67293  12.338  21.592   0.360
95001W        W67294  19.063   7.691  13.034
95002W        W67295  32.530  32.615  11.522
95003W        W67296   1.330  33.468   0.433
95004W        W67297   7.340  28.599   2.797
95005W        W67298  19.257   1.310   3.665
95006W        W67299  15.275  28.661   2.412
95007W        W67300  23.152   8.162  14.316
95008W        W67301  44.406  27.692   0.937
95009W        W67302  20.547  23.692   0.941
95010W        W67303   5.237  14.726   2.797
95011W        W67304   1.430  33.423   2.787
95012W        W67305  35.452  38.859   9.936
95013W        W67306  27.568  13.701   3.866
95014W        W67307  29.061  26.465   2.343
95015W        W67308  21.062   7.733   4.630
95016W        W67309  20.189  37.559  13.878
95017W        W67310  21.618   5.305  13.508
95018W        W67311   4.898   5.297  13.898
95019W        W67312  26.673  12.808  11.930
95020W        W67313  40.887  37.984   0.762
95021W        W67314  35.502   4.218   0.250
95022W        W67315  33.437  35.378   1.283
95023W        W67316  42.462  19.742  12.367
95024W        W67317  39.468  34.370  13.874
95025W        W67318  42.323  34.092   4.294
95026W        W67319  24.595  33.382  12.361
95027W        W67320  30.975  10.717   5.620
95028W        W67321  41.839  39.005  10.543
95029W        W67322   9.864   2.904   0.813
95030W        W67323  44.409  37.931   4.232
95031W        W67324  27.124   8.342   0.307
95032W        W67325  12.772  29.977  13.311
95033W        W67326  21.608  24.652  14.362
95034W        W67327  12.251  32.597  14.880
95035W        W67328  25.204  28.634  12.533
95036W        W67329  14.764  33.550   3.354
95037W        W67330  39.384   7.703   0.921
95038W        W67331   2.467  36.026   2.271
95039W        W67332  12.713  31.614   4.326
95040W        W67333  11.290  12.717   0.437
95041W        W67334  41.532  26.666   1.778
95042W        W67335  27.449  33.964  14.928
95043W        W67336   9.860  44.836  14.474
95044W        W67337  26.083  38.424   3.188
95045W        W67338  24.710  15.737   3.707
95046W        W67339  30.035  20.229   1.280
95047W        W67340   9.823  12.300  14.367
95048W        W67341  37.959  19.608  11.058
95049W        W67342   4.939  38.513  11.914
95050W        W67343  24.990  33.562  11.052
95051W        W67344  35.035  13.692   2.345
95052W        W67345  15.626  30.475  12.413
95053W        W67346  15.818  33.011  11.587
95054W        W67347   8.689   3.896   2.372
95055W        W67348  18.650   6.319  11.444
95056W        W67349   2.788   1.808  11.034
95057W        W67350   7.318  22.697   2.311
95058W        W67351  10.304  15.665  13.336
95059W        W67352   8.781  39.049  12.952
95060W        W67353   6.744  40.310   2.378
95061W        W67354  26.138  29.492  13.482
95062W        W67355  41.537  14.151  14.023
95063W        W67356  10.837  31.967  14.010
95064W        W67357   4.221   7.711  14.938
95065W        W67358  41.369   5.840  12.500
95066W        W67359  43.509  22.727  12.980
95067W        W67360  13.623   8.372   0.880
95068W        W67361  26.702  37.063   0.449
95069W        W67362  30.503  14.329  12.906
95070W        W67363  21.724  34.512   0.872
95071W        W67364  39.050  15.623   2.190
95072W        W67365   3.752  41.431   1.282
95073W        W67366   3.929  35.047  11.103
95074W        W67367  21.056  30.587   3.846
95075W        W67368   3.747  37.865   0.402
95076W        W67369  44.909  11.826   3.350
95077W        W67370  26.178  28.975   4.816
95078W        W67371   8.404  17.128   1.325
95079W        W67372  33.469  10.323  10.965
95080W        W67373  25.646  20.086  14.980
95081W        W67374  14.675  20.271   0.243
95082W        W67375  18.720  20.063  13.876
95083W        W67376  14.234  24.616  13.523
95084W        W67377  41.879  35.011  11.931
95085W        W67378   1.366   5.925  11.121
95086W        W67379  12.183  44.877   3.772
95087W        W67380  38.880  33.616  14.762
95088W        W67381  19.553  10.218  12.347
95089W        W67382  14.127   7.720   3.730
95090W        W67383   3.354  13.251   4.789
95091W        W67384  34.900  44.426   3.372
95092W        W67385  24.513  17.663  13.419
95093W        W67386  15.255  28.014  13.965
95094W        W67387  31.949  41.001  10.622
95095W        W67388  38.976  12.236   2.405
95096W        W67389  31.615  11.826   2.218
95097W        W67390   7.281   0.351   1.389
95098W        W67391  34.612  24.517   4.737
95099W        W67392  31.971  20.750   3.696
95100W        W67393   3.874   9.860  14.846
95101W        W67394  39.960  34.456   3.275
95102W        W67395  10.782   3.791   0.837
95103W        W67396  35.570  41.998   4.275
95104W        W67397   0.313  33.430   0.374
95105W        W67398  17.747  38.042   4.774
95106W        W67399   8.382  33.441  10.459
95107W        W67400  21.532  32.625   3.295
95108W        W67401   7.415  17.617  13.812
95109W        W67402  19.539   0.294   3.645
95110W        W67403  39.886  44.782  13.496
95111W        W67404  43.818  12.628  13.370
95112W        W67405  32.519   5.407   4.743
95113W        W67406   5.363   4.229  11.579
95114W        W67407  27.147  16.312   3.704
95115W        W67408  24.988  15.633   4.684
95116W        W67409  41.525   9.665   1.302
95117W        W67410   7.315   6.373   2.760
95118W        W67411  11.357   2.373  10.584
95119W        W67412   9.792  38.959  13.345
95120W        W67413  41.521  28.931  13.311
95121W        W67414  13.328   1.856   0.881
95122W        W67415  33.926  39.477   0.840
95123W        W67416  12.673   6.835  11.397
95124W        W67417  28.939  33.543  12.366
95125W        W67418  44.494  28.085   1.447
95126W        W67419  40.443  39.020   2.759
95127W        W67420  36.553  12.709   4.682
95128W        W67421  11.750   4.212  10.641
95129W        W67422   5.334  16.285  11.920
95130W        W67423   8.187  42.519   1.804
95131W        W67424  17.129  21.725   1.300
95132W        W67425   1.836  32.596  14.950
95133W        W67426  37.361   4.779   2.206
95134W        W67427  25.048  30.453   1.825
95135W        W67428  31.590  29.026   0.440
95136W        W67429  13.828  21.632  12.976
95137W        W67430  18.604  33.024  11.100
95138W        W67431  18.142  39.808  14.943
95139W        W67432  28.664  28.040  11.005
95140W        W67433  27.466  36.851   2.351
95141W        W67434  29.150  28.987  11.874
95142W        W67435  35.909   3.453  10.903
95143W        W67436   9.647  28.602  12.429
95144W        W67437  15.730  25.525  14.795
95145W        W67438  18.620  12.689  12.081
95146W        W67439  29.081  29.625  13.423
95147W        W67440   8.362  35.925   3.729
95148W        W67441  37.385  32.955   3.228
95149W        W67442  18.132   6.851   2.412
95150W        W67443  18.225   8.173   1.397
95151W        W67444  16.682  21.633  12.544
95152W        W67445  24.201   3.880   2.844
95153W        W67446  28.948   3.242  14.983
95154W        W67447  41.851  12.719   3.846
95155W        W67448  10.248  10.757   3.778
95156W        W67449  34.079  18.598  11.398
95157W        W67450  34.523  34.117  13.970
95158W        W67451  30.442  32.402  13.469
95159W        W67452  14.762   8.756   5.125
95160W        W67453  36.564  43.494   1.401
95161W        W67454  28.164  33.533   3.284
95162W        W67455  15.296  11.676   0.899
95163W        W67456  44.980  21.057   3.858
95164W        W67457  31.444  20.708  14.304
95165W        W67458  32.607  41.387  10.620
95166W        W67459  28.041  32.537  13.312
95167W        W67460  25.172  22.724   3.702
95168W        W67461  25.694  37.439  14.296
95169W        W67462  24.040  26.653  11.993
95170W        W67463   0.820  14.692  14.961
95171W        W67464  22.098  29.538  11.883
95172W        W67465  22.105  43.839  13.977
95173W        W67466  31.407  30.602  13.918
95174W        W67467  17.122  37.430   4.744
95175W        W67468  16.171  40.958   1.248
95176W        W67469  40.052   7.311   1.814
95177W        W67470  29.553  11.170   4.820
95178W        W67471  43.933   2.743   2.841
95179W        W67472  24.624  24.089  13.995
95180W        W67473   6.269  27.472  13.935
95181W        W67474  21.231  12.617   4.336
95182W        W67475  20.142  30.553  11.034
95183W        W67476  41.822  11.197  11.479
95184W        W67477  17.657  21.114   1.771
95185W        W67478  43.820  21.580  13.963
95186W        W67479  21.083  29.920  14.485
95187W        W67480  33.126   3.448   2.231
95188W        W67481  24.642   9.297   1.369
95189W        W67482  26.157   4.449  11.530
95190W        W67483  35.436  19.101   4.668
95191W        W67484  32.041  18.100  10.488
95192W        W67485  21.537  17.733   3.730
95193W        W67486  37.059  20.546  13.406
95194W        W67487  40.496  36.942   0.365
95195W        W67488  34.552  21.068   3.843
95196W        W67489  34.519  13.222   1.386
95197W        W67490  16.685  41.793  13.835
95198W        W67491  30.977  11.306   1.323
95199W        W67492  42.822  16.194  11.543
95200W        W67493  35.047  44.844   2.777
95201W        W67494  10.730  31.146  11.392
95202W        W67495   9.888  10.170  14.426
95203W        W67496  35.403  18.077  13.852
95204W        W67497   9.220  33.562   0.784
95205W        W67498   3.298  29.082   1.415
95206W        W67499  35.593   7.182  14.813
95207W        W67500  25.518  15.619  11.035
95208W        W67501  31.984  25.526   0.771
95209W        W67502  11.178   9.719   4.142
95210W        W67503   3.266  31.014  13.448
95211W        W67504  43.772  39.957  13.432
95212W        W67505  43.952  20.092   2.834
95213W        W67506   2.344  29.926   3.153
95214W        W67507  26.619   2.795   3.164
95215W        W67508  28.101  12.283   2.304
95216W        W67509   2.266  33.530   0.478
95217W        W67510  42.793   7.798  14.881
95218W        W67511  28.996  40.445  13.985
95219W        W67512  26.566   1.904   3.684
95220W        W67513   7.693  28.092   2.252
95221W        W67514   8.209  33.017   0.418
95222W        W67515   0.864   9.779   0.338
95223W        W67516  16.679   7.701  10.505
95224W        W67517  42.397  39.865   2.861
95225W        W67518   6.346   8.294   4.135
95226W        W67519   8.327  16.675  14.813
95227W        W67520   2.801  27.514   3.788
95228W        W67521  43.768  15.133  11.380
95229W        W67522  25.978  22.727   5.692
95230W        W67523  27.676  40.805   2.268
95231W        W67524  27.990  25.667  11.872
95232W        W67525  24.015  14.122  11.091
95233W        W67526  13.339  18.192  12.851
95234W        W67527  15.230   2.411   1.386
95235W        W67528   9.888  25.468   0.766
95236W        W67529  27.127  44.939  14.939
95237W        W67530   8.216  43.966  11.468
95238W        W67531  34.580  23.163   0.797
95239W        W67532   6.403  23.159   2.852
95240W        W67533   0.386   1.958   2.885
95241W        W67534   3.244   2.413   0.854
95242W        W67535  27.989  44.497  10.993
95243W        W67536  17.684  37.401   3.787
95244W        W67537  42.480  35.568  12.938
95245W        W67538  39.338  27.105   4.801
95246W        W67539  40.049  16.802  10.495
95247W        W67540  27.047  16.780  14.416
95248W        W67541   1.740  43.325   3.711
95249W        W67542  38.485   5.385  13.309
95250W        W67543  14.610   2.226   4.708
95251W        W67544  18.764  38.416   0.769
95252W        W67545  10.716  35.027   0.870
95253W        W67546  33.451  28.108   3.206
95254W        W67547  36.994  26.205  11.107
95255W        W67548   4.327  16.807   1.724
95256W        W67549  25.556  22.015   0.747
95257W        W67550  40.937   9.870  11.079
95258W        W67551  26.579  41.525   2.848
95259W        W67552  44.273  21.589  14.301
95260W        W67553  11.201  32.456   1.752
95261W        W67554   4.852  16.278  14.818
95262W        W67555  32.012  34.531   2.726
95263W        W67556   7.348  29.532  13.915
95264W        W67557  31.040  33.013   0.327
95265W        W67558  25.069   4.450  14.024
95266W        W67559   3.736  12.749  14.982
95267W        W67560  41.855  29.635   0.926
95268W        W67561   8.375  35.919  10.447
95269W        W67562  33.079  35.401   1.694
95270W        W67563  40.949  11.697   3.707
95271W        W67564  12.139  10.223  12.047
95272W        W67565  39.859  31.949   2.199
95273W        W67566  17.663  22.195   4.242
95274W        W67567  44.806  40.972   4.308
95275W        W67568   8.175  42.980   0.358
95276W        W67569   5.205  29.963   3.700
95277W        W67570  40.922  41.845  13.491
95278W        W67571   5.801  38.936   1.907
95279W        W67572  44.846  28.455  14.324
95280W        W67573  22.745  39.009   3.664
95281W        W67574  44.950  28.103   1.731
95282W        W67575  10.345  27.027   5.221
95283W        W67576   0.388  14.758  10.455
95284W        W67577   6.794  14.237  10.614
95285W        W67578   8.347  10.834   4.209
95286W        W67579   3.838   8.857  11.374
95287W        W67580  11.652  15.139  14.978
95288W        W67581  37.018  42.877   0.819
95289W        W67582  17.690  26.170  13.377
95290W        W67583  21.609  24.710   0.863
95291W        W67584  37.519   7.325  11.993
95292W        W67585   2.749  24.226  12.416
95293W        W67586  40.470  26.038  14.327
95294W        W67587  44.970   2.405  12.543
95295W        W67588  29.073   7.871  14.406
95296W        W67589  32.981  27.066  14.766
95297W        W67590  11.856  10.874   2.662
95298W        W67591  11.298  11.698  12.047
95299W        W67592  12.765  31.613   0.939
95300W        W67593  27.541  12.191   0.791
95301W        W67594  16.232  23.137   4.811
95302W        W67595   1.331  26.184   3.236
95303W        W67596  29.087  40.000   3.639
95304W        W67597   8.799   6.192   0.965
95305W        W67598  21.586  16.284  10.940
95306W        W67599  26.112   4.737  10.968
95307W        W67600   5.729   3.381  14.415
95308W        W67601  28.530  35.410  14.513
95309W        W67602  18.776   3.280   3.858
95310W        W67603  27.074  30.620   2.335
95311W        W67604  28.586   6.325   3.656
95312W        W67605  32.425  33.614   3.380
95313W        W67606  31.590  19.611   4.805
95314W        W67607  16.109  29.030  13.458
95315W        W67608  17.768  25.019  12.392
95316W        W67609  43.499  11.698  12.095
95317W        W67610  12.643  33.102   1.848
95318W        W67611  24.594  43.343   0.941
95319W        W67612  33.111  12.246   2.199
95320W        W67613  36.469  15.579  12.397
95321W        W67614  19.096  25.129   4.219
95322W        W67615  37.458  12.343   2.820
95323W        W67616  30.931  29.176   9.921
95324W        W67617  31.985  42.428  14.314
95325W        W67618   1.877  21.614   1.390
95326W        W67619  21.108   6.363   4.681
95327W        W67620  24.723   7.717   4.276
95328W        W67621   4.874   2.940  14.022
95329W        W67622   4.390  27.175  10.548
95330W        W67623   3.348  40.005  10.601
95331W        W67624  35.525  10.740   0.306
95332W        W67625   1.808  37.838   1.348
95333W        W67626  35.383  14.681  10.551
95334W        W67627  33.107  30.033  12.568
95335W        W67628   8.184  30.448  10.987
95336W        W67629  24.218  23.999  12.962
95337W        W67630  36.427  25.035  13.331
95338W        W67631   3.862  14.761  13.442
95339W        W67632  43.882  40.972  11.055
95340W        W67633  30.911   7.257  10.059
95341W        W67634  31.596  36.529  12.535
95342W        W67635  10.731  44.785  10.932
95343W        W67636  24.069  44.333   4.114
95344W        W67637   8.895  33.984   1.300
95345W        W67638   1.465   4.353   3.354
95346W        W67639  30.114   2.776  12.933
95347W        W67640  24.132  11.636   0.317
95348W        W67641  27.581   5.929  13.972
95349W        W67642  28.956  10.759   0.337
95350W        W67643  37.039  13.189   3.854
95351W        W67644  23.085  15.182  13.334
95352W        W67645  13.749   6.425   3.249
95353W        W67646  33.495   4.849  11.390
95354W        W67647   6.811  21.541  14.903
95355W        W67648   0.467   1.310  11.546
95356W        W67649  24.680  32.910  14.853
95357W        W67650  38.972   3.238   9.978
95358W        W67651  16.133  21.046  11.985
95359W        W67652  18.295  23.017  10.042
95360W        W67653  27.108   8.772   0.777
95361W        W67654  22.548  28.558  12.545
95362W        W67655  27.635  28.561   2.240
95363W        W67656  43.018  25.516  10.453
95364W        W67657  21.635  18.195  14.467
95365W        W67658   3.359   0.896   2.206
95366W        W67659  21.756  24.552   4.284
95367W        W67660  43.827  20.531  13.968
95368W        W67661  15.101   8.221  12.526
95369W        W67662   7.744   7.769  10.565
95370W        W67663   7.757  25.095   4.312
95371W        W67664  31.949  17.579  12.494
95372W        W67665  27.107  31.928  12.364
95373W        W67666  26.975  34.510   2.184
95374W        W67667   1.755   5.838   2.764
95375W        W67668  35.445  25.621  11.858
95376W        W67669  12.241  44.498  10.890
95377W        W67670  30.608  17.667   0.438
95378W        W67671  17.716  39.987   1.849
95379W        W67672   8.847  44.814  11.034
95380W        W67673   5.765  27.490   2.800
95381W        W67674  29.969  44.428  14.323
95382W        W67675  33.507  17.222   0.388
95383W        W67676   5.260   5.843  11.918
95384W        W67677  19.206   2.765  13.016
95385W        W67678   6.382  33.585  10.158
95386W        W67679   5.924  35.984   1.898
95387W        W67680   8.811   5.749   4.811
95388W        W67681  24.182   9.217   0.734
95389W        W67682  15.798   0.898   4.675
95390W        W67683   3.754  10.247   2.702
95391W        W67684  31.567   7.185  14.780
95392W        W67685  36.400  34.087   3.318
95393W        W67686  19.286   7.375   0.897
95394W        W67687  28.092  32.403   0.743
95395W        W67688  32.391  22.092   3.701
95396W        W67689  37.063  28.540  10.995
95397W        W67690   7.863   9.725   1.890
95398W        W67691  18.142  16.306  14.821
95399W        W67692  31.481  20.675  11.914
95400W        W67693  22.650  35.987   2.879
95401W        W67694  11.680  43.768   0.775
95402W        W67695   0.278  18.271   2.380
95403W        W67696  16.578  30.978  13.795
95404W        W67697  28.968   3.248  12.547
95405W        W67698  16.794  37.346  13.481
95406W        W67699   5.690  26.129  10.955
95407W        W67700   2.812  15.329   2.867
95408W        W67701  19.677  14.319  14.319
95409W        W67702  17.644   8.231   1.237
95410W        W67703  17.565  33.567  14.922
95411W        W67704  18.750  35.511   2.275
95412W        W67705  13.822  28.004  12.996
95413W        W67706  27.620  14.117  11.034
95414W        W67707  17.646   6.274  10.985
95415W        W67708  44.901  26.474   2.767
95416W        W67709   5.204  36.086  13.997
95417W        W67710  29.047  43.849   2.860
95418W        W67711  44.423  44.853   3.191
95419W        W67712   6.789  33.956  13.941
95420W        W67713  40.848   6.341   4.290
95421W        W67714   9.803  11.651   1.254
95422W        W67715  40.993  20.211   0.301
95423W        W67716   0.432  37.473   2.788
95424W        W67717   9.862   1.356   4.832
95425W        W67718   3.408  28.465   4.734
95426W        W67719  27.546  25.988   0.257
95427W        W67720  27.055  29.150   4.223
95428W        W67721  21.174  34.399  14.439
95429W        W67722   7.761  23.984   2.760
95430W        W67723   0.396  22.087  12.901
95431W        W67724  36.057  41.536   4.315
95432W        W67725  33.548   7.907   3.188
95433W        W67726   4.229  21.552  12.020
95434W        W67727  43.401  22.721  13.475
95435W        W67728   1.435  17.568   2.734
95436W        W67729  27.074  30.931   4.304
95437W        W67730   5.285   6.283  11.517
95438W        W67731  26.674  28.090  10.494
95439W        W67732  11.252  21.526  14.458
95440W        W67733  18.174  23.054  14.932
95441W        W67734  43.795  33.928  12.034
95442W        W67735  10.141  31.902   0.835
95443W        W67736  29.044   5.352  14.356
95444W        W67737   3.272  32.011   3.366
95445W        W67738   6.879  21.745  12.367
95446W        W67739  30.499  12.263   0.808
95447W        W67740  33.126   5.770  12.467
95448W        W67741  12.727   7.338  14.018
95449W        W67742   0.790  32.630   4.113
95450W        W67743  30.934  11.811  13.048
95451W        W67744  11.191  17.680  11.911
95452W        W67745  36.409  23.636  14.978
95453W        W67746  27.447   9.285   4.288
95454W        W67747  38.931  44.921  14.977
95455W        W67748  32.033  14.100  12.058
95456W        W67749  20.527   9.381   2.402
95457W        W67750  16.156   4.808   1.860
95458W        W67751  35.369   4.905  10.990
95459W        W67752  34.076  11.627   0.746
95460W        W67753  12.648  26.494  11.573
95461W        W67754  36.042  42.890  11.603
95462W        W67755   1.925  31.572   1.449
95463W        W67756   3.865  40.046  14.431
95464W        W67757  39.411  10.721   0.345
95465W        W67758  13.230   5.362  14.349
95466W        W67759  39.854   1.774   3.714
95467W        W67760  44.859   8.804  13.027
95468W        W67761   4.831  17.589   3.795
95469W        W67762   4.295  11.129  12.451
95470W        W67763  25.181  15.143  11.856
95471W        W67764   1.763  41.300  13.880
95472W        W67765  41.795   9.220  14.863
95473W        W67766  14.662  38.398   3.737
95474W        W67767  19.118   5.749  14.944
95475W        W67768   4.792  14.336   0.272
95476W        W67769  14.819  24.523  10.963
95477W        W67770  32.564  33.531  10.938
95478W        W67771  36.555   8.329  13.329
95479W        W67772   6.308  18.696   3.831
95480W        W67773  17.801  23.108   2.288
95481W        W67774   4.401  25.685   1.344
95482W        W67775  37.500  10.735   2.286
95483W        W67776  22.073  13.113  12.088
95484W        W67777  33.585   7.177  12.440
95485W        W67778  36.997  27.506  14.987
95486W        W67779  21.664  28.455   1.934
95487W        W67780   1.420  41.935  12.829
95488W        W67781  30.996   2.845  12.557
95489W        W67782  39.330  30.081  12.057
95490W        W67783  44.494  22.035  12.937
95491W        W67784   1.780  33.055   3.250
95492W        W67785  43.765   8.661   4.139
95493W        W67786  36.401   2.728  11.558
95494W        W67787  33.125   6.866   0.440
95495W        W67788  22.735  40.890  13.506
95496W        W67789   3.792  41.787   2.344
95497W        W67790  15.326   5.200   4.135
95498W        W67791  40.543  17.173  14.866
95499W        W67792   2.427  26.151  13.487
95500W        W67793  17.791   4.870   1.360
95501W        W67794  14.807  38.049  14.969
95502W        W67795  31.571  12.187  13.328
95503W        W67796   5.806   2.764   4.145
95504W        W67797  11.280  28.134  13.807
95505W        W67798   2.311  36.017  10.550
95506W        W67799  18.118  39.516  10.587
95507W        W67800  42.328  26.179   1.931
95508W        W67801  34.557  13.642  10.568
95509W        W67802   7.757  10.183  14.953
95510W        W67803  39.048   2.280  11.602
95511W        W67804  40.409  39.437   1.815
95512W        W67805  38.395  24.107  14.852
95513W        W67806  18.627   9.381   4.201
95514W        W67807  42.866  16.266   4.264
95515W        W67808  39.535  19.063  11.892
95516W        W67809  43.942  42.331  14.465
95517W        W67810  40.972   2.810   1.848
95518W        W67811   1.266  31.924   4.823
95519W        W67812  19.619  34.958  13.810
95520W        W67813  15.237  21.662  10.958
95521W        W67814  37.008  22.210  11.109
95522W        W67815  18.101  15.672   1.437
95523W        W67816  14.595  37.935  13.535
95524W        W67817   3.824  41.364  11.040
95525W        W67818  32.124  35.032   3.251
95526W        W67819  31.953  39.019   4.779
95527W        W67820  17.078  25.523  11.433
95528W        W67821  42.813   4.750  12.365
95529W        W67822  23.532  14.156   3.842
95530W        W67823  12.822   5.705  13.939
95531W        W67824  37.855  12.314  12.018
95532W        W67825  16.661  18.778  10.420
95533W        W67826  14.754  11.312   0.387
95534W        W67827  10.280  25.613   3.663
95535W        W67828  26.488  28.013   3.353
95536W        W67829  40.476   7.794  13.420
95537W        W67830   2.440   4.726  13.467
95538W        W67831  44.996  34.052   5.153
95539W        W67832  23.169  17.761   2.722
95540W        W67833  11.282  35.926  14.494
95541W        W67834   6.779   2.853   1.897
95542W        W67835  28.559  11.152   3.372
95543W        W67836  38.540  14.262   0.768
95544W        W67837  42.513  16.088  14.283
95545W        W67838   6.419  30.450   1.336
95546W        W67839   3.830  42.326   0.430
95547W        W67840  11.626   0.311  13.345
95548W        W67841  27.034  25.034  14.347
95549W        W67842   3.318  15.736   0.788
95550W        W67843  26.174  19.082  13.481
95551W        W67844  27.023  28.135  10.024
95552W        W67845   5.327   6.302   2.348
95553W        W67846  23.609  38.069   0.967
95554W        W67847   5.757  44.386   3.847
95555W        W67848   8.344  40.408   4.170
95556W        W67849   6.754  20.622   2.842
95557W        W67850  32.088   8.717   4.794
95558W        W67851  41.455  40.331   2.286
95559W        W67852  11.159  21.060  12.046
95560W        W67853  25.011  29.576   4.119
95561W        W67854   2.236  34.118   4.613
95562W        W67855  12.684  42.457   1.418
95563W        W67856   7.850   8.254   1.893
95564W        W67857  34.484  25.603   0.914
95565W        W67858  25.645  36.013   0.324
95566W        W67859  33.532   5.439   3.829
95567W        W67860  43.375  44.427   2.311
95568W        W67861  15.740   1.454   0.424
95569W        W67862  10.255  11.642  10.531
95570W        W67863   7.201   3.947   2.418
95571W        W67864  37.033  28.680   2.663
95572W        W67865  40.846   9.198  11.011
95573W        W67866  11.212  38.906   3.715
95574W        W67867  12.298  38.562  13.395
95575W        W67868   6.918   8.784  14.377
95576W        W67869  44.356  40.847   4.670
95577W        W67870  27.597   3.345  13.493
95578W        W67871  20.125  22.697  13.836
95579W        W67872   1.764  16.213  11.965
95580W        W67873  14.605  17.143  11.521
95581W        W67874  27.570  27.466   1.759
95582W        W67875  14.616  37.426  12.922
95583W        W67876  43.479  11.152   1.833
95584W        W67877  41.965  25.971   0.947
95585W        W67878  24.982  15.158   4.729
95586W        W67879  44.778  26.534  10.130
95587W        W67880   5.319   6.246   3.686
95588W        W67881  33.591  19.204  12.096
95589W        W67882  10.149  34.387  12.014
95590W        W67883  18.087  24.515  11.006
95591W        W67884  40.343   5.316  14.870
95592W        W67885  13.138  13.670  12.953
95593W        W67886  27.122   5.332   3.775
95594W        W67887  22.067  30.100  10.474
95595W        W67888  24.101  25.475  13.321
95596W        W67889  42.431  18.552   2.773
95597W        W67890  20.162  10.665   3.661
95598W        W67891  33.584  42.848  12.498
95599W        W67892  43.000  22.652   4.650
95600W        W67893  43.946  25.200   3.323
95601W        W67894  24.667   0.839  12.886
95602W        W67895  29.431   0.841   2.271
95603W        W67896  34.591  43.499  13.851
95604W        W67897  33.026  38.931  11.493
95605W        W67898  38.508  10.688  13.959
95606W        W67899  29.472  20.101   2.412
95607W        W67900  18.561  23.171   5.298
95608W        W67901  12.262  22.249   2.361
95609W        W67902   7.687  12.237  12.503
95610W        W67903  12.723  34.926   1.299
95611W        W67904  42.281   0.365   2.902
95612W        W67905  11.321  35.907  11.503
95613W        W67906  17.278  30.543   3.222
95614W        W67907  18.058  26.563  13.942
95615W        W67908   1.905  30.454  13.456
95616W        W67909  37.914   3.370   3.866
95617W        W67910  15.672  24.046   4.238
95618W        W67911   3.756  24.166   0.837
95619W        W67912  21.671   9.752   3.777
95620W        W67913  27.531   4.306  12.398
95621W        W67914  11.818  34.425   3.847
95622W        W67915  24.696   6.797   4.714
95623W        W67916  42.011  18.166  11.486
95624W        W67917   9.686  41.987  10.464
95625W        W67918   1.802  28.035  12.434
95626W        W67919  35.891   4.251   1.903
95627W        W67920  12.730  43.934   4.280
95628W        W67921  32.402  37.418   9.979
95629W        W67922  22.048   6.767   1.286
95630W        W67923  14.751   0.822  14.773
95631W        W67924  44.350  18.738   1.790
95632W        W67925  34.541  29.087   3.671
95633W        W67926  21.025  23.201   0.352
95634W        W67927  15.720  43.325   3.662
95635W        W67928  23.064   8.810   1.438
95636W        W67929  16.122  36.895   4.613
95637W        W67930  18.575  16.244   4.685
95638W        W67931  31.905  30.519  13.882
95639W        W67932  32.571  15.657  14.016
95640W        W67933   7.825  34.489   3.782
95641W        W67934   5.325  37.528   2.786
95642W        W67935  13.794  26.044  11.027
95643W        W67936  37.542  20.204   0.318
95644W        W67937  15.671  42.847  11.608
95645W        W67938  23.237   4.731   5.747
95646W        W67939  16.751   1.930  13.399
95647W        W67940  40.409   4.276   1.722
95648W        W67941   6.688  44.461   3.373
95649W        W67942  44.349  34.565  11.437
95650W        W67943   6.410   8.840   0.460
95651W        W67944  14.605   2.455   1.371
95652W        W67945   1.974   3.860  11.855
95653W        W67946  15.786   5.692   2.333
95654W        W67947  38.466  15.284   2.803
95655W        W67948  16.137  21.709  13.903
95656W        W67949  18.596   9.818   4.626
95657W        W67950  16.718   1.954   1.443
95658W        W67951  42.969   5.733  14.487
95659W        W67952   5.752   5.260   3.753
95660W        W67953  40.325  33.013  12.390
95661W        W67954  19.618   8.806  10.533
95662W        W67955  34.457  44.482   2.244
95663W        W67956  20.626  15.284  11.000
95664W        W67957  23.066  36.874   3.238
95665W        W67958   5.374  13.341   1.867
95666W        W67959   4.233   8.811   5.204
95667W        W67960   1.483  42.452   1.274
95668W        W67961   6.272   7.200  12.912
95669W        W67962  20.625   3.749  12.423
95670W        W67963  24.608  41.375   3.187
95671W        W67964  36.493  18.686  12.824
95672W        W67965   8.707   9.174  12.015
95673W        W67966   8.762  14.745  13.534
95674W        W67967  35.577  37.063  11.400
95675W        W67968  37.489  20.263   4.598
95676W        W67969  16.667  18.732  14.825
95677W        W67970  10.294  20.235   2.857
95678W        W67971   0.791   3.243  12.478
95679W        W67972   4.263  41.536  14.306
95680W        W67973   6.875  25.697  14.922
95681W        W67974  38.821  31.548   0.374
95682W        W67975  27.122   9.159  13.387
95683W        W67976  25.656  33.979   3.800
95684W        W67977  24.578  39.860  10.934
95685W        W67978  35.560  22.653   1.930
95686W        W67979  24.125  44.767   3.749
95687W        W67980  31.532  18.710   3.358
95688W        W67981   7.745   7.668   0.851
95689W        W67982  41.979  40.858  14.024
95690W        W67983  34.904   6.779   3.711
95691W        W67984  29.067  33.618   4.598
95692W        W67985  36.477  42.327  12.849
95693W        W67986  40.049  42.468   1.916
95694W        W67987  16.122  15.698   0.808
95695W        W67988  39.374  17.067   0.420
95696W        W67989  34.526   1.471  13.427
95697W        W67990  38.413  14.315  10.900
95698W        W67991  36.937  20.574  14.876
95699W        W67992  33.580  28.436   1.734
95700W        W67993  19.561  38.017  11.014
95701W        W67994  32.454  44.441  11.391
95702W        W67995  17.783  23.209   0.740
95703W        W67996  10.340  33.042   0.269
95704W        W67997  20.706   3.453  12.526
95705W        W67998  35.584  44.476   1.313
95706W        W67999  27.584  34.528  10.999
95707W        W68000  11.284  29.936   2.681
95708W        W68001  21.217  33.022   3.871
95709W        W68002  24.665  44.435  12.475
95710W        W68003  26.681  12.778   4.283
95711W        W68004  37.419  22.115  11.108
95712W        W68005  28.130  43.990   2.238
95713W        W68006  43.979  44.278  13.530
95714W        W68007  14.832  12.276  14.785
95715W        W68008  35.438  12.724  11.544
95716W        W68009  21.058  29.455  14.358
95717W        W68010  37.372  31.996  12.007
95718W        W68011  12.800  32.004  10.437
95719W        W68012  34.024   1.270   1.779
95720W        W68013  28.100  33.485  14.831
95721W        W68014   9.843   0.322   0.441
95722W        W68015  28.150  37.417  11.033
95723W        W68016  34.561  17.145  11.041
95724W        W68017  12.689  27.169  12.509
95725W        W68018  17.558   4.354   2.201
95726W        W68019   6.241  36.971   3.196
95727W        W68020   9.729  22.686   4.771
95728W        W68021   7.406  11.263  13.472
95729W        W68022  41.865  22.706   2.215
95730W        W68023  40.404  43.982   9.969
95731W        W68024  13.248  15.721   9.943
95732W        W68025   1.363  36.089   0.475
95733W        W68026  24.062   4.317   2.678
95734W        W68027  30.594  39.397  14.289
95735W        W68028  10.329  24.179  12.987
95736W        W68029  36.448  30.621   9.925
95737W        W68030  21.698   8.679   3.785
95738W        W68031  43.988  28.180  13.970
95739W        W68032  28.114  44.883  12.566
95740W        W68033  15.211  35.537  12.358
95741W        W68034  33.618  13.342   0.798
95742W        W68035  42.004  12.773   2.362
95743W        W68036   9.344  29.036  13.349
95744W        W68037  28.584  44.370  10.581
95745W        W68038  15.235  32.543  13.945
95746W        W68039  13.149  38.890   9.999
95747W        W68040  22.555   3.739   5.274
95748W        W68041  43.326  38.331   1.748
95749W        W68042  16.729  43.436  13.338
95750W        W68043   9.321  32.460  11.384
95751W        W68044  28.186  13.677  11.904
95752W        W68045  14.167   0.858   3.255
95753W        W68046  19.182   4.218  13.389
95754W        W68047   4.297  21.531   0.468
95755W        W68048   0.905   7.221  13.393
95756W        W68049  25.035  13.842  12.428
95757W        W68050   7.846  33.506   0.759
95758W        W68051   5.837   4.418  12.455
95759W        W68052  37.471   2.864   2.678
95760W        W68053   9.776   7.252  13.376
95761W        W68054  31.963  44.408  12.871
95762W        W68055  22.240  40.348   2.795
95763W        W68056  18.292  14.307   2.187
95764W        W68057  42.992  19.570  10.452
95765W        W68058  21.244  26.632   3.752
95766W        W68059   9.880  32.607   2.194
95767W        W68060  44.982  39.516  13.427
95768W        W68061  44.817  35.433  11.855
95769W        W68062  10.854  22.183   2.293
95770W        W68063  31.955  13.120   1.373
95771W        W68064  41.441  32.111   3.653
95772W        W68065  13.261  12.301   3.870
95773W        W68066  36.072  27.595   2.697
95774W        W68067  15.153  15.220  11.556
95775W        W68068  23.071   6.805   0.886
95776W        W68069  21.585  37.977   0.776
95777W        W68070  29.521  43.786   4.354
95778W        W68071  31.594  22.553   2.845
95779W        W68072   9.262  31.574  13.881
95780W        W68073  11.841  24.220   4.219
95781W        W68074  43.423   3.929  11.062
95782W        W68075  12.227  26.579  11.487
95783W        W68076  10.866  20.189  13.892
95784W        W68077   3.752  31.989  11.541
95785W        W68078  23.005  25.628   1.904
95786W        W68079  24.627  43.441   4.782
95787W        W68080  32.893  11.314   2.380
95788W        W68081   7.352  27.481  11.909
95789W        W68082  13.350  20.169  10.984
95790W        W68083   4.703   0.389   2.829
95791W        W68084  23.067  20.657   4.316
95792W        W68085  28.547  14.201  13.045
95793W        W68086  38.042  23.653  14.859
95794W        W68087   9.646  44.865   3.705
95795W        W68088   9.289   8.358  12.540
95796W        W68089  31.427  22.577   3.820
95797W        W68090  12.178  16.743  11.543
95798W        W68091  31.440  18.739   0.789
95799W        W68092  44.763  39.052   1.217
95800W        W68093  12.744  41.344   3.196
95801W        W68094  29.086  31.979  10.552
95802W        W68095  15.094   1.816   5.273
95803W        W68096  19.238  15.146  14.457
95804W        W68097  36.066  10.316  11.036
95805W        W68098  41.378  23.707   3.769
95806W        W68099   8.846  20.192   2.825
95807W        W68100  34.440  35.551  14.372
95808W        W68101  37.446  33.402  12.868
95809W        W68102  19.649   4.804  12.470
95810W        W68103  26.617  17.100  12.492
95811W        W68104  21.213   7.836   3.242
95812W        W68105  10.641  16.687  12.994
95813W        W68106  40.868   0.785  14.792
95814W        W68107   4.211  24.486   4.799
95815W        W68108  25.050  42.496  12.053
95816W        W68109   3.359  39.030   0.405
95817W        W68110  35.495  26.039   4.287
95818W        W68111  31.129  15.215   0.840
95819W        W68112  20.581  20.156  12.830
95820W        W68113  22.523  32.391   2.414
95821W        W68114  22.107  20.120  14.313
95822W        W68115  33.947  24.133   2.346
95823W        W68116  25.599   1.791  11.038
95824W        W68117  10.250  25.507  10.569
95825W        W68118  20.755  40.936   4.768
95826W        W68119   6.814  32.943  14.023
95827W        W68120   6.422  34.374  12.545
95828W        W68121  13.327  24.572  14.823
95829W        W68122  36.504   5.859  13.955
95830W        W68123  22.214  37.530   4.226
95831W        W68124  30.501  18.275  13.802
95832W        W68125   8.861  18.269   3.356
95833W        W68126  18.116  14.602  10.525
95834W        W68127   2.340  43.908   4.598
95835W        W68128  16.667   3.279  10.446
95836W        W68129  29.558  26.021   2.795
95837W        W68130   0.453   9.872   1.829
95838W        W68131  31.096  31.490  10.472
95839W        W68132  32.564  15.190  10.432
95840W        W68133  33.930  37.030   2.672
95841W        W68134  20.051  27.503  13.864
95842W        W68135  16.631   6.758   2.852
95843W        W68136  32.950  19.052   0.828
95844W        W68137   3.222  22.077   1.245
95845W        W68138  27.090   9.288   3.184
95846W        W68139   8.707  40.306   2.208
95847W        W68140   5.247   8.868   3.857
95848W        W68141  32.633  14.801   1.301
95849W        W68142  26.967  24.106  14.506
95850W        W68143  34.455  22.677   4.134
95851W        W68144  38.972  26.168   9.961
95852W        W68145  34.394  26.542  11.089
95853W        W68146  26.556  43.476   1.422
95854W        W68147  11.814   4.342  11.581
95855W        W68148  41.988  12.238   2.344
95856W        W68149  35.054  12.243  14.937
95857W        W68150  17.655  21.663  11.872
95858W        W68151  36.060  36.405  12.540
95859W        W68152  35.442  32.135   4.792
95860W        W68153   9.366  41.964   0.920
95861W        W68154  31.534  33.493   3.811
95862W        W68155  23.179   8.333   0.289
95863W        W68156  30.141  33.959  12.463
95864W        W68157  43.793  14.680  14.458
95865W        W68158  35.983  26.191   3.258
95866W        W68159   1.780  26.137   3.237
95867W        W68160  39.957  13.637  11.418
95868W        W68161   4.900  34.560  11.907
95869W        W68162  18.230  41.358  14.306
95870W        W68163  29.609  13.257   2.191
95871W        W68164  16.745  43.840  13.874
95872W        W68165  37.459  36.478  11.082
95873W        W68166   2.422  25.972   0.941
95874W        W68167  24.081  10.852  14.328
95875W        W68168  26.680  11.302   4.333
95876W        W68169  28.008  31.025   3.283
95877W        W68170  29.968  17.265  14.858
95878W        W68171  21.528   9.239  13.927
95879W        W68172  28.673  32.908   0.827
95880W        W68173  16.622  33.938  11.405
95881W        W68174   4.438  13.672  14.443
95882W        W68175   5.744  33.616  12.512
95883W        W68176   1.468  32.124   5.322
95884W        W68177  30.093  19.164   4.228
95885W        W68178  44.432  37.924   3.323
95886W        W68179   2.306  20.621   3.848
95887W        W68180  14.314  29.656   3.772
95888W        W68181  21.082  24.544   2.682
95889W        W68182  15.117  34.875  10.979
95890W        W68183   6.398  14.339   1.441
95891W        W68184   4.291  27.481  11.982
95892W        W68185  36.953   1.243  13.314
95893W        W68186  34.598  30.164   3.292
95894W        W68187  31.931  26.515  12.051
95895W        W68188  36.080  32.451   0.384
95896W        W68189  25.122  39.958  14.003
95897W        W68190  37.457   7.724  14.832
95898W        W68191  19.716  24.580  14.953
95899W        W68192  29.597  43.902  10.429
95900W        W68193  31.518  42.815  12.057
95901W        W68194  37.582  16.107   4.280
95902W        W68195   8.797  40.009   3.786
95903W        W68196   7.239  33.119  12.385
95904W        W68197   0.851   3.444  10.501
95905W        W68198   1.765  15.287   3.739
95906W        W68199  32.040  43.331  14.403
95907W        W68200  27.612  20.208  10.579
95908W        W68201  10.350  40.928  13.421
95909W        W68202  13.769   0.296  12.998
95910W        W68203  39.818  20.200  11.002
95911W        W68204  15.176  28.050  12.998
95912W        W68205  30.142  31.433  14.426
95913W        W68206   7.327  26.000  14.461
95914W        W68207  19.538  42.294   4.780
95915W        W68208  36.842  31.462  10.474
95916W        W68209  27.039  44.336  10.925
95917W        W68210  44.964  20.238   4.620
95918W        W68211   4.383  44.857   1.219
95919W        W68212   8.722  19.264   1.356
95920W        W68213   2.387  20.053  14.357
95921W        W68214  39.527   3.314   1.758
95922W        W68215   8.257  15.593   3.752
95923W        W68216  41.914  30.975  10.419
95924W        W68217  33.068  29.528   1.829
95925W        W68218  40.001  29.952   1.416
95926W        W68219  12.764  21.040   2.268
95927W        W68220  34.977  35.593   1.425
95928W        W68221  10.633  17.645   3.734
95929W        W68222  14.228  35.930   3.362
95930W        W68223  13.732  30.093   4.337
95931W        W68224  12.190   2.955   4.257
95932W        W68225  29.503   4.781   4.225
95933W        W68226  42.356  34.382  10.958
95934W        W68227  12.840   5.696   3.284
95935W        W68228   1.859   7.394  13.799
95936W        W68229  41.885  34.452  14.302
95937W        W68230   9.862  36.508   0.730
95938W        W68231  25.033  43.329  11.903
95939W        W68232  29.451   4.369   0.926
95940W        W68233  23.595   0.889   2.733
95941W        W68234   3.228  34.902  10.527
95942W        W68235  11.866  15.281  11.899
95943W        W68236  37.483  24.097  11.461
95944W        W68237  18.058  12.762  12.453
95945W        W68238  13.351  38.549  14.460
95946W        W68239  18.758  15.149  11.523
95947W        W68240  19.588   7.778  14.003
95948W        W68241  10.864  34.447  10.614
95949W        W68242  39.350  40.331   3.796
95950W        W68243  15.787   5.357   1.309
95951W        W68244  22.064  20.723   3.694
95952W        W68245  24.085  12.854  10.462
95953W        W68246  20.709  31.998   1.404
95954W        W68247   6.870  11.682  10.918
95955W        W68248  30.952   7.407  14.020
95956W        W68249   6.377  23.066   4.305
95957W        W68250   6.682   7.416   2.269
95958W        W68251  32.630  27.637   1.927
95959W        W68252   3.286  39.883  12.995
95960W        W68253  11.323  33.419  11.477
95961W        W68254  23.101  29.151  13.982
95962W        W68255  25.143  29.983  11.064
95963W        W68256  13.664  30.033   0.331
95964W        W68257  33.992  20.617   1.924
95965W        W68258  15.660  15.743  14.828
95966W        W68259  30.974   6.811  14.315
95967W        W68260  23.597  10.378   0.784
95968W        W68261   5.275  29.073   3.333
95969W        W68262  44.320  30.459  12.567
95970W        W68263  32.460   8.355   3.789
95971W        W68264  18.130   2.325  12.975
95972W        W68265  29.982  43.307   2.756
95973W        W68266  39.399  29.024   3.371
95974W        W68267  23.702  32.601  14.779
95975W        W68268  42.408  27.136   0.949
95976W        W68269  24.187  13.124   4.675
95977W        W68270  40.951   7.700  12.875
95978W        W68271  43.466   3.224   4.235
95979W        W68272  11.325  39.964  12.083
95980W        W68273  40.462  32.042   1.420
95981W        W68274  25.646  40.040   2.689
95982W        W68275  38.369  34.370  11.070
95983W        W68276  38.325  25.114  14.357
95984W        W68277  19.652  12.210  11.981
95985W        W68278  21.727  12.181  10.628
95986W        W68279  25.549   3.732  14.426
95987W        W68280  36.557   2.723   1.416
95988W        W68281  20.566   6.762   4.177
95989W        W68282  21.080   4.385  10.630
95990W        W68283  11.717   6.734   0.910
95991W        W68284   1.966  11.314   3.668
95992W        W68285   7.242  24.154   1.270
95993W        W68286  28.095  13.310   3.719
95994W        W68287   3.313  41.025  14.015
95995W        W68288  23.584  36.862  11.876
95996W        W68289   1.760  28.457   2.804
95997W        W68290  10.233  26.485   0.370
95998W        W68291  41.920  10.796  12.997
95999W        W68292  33.415  28.539  14.310
96000W        W68293  20.539  25.130   2.287
96001W        W68294  25.593  42.863  11.374
96002W        W68295  42.955   1.363  13.476
96003W        W68296  12.763  22.527   4.284
96004W        W68297   8.718  32.113   3.359
96005W        W68298  24.599  38.881  12.981
96006W        W68299  34.071   6.407   2.679
96007W        W68300  32.095   6.335   1.804
96008W        W68301  39.910   5.330   0.839
96009W        W68302  34.918   2.879  10.592
96010W        W68303  20.222  38.495   3.807
96011W        W68304  35.918  19.082  14.791
96012W        W68305  22.558   4.727   4.262
96013W        W68306   7.370  19.752   3.209
96014W        W68307   3.372  22.232  11.080
96015W        W68308  17.090  34.891  14.298
96016W        W68309  13.270  22.152   1.849
96017W        W68310  38.954  28.557   4.222
96018W        W68311  11.770  38.966   1.908
96019W        W68312  43.920  26.193  10.465
96020W        W68313  17.082  43.322  11.082
96021W        W68314   5.358  39.900  10.931
96022W        W68315  20.657  40.797  13.986
96023W        W68316  24.704  13.189  10.596
96024W        W68317  23.041  13.207  10.569
96025W        W68318   8.388  41.967  12.077
96026W        W68319   8.813  28.638  12.374
96027W        W68320  34.104  25.040   1.261
96028W        W68321  11.346  24.542   3.725
96029W        W68322  29.454  15.704   2.274
96030W        W68323  10.259  28.045  11.388
96031W        W68324  17.562  21.237  13.024
96032W        W68325  39.995  21.717   0.807
96033W        W68326  38.059   1.328   2.369
96034W        W68327  14.172  18.588  14.377
96035W        W68328   3.254   6.352  14.295
96036W        W68329  34.919  28.125   0.957
96037W        W68330  23.654   2.445  13.926
96038W        W68331  25.215  25.130   3.363
96039W        W68332  24.198  27.463  10.570
96040W        W68333  24.087  35.375   4.716
96041W        W68334  43.307   5.291   4.237
96042W        W68335  32.931  15.110  11.025
96043W        W68336  17.119  31.614  10.572
96044W        W68337  22.183  43.387   1.720
96045W        W68338  44.779  16.714   9.602
96046W        W68339  26.120  31.016   2.388
96047W        W68340  32.537  16.167  12.073
96048W        W68341  39.894  30.064  13.872
96049W        W68342  23.198  39.814   2.814
96050W        W68343  18.158   1.763   0.339
96051W        W68344  28.964  16.206   1.853
96052W        W68345  16.679  34.934  12.953
96053W        W68346  43.472  31.097   3.227
96054W        W68347   7.216  30.983   1.731
96055W        W68348  40.426  19.723   0.311
96056W        W68349  37.082  36.508  13.838
96057W        W68350  24.629   9.667   0.876
96058W        W68351  34.939  23.987   5.190
96059W        W68352   8.803  16.252  12.976
96060W        W68353  26.167  27.469  11.052
96061W        W68354  37.425  13.180   4.344
96062W        W68355  20.524  11.136   2.321
96063W        W68356  26.001  24.600   3.213
96064W        W68357  26.648  44.346  13.347
96065W        W68358  25.525  43.471   1.697
96066W        W68359  16.604  36.923  11.934
96067W        W68360  21.093  39.956   2.755
96068W        W68361  22.701  20.101   3.781
96069W        W68362  11.750   1.480  12.847
96070W        W68363  18.627  28.975   1.344
96071W        W68364  25.638  14.212   1.845
96072W        W68365  38.049  43.780  10.933
96073W        W68366  29.034  29.602   0.861
96074W        W68367  27.636  37.579   3.197
96075W        W68368  23.183  17.753  12.008
96076W        W68369  33.489  35.025   2.261
96077W        W68370  16.637   4.340   4.190
96078W        W68371  37.383  19.673   2.277
96079W        W68372  23.536   8.766  13.521
96080W        W68373  33.557  36.421  11.520
96081W        W68374  31.559   9.847   3.770
96082W        W68375  10.184   6.284   0.851
96083W        W68376  42.980  43.837  13.874
96084W        W68377  32.402  18.062   4.786
96085W        W68378   9.268  35.078  12.872
96086W        W68379  44.882  34.496   4.160
96087W        W68380  30.588  33.963   3.368
96088W        W68381  24.229  17.276   5.250
96089W        W68382   4.433  29.534   3.181
96090W        W68383  32.909   9.172  10.465
96091W        W68384   1.744   8.294  10.583
96092W        W68385  19.558  20.759   0.732
96093W        W68386  27.114  27.090   2.377
96094W        W68387   3.935  44.450  10.041
96095W        W68388  33.547  43.492   0.318
96096W        W68389  28.586  44.273   3.264
96097W        W68390  15.650  39.508   2.397
96098W        W68391  13.341   9.645   3.314
96099W        W68392  22.047  38.888   0.324
96100W        W68393  13.105  25.101  11.971
96101W        W68394  33.501  36.044   3.172
96102W        W68395   2.279  13.775   4.176
96103W        W68396  17.624  32.428  13.544
96104W        W68397  38.539  20.674  14.842
96105W        W68398  17.785  19.157  10.963
96106W        W68399   7.702  22.504   0.762
96107W        W68400  20.737  36.430  10.607
96108W        W68401  10.662   7.322  11.973
96109W        W68402  33.504  11.161   0.923
96110W        W68403  14.762  34.388   3.652
96111W        W68404  14.099  17.681  11.955
96112W        W68405  35.913  27.105  11.500
96113W        W68406  32.082  12.126   2.847
96114W        W68407  37.495   9.354  12.399
96115W        W68408  13.767  36.044  12.433
96116W        W68409  13.729  20.559  12.962
96117W        W68410  13.271  42.508   4.790
96118W        W68411  23.615  26.094   4.197
96119W        W68412  28.114   0.920   3.216
96120W        W68413  22.230  18.207   2.336
96121W        W68414  24.176  38.366  14.414
96122W        W68415  27.017  16.758  13.834
96123W        W68416  44.387  14.186   1.835
96124W        W68417  25.662   9.874  12.025
96125W        W68418   9.246  35.910   2.707
96126W        W68419  32.507  17.642   0.300
96127W        W68420  42.316  28.641  11.396
96128W        W68421   5.396  24.607  14.826
96129W        W68422  15.208  40.980  12.060
96130W        W68423  36.089  10.650   2.289
96131W        W68424  30.090  24.975  14.911
96132W        W68425  17.626  33.508   1.845
96133W        W68426  43.993   3.900  12.513
96134W        W68427   2.838  14.765  14.861
96135W        W68428  11.741  31.633  12.345
96136W        W68429  29.462  16.687   4.157
96137W        W68430  38.420  15.670   4.814
96138W        W68431  25.638  12.797   0.845
96139W        W68432  28.559  34.025  13.909
96140W        W68433  32.587  19.693   2.400
96141W        W68434  26.608   7.854   0.889
96142W        W68435  17.250  37.433   1.885
96143W        W68436  34.579  30.652   3.749
96144W        W68437   5.789  20.181   4.732
96145W        W68438   3.882   1.273  12.074
96146W        W68439  13.207  17.256  14.485
96147W        W68440  30.977   3.324  14.510
96148W        W68441  26.531  18.066  11.486
96149W        W68442  32.485  29.934  14.909
96150W        W68443   5.300  43.935   3.299
96151W        W68444   2.441  12.763  10.420
96152W        W68445   9.711  10.856   1.363
96153W        W68446   6.421  32.908  12.024
96154W        W68447  18.097  21.108  13.444
96155W        W68448  39.827  31.958   3.368
96156W        W68449  21.592  14.132   4.622
96157W        W68450  34.960  13.833  13.962
96158W        W68451  23.655   6.726  12.489
96159W        W68452  23.717   3.742  14.861
96160W        W68453  36.535  39.930  10.443
96161W        W68454  22.241  26.651   4.798
96162W        W68455  27.112  10.238  14.812
96163W        W68456   4.894  41.805   4.285
96164W        W68457  30.931  37.500  11.573
96165W        W68458  31.621   8.863   4.139
96166W        W68459  43.297  40.910  11.521
96167W        W68460  33.061  33.471   3.176
96168W        W68461  43.294  17.136  12.913
96169W        W68462  19.698  24.140   0.956
96170W        W68463  43.283  32.556  13.953
96171W        W68464  29.451  31.528  11.873
96172W        W68465  28.081  13.627   4.764
96173W        W68466   5.397  25.025   5.190
96174W        W68467   5.810  40.821  12.549
96175W        W68468  44.333  34.382  13.432
96176W        W68469   9.767  43.935   2.777
96177W        W68470  12.297  27.481  14.486
96178W        W68471   7.899  31.503  11.977
96179W        W68472  18.755  25.982   2.402
96180W        W68473  35.030  28.547   2.682
96181W        W68474  28.098  10.141  10.429
96182W        W68475   8.233  43.938  11.097
96183W        W68476  10.233  25.554  12.351
96184W        W68477  36.437  17.138  12.364
96185W        W68478  14.828  25.678  11.954
96186W        W68479  42.029  10.294   3.229
96187W        W68480  34.037  37.913   2.344
96188W        W68481  20.178  27.053  12.968
96189W        W68482  24.038  42.803   3.817
96190W        W68483   2.374   7.790  12.852
96191W        W68484  20.229  18.203   2.307
96192W        W68485  21.064  29.017  11.873
96193W        W68486  16.095  22.663  12.853
96194W        W68487  26.179  33.084  11.041
96195W        W68488  20.726  10.367   0.804
96196W        W68489  30.159   1.450  11.515
96197W        W68490  27.041  33.564  10.946
96198W        W68491  19.275  15.762   1.714
96199W        W68492  30.606   3.233  13.963
96200W        W68493   0.343  43.972  12.085
96201W        W68494  28.674  26.070   2.313
96202W        W68495  15.128   9.310  12.074
96203W        W68496  38.826  43.838  10.637
96204W        W68497  14.827  19.168   4.215
96205W        W68498  14.642   3.952   4.287
96206W        W68499  33.008  27.608   1.815
96207W        W68500   2.732   8.794   1.705
96208W        W68501  41.881   4.892  13.429
96209W        W68502  11.189  40.307  13.328
96210W        W68503  11.148  15.764   0.820
96211W        W68504   3.269  14.741   2.242
96212W        W68505  26.157   8.858  14.780
96213W        W68506  38.005   0.423  13.389
96214W        W68507   8.735  12.733   4.645
96215W        W68508  26.976  15.798  10.160
96216W        W68509  15.644  42.776  14.030
96217W        W68510  11.256  19.228   3.728
96218W        W68511   6.329  20.551   2.854
96219W        W68512  23.123  12.323   2.351
96220W        W68513  19.125  32.595  12.572
96221W        W68514  25.113   6.878   1.357
96222W        W68515  31.903  12.781   4.343
96223W        W68516   3.836  15.772   2.889
96224W        W68517   6.879  32.124   0.890
96225W        W68518   6.716   3.776  11.433
96226W        W68519  22.234  32.549   4.177
96227W        W68520   4.889  36.886   3.651
96228W        W68521  33.595  13.346   5.115
96229W        W68522  31.495  28.940  12.518
96230W        W68523  24.074  22.252   3.651
96231W        W68524  24.648   2.784  10.580
96232W        W68525  39.516  20.046   4.815
96233W        W68526  17.303  13.133   4.330
96234W        W68527  17.197  16.793   0.871
96235W        W68528  14.788  16.137   1.926
96236W        W68529  10.328  21.260   2.860
96237W        W68530  10.239  40.875  14.820
96238W        W68531  17.135  28.131   4.126
96239W        W68532  41.982  24.657  12.894
96240W        W68533   3.816   2.270  12.477
96241W        W68534  42.441  10.294   0.422
96242W        W68535   7.259  15.241   2.689
96243W        W68536   3.297  11.662   0.292
96244W        W68537  19.256  32.449   1.288
96245W        W68538   5.717   4.925  14.364
96246W        W68539  31.456  33.472  14.437
96247W        W68540  12.853   1.847   4.135
96248W        W68541  31.576  21.647   4.801
96249W        W68542  37.393  37.523  13.895
96250W        W68543  21.228  17.173   2.761
96251W        W68544  11.777  10.798  12.894
96252W        W68545  17.092  26.186  11.981
96253W        W68546  37.023  30.032  10.976
96254W        W68547   3.897  16.595  12.853
96255W        W68548  27.472  14.312  12.408
96256W        W68549  31.930  11.247   3.639
96257W        W68550  44.428  19.109  12.946
96258W        W68551  36.571  18.189  13.021
96259W        W68552  17.140  40.982  14.964
96260W        W68553   2.252  42.421  11.516
96261W        W68554  36.415   2.917   0.342
96262W        W68555   9.848   5.204   2.208
96263W        W68556  29.444   1.347  13.501
96264W        W68557   8.165  23.657  11.416
96265W        W68558  18.229  11.184   2.293
96266W        W68559   9.712  35.542   2.206
96267W        W68560  41.398  29.590   1.703
96268W        W68561  39.489   1.864   1.907
96269W        W68562   7.867   2.775  12.931
96270W        W68563  21.633  17.757   4.831
96271W        W68564  29.919  24.226  10.894
96272W        W68565  35.889  37.882  14.955
96273W        W68566  44.425   3.230  11.933
96274W        W68567  30.590  11.155   3.727
96275W        W68568   2.826  24.577   3.702
96276W        W68569   4.384  14.784  11.100
96277W        W68570   7.861  16.652  12.368
96278W        W68571  10.637  10.339  10.583
96279W        W68572  17.107   7.322   1.330
96280W        W68573  29.140   0.435  13.490
96281W        W68574   1.402  43.960   2.768
96282W        W68575  39.914  25.662  14.923
96283W        W68576   9.229   5.783   4.816
96284W        W68577  23.558   2.840  13.489
96285W        W68578  40.837   8.725   2.274
96286W        W68579  42.866  39.049   3.635
96287W        W68580  38.559  24.083   3.220
96288W        W68581  32.560  33.957  14.342
96289W        W68582  10.767  34.049  11.099
96290W        W68583   6.779  22.076   3.345
96291W        W68584  10.302  37.526  11.120
96292W        W68585  43.430  12.719   4.146
96293W        W68586  40.517  15.725   2.700
96294W        W68587  17.276  14.315   4.835
96295W        W68588  16.739   3.847  14.956
96296W        W68589  12.155  10.142   0.810
96297W        W68590  19.663  42.288  12.379
96298W        W68591  37.030  40.360   4.779
96299W        W68592  26.594   0.309  11.980
96300W        W68593  26.581  34.415  14.794
96301W        W68594  25.179  21.182   3.667
96302W        W68595  42.885  11.651   2.249
96303W        W68596  10.763  16.141   0.909
96304W        W68597  38.514   9.709   4.788
96305W        W68598   3.225  29.661   1.837
96306W        W68599   1.797   6.884  14.957
96307W        W68600  35.949  39.412   2.268
96308W        W68601  33.041   5.230   0.809
96309W        W68602  28.661  41.474  11.891
96310W        W68603  37.435  30.133   0.802
96311W        W68604  22.669  17.759  10.473
96312W        W68605  37.565  34.454   2.255
96313W        W68606  28.944  10.142  13.466
96314W        W68607  40.986   4.393  11.001
96315W        W68608   7.809   1.770  12.451
96316W        W68609  25.020  23.645  14.345
96317W        W68610   3.365   0.294  11.045
96318W        W68611   0.966  38.498   1.412
96319W        W68612  26.119   8.259  13.014
96320W        W68613  19.194  19.273  10.571
96321W        W68614  44.790  10.287  12.060
96322W        W68615  31.940  36.930   1.722
96323W        W68616   9.742  19.249   1.316
96324W        W68617  27.186   1.894  11.988
96325W        W68618  36.041  17.785  12.381
96326W        W68619   2.832  21.040   2.790
96327W        W68620  21.702   1.787   0.935
96328W        W68621   4.818  37.363   9.959
96329W        W68622  38.354  15.783  11.524
96330W        W68623  38.407  34.417   3.782
96331W        W68624  11.146  27.993   1.895
96332W        W68625   5.417  25.157  11.003
96333W        W68626  24.486  37.543  10.512
96334W        W68627  24.183  24.199  11.018
96335W        W68628  21.691  21.532  13.351
96336W        W68629  33.028   7.724  14.516
96337W        W68630  14.798  12.645   5.150
96338W        W68631  42.290  31.569  13.814
96339W        W68632   0.908  39.014   3.164
96340W        W68633  17.672  16.602   4.169
96341W        W68634   7.208  37.950   0.437
96342W        W68635  15.118  15.612  10.503
96343W        W68636  29.555  15.609   1.771
96344W        W68637  23.032   4.413  10.451
96345W        W68638  37.003  28.103  14.283
96346W        W68639  18.100  23.495  12.969
96347W        W68640  15.657  22.725   2.315
96348W        W68641   7.706  41.853   1.771
96349W        W68642  27.688  30.126  13.825
96350W        W68643  13.653  17.631   1.915
96351W        W68644   2.894   0.470  10.417
96352W        W68645  43.497  14.591  11.969
96353W        W68646   2.884  15.729  11.855
96354W        W68647  37.991  31.121  13.884
96355W        W68648  14.297   8.291   1.354
96356W        W68649  10.343  20.746   2.840
96357W        W68650   1.738  30.613  10.977
96358W        W68651   0.399   9.830   0.314
96359W        W68652  12.619  34.109   3.806
96360W        W68653   1.324  41.510   3.767
96361W        W68654  17.745  34.876  13.512
96362W        W68655  25.630  15.138   0.926
96363W        W68656  17.657   3.391   0.456
96364W        W68657  20.545  26.037  11.029
96365W        W68658  43.381  22.744  12.540
96366W        W68659   6.863  33.876   5.098
96367W        W68660  25.187  21.665  10.588
96368W        W68661   2.946   5.849  12.968
96369W        W68662   4.740  14.144   1.844
96370W        W68663  28.979  40.842   4.331
96371W        W68664  26.079  23.542  11.424
96372W        W68665  22.674  23.015   3.348
96373W        W68666   8.851  28.474   3.813
96374W        W68667   3.383  15.668   2.359
96375W        W68668  34.565   9.830   4.163
96376W        W68669  22.124  20.701  13.000
96377W        W68670  12.827  29.045   0.289
96378W        W68671  15.323  30.542   0.856
96379W        W68672   1.973  35.460   4.271
96380W        W68673  15.587  34.090   2.205
96381W        W68674  41.968  30.980   3.787
96382W        W68675  11.303  42.403   1.229
96383W        W68676  16.150  17.247  11.875
96384W        W68677  40.371  34.545  11.047
96385W        W68678  42.325  33.423   0.784
96386W        W68679  38.907  28.439  14.352
96387W        W68680  33.049  19.618   1.825
96388W        W68681   8.369  44.771  13.358
96389W        W68682  15.235  16.740  11.877
96390W        W68683  30.614  30.982  14.962
96391W        W68684  28.056  40.921  12.857
96392W        W68685  41.902  38.953  12.571
96393W        W68686  17.621  36.076  11.578
96394W        W68687  42.485  16.241   2.729
96395W        W68688   6.369   8.739  12.399
96396W        W68689  38.846  42.471  11.869
96397W        W68690  43.462  10.144  12.526
96398W        W68691  33.566  42.899  12.975
96399W        W68692  26.657  29.561  12.999
96400W        W68693  34.037  41.461  13.493
96401W        W68694  42.030  39.434  12.574
96402W        W68695  35.977  43.853  12.059
96403W        W68696  39.923  33.407   0.747
96404W        W68697   0.835  23.577  14.472
96405W        W68698  38.466  33.974  11.019
96406W        W68699  33.976  44.307   2.787
96407W        W68700   8.240  26.204   1.831
96408W        W68701  32.583   4.405  13.006
96409W        W68702   1.332  33.909   1.878
96410W        W68703  14.658  10.853  10.425
96411W        W68704  16.621  35.878   2.197
96412W        W68705  41.952  14.686   4.191
96413W        W68706  23.202  26.660   1.856
96414W        W68707  42.367  26.566  13.928
96415W        W68708  29.557  37.340  12.908
96416W        W68709   3.440   4.257   1.261
96417W        W68710  39.514  11.771   2.779
96418W        W68711  34.383  30.072  13.837
96419W        W68712  26.179  35.509   1.714
96420W        W68713  38.523  19.730  10.636
96421W        W68714   5.221  20.224   4.617
96422W        W68715  25.620   7.817  10.997
96423W        W68716   6.249  10.823   4.644
96424W        W68717  16.632  41.314  10.588
96425W        W68718  19.620  15.689   0.468
96426W        W68719  41.357  17.567  11.895
96427W        W68720   7.392  43.490   0.781
96428W        W68721  27.564  20.225   3.256
96429W        W68722   3.752  36.451  13.922
96430W        W68723  20.593  35.056   2.832
96431W        W68724   7.710  35.951   2.756
96432W        W68725  34.887  24.000  14.804
96433W        W68726   3.423  37.366  13.926
96434W        W68727  40.467  14.212   0.872
96435W        W68728  37.001  41.501   0.765
96436W        W68729  41.929  39.532   3.164
96437W        W68730  31.915  24.546  11.575
96438W        W68731  28.486  37.846   4.805
96439W        W68732  27.115  19.259  11.967
96440W        W68733  34.457  18.169  10.548
96441W        W68734  26.675  35.362  14.888
96442W        W68735   6.357  34.950   4.619
96443W        W68736   5.376   1.842   1.875
96444W        W68737  44.361  43.364   2.805
96445W        W68738   9.251  32.088   1.775
96446W        W68739  35.073  15.740  10.150
96447W        W68740  43.410  26.664   0.397
96448W        W68741   3.359  19.645  12.084
96449W        W68742  35.976   8.294  13.491
96450W        W68743  32.043  39.958  13.865
96451W        W68744  10.298   9.668   1.424
96452W        W68745  44.376  20.187  12.933
96453W        W68746   6.374  28.653  11.483
96454W        W68747  30.088  21.729  10.427
96455W        W68748   6.876   7.819   2.814
96456W        W68749  19.732   6.767   4.630
96457W        W68750  12.621  42.427   4.752
96458W        W68751  29.526  42.922   3.735
96459W        W68752   5.694  30.435  10.509
96460W        W68753  40.368  36.418   2.663
96461W        W68754  29.150  20.555   2.802
96462W        W68755  31.040  40.412   2.766
96463W        W68756  40.383  35.004   0.735
96464W        W68757   0.932  12.235   3.738
96465W        W68758   7.671  16.296   1.306
96466W        W68759   2.792  10.853   1.726
96467W        W68760  41.411  36.841  10.610
96468W        W68761  35.452   9.752  11.000
96469W        W68762  25.559   7.259  11.487
96470W        W68763  44.322  11.336   3.656
96471W        W68764  10.869  25.076   4.639
96472W        W68765  37.357  34.999  13.393
96473W        W68766  19.762  11.287  13.909
96474W        W68767  19.254  30.973   5.651
96475W        W68768  22.739   6.732  14.403
96476W        W68769  27.528   3.713  10.892
96477W        W68770  38.354  11.165   2.869
96478W        W68771  13.175  35.887  10.501
96479W        W68772  12.299   3.813   2.778
96480W        W68773   6.214  34.932  11.041
96481W        W68774  10.382  23.653  10.927
96482W        W68775   4.851  31.405  13.544
96483W        W68776  42.370  35.908  10.455
96484W        W68777  13.644  30.150  11.918
96485W        W68778   7.366  18.740  13.827
96486W        W68779  28.057  44.468   2.294
96487W        W68780  44.916  14.233  14.928
96488W        W68781  21.577  15.253   2.774
96489W        W68782   6.836  28.578  11.425
96490W        W68783  44.965  37.858  14.930
96491W        W68784  29.624  43.830  14.288
96492W        W68785  12.853   3.444   0.744
96493W        W68786  27.154  18.752   2.807
96494W        W68787  27.576  38.360   2.823
96495W        W68788   7.871  33.043  14.454
96496W        W68789   1.974  22.582  14.816
96497W        W68790  33.556   1.276  13.004
96498W        W68791  37.468  39.885   2.221
96499W        W68792  44.373  25.995   0.395
96500W        W68793  17.770  38.005  12.345
96501W        W68794   2.888  43.965  13.935
96502W        W68795  38.058  17.112   1.839
96503W        W68796  14.216  37.576  11.056
96504W        W68797  31.988  36.090   0.403
96505W        W68798  21.579   1.444   4.164
96506W        W68799  16.612   7.815   3.146
96507W        W68800  28.048  40.892   4.236
96508W        W68801   8.850  39.017   4.325
96509W        W68802  39.913   6.899   3.703
96510W        W68803  41.474   7.321   1.819
96511W        W68804   3.361  22.528   2.780
96512W        W68805  40.980  20.141   0.797
96513W        W68806   6.264  15.307   4.328
96514W        W68807  26.186  41.830  13.968
96515W        W68808  34.431  43.387   1.436
96516W        W68809  41.877   4.285   0.734
96517W        W68810  44.454  26.034   1.440
96518W        W68811  25.510  38.378  11.894
96519W        W68812  21.116  22.137   1.229
96520W        W68813  24.079   0.804  12.496
96521W        W68814  13.676  31.471  12.825
96522W        W68815  27.990   5.739   0.802
96523W        W68816  28.024  37.996   1.421
96524W        W68817  29.654  14.698   3.839
96525W        W68818  10.833  14.110  14.013
96526W        W68819  37.955  35.448  14.827
96527W        W68820   2.786  34.967   1.385
96528W        W68821  43.930  41.925   4.336
96529W        W68822  44.812  12.159   2.202
96530W        W68823  19.184   2.467  11.558
96531W        W68824  19.058  30.951   0.356
96532W        W68825  35.543  10.318  14.022
96533W        W68826  16.133  31.139  14.858
96534W        W68827  32.576  23.078   1.897
96535W        W68828  28.512   5.308   1.369
96536W        W68829  40.394  16.087   4.685
96537W        W68830  37.399  13.156  12.562
96538W        W68831  22.250  43.448  12.964
96539W        W68832  16.108   5.755  14.493
96540W        W68833  16.307  29.490  11.382
96541W        W68834   2.278  17.253  12.580
96542W        W68835  28.015  21.139  10.051
96543W        W68836  43.921   1.277   2.684
96544W        W68837  37.914  42.282   1.399
96545W        W68838   1.408  17.137  13.923
96546W        W68839  12.817  26.560   1.308
96547W        W68840  27.010   8.169   4.770
96548W        W68841  13.778  22.128   3.713
96549W        W68842   2.875  34.059  10.596
96550W        W68843  14.206   5.898  11.388
96551W        W68844  25.187  16.634   1.430
96552W        W68845   9.353  16.599   4.670
96553W        W68846  10.352  12.667  10.115
96554W        W68847  25.638  11.817  12.570
96555W        W68848   1.791  33.891   1.350
96556W        W68849   5.736  31.081  12.045
96557W        W68850   8.757  42.430  13.323
96558W        W68851  35.941  40.305  10.974
96559W        W68852   1.946   4.283   0.421
96560W        W68853  20.079  24.654   1.214
96561W        W68854  29.073   2.809   1.263
96562W        W68855  20.145  37.080   3.347
96563W        W68856   0.841   3.234   1.429
96564W        W68857   8.672  24.182   1.372
96565W        W68858   5.437  36.898  14.874
96566W        W68859   0.955   9.856  11.081
96567W        W68860  40.484   2.462  10.975
96568W        W68861  16.763  13.336   4.251
96569W        W68862  28.102  36.951  11.549
96570W        W68863   6.379   6.843  10.479
96571W        W68864  18.584   7.266   3.316
96572W        W68865  16.811  25.087   4.650
96573W        W68866  39.504  34.897  14.467
96574W        W68867  41.388  19.075  12.384
96575W        W68868   5.419  11.809  10.985
96576W        W68869  18.554  26.093  10.623
96577W        W68870  32.493   0.784   0.950
96578W        W68871  40.417  33.421   1.798
96579W        W68872   6.865  16.197   3.791
96580W        W68873  41.375   5.895  13.965
96581W        W68874  11.639   3.847   2.202
96582W        W68875  15.754  19.057  14.864
96583W        W68876  16.705  24.701   4.267
96584W        W68877   8.695  44.833  11.541
96585W        W68878   4.354  26.508  14.338
96586W        W68879  19.131  44.851  11.500
96587W        W68880   3.262  34.546  13.390
96588W        W68881  18.085  19.249  14.323
96589W        W68882  26.647  18.567  12.093
96590W        W68883   9.725  44.349  10.928
96591W        W68884  31.451  25.964   1.274
96592W        W68885  11.221  11.302  14.350
96593W        W68886  30.587  36.910  14.454
96594W        W68887  12.202   1.375  13.012
96595W        W68888  33.893   5.874   0.835
96596W        W68889  28.593  12.326  13.491
96597W        W68890  13.658  12.754  14.380
96598W        W68891  31.470  44.758  11.049
96599W        W68892  15.097  14.827   3.171
96600W        W68893  21.673   5.820  13.452
96601W        W68894  15.813  24.527  14.814
96602W        W68895  35.368  22.035   4.710
96603W        W68896   7.706  14.319  12.475
96604W        W68897  31.132  32.576   4.139
96605W        W68898  28.151   5.869   4.289
96606W        W68899  10.741  39.827  10.615
96607W        W68900  17.216  28.104  12.947
96608W        W68901  42.478  25.187   1.750
96609W        W68902  30.927  39.378   2.238
96610W        W68903  34.598  44.775   3.227
96611W        W68904  43.287   5.377  14.797
96612W        W68905  18.787   0.411   2.795
96613W        W68906  16.302  38.419   1.328
96614W        W68907   2.413   3.366   2.715
96615W        W68908  44.902  36.488   3.236
96616W        W68909  22.071  10.636   3.824
96617W        W68910   9.851  14.798   2.874
96618W        W68911  20.672  21.059  13.990
96619W        W68912  36.854   7.797   1.860
96620W        W68913  14.148  22.173   4.317
96621W        W68914  43.939  39.333  13.510
96622W        W68915  27.588  30.579   0.394
96623W        W68916  35.439  11.637  12.357
96624W        W68917   4.823  23.999  11.581
96625W        W68918  33.488  23.566  10.546
96626W        W68919  34.935  15.733  11.442
96627W        W68920  33.887  38.341   4.765
96628W        W68921  20.063  16.243  12.545
96629W        W68922  26.198  44.291   3.759
96630W        W68923  20.709   4.342  14.485
96631W        W68924  39.336  28.571   1.922
96632W        W68925  13.108  10.708   1.239
96633W        W68926  25.041  21.150   0.450
96634W        W68927  25.656   8.697  13.540
96635W        W68928  16.107  12.642   5.242
96636W        W68929  40.025   6.218  14.851
96637W        W68930  29.085  16.606  11.911
96638W        W68931  37.495  15.747  13.872
96639W        W68932  40.948  17.176   2.662
96640W        W68933  42.878  32.530  11.485
96641W        W68934  21.164   0.985   2.770
96642W        W68935  35.565  16.742  13.381
96643W        W68936  41.395  34.609  13.530
96644W        W68937  39.507  44.765   0.245
96645W        W68938  35.453  11.830  14.778
96646W        W68939  35.430  19.662   1.766
96647W        W68940  10.849  29.488  13.500
96648W        W68941  18.763  34.894  13.974
96649W        W68942   9.358  36.385   3.384
96650W        W68943  43.981  17.176   2.801
96651W        W68944   6.289   4.405   4.677
96652W        W68945  25.057  41.388  10.598
96653W        W68946  34.105  33.481  14.389
96654W        W68947  40.409  33.461   1.263
96655W        W68948  38.497  42.794  11.015
96656W        W68949  10.351  14.307   4.745
96657W        W68950  40.343  33.418  14.992
96658W        W68951  30.157  32.052   0.877
96659W        W68952  16.590   6.202   2.879
96660W        W68953  17.124  19.264  10.520
96661W        W68954  40.359  37.849  11.030
96662W        W68955   8.746  41.373  10.906
96663W        W68956   0.927  29.606  11.093
96664W        W68957  43.301  10.878   3.210
96665W        W68958  27.521  23.716   1.386
96666W        W68959  24.498   8.173  11.409
96667W        W68960  13.221  17.186  13.358
96668W        W68961  17.636  10.635  14.406
96669W        W68962  25.671  21.735   2.404
96670W        W68963  33.952   0.916   2.268
96671W        W68964  40.803  10.703   3.154
96672W        W68965  36.555  27.637  11.880
96673W        W68966  32.050  26.207   4.640
96674W        W68967  16.304  29.978   3.826
96675W        W68968  26.195  12.223   3.864
96676W        W68969  11.799   1.290   4.162
96677W        W68970  18.114  44.278  14.366
96678W        W68971  23.705  30.614  10.644
96679W        W68972   9.783  12.660   2.852
96680W        W68973  13.289   2.739   0.933
96681W        W68974  44.895  44.835  13.059
96682W        W68975  38.029   1.356   4.117
96683W        W68976  43.814  14.609   2.275
96684W        W68977  38.037  37.339   1.772
96685W        W68978  36.886  11.351  11.597
96686W        W68979  30.080  28.493   0.248
96687W        W68980  18.615  22.099  14.951
96688W        W68981  29.564  21.104   2.224
96689W        W68982  40.830  14.190  10.423
96690W        W68983  44.438   0.746  10.911
96691W        W68984  19.101  21.118  14.850
96692W        W68985  26.567  39.812  12.382
96693W        W68986  13.841  32.889   1.754
96694W        W68987  23.497  38.869  12.457
96695W        W68988  13.701  20.539   4.728
96696W        W68989  32.101  21.206  14.893
96697W        W68990  11.311  16.307   4.778
96698W        W68991   0.445  40.333  12.949
96699W        W68992  41.963  39.359   2.701
96700W        W68993  35.957  36.864  11.873
96701W        W68994  15.642  19.575   0.464
96702W        W68995  35.957  14.142  14.929
96703W        W68996   7.838  39.538  10.533
96704W        W68997  35.604  35.892  11.947
96705W        W68998  39.430  21.248  13.950
96706W        W68999  19.574  31.099   9.937
96707W        W69000   8.785  42.374   3.814
96708W        W69001   3.944  23.510   0.253
96709W        W69002   6.198  32.083   3.290
96710W        W69003  19.162  30.004  12.536
96711W        W69004   7.876  13.620   4.609
96712W        W69005  25.591  11.243   4.291
96713W        W69006   3.954  31.609  13.325
96714W        W69007  38.379  10.149  10.458
96715W        W69008  16.078   0.474   3.689
96716W        W69009   3.863  33.937  13.986
96717W        W69010   5.896  35.042   5.284
96718W        W69011  26.580   8.388  12.029
96719W        W69012  28.990   5.384   0.814
96720W        W69013  14.630  32.931  12.579
96721W        W69014  10.301  16.197   1.376
96722W        W69015   4.450  26.554  10.497
96723W        W69016  25.063   9.668  12.474
96724W        W69017   2.251  15.641   0.433
96725W        W69018  38.942   3.338  13.952
96726W        W69019   8.294  20.234  13.875
96727W        W69020  11.229  33.433   4.774
96728W        W69021   2.791  12.129  12.955
96729W        W69022  23.683  12.615   2.858
96730W        W69023  28.967  30.117  11.415
96731W        W69024   9.677  35.479  14.325
96732W        W69025  26.595  34.949   4.828
96733W        W69026  18.290  34.597  11.960
96734W        W69027  31.060  28.489   0.771
96735W        W69028  28.506   5.394   1.720
96736W        W69029  44.940   4.845  11.118
96737W        W69030  26.163  26.669   3.155
96738W        W69031  23.688  20.574   2.357
96739W        W69032  33.974  23.038   4.708
96740W        W69033  19.573  39.509  10.524
96741W        W69034  20.182   7.224   2.728
96742W        W69035  10.360  33.588  14.961
96743W        W69036  17.183  23.608   1.801
96744W        W69037  24.530  18.637   1.702
96745W        W69038  44.437  18.246  13.411
96746W        W69039  14.170  35.069  13.406
96747W        W69040  42.955  12.710  13.954
96748W        W69041  37.562   1.778  13.328
96749W        W69042   9.165  23.216  11.601
96750W        W69043  20.661  27.009  13.952
96751W        W69044  30.554  20.107  13.481
96752W        W69045  36.488   4.407   1.316
96753W        W69046   8.670  36.535   0.474
96754W        W69047  11.200  35.064   0.792
96755W        W69048  16.741  40.835   4.165
96756W        W69049   8.333  34.580   1.788
96757W        W69050   4.734  23.030  14.875
96758W        W69051  43.933  16.568  12.576
96759W        W69052   4.225   1.742   1.270
96760W        W69053  36.964  42.500  12.065
96761W        W69054  32.498   2.300  11.560
96762W        W69055  14.623  10.360   9.935
96763W        W69056  24.659  21.750  14.955
96764W        W69057  31.144   5.726  12.394
96765W        W69058   3.811  25.546  10.457
96766W        W69059  39.891  43.987   4.734
96767W        W69060  14.123  15.786   1.302
96768W        W69061  27.023  12.843  11.564
96769W        W69062  12.302   0.435   4.173
96770W        W69063   7.305  26.640  14.477
96771W        W69064   0.867  20.753   3.187
96772W        W69065   3.259  34.980   2.341
96773W        W69066  39.985  36.954   3.379
96774W        W69067  32.019   4.804  11.893
96775W        W69068   7.391  28.946   0.739
96776W        W69069  26.165   3.809   2.291
96777W        W69070  31.553  37.464  14.807
96778W        W69071   9.175   9.659   4.719
96779W        W69072  17.756  19.736   1.863
96780W        W69073  18.578  36.540  14.809
96781W        W69074  24.645  11.162  13.479
96782W        W69075  34.589  14.174   2.823
96783W        W69076  32.437  18.610   1.847
96784W        W69077  22.635  26.561   2.781
96785W        W69078  28.607  14.642  12.489
96786W        W69079  18.696  17.238  14.807
96787W        W69080  15.232  42.805   4.304
96788W        W69081   5.790  19.649   3.310
96789W        W69082  25.544   2.807  12.025
96790W        W69083   1.257   4.323   0.476
96791W        W69084   5.744   0.315   2.371
96792W        W69085  24.059  42.324   2.209
96793W        W69086  43.364   5.285  11.610
96794W        W69087   0.434   2.861   1.910
96795W        W69088  36.492   8.812   3.261
96796W        W69089  32.447  30.147   1.439
96797W        W69090  24.556  28.049   1.358
96798W        W69091  29.596  40.821  13.941
96799W        W69092  14.179  43.850  10.948
96800W        W69093  23.644  19.054   3.168
96801W        W69094  43.341   4.812   4.200
96802W        W69095  18.050  43.290  14.022
96803W        W69096  33.046   3.929  13.997
96804W        W69097   4.415  34.581   2.723
96805W        W69098   1.763   0.903   3.870
96806W        W69099  17.136  13.217  10.942
96807W        W69100  43.368  22.227  12.844
96808W        W69101  30.418  34.390  12.898
96809W        W69102   1.291  10.251  11.598
96810W        W69103  39.853  43.431  14.814
96811W        W69104   9.281  22.190  14.768
96812W        W69105  38.910  36.091  11.432
96813W        W69106  26.101  15.600  13.850
96814W        W69107  17.292  18.749  10.428
96815W        W69108   3.853   4.703   0.792
96816W        W69109  41.354   8.741  10.555
96817W        W69110  36.363  37.064  14.976
96818W        W69111  30.149  36.984   4.122
96819W        W69112  40.543  28.027  10.427
96820W        W69113   2.964  20.094  13.466
96821W        W69114  38.565  38.861   3.319
96822W        W69115  33.950  16.656  13.019
96823W        W69116  18.200  27.520  13.829
96824W        W69117  44.438  41.310   2.205
96825W        W69118   4.709  14.741   1.310
96826W        W69119  21.725  29.134  12.427
96827W        W69120  36.043   9.249  12.989
96828W        W69121  35.952  38.443   4.770
96829W        W69122  34.049  22.142   4.140
96830W        W69123  21.019  40.307   3.847
96831W        W69124  26.962  33.071  11.568
96832W        W69125  23.011  36.370  14.758
96833W        W69126  35.491  18.296  10.527
96834W        W69127   0.880  32.062   0.300
96835W        W69128  10.366  34.112   3.636
96836W        W69129  27.071   5.819   2.193
96837W        W69130   3.297  19.284  11.973
96838W        W69131  28.492  11.215  11.054
96839W        W69132  37.417  44.436  12.980
96840W        W69133  10.287  38.556  12.884
96841W        W69134  32.486  32.930   4.281
96842W        W69135  17.635  24.014   0.812
96843W        W69136   0.306  15.269  14.902
96844W        W69137  25.160  25.996   1.716
96845W        W69138   0.748  42.324   2.239
96846W        W69139  13.134  32.532   2.333
96847W        W69140  37.447  42.869  13.367
96848W        W69141   3.261  40.308  13.346
96849W        W69142  42.918  27.516   0.250
96850W        W69143  15.294  13.219   4.196
96851W        W69144  13.816  44.361  14.446
96852W        W69145   3.223   5.359  12.574
96853W        W69146  23.048  10.671   2.749
96854W        W69147   8.824   8.255  10.943
96855W        W69148  43.824  15.689  14.987
96856W        W69149  25.128  26.634  12.575
96857W        W69150  20.048   4.209   2.864
96858W        W69151  22.729   3.829   1.911
96859W        W69152   2.319  25.534   0.758
96860W        W69153  24.063   1.945  13.970
96861W        W69154  41.878   8.851   1.356
96862W        W69155   3.257  31.075   2.775
96863W        W69156  12.819  35.878   3.230
96864W        W69157  11.865   5.847  11.374
96865W        W69158  43.021   6.882  11.903
96866W        W69159  32.061  41.907  10.495
96867W        W69160  32.069  21.711   4.643
96868W        W69161  17.283  25.472  10.530
96869W        W69162  10.273  31.616  11.915
96870W        W69163  16.640  39.542   1.791
96871W        W69164  10.231   5.194   2.235
96872W        W69165   7.677  15.634  10.116
96873W        W69166  32.580  20.172   0.822
96874W        W69167   2.268  21.209  12.010
96875W        W69168  17.119  37.502   2.811
96876W        W69169   1.446  12.627   1.291
96877W        W69170  16.718  12.725   0.941
96878W        W69171  19.735  37.515   4.192
96879W        W69172  21.094   9.647  13.926
96880W        W69173  33.409   3.731   4.602
96881W        W69174  14.296  20.264   3.782
96882W        W69175   9.310  26.179   2.408
96883W        W69176  16.774  38.341  14.457
96884W        W69177  21.134  42.921  11.572
96885W        W69178  11.689  37.897  10.989
96886W        W69179  37.447  32.434  13.974
96887W        W69180  29.538  14.753  10.491
96888W        W69181   5.198  21.174  12.363
96889W        W69182  21.583  42.780  11.003
96890W        W69183  22.147   9.658  14.921
96891W        W69184  12.348   9.288  10.448
96892W        W69185  22.537  10.683  12.371
96893W        W69186  31.100  11.763  14.281
96894W        W69187  15.783  16.279   0.946
96895W        W69188   5.858  29.521  13.051
96896W        W69189  34.394  40.991  11.550
96897W        W69190  16.178  31.599   3.825
96898W        W69191  33.924  21.724   4.711
96899W        W69192  41.021   2.466  13.918
96900W        W69193   0.387  13.221   1.698
96901W        W69194  36.546  26.579   1.219
96902W        W69195  38.853   5.202  13.433
96903W        W69196  35.592  35.477   1.738
96904W        W69197  26.534  19.775   4.642
96905W        W69198   1.880  26.605   1.381
96906W        W69199  20.240  24.692  14.954
96907W        W69200  12.712  25.590  12.492
96908W        W69201  10.878  37.072   3.742
96909W        W69202  42.848  24.139   0.473
96910W        W69203  25.053  27.596   1.842
96911W        W69204  44.922  17.642   3.258
96912W        W69205   8.865   4.703   0.771
96913W        W69206  40.904   7.900  10.962
96914W        W69207   6.228  29.047   0.395
96915W        W69208   9.749  37.977  14.380
96916W        W69209   5.261  22.091   3.295
96917W        W69210  36.025  40.845  12.498
96918W        W69211   3.374   7.317   4.643
96919W        W69212   4.791   2.447   2.374
96920W        W69213  36.059   4.712   1.413
96921W        W69214  42.975   1.464  13.863
96922W        W69215  42.777  10.259   0.479
96923W        W69216  16.317  20.269   0.924
96924W        W69217  17.269  13.332   3.713
96925W        W69218  10.297   5.879  13.446
96926W        W69219   2.358  44.307  13.454
96927W        W69220  42.008  15.627  12.561
96928W        W69221  18.763  33.446   5.647
96929W        W69222  17.299   7.186  15.000
96930W        W69223  44.453  28.075  11.385
96931W        W69224  15.822  21.714   3.344
96932W        W69225  39.523  19.621  12.956
96933W        W69226  19.068  35.549  11.931
96934W        W69227  32.984  35.016   2.690
96935W        W69228   6.403   3.834  13.352
96936W        W69229  23.543  14.647  12.064
96937W        W69230  37.495   8.858  13.339
96938W        W69231  26.457  34.517  12.833
96939W        W69232  19.063   4.412   0.399
96940W        W69233  21.658   1.365  11.541
96941W        W69234  34.039   6.818   1.769
96942W        W69235  43.905  28.146   4.796
96943W        W69236   1.758  14.605  11.559
96944W        W69237  39.426  19.178   0.478
96945W        W69238  43.301  42.469  12.515
96946W        W69239  34.462  28.123   4.719
96947W        W69240  36.000  36.490   2.665
96948W        W69241  37.420  38.945   5.246
96949W        W69242  11.642  30.642   4.306
96950W        W69243  17.240  31.929  14.905
96951W        W69244  20.076   8.757   0.904
96952W        W69245  43.355  28.677  13.540
96953W        W69246   4.445  40.964  14.463
96954W        W69247  24.984   1.450   1.428
96955W        W69248  38.986   4.899   1.900
96956W        W69249   7.816  31.963  13.360
96957W        W69250  35.575  22.715  14.324
96958W        W69251  24.181  29.148   3.290
96959W        W69252   7.344  25.973  11.900
96960W        W69253  25.668  41.495  14.863
96961W        W69254  31.952  42.009  11.534
96962W        W69255   4.325  36.450  10.530
96963W        W69256  33.461  19.561   0.415
96964W        W69257  43.459  26.493  12.528
96965W        W69258   2.257   3.914   3.785
96966W        W69259  38.931  36.851  14.948
96967W        W69260  17.784  14.777   4.696
96968W        W69261   4.383  31.929  10.541
96969W        W69262  36.525   8.697  14.816
96970W        W69263  37.073  36.017  14.313
96971W        W69264  27.012  29.030  14.346
96972W        W69265  24.070  28.663  14.000
96973W        W69266  44.903  40.484  13.942
96974W        W69267  44.299   1.383  13.370
96975W        W69268   7.810   3.400   2.277
96976W        W69269  21.109   4.396  11.895
96977W        W69270   7.410  19.594   1.918
96978W        W69271   0.801  28.602  11.466
96979W        W69272  30.055   4.272   2.761
96980W        W69273   1.932  37.977   0.811
96981W        W69274   0.385  23.043  10.453
96982W        W69275  16.775  22.182  14.021
96983W        W69276   1.405  44.991   1.216
96984W        W69277  11.309  40.492   3.212
96985W        W69278   9.354  36.855  14.441
96986W        W69279  25.160  39.488   3.344
96987W        W69280  26.498  25.539   4.115
96988W        W69281  18.704  39.846  11.477
96989W        W69282  34.091  21.151   1.813
96990W        W69283  25.639  22.707  12.073
96991W        W69284  11.225   3.877   3.780
96992W        W69285  29.172  29.470  12.388
96993W        W69286   0.795  23.504  10.533
96994W        W69287  32.411  37.971  14.318
96995W        W69288  14.301  19.245   4.227
96996W        W69289  18.725  44.833   4.817
96997W        W69290  31.954  35.402  14.468
96998W        W69291  25.179  17.576   1.714
96999W        W69292   6.226  18.191   1.403
97000W        W69293   6.681  39.954  11.491
97001W        W69294  44.481  19.556   3.246
97002W        W69295  40.022  22.028  11.495
97003W        W69296   3.409  33.107   3.232
97004W        W69297  36.052  12.300  12.548
97005W        W69298   5.844  13.619   3.276
97006W        W69299  13.141  16.701   0.297
97007W        W69300  29.506  43.994  14.917
97008W        W69301  16.675  14.149  10.928
97009W        W69302  28.648  12.166   0.378
97010W        W69303  36.496  21.257  11.101
97011W        W69304  31.599   9.768   0.374
97012W        W69305  33.526  24.127   4.758
97013W        W69306   3.238  34.002  11.605
97014W        W69307  29.619   6.325   4.691
97015W        W69308   8.301   1.269  11.993
97016W        W69309   2.840  13.790   2.764
97017W        W69310  17.791  34.576   4.295
97018W        W69311   8.287   8.836   3.369
97019W        W69312  11.304  38.371   3.309
97020W        W69313   3.747  40.051   4.264
97021W        W69314   2.352  40.990  11.121
97022W        W69315  22.596   5.223  13.494
97023W        W69316  25.580   2.389   0.908
97024W        W69317  44.338   8.203   2.836
97025W        W69318  19.602  41.501  12.563
97026W        W69319   2.802   1.820   0.868
97027W        W69320   1.300  34.547  10.954
97028W        W69321  34.953  26.525  11.572
97029W        W69322  41.981   9.218   2.748
97030W        W69323  18.776  16.804   4.153
97031W        W69324  41.535  39.540   3.841
97032W        W69325   0.356  30.139   4.170
97033W        W69326  30.432  30.923   3.746
97034W        W69327  15.286  40.373  10.901
97035W        W69328  10.853  17.633   1.736
97036W        W69329   0.319  10.669  14.356
97037W        W69330  12.713  39.397   1.426
97038W        W69331  40.362  42.922   0.900
97039W        W69332  19.219  40.910  11.536
97040W        W69333  26.592  35.899  11.612
97041W        W69334  23.628  42.991  11.955
97042W        W69335  23.069  12.832  12.425
97043W        W69336   2.248  30.107  10.543
97044W        W69337  38.927  36.006  11.029
97045W        W69338  35.880  40.953  10.953
97046W        W69339  40.333  23.511   0.782
97047W        W69340   2.410   4.448   2.852
97048W        W69341  23.576  20.230  13.402
97049W        W69342  14.119   6.260  14.823
97050W        W69343  37.062   7.908   2.196
97051W        W69344  12.697  14.776  12.056
97052W        W69345  42.447  42.961   3.384
97053W        W69346  24.694  21.261   3.193
97054W        W69347  15.602  33.579   5.262
97055W        W69348  12.810  44.919   0.318
97056W        W69349   9.856   7.909  12.385
97057W        W69350  36.347  43.369   0.750
97058W        W69351  17.611   4.780  10.089
97059W        W69352  14.157  30.648   2.701
97060W        W69353  31.947  20.532  10.914
97061W        W69354  24.149  15.133  14.835
97062W        W69355   4.825  22.236  13.929
97063W        W69356  20.132  31.603   3.788
97064W        W69357  25.566  31.919  11.041
97065W        W69358  38.480  12.833   4.199
97066W        W69359  12.706  32.075  13.942
97067W        W69360   0.785  38.842   5.210
97068W        W69361   8.352   1.306   2.887
97069W        W69362  37.449   7.763  12.048
97070W        W69363  35.104  16.252  13.527
97071W        W69364   2.783  42.282  12.080
97072W        W69365  21.540   3.270  13.867
97073W        W69366  33.526  43.978  10.937
97074W        W69367   7.673   4.403   0.247
97075W        W69368  39.028  22.653   2.278
97076W        W69369   0.863   6.413   0.786
97077W        W69370   4.813  22.644  12.565
97078W        W69371  27.486   2.733   1.440
97079W        W69372   2.255  25.088  10.562
97080W        W69373   6.871  30.982   0.259
97081W        W69374   1.447  32.029   0.410
97082W        W69375   2.370  16.742   1.778
97083W        W69376  36.482  26.161   2.358
97084W        W69377  29.080   6.823  10.601
97085W        W69378  37.855  11.327  12.544
97086W        W69379  35.397  40.381  11.428
97087W        W69380  28.100  26.990  11.016
97088W        W69381  24.033   0.802   2.271
97089W        W69382  24.112   2.314  13.456
97090W        W69383   5.908  16.757  10.568
97091W        W69384   5.337  38.047   2.405
97092W        W69385  20.032  14.716  11.387
97093W        W69386  15.328  36.576   0.745
97094W        W69387  33.417  20.117  10.967
97095W        W69388  16.779  44.907   4.746
97096W        W69389  11.206  18.277  10.536
97097W        W69390  19.733   3.956  13.515
97098W        W69391  16.154   4.281  11.395
97099W        W69392  30.414  22.236  13.974
97100W        W69393   0.804   6.226  12.408
97101W        W69394  38.502  11.761  10.436
97102W        W69395  38.372  13.291  11.547
97103W        W69396  22.662  38.911  14.425
97104W        W69397  13.193  18.740   3.225
97105W        W69398  40.544  19.133   1.706
97106W        W69399  39.043  43.813   2.188
97107W        W69400  28.463   8.384  11.473
97108W        W69401  15.212   6.338   3.333
97109W        W69402  27.658  24.149   2.261
97110W        W69403  35.854  28.020   1.851
97111W        W69404  29.099  22.065  10.551
97112W        W69405  25.157  33.412   3.662
97113W        W69406  41.397  24.633  14.333
97114W        W69407   7.351  24.069  12.865
97115W        W69408   4.792  35.920   5.322
97116W        W69409  37.057  27.032   1.429
97117W        W69410   5.773  42.022  14.363
97118W        W69411  15.249  44.954   4.666
97119W        W69412  38.550  18.771   1.369
97120W        W69413  44.764  19.695  10.937
97121W        W69414   1.858  21.720  14.283
97122W        W69415  12.796   3.255  14.822
97123W        W69416  25.645   7.840   1.763
97124W        W69417   4.330  30.028   0.316
97125W        W69418  44.278  44.946   4.316
97126W        W69419   6.352  10.800  11.431
97127W        W69420  28.617  44.497  14.907
97128W        W69421  39.019   7.694  10.910
97129W        W69422  40.917   5.910  14.403
97130W        W69423  11.740   1.951   5.134
97131W        W69424   4.822  26.630  12.479
97132W        W69425  28.659  26.541  12.553
97133W        W69426   5.422   8.317  11.112
97134W        W69427   1.875  10.214   3.261
97135W        W69428  36.920  14.340   4.834
97136W        W69429  44.492  30.078  14.311
97137W        W69430  20.721  31.533  14.354
97138W        W69431  21.647   0.802   3.191
97139W        W69432  20.165  22.689  10.624
97140W        W69433  44.328   9.843  11.950
97141W        W69434  26.593   3.363   2.216
97142W        W69435  30.060  19.117  12.406
97143W        W69436  32.008  32.499   2.252
97144W        W69437  19.580   2.842  11.578
97145W        W69438  26.491  11.161  10.062
97146W        W69439  18.683   8.202  11.977
97147W        W69440  33.081  17.619  13.864
97148W        W69441  23.016   5.439   1.288
97149W        W69442  40.022  15.637  14.968
97150W        W69443  30.432  24.490   0.344
97151W        W69444  21.120   7.320  12.515
97152W        W69445  25.691  28.982   1.816
97153W        W69446   6.278   4.732   5.276
97154W        W69447  32.570  37.490   1.885
97155W        W69448  27.006   9.344   1.269
97156W        W69449   7.685  23.562   1.920
97157W        W69450   9.844   8.255   4.739
97158W        W69451  17.299  26.474   3.341
97159W        W69452  22.594  25.564  11.980
97160W        W69453  30.065   8.272   9.484
97161W        W69454   6.713  35.874   5.662
97162W        W69455  38.849  26.102  12.968
97163W        W69456  20.625  22.642   4.689
97164W        W69457   9.214   0.435  11.962
97165W        W69458   0.857   3.269  14.429
97166W        W69459  11.621  16.625   4.256
97167W        W69460   0.928  20.719  11.028
97168W        W69461  41.466  35.088  13.524
97169W        W69462  18.105  39.063   1.308
97170W        W69463   0.886   7.838   2.787
97171W        W69464   4.726  37.566   3.667
97172W        W69465   7.699  18.085  14.945
97173W        W69466   0.443  41.937  14.412
97174W        W69467  16.318  29.500   0.289
97175W        W69468   6.245   5.229  11.542
97176W        W69469   8.384  33.107   2.322
97177W        W69470  38.072   0.351   2.332
97178W        W69471  31.608   7.767  10.972
97179W        W69472   4.224  37.005   3.266
97180W        W69473  29.025  20.613  14.010
97181W        W69474  32.454  13.771  11.406
97182W        W69475  23.042  14.294   1.892
97183W        W69476  17.744  38.423  14.963
97184W        W69477  41.898  44.816  10.492
97185W        W69478  33.129  34.903   1.243
97186W        W69479  32.092  28.605  11.500
97187W        W69480  36.388  19.680   3.803
97188W        W69481  18.103  18.560   4.788
97189W        W69482  24.229  13.230   4.259
97190W        W69483  27.650  37.946  12.398
97191W        W69484  12.738  38.054   1.284
97192W        W69485   1.745   8.340   0.466
97193W        W69486   9.249  36.577   5.159
97194W        W69487   7.708  36.355  14.339
97195W        W69488  20.761   7.289   1.374
97196W        W69489  35.561  36.080  11.393
97197W        W69490   4.829  27.520   3.386
97198W        W69491  35.509  24.039  12.958
97199W        W69492   3.753  18.625   2.347
97200W        W69493  38.548  36.913   3.386
97201W        W69494  29.438  17.782  11.381
97202W        W69495  20.525  18.177  12.542
97203W        W69496  15.659  28.627   2.366
97204W        W69497  34.092  34.561   2.371
97205W        W69498  41.786  27.955   2.316
97206W        W69499  11.682  25.519  11.935
97207W        W69500  13.760   4.241   0.473
97208W        W69501  44.376   1.967   1.243
97209W        W69502  15.100  31.928  13.906
97210W        W69503  19.150   4.901  10.050
97211W        W69504   0.817  19.202  12.557
97212W        W69505  40.947  15.728  13.309
97213W        W69506  10.264  29.613   3.184
97214W        W69507  39.367  24.682   4.681
97215W        W69508  37.861  43.333   3.180
97216W        W69509  34.995  37.486   0.313
97217W        W69510  30.142  11.156   2.284
97218W        W69511   8.380  38.444  11.971
97219W        W69512  31.898   6.367  10.627
97220W        W69513  27.488  44.858   3.729
97221W        W69514  30.528  27.158   4.255
97222W        W69515  16.306  15.168   4.336
97223W        W69516   2.935  12.726   1.445
97224W        W69517  28.966  12.639  14.762
97225W        W69518  10.758  15.108  13.401
97226W        W69519  44.355  23.612  12.355
97227W        W69520   2.467  39.383   3.153
97228W        W69521   3.437  39.873  11.982
97229W        W69522  39.368   9.238  11.405
97230W        W69523  25.047  37.472  11.557
97231W        W69524  31.520   7.864  13.891
97232W        W69525   3.442  35.433   3.342
97233W        W69526   9.696  15.737   1.399
97234W        W69527   3.826  12.812   1.853
97235W        W69528  36.009  33.990   0.792
97236W        W69529  26.038  27.551   1.853
97237W        W69530  39.874   4.301   0.753
97238W        W69531  22.079  26.991   3.751
97239W        W69532   6.250  13.325   1.357
97240W        W69533  44.874  41.861  13.445
97241W        W69534  27.582   1.355   2.783
97242W        W69535   1.278  24.501   1.394
97243W        W69536  41.446  24.038  11.461
97244W        W69537  13.173   4.381   9.629
97245W        W69538  22.207  10.222  11.609
97246W        W69539  34.571  28.019   0.777
97247W        W69540   6.860  19.208   0.386
97248W        W69541  37.920  25.468   2.793
97249W        W69542  37.565  40.038  13.883
97250W        W69543  19.058  26.501  13.829
97251W        W69544   8.781  29.981   3.303
97252W        W69545  29.962  33.566  14.832
97253W        W69546  29.427  11.813  10.412
97254W        W69547  38.392  13.613  14.331
97255W        W69548   9.384  39.058   1.405
97256W        W69549   0.937  44.845  12.011
97257W        W69550   6.777   5.746  10.440
97258W        W69551   1.815  40.044   1.215
97259W        W69552  25.708  28.489  12.894
97260W        W69553  14.176   9.652   2.695
97261W        W69554  32.473   9.795  10.433
97262W        W69555   5.314  35.432  14.320
97263W        W69556  30.156   8.182  13.389
97264W        W69557  16.652  21.228  11.567
97265W        W69558  21.037  13.762  10.473
97266W        W69559  21.043   5.280   4.191
97267W        W69560   7.304   0.912  14.903
97268W        W69561   0.837  16.238  13.806
97269W        W69562   0.373  41.531   3.858
97270W        W69563  42.328  42.781  10.616
97271W        W69564  24.977  19.714  10.527
97272W        W69565  40.978   8.214  13.927
97273W        W69566   1.376  32.539   1.910
97274W        W69567  15.765   0.433  10.492
97275W        W69568  10.184  35.453   4.712
97276W        W69569  39.397  10.784   1.288
97277W        W69570   7.819  28.001  13.916
97278W        W69571  29.004   3.411   1.420
97279W        W69572  24.613  34.891   1.248
97280W        W69573  10.208   7.259  10.521
97281W        W69574  37.956   5.374   3.693
97282W        W69575   1.406   6.270  14.811
97283W        W69576   4.704  12.740   1.353
97284W        W69577   9.353  30.907  10.468
97285W        W69578  38.327  21.192   3.317
97286W        W69579   1.775  15.580   4.160
97287W        W69580  16.147  14.332  11.461
97288W        W69581  43.358   0.471   9.441
97289W        W69582  42.858  42.870   2.212
97290W        W69583  41.002  40.912   4.257
97291W        W69584  11.164  23.597   0.418
97292W        W69585  42.463  18.588  11.993
97293W        W69586  38.555  12.125  14.846
97294W        W69587  37.055  23.714  12.400
97295W        W69588   7.388  22.661  13.041
97296W        W69589  31.039  14.311   0.822
97297W        W69590  28.940   3.734   2.394
97298W        W69591  38.908  27.153   3.668
97299W        W69592  38.564  20.200   0.798
97300W        W69593  44.846  15.689  14.774
97301W        W69594  36.055  28.480  12.427
97302W        W69595  25.614  39.393  10.644
97303W        W69596  44.395  37.507   2.193
97304W        W69597  40.009  10.876   2.722
97305W        W69598  29.579   9.211   0.812
97306W        W69599  38.044   2.301   2.763
97307W        W69600  30.984  17.100   0.771
97308W        W69601   2.862  19.221  11.374
97309W        W69602  13.684  19.192   2.356
97310W        W69603  24.158  41.455  13.438
97311W        W69604  33.026  24.034   1.873
97312W        W69605  40.799  33.422  11.477
97313W        W69606  35.597   4.841  14.403
97314W        W69607  33.887  35.455   1.730
97315W        W69608  26.626  16.642  12.394
97316W        W69609  28.515  36.374  12.473
97317W        W69610  42.781   2.290   2.302
97318W        W69611  24.192  22.160   4.324
97319W        W69612  19.645  15.671   1.855
97320W        W69613   2.753  32.405   2.351
97321W        W69614   9.693  29.636   1.227
97322W        W69615  39.324  28.080   4.146
97323W        W69616   0.274   2.907  13.979
97324W        W69617  22.741   3.781  12.407
97325W        W69618  10.193  15.764  14.876
97326W        W69619  29.060   6.195   4.209
97327W        W69620  26.982   7.677  11.008
97328W        W69621   8.752  27.001   2.345
97329W        W69622  10.359   9.868   5.128
97330W        W69623  38.985  17.762  10.919
97331W        W69624  18.599  39.426  11.996
97332W        W69625  19.235  30.064   1.449
97333W        W69626  25.149  44.915   3.660
97334W        W69627  38.986  39.882  14.424
97335W        W69628  39.841  28.528   4.197
97336W        W69629   7.685  37.957   0.772
97337W        W69630  13.112  43.510  14.811
97338W        W69631  18.763  32.975   0.292
97339W        W69632  21.160   7.231  11.442
97340W        W69633  29.036  30.071   1.298
97341W        W69634  14.635   1.769   0.765
97342W        W69635  20.273  36.520  12.538
97343W        W69636  14.714  11.160   4.195
97344W        W69637  16.282  25.104   0.403
97345W        W69638  20.128  33.417  14.454
97346W        W69639   1.920  36.968  12.095
97347W        W69640  23.677  43.338   1.371
97348W        W69641  35.532  21.171  10.999
97349W        W69642  22.135  31.133   4.261
97350W        W69643  35.490  25.058  13.482
97351W        W69644  38.819  40.899   3.725
97352W        W69645  25.644  31.930   3.225
97353W        W69646  21.602   7.343  13.405
97354W        W69647  27.677   6.755   3.759
97355W        W69648  26.476  16.571  14.463
97356W        W69649  20.671  24.611   0.798
97357W        W69650  41.806  26.642  14.779
97358W        W69651  26.615   4.730  11.897
97359W        W69652   8.239  35.529  14.309
97360W        W69653  13.675   9.369   2.882
97361W        W69654   3.823   8.680  14.815
97362W        W69655  29.085   0.764   3.349
97363W        W69656  36.967  31.023  14.338
97364W        W69657  22.742  21.176  14.940
97365W        W69658   7.698  41.300   2.294
97366W        W69659  30.594  25.000  14.014
97367W        W69660  15.243  39.880   4.669
97368W        W69661  27.512  11.147   3.372
97369W        W69662   1.764  27.051  13.336
97370W        W69663  12.158  42.830   1.863
97371W        W69664   2.470  30.064   0.830
97372W        W69665  40.827  33.446  10.611
97373W        W69666  22.156  15.813  11.582
97374W        W69667  13.710   8.174   3.295
97375W        W69668  31.493   1.842  11.483
97376W        W69669  21.549  17.275  12.379
97377W        W69670   0.264   9.804   2.200
97378W        W69671  23.123  40.334  10.416
97379W        W69672   3.368  31.989   2.807
97380W        W69673  13.712  39.995   2.760
97381W        W69674  32.466  19.262   2.685
97382W        W69675  18.118  23.575  13.795
97383W        W69676  21.697  34.056  11.905
97384W        W69677  24.019  27.085  12.905
97385W        W69678  25.065  23.645  10.610
97386W        W69679  40.876  27.568   1.246
97387W        W69680  40.884  35.426  10.538
97388W        W69681  42.387  31.025   0.289
97389W        W69682   2.947  12.300   2.834
97390W        W69683  16.808  34.932   0.962
97391W        W69684  17.102  17.772  10.611
97392W        W69685  30.975  40.349   3.269
97393W        W69686   2.809   6.273  14.889
97394W        W69687  15.626  34.863  10.589
97395W        W69688  32.530  35.434   0.322
97396W        W69689  14.608  31.904  13.348
97397W        W69690  29.445   7.884  12.911
97398W        W69691  36.386   5.809  10.532
97399W        W69692  18.184  10.369   1.244
97400W        W69693  24.623   6.707  14.966
97401W        W69694  13.197  44.997   2.756
97402W        W69695  10.834  40.805  12.386
97403W        W69696  17.225  16.231  14.338
97404W        W69697  25.587  20.748   2.868
97405W        W69698  38.488  14.195  14.901
97406W        W69699  16.781  32.589   4.600
97407W        W69700  41.500   7.720  12.480
97408W        W69701  20.535  38.413   4.607
97409W        W69702  17.159  44.426   3.354
97410W        W69703  27.615  16.193   3.385
97411W        W69704  32.982  38.961   1.935
97412W        W69705  24.173  31.531   0.825
97413W        W69706  26.631  26.664  12.911
97414W        W69707  37.954   3.886  10.994
97415W        W69708  27.086  42.994   1.865
97416W        W69709  31.957  32.071   4.686
97417W        W69710   2.314  15.669   1.286
97418W        W69711  24.985  41.352   3.855
97419W        W69712  11.239  25.546   1.329
97420W        W69713  34.904   3.315  10.515
97421W        W69714  36.574   3.266  13.915
97422W        W69715  16.660   3.366   0.364
97423W        W69716  12.231  29.449   4.736
97424W        W69717  24.675  17.575   3.687
97425W        W69718  14.288  30.488  12.481
97426W        W69719   4.386  13.325  13.845
97427W        W69720   3.760  23.004   4.831
97428W        W69721  41.343  27.684   4.681
97429W        W69722  42.821  14.138   1.347
97430W        W69723  37.852  25.623   0.396
97431W        W69724  12.773  11.821   3.846
97432W        W69725  33.528  11.736   4.643
97433W        W69726  28.474   8.313  10.567
97434W        W69727  11.256  15.242   0.406
97435W        W69728  12.809  13.288   1.226
97436W        W69729  34.502  15.098  11.926
97437W        W69730  26.525  41.432  13.791
97438W        W69731   4.799  30.542   0.435
97439W        W69732  24.071  11.150   0.423
97440W        W69733  40.880  41.325  12.886
97441W        W69734  20.634  27.958  14.961
97442W        W69735  10.674  35.448   0.356
97443W        W69736   3.303   9.825  14.438
97444W        W69737  25.635  31.114   0.462
97445W        W69738  22.121  31.069   1.378
97446W        W69739  37.475  10.297   1.742
97447W        W69740   2.790   9.322  10.483
97448W        W69741  11.297  34.394  10.425
97449W        W69742   9.694  40.349  13.439
97450W        W69743  18.642  26.193  14.382
97451W        W69744   5.782   8.769   4.699
97452W        W69745  28.116  41.347   2.268
97453W        W69746  15.588   7.277  11.921
97454W        W69747  16.663  27.668  12.372
97455W        W69748  33.517   2.431   3.662
97456W        W69749  38.844   6.376   1.933
97457W        W69750  31.646  22.212  11.594
97458W        W69751  14.764  42.491   4.161
97459W        W69752  40.340  17.707  11.893
97460W        W69753  24.530  23.698  12.962
97461W        W69754  19.668   9.158   0.791
97462W        W69755  31.095  42.376   2.691
97463W        W69756  44.817  14.206   2.795
97464W        W69757  26.651  31.645   0.871
97465W        W69758  39.962  44.428  14.494
97466W        W69759   7.722  43.936   3.719
97467W        W69760   3.924  17.230   2.831
97468W        W69761  20.106  27.064   0.886
97469W        W69762  27.067  40.367   1.370
97470W        W69763   1.381  17.240   3.302
97471W        W69764   0.939  27.942   2.670
97472W        W69765  11.716  34.424   9.971
97473W        W69766  35.968  33.954  12.013
97474W        W69767  11.745   0.939  10.453
97475W        W69768   0.257   7.907   1.321
97476W        W69769  43.779  21.714  13.393
97477W        W69770  18.069   4.261  14.297
97478W        W69771  15.106  14.752   4.280
97479W        W69772  39.815  27.033  12.420
97480W        W69773  19.553  16.253   1.880
97481W        W69774  42.518   0.950  11.459
97482W        W69775  42.016  26.503  12.974
97483W        W69776  32.935  38.061  13.542
97484W        W69777  19.698  24.165  14.799
97485W        W69778   6.332   0.337  14.883
97486W        W69779   7.680  20.244   4.228
97487W        W69780   7.830  32.414  10.479
97488W        W69781  15.733  29.532   1.263
97489W        W69782   7.341  28.492   0.334
97490W        W69783   2.322  13.158  11.979
97491W        W69784  34.488  27.076  11.121
97492W        W69785  14.810   7.257  12.918
97493W        W69786  42.489   0.421  10.581
97494W        W69787   4.266   4.419   0.441
97495W        W69788  40.547  34.432   0.899
97496W        W69789   5.368  18.102   4.668
97497W        W69790  16.601   3.795   0.923
97498W        W69791  44.768  22.667   3.718
97499W        W69792  12.780  24.504  14.927
97500W        W69793  14.255  37.363  11.542
97501W        W69794   7.396   5.759   4.327
97502W        W69795  31.136  10.745  12.002
97503W        W69796  15.099  29.441   1.896
97504W        W69797  25.530   6.780   3.848
97505W        W69798   9.697  20.651  11.556
97506W        W69799  42.798  21.516   4.664
97507W        W69800   4.759  42.801   1.346
97508W        W69801  42.840  17.773  14.864
97509W        W69802  17.159  15.641   0.873
97510W        W69803  23.586  34.092   0.471
97511W        W69804  19.084  20.566   0.832
97512W        W69805  13.670   7.771  14.405
97513W        W69806  21.543  14.683  12.562
97514W        W69807  25.052  24.042   4.178
97515W        W69808   4.855  31.051   3.218
97516W        W69809  24.485  41.906  11.609
97517W        W69810  24.067  28.144  12.530
97518W        W69811  19.734   5.439  13.000
97519W        W69812  44.297  19.659  14.336
97520W        W69813  22.632  26.575   3.339
97521W        W69814   1.921   9.255  14.827
97522W        W69815  42.460  30.023   1.229
97523W        W69816  36.076  11.345  14.382
97524W        W69817  26.699   6.393  14.799
97525W        W69818  22.159  38.921   3.174
97526W        W69819  14.641  11.235  11.057
97527W        W69820   7.403  22.567   4.341
97528W        W69821   0.977  43.984  10.989
97529W        W69822   6.339  37.881  12.059
97530W        W69823   2.400  27.606  12.060
97531W        W69824  12.768  18.565  12.891
97532W        W69825  14.259  40.993   0.372
97533W        W69826   1.971  25.672   2.833
97534W        W69827   0.255  21.131   5.255
97535W        W69828  13.214  15.161   1.878
97536W        W69829   0.452   3.298  13.521
97537W        W69830  39.441  21.145   2.357
97538W        W69831  38.861  14.603   3.702
97539W        W69832  30.456   3.862   1.893
97540W        W69833   1.918  18.290  12.929
97541W        W69834  12.801  23.237   4.686
97542W        W69835  12.764  44.397   0.876
97543W        W69836  17.114   3.925  11.408
97544W        W69837   0.422  44.955   3.148
97545W        W69838  22.617  32.956  13.797
97546W        W69839  23.989  22.672  14.760
97547W        W69840   8.844  32.627  11.052
97548W        W69841  29.577  29.661  12.559
97549W        W69842  36.513  43.434  13.043
97550W        W69843  35.500  17.745  10.940
97551W        W69844  42.862  24.089  14.954
97552W        W69845   2.311  10.642  13.979
97553W        W69846  29.628  36.469   4.354
97554W        W69847  37.509  13.706  12.995
97555W        W69848  13.616  28.934  10.950
97556W        W69849   5.880  32.130  13.003
97557W        W69850  12.657  14.314   0.359
97558W        W69851  23.662   8.829   2.364
97559W        W69852  15.215  21.542   3.194
97560W        W69853  27.154  25.040   2.764
97561W        W69854  34.540  28.973   3.382
97562W        W69855  31.093  41.018  14.821
97563W        W69856  40.986  20.584   1.435
97564W        W69857  40.474  26.090  13.366
97565W        W69858  43.784   3.390  14.844
97566W        W69859  33.117  27.011   0.361
97567W        W69860  19.047  38.905   4.720
97568W        W69861  36.041  27.577  13.931
97569W        W69862  20.713  22.699  11.908
97570W        W69863   7.674  15.776   2.705
97571W        W69864  43.433  38.824   3.290
97572W        W69865   9.239  33.610   3.155
97573W        W69866  18.703   0.782   0.417
97574W        W69867  39.418  42.359   4.202
97575W        W69868  43.992   1.928  12.089
97576W        W69869   5.808  22.161   1.214
97577W        W69870  11.132  31.947  12.087
97578W        W69871  33.951   0.419  11.969
97579W        W69872  28.461  43.772   2.198
97580W        W69873  27.944  30.529   5.089
97581W        W69874  23.664  34.439   3.311
97582W        W69875  40.389  37.554   0.391
97583W        W69876  43.379  31.611  14.461
97584W        W69877   5.220  33.529  13.930
97585W        W69878  19.174   4.279   1.889
97586W        W69879  41.983   3.801  14.511
97587W        W69880  19.576  37.940  12.869
97588W        W69881  44.968  39.535  10.470
97589W        W69882   0.821  36.066  12.356
97590W        W69883  19.747   8.896   1.257
97591W        W69884  23.641  18.583   0.729
97592W        W69885  11.198  26.138  14.462
97593W        W69886  28.950   8.282   1.227
97594W        W69887  29.921  38.338   2.294
97595W        W69888  28.043  18.674  11.532
97596W        W69889  35.534  20.117   0.266
97597W        W69890  13.731   9.768  11.444
97598W        W69891  12.830  28.157   0.312
97599W        W69892  11.309   5.321   1.260
97600W        W69893  16.310  42.361   0.288
97601W        W69894  18.783   5.263  11.411
97602W        W69895  32.083  11.756   2.380
97603W        W69896  38.041  10.318   3.323
97604W        W69897  32.040   7.821   0.376
97605W        W69898  12.617  34.888   3.811
97606W        W69899  41.826   1.924   0.242
97607W        W69900  43.947  18.157  14.340
97608W        W69901   5.435  44.899  13.012
97609W        W69902  11.195  14.137  14.282
97610W        W69903  14.775  24.594  12.089
97611W        W69904   8.676  22.084   4.291
97612W        W69905  32.602  32.090  13.841
97613W        W69906  44.401  31.469   4.803
97614W        W69907  38.975  32.426  10.952
97615W        W69908  20.593  30.968   2.183
97616W        W69909   4.840  44.385   5.184
97617W        W69910  24.173  44.297   0.855
97618W        W69911  15.811  11.864   1.297
97619W        W69912  42.365  39.533  11.115
97620W        W69913  34.042   9.224  12.859
97621W        W69914  11.683   1.441  11.502
97622W        W69915   1.479  17.107   0.267
97623W        W69916  43.482  31.951   2.696
97624W        W69917  22.601   1.917  13.835
97625W        W69918   3.865  11.813  14.947
97626W        W69919  35.961  24.714  14.397
97627W        W69920  40.458  18.185   0.781
97628W        W69921  34.954  32.452  12.083
97629W        W69922  43.970  30.529  12.488
97630W        W69923  42.936   1.860  14.801
97631W        W69924  40.031  12.732  11.441
97632W        W69925  19.268  26.072   2.735
97633W        W69926  27.481  25.043   3.868
97634W        W69927  39.022   6.782   4.320
97635W        W69928   5.837  28.660   2.407
97636W        W69929  30.553  37.517   0.282
97637W        W69930  11.198   0.922  12.443
97638W        W69931  41.301  40.305  12.528
97639W        W69932  21.731   5.415  13.042
97640W        W69933   7.695  34.546  11.600
97641W        W69934  30.997  14.146   3.720
97642W        W69935  20.763  22.534  14.386
97643W        W69936  13.686  19.185  13.891
97644W        W69937  14.335  17.135  13.978
97645W        W69938  26.991  36.485  13.911
97646W        W69939  37.888  34.889  11.993
97647W        W69940  30.505  37.932  14.922
97648W        W69941  21.106  19.065   1.247
97649W        W69942  23.104  30.437   4.718
97650W        W69943  25.161  22.026   4.694
97651W        W69944  15.822  38.462  12.957
97652W        W69945  40.457  43.359   1.807
97653W        W69946   7.732  42.922  12.979
97654W        W69947  29.562  14.215   3.312
97655W        W69948   7.794  14.098   3.701
97656W        W69949  10.357  26.576   2.318
97657W        W69950  21.535  27.070   1.905
97658W        W69951  14.229   0.778  14.348
97659W        W69952  16.590   3.749  10.911
97660W        W69953  26.994  17.080   0.770
97661W        W69954  37.063  13.173   3.375
97662W        W69955  15.631  25.521   0.844
97663W        W69956   2.795  42.459  12.396
97664W        W69957  17.281  31.455   3.721
97665W        W69958  37.062  43.895   4.789
97666W        W69959  32.041  17.561  10.487
97667W        W69960  13.632  14.623   4.122
97668W        W69961   6.915  24.105  11.512
97669W        W69962  18.101   9.869   3.290
97670W        W69963  41.801  42.779  13.432
97671W        W69964  34.970  39.996  11.388
97672W        W69965   9.645  36.450   4.193
97673W        W69966   6.869  22.570  12.565
97674W        W69967  43.446  44.371  13.934
97675W        W69968  11.751  17.123   3.296
97676W        W69969  37.540  18.588   2.854
97677W        W69970  26.996  35.859   1.305
97678W        W69971  18.060  19.102   2.382
97679W        W69972  39.399   9.643  14.836
97680W        W69973  41.349   4.889  14.419
97681W        W69974  23.102  30.603  10.579
97682W        W69975  17.216  41.498   3.218
97683W        W69976   9.354  20.769  14.787
97684W        W69977  40.908  24.100  13.917
97685W        W69978  14.177   7.341   4.618
97686W        W69979  40.512  36.510   0.775
97687W        W69980  28.066  37.503  13.482
97688W        W69981  39.455   5.896  11.009
97689W        W69982  25.666   7.680   2.815
97690W        W69983  28.530   1.764   4.647
97691W        W69984   9.815  14.197   0.947
97692W        W69985  44.467  25.182   2.689
97693W        W69986  44.901   4.379  12.407
97694W        W69987  39.323  24.540  12.567
97695W        W69988  16.658   6.252  13.953
97696W        W69989  29.932   6.786   4.266
97697W        W69990  41.898  30.980  13.391
97698W        W69991   3.801  22.628  13.374
97699W        W69992  39.447  34.044  13.451
97700W        W69993  15.739  18.591   1.419
97701W        W69994  10.636  23.185   3.310
97702W        W69995   2.941  13.241  13.041
97703W        W69996  43.369  38.820   2.355
97704W        W69997   5.339  41.298   4.764
97705W        W69998  41.387  26.006  11.097
97706W        W69999  36.048  15.233   1.925
97707W        W70000  22.133  33.002  12.392
97708W        W70001   2.244  35.434  12.416
97709W        W70002  16.612  28.118   3.254
97710W        W70003  18.661  25.050   5.165
97711W        W70004  26.605  35.388  11.048
97712W        W70005  41.954  43.877   0.392
97713W        W70006   3.769   2.314   0.265
97714W        W70007  39.404   1.764   1.272
97715W        W70008  36.921  40.362   0.437
97716W        W70009   2.860  37.012   4.189
97717W        W70010  20.138  21.213   0.452
97718W        W70011  42.393  25.180  12.097
97719W        W70012  34.998  44.011  12.552
97720W        W70013  10.809  37.456   3.203
97721W        W70014  14.240   3.799   1.338
97722W        W70015   9.316  20.763  10.639
97723W        W70016  37.578  17.782   3.292
97724W        W70017   3.368   4.809  14.500
97725W        W70018  28.982  17.581   2.410
97726W        W70019  32.523  34.521   0.823
97727W        W70020  27.504  21.667   2.842
97728W        W70021  42.471  29.483  12.524
97729W        W70022  26.056   2.394   2.750
97730W        W70023   0.445  18.141   4.152
97731W        W70024  22.115  31.080   0.932
97732W        W70025   4.212  26.014  13.847
97733W        W70026   2.728  22.582   2.348
97734W        W70027  26.179  39.888   0.452
97735W        W70028   0.967  20.595  12.999
97736W        W70029  44.311  43.832  14.362
97737W        W70030   4.391  41.885   2.249
97738W        W70031  39.965  35.903  14.323
97739W        W70032  18.151  11.288  10.633
97740W        W70033   4.344  39.466   3.253
97741W        W70034  16.170  10.235  11.897
97742W        W70035   5.763  22.564   2.416
97743W        W70036   4.887  33.409  14.313
97744W        W70037  35.891  32.456   4.239
97745W        W70038  15.108  24.567   0.779
97746W        W70039  10.700  39.407  14.810
97747W        W70040  28.089  42.827  13.437
97748W        W70041  12.201  27.477   0.290
97749W        W70042  38.329  36.899   4.655
97750W        W70043  27.526  37.899   1.864
97751W        W70044  38.945   8.328   0.771
97752W        W70045  17.155  42.943   5.193
97753W        W70046   7.376   7.333   3.832
97754W        W70047  23.007  27.084   0.372
97755W        W70048   2.468  33.413  12.867
97756W        W70049  42.379  19.088   1.698
97757W        W70050  31.908  27.021  11.052
97758W        W70051  26.201  22.740   4.780
97759W        W70052  11.208  30.656  11.999
97760W        W70053   4.264  17.095  13.955
97761W        W70054   4.379   0.938   3.863
97762W        W70055   2.876  25.667  10.631
97763W        W70056  40.933  27.197  12.370
97764W        W70057  44.003  36.479  12.549
97765W        W70058  24.033  17.293   0.342
97766W        W70059   6.380  10.240  10.408
97767W        W70060   0.982  42.893  12.410
97768W        W70061   4.442  11.841   1.219
97769W        W70062  21.752  38.459   4.627
97770W        W70063  10.829  33.931   4.651
97771W        W70064  29.646  18.102   3.188
97772W        W70065  14.626  31.124   2.703
97773W        W70066   5.391  35.441  10.574
97774W        W70067  44.824  14.763  11.573
97775W        W70068  18.643  28.039  13.975
97776W        W70069  31.555  11.862  11.927
97777W        W70070  16.262   3.915   4.818
97778W        W70071   0.399  16.792   3.663
97779W        W70072  23.994   0.476   0.907
97780W        W70073   7.887  41.905   3.654
97781W        W70074   7.399   4.364   3.182
97782W        W70075  19.637   2.387   1.816
97783W        W70076  13.278  44.949  11.457
97784W        W70077  20.244  10.634   0.858
97785W        W70078  32.489  10.640   0.859
97786W        W70079  42.809   8.319   0.929
97787W        W70080  30.514  41.864   4.186
97788W        W70081   9.658  38.426   3.345
97789W        W70082  32.092  37.524  12.007
97790W        W70083  22.606   2.841  14.897
97791W        W70084  44.813  10.162   2.823
97792W        W70085   1.750  23.164   3.816
97793W        W70086  29.623  42.527  12.027
97794W        W70087  26.078  24.049  13.512
97795W        W70088  23.007  35.554  12.959
97796W        W70089   3.924  31.041  12.941
97797W        W70090  29.145  11.241  12.536
97798W        W70091  17.580  12.322  12.997
97799W        W70092   7.378  16.575   3.376
97800W        W70093  27.495  33.502  10.546
97801W        W70094  27.058   1.770  12.565
97802W        W70095  30.582  40.469   4.788
97803W        W70096   4.820  31.531   1.428
97804W        W70097  39.468  22.725  13.858
97805W        W70098  18.158  24.138   3.163
97806W        W70099  35.442  42.481  10.958
97807W        W70100  18.699  38.842   4.632
97808W        W70101  28.472  18.646   3.318
97809W        W70102  38.476  29.986   4.229
97810W        W70103  14.120  14.279  12.897
97811W        W70104  40.454   1.337  12.968
97812W        W70105  16.607  12.252  13.864
97813W        W70106  38.076  29.042   2.690
97814W        W70107  30.999  42.401   3.671
97815W        W70108  43.956   0.872   3.168
97816W        W70109  43.975  27.012  10.444
97817W        W70110  23.223  26.076  13.903
97818W        W70111  27.549  31.629  10.938
97819W        W70112  26.961  35.498  11.409
97820W        W70113   5.210  28.044   2.774
97821W        W70114  20.663  25.544  13.950
97822W        W70115  20.535  24.976  14.354
97823W        W70116  19.188   7.860   4.157
97824W        W70117   3.327  35.898  13.463
97825W        W70118  13.127  37.453  13.831
97826W        W70119   6.412   5.301   0.446
97827W        W70120  19.210  24.106  13.978
97828W        W70121  13.344  20.681   4.685
97829W        W70122  39.833   7.193   2.759
97830W        W70123  36.987  25.517   2.898
97831W        W70124  20.592  39.436   3.832
97832W        W70125  23.504  31.421   1.303
97833W        W70126  15.136  31.478  12.544
97834W        W70127  28.481  15.115   3.639
97835W        W70128  39.900  25.566   2.900
97836W        W70129  28.170   3.815  11.982
97837W        W70130  23.659  31.604  10.616
97838W        W70131  40.411  24.674   4.816
97839W        W70132  10.641  23.537  12.568
97840W        W70133  37.557  29.168   2.768
97841W        W70134  39.926  20.078  13.832
97842W        W70135  28.115  41.342   4.252
97843W        W70136  26.693  15.084   4.263
97844W        W70137  34.881   9.250  12.034
97845W        W70138  13.654  30.017   3.642
97846W        W70139  27.119  42.403   3.697
97847W        W70140  21.252   4.900  14.942
97848W        W70141   7.740   3.883  10.490
97849W        W70142  20.742  37.856  12.900
97850W        W70143  14.150  25.564  12.875
97851W        W70144  35.543  26.531   5.258
97852W        W70145  15.782  10.167   1.303
97853W        W70146   7.249   5.331  11.101
97854W        W70147  28.641   7.235  14.366
97855W        W70148  11.708  32.606   4.186
97856W        W70149  29.423  33.520  10.452
97857W        W70150  16.180  39.955  11.961
97858W        W70151  26.473  43.414  13.878
97859W        W70152  22.184  17.132  11.968
97860W        W70153  37.915  27.622   1.451
97861W        W70154  36.377  44.800   1.752
97862W        W70155   3.855   2.235   1.210
97863W        W70156  10.841  43.371   0.749
97864W        W70157  26.556  33.103  13.490
97865W        W70158  37.539  43.843   4.608
97866W        W70159  21.725   8.821  14.926
97867W        W70160  36.588  40.052  11.984
97868W        W70161   3.876  33.541  13.955
97869W        W70162   7.793  31.931  13.043
97870W        W70163  38.932   5.857   2.251
97871W        W70164  41.789  38.475   0.477
97872W        W70165  21.190  20.165   4.760
97873W        W70166  39.560  25.554   3.852
97874W        W70167  17.246   4.229  14.436
97875W        W70168  16.209  35.502   0.304
97876W        W70169  33.085  19.209   3.677
97877W        W70170  19.228  35.083  13.908
97878W        W70171   8.357  31.152  13.970
97879W        W70172  42.447  15.807   4.175
97880W        W70173  27.462   7.241  13.522
97881W        W70174  31.983  43.380  10.611
97882W        W70175   7.323  30.913   0.795
97883W        W70176  40.972  38.940  10.596
97884W        W70177   9.882   8.758   0.957
97885W        W70178  39.546   1.441   4.195
97886W        W70179   3.367  39.332   2.376
97887W        W70180  33.949  15.633  13.484
97888W        W70181  44.856  22.617  13.970
97889W        W70182  19.702  35.458  13.417
97890W        W70183  13.154  43.382   0.347
97891W        W70184  40.032   1.265   1.271
97892W        W70185  39.957  40.443  12.475
97893W        W70186  41.995  18.200   2.825
97894W        W70187   0.857  29.442   5.136
97895W        W70188  39.974  19.691  13.972
97896W        W70189  36.365  28.607   0.817
97897W        W70190  14.305  21.073   4.638
97898W        W70191  13.734  19.081   4.759
97899W        W70192   2.743  34.480  12.883
97900W        W70193  30.955  31.460   4.292
97901W        W70194  13.717  21.686  12.400
97902W        W70195  43.814  33.510   9.580
97903W        W70196  29.496  28.086  13.920
97904W        W70197  39.523  36.347  13.039
97905W        W70198  14.115  16.589  13.863
97906W        W70199   1.959   0.832  10.560
97907W        W70200  21.517  38.498   1.823
97908W        W70201  32.990  14.793   3.204
97909W        W70202  42.449   1.842  14.925
97910W        W70203   2.922  26.105   1.893
97911W        W70204  16.609  15.800   0.381
97912W        W70205  17.681   1.801  11.412
97913W        W70206  43.993  39.477   1.715
97914W        W70207  24.528  24.211   2.854
97915W        W70208  44.888  23.027   0.257
97916W        W70209   4.917  25.079   1.300
97917W        W70210  15.247  21.191   2.333
97918W        W70211  27.017  25.482   1.237
97919W        W70212   0.927  26.968  10.962
97920W        W70213  36.425  15.579   0.790
97921W        W70214  22.720  43.398  12.921
97922W        W70215   0.969  33.588   1.844
97923W        W70216  36.487  27.106   1.410
97924W        W70217   3.842   8.247  10.445
97925W        W70218   1.439  39.007   4.712
97926W        W70219  23.023  40.305   3.833
97927W        W70220  27.943  31.944  12.994
97928W        W70221  31.078  40.448  14.309
97929W        W70222  10.380  21.691  12.923
97930W        W70223   7.381  30.425  10.535
97931W        W70224  14.276  19.650   0.248
97932W        W70225  17.225  27.980   1.875
97933W        W70226   8.898  21.238  11.444
97934W        W70227  23.994   8.387  14.317
97935W        W70228  13.839  41.850   4.674
97936W        W70229  26.978  28.635   3.272
97937W        W70230  31.014  44.838  12.394
97938W        W70231  16.647   6.738   1.293
97939W        W70232   8.668  26.153   2.875
97940W        W70233  23.237  37.578  11.906
97941W        W70234   7.351  20.665   0.379
97942W        W70235  43.968   4.802   0.434
97943W        W70236  21.598  16.281   2.376
97944W        W70237  24.043  39.485   0.764
97945W        W70238  14.271  35.049  12.936
97946W        W70239  30.503  36.449  11.420
97947W        W70240  32.042  19.189   4.673
97948W        W70241  42.990  38.437  11.868
97949W        W70242  30.458  22.129  11.375
97950W        W70243  29.157  28.034   4.305
97951W        W70244  28.559   1.867   2.266
97952W        W70245  18.637  25.644   3.317
97953W        W70246  22.572  38.475  14.366
97954W        W70247  11.828  42.919  13.873
97955W        W70248  43.488   7.207   1.764
97956W        W70249  16.808  14.727  10.958
97957W        W70250  15.824  11.262  13.378
97958W        W70251  38.502  31.935   4.199
97959W        W70252  25.529  28.037   1.702
97960W        W70253  31.458   4.305   4.310
97961W        W70254   2.284  28.957  12.965
97962W        W70255  44.850  32.115   1.933
97963W        W70256  16.259  21.678   5.286
97964W        W70257   1.804  34.998   2.810
97965W        W70258  41.319  17.722  10.000
97966W        W70259  39.509  43.303  10.514
97967W        W70260  38.416  29.085   2.396
97968W        W70261   5.249  44.818   3.264
97969W        W70262  32.914  40.837   4.713
97970W        W70263  12.354  22.548   0.767
97971W        W70264  14.698  11.162   4.839
97972W        W70265  18.670   6.241   5.228
97973W        W70266   0.895  44.791  10.643
97974W        W70267  13.204  44.357   9.944
97975W        W70268  18.683   7.411   3.709
97976W        W70269  22.615  37.400   3.377
97977W        W70270   1.907  12.679   3.372
97978W        W70271  39.974  13.835  10.445
97979W        W70272   7.205  24.223  11.959
97980W        W70273  28.144  17.099  13.005
97981W        W70274  44.292  22.524   2.393
97982W        W70275  26.001   4.424  11.019
97983W        W70276  25.106  28.102   1.812
97984W        W70277  20.193   3.225   3.725
97985W        W70278  18.662  21.033  10.011
97986W        W70279  11.862  16.792   2.357
97987W        W70280   1.860   2.288  12.535
97988W        W70281  43.798  22.579   3.252
97989W        W70282   6.814   4.734   3.644
97990W        W70283  42.948  24.101  13.886
97991W        W70284   2.229  32.900   0.798
97992W        W70285  31.431   0.349   0.967
97993W        W70286  26.201   3.369  11.609
97994W        W70287  10.248  15.121  14.367
97995W        W70288  20.737   3.415  14.766
97996W        W70289  12.219  29.141   2.351
97997W        W70290   1.395  36.471   4.354
97998W        W70291  17.183  10.314  10.906
97999W        W70292  11.181  31.125   4.807
98000W        W70293  34.554   2.404   0.386
98001W        W70294  41.470   9.650   3.205
98002W        W70295  29.067  23.531  11.027
98003W        W70296   9.814  34.423  12.389
98004W        W70297  39.548  30.972   2.787
98005W        W70298  30.548  17.188   2.839
98006W        W70299  35.062   9.722   2.289
98007W        W70300  25.975   7.366   0.836
98008W        W70301   1.843  36.089  13.055
98009W        W70302  32.051  11.334   3.314
98010W        W70303  39.387  16.306  14.856
98011W        W70304  25.556  36.433  11.963
98012W        W70305  31.914  26.991  12.460
98013W        W70306  26.551  20.661  13.931
98014W        W70307  22.515  28.678  12.902
98015W        W70308   2.297  26.472  12.474
98016W        W70309  44.002   6.915  14.416
98017W        W70310  39.935  37.338  11.437
98018W        W70311  35.500  26.180  12.496
98019W        W70312   3.338   9.315   0.445
98020W        W70313  41.342  35.935   3.859
98021W        W70314  29.561   5.741  10.487
98022W        W70315  12.309   2.820  11.978
98023W        W70316  10.634  39.502  10.621
98024W        W70317   9.829   5.769   4.695
98025W        W70318   9.227  42.350  11.405
98026W        W70319  12.776   4.924   4.623
98027W        W70320  26.672  37.443  11.902
98028W        W70321  20.100   5.198   3.235
98029W        W70322   4.370  13.345   2.260
98030W        W70323  19.551  21.248   4.140
98031W        W70324  21.701  29.445   3.221
98032W        W70325  26.466  14.757  11.911
98033W        W70326  10.737  21.747  13.334
98034W        W70327  28.943  43.472  13.914
98035W        W70328   5.244  13.780   3.223
98036W        W70329  13.795  37.895  12.038
98037W        W70330   0.852  14.820  11.437
98038W        W70331  37.393  22.709   4.657
98039W        W70332  22.743  43.326  11.521
98040W        W70333  16.707  33.982  13.873
98041W        W70334  42.957  19.105   1.911
98042W        W70335   0.320  32.045  12.970
98043W        W70336   7.750  41.388   4.198
98044W        W70337   0.907  14.139  14.447
98045W        W70338  37.511  32.601  12.937
98046W        W70339  11.677  19.281   2.830
98047W        W70340   2.433   2.795   3.222
98048W        W70341  29.599  38.335  11.499
98049W        W70342  23.051   7.244   0.447
98050W        W70343  34.608  17.243   4.167
98051W        W70344  17.582  20.200  14.364
98052W        W70345  37.475   3.888  11.985
98053W        W70346  35.882  44.395  12.451
98054W        W70347  18.204  33.539   2.254
98055W        W70348  23.139  35.376   1.415
98056W        W70349   7.287  12.231  12.546
98057W        W70350  25.003  19.095   0.245
98058W        W70351  43.435   1.293   0.441
98059W        W70352  17.144  12.294   4.133
98060W        W70353  22.522   9.183  13.397
98061W        W70354  42.352  35.944   4.287
98062W        W70355  21.063  11.204  10.451
98063W        W70356   1.383  33.447  14.434
98064W        W70357  37.022   7.225   1.728
98065W        W70358  44.816  31.501  13.791
98066W        W70359  41.313  18.770   2.897
98067W        W70360  21.251  26.608  14.486
98068W        W70361  14.827  25.100   3.768
98069W        W70362  34.437  24.544  12.457
98070W        W70363  36.578  14.291   2.386
98071W        W70364  43.455   5.925  13.481
98072W        W70365  24.171  37.947   2.865
98073W        W70366  41.889  19.069   9.508
98074W        W70367  42.302  33.893  10.996
98075W        W70368  40.882  16.744  11.119
98076W        W70369  41.909  17.070   5.258
98077W        W70370   1.783   9.224   2.184
98078W        W70371  36.435  19.259   4.712
98079W        W70372  34.572  24.988  14.428
98080W        W70373   2.296  35.054  11.481
98081W        W70374  42.893  38.878  14.294
98082W        W70375  38.471   2.233  13.970
98083W        W70376  42.872  42.027  11.553
98084W        W70377  32.047  43.998  11.911
98085W        W70378  40.862  11.653   4.321
98086W        W70379   4.207  29.921  14.792
98087W        W70380   8.846  36.874   1.280
98088W        W70381  26.580   5.740   4.247
98089W        W70382   3.411  33.508  12.829
98090W        W70383  20.757  14.286   3.655
98091W        W70384  43.926   5.718  11.582
98092W        W70385  37.575  29.989  10.615
98093W        W70386  18.106  15.183  12.991
98094W        W70387  14.617  39.462  12.867
98095W        W70388  41.431   3.319  11.447
98096W        W70389  44.268  14.264   9.973
98097W        W70390  33.411  26.698   0.965
98098W        W70391  14.202   1.944   2.218
98099W        W70392   2.366   7.210   4.748
98100W        W70393  13.796  16.774  13.465
98101W        W70394   7.292  19.197   3.737
98102W        W70395  22.511  22.728   0.354
98103W        W70396  32.532  24.647  11.900
98104W        W70397  37.979   6.237  11.977
98105W        W70398  14.625  44.301  12.095
98106W        W70399  18.155  22.553   2.838
98107W        W70400  36.530   0.483   0.855
98108W        W70401  33.125  20.544   2.895
98109W        W70402   4.875  11.295  12.932
98110W        W70403  11.332  25.707  10.923
98111W        W70404  32.465   8.380   1.802
98112W        W70405  43.409  13.138  14.896
98113W        W70406  17.642   9.879   4.354
98114W        W70407  41.005  39.023   1.263
98115W        W70408   1.480  23.988  11.504
98116W        W70409   6.749  12.677  10.993
98117W        W70410   3.323  39.537   2.884
98118W        W70411  31.435  35.963   0.747
98119W        W70412  38.044  20.597   3.722
98120W        W70413  44.866   5.691  13.458
98121W        W70414  32.069  41.808  12.947
98122W        W70415  41.038  11.218  10.958
98123W        W70416  28.658  18.185  12.910
98124W        W70417  14.096  13.140  13.055
98125W        W70418  13.216  10.332  13.417
98126W        W70419  44.852  10.786  12.006
98127W        W70420  44.859  17.783  11.984
98128W        W70421  19.206  11.733  12.427
98129W        W70422  29.934   8.277  14.845
98130W        W70423  10.288  20.195  10.593
98131W        W70424  18.736  27.490  14.313
98132W        W70425  28.529  29.116  14.483
98133W        W70426  38.545  42.880   4.244
98134W        W70427  12.260  21.168   0.848
98135W        W70428  32.120  28.575  14.447
98136W        W70429  35.868  36.061  13.547
98137W        W70430  30.656  20.046  11.581
98138W        W70431   6.870  28.960   0.416
98139W        W70432  42.316  19.278  13.451
98140W        W70433   3.338  41.847   4.294
98141W        W70434  18.569  38.977  14.380
98142W        W70435   7.336  13.172  14.821
98143W        W70436  39.461  19.193  14.513
98144W        W70437   0.384   4.874   4.208
98145W        W70438  13.839  20.272  11.996
98146W        W70439  18.112  31.083   1.352
98147W        W70440  16.306   5.374   0.756
98148W        W70441  26.058  15.779  14.447
98149W        W70442  32.520  20.257  14.845
98150W        W70443  35.389  14.255   0.307
98151W        W70444  36.543   8.726   1.726
98152W        W70445  15.790  32.439  10.106
98153W        W70446  41.842  19.175  12.836
98154W        W70447  21.653  16.309   3.739
98155W        W70448   0.380   3.368  12.443
98156W        W70449  29.931  10.141   1.303
98157W        W70450  15.265  39.038  10.637
98158W        W70451  16.156  44.941   0.359
98159W        W70452  44.395  15.628   0.862
98160W        W70453   2.764   3.302   1.322
98161W        W70454  16.794   4.832  11.956
98162W        W70455  25.197  30.924  12.962
98163W        W70456  17.730  26.494  13.824
98164W        W70457  25.999  43.355  11.067
98165W        W70458  14.122  41.956   2.381
98166W        W70459  30.084  31.958   0.448
98167W        W70460  14.745  38.025   3.697
98168W        W70461  33.919   5.409   0.423
98169W        W70462  11.666  26.680   1.871
98170W        W70463  22.574  43.801  12.020
98171W        W70464   6.701   1.950  12.453
98172W        W70465   8.391  35.060   4.240
98173W        W70466  11.623  12.633   3.634
98174W        W70467  34.508   8.396  11.882
98175W        W70468  40.426  23.122  12.364
98176W        W70469  20.583  37.410   4.686
98177W        W70470  26.474  28.488   2.841
98178W        W70471  25.693  43.767  13.897
98179W        W70472  11.800  41.441  11.488
98180W        W70473   0.270  30.478   2.794
98181W        W70474  29.610  36.914   4.618
98182W        W70475  13.697  39.480   1.748
98183W        W70476  18.730  33.953  14.876
98184W        W70477  11.839  12.654   1.248
98185W        W70478  21.123   8.695  11.863
98186W        W70479   8.792   3.939  14.801
98187W        W70480   7.203  31.100   2.804
98188W        W70481  18.136  30.492   0.823
98189W        W70482   1.911  30.971   4.770
98190W        W70483  19.612  11.194   3.248
98191W        W70484  19.137  22.724   4.292
98192W        W70485  25.576  31.442   1.286
98193W        W70486  23.145  33.474   4.658
98194W        W70487  16.609  44.778  11.408
98195W        W70488  12.768  22.561   4.835
98196W        W70489   5.253  14.682   1.308
98197W        W70490  30.932   8.662  11.876
98198W        W70491   4.294  11.679   2.266
98199W        W70492  14.150   2.841   0.930
98200W        W70493   9.287   5.306  13.370
98201W        W70494  25.002  27.032   2.308
98202W        W70495  21.645  44.271   3.306
98203W        W70496  14.616  33.474  11.880
98204W        W70497  10.794  44.376  11.452
98205W        W70498  24.685   8.185  10.512
98206W        W70499   2.834  21.023  11.433
98207W        W70500  41.810  25.104   2.718
98208W        W70501   8.277  23.001   1.812
98209W        W70502  15.785  38.923   1.889
98210W        W70503  31.987  41.931   1.395
98211W        W70504  15.805  34.037  14.933
98212W        W70505   9.862  29.118  12.905
98213W        W70506  22.563   8.890   0.420
98214W        W70507  33.052  32.535  12.832
98215W        W70508  44.791  16.568  11.610
98216W        W70509  33.900  19.568   3.816
98217W        W70510  25.151  32.951   2.670
98218W        W70511  41.015  14.200  13.055
98219W        W70512   0.938  43.456  10.491
98220W        W70513  42.956  12.175  10.596
98221W        W70514  28.128  18.121   3.382
98222W        W70515   3.414  42.451  13.330
98223W        W70516  42.320  38.978   3.797
98224W        W70517  19.111  17.265  11.120
98225W        W70518   4.420  12.194  10.944
98226W        W70519  34.016   4.291  14.911
98227W        W70520   4.448   9.672  13.308
98228W        W70521  36.441  34.968   2.899
98229W        W70522  34.102  21.022  10.427
98230W        W70523  43.968   6.698   3.148
98231W        W70524   7.260  20.657   4.750
98232W        W70525  31.898  27.550   4.821
98233W        W70526  19.629  35.874  11.512
98234W        W70527  38.892   1.864   2.206
98235W        W70528  35.572  26.078  11.857
98236W        W70529  32.466  32.965   3.289
98237W        W70530   0.260  22.743   2.716
98238W        W70531  26.076  30.607  12.472
98239W        W70532  12.722  43.954  12.078
98240W        W70533  25.635  20.616  13.973
98241W        W70534  25.682  35.107  11.436
98242W        W70535  34.089  23.106  12.397
98243W        W70536  39.358  26.092   2.708
98244W        W70537  35.477  31.117   4.135
98245W        W70538   8.780  16.236  10.937
98246W        W70539  20.163   4.938   3.269
98247W        W70540  19.646  18.619  12.937
98248W        W70541  23.504  30.099  12.500
98249W        W70542   5.909  29.649  10.449
98250W        W70543   0.897  19.698  13.507
98251W        W70544  12.651   3.795   1.854
98252W        W70545  13.671   3.225  12.919
98253W        W70546  40.840  25.639   3.651
98254W        W70547  40.321  29.649  11.449
98255W        W70548  36.929  29.627   4.195
98256W        W70549  16.686  22.250   0.906
98257W        W70550  41.514  44.906  13.857
98258W        W70551  16.662  43.812  14.829
98259W        W70552  14.272  12.264  11.413
98260W        W70553  20.562  17.686   0.342
98261W        W70554  16.124  23.554   3.343
98262W        W70555   5.284  21.077  10.992
98263W        W70556  20.056  16.807   3.698
98264W        W70557  28.545  44.421   2.219
98265W        W70558  20.556  37.571  10.473
98266W        W70559  35.516  35.064   0.887
98267W        W70560  40.428  13.808   2.786
98268W        W70561   7.738  21.154  13.497
98269W        W70562   9.745  12.656   4.349
98270W        W70563  44.268  37.409   3.264
98271W        W70564   8.247   7.841  12.374
98272W        W70565  41.395   7.361   3.757
98273W        W70566   7.900  15.682   0.905
98274W        W70567  33.589  11.664   3.649
98275W        W70568   9.169  42.345  14.843
98276W        W70569  25.072   1.810  10.144
98277W        W70570  11.674  17.130   2.744
98278W        W70571  28.644  20.538   5.296
98279W        W70572  20.756  42.915  12.826
98280W        W70573  27.620  10.719   3.789
98281W        W70574  18.261  22.540  12.043
98282W        W70575   0.374  43.313   3.243
98283W        W70576  34.599   3.874   2.418
98284W        W70577  17.061  21.745   0.841
98285W        W70578  39.360  25.199   2.850
98286W        W70579  25.203  41.877  13.483
98287W        W70580  24.196  39.360   3.331
98288W        W70581   6.710   1.281  13.386
98289W        W70582  32.047  25.131   1.378
98290W        W70583  11.690  16.757   1.396
98291W        W70584  37.535  25.590   1.777
98292W        W70585  37.931  27.104  14.397
98293W        W70586   2.257   0.367   4.250
98294W        W70587  20.689  19.064  11.866
98295W        W70588  22.124  38.912   0.796
98296W        W70589  22.032  19.048   3.173
98297W        W70590  42.440  21.194   4.353
98298W        W70591  23.495  32.554  10.961
98299W        W70592  38.433  38.530  14.331
98300W        W70593  13.251  36.056   4.300
98301W        W70594  38.841  43.940   3.266
98302W        W70595  15.124  41.925  14.504
98303W        W70596   6.369  19.567   3.676
98304W        W70597  15.762   4.785   2.299
98305W        W70598  41.034  12.713  10.532
98306W        W70599  18.625  16.143   1.908
98307W        W70600  39.331  16.183  12.068
98308W        W70601  23.644  14.205   0.859
98309W        W70602   0.357  34.985   0.358
98310W        W70603   2.833   6.864  14.467
98311W        W70604  26.535  10.864   2.206
98312W        W70605  20.659  25.107   0.847
98313W        W70606   2.243  17.686   2.794
98314W        W70607  26.684  33.416   4.724
98315W        W70608   5.364  29.454  10.616
98316W        W70609  30.077  42.327  13.905
98317W        W70610   7.849  10.258   5.127
98318W        W70611  41.976  11.762   2.284
98319W        W70612  22.728  25.534  13.050
98320W        W70613   1.478   8.872  11.054
98321W        W70614  32.503  42.885   3.275
98322W        W70615  35.450   6.774   4.261
98323W        W70616  36.500  10.364  13.937
98324W        W70617  19.189  33.908   4.756
98325W        W70618  41.832  19.259   0.391
98326W        W70619  34.529  14.224   3.332
98327W        W70620  27.486  38.962  11.602
98328W        W70621  10.233  15.092   2.204
98329W        W70622  35.554  20.768  13.871
98330W        W70623  16.775  21.082  13.427
98331W        W70624  39.373  35.409   0.846
98332W        W70625  41.968  13.698  10.892
98333W        W70626  24.111   6.232  14.979
98334W        W70627  33.612  26.178   0.386
98335W        W70628   6.253  12.700   4.116
98336W        W70629  16.099  25.504  13.960
98337W        W70630  27.001  12.825   4.644
98338W        W70631  30.941  26.990   4.204
98339W        W70632  33.880  13.174   3.663
98340W        W70633  20.070   0.847  12.834
98341W        W70634  27.995  42.939  12.037
98342W        W70635  25.070  36.586   1.831
98343W        W70636   6.374   6.735   0.310
98344W        W70637  10.765  30.933   3.861
98345W        W70638   2.800  14.267   1.822
98346W        W70639   8.837  26.624   2.414
98347W        W70640  32.959  22.189  12.488
98348W        W70641  42.453  22.525  12.036
98349W        W70642  24.480  31.141  13.543
98350W        W70643   0.802  26.144   3.320
98351W        W70644  12.354  44.853  14.343
98352W        W70645   6.742  11.198   0.937
98353W        W70646  24.144  13.208  13.498
98354W        W70647  34.954  33.922  13.546
98355W        W70648   5.811  35.036   5.770
98356W        W70649  29.969   3.402   2.841
98357W        W70650   8.300  32.079   4.174
98358W        W70651  23.638  41.505  11.070
98359W        W70652  42.827  10.846   3.681
98360W        W70653   0.798   4.349   4.202
98361W        W70654  15.737   1.309   0.767
98362W        W70655  16.079   4.299   0.929
98363W        W70656  43.482  33.081   4.794
98364W        W70657  43.341  33.542  13.914
98365W        W70658  44.997   5.337  13.544
98366W        W70659  22.522  29.479   3.753
98367W        W70660  44.755  37.838   0.347
98368W        W70661   5.266   6.876  14.397
98369W        W70662  40.002  39.064  12.034
98370W        W70663  17.302  10.646  10.103
98371W        W70664  19.729  25.022  13.908
98372W        W70665  44.486  24.515   2.796
98373W        W70666  19.158   0.795  12.916
98374W        W70667  41.926  28.491  13.945
98375W        W70668  37.341   6.257  14.389
98376W        W70669   1.237  12.798   3.756
98377W        W70670  23.124  28.670  12.456
98378W        W70671  27.504  25.162   1.308
98379W        W70672   8.208  43.461  11.588
98380W        W70673  15.743   1.355  12.937
98381W        W70674  18.585  19.724  11.056
98382W        W70675   5.271  31.408  14.790
98383W        W70676  13.140   5.256  13.362
98384W        W70677  35.504  27.510   1.823
98385W        W70678  38.474  37.471  14.279
98386W        W70679   8.694  15.103  12.879
98387W        W70680  29.100  42.927  13.898
98388W        W70681  37.477  24.168  10.564
98389W        W70682  21.127   2.744  10.621
98390W        W70683  14.196  31.429  10.983
98391W        W70684  28.616  24.028  12.543
98392W        W70685  26.500  31.602   4.188
98393W        W70686  41.022   8.174   4.623
98394W        W70687  32.533  28.496   2.255
98395W        W70688  39.363  27.152   3.327
98396W        W70689   2.345   6.370  14.901
98397W        W70690  39.560  15.162   0.432
98398W        W70691   5.838   8.662  14.807
98399W        W70692  31.030  12.124  13.825
98400W        W70693  30.996  41.903  10.570
98401W        W70694  42.846  13.783   1.213
98402W        W70695  16.603  20.064   3.380
98403W        W70696   9.178  41.020  14.288
98404W        W70697  27.643   9.654  13.320
98405W        W70698  20.746  13.715   2.208
98406W        W70699  14.659  29.007  14.919
98407W        W70700  31.531  30.484  10.632
98408W        W70701   3.314  42.503  13.863
98409W        W70702  18.190  30.093   4.302
98410W        W70703  11.185  41.468  12.474
98411W        W70704  12.190  19.084  11.902
98412W        W70705  22.084  35.883  13.397
98413W        W70706  26.578  37.897   2.354
98414W        W70707  39.367   6.240   2.409
98415W        W70708   6.804   3.798   2.798
98416W        W70709   1.757  13.735  14.007
98417W        W70710  24.051  30.531   0.413
98418W        W70711  24.182   2.288  12.011
98419W        W70712  14.667  34.087  11.469
98420W        W70713  26.465  43.391  13.373
98421W        W70714  35.867   0.946  13.060
98422W        W70715  41.869  36.091  10.504
98423W        W70716  10.155  16.778   1.328
98424W        W70717  39.052  42.000   4.349
98425W        W70718  44.302  20.111   4.641
98426W        W70719  14.160   6.735  11.590
98427W        W70720  35.067  25.633   2.417
98428W        W70721  43.479   1.832  13.348
98429W        W70722  17.219  39.438  12.969
98430W        W70723   4.921  29.926   4.740
98431W        W70724  11.289  33.462   0.244
98432W        W70725  21.642   7.904   3.385
98433W        W70726   2.447  28.932   2.794
98434W        W70727   4.415  21.690  11.608
98435W        W70728  41.312   3.820  11.008
98436W        W70729   1.841  13.142  14.506
98437W        W70730  31.592  23.652  13.375
98438W        W70731  20.216   5.856  11.566
98439W        W70732  21.639  14.654  12.022
98440W        W70733  35.489  10.791   3.698
98441W        W70734  32.025  37.996  10.417
98442W        W70735  24.177  12.191   0.831
98443W        W70736   1.345  33.993  12.488
98444W        W70737  42.410   1.907   0.908
98445W        W70738   3.742   0.888  12.497
98446W        W70739  15.310  26.457  11.565
98447W        W70740  16.621   7.317  14.896
98448W        W70741  10.198  27.558  13.880
98449W        W70742  29.641  21.258  12.360
98450W        W70743  30.553  34.070  12.354
98451W        W70744  24.090  18.774   1.845
98452W        W70745   7.841   7.334  13.943
98453W        W70746  44.298  37.847   3.699
98454W        W70747  40.385  13.828  14.846
98455W        W70748   2.362  23.102   1.432
98456W        W70749  44.266  38.868   5.088
98457W        W70750  44.860  33.962   3.160
98458W        W70751  40.388  10.286  10.038
98459W        W70752  15.285  17.604  13.036
98460W        W70753  34.416   3.719  10.436
98461W        W70754   4.394  42.968   0.899
98462W        W70755   4.228  12.683  10.479
98463W        W70756  42.414  33.461  13.483
98464W        W70757  23.102  27.546  12.826
98465W        W70758   8.279  42.470   3.767
98466W        W70759   3.930  25.059   1.335
98467W        W70760  37.866  18.710   1.708
98468W        W70761   8.332  17.122   4.162
98469W        W70762  29.962  15.201   3.727
98470W        W70763  28.560   9.265  13.937
98471W        W70764   5.920   5.917  11.485
98472W        W70765  19.139  44.259   3.254
98473W        W70766  12.670  40.903  10.530
98474W        W70767  42.422  43.986   1.379
98475W        W70768  12.322   5.746   4.729
98476W        W70769  16.149  44.484   0.860
98477W        W70770  34.565   2.244   3.868
98478W        W70771   0.382  13.665   4.326
98479W        W70772  34.474  27.125  12.852
98480W        W70773   2.809   5.769   2.245
98481W        W70774  37.974   3.835  14.888
98482W        W70775  40.004  37.439  14.411
98483W        W70776  40.865  26.629   3.149
98484W        W70777  40.923  42.439   2.680
98485W        W70778  33.104  14.289  12.553
98486W        W70779  27.949  44.988   3.777
98487W        W70780  18.729  19.053   2.268
98488W        W70781   7.699  37.944  12.069
98489W        W70782  42.324   2.911  11.580
98490W        W70783   7.699   7.285   4.764
98491W        W70784  12.758  12.809  10.912
98492W        W70785   7.676  37.839  11.597
98493W        W70786   4.730  42.795   2.757
98494W        W70787  33.620   0.806  13.515
98495W        W70788   0.773  37.527   0.420
98496W        W70789  29.935  26.005  12.971
98497W        W70790  40.892  28.673   1.395
98498W        W70791  39.842  22.109   1.813
98499W        W70792   0.350  44.301   3.785
98500W        W70793   7.705  31.095  14.764
98501W        W70794  44.402  28.621   0.927
98502W        W70795  36.426  23.175   2.208
98503W        W70796   6.356  33.068  11.017
98504W        W70797  23.700  29.088  12.370
98505W        W70798  32.519  42.918   1.307
98506W        W70799  43.347   1.920   2.690
98507W        W70800  39.809   7.183  11.083
98508W        W70801  35.559  19.763  11.432
98509W        W70802  23.641  37.950  12.377
98510W        W70803  15.258  18.084  12.922
98511W        W70804   9.182   8.304   0.463
98512W        W70805  35.978   6.324  14.493
98513W        W70806  34.936  31.908   4.137
98514W        W70807  24.067   3.359   3.356
98515W        W70808  21.720   9.873   3.379
98516W        W70809   7.679  24.573   3.272
98517W        W70810  17.123   9.332   0.319
98518W        W70811   2.448  44.417  11.874
98519W        W70812  20.668  20.737  11.379
98520W        W70813  27.523  26.157  12.938
98521W        W70814  20.146  42.921  11.002
98522W        W70815   8.213  12.155  13.430
98523W        W70816  17.285  10.855   1.411
98524W        W70817  38.415   0.891  11.932
98525W        W70818  20.263  31.481  12.436
98526W        W70819  27.972  20.714   1.451
98527W        W70820  26.606  34.584   0.372
98528W        W70821  24.711  44.002  14.987
98529W        W70822   4.858  33.594   0.323
98530W        W70823  44.774  33.456  10.451
98531W        W70824  22.726   1.821   3.870
98532W        W70825  11.626  26.681  14.428
98533W        W70826  42.969  18.228   1.808
98534W        W70827  37.348  40.984  13.430
98535W        W70828  11.672  38.852  10.501
98536W        W70829   2.818   4.724   4.289
98537W        W70830   1.813  15.311  14.798
98538W        W70831  39.358  22.204  11.491
98539W        W70832  35.440   2.302   2.320
98540W        W70833  17.226  13.757  12.965
98541W        W70834  32.986  39.887   1.373
98542W        W70835  41.898  40.455  13.402
98543W        W70836  41.925  20.580  14.511
98544W        W70837   6.900   7.385  12.385
98545W        W70838  26.652   8.312  11.554
98546W        W70839  29.492  23.235   3.820
98547W        W70840  30.632  39.988   0.860
98548W        W70841  10.353   1.399  13.865
98549W        W70842  36.990  24.598   4.826
98550W        W70843  34.437  24.488   1.365
98551W        W70844   7.350  41.443   4.747
98552W        W70845  18.149  24.534   0.791
98553W        W70846  12.835  26.636   3.719
98554W        W70847  23.618  21.100  14.977
98555W        W70848  21.181  28.150  13.938
98556W        W70849  40.443  42.305  11.399
98557W        W70850  13.691  15.141   4.805
98558W        W70851  43.501  17.564   4.119
98559W        W70852   9.209  27.974   2.411
98560W        W70853  43.832  23.188   0.884
98561W        W70854  36.993  18.053  14.772
98562W        W70855  34.085  29.077  11.066
98563W        W70856  37.565  18.148   2.843
98564W        W70857  16.268   2.293   5.172
98565W        W70858  17.748   4.450  14.289
98566W        W70859   6.368  41.306   0.273
98567W        W70860  24.227   9.392   3.218
98568W        W70861  41.402  32.031  13.383
98569W        W70862  10.248   0.372   4.619
98570W        W70863  41.326   0.897   0.448
98571W        W70864  31.045  41.358  14.763
98572W        W70865  19.570   3.400   0.937
98573W        W70866  11.336  10.637  12.923
98574W        W70867  30.540  42.501   3.171
98575W        W70868  33.014  43.466  13.329
98576W        W70869  35.891   5.784   1.247
98577W        W70870  11.687  44.453  11.099
98578W        W70871  44.441  29.597   5.287
98579W        W70872  35.986  37.494   4.158
98580W        W70873  23.633  37.858   0.365
98581W        W70874  36.454  37.494  13.058
98582W        W70875  44.824  38.017  13.925
98583W        W70876  39.498  41.031  11.873
98584W        W70877  10.773  18.064   3.653
98585W        W70878  12.752  14.816   4.612
98586W        W70879  34.898  28.019  13.815
98587W        W70880  15.147   8.185  14.426
98588W        W70881  32.944  27.459   3.727
98589W        W70882  30.035  37.455   2.855
98590W        W70883  16.209  13.662  13.389
98591W        W70884  13.725  34.584   4.137
98592W        W70885  38.846  38.018  11.548
98593W        W70886  18.141  14.338   4.817
98594W        W70887  33.446  29.610  14.305
98595W        W70888  29.105  24.132  12.950
98596W        W70889   5.239  37.355  12.506
98597W        W70890  21.580  24.156   2.343
98598W        W70891   1.307  18.665   4.664
98599W        W70892   4.773  43.479   0.278
98600W        W70893  34.103  26.481  13.433
98601W        W70894  22.684  15.578   3.746
98602W        W70895  43.493  23.612   1.285
98603W        W70896   9.228  25.060  10.509
98604W        W70897   3.884  23.202  12.456
98605W        W70898  31.431  21.537  14.003
98606W        W70899  38.011  18.616  11.997
98607W        W70900  12.614   9.817   1.299
98608W        W70901   6.365  12.708  12.914
98609W        W70902   9.158  13.701   4.176
98610W        W70903  20.639  36.903  14.896
98611W        W70904   0.379  23.566  12.533
98612W        W70905  10.689  15.790   0.320
98613W        W70906  34.090  18.152   1.917
98614W        W70907   7.386   3.366   4.292
98615W        W70908  13.254  36.449  12.352
98616W        W70909  12.724   5.368  11.429
98617W        W70910  24.600  31.991  12.910
98618W        W70911  13.189   6.794   2.381
98619W        W70912  38.428  32.633  11.975
98620W        W70913   4.332  44.870  13.356
98621W        W70914  14.767   1.257  13.333
98622W        W70915  10.296  11.782  13.997
98623W        W70916  41.026   0.285  12.916
98624W        W70917   7.695   6.234  11.109
98625W        W70918  41.925   8.700  14.927
98626W        W70919  18.596  41.996  11.869
98627W        W70920  41.453  22.237  12.089
98628W        W70921  43.991  20.273  10.573
98629W        W70922  26.091  13.793  14.385
98630W        W70923   6.749  12.153   0.841
98631W        W70924  28.549  37.351   4.779
98632W        W70925  25.702  24.141  14.406
98633W        W70926  41.399  43.277   2.832
98634W        W70927  12.618  12.308  13.502
98635W        W70928  34.074   2.449   4.700
98636W        W70929  43.493  39.559  12.038
98637W        W70930  18.567  24.669  13.003
98638W        W70931  33.020  44.390  12.928
98639W        W70932   6.869   6.709  12.895
98640W        W70933   1.420  43.822  10.460
98641W        W70934  26.493   6.818  14.932
98642W        W70935   7.291  36.004  12.047
98643W        W70936   5.711  18.281  10.929
98644W        W70937   2.416  20.225   3.752
98645W        W70938   9.186  41.806  11.495
98646W        W70939   5.401  33.079   4.167
98647W        W70940  32.919  23.078   3.716
98648W        W70941  44.274  10.335  10.054
98649W        W70942  42.949  18.581  11.075
98650W        W70943  36.086  36.492  13.997
98651W        W70944  43.855  30.017   0.732
98652W        W70945  20.720  34.065   3.363
98653W        W70946  14.133  40.518   2.712
98654W        W70947  37.919   4.897   1.801
98655W        W70948   4.333  10.651  12.990
98656W        W70949  26.668  41.813   4.618
98657W        W70950  22.125  31.592  13.021
98658W        W70951   3.744  17.697   0.301
98659W        W70952  31.433  41.034  14.815
98660W        W70953   3.342   9.715  10.999
98661W        W70954   5.266  12.644   1.231
98662W        W70955  14.609  33.440  10.602
98663W        W70956   5.367   6.733  14.800
98664W        W70957  35.530  15.593   3.793
98665W        W70958  36.036  39.830   2.179
98666W        W70959  31.606   4.355   0.298
98667W        W70960  17.070  43.479  12.965
98668W        W70961  28.040   3.359  12.542
98669W        W70962  29.098  24.526   4.260
98670W        W70963  29.652  36.030   3.246
98671W        W70964  39.427  22.242   4.658
98672W        W70965   1.443  12.127   2.687
98673W        W70966  40.444  26.128   4.781
98674W        W70967   5.722  35.055   2.313
98675W        W70968  17.278  12.678   1.878
98676W        W70969   6.259  14.252  12.918
98677W        W70970   7.415  26.672   3.848
98678W        W70971  13.615  19.576   4.275
98679W        W70972  16.132   1.304   4.684
98680W        W70973  13.837   0.965  14.877
98681W        W70974   3.407  43.775   4.192
98682W        W70975  38.825  23.694   4.205
98683W        W70976  14.248  44.338   4.664
98684W        W70977  15.155  40.025  14.325
98685W        W70978  18.578  18.609   0.481
98686W        W70979   4.415  24.659   1.773
98687W        W70980  30.977  39.010   0.768
98688W        W70981   0.469   7.386   1.807
98689W        W70982  12.759   8.371  13.905
98690W        W70983  13.717  40.522   1.314
98691W        W70984   0.775  30.053  13.307
98692W        W70985  12.703   6.922   0.853
98693W        W70986  10.840  16.101  10.513
98694W        W70987  44.335  38.026  13.393
98695W        W70988  14.159  24.699   4.665
98696W        W70989  13.176  42.985  12.075
98697W        W70990  21.724  12.617  13.972
98698W        W70991  13.708   3.311   1.288
98699W        W70992  14.330  27.181   4.145
98700W        W70993  41.858  25.039   4.233
98701W        W70994  35.064  12.638   0.430
98702W        W70995  33.502  42.473   9.986
98703W        W70996  20.228  24.076  10.954
98704W        W70997  16.172  35.852   3.308
98705W        W70998  17.120  41.921   5.161
98706W        W70999  34.032  10.650  10.434
98707W        W71000  34.490  22.566   0.466
98708W        W71001  21.105  43.387   5.223
98709W        W71002  22.049  27.641  11.550
98710W        W71003  31.938  21.193   0.472
98711W        W71004  19.616   1.350  10.948
98712W        W71005  34.398  37.030  12.491
98713W        W71006  36.579  32.395   4.703
98714W        W71007  10.866  28.972  12.495
98715W        W71008  19.605   8.724   2.253
98716W        W71009  12.353  36.409   4.351
98717W        W71010  41.363  41.920  13.990
98718W        W71011  19.584  28.132   3.360
98719W        W71012  23.992   9.746  14.299
98720W        W71013  44.282   0.334   2.405
98721W        W71014  40.385  38.916  11.104
98722W        W71015   7.910  37.405   0.743
98723W        W71016   9.330  39.979   3.337
98724W        W71017  31.945  39.500  10.553
98725W        W71018  18.145  24.035  13.025
98726W        W71019  14.329  41.042   3.807
98727W        W71020   7.310  22.119   2.341
98728W        W71021  22.030   7.319   4.116
98729W        W71022   3.284  24.170  11.866
98730W        W71023  42.954   3.928   0.842
98731W        W71024  28.160  42.350  10.516
98732W        W71025  19.099  33.002   9.455
98733W        W71026  10.217  23.020  11.381
98734W        W71027  35.588   2.249   0.801
98735W        W71028  13.313  22.221   4.205
98736W        W71029  16.179  11.792  13.309
98737W        W71030   7.698  36.032  10.965
98738W        W71031   8.808  37.058  13.547
98739W        W71032  41.372  30.141   0.261
98740W        W71033  34.012  31.033  14.927
98741W        W71034  23.495  29.641  11.069
98742W        W71035  13.319   7.245  11.372
98743W        W71036  31.448  39.430  13.935
98744W        W71037  37.856  16.124   4.155
98745W        W71038  34.408  29.986   2.720
98746W        W71039  26.574  27.146   4.709
98747W        W71040  36.933  16.152  14.280
98748W        W71041  20.556  14.145   2.720
98749W        W71042  10.850  24.641  14.437
98750W        W71043  14.825  43.393   1.749
98751W        W71044  40.804  27.691  10.925
98752W        W71045  44.935   8.761   4.184
98753W        W71046  31.413  20.061   2.260
98754W        W71047  19.183  14.688  10.613
98755W        W71048  28.036  42.285   2.711
98756W        W71049  26.024  33.620  12.420
98757W        W71050  10.247  30.590  10.985
98758W        W71051  19.151  41.424  11.565
98759W        W71052  12.329  24.039  11.437
98760W        W71053  13.802  29.064   1.727
98761W        W71054   8.400   4.851   2.401
98762W        W71055  43.940  28.681  10.593
98763W        W71056  25.526  14.714   3.286
98764W        W71057  14.645   4.834   9.589
98765W        W71058  24.589  30.111  13.898
98766W        W71059   3.731  14.245   2.258
98767W        W71060  19.590  18.114   3.788
98768W        W71061  44.874  39.887   2.183
98769W        W71062  30.020  21.258  14.813
98770W        W71063  25.616  25.557  12.037
98771W        W71064  38.438  12.119   3.257
98772W        W71065  36.843  34.381   0.293
98773W        W71066  35.884  15.171  13.960
98774W        W71067  40.526  13.165  12.556
98775W        W71068  28.474  39.972   2.758
98776W        W71069  24.200  13.344  11.531
98777W        W71070  44.803  35.396   0.817
98778W        W71071  35.469  44.295   4.321
98779W        W71072  17.161  17.605   4.781
98780W        W71073  38.988   5.720  10.460
98781W        W71074   7.669   6.717   4.283
98782W        W71075   4.903  34.896   2.855
98783W        W71076   9.341  25.580  12.911
98784W        W71077  37.992  26.045  13.017
98785W        W71078  26.074  18.675  12.526
98786W        W71079  30.145  38.354   1.730
98787W        W71080  29.599  44.818   0.840
98788W        W71081  38.472  18.178  12.952
98789W        W71082  29.948  21.635   4.233
98790W        W71083  15.750  29.115  12.951
98791W        W71084  18.292   5.904   0.449
98792W        W71085  23.523  18.054  13.870
98793W        W71086  42.880  29.922   4.698
98794W        W71087  33.474  28.092  13.833
98795W        W71088   3.726  22.637  12.012
98796W        W71089  27.121   0.973   0.776
98797W        W71090   1.372  31.144  14.300
98798W        W71091  29.036  43.284  12.403
98799W        W71092  16.594  18.198  13.895
98800W        W71093  24.584   2.376   3.642
98801W        W71094  38.435   4.852  10.119
98802W        W71095  31.087  15.820  10.892
98803W        W71096   2.946  30.606   4.638
98804W        W71097  17.259  12.631  14.008
98805W        W71098   3.856  32.947   2.198
98806W        W71099  30.158   7.406   0.374
98807W        W71100   7.373  32.948   0.906
98808W        W71101  29.484   9.807  10.904
98809W        W71102  40.415  25.552  14.989
98810W        W71103  43.896   6.708   4.144
98811W        W71104   4.342  25.713  13.916
98812W        W71105  39.815  14.728   2.186
98813W        W71106  24.048  15.763   0.410
98814W        W71107   3.446   5.931   3.336
98815W        W71108  26.588  20.207   2.664
98816W        W71109   4.298   1.972  10.972
98817W        W71110   0.335  39.031   0.372
98818W        W71111  32.899  29.528   0.275
98819W        W71112  19.745  41.483   0.386
98820W        W71113   9.245   1.401  11.508
98821W        W71114  22.182  28.437   2.336
98822W        W71115  34.436  42.894   5.146
98823W        W71116  36.354  44.915   0.842
98824W        W71117  26.999  10.152   3.247
98825W        W71118  41.468  13.304  11.937
98826W        W71119   4.322  40.969   3.762
98827W        W71120  32.403  29.153  12.421
98828W        W71121  10.168  23.034  13.797
98829W        W71122  16.185  29.002  13.015
98830W        W71123  44.270   9.184   0.465
98831W        W71124  44.864   4.732   1.835
98832W        W71125  22.099  11.336  10.983
98833W        W71126  11.678  11.196  10.634
98834W        W71127  44.310  29.032  14.463
98835W        W71128  19.146  44.425  11.029
98836W        W71129   1.926  19.116  14.949
98837W        W71130  43.875   7.291   1.707
98838W        W71131  11.269  43.021   3.309
98839W        W71132  28.559  44.945   3.852
98840W        W71133  29.035  43.390   4.695
98841W        W71134  13.742  14.603   1.870
98842W        W71135   9.282  22.058   2.790
98843W        W71136  40.864  13.305   3.324
98844W        W71137  19.256  19.725   2.373
98845W        W71138  15.262  44.317  12.885
98846W        W71139  19.671  44.477   0.935
98847W        W71140  12.835  36.451   1.784
98848W        W71141   3.795  21.516   3.809
98849W        W71142  43.969  29.561   1.374
98850W        W71143  13.125  30.565   3.280
98851W        W71144  38.530   3.307  12.867
98852W        W71145  10.828  26.601   2.335
98853W        W71146   4.423   4.891   9.930
98854W        W71147  42.325   0.958  10.045
98855W        W71148  40.850   7.895  13.397
98856W        W71149  26.696  43.403  10.457
98857W        W71150  16.703  31.127  11.461
98858W        W71151  29.998   5.353   1.345
98859W        W71152  35.491  28.991  13.845
98860W        W71153  20.555  12.803  11.959
98861W        W71154  20.223   5.799   0.243
98862W        W71155  41.974  23.002   2.312
98863W        W71156  14.663   2.949  12.028
98864W        W71157  13.755  42.478   1.275
98865W        W71158  42.399   9.779   0.380
98866W        W71159  17.258  28.032   5.175
98867W        W71160   4.939   1.933  14.823
98868W        W71161  39.555  16.075   1.439
98869W        W71162   9.174  27.013   4.614
98870W        W71163  21.634  22.658   0.805
98871W        W71164  41.922  39.436   0.788
98872W        W71165  29.637  27.149   3.755
98873W        W71166  25.711   8.665   4.305
98874W        W71167  27.021  24.691   3.260
98875W        W71168  13.191  26.055  11.522
98876W        W71169   0.320  36.966  12.051
98877W        W71170   4.245  30.046   2.361
98878W        W71171  15.128  36.527  14.838
98879W        W71172   7.835  40.001  10.099
98880W        W71173  42.429  17.556   4.123
98881W        W71174   5.336  16.695   0.472
98882W        W71175  22.570   0.770   3.275
98883W        W71176   3.272  39.456   4.778
98884W        W71177  36.439   6.218   0.866
98885W        W71178   4.402  43.352  13.414
98886W        W71179   8.226  24.651   0.795
98887W        W71180  18.205  20.712  11.983
98888W        W71181   7.302  11.346   2.846
98889W        W71182   4.820  31.644   0.434
98890W        W71183  22.048  19.250  11.889
98891W        W71184   8.261   1.902  13.047
98892W        W71185   6.737  32.933   1.905
98893W        W71186  35.068  21.185   2.183
98894W        W71187  42.325  25.527  10.999
98895W        W71188  30.473  30.986   1.301
98896W        W71189   5.254  35.052  13.540
98897W        W71190  31.120  34.918   4.786
98898W        W71191  44.828  17.623  13.503
98899W        W71192   8.884  22.556  12.887
98900W        W71193   8.693  28.038  10.911
98901W        W71194  39.020  32.395   1.722
98902W        W71195  16.648   5.378   0.455
98903W        W71196  25.470  36.571   0.319
98904W        W71197  17.754  36.453  14.951
98905W        W71198  16.261  15.721  12.011
98906W        W71199  15.726  30.547   0.413
98907W        W71200  11.157   0.362  10.989
98908W        W71201  44.340  29.637   4.787
98909W        W71202  18.254  18.631   0.422
98910W        W71203  41.343  43.814   1.787
98911W        W71204  38.489  33.611  11.900
98912W        W71205  30.478  14.591   4.302
98913W        W71206  21.093  43.342  11.078
98914W        W71207  41.918  34.111  12.977
98915W        W71208  43.794  38.405   3.330
98916W        W71209   6.363   5.811   4.822
98917W        W71210  18.749  19.702   2.201
98918W        W71211  16.654  38.008  11.469
98919W        W71212   3.424  18.601  11.398
98920W        W71213  28.541   5.380  14.979
98921W        W71214  14.642  21.175  13.361
98922W        W71215  13.614  43.507  10.514
98923W        W71216   6.763  36.403   5.674
98924W        W71217   1.363  29.171  13.948
98925W        W71218   8.272   3.301   4.733
98926W        W71219   5.904  41.296   1.837
98927W        W71220  37.993   4.713  10.421
98928W        W71221  11.821  12.639  14.417
98929W        W71222  31.016   6.834   0.888
98930W        W71223   2.760  41.443   1.770
98931W        W71224  18.564   6.200   1.778
98932W        W71225   1.935  18.757   1.275
98933W        W71226  26.519  27.622  12.901
98934W        W71227  29.423  27.562   0.461
98935W        W71228  28.152  17.729  13.803
98936W        W71229  11.794  40.362   9.976
98937W        W71230   4.923  31.946  10.610
98938W        W71231  37.872  33.004  13.016
98939W        W71232   4.867  18.702   0.807
98940W        W71233  28.529  36.931   4.127
98941W        W71234  43.954  26.093   3.303
98942W        W71235  23.703  31.453  14.938
98943W        W71236  37.036  22.633   2.746
98944W        W71237   0.392   6.822  12.555
98945W        W71238  43.485  19.055   0.254
98946W        W71239   2.397  15.820  11.875
98947W        W71240  13.709  11.263  13.458
98948W        W71241  19.134  13.180  14.470
98949W        W71242   0.834  31.605  10.553
98950W        W71243  42.495  32.095   5.188
98951W        W71244  23.223   9.272   1.232
98952W        W71245  25.086  17.061   0.411
98953W        W71246  21.516  19.616   5.122
98954W        W71247  11.845  13.258  13.900
98955W        W71248   6.187  42.521  11.597
98956W        W71249  37.560  27.176   0.403
98957W        W71250  29.165  38.472  11.867
98958W        W71251  29.973  18.214  14.926
98959W        W71252   3.299  27.049   0.854
98960W        W71253  34.513  26.642  10.592
98961W        W71254  16.628  39.976   0.410
98962W        W71255  13.289  24.654   2.227
98963W        W71256  41.972  35.966   4.607
98964W        W71257  33.492  14.674  11.869
98965W        W71258  10.859  10.769   1.275
98966W        W71259  18.265   8.689   2.259
98967W        W71260  26.113  39.968   1.297
98968W        W71261  34.551   5.762  10.545
98969W        W71262  38.482  28.655   3.760
98970W        W71263  20.232  30.148   1.924
98971W        W71264  34.907  13.130  10.967
98972W        W71265   4.776  13.781   3.663
98973W        W71266  39.909  23.121  12.851
98974W        W71267  18.586  17.750  13.943
98975W        W71268  32.078  28.985   3.662
98976W        W71269  37.378  25.962   2.811
98977W        W71270  31.419  36.938  14.975
98978W        W71271  27.457   0.330   3.839
98979W        W71272  37.354  40.548  10.955
98980W        W71273   2.460  35.978   4.656
98981W        W71274  33.393  31.611  13.328
98982W        W71275  16.089  44.871  11.071
98983W        W71276  37.423  41.909   4.628
98984W        W71277  20.606  34.372  12.034
98985W        W71278  20.642  15.246  14.450
98986W        W71279   5.209   2.748  11.915
98987W        W71280  26.158   0.894  10.515
98988W        W71281   3.396  35.978  11.990
98989W        W71282  30.644  12.687   3.255
98990W        W71283  19.173   6.295  13.414
98991W        W71284  11.217   3.824  13.921
98992W        W71285  43.298  25.059  13.443
98993W        W71286  35.361   9.309   4.723
98994W        W71287  30.495   4.234  13.519
98995W        W71288  16.258  30.489  11.013
98996W        W71289   1.296   9.290   3.183
98997W        W71290   2.401   6.920  13.490
98998W        W71291   3.453  13.141  13.375
98999W        W71292  21.571   6.362   3.743
99000W        W71293  11.630  36.959   0.258
99001W        W71294  40.541  10.211  11.091
99002W        W71295   0.981  33.421   5.318
99003W        W71296  15.134  16.659  12.483
99004W        W71297  18.179  17.236   0.315
99005W        W71298  23.588   9.216  14.842
99006W        W71299   0.900  11.363  11.937
99007W        W71300  39.538  23.101   4.267
99008W        W71301   1.332  21.110   3.742
99009W        W71302   1.880  14.789  10.534
99010W        W71303  24.113  34.430   0.385
99011W        W71304   9.861  20.710   3.276
99012W        W71305  12.179   7.784   4.288
99013W        W71306  37.006  13.753  10.642
99014W        W71307  38.470  33.565   1.704
99015W        W71308  22.129  26.072   2.853
99016W        W71309  22.543  15.636  13.873
99017W        W71310  31.605  12.622   0.343
99018W        W71311  40.476  42.459   3.797
99019W        W71312   8.849  15.160   0.307
99020W        W71313  20.561   1.891  13.334
99021W        W71314   0.785   6.850  13.441
99022W        W71315  28.607   7.739   0.379
99023W        W71316  27.512  38.463   0.896
99024W        W71317  13.163  40.380  14.960
99025W        W71318   0.470  37.485  10.982
99026W        W71319  28.534  18.244   2.887
99027W        W71320  44.455  36.075  13.053
99028W        W71321  16.751  10.734   3.668
99029W        W71322  21.641   4.257   0.818
99030W        W71323   9.197  18.168   1.855
99031W        W71324  24.536  44.908  13.991
99032W        W71325  21.186   0.294   2.840
99033W        W71326  26.078  15.182  10.639
99034W        W71327  44.851  32.997   1.215
99035W        W71328  27.560  43.783  14.785
99036W        W71329  13.283  42.517   0.280
99037W        W71330  12.144  44.391   4.308
99038W        W71331   5.874  14.115  10.914
99039W        W71332   5.223  17.772  12.380
99040W        W71333  13.316  26.502   2.193
99041W        W71334  33.052  12.695  12.916
99042W        W71335  41.448  27.636  11.907
99043W        W71336   4.929  10.286  12.048
99044W        W71337  43.384  19.266   4.719
99045W        W71338  16.233  42.854   1.695
99046W        W71339  30.030  14.599  11.488
99047W        W71340  25.539  23.584  12.057
99048W        W71341  28.981  42.922  12.475
99049W        W71342  41.452  18.161   2.232
99050W        W71343  14.648  17.782   4.716
99051W        W71344  27.131  21.758   5.109
99052W        W71345  28.944  29.980   1.865
99053W        W71346  44.861  44.386  10.062
99054W        W71347   9.687  14.204   2.725
99055W        W71348  40.408  15.747   1.760
99056W        W71349  26.546  44.266   3.837
99057W        W71350  44.986  19.679  12.042
99058W        W71351  16.594  10.284  12.860
99059W        W71352  15.683  19.277  11.029
99060W        W71353  34.079   0.464  10.552
99061W        W71354  44.367   9.764   0.872
99062W        W71355  13.152  32.906  12.361
99063W        W71356  31.950  26.091   2.277
99064W        W71357  43.406   2.405  10.905
99065W        W71358  41.436  15.293   1.845
99066W        W71359  42.918  41.796   0.805
99067W        W71360  23.157  33.943  11.990
99068W        W71361  36.858  32.048   2.716
99069W        W71362  42.331   7.736  11.983
99070W        W71363  15.326  16.749  10.557
99071W        W71364  17.583  32.893   2.786
99072W        W71365  15.233   5.793   3.156
99073W        W71366   8.892  36.361  13.921
99074W        W71367  42.846   5.898   1.350
99075W        W71368  26.186  26.097  11.602
99076W        W71369  41.816  13.351  12.982
99077W        W71370  43.850  42.938  10.557
99078W        W71371  34.448  35.864   0.309
99079W        W71372  36.918  23.580  14.915
99080W        W71373  17.290  42.969  13.877
99081W        W71374  41.447  21.559  14.918
99082W        W71375   1.814   1.479   4.193
99083W        W71376   3.372  13.811  10.458
99084W        W71377  41.952  37.467  13.457
99085W        W71378  30.505  37.006  12.563
99086W        W71379   4.433  43.313   2.805
99087W        W71380  22.556  29.098  13.547
99088W        W71381  26.671  15.793  13.865
99089W        W71382  32.492  25.123   4.194
99090W        W71383   2.388  18.759  14.326
99091W        W71384  28.107  42.452   4.654
99092W        W71385  12.206  17.085  11.911
99093W        W71386  15.249  22.639  11.495
99094W        W71387  29.665  41.948  12.364
99095W        W71388   1.897   7.744  13.530
99096W        W71389  10.679   0.274   3.316
99097W        W71390   0.476  37.424   3.210
99098W        W71391  41.303  38.859   4.249
99099W        W71392  22.534  41.898  13.813
99100W        W71393   7.831   8.311   0.800
99101W        W71394  23.602   1.269   2.667
99102W        W71395   1.396  19.189  11.995
99103W        W71396  36.556  29.581   3.184
99104W        W71397  35.461  27.121   3.349
99105W        W71398   6.316  13.615   1.765
99106W        W71399  40.344  21.067  10.057
99107W        W71400  14.248  31.144  11.475
99108W        W71401  19.705  23.105   0.961
99109W        W71402  39.812   1.874  10.994
99110W        W71403  39.488  38.025  14.786
99111W        W71404  28.092  15.310   1.705
99112W        W71405  34.888  37.897   2.197
99113W        W71406  24.134  15.646   4.187
99114W        W71407  26.042  26.085   3.341
99115W        W71408  18.105  15.097   0.375
99116W        W71409  11.867  13.248   3.287
99117W        W71410  20.029  21.017   4.275
99118W        W71411   5.204  11.765  14.436
99119W        W71412   9.726  12.675   1.223
99120W        W71413  25.653  33.391  13.401
99121W        W71414  10.718  29.543   3.347
99122W        W71415  33.056  43.273  11.490
99123W        W71416  30.105  31.638  13.991
99124W        W71417  13.227   4.419   4.683
99125W        W71418  22.558  30.523  11.109
99126W        W71419  18.278  37.458   1.913
99127W        W71420  37.955  25.157   2.781
99128W        W71421  44.277   2.266   1.796
99129W        W71422  40.523  40.372   4.118
99130W        W71423  12.198  27.164  12.070
99131W        W71424  23.186   9.351   3.859
99132W        W71425   6.789  22.616  10.948
99133W        W71426  38.929   2.399  13.373
99134W        W71427  37.854  22.576   2.851
99135W        W71428  11.353  12.832   1.796
99136W        W71429   6.739  42.377   0.806
99137W        W71430  13.317  37.846  13.369
99138W        W71431   3.368  26.621   0.796
99139W        W71432   6.879   6.332   9.946
99140W        W71433  27.652  16.783  12.573
99141W        W71434  43.770  39.384  14.908
99142W        W71435  21.180  35.890   2.885
99143W        W71436  42.302   2.270  12.398
99144W        W71437  44.914  25.618   2.266
99145W        W71438  25.547   1.447   1.328
99146W        W71439  21.698  24.097  11.532
99147W        W71440  37.982  15.243  13.371
99148W        W71441  23.727  29.948   0.448
99149W        W71442  34.479  34.466  13.380
99150W        W71443  41.025  33.391   1.706
99151W        W71444  20.055  43.507   0.848
99152W        W71445   8.201  26.104  12.456
99153W        W71446   8.825  25.136  14.951
99154W        W71447  33.407  21.097   0.796
99155W        W71448  41.435  21.125   3.741
99156W        W71449  16.692  33.403   4.642
99157W        W71450  26.660  41.319   0.872
99158W        W71451  27.559  22.601   4.207
99159W        W71452  44.933  30.128  11.399
99160W        W71453  20.235  38.428  13.458
99161W        W71454   2.310   9.325  11.380
99162W        W71455   5.843   3.216  14.790
99163W        W71456  30.653  33.976   1.262
99164W        W71457  19.181   8.260  13.842
99165W        W71458  19.116  17.206   2.747
99166W        W71459  17.104  23.172   9.925
99167W        W71460  11.732  42.387   4.703
99168W        W71461   7.720  10.273  10.090
99169W        W71462   7.717   7.672   1.308
99170W        W71463  41.028  40.830  14.364
99171W        W71464  37.524   0.851  12.384
99172W        W71465  22.227  22.704  14.481
99173W        W71466  33.977  18.712  11.092
99174W        W71467  44.436  20.182   0.325
99175W        W71468  16.290  22.608   1.217
99176W        W71469  18.243   4.844   3.688
99177W        W71470   9.250   3.816  13.028
99178W        W71471  17.788  16.723  12.388
99179W        W71472  37.405   5.364   1.714
99180W        W71473  30.095  39.932   1.285
99181W        W71474  17.219   5.432   4.809
99182W        W71475  24.593  17.254  11.545
99183W        W71476  17.204  22.019  12.931
99184W        W71477   7.729  36.886  12.953
99185W        W71478   3.442  17.187  10.584
99186W        W71479  26.962  42.388   3.371
99187W        W71480  44.789  25.192   4.144
99188W        W71481  44.828  42.409   1.871
99189W        W71482   6.738  19.233   2.192
99190W        W71483  39.464   1.922  13.002
99191W        W71484  18.175   8.780   4.783
99192W        W71485  20.534  34.107   0.397
99193W        W71486  13.172  22.248   3.312
99194W        W71487  28.630  19.706   4.224
99195W        W71488  37.845  22.601   0.790
99196W        W71489  19.609  43.019  10.614
99197W        W71490   7.772   7.667  11.583
99198W        W71491  21.118   3.241   4.228
99199W        W71492  19.627  12.633  13.406
99200W        W71493   0.336   4.391   0.840
99201W        W71494  14.123  39.995  10.413
99202W        W71495   2.469   3.329   3.734
99203W        W71496  16.734  30.978  10.405
99204W        W71497  20.234  29.638   0.365
99205W        W71498  35.906  16.638  14.483
99206W        W71499  12.361  44.405   4.678
99207W        W71500  43.297  44.771   5.235
99208W        W71501  40.992  25.017   2.735
99209W        W71502  16.649  21.673   3.267
99210W        W71503  18.204  21.669   4.691
99211W        W71504  38.005  21.214  12.895
99212W        W71505  44.904   8.284  13.466
99213W        W71506  35.404   2.945  12.902
99214W        W71507  41.446  21.539  12.461
99215W        W71508   1.955  36.556   0.867
99216W        W71509   8.281   9.260  12.503
99217W        W71510  24.042  14.782   4.612
99218W        W71511   3.276  20.649  10.612
99219W        W71512  18.214  40.501  14.986
99220W        W71513  27.595  41.368   2.704
99221W        W71514  18.115  43.386  13.308
99222W        W71515  25.613  34.481   1.787
99223W        W71516  15.761  11.246  10.923
99224W        W71517  27.011  24.128  11.931
99225W        W71518  43.356  13.777  11.528
99226W        W71519  41.376   8.865   2.260
99227W        W71520  17.730  32.532   2.313
99228W        W71521  35.413  21.208  11.933
99229W        W71522  26.162  35.877  13.864
99230W        W71523  11.635  25.013  14.907
99231W        W71524   9.174  37.012  11.383
99232W        W71525  26.662  42.775  11.498
99233W        W71526  22.239  34.503  11.060
99234W        W71527  25.668   0.309   2.224
99235W        W71528   0.278  39.454  11.109
99236W        W71529  31.134  40.015  14.431
99237W        W71530  13.181  31.940  10.943
99238W        W71531  15.218  30.923   2.891
99239W        W71532   6.408  19.186  10.606
99240W        W71533  29.574  13.343  12.944
99241W        W71534  37.929  40.529   2.850
99242W        W71535   0.390  14.130   1.350
99243W        W71536  33.536  32.061   1.411
99244W        W71537  35.420  26.192   1.332
99245W        W71538   8.688  39.453  10.890
99246W        W71539  35.006   1.833  10.446
99247W        W71540  31.036  37.377   4.237
99248W        W71541  17.230  42.958   1.704
99249W        W71542  42.790  22.528  12.463
99250W        W71543  23.611  15.289   3.802
99251W        W71544  32.937  39.828  11.547
99252W        W71545  29.107  23.670  12.577
99253W        W71546   3.735  42.881   3.784
99254W        W71547  34.007  20.270   3.808
99255W        W71548   6.329  20.170  10.973
99256W        W71549  36.364  26.569  14.911
99257W        W71550   1.483  33.107   2.797
99258W        W71551  42.843  30.105  12.342
99259W        W71552  37.894  23.713   3.224
99260W        W71553  20.572  29.085  12.429
99261W        W71554  27.137  38.900  11.865
99262W        W71555   0.445  28.624  13.043
99263W        W71556  24.144  10.718  11.435
99264W        W71557   3.877   7.672  12.825
99265W        W71558  19.705   8.180   2.775
99266W        W71559   4.785  34.054  14.319
99267W        W71560  25.996  16.139  14.468
99268W        W71561  28.601   2.436   3.823
99269W        W71562  18.171  20.102  11.557
99270W        W71563  25.476  38.945  11.462
99271W        W71564  10.368  39.526  13.429
99272W        W71565   4.270  41.816   2.722
99273W        W71566  29.461  36.897  13.432
99274W        W71567  28.974  39.495  11.121
99275W        W71568  14.305  19.543  12.552
99276W        W71569  26.069  40.821  12.004
99277W        W71570  12.345  23.009  12.093
99278W        W71571  31.108  43.346   0.471
99279W        W71572   0.905   7.223   1.248
99280W        W71573  30.443   3.903  12.524
99281W        W71574  11.811   7.834  11.595
99282W        W71575  13.166  18.774  13.021
99283W        W71576  22.171  19.283   1.847
99284W        W71577  36.412  19.685  12.559
99285W        W71578  39.871  10.763   1.782
99286W        W71579  15.606  24.540   3.366
99287W        W71580   9.842  41.414  12.576
99288W        W71581  39.318   6.732   2.698
99289W        W71582  44.283  21.152   0.915
99290W        W71583  18.639  13.296  10.502
99291W        W71584   0.301  30.947   4.160
99292W        W71585  30.963  29.025   1.818
99293W        W71586   6.916  36.034  14.315
99294W        W71587  22.690  28.670   1.903
99295W        W71588  30.415  14.722   3.325
99296W        W71589  29.154   2.409   2.750
99297W        W71590  19.703  27.457  14.384
99298W        W71591  11.834   0.395  14.866
99299W        W71592   6.184  22.015  14.927
99300W        W71593  18.592  43.395   1.786
99301W        W71594  25.638  25.149   1.833
99302W        W71595  22.589  27.527   4.736
99303W        W71596   8.729  34.958  10.524
99304W        W71597  28.116  22.140  14.760
99305W        W71598   0.314  22.219  11.956
99306W        W71599  13.748  26.671  14.429
99307W        W71600   5.192  31.080  10.967
99308W        W71601  22.735   9.164   3.270
99309W        W71602  20.195  32.948  11.549
99310W        W71603  44.999   8.163  10.917
99311W        W71604   8.754  36.401   3.744
99312W        W71605   5.356   6.342   1.256
99313W        W71606  20.707  33.920   4.207
99314W        W71607  14.210  31.961   3.148
99315W        W71608  39.372   5.867   0.427
99316W        W71609  32.042   3.715  12.835
99317W        W71610  11.155  40.907  14.416
99318W        W71611  44.934  36.989  12.539
99319W        W71612  19.178  42.807  13.879
99320W        W71613  31.586   0.883   2.858
99321W        W71614  38.543  16.131  12.578
99322W        W71615  28.514  20.603  11.094
99323W        W71616   7.739  28.067  13.482
99324W        W71617   2.366  22.706  10.923
99325W        W71618  42.961   0.396   2.318
99326W        W71619  25.972  22.244  13.476
99327W        W71620  14.763  37.085   1.910
99328W        W71621  37.435  21.074  14.802
99329W        W71622  43.785   0.257   0.765
99330W        W71623  15.087  11.670   4.252
99331W        W71624   5.385   3.461  12.475
99332W        W71625  29.668  44.760   3.271
99333W        W71626   8.772  23.704   4.753
99334W        W71627  41.467  31.492  11.406
99335W        W71628   7.207  31.609   1.895
99336W        W71629  26.003  12.164  12.059
99337W        W71630  42.808  13.735   2.227
99338W        W71631  27.126  17.177  11.026
99339W        W71632  42.454  34.496  12.579
99340W        W71633  33.450  35.362  12.944
99341W        W71634  28.572  40.012   3.673
99342W        W71635  37.849   8.392   1.749
99343W        W71636   6.837  43.286   0.817
99344W        W71637   2.770  27.546  14.491
99345W        W71638  30.455  17.684  14.477
99346W        W71639   1.886  10.297  14.024
99347W        W71640   1.800  37.053   0.367
99348W        W71641  42.306  34.605  13.408
99349W        W71642  33.390  19.573  13.926
99350W        W71643  30.949  30.442  12.354
99351W        W71644   0.863  24.564  10.452
99352W        W71645  17.132  12.643   2.751
99353W        W71646  32.451  37.941  13.048
99354W        W71647  44.924  27.512   2.219
99355W        W71648  15.298  37.009   0.792
99356W        W71649  22.597  17.202  11.963
99357W        W71650  41.963  15.276   3.734
99358W        W71651   4.813  13.784  14.867
99359W        W71652   6.794  22.577  10.556
99360W        W71653   1.299   2.878   3.690
99361W        W71654  44.796  41.402   4.601
99362W        W71655  24.649   0.760   2.808
99363W        W71656  29.435   8.394   0.835
99364W        W71657  14.831  15.643  13.003
99365W        W71658   5.211  12.145  11.465
99366W        W71659  38.498  26.076   1.901
99367W        W71660  29.489  15.747  13.998
99368W        W71661   1.891  42.447  10.943
99369W        W71662  43.331  19.159   2.388
99370W        W71663  41.376  14.263   2.856
99371W        W71664   2.377  10.298   4.275
99372W        W71665  19.253  39.989  14.330
99373W        W71666  24.188  36.050  14.408
99374W        W71667  33.931   8.192  12.834
99375W        W71668   0.320  37.580  11.559
99376W        W71669  26.985   4.929  10.443
99377W        W71670  21.111  17.606  10.994
99378W        W71671  16.668  35.574   0.425
99379W        W71672  11.706  20.257  12.054
99380W        W71673   4.233  29.094  12.578
99381W        W71674  12.730  28.046  12.035
99382W        W71675  16.173  41.400  12.360
99383W        W71676  10.157  17.728  13.347
99384W        W71677  24.551  44.429  13.865
99385W        W71678  26.041   0.921  13.502
99386W        W71679  39.052  17.264   4.821
99387W        W71680  14.775  29.489   3.699
99388W        W71681  16.712  41.375   1.278
99389W        W71682  13.338  10.779  14.310
99390W        W71683  32.411  24.691   3.357
99391W        W71684   6.918   8.198  11.554
99392W        W71685  37.004  29.457  11.001
99393W        W71686  26.540  21.719  13.046
99394W        W71687  22.564  25.110  12.875
99395W        W71688  44.387  15.605  11.469
99396W        W71689  36.058  42.006  14.952
99397W        W71690  23.139  36.989  11.999
99398W        W71691  34.980  38.855   0.247
99399W        W71692  44.424  21.231  11.947
99400W        W71693   7.268  35.047  11.512
99401W        W71694  41.809   6.705   2.736
99402W        W71695  14.686  18.092  10.996
99403W        W71696  19.232  36.846   4.232
99404W        W71697  21.589   5.818   2.394
99405W        W71698   3.730  38.375  12.825
99406W        W71699   5.194  18.076   1.933
99407W        W71700   6.917  27.472   2.331
99408W        W71701   4.738  24.113   2.179
99409W        W71702  36.479  17.148  14.003
99410W        W71703  15.302  19.543   2.326
99411W        W71704   0.815  31.475   4.721
99412W        W71705  24.669  37.011  12.907
99413W        W71706  17.141  44.787   2.765
99414W        W71707  18.086  29.940   0.377
99415W        W71708  13.776  25.491   2.744
99416W        W71709  14.822   4.821   5.183
99417W        W71710  15.181  44.911  13.815
99418W        W71711  27.018  12.206  11.017
99419W        W71712   7.415  12.216   3.151
99420W        W71713  27.085  39.899  10.449
99421W        W71714   4.420   2.814   2.390
99422W        W71715  30.140  13.695  12.890
99423W        W71716  21.610  37.978  11.111
99424W        W71717  33.487   6.875   1.380
99425W        W71718  13.138  42.325   2.331
99426W        W71719  40.885  22.161   3.181
99427W        W71720  34.875  12.187  10.978
99428W        W71721  24.648  43.006   0.729
99429W        W71722  39.492   2.383   1.874
99430W        W71723  10.177  42.481  12.932
99431W        W71724  40.506   3.837  12.853
99432W        W71725  32.580   9.770   0.399
99433W        W71726  28.074   3.261  12.858
99434W        W71727  41.015  22.502   2.315
99435W        W71728  23.641   1.917   9.560
99436W        W71729  15.656  30.562  13.034
99437W        W71730   7.333  42.858  11.074
99438W        W71731  25.073  40.487  14.284
99439W        W71732  13.274  11.250  12.999
99440W        W71733   0.879  41.535   2.805
99441W        W71734  28.065   2.850  13.504
99442W        W71735  41.482  13.702  14.491
99443W        W71736  19.128  25.611   2.662
99444W        W71737  30.618  43.791  10.888
99445W        W71738   0.402  29.534   3.268
99446W        W71739  13.680  16.595   2.865
99447W        W71740  44.795   4.819   4.210
99448W        W71741  15.621  35.941  10.982
99449W        W71742  10.633  10.806   4.184
99450W        W71743   4.785  25.559  12.367
99451W        W71744  32.909  14.652   1.733
99452W        W71745  31.613  40.327   2.289
99453W        W71746  25.537  33.385   3.284
99454W        W71747  39.028   6.894  14.280
99455W        W71748  30.103  31.975  12.090
99456W        W71749  28.034   4.943   0.750
99457W        W71750   6.394   7.840   1.444
99458W        W71751  19.112   8.260  13.516
99459W        W71752  39.972   0.410   2.836
99460W        W71753  41.422  10.353  14.432
99461W        W71754  43.352  10.143  14.763
99462W        W71755   7.904  32.634  12.567
99463W        W71756  33.385  25.979   3.187
99464W        W71757  22.089  31.515   2.780
99465W        W71758  22.511  19.175  10.565
99466W        W71759  17.229  44.970  13.310
99467W        W71760  18.660   7.864  11.897
99468W        W71761  30.951  37.925   2.397
99469W        W71762   4.329  37.076   3.803
99470W        W71763  13.649  25.688   3.685
99471W        W71764  38.450  38.443  11.489
99472W        W71765  21.076  15.224   0.427
99473W        W71766   0.342   9.156   0.261
99474W        W71767  14.704  32.010   0.784
99475W        W71768  13.108  22.517  11.013
99476W        W71769  18.563  10.682   3.345
99477W        W71770  34.025   7.853   2.241
99478W        W71771  40.989  40.505  12.342
99479W        W71772  33.388  25.013  10.425
99480W        W71773  13.331  22.032  13.061
99481W        W71774  22.075  29.127  11.107
99482W        W71775   5.279   7.184   4.735
99483W        W71776   3.392   4.450   2.785
99484W        W71777   8.655  23.522   0.397
99485W        W71778  16.315  44.009  14.462
99486W        W71779  16.720  27.091   2.357
99487W        W71780   8.677  39.058  12.493
99488W        W71781  16.088  19.741   3.162
99489W        W71782   0.786  39.971   4.632
99490W        W71783  12.825  31.421  11.883
99491W        W71784  14.235   8.844   4.167
99492W        W71785  20.254  34.608  13.829
99493W        W71786  26.533   4.847  11.501
99494W        W71787  38.820  11.660  10.602
99495W        W71788  18.624  20.587  12.916
99496W        W71789  32.503  19.164   3.782
99497W        W71790  35.987  21.022   1.766
99498W        W71791  28.099  24.650   3.669
99499W        W71792  32.479  37.916  12.514
99500W        W71793  42.475  28.028   1.915
99501W        W71794  21.209  19.079  11.129
99502W        W71795   6.820   6.223  13.862
99503W        W71796  16.579  40.939  10.894
99504W        W71797   9.885  19.763  11.575
99505W        W71798  41.497  14.830   1.778
99506W        W71799  12.346  28.955  12.042
99507W        W71800  32.501  19.047  14.908
99508W        W71801  30.458   8.317  13.985
99509W        W71802   1.929   0.393   0.809
99510W        W71803  19.750  19.763  13.822
99511W        W71804  33.505  33.441  10.592
99512W        W71805  31.010  22.214   0.320
99513W        W71806  31.520  42.390   1.385
99514W        W71807  13.641  12.197  10.600
99515W        W71808  28.512  16.735   2.213
99516W        W71809   2.237  24.583   0.922
99517W        W71810   5.817  34.396   3.204
99518W        W71811  39.553  36.504  10.947
99519W        W71812  21.517  30.948   3.663
99520W        W71813  10.269  32.491   5.141
99521W        W71814   7.234   8.679  11.114
99522W        W71815  19.537   1.824   4.176
99523W        W71816   5.212  22.098   4.829
99524W        W71817  13.261  20.555  11.428
99525W        W71818   4.378   8.265  14.764
99526W        W71819  38.979  34.876   4.663
99527W        W71820  28.080  32.504  11.415
99528W        W71821  37.982   4.300   2.200
99529W        W71822  17.740  20.043  10.562
99530W        W71823   1.299  44.852  13.945
99531W        W71824  39.979  42.356  10.561
99532W        W71825  21.226  35.056   1.438
99533W        W71826  27.955  29.958   2.796
99534W        W71827  18.176  36.402   2.859
99535W        W71828   5.854  11.222  12.488
99536W        W71829  29.074   2.843   1.711
99537W        W71830   5.844  30.151  14.798
99538W        W71831  21.134   8.830   2.774
99539W        W71832   8.877  43.980  10.408
99540W        W71833  39.543  18.545  12.032
99541W        W71834  31.923  10.703   3.824
99542W        W71835  12.713  42.936  11.610
99543W        W71836  23.648  10.226  11.904
99544W        W71837  31.615  10.298   5.642
99545W        W71838  34.919  21.754   3.650
99546W        W71839  19.769  39.314  12.981
99547W        W71840  24.175   6.306  11.479
99548W        W71841  32.065  12.693   3.851
99549W        W71842  12.358  22.148   1.423
99550W        W71843  24.639  40.979  10.440
99551W        W71844   0.987  26.994   0.846
99552W        W71845  21.041  16.569  13.447
99553W        W71846   6.864  41.397   3.356
99554W        W71847  34.399  34.009  13.059
99555W        W71848  17.767   2.335   1.266
99556W        W71849  29.653  37.564  11.898
99557W        W71850  19.636  20.181  11.571
99558W        W71851  17.748   9.245   4.795
99559W        W71852  36.986  25.621  10.570
99560W        W71853  17.129  20.660   1.275
99561W        W71854  37.442  16.602  12.082
99562W        W71855   2.296   4.441   1.761
99563W        W71856   4.277  14.715   0.907
99564W        W71857  19.188  21.247   0.342
99565W        W71858  20.565  12.683  12.353
99566W        W71859  19.719  35.072  12.881
99567W        W71860  44.940  12.360   3.171
99568W        W71861   9.644  34.377  13.922
99569W        W71862   3.938   5.786   2.824
99570W        W71863  30.104  32.931  14.891
99571W        W71864  28.481  19.592   1.392
99572W        W71865  21.189   9.259  14.376
99573W        W71866  15.291  25.984  11.584
99574W        W71867  20.662  32.961  14.352
99575W        W71868  22.227  30.045   1.435
99576W        W71869  31.576  22.134   2.838
99577W        W71870   9.350  28.102   1.815
99578W        W71871  30.925  43.505  14.786
99579W        W71872  38.433   8.396  10.438
99580W        W71873  42.006  25.550  11.943
99581W        W71874  33.937  17.633  10.430
99582W        W71875  35.531  44.960  14.383
99583W        W71876  23.998  33.447   3.780
99584W        W71877  20.545  37.377   0.402
99585W        W71878   5.780   8.349  10.494
99586W        W71879  28.076  17.609   0.255
99587W        W71880   2.424  12.156   2.356
99588W        W71881  19.056  35.997  11.536
99589W        W71882  20.144  17.091   0.318
99590W        W71883  43.990  22.998   1.226
99591W        W71884  28.462  31.642  14.854
99592W        W71885  35.476  40.441  11.890
99593W        W71886  24.650   9.785   4.748
99594W        W71887   1.400  12.186   1.238
99595W        W71888   6.683  36.926  13.420
99596W        W71889  22.089  32.548  13.526
99597W        W71890  19.096  35.943  11.923
99598W        W71891  28.605  13.836  14.343
99599W        W71892  44.389  15.690   4.269
99600W        W71893  30.034   7.314  10.621
99601W        W71894  10.378  28.029   3.811
99602W        W71895   1.355  34.604  12.414
99603W        W71896  14.739  25.212  14.485
99604W        W71897   3.840   5.765   1.359
99605W        W71898  36.405  38.021   1.306
99606W        W71899  12.708  17.213  12.986
99607W        W71900  27.041  24.684   4.725
99608W        W71901  19.088   2.302   0.407
99609W        W71902  23.735   2.918  10.143
99610W        W71903  13.314  21.627  11.453
99611W        W71904  39.821  29.508   1.372
99612W        W71905  28.503  20.079   0.736
99613W        W71906  23.049  17.649   1.361
99614W        W71907  40.052  29.045   2.328
99615W        W71908  20.140  20.210   4.729
99616W        W71909   4.891  35.496   4.241
99617W        W71910  36.034  22.104  14.287
99618W        W71911  32.960  41.932   3.375
99619W        W71912  32.395  12.219  12.554
99620W        W71913  28.124  34.079  11.507
99621W        W71914  27.570  18.654   4.643
99622W        W71915  23.092   5.272  10.575
99623W        W71916   6.295  29.584   1.452
99624W        W71917  41.972  18.124   0.258
99625W        W71918  28.568  13.314  12.043
99626W        W71919  10.846  30.416  11.483
99627W        W71920  26.620  20.661   0.767
99628W        W71921  31.973  24.714   2.193
99629W        W71922  32.503  23.635   4.155
99630W        W71923  22.678  22.559  14.822
99631W        W71924  17.752  20.572   0.305
99632W        W71925  17.589  12.190   0.749
99633W        W71926  28.564  39.402   2.391
99634W        W71927  20.177   0.945   3.760
99635W        W71928  32.567   3.809   3.315
99636W        W71929  12.254  14.126   4.612
99637W        W71930   7.262  32.912   1.444
99638W        W71931  26.194  38.506  11.058
99639W        W71932  24.716  28.050   0.429
99640W        W71933  44.442  44.909   0.307
99641W        W71934  12.812  11.625   0.816
99642W        W71935  41.978  27.574  14.376
99643W        W71936  31.640  42.890  11.016
99644W        W71937  22.547   9.167   3.792
99645W        W71938  10.149  17.600   3.768
99646W        W71939  13.121  39.025  12.077
99647W        W71940   9.306  11.819  14.322
99648W        W71941  43.473   4.420  14.376
99649W        W71942  37.974   0.271  11.103
99650W        W71943  11.203  14.763  11.023
99651W        W71944  12.217  37.472   0.813
99652W        W71945  20.602  28.119   4.621
99653W        W71946  37.989  26.645  12.385
99654W        W71947  15.308  12.283   0.823
99655W        W71948   8.239   0.814  10.943
99656W        W71949  36.981  33.886  14.031
99657W        W71950  14.799  21.117   3.762
99658W        W71951   5.912  18.274   4.215
99659W        W71952  41.799  10.212   4.659
99660W        W71953   6.303  33.059  12.418
99661W        W71954  16.812   3.300  12.465
99662W        W71955   5.750  26.625   2.834
99663W        W71956  39.986  32.108   1.300
99664W        W71957  15.238  44.446   3.839
99665W        W71958  28.106  33.009  13.311
99666W        W71959  18.727  27.540   2.741
99667W        W71960  19.548  42.015  14.282
99668W        W71961   3.782  21.050  10.912
99669W        W71962  38.526  14.129   2.769
99670W        W71963  13.662  19.099   3.158
99671W        W71964  32.990   6.186  12.422
99672W        W71965   3.272  25.107   1.298
99673W        W71966  40.976  44.891  14.278
99674W        W71967  18.155  31.986   0.801
99675W        W71968  29.610  33.491   1.317
99676W        W71969  44.003   8.879   1.366
99677W        W71970   2.232  25.557  14.999
99678W        W71971  24.989   4.867  11.905
99679W        W71972  27.600  17.653  14.972
99680W        W71973  12.684  31.964  14.982
99681W        W71974  20.037  29.165   3.258
99682W        W71975  34.994  13.151   1.798
99683W        W71976  22.698  40.994  14.397
99684W        W71977  33.875  28.067  11.100
99685W        W71978  10.242  11.833  14.476
99686W        W71979  20.640  10.326   4.654
99687W        W71980  31.417  35.100  13.991
99688W        W71981  37.405   0.479  10.553
99689W        W71982  39.004  29.044   4.185
99690W        W71983  30.629  34.437  12.034
99691W        W71984  14.321  18.094   4.329
99692W        W71985  18.108  39.495   3.194
99693W        W71986  38.953  25.702  11.098
99694W        W71987   2.227  39.820   0.360
99695W        W71988  27.120   2.291  14.015
99696W        W71989  40.409  13.807  13.966
99697W        W71990  30.415   9.256  11.053
99698W        W71991  30.152   6.786  12.528
99699W        W71992  14.264  34.387   4.228
99700W        W71993  35.995  19.091   0.345
99701W        W71994  27.462  26.522  13.020
99702W        W71995  42.355  42.867  14.901
99703W        W71996   6.905  33.606  12.077
99704W        W71997   1.320   4.898  11.444
99705W        W71998  30.656  32.539  12.893
99706W        W71999   0.830   9.187   4.254
99707W        W72000  22.100  22.134   2.325
99708W        W72001  17.561  20.740   5.200
99709W        W72002  19.534   1.845   0.440
99710W        W72003  36.030  12.790  12.510
99711W        W72004  10.872  23.651   4.646
99712W        W72005   8.895  41.320  10.603
99713W        W72006  12.788  38.916  14.496
99714W        W72007  37.525  15.596  12.874
99715W        W72008  38.842   1.917  12.985
99716W        W72009  30.647  43.361   4.126
99717W        W72010   3.264  41.969  13.538
99718W        W72011  30.993  33.063   3.358
99719W        W72012  13.261  26.554   2.863
99720W        W72013  32.569  32.065   2.746
99721W        W72014  14.588   8.833  11.422
99722W        W72015  22.534  13.671  14.318
99723W        W72016   8.305  14.295   4.834
99724W        W72017  17.261  26.156   4.803
99725W        W72018  27.636  36.958  12.006
99726W        W72019  16.698  37.996  13.358
99727W        W72020  28.645   3.913  12.936
99728W        W72021  12.698  42.010   2.789
99729W        W72022  25.033  26.998   1.907
99730W        W72023  21.216  16.154  14.988
99731W        W72024  42.365  44.870  13.865
99732W        W72025  24.687  22.055   3.228
99733W        W72026  11.773  26.200  12.527
99734W        W72027  30.092   5.414   0.350
99735W        W72028  30.565  35.569  14.023
99736W        W72029  40.455  36.551   3.670
99737W        W72030  21.059  32.509  14.373
99738W        W72031  35.371   9.664  12.519
99739W        W72032   5.759  29.073   4.677
99740W        W72033  33.454   6.325   0.311
99741W        W72034  24.577  28.146   1.734
99742W        W72035  22.685  29.920   4.304
99743W        W72036  15.742   9.357  10.457
99744W        W72037  25.477  33.575   2.812
99745W        W72038  18.082  44.800   1.730
99746W        W72039  40.527   0.266   2.681
99747W        W72040   2.734  43.345  14.910
99748W        W72041  16.250   6.189   3.692
99749W        W72042   1.761   0.351  11.496
99750W        W72043   5.914  33.421   3.361
99751W        W72044  40.976  44.868   2.880
99752W        W72045  33.483   6.343  13.991
99753W        W72046   7.359  35.585  14.023
99754W        W72047  37.493  42.314   3.699
99755W        W72048   5.337  29.659   1.262
99756W        W72049  44.384  22.718  14.882
99757W        W72050  31.118   4.263   0.929
99758W        W72051  40.352   7.333  11.897
99759W        W72052   1.379  28.013   0.257
99760W        W72053   9.887   7.311   2.895
99761W        W72054  43.454  13.684   2.372
99762W        W72055  18.667  33.457  13.449
99763W        W72056  34.939   7.830   3.377
99764W        W72057  18.217  25.026   0.376
99765W        W72058  12.329  10.217   1.255
99766W        W72059  31.501  12.650   2.277
99767W        W72060  41.980  20.195   1.401
99768W        W72061   9.345   3.305  14.015
99769W        W72062  18.595  38.504   3.697
99770W        W72063  18.264   4.409  13.046
99771W        W72064  27.139  34.971   2.204
99772W        W72065  11.159  24.602  14.484
99773W        W72066   8.278  31.428  11.425
99774W        W72067  31.555   2.834   1.435
99775W        W72068  33.419  42.468  12.007
99776W        W72069  11.764  41.411   4.238
99777W        W72070   6.213   5.241   4.260
99778W        W72071  32.046  35.457  13.345
99779W        W72072  17.167  12.241   2.772
99780W        W72073  12.139  13.325   0.336
99781W        W72074  21.115  35.982  14.813
99782W        W72075  32.992  15.193   2.414
99783W        W72076   9.677   4.933   4.837
99784W        W72077  30.082  18.235  12.856
99785W        W72078   9.850  41.817   2.267
99786W        W72079  38.062  23.069   2.769
99787W        W72080  22.699   4.253  12.032
99788W        W72081  15.639   8.332  14.947
99789W        W72082   6.352  42.462   1.774
99790W        W72083  40.920  14.782   2.322
99791W        W72084  13.126  38.063  11.464
99792W        W72085  12.235  43.332  13.912
99793W        W72086  38.368   2.780  11.471
99794W        W72087  20.040  22.646   2.231
99795W        W72088  29.105  11.634   4.822
99796W        W72089   0.482  31.501   0.784
99797W        W72090  44.269   8.869  13.916
99798W        W72091  31.897  37.907  11.945
99799W        W72092  36.860  30.976  13.831
99800W        W72093   6.191  44.816  13.942
99801W        W72094   7.703   7.672  14.003
99802W        W72095  27.039  34.067  10.904
99803W        W72096  33.999   4.424  11.582
99804W        W72097   7.179  43.304  10.496
99805W        W72098   8.876  33.441  12.455
99806W        W72099  29.108  27.496  13.899
99807W        W72100  25.628  29.972  12.021
99808W        W72101   9.719   6.303   3.173
99809W        W72102  44.904  23.715  13.983
99810W        W72103  40.463  10.722   1.792
99811W        W72104  38.404   3.278   0.432
99812W        W72105  44.791  20.150  12.015
99813W        W72106  41.462  14.311  13.457
99814W        W72107   4.811  12.699  14.394
99815W        W72108  40.963   5.244  10.512
99816W        W72109  43.363  26.162  11.909
99817W        W72110   0.847   2.841  10.464
99818W        W72111  10.708   1.839  14.827
99819W        W72112  13.257   9.829   2.860
99820W        W72113   4.315  16.743   2.374
99821W        W72114  31.029  31.602   2.898
99822W        W72115  42.461  43.339   1.421
99823W        W72116  29.165  27.124   2.722
99824W        W72117  44.270  22.033   0.303
99825W        W72118   4.712  19.710  10.966
99826W        W72119  43.868   6.805  11.546
99827W        W72120  14.635  22.622  11.503
99828W        W72121  20.110  26.612  14.872
99829W        W72122  38.873  27.562  10.603
99830W        W72123  25.103  23.050  13.849
99831W        W72124  10.851  18.552  10.956
99832W        W72125  17.214  33.069  13.511
99833W        W72126  17.299  15.244   3.357
99834W        W72127  35.031  19.127   0.908
99835W        W72128  12.249  24.623   2.872
99836W        W72129   4.450  24.004  10.415
99837W        W72130  33.876  11.371   2.816
99838W        W72131  16.120  41.415  14.804
99839W        W72132  24.597  35.496  12.507
99840W        W72133  37.026  37.854  14.882
99841W        W72134  17.306  28.584  10.411
99842W        W72135  24.657   5.733   4.315
99843W        W72136  27.161  23.114  12.874
99844W        W72137  16.617  25.626  14.943
99845W        W72138   7.880   4.917   2.873
99846W        W72139  36.069  37.048   4.804
99847W        W72140  42.323  19.160  11.088
99848W        W72141  21.222  13.716   3.750
99849W        W72142  37.883  16.678  11.537
99850W        W72143  26.539   6.311   1.439
99851W        W72144   3.822  23.102  12.953
99852W        W72145  27.642  25.058   2.871
99853W        W72146   7.277  38.426  11.566
99854W        W72147  11.191  22.631   4.622
99855W        W72148   7.697  34.113  14.450
99856W        W72149  37.353  13.779   1.745
99857W        W72150  33.610   4.303   0.753
99858W        W72151  28.045   8.695  10.008
99859W        W72152   5.378  24.005  14.305
99860W        W72153  36.979  32.629  12.001
99861W        W72154   3.717  26.627   3.260
99862W        W72155  22.097  11.786   3.760
99863W        W72156  18.113  16.217   1.728
99864W        W72157  16.158  29.598  13.009
99865W        W72158  29.152   7.198  10.954
99866W        W72159  44.489  40.827   2.417
99867W        W72160  36.505  32.926  11.936
99868W        W72161  41.520  26.488   2.711
99869W        W72162  10.256  21.743   0.274
99870W        W72163   8.338  38.980  13.435
99871W        W72164   0.780  15.728  13.503
99872W        W72165  11.247   3.921   2.703
99873W        W72166  33.015  39.352  12.039
99874W        W72167  13.283  21.532   0.296
99875W        W72168  12.610  32.040  12.880
99876W        W72169  18.154  34.398  13.370
99877W        W72170  41.881  37.411   4.818
99878W        W72171  15.727   5.926  10.945
99879W        W72172  23.198  26.476   1.348
99880W        W72173   3.841   3.225  14.308
99881W        W72174  15.672  44.275  13.005
99882W        W72175   7.808  32.001   4.144
99883W        W72176  24.217  27.489  14.824
99884W        W72177  22.701  10.725  11.118
99885W        W72178  21.670  24.490  14.798
99886W        W72179   6.350   5.367  13.320
99887W        W72180  30.993  32.592  14.279
99888W        W72181   5.875   5.868   4.699
99889W        W72182  41.325  27.461  11.068
99890W        W72183  43.892   9.202  14.376
99891W        W72184  17.680  32.412   9.566
99892W        W72185  33.437   5.439   2.805
99893W        W72186  36.550   6.402   5.298
99894W        W72187  27.611   9.168  12.985
99895W        W72188  17.721   3.288   1.365
99896W        W72189  28.074   7.267   3.261
99897W        W72190  23.994   3.310  10.037
99898W        W72191  41.380  14.336   3.644
99899W        W72192  26.104  30.146   1.803
99900W        W72193  33.959  37.940  13.033
99901W        W72194   6.899  16.127   4.719
99902W        W72195  39.819  37.830   2.824
99903W        W72196  42.357  33.576  14.958
99904W        W72197  11.675  39.022   3.670
99905W        W72198  33.399  31.499  14.005
99906W        W72199   6.295  20.233   1.431
99907W        W72200  23.176  14.612   2.792
99908W        W72201   7.718  44.289   2.188
99909W        W72202  10.701  32.062  12.352
99910W        W72203  11.370  27.168   2.727
99911W        W72204  41.393  35.911  11.587
99912W        W72205   3.228  30.046   2.329
99913W        W72206  11.636  30.162  14.283
99914W        W72207   7.353  24.226   3.300
99915W        W72208  43.477  38.327  14.511
99916W        W72209   1.257  38.995   2.294
99917W        W72210   2.940  13.664  11.921
99918W        W72211   7.319  28.930   3.253
99919W        W72212  30.088  10.663  12.058
99920W        W72213  27.636  26.995  13.928
99921W        W72214  14.281  22.125  12.057
99922W        W72215  20.665  38.823  12.518
99923W        W72216  36.547  18.227   1.738
99924W        W72217  10.667  25.656  13.475
99925W        W72218  30.969  41.434   1.853
99926W        W72219  36.844   9.732  14.914
99927W        W72220   0.391  34.492   5.672
99928W        W72221  13.303  16.126  12.029
99929W        W72222  28.962  11.862  11.940
99930W        W72223  13.125  32.565  13.544
99931W        W72224  22.502  20.205   3.300
99932W        W72225  21.622  42.957   4.736
99933W        W72226   2.287   0.264   4.627
99934W        W72227  16.167  23.496   1.800
99935W        W72228  34.868  28.999  10.577
99936W        W72229   1.424  39.009   3.339
99937W        W72230  27.077  23.534  14.315
99938W        W72231  28.183  36.080   0.416
99939W        W72232  19.774  40.374  13.056
99940W        W72233  30.966  36.549  14.492
99941W        W72234   7.702  24.185   1.791
99942W        W72235  14.164  12.363   2.265
99943W        W72236  28.541  14.271  14.932
99944W        W72237  23.037  27.687   1.822
99945W        W72238  42.862  27.038  12.984
99946W        W72239  30.132  25.024  10.999
99947W        W72240  19.601  33.948   9.551
99948W        W72241  23.013   5.295   5.291
99949W        W72242  33.947  10.861   3.745
99950W        W72243   1.753  40.417   0.345
99951W        W72244  42.012   5.207   4.828
99952W        W72245  18.091  38.073  10.625
99953W        W72246  33.899  41.915  12.414
99954W        W72247  39.017   7.739   4.260
99955W        W72248  35.949  31.459  13.841
99956W        W72249   4.284   1.325   3.658
99957W        W72250  30.968   6.870  12.508
99958W        W72251  12.726   9.701  11.521
99959W        W72252  36.097  20.696  10.595
99960W        W72253  38.907   3.743   1.231
99961W        W72254  18.788  29.997  11.581
99962W        W72255  13.276  22.654   0.922
99963W        W72256  34.007   7.853   0.961
99964W        W72257  34.581  10.636  12.959
99965W        W72258  42.968   1.446  12.853
99966W        W72259  24.676  20.549   1.310
99967W        W72260  35.405  42.484  14.770
99968W        W72261  35.955  13.823  14.308
99969W        W72262  37.858  20.100   2.314
99970W        W72263  39.504  35.925  13.054
99971W        W72264  33.606  39.419   3.675
99972W        W72265  38.956   4.232  10.940
99973W        W72266  28.034  36.060   0.743
99974W        W72267  34.506  40.540   4.116
99975W        W72268   0.891  15.207  11.999
99976W        W72269  16.739  16.568  13.022
99977W        W72270  15.607  40.926   4.802
99978W        W72271  33.976  24.613  13.480
99979W        W72272  12.135  29.615  10.906
99980W        W72273  34.378   6.275  11.946
99981W        W72274   5.338  31.495   4.732
99982W        W72275   1.911  42.842   4.323
99983W        W72276  27.686  21.642  12.347
99984W        W72277  20.616  17.239  11.107
99985W        W72278  43.936  38.423   1.885
99986W        W72279  41.988  30.625   1.436
99987W        W72280  16.080   5.381   0.271
99988W        W72281  21.670  22.619   4.679
99989W        W72282   6.225   3.876   2.687
99990W        W72283  15.257  36.924  11.947
99991W        W72284  33.610  12.689  11.956
99992W        W72285  40.434   5.777  14.876
99993W        W72286  10.295   1.434  14.403
99994W        W72287  16.668  12.341  14.510
99995W        W72288   6.707  15.669   4.613
99996W        W72289  33.024  25.648  12.352
99997W        W72290  28.069  33.528  13.813
99998W        W72291   7.399   4.364   4.759
99999W        W72292  20.613   4.839   4.197
    0W        W72293  30.477  22.511  13.941
    1W        W72294   4.728  30.563   2.873
    2W        W72295   3.905  17.701  12.480
    3W        W72296  17.584  39.463  11.488
    4W        W72297  32.094  20.578  11.373
    5W        W72298   6.239  19.190   3.216
    6W        W72299   0.352  35.037   2.743
    7W        W72300   0.457  10.788  12.531
    8W        W72301  26.957  38.871  12.920
    9W        W72302  12.703  19.747   2.863
   10W        W72303  16.258  39.003   2.405
   11W        W72304   0.408  17.621   2.712
   12W        W72305  16.316  41.487  13.398
   13W        W72306  43.907  42.020  14.820
   14W        W72307   5.227   9.651   3.863
   15W        W72308  38.833   3.842   2.385
   16W        W72309  12.201  40.863  10.964
   17W        W72310   7.820  18.092   1.423
   18W        W72311  27.534  25.584   3.274
   19W        W72312  19.549  15.295   4.253
   20W        W72313  42.969   1.327  14.963
   21W        W72314  36.997  31.078   1.928
   22W        W72315   5.305  15.226   1.358
   23W        W72316  36.860  27.521  11.377
   24W        W72317   2.869   0.841   3.306
   25W        W72318   7.196  44.900   2.828
   26W        W72319  13.350  41.299   1.746
   27W        W72320  24.012   0.425  11.081
   28W        W72321  23.201  42.844  10.548
   29W        W72322  33.626  18.101  11.425
   30W        W72323  11.219  34.008   0.413
   31W        W72324   2.308  36.088  12.970
   32W        W72325  39.541  32.459   4.656
   33W        W72326   8.328   4.391   4.798
   34W        W72327  13.327  36.906   1.743
   35W        W72328  33.014   7.876   2.230
   36W        W72329  26.498   1.366  13.372
   37W        W72330   0.783   5.343   3.859
   38W        W72331  15.606   6.346  10.592
   39W        W72332  17.124   2.360   3.781
   40W        W72333  44.831  12.292  10.940
   41W        W72334  26.555  38.837  10.091
   42W        W72335  25.503  44.455   2.864
   43W        W72336  24.558   0.775   1.862
   44W        W72337  37.854  33.982  10.892
   45W        W72338  12.827   1.442   4.268
   46W        W72339  26.458  23.109  14.408
   47W        W72340  38.416   3.719  14.514
   48W        W72341  40.040   3.426  11.567
   49W        W72342  38.467  15.214   2.181
   50W        W72343  19.776   7.406   2.376
   51W        W72344   7.865   0.253  10.901
   52W        W72345  20.117  37.844  10.501
   53W        W72346   9.158  38.373  11.430
   54W        W72347  37.516  40.891  10.485
   55W        W72348  42.335  22.222  12.346
   56W        W72349   7.197  36.934   5.290
   57W        W72350  37.547   2.454  10.424
   58W        W72351  19.077   7.368   3.855
   59W        W72352  22.108  27.628  13.921
   60W        W72353   3.260  34.938   5.257
   61W        W72354  22.024  39.494   3.232
   62W        W72355  20.212  20.534  10.099
   63W        W72356  41.882  17.081  12.361
   64W        W72357  31.606   5.414   3.232
   65W        W72358   1.901  28.504   3.728
   66W        W72359  26.970  15.592  14.840
   67W        W72360  18.677  23.559   9.447
   68W        W72361  10.345  19.686  14.432
   69W        W72362   9.382   5.813  12.858
   70W        W72363  17.674  29.616   3.288
   71W        W72364  12.131  27.595   0.900
   72W        W72365  25.064  12.121  14.386
   73W        W72366  28.119  24.724   1.213
   74W        W72367  19.544  28.953  12.457
   75W        W72368  26.134  27.941   2.398
   76W        W72369  12.686   7.190  14.832
   77W        W72370   4.385   3.776  11.423
   78W        W72371  26.025  35.598  11.445
   79W        W72372  29.509  20.065  14.770
   80W        W72373  38.446  21.027  12.049
   81W        W72374   6.788  30.571   2.666
   82W        W72375  32.965  11.682  11.064
   83W        W72376  14.148  37.871   2.284
   84W        W72377  22.118   4.279   1.344
   85W        W72378  10.193  21.227  13.878
   86W        W72379  40.437  16.229  14.783
   87W        W72380  20.151  22.677   0.417
   88W        W72381  11.719  24.643   4.744
   89W        W72382  28.953  18.125   4.279
   90W        W72383  11.668  29.560  14.969
   91W        W72384  11.684  37.564  14.943
   92W        W72385   6.820  27.682  10.525
   93W        W72386  17.179   2.871  13.425
   94W        W72387  17.250  43.446   1.891
   95W        W72388  20.144  36.091   5.249
   96W        W72389  21.103  35.532   3.666
   97W        W72390  22.137  11.330   0.364
   98W        W72391  29.938   6.870   1.903
   99W        W72392  43.385  35.545  12.055
  100W        W72393  35.027  36.862  13.888
  101W        W72394  25.171  14.225  10.567
  102W        W72395  38.831  11.180  13.357
  103W        W72396  37.993  39.377   4.726
  104W        W72397  34.041  20.147  13.885
  105W        W72398  37.551  14.607   2.261
  106W        W72399   1.380  24.996  10.925
  107W        W72400  40.816  33.620   2.298
  108W        W72401  32.439  27.015   0.858
  109W        W72402  34.401  23.624  10.605
  110W        W72403  24.017  21.210   4.233
  111W        W72404  19.096   1.794  12.438
  112W        W72405  26.209  23.638   1.744
  113W        W72406  16.783  43.811  14.280
  114W        W72407  38.979   1.780  11.865
  115W        W72408  35.035   1.339  13.470
  116W        W72409  35.084  11.688  13.929
  117W        W72410  39.932  13.797   3.198
  118W        W72411  17.096  28.499   1.448
  119W        W72412   4.798  12.332   5.157
  120W        W72413  23.499   9.328   2.786
  121W        W72414  21.021   0.477   2.279
  122W        W72415  41.824  36.430   4.606
  123W        W72416  44.958  37.343  10.107
  124W        W72417  21.156  25.115   4.832
  125W        W72418   2.355  18.594  13.343
  126W        W72419  17.248  27.040  11.895
  127W        W72420  31.543  10.215   4.216
  128W        W72421   8.693  39.461  13.846
  129W        W72422  38.064  44.385  13.796
  130W        W72423  30.619  14.826   4.816
  131W        W72424  24.126   9.664   3.200
  132W        W72425  29.038   4.914  11.588
  133W        W72426  23.560  34.890  11.091
  134W        W72427  18.277  35.599  12.053
  135W        W72428   7.241  33.495  10.497
  136W        W72429  15.764  20.641   0.477
  137W        W72430  42.009  29.612  11.939
  138W        W72431  26.478  35.454   4.732
  139W        W72432  14.243   9.260   1.375
  140W        W72433  10.836  20.761   2.662
  141W        W72434  21.183  22.719   0.799
  142W        W72435  24.536  23.196   1.230
  143W        W72436  29.631  40.390   1.221
  144W        W72437  10.154  16.719  11.865
  145W        W72438  14.717   3.327  13.825
  146W        W72439  36.464  35.447  10.529
  147W        W72440  27.097   1.345   1.859
  148W        W72441  33.100  21.654   0.832
  149W        W72442  11.132  40.452  10.615
  150W        W72443  32.943  31.128   4.707
  151W        W72444  38.891  35.033  13.814
  152W        W72445   2.785   4.300   2.344
  153W        W72446  14.632  41.039  12.464
  154W        W72447  22.154  34.025   0.382
  155W        W72448  30.977  22.506  12.027
  156W        W72449  32.141  23.116   0.349
  157W        W72450   5.790   3.375   1.824
  158W        W72451  20.714  43.467   2.398
  159W        W72452  22.141  35.361  11.547
  160W        W72453   6.758  34.400   5.088
  161W        W72454   3.267  25.538   1.241
  162W        W72455  30.949  24.054   0.479
  163W        W72456  16.310  37.955   2.895
  164W        W72457  39.824  42.793   4.326
  165W        W72458  19.649  44.325   4.275
  166W        W72459  13.324  18.294  13.498
  167W        W72460  26.123  18.130   0.437
  168W        W72461  39.862  25.220   2.357
  169W        W72462  20.707   2.342  10.592
  170W        W72463  19.708  15.328  14.293
  171W        W72464   5.807  44.415  11.463
  172W        W72465  26.472  39.418  14.763
  173W        W72466  43.815  12.286  11.589
  174W        W72467  37.358   1.391  14.027
  175W        W72468  19.150  13.818   3.286
  176W        W72469  26.460  37.885  14.445
  177W        W72470  32.969  18.709   1.447
  178W        W72471  28.072  36.969  12.493
  179W        W72472  43.955  37.572  11.125
  180W        W72473  18.123   5.375  12.081
  181W        W72474  14.801  25.962   2.855
  182W        W72475  40.001  15.299   2.334
  183W        W72476  13.283  19.666   3.735
  184W        W72477  25.990  16.196   1.261
  185W        W72478  38.418  29.483  13.332
  186W        W72479   1.387  23.073   0.863
  187W        W72480  32.409  28.610  13.922
  188W        W72481  20.256  14.798  13.402
  189W        W72482   2.451  16.764  12.868
  190W        W72483  31.480  10.803  11.068
  191W        W72484  25.693  11.669   4.815
  192W        W72485  42.930  32.065   2.226
  193W        W72486  31.546  11.754   0.369
  194W        W72487  31.119   4.249  13.820
  195W        W72488  19.685  36.422   1.750
  196W        W72489  18.134  34.946   3.729
  197W        W72490  14.649   9.378  11.904
  198W        W72491  38.504   0.796  10.616
  199W        W72492  25.964  38.351   4.154
  200W        W72493   0.836   1.434   4.793
  201W        W72494  44.321   5.894  14.321
  202W        W72495  13.208  34.399  13.953
  203W        W72496  44.495   9.742   2.317
  204W        W72497  23.585  24.020   4.312
  205W        W72498  36.936  23.059  13.311
  206W        W72499  27.135  34.981   4.770
  207W        W72500   6.882  34.077  11.047
  208W        W72501  30.629  27.533  14.323
  209W        W72502  31.954  13.812  10.556
  210W        W72503  14.610   7.783  13.915
  211W        W72504  40.547   2.378  10.609
  212W        W72505  34.075  34.023  10.957
  213W        W72506   2.360   5.247   1.215
  214W        W72507  17.229  30.545   0.868
  215W        W72508   5.415   3.273  10.568
  216W        W72509  22.240   2.797  13.532
  217W        W72510  19.649  42.871   1.856
  218W        W72511  12.264  20.748   2.677
  219W        W72512  40.956  14.107   1.310
  220W        W72513  29.450  33.393  14.759
  221W        W72514  41.400  42.893   0.905
  222W        W72515  26.594  10.234  13.388
  223W        W72516  25.133  31.974  11.122
  224W        W72517  26.513   3.416   0.745
  225W        W72518  20.137  29.655   2.702
  226W        W72519  25.662  44.872   0.872
  227W        W72520  21.187   0.301   3.321
  228W        W72521  30.096  25.052   1.382
  229W        W72522  18.227  44.835  12.025
  230W        W72523  26.570  15.259   3.360
  231W        W72524  10.632  16.745   1.914
  232W        W72525  15.300  24.554  14.837
  233W        W72526  42.320  30.917  11.921
  234W        W72527  30.120  36.092  12.046
  235W        W72528  43.392  29.032  14.503
  236W        W72529  44.930  38.327   2.814
  237W        W72530  10.669  30.037  14.780
  238W        W72531  33.089   5.781   3.318
  239W        W72532  27.638   0.338  12.418
  240W        W72533  22.014  13.684   0.356
  241W        W72534  13.825  26.487   1.303
  242W        W72535   2.342   3.439  14.498
  243W        W72536  17.736  34.995   0.361
  244W        W72537   7.310  24.492  12.424
  245W        W72538  22.064  37.045   2.858
  246W        W72539  22.741   8.736   1.396
  247W        W72540   1.796  15.329  13.418
  248W        W72541   7.414  29.542   2.741
  249W        W72542  35.484  38.027  12.850
  250W        W72543  44.398  33.004   4.675
  251W        W72544   9.288   1.897  10.507
  252W        W72545  36.464  11.830   1.312
  253W        W72546   4.903   2.322   1.703
  254W        W72547   9.885  44.759   4.285
  255W        W72548   7.703  26.181   4.169
  256W        W72549  22.518  12.634  11.000
  257W        W72550  16.232  28.642   0.439
  258W        W72551   8.299  33.556   5.168
  259W        W72552  36.429  29.536  10.002
  260W        W72553  19.048  33.476   5.620
  261W        W72554  15.810  40.391  11.372
  262W        W72555  35.599  39.884  10.508
  263W        W72556   5.386  42.527  14.914
  264W        W72557  30.966  32.127  10.962
  265W        W72558  34.561  19.575   4.769
  266W        W72559  18.064  24.053  10.044
  267W        W72560  43.294  38.376   4.257
  268W        W72561  11.355  36.896   2.818
  269W        W72562  10.869  24.134   3.314
  270W        W72563  44.907  32.042  12.422
  271W        W72564   1.807  33.894   3.867
  272W        W72565  30.131  32.070  10.486
  273W        W72566  25.049  28.933   4.629
  274W        W72567  36.961  15.222   0.393
  275W        W72568  17.286  27.516   3.728
  276W        W72569  20.663   6.913  12.341
  277W        W72570  12.206  39.966   4.727
  278W        W72571  15.278   4.847   3.803
  279W        W72572  30.014  44.919   1.720
  280W        W72573  40.427   9.790   0.301
  281W        W72574   2.309   9.790   2.246
  282W        W72575  10.648  25.685   0.908
  283W        W72576  44.455  22.619   5.255
  284W        W72577  18.237  39.436  12.931
  285W        W72578  41.858   0.849  12.913
  286W        W72579  27.955  28.976  14.932
  287W        W72580  24.589  42.523   4.620
  288W        W72581  42.294  22.611  11.035
  289W        W72582  14.655  35.399   2.738
  290W        W72583  37.851  41.859  13.346
  291W        W72584  34.034  30.020   0.885
  292W        W72585  34.044  38.066  11.607
  293W        W72586  44.828  14.660   3.649
  294W        W72587  22.211  32.512   4.726
  295W        W72588  43.854  44.289   4.631
  296W        W72589  40.923  23.228   4.247
  297W        W72590  20.143  10.174   4.142
  298W        W72591  20.652  36.349  13.934
  299W        W72592  11.694   7.733  12.357
  300W        W72593  34.885   4.380   2.808
  301W        W72594  25.966   4.266   0.818
  302W        W72595  29.612  31.438  12.979
  303W        W72596  40.841  30.069  10.537
  304W        W72597  43.891  15.753   4.657
  305W        W72598  37.894  40.367   2.238
  306W        W72599  11.750  32.522  14.942
  307W        W72600  28.968  20.257  14.877
  308W        W72601  17.564  10.719  12.057
  309W        W72602  34.552  18.671  14.430
  310W        W72603   3.400  36.533  12.966
  311W        W72604  13.140  41.423  10.965
  312W        W72605  35.358  40.835  12.843
  313W        W72606  10.167  13.215   3.266
  314W        W72607  44.863  36.576   0.270
  315W        W72608  40.539  34.508   3.307
  316W        W72609  23.164   2.340   1.777
  317W        W72610  26.083  37.488   4.734
  318W        W72611  20.569  20.590  14.022
  319W        W72612  37.079  30.066  13.903
  320W        W72613  35.419  21.258   1.379
  321W        W72614  25.967   6.884   1.882
  322W        W72615  37.421  20.188  11.861
  323W        W72616   6.856  23.095   2.679
  324W        W72617  42.313   0.824  13.505
  325W        W72618  32.024  39.353  10.978
  326W        W72619   3.913   6.351  12.355
  327W        W72620  35.047  25.160   0.882
  328W        W72621   8.199   5.869  13.540
  329W        W72622  42.394  30.471   4.225
  330W        W72623  17.284  35.059  12.439
  331W        W72624   7.370  10.225  14.510
  332W        W72625  15.662   4.762   5.248
  333W        W72626  42.790  32.116   3.355
  334W        W72627  39.432   0.332   2.858
  335W        W72628  26.969  26.560   3.205
  336W        W72629   9.213  18.150   2.673
  337W        W72630  21.690  33.964   2.682
  338W        W72631  14.165   2.429   0.808
  339W        W72632  13.164   0.760   2.340
  340W        W72633  25.689  19.220  14.490
  341W        W72634  11.777  33.885  14.869
  342W        W72635  24.560  31.097  14.890
  343W        W72636  30.051  20.167  11.012
  344W        W72637  37.529  17.766  13.055
  345W        W72638  36.516  44.894   2.239
  346W        W72639  32.479  39.846   0.295
  347W        W72640   9.162  36.483  10.911
  348W        W72641   9.737  10.284  10.454
  349W        W72642  33.939   4.339   2.418
  350W        W72643  26.157  42.435   2.801
  351W        W72644  12.689   9.323  10.422
  352W        W72645  17.715   0.832  10.574
  353W        W72646  15.263   9.233   1.846
  354W        W72647  38.937  21.587  10.525
  355W        W72648  15.294  19.178   4.169
  356W        W72649  11.655  30.082   3.266
  357W        W72650  38.442   1.252   1.831
  358W        W72651  18.699  11.677  13.944
  359W        W72652  37.841  36.573   2.680
  360W        W72653  32.536  29.476  12.520
  361W        W72654  31.612  36.492  14.897
  362W        W72655  17.639  19.539  10.918
  363W        W72656  30.648  19.057   4.132
  364W        W72657   4.737  11.736  10.511
  365W        W72658  23.058  31.496   2.295
  366W        W72659  34.018  37.961   1.912
  367W        W72660  14.728  12.269   3.280
  368W        W72661  23.615   4.343  11.588
  369W        W72662  18.180  44.282  14.824
  370W        W72663   5.827  33.466  14.815
  371W        W72664  23.666   1.890   9.953
  372W        W72665   0.458   8.756   0.904
  373W        W72666   2.945  16.158   1.818
  374W        W72667  22.639   8.172  14.776
  375W        W72668  15.152  37.050  10.973
  376W        W72669  44.474  17.112   3.379
  377W        W72670   1.410  26.074   3.676
  378W        W72671  37.953  22.713   3.165
  379W        W72672  38.463   5.407   1.891
  380W        W72673  35.409  32.392   0.789
  381W        W72674  35.461  10.756   1.731
  382W        W72675  24.592  13.703  14.398
  383W        W72676  19.086  10.768   1.428
  384W        W72677  20.167  24.154  12.444
  385W        W72678   1.290   2.848   4.828
  386W        W72679  34.576  22.149   0.322
  387W        W72680  34.921  10.636   3.374
  388W        W72681   4.840  43.302  11.930
  389W        W72682  10.380  32.909   2.852
  390W        W72683  18.088  33.008   2.258
  391W        W72684  25.991  40.306   3.677
  392W        W72685  37.998  26.493  12.924
  393W        W72686  27.545  28.660  10.969
  394W        W72687  11.308  27.049  11.487
  395W        W72688  24.503  22.196  14.883
  396W        W72689  42.796  12.171  12.920
  397W        W72690  29.128  10.364   2.282
  398W        W72691  29.092   7.243   4.629
  399W        W72692   0.357  38.504  11.487
  400W        W72693  42.433  43.846  11.435
  401W        W72694  29.624  28.557   0.323
  402W        W72695  43.813   6.362  13.949
  403W        W72696  39.449  27.053  13.971
  404W        W72697  28.032   3.918   9.920
  405W        W72698  21.642   0.749  14.010
  406W        W72699  35.603  36.479  14.760
  407W        W72700  22.210  29.541  14.327
  408W        W72701   5.883  27.058   3.247
  409W        W72702  15.742  31.479  10.152
  410W        W72703  35.860  40.829   3.748
  411W        W72704  33.944   6.735  12.382
  412W        W72705  11.861  42.373   2.691
  413W        W72706  33.603  21.693  12.398
  414W        W72707  18.619  20.531   2.253
  415W        W72708  41.318  27.162  13.989
  416W        W72709  40.424  32.452  13.866
  417W        W72710  24.604  35.536  11.475
  418W        W72711  11.747   7.832   0.460
  419W        W72712   1.479  32.578   2.766
  420W        W72713  14.094  13.616  14.956
  421W        W72714  18.140  20.242   1.790
  422W        W72715   2.306  10.372   2.224
  423W        W72716  19.693  25.987   0.808
  424W        W72717  16.192   3.388   1.704
  425W        W72718   4.813  10.764   1.718
  426W        W72719  44.001  16.170   3.173
  427W        W72720  39.832  21.605  13.469
  428W        W72721  25.004  27.609  11.985
  429W        W72722  36.888   7.755  13.928
  430W        W72723  13.659  33.060   2.380
  431W        W72724   6.730  27.026   1.786
  432W        W72725  41.386  14.179  11.884
  433W        W72726  42.945  44.267  11.945
  434W        W72727  12.856  21.146   3.699
  435W        W72728  28.129  27.642  10.621
  436W        W72729  44.458  14.631   0.269
  437W        W72730  15.578  25.515  12.564
  438W        W72731  43.834  37.391  12.083
  439W        W72732   2.394  34.610   3.244
  440W        W72733  12.689   9.320   3.175
  441W        W72734   9.861  33.957   0.448
  442W        W72735  44.951  16.073  10.995
  443W        W72736  34.465  32.522  10.966
  444W        W72737  43.318  36.488   0.252
  445W        W72738  24.005  22.511   1.791
  446W        W72739  16.215  23.075  13.915
  447W        W72740  22.102  16.186   1.714
  448W        W72741  26.986  30.616  14.976
  449W        W72742   4.273  41.507   3.730
  450W        W72743  27.943   3.801   3.840
  451W        W72744  13.217  44.294  12.919
  452W        W72745   8.307  26.158  10.517
  453W        W72746  20.524  18.171  14.489
  454W        W72747  12.321  29.472  12.846
  455W        W72748  14.739  26.080   1.350
  456W        W72749  36.027  28.524   3.862
  457W        W72750  26.614  43.912   1.796
  458W        W72751  44.319  37.459   4.354
  459W        W72752  23.164  29.120  10.420
  460W        W72753  44.998  42.299   3.290
  461W        W72754  17.624  41.454  12.400
  462W        W72755  24.039  23.701   3.741
  463W        W72756  20.722  41.424  13.870
  464W        W72757  40.393   2.279  12.396
  465W        W72758   9.859  24.684   2.855
  466W        W72759  27.468  25.118  13.837
  467W        W72760  22.682   2.296   0.338
  468W        W72761  16.787  41.305   0.788
  469W        W72762  41.381   4.386  14.936
  470W        W72763  32.463  14.205  14.025
  471W        W72764  15.786   7.343   0.761
  472W        W72765   5.806   8.362   3.267
  473W        W72766  26.081  14.681  12.895
  474W        W72767  40.442  14.688  14.014
  475W        W72768  34.101  21.661  13.314
  476W        W72769   7.681   3.302  11.098
  477W        W72770  44.321  35.480   4.796
  478W        W72771  44.838   1.936   3.272
  479W        W72772   9.667  26.986  11.048
  480W        W72773  12.688  34.391  13.398
  481W        W72774  28.037   1.887   1.904
  482W        W72775  39.478  24.178  12.349
  483W        W72776  42.974   4.705  10.894
  484W        W72777  38.488  29.450  10.488
  485W        W72778  20.637  43.873   0.768
  486W        W72779   1.443   7.393  13.059
  487W        W72780   7.669   9.846   2.394
  488W        W72781   4.868  11.340  12.508
  489W        W72782  29.021  37.831  12.408
  490W        W72783  10.848   7.683  14.327
  491W        W72784  19.759  30.513   0.438
  492W        W72785  29.096  12.710  14.306
  493W        W72786  29.575   8.774  11.434
  494W        W72787  27.012  32.412   0.862
  495W        W72788  24.978  35.105   3.719
  496W        W72789   3.272  21.124  11.449
  497W        W72790   0.953  19.759  14.965
  498W        W72791  13.148   7.812   0.320
  499W        W72792  19.232  17.156   4.156
  500W        W72793   3.349  10.698  10.919
  501W        W72794  15.622   3.397   4.206
  502W        W72795  12.189  15.194   4.811
  503W        W72796  38.047  44.899   2.307
  504W        W72797  25.191  44.393   4.146
  505W        W72798  11.711  15.236   3.736
  506W        W72799  21.142   2.342  10.991
  507W        W72800  19.245  26.700  13.464
  508W        W72801  19.773   4.441   3.660
  509W        W72802  39.946  16.075   1.340
  510W        W72803   3.234  30.418  14.861
  511W        W72804   9.367  41.509   0.386
  512W        W72805  29.154   0.345  10.570
  513W        W72806  20.043  31.042   2.350
  514W        W72807  11.234  39.523  11.577
  515W        W72808   8.889  17.182   5.101
  516W        W72809  37.047  42.482   1.277
  517W        W72810  42.977  41.447   4.273
  518W        W72811  43.001  33.892   2.694
  519W        W72812  11.639  28.975  14.365
  520W        W72813  24.095  25.615   1.419
  521W        W72814  25.617  37.972  13.033
  522W        W72815  16.804  36.974  14.278
  523W        W72816  11.841  29.539   4.327
  524W        W72817   2.394  21.154   0.290
  525W        W72818  28.072  40.527   2.806
  526W        W72819  35.492   5.342  12.513
  527W        W72820  25.481  39.977  12.374
  528W        W72821  14.697  35.086   1.273
  529W        W72822  24.226   1.770  11.866
  530W        W72823  33.534  15.732  12.358
  531W        W72824  36.501  18.078  10.119
  532W        W72825  25.156  16.212   4.798
  533W        W72826  20.230  14.730   0.400
  534W        W72827  16.248  18.601  11.881
  535W        W72828   8.330   4.817   4.756
  536W        W72829  41.789  14.265  11.442
  537W        W72830   3.315  17.755  12.545
  538W        W72831  15.200  38.431   0.882
  539W        W72832  39.894  18.268   3.836
  540W        W72833  31.110  19.226  13.999
  541W        W72834  22.010  13.647  14.761
  542W        W72835  39.946  11.802   3.698
  543W        W72836  43.491  35.050  10.038
  544W        W72837  40.897  12.238  13.055
  545W        W72838  40.920  25.031   1.285
  546W        W72839   1.287  42.818  11.027
  547W        W72840  38.888  30.027  14.031
  548W        W72841  26.616  29.122   1.783
  549W        W72842   4.257  39.509  13.885
  550W        W72843  41.901  21.022   4.195
  551W        W72844  31.623   3.722  10.932
  552W        W72845  41.918  10.804  13.867
  553W        W72846  37.467   8.778   1.213
  554W        W72847   8.368  29.022  11.570
  555W        W72848   6.183  13.348   3.771
  556W        W72849  19.571  38.864  11.439
  557W        W72850  37.031  33.494  12.961
  558W        W72851  17.068  42.941   3.803
  559W        W72852  11.127   5.251   3.254
  560W        W72853  25.540  41.988   0.265
  561W        W72854  21.128  37.450  11.381
  562W        W72855  35.090  37.906   3.247
  563W        W72856  37.058  14.108  13.965
  564W        W72857  20.683  30.561  12.994
  565W        W72858   2.254  44.280  10.609
  566W        W72859   1.357  19.619  14.786
  567W        W72860  41.928  11.367   0.849
  568W        W72861   9.691  27.961   1.780
  569W        W72862  34.492   7.702   4.179
  570W        W72863  13.260  34.109   0.772
  571W        W72864  39.322  19.082  11.576
  572W        W72865  36.054   3.443   3.650
  573W        W72866  14.158  11.140  13.473
  574W        W72867  17.665  15.102  10.535
  575W        W72868  32.909   0.797  14.944
  576W        W72869  16.234   0.794  12.981
  577W        W72870   4.883   2.866  12.342
  578W        W72871  30.415   0.251   1.429
  579W        W72872   5.311   1.964   2.792
  580W        W72873  25.102  31.455   4.266
  581W        W72874  30.655  26.147  10.983
  582W        W72875  26.006  13.777   0.362
  583W        W72876   3.793  20.653   3.233
  584W        W72877  30.029  10.721  12.903
  585W        W72878  26.187  14.697   3.174
  586W        W72879  33.129  35.479   1.391
  587W        W72880  43.948  23.198   1.771
  588W        W72881  38.424   1.313  10.464
  589W        W72882  41.488  37.930  12.040
  590W        W72883  16.315   4.841   0.900
  591W        W72884  22.523   4.303   5.658
  592W        W72885   7.185  43.828  11.022
  593W        W72886  13.149   6.753   1.402
  594W        W72887  33.085   0.466  12.021
  595W        W72888  31.630  12.843  14.922
  596W        W72889  23.019  26.583  14.372
  597W        W72890  12.354   1.923   3.811
  598W        W72891  28.446  20.064   4.797
  599W        W72892  36.356  43.918   3.703
  600W        W72893  10.248  35.868   2.309
  601W        W72894  37.468  36.523  14.375
  602W        W72895  17.626  34.090   3.746
  603W        W72896   9.883  22.076  12.073
  604W        W72897   7.288  16.802   4.697
  605W        W72898   0.358  28.441   1.853
  606W        W72899  18.760  26.652  14.824
  607W        W72900  13.602  13.759   4.128
  608W        W72901  24.575   1.425  14.357
  609W        W72902   1.377  44.371   3.667
  610W        W72903  30.936  10.263   1.447
  611W        W72904  29.065  11.686  10.595
  612W        W72905  31.549  13.764  12.565
  613W        W72906  29.471  14.672   3.335
  614W        W72907  24.153   1.773   3.701
  615W        W72908  39.059  22.110  13.503
  616W        W72909   4.860  18.555   2.193
  617W        W72910  26.983  19.640   3.370
  618W        W72911  13.312  25.542  14.483
  619W        W72912  23.092  12.319   3.156
  620W        W72913   4.781  14.154  14.951
  621W        W72914   0.816  12.780   4.813
  622W        W72915   0.288  20.045   1.925
  623W        W72916  24.021  11.245  12.367
  624W        W72917  23.546  18.619   2.882
  625W        W72918  37.937   3.739   4.740
  626W        W72919   4.716  39.540   1.362
  627W        W72920  40.510   6.343  10.420
  628W        W72921  43.421  10.754  12.826
  629W        W72922  27.002  23.070   1.379
  630W        W72923  29.965   2.927   2.385
  631W        W72924  31.897  43.915   4.778
  632W        W72925  18.238  13.679  11.857
  633W        W72926  31.932  16.188   1.276
  634W        W72927  43.435  22.179   3.173
  635W        W72928  35.393  31.949   1.258
  636W        W72929  44.805  22.657   1.419
  637W        W72930  34.914  33.507  10.615
  638W        W72931  21.527   4.902  12.563
  639W        W72932  22.624   5.274  13.814
  640W        W72933   8.724   1.327   2.804
  641W        W72934  41.041  16.808  14.868
  642W        W72935  23.088   7.373   2.856
  643W        W72936  30.555  15.706   2.216
  644W        W72937   7.257   4.387  11.527
  645W        W72938  33.958   6.720   2.397
  646W        W72939  25.583  24.997   4.174
  647W        W72940  13.190  24.563   4.214
  648W        W72941  43.417  42.801  11.027
  649W        W72942  11.782  12.313  10.596
  650W        W72943  30.643   9.392  12.516
  651W        W72944   4.210  18.694   4.234
  652W        W72945  39.322  14.229  10.896
  653W        W72946  44.439   6.783  13.430
  654W        W72947  23.150   2.934  13.435
  655W        W72948   8.837  38.939  12.022
  656W        W72949  25.564  19.216   3.222
  657W        W72950  18.576   0.773  10.147
  658W        W72951  25.658   4.822   0.750
  659W        W72952   8.202  42.389  12.824
  660W        W72953  37.031  10.669   2.720
  661W        W72954  27.573  32.120   4.653
  662W        W72955  10.711  22.651   2.878
  663W        W72956  33.532  25.609   2.840
  664W        W72957  41.407  36.931   3.169
  665W        W72958  40.322  29.063   0.376
  666W        W72959  23.504  42.475  11.509
  667W        W72960  13.347  17.146  11.524
  668W        W72961  40.943  10.760   1.860
  669W        W72962  34.030  17.162  11.910
  670W        W72963   7.266  34.116  10.899
  671W        W72964  12.671   5.776  11.937
  672W        W72965  11.637  18.079   2.301
  673W        W72966  21.603  43.889  14.761
  674W        W72967  16.245  23.051   1.376
  675W        W72968   9.302  43.368  13.043
  676W        W72969   3.893  25.504  14.880
  677W        W72970  42.448  21.743   2.196
  678W        W72971  12.196  36.510  14.306
  679W        W72972  26.075  13.715   0.887
  680W        W72973  41.524  39.939   2.726
  681W        W72974  26.487  35.081  11.048
  682W        W72975  36.956  23.702   2.346
  683W        W72976   1.922   4.760  12.852
  684W        W72977  15.775   7.843  13.506
  685W        W72978  43.958  34.417  12.875
  686W        W72979  16.303  31.585   0.797
  687W        W72980  23.603  18.622   1.854
  688W        W72981  26.662  44.325  11.479
  689W        W72982  33.457  10.767  12.893
  690W        W72983  36.451  13.640  10.450
  691W        W72984  30.458  42.931  13.941
  692W        W72985  14.214  39.988   3.268
  693W        W72986  19.145   7.277   2.878
  694W        W72987  26.133  40.959  13.366
  695W        W72988  43.949  15.770   2.286
  696W        W72989  22.055  29.128   4.615
  697W        W72990  18.621   4.725   1.369
  698W        W72991  25.507  11.163  10.405
  699W        W72992   6.708  34.912  13.833
  700W        W72993  29.000  21.571  12.977
  701W        W72994  41.842  15.263   4.738
  702W        W72995   0.391  29.569   2.214
  703W        W72996  28.147  39.498  12.884
  704W        W72997  28.184   2.923  10.570
  705W        W72998  26.603  20.071  13.027
  706W        W72999  40.505  27.508  11.985
  707W        W73000   0.391  22.532   4.129
  708W        W73001  31.538  43.920   1.879
  709W        W73002  15.198  41.955   0.427
  710W        W73003  21.175   5.342   2.782
  711W        W73004  37.527  35.385   4.626
  712W        W73005   9.158  10.236  11.954
  713W        W73006  33.518  25.543  14.891
  714W        W73007  21.021  20.049   2.846
  715W        W73008  37.835  42.911   0.372
  716W        W73009   0.459  42.809  10.544
  717W        W73010  37.369  24.679   3.324
  718W        W73011   9.202  30.540   2.820
  719W        W73012  20.731  32.135   2.386
  720W        W73013  35.949  29.626  13.450
  721W        W73014   4.910  33.612  12.858
  722W        W73015  37.032   5.359  10.583
  723W        W73016  31.056  14.684   4.137
  724W        W73017  40.010  43.808   4.150
  725W        W73018  36.536  11.269   1.443
  726W        W73019  40.441  41.293  10.129
  727W        W73020  21.246  23.569  13.994
  728W        W73021  38.968  43.409   1.813
  729W        W73022  32.625  38.948   2.328
  730W        W73023  31.562  29.043   3.151
  731W        W73024  29.169  24.205   3.754
  732W        W73025  27.664  41.946   1.723
  733W        W73026  41.452   6.415   5.168
  734W        W73027  40.478  33.401   0.383
  735W        W73028  35.513  14.832  11.601
  736W        W73029  11.230  27.558   1.398
  737W        W73030  33.391   5.246  13.816
  738W        W73031  13.830  18.132  10.987
  739W        W73032  18.165  23.562  11.874
  740W        W73033  17.649  38.922  14.282
  741W        W73034  27.510   4.934   0.412
  742W        W73035   4.267  28.160   4.652
  743W        W73036   0.437   0.371   1.711
  744W        W73037  26.139  37.072   0.391
  745W        W73038  27.660   3.256   0.798
  746W        W73039  44.928  24.029   3.335
  747W        W73040  15.754  14.107   5.241
  748W        W73041  18.153   8.692   1.277
  749W        W73042  14.779   4.802   2.669
  750W        W73043  26.964  11.840  13.375
  751W        W73044  44.892  36.478  13.461
  752W        W73045   8.729  37.056   4.313
  753W        W73046  26.018  29.961  13.822
  754W        W73047  21.556  21.550  12.045
  755W        W73048   5.806  13.144  13.943
  756W        W73049   4.425  28.950   1.313
  757W        W73050  18.173  35.886   4.128
  758W        W73051  34.080  20.552  12.579
  759W        W73052  40.989  31.940  13.012
  760W        W73053  27.464  24.016   3.323
  761W        W73054  27.006  29.056   2.294
  762W        W73055  37.512  10.781  13.382
  763W        W73056  11.169  42.296  14.369
  764W        W73057   5.394  42.827   2.805
  765W        W73058  22.236  33.562   1.414
  766W        W73059  27.637  33.115   3.369
  767W        W73060  21.731   4.416  14.818
  768W        W73061  17.620   8.399   2.374
  769W        W73062  34.031  13.622  10.459
  770W        W73063   4.869  31.492  12.899
  771W        W73064   9.888  32.916  13.383
  772W        W73065  21.085   1.801   4.260
  773W        W73066  36.919  20.663   1.843
  774W        W73067   4.924  35.442  13.981
  775W        W73068  18.623   1.838  12.017
  776W        W73069  18.183  12.763  14.920
  777W        W73070   1.833  39.992  14.835
  778W        W73071   1.366  28.501  12.381
  779W        W73072  38.503   7.790  13.416
  780W        W73073  31.033  40.476   0.795
  781W        W73074  20.115   2.352   3.679
  782W        W73075  34.518   0.453   2.327
  783W        W73076  32.897  11.712   4.142
  784W        W73077  25.175  35.072  13.858
  785W        W73078   9.316  40.475  12.028
  786W        W73079  27.979   5.414  11.475
  787W        W73080  18.589  34.977  12.539
  788W        W73081  42.378  28.144  11.954
  789W        W73082  37.336  14.231  11.031
  790W        W73083  22.172  44.276  10.000
  791W        W73084  18.103   0.769   4.786
  792W        W73085   7.212  34.484  10.106
  793W        W73086  11.222  22.539   2.179
  794W        W73087  40.327  39.471   2.769
  795W        W73088  31.572  21.126  12.421
  796W        W73089   3.257  30.596  11.859
  797W        W73090   4.912  28.557   0.302
  798W        W73091  25.596  21.731   4.763
  799W        W73092  11.293  41.790   1.864
  800W        W73093   1.393  35.864  12.340
  801W        W73094  20.117  28.069   2.698
  802W        W73095  22.046   7.721  13.042
  803W        W73096   4.396   5.802  14.443
  804W        W73097   7.308   0.344   4.335
  805W        W73098   2.257  41.520   5.244
  806W        W73099  10.240  38.895   0.316
  807W        W73100   7.325  16.298   4.777
  808W        W73101  38.475  29.141   0.362
  809W        W73102  27.094   1.237   4.143
  810W        W73103  12.664   1.791  13.316
  811W        W73104   4.806  43.980   1.356
  812W        W73105  31.624  30.015   1.814
  813W        W73106  25.567  44.286   4.296
  814W        W73107  16.715  20.254  13.348
  815W        W73108  41.815  10.301   4.342
  816W        W73109  13.324  26.603   4.296
  817W        W73110  32.087  39.903  12.393
  818W        W73111  34.104  20.066  10.888
  819W        W73112  31.906  34.371   0.804
  820W        W73113   7.225  28.958   1.424
  821W        W73114  39.961  11.860  10.944
  822W        W73115  25.187  26.458   1.428
  823W        W73116  11.314  12.132  12.512
  824W        W73117  28.070  21.699  13.404
  825W        W73118  44.827   2.855   1.294
  826W        W73119  15.683  27.483  14.458
  827W        W73120   9.730  25.507  14.769
  828W        W73121  24.016  28.503   3.298
  829W        W73122  17.670   7.412   3.812
  830W        W73123  33.894  26.100   1.922
  831W        W73124  15.172  24.214   0.267
  832W        W73125  11.287  31.987   1.930
  833W        W73126  12.317  16.117   4.758
  834W        W73127   8.815   2.334   1.416
  835W        W73128  41.454  16.141   2.854
  836W        W73129  34.416  16.219  11.408
  837W        W73130   6.916  21.177   3.344
  838W        W73131  42.516  10.676   3.837
  839W        W73132  36.959   5.827  12.445
  840W        W73133  12.749   3.769  12.871
  841W        W73134  42.322  42.952   2.254
  842W        W73135  18.774   1.734   0.854
  843W        W73136   3.760  25.620  12.511
  844W        W73137  24.577  17.210   0.393
  845W        W73138  11.347  35.470   3.225
  846W        W73139   7.741  44.802  11.944
  847W        W73140   2.409  34.087  13.873
  848W        W73141  25.017   7.676  12.982
  849W        W73142   1.332  20.635   0.798
  850W        W73143  36.863  44.000  14.496
  851W        W73144   4.728  17.088  12.408
  852W        W73145   5.857   4.236   2.679
  853W        W73146   8.197  13.616  10.644
  854W        W73147  40.336  10.866   0.374
  855W        W73148   7.323   8.696   4.734
  856W        W73149  12.766   8.798  12.343
  857W        W73150  15.631  31.078   4.231
  858W        W73151  38.989  35.990  12.842
  859W        W73152  19.124   5.417   0.727
  860W        W73153  41.521   7.683   1.321
  861W        W73154  34.088  29.665  11.095
  862W        W73155   7.185  22.619   1.791
  863W        W73156  29.642  34.469  12.525
  864W        W73157  19.576  20.710  11.478
  865W        W73158  35.542  28.057   1.361
  866W        W73159   0.284   6.244   1.435
  867W        W73160  38.377   4.346  12.990
  868W        W73161  29.145  35.079   1.408
  869W        W73162  30.954   1.804   5.106
  870W        W73163  31.491  24.569   1.898
  871W        W73164  39.022  22.739   0.394
  872W        W73165  19.236   3.361  12.939
  873W        W73166   9.231  38.505  13.971
  874W        W73167  10.872  32.593   3.781
  875W        W73168  16.685  38.514   3.165
  876W        W73169  29.575   4.743   1.754
  877W        W73170  10.380   4.232   4.336
  878W        W73171  17.642  17.656   3.799
  879W        W73172   9.875   0.447   2.324
  880W        W73173  14.712  20.126  14.777
  881W        W73174  36.497  17.236  10.956
  882W        W73175   0.379  44.958  12.342
  883W        W73176  39.927  38.354  11.544
  884W        W73177  17.760  32.920  11.963
  885W        W73178  27.187   4.706   3.209
  886W        W73179  44.893  26.504   1.434
  887W        W73180   7.233   1.341  11.072
  888W        W73181  44.881  32.120  13.315
  889W        W73182  17.779   2.826   2.248
  890W        W73183  38.053   6.366  12.957
  891W        W73184   5.434  17.170   9.986
  892W        W73185  38.337  21.147  11.047
  893W        W73186  12.132  36.000  13.027
  894W        W73187   1.405   6.355  11.576
  895W        W73188  38.068  23.689   1.255
  896W        W73189  20.257   6.697   2.820
  897W        W73190  19.596  21.618   4.251
  898W        W73191  18.786   2.895  10.604
  899W        W73192  11.198   0.294   0.399
  900W        W73193  20.130  13.714  10.523
  901W        W73194   9.249  42.525  10.939
  902W        W73195   1.916  29.633  14.361
  903W        W73196   3.245  29.936  14.828
  904W        W73197  11.824   5.327  12.948
  905W        W73198   0.360   2.787   4.693
  906W        W73199  30.936  16.753   2.269
  907W        W73200  27.575  10.199  14.405
  908W        W73201  26.116  32.534   1.351
  909W        W73202   7.199  14.806  12.878
  910W        W73203  36.356  12.650  12.916
  911W        W73204   7.310  23.630   3.778
  912W        W73205   6.248  17.696  14.844
  913W        W73206  37.566  27.037  12.447
  914W        W73207   9.759  38.384   1.759
  915W        W73208  35.904  38.484   0.917
  916W        W73209  24.554  21.199   1.369
  917W        W73210   5.393  21.154  13.858
  918W        W73211  42.976  19.595   0.890
  919W        W73212  15.579  38.540   4.308
  920W        W73213   3.816  37.361   3.791
  921W        W73214  21.190  21.260  11.393
  922W        W73215   6.243  29.543  14.806
  923W        W73216  27.018  43.822  10.955
  924W        W73217  42.351  41.514  12.044
  925W        W73218  30.074  30.491  11.072
  926W        W73219   7.290  40.002   0.928
  927W        W73220  26.670  10.276  12.490
  928W        W73221   2.841  24.183  13.526
  929W        W73222  25.067   7.870  10.932
  930W        W73223  34.552  19.150  13.363
  931W        W73224  23.129  25.524   3.323
  932W        W73225  28.520  32.923   4.612
  933W        W73226  10.193   0.327  11.947
  934W        W73227  37.405   6.420  12.348
  935W        W73228  37.898   2.757   3.739
  936W        W73229  27.594  29.456  13.432
  937W        W73230  34.877  30.544  10.420
  938W        W73231  23.559   2.414   1.800
  939W        W73232  34.011  30.055   0.295
  940W        W73233  27.505  44.456   1.738
  941W        W73234  31.021   6.264  12.076
  942W        W73235  38.852  42.008   2.265
  943W        W73236  24.573  16.087  12.371
  944W        W73237  29.141   0.789   0.261
  945W        W73238  40.313  13.806   0.835
  946W        W73239   8.333  32.018   4.683
  947W        W73240  38.076  35.928   3.723
  948W        W73241   2.880  33.963   4.797
  949W        W73242  36.537  29.040   3.787
  950W        W73243  20.537  22.624  12.541
  951W        W73244  25.695  30.525   0.366
  952W        W73245   6.749  19.083  12.916
  953W        W73246  11.673   7.363   0.954
  954W        W73247   1.288   0.477   4.162
  955W        W73248  32.056  26.120  10.530
  956W        W73249  10.682   2.734   4.232
  957W        W73250  35.974  44.281   1.309
  958W        W73251   6.324  38.872   2.805
  959W        W73252  39.341   7.227  13.807
  960W        W73253  11.774  24.697   4.218
  961W        W73254  15.757  42.501   1.376
  962W        W73255   6.794  25.629   1.262
  963W        W73256  30.978  12.350   2.363
  964W        W73257  20.182   0.463  14.920
  965W        W73258  34.539  12.640   0.398
  966W        W73259  32.018   1.789  10.548
  967W        W73260   0.457  25.983   3.378
  968W        W73261  29.052  30.434  12.416
  969W        W73262   4.278  33.498  10.593
  970W        W73263  44.786  28.469  14.847
  971W        W73264  16.136  26.151  14.821
  972W        W73265  12.658  35.396  11.986
  973W        W73266  23.996  20.573   1.258
  974W        W73267   7.182   0.877   0.376
  975W        W73268  38.069  33.592   3.185
  976W        W73269  36.991  36.035   4.119
  977W        W73270   0.796  22.110   4.778
  978W        W73271  13.779   9.229  10.894
  979W        W73272  38.855  38.004  13.384
  980W        W73273   1.831   1.393  13.364
  981W        W73274  17.295  23.010  14.404
  982W        W73275   0.251  18.764   0.314
  983W        W73276  13.727  40.478  10.613
  984W        W73277  38.040  42.993  10.080
  985W        W73278  18.144  22.596  12.923
  986W        W73279  31.414  40.487  14.790
  987W        W73280  33.918  41.989   1.295
  988W        W73281  28.679   6.392  14.837
  989W        W73282  34.526  15.279   4.635
  990W        W73283  25.645  41.409  13.002
  991W        W73284  15.669  36.579  14.292
  992W        W73285  30.952  11.826  11.595
  993W        W73286  13.693   4.443   2.765
  994W        W73287   2.372  10.329  14.001
  995W        W73288  23.183   2.723   3.367
  996W        W73289  13.191   3.364  13.989
  997W        W73290  24.700  17.685   4.307
  998W        W73291   4.874  20.172   5.264
  999W        W73292   7.888  24.149   0.855
 1000W        W73293   0.748   0.285  13.964
 1001W        W73294  44.355  33.417   4.237
 1002W        W73295  23.138  28.460   4.313
 1003W        W73296  16.290  43.866   3.805
 1004W        W73297  36.070   5.778   0.787
 1005W        W73298  40.425  24.490  14.933
 1006W        W73299   6.764   6.828  11.062
 1007W        W73300  32.562  31.456   0.333
 1008W        W73301  16.717   5.245  11.008
 1009W        W73302  15.704   0.755   0.360
 1010W        W73303  44.415  37.030  12.458
 1011W        W73304  44.908  16.134   2.379
 1012W        W73305  39.342   8.295  13.375
 1013W        W73306  25.029  26.532   3.158
 1014W        W73307  24.594   7.356   3.374
 1015W        W73308  42.491   1.477  11.935
 1016W        W73309  17.788  42.307   4.317
 1017W        W73310  19.685  15.210   1.354
 1018W        W73311  32.010  31.051  13.917
 1019W        W73312  38.049  41.969   1.300
 1020W        W73313  23.636  32.970  13.942
 1021W        W73314  43.814  27.058   2.255
 1022W        W73315  27.077  36.887  12.561
 1023W        W73316   3.739  27.568  14.773
 1024W        W73317  17.305   0.477   0.732
 1025W        W73318  32.595  29.995  13.962
 1026W        W73319  36.400  31.044  10.405
 1027W        W73320  43.499   5.931   3.757
 1028W        W73321  42.396  38.873  11.039
 1029W        W73322  23.193  10.359   4.133
 1030W        W73323  14.779   4.768  13.518
 1031W        W73324  28.152  35.059   3.870
 1032W        W73325   0.976  33.439   4.659
 1033W        W73326  28.186  17.581   2.285
 1034W        W73327  31.959  10.733   0.791
 1035W        W73328  33.130  12.616   3.369
 1036W        W73329  14.277  25.015   9.943
 1037W        W73330  40.901  32.527   3.209
 1038W        W73331  29.621   3.829  11.873
 1039W        W73332  27.596  12.191   0.274
 1040W        W73333   0.949  38.035  13.455
 1041W        W73334  21.160  29.570  11.856
 1042W        W73335  38.983  29.058  12.070
 1043W        W73336   4.210  27.035  11.973
 1044W        W73337  35.069  19.636  13.379
 1045W        W73338   2.411  24.039  12.484
 1046W        W73339  30.511  14.630  13.941
 1047W        W73340  19.637  14.721  10.953
 1048W        W73341  31.586   2.865   4.744
 1049W        W73342  33.625   5.387   4.654
 1050W        W73343   6.779  15.270  12.076
 1051W        W73344  42.819   6.824   2.350
 1052W        W73345  12.698  34.516  14.294
 1053W        W73346   8.341  13.294   1.767
 1054W        W73347  43.394   8.221   2.853
 1055W        W73348  10.290  11.349  10.096
 1056W        W73349  22.078  36.039  12.519
 1057W        W73350  34.539   9.863  13.494
 1058W        W73351  24.156  19.206  10.545
 1059W        W73352  35.911  32.526   1.227
 1060W        W73353  17.612  21.102  12.456
 1061W        W73354  18.588  37.977  13.441
 1062W        W73355  18.789  15.635   4.262
 1063W        W73356  20.531  15.089   1.213
 1064W        W73357   9.250   5.761   3.717
 1065W        W73358  29.089  36.396  11.064
 1066W        W73359   9.888  31.989  10.617
 1067W        W73360  14.237  20.605  12.370
 1068W        W73361  26.022  20.226   3.845
 1069W        W73362  17.132  33.902   1.290
 1070W        W73363  14.800  15.656  13.903
 1071W        W73364  11.153  32.030   2.875
 1072W        W73365  26.502  25.546  12.366
 1073W        W73366  27.168  18.057  14.337
 1074W        W73367  12.738  36.042  10.433
 1075W        W73368  42.804  35.365  10.636
 1076W        W73369  28.556  23.068   2.754
 1077W        W73370  21.652  38.950  14.472
 1078W        W73371  25.571   1.351   2.333
 1079W        W73372  34.968  27.138  13.343
 1080W        W73373  27.992  24.219   2.221
 1081W        W73374  24.122   3.716  10.889
 1082W        W73375  13.294  32.135  12.562
 1083W        W73376   3.856  33.395   2.355
 1084W        W73377  26.062  29.652   0.730
 1085W        W73378  43.378  34.081  10.469
 1086W        W73379  41.488  20.595  10.505
 1087W        W73380  36.853  31.914   3.858
 1088W        W73381   6.687  18.589   1.347
 1089W        W73382  13.786  31.458  10.946
 1090W        W73383  26.584  31.493   1.922
 1091W        W73384  40.833  29.971   3.191
 1092W        W73385  18.762  32.429   0.395
 1093W        W73386   5.339  22.067   1.258
 1094W        W73387   7.829   9.207  13.467
 1095W        W73388  14.233   2.393   3.303
 1096W        W73389  33.004  17.168   4.354
 1097W        W73390   4.872  41.958   4.706
 1098W        W73391  26.683   7.777   5.175
 1099W        W73392   3.760  42.941   0.786
 1100W        W73393   6.225  27.046   2.803
 1101W        W73394   5.204  39.361  10.619
 1102W        W73395   6.779  41.299  10.484
 1103W        W73396  39.909  27.073   0.920
 1104W        W73397  36.371  41.499   4.612
 1105W        W73398  37.024  42.422   0.310
 1106W        W73399  42.014   8.368   1.446
 1107W        W73400   5.354   8.371  12.959
 1108W        W73401  15.633   8.802  13.521
 1109W        W73402  44.310  31.595   2.250
 1110W        W73403  26.111  12.291   3.217
 1111W        W73404  13.273   2.924   4.687
 1112W        W73405  25.148  29.456   3.644
 1113W        W73406   1.781  43.929  12.522
 1114W        W73407  39.325  14.110  13.344
 1115W        W73408  21.250  39.888   3.199
 1116W        W73409  27.072  20.645  12.345
 1117W        W73410   2.903   4.710  10.597
 1118W        W73411  33.524  29.558   4.663
 1119W        W73412   2.298  23.160   0.802
 1120W        W73413  15.150  32.470   3.768
 1121W        W73414   5.242  27.139  12.982
 1122W        W73415  34.015  19.571  11.501
 1123W        W73416  12.673  22.068   1.856
 1124W        W73417  17.143  28.959  12.953
 1125W        W73418  17.202  36.391  12.838
 1126W        W73419  13.208   0.318   3.259
 1127W        W73420  25.661   9.728  14.288
 1128W        W73421  21.125  37.857  10.625
 1129W        W73422  29.661   8.295   4.739
 1130W        W73423  18.779  30.986  12.057
 1131W        W73424   5.902  13.846   0.375
 1132W        W73425   4.206   4.412  11.114
 1133W        W73426  13.816  37.507   0.302
 1134W        W73427  29.996  17.657   2.876
 1135W        W73428  33.969   6.805  11.548
 1136W        W73429  22.672   1.734  10.134
 1137W        W73430  15.799  37.559   1.722
 1138W        W73431   5.376  38.011   3.735
 1139W        W73432  31.480  12.142   2.687
 1140W        W73433  11.205  16.725   1.429
 1141W        W73434  21.123  19.620  14.963
 1142W        W73435   3.869  17.679  10.420
 1143W        W73436  30.414  14.631  12.463
 1144W        W73437  21.660  39.831   5.280
 1145W        W73438  33.036  35.383   4.834
 1146W        W73439   7.797  34.946  11.509
 1147W        W73440  21.660  23.668   4.337
 1148W        W73441  21.599  20.274   3.756
 1149W        W73442   2.740   7.670  10.527
 1150W        W73443  24.995  42.931   2.396
 1151W        W73444   2.913   2.944   3.167
 1152W        W73445  39.325  20.162  12.399
 1153W        W73446  25.215  41.968  14.000
 1154W        W73447  17.263  23.653  10.463
 1155W        W73448  27.040  38.943   3.652
 1156W        W73449  16.731  34.923  13.948
 1157W        W73450  23.236  29.666   2.184
 1158W        W73451  21.639   3.852   3.365
 1159W        W73452   8.894   7.793  13.371
 1160W        W73453  14.788  12.833   3.670
 1161W        W73454  44.445   8.777   0.842
 1162W        W73455   0.809  16.271  13.340
 1163W        W73456  11.141  19.651   0.883
 1164W        W73457  37.525  40.486   1.224
 1165W        W73458  30.476  27.997  11.928
 1166W        W73459  39.432  18.690   1.439
 1167W        W73460  17.755  35.417  11.588
 1168W        W73461  15.631  35.427   4.187
 1169W        W73462  34.965  16.568   4.679
 1170W        W73463  35.564   0.371   2.707
 1171W        W73464  36.382  34.408   5.270
 1172W        W73465  17.578   0.269  14.280
 1173W        W73466  10.161  23.633  13.323
 1174W        W73467  17.205  18.672   1.919
 1175W        W73468  14.103  36.519  14.830
 1176W        W73469  42.932  37.489  12.881
 1177W        W73470  26.578  41.464  11.085
 1178W        W73471   5.310  33.876  13.520
 1179W        W73472  42.423   5.821  12.994
 1180W        W73473  32.430  34.573  14.451
 1181W        W73474  11.312  37.442   1.867
 1182W        W73475  32.908   4.349   4.778
 1183W        W73476  42.323  22.109  12.979
 1184W        W73477  31.932  36.933  14.295
 1185W        W73478  31.120  12.803  12.519
 1186W        W73479  25.471  38.864  13.843
 1187W        W73480  19.052  23.104   4.182
 1188W        W73481  30.907  41.327   2.692
 1189W        W73482  40.958   1.794   0.909
 1190W        W73483  40.365   0.441   1.933
 1191W        W73484  20.735  24.211  12.864
 1192W        W73485  29.632  39.321  12.905
 1193W        W73486  33.494  38.333  12.413
 1194W        W73487  40.437  16.578  13.349
 1195W        W73488  40.478   6.676   2.883
 1196W        W73489   0.779  40.839  13.948
 1197W        W73490   5.812   2.333   4.634
 1198W        W73491  43.880  39.885  11.952
 1199W        W73492  31.600  42.497   4.762
 1200W        W73493  16.137  10.249  13.476
 1201W        W73494   0.920  21.680  13.445
 1202W        W73495  35.036   2.233  11.987
 1203W        W73496  18.786  39.880   4.122
 1204W        W73497  27.613  25.710  12.829
 1205W        W73498   3.944  23.707   4.170
 1206W        W73499  24.050  17.593   0.309
 1207W        W73500  26.029  33.399  13.994
 1208W        W73501   9.889   9.389  14.392
 1209W        W73502  24.656  34.121   1.772
 1210W        W73503   6.696  40.030  10.952
 1211W        W73504  40.489  37.513  11.075
 1212W        W73505  40.806  28.606   1.930
 1213W        W73506   4.938  13.744  12.966
 1214W        W73507  44.402  22.608  10.431
 1215W        W73508  13.217  44.266  11.417
 1216W        W73509  39.357   0.369  14.428
 1217W        W73510   0.413  44.458  12.510
 1218W        W73511   8.390   1.932   3.379
 1219W        W73512  11.367  11.144   1.448
 1220W        W73513   1.955   7.763   4.216
 1221W        W73514   3.334   6.780  13.996
 1222W        W73515  11.686  31.933  14.373
 1223W        W73516  19.097  37.528  13.041
 1224W        W73517  17.121  38.498  11.013
 1225W        W73518  26.181  26.174  10.570
 1226W        W73519  31.545  29.107   3.721
 1227W        W73520   3.416  26.107  14.857
 1228W        W73521  30.909  25.167  13.316
 1229W        W73522  12.611  43.388  13.836
 1230W        W73523  23.664  42.369   1.337
 1231W        W73524  12.755   2.468   2.277
 1232W        W73525  10.807  16.158   2.799
 1233W        W73526  10.870  29.625   3.662
 1234W        W73527   6.843  24.514  11.505
 1235W        W73528   7.869  19.576  10.937
 1236W        W73529  17.103   3.408  10.523
 1237W        W73530  36.388  40.375   3.330
 1238W        W73531  29.925  31.942  13.809
 1239W        W73532  29.088  27.142  13.377
 1240W        W73533   5.413   2.940  11.018
 1241W        W73534  42.467   3.413   3.630
 1242W        W73535  23.106  39.976   4.236
 1243W        W73536  28.553  16.790  13.823
 1244W        W73537  29.510  18.154   1.285
 1245W        W73538  39.478  34.498   4.764
 1246W        W73539  29.157   2.355   3.667
 1247W        W73540  24.997  21.184   3.291
 1248W        W73541  14.720  43.990   4.205
 1249W        W73542  22.247  28.994  13.959
 1250W        W73543  40.042  18.112  11.992
 1251W        W73544  28.099  43.953  12.409
 1252W        W73545  43.373   9.730   4.734
 1253W        W73546   7.678  35.402  12.923
 1254W        W73547  21.185  21.668   4.802
 1255W        W73548  36.428  16.273   1.405
 1256W        W73549   8.249  44.959   4.794
 1257W        W73550   3.816  27.587   4.602
 1258W        W73551   4.787  17.295  11.006
 1259W        W73552   4.886  44.414  12.579
 1260W        W73553  11.760  22.576  10.547
 1261W        W73554   5.380  14.222  13.891
 1262W        W73555   5.732  10.381  14.812
 1263W        W73556  28.648   0.962   3.296
 1264W        W73557   8.364  35.075  13.913
 1265W        W73558   7.331  12.659  10.890
 1266W        W73559   8.258  44.359  10.594
 1267W        W73560   6.291  42.015   0.786
 1268W        W73561  20.059  15.657  14.850
 1269W        W73562  31.949  17.596   3.706
 1270W        W73563   5.381  38.515   1.928
 1271W        W73564  37.467  36.905   2.217
 1272W        W73565  11.178  14.788   4.734
 1273W        W73566  16.734  22.631   0.386
 1274W        W73567  33.044  34.868  10.548
 1275W        W73568  10.821  21.211   1.776
 1276W        W73569  39.482  32.632   1.433
 1277W        W73570  17.242   1.382   2.357
 1278W        W73571  12.761  42.297  14.429
 1279W        W73572  41.980  30.647   3.711
 1280W        W73573  39.000  22.595  14.011
 1281W        W73574  16.702  44.764  11.120
 1282W        W73575  30.414  44.367  10.077
 1283W        W73576  23.124  20.611   1.819
 1284W        W73577  44.989  22.117   2.223
 1285W        W73578   4.414  16.217   0.353
 1286W        W73579  24.686  39.504  10.553
 1287W        W73580  12.150  10.747  11.518
 1288W        W73581  36.466  16.090   1.774
 1289W        W73582  35.482  31.991   4.347
 1290W        W73583  10.799  26.523  12.974
 1291W        W73584  26.189   4.730  14.438
 1292W        W73585  17.582  40.980   2.387
 1293W        W73586  41.295  32.531   0.805
 1294W        W73587  18.698   2.883   2.687
 1295W        W73588   4.368   4.303  13.045
 1296W        W73589  10.231   8.718   1.694
 1297W        W73590  10.229  42.910  13.816
 1298W        W73591  16.732  23.169   1.704
 1299W        W73592  13.781   7.677   3.664
 1300W        W73593  17.664   2.869  14.401
 1301W        W73594  17.559  30.631  10.404
 1302W        W73595  28.591  30.979  13.435
 1303W        W73596  25.165  35.490  14.344
 1304W        W73597  29.440  16.803   4.700
 1305W        W73598   4.204  36.889  14.815
 1306W        W73599  28.932   3.405  12.880
 1307W        W73600  22.612  26.654   1.438
 1308W        W73601  16.732   5.283  11.888
 1309W        W73602   0.477  29.624  14.800
 1310W        W73603  37.542  12.135  12.570
 1311W        W73604  27.091   5.331  14.814
 1312W        W73605   2.870  14.225   3.660
 1313W        W73606  27.946  25.215   1.761
 1314W        W73607  43.337  39.984  13.370
 1315W        W73608  31.566  32.929  11.980
 1316W        W73609  42.289  37.901  13.966
 1317W        W73610  23.499  21.173  13.502
 1318W        W73611  20.727  24.576   4.781
 1319W        W73612  21.710  44.972  14.370
 1320W        W73613  12.784  15.729   0.265
 1321W        W73614   3.359  15.815   3.846
 1322W        W73615  39.006  11.373  11.975
 1323W        W73616  34.421   8.332  10.916
 1324W        W73617  23.668  41.452   2.866
 1325W        W73618   7.286  28.587  13.489
 1326W        W73619  34.079  10.854   3.176
 1327W        W73620  23.105  30.939   1.350
 1328W        W73621  19.081  41.898  13.438
 1329W        W73622   2.790  14.122   3.356
 1330W        W73623  41.518  27.096   3.735
 1331W        W73624  25.631   0.967  10.158
 1332W        W73625  41.413   6.789   2.775
 1333W        W73626  16.258  37.533  13.852
 1334W        W73627  34.559  29.492  12.841
 1335W        W73628  44.934  37.889  13.531
 1336W        W73629   9.374   7.740   1.322
 1337W        W73630  13.795  26.172   2.205
 1338W        W73631  37.065  14.716   4.339
 1339W        W73632  36.075  39.360  14.396
 1340W        W73633  40.393  14.638   2.815
 1341W        W73634  24.977  38.469   1.441
 1342W        W73635  35.597  21.577   0.351
 1343W        W73636   5.379   8.870   3.331
 1344W        W73637   1.373  35.913   3.323
 1345W        W73638  34.929  32.085   4.775
 1346W        W73639  20.156  12.195  13.833
 1347W        W73640  19.190  26.573   4.730
 1348W        W73641  38.828   0.461  14.477
 1349W        W73642   2.326  24.096   0.881
 1350W        W73643  31.639  22.065  10.441
 1351W        W73644  17.104  13.146  11.396
 1352W        W73645  36.894  26.578   3.271
 1353W        W73646  21.154  11.195   2.317
 1354W        W73647  35.478  43.836   0.850
 1355W        W73648  21.091  29.631  11.114
 1356W        W73649  12.825  28.942  13.506
 1357W        W73650  40.866  25.658   0.274
 1358W        W73651  35.107  23.643   3.708
 1359W        W73652  24.585  31.989  14.795
 1360W        W73653   3.318  28.172   3.835
 1361W        W73654   0.373  13.649  11.898
 1362W        W73655  24.574  14.808   1.344
 1363W        W73656   0.960  37.453   2.401
 1364W        W73657  33.424  14.596  10.501
 1365W        W73658  25.690  31.129  13.820
 1366W        W73659  36.025  39.395  11.897
 1367W        W73660   5.211  34.914  12.401
 1368W        W73661   9.373  41.024  13.913
 1369W        W73662   2.757  18.113   0.434
 1370W        W73663   0.376  24.605   0.472
 1371W        W73664  18.749   1.246   2.223
 1372W        W73665  36.055  39.849   2.754
 1373W        W73666   8.197  19.707  14.356
 1374W        W73667  31.988  32.980   1.932
 1375W        W73668  34.386  33.473  13.509
 1376W        W73669  32.523  11.248   2.729
 1377W        W73670  23.551  23.193   1.798
 1378W        W73671  18.708  32.555   5.273
 1379W        W73672   1.249  22.596  14.396
 1380W        W73673  16.101   4.711  11.935
 1381W        W73674  11.324  33.001  11.952
 1382W        W73675  37.890  33.985  12.889
 1383W        W73676  25.083   3.720  11.962
 1384W        W73677  27.629   7.306  10.514
 1385W        W73678   4.333  16.128  14.820
 1386W        W73679   9.664  32.086  14.443
 1387W        W73680   3.406  39.870  11.484
 1388W        W73681  11.134  29.948   4.215
 1389W        W73682  20.715  42.997   2.210
 1390W        W73683  28.138  39.958  12.032
 1391W        W73684  26.525  42.944   3.736
 1392W        W73685   4.905   3.412  10.494
 1393W        W73686  43.872  11.157  12.448
 1394W        W73687  12.283  14.319  14.443
 1395W        W73688  19.163  30.439  14.786
 1396W        W73689  38.452  25.197  11.458
 1397W        W73690   8.666  28.010   2.850
 1398W        W73691  41.452  44.821  14.412
 1399W        W73692  31.501  13.844   1.862
 1400W        W73693  36.966  30.132   3.804
 1401W        W73694  12.171  21.141  14.501
 1402W        W73695  38.053   2.339   1.735
 1403W        W73696  31.451  36.011   1.352
 1404W        W73697  30.638   0.957   4.624
 1405W        W73698  37.389  14.663  14.285
 1406W        W73699  40.458  29.166  10.471
 1407W        W73700   8.271  16.224   3.699
 1408W        W73701  29.062  10.732  11.981
 1409W        W73702  43.861  15.161  11.110
 1410W        W73703  20.702  24.066   1.394
 1411W        W73704  19.239   6.758  14.277
 1412W        W73705  44.954   2.801   4.697
 1413W        W73706   2.401   2.462   4.122
 1414W        W73707  10.779   5.737   3.772
 1415W        W73708  30.979  23.524  11.455
 1416W        W73709  12.693  21.102  14.979
 1417W        W73710  26.670  23.701  13.350
 1418W        W73711  32.926   6.291  11.858
 1419W        W73712  18.134   6.194  14.285
 1420W        W73713  34.864  10.805   1.214
 1421W        W73714  18.102  37.068  11.584
 1422W        W73715  14.696  11.771  10.908
 1423W        W73716   1.966  38.922   3.355
 1424W        W73717  10.804  28.026   4.147
 1425W        W73718  13.783  19.733   1.431
 1426W        W73719  11.347  27.676  11.923
 1427W        W73720  25.707  28.930  13.343
 1428W        W73721   2.919  20.078   4.634
 1429W        W73722  31.633   5.704  13.526
 1430W        W73723  25.517  21.660   1.730
 1431W        W73724  19.746  11.814   0.939
 1432W        W73725  28.048  23.677  13.808
 1433W        W73726  28.670  14.257  11.372
 1434W        W73727   2.301   9.698   0.802
 1435W        W73728  35.001  11.856  12.085
 1436W        W73729  31.992   1.414   1.851
 1437W        W73730  27.941  12.193   2.877
 1438W        W73731  25.647  18.704  13.866
 1439W        W73732  11.355  39.375  12.560
 1440W        W73733  42.352  27.553  11.093
 1441W        W73734   2.789   2.242  14.764
 1442W        W73735  37.570   9.780  13.953
 1443W        W73736  26.202  41.305   2.406
 1444W        W73737  14.185  44.354  12.974
 1445W        W73738  42.908  19.727   1.833
 1446W        W73739  22.705  39.486   3.681
 1447W        W73740  33.980   8.814  12.926
 1448W        W73741   1.276  37.083  13.325
 1449W        W73742  43.880  17.175   3.869
 1450W        W73743  41.003   8.745  11.050
 1451W        W73744  20.266  26.518   4.117
 1452W        W73745   1.838   3.461   0.908
 1453W        W73746  43.766   0.779   1.409
 1454W        W73747  43.929  32.950  13.861
 1455W        W73748  30.931  16.227  10.893
 1456W        W73749  19.260  27.962   3.234
 1457W        W73750  35.964  18.787   3.319
 1458W        W73751   3.456  20.717   4.813
 1459W        W73752   2.446  22.219  10.015
 1460W        W73753  14.611   2.853   2.712
 1461W        W73754  21.043   9.381  10.545
 1462W        W73755  33.497  12.261  11.884
 1463W        W73756  19.116  15.609  12.517
 1464W        W73757   1.466  15.161  13.892
 1465W        W73758  25.069  34.426   3.668
 1466W        W73759  12.681  33.463  12.495
 1467W        W73760  20.090  42.847   3.820
 1468W        W73761  44.889  14.660  12.547
 1469W        W73762   4.358  40.848  12.886
 1470W        W73763  20.741  24.124  13.512
 1471W        W73764  23.716  30.941   4.218
 1472W        W73765   3.448  10.367   1.901
 1473W        W73766   4.274   0.825   2.895
 1474W        W73767  41.908   9.875  11.431
 1475W        W73768  30.016  44.431   2.679
 1476W        W73769  13.680  43.278   0.452
 1477W        W73770  33.100  41.354   2.336
 1478W        W73771  19.702  44.987   2.860
 1479W        W73772  35.574   8.789   3.162
 1480W        W73773  41.533  36.001   1.450
 1481W        W73774  25.578   6.304   0.891
 1482W        W73775  30.961   9.877   5.310
 1483W        W73776  26.649  16.074  12.413
 1484W        W73777  41.505   7.399   1.278
 1485W        W73778  43.890  36.560  14.514
 1486W        W73779  30.964  13.640  11.013
 1487W        W73780  11.685  30.143   1.385
 1488W        W73781  25.138  25.161  11.917
 1489W        W73782  44.356  31.978  12.949
 1490W        W73783   5.304  18.548   4.313
 1491W        W73784  32.032  31.435  10.443
 1492W        W73785  40.493  30.105   2.741
 1493W        W73786  18.678  20.032   2.288
 1494W        W73787  12.336  36.993   0.391
 1495W        W73788  41.986   6.427  12.355
 1496W        W73789  26.680  37.492  13.900
 1497W        W73790  35.018   2.958  13.361
 1498W        W73791  27.645  28.670   0.928
 1499W        W73792   9.698  18.198  12.845
 1500W        W73793  34.465  14.782   2.191
 1501W        W73794  23.006  27.451  12.028
 1502W        W73795  27.451  12.692   0.440
 1503W        W73796  38.998  23.079   4.215
 1504W        W73797  11.336  10.662   0.884
 1505W        W73798   8.213   9.234   1.284
 1506W        W73799  33.481  17.165  14.459
 1507W        W73800  26.112  31.557   0.747
 1508W        W73801  21.203  31.903  11.536
 1509W        W73802  39.517  34.532  10.904
 1510W        W73803   5.429   3.936  11.554
 1511W        W73804  38.043  42.349   0.425
 1512W        W73805  35.970  40.511   5.231
 1513W        W73806  11.709  22.512  10.005
 1514W        W73807  32.092  41.938   5.212
 1515W        W73808   2.810   6.260   2.877
 1516W        W73809  13.684  39.361  13.956
 1517W        W73810  36.356  36.920   4.315
 1518W        W73811   2.816  12.787   3.793
 1519W        W73812  34.372  42.472  14.314
 1520W        W73813  15.203   3.824   3.790
 1521W        W73814  40.488  27.549  13.880
 1522W        W73815  36.983  21.699  12.070
 1523W        W73816   5.200   0.821  12.352
 1524W        W73817  35.455  19.703  11.009
 1525W        W73818  37.352  43.837  12.881
 1526W        W73819  33.110  29.979  13.354
 1527W        W73820  20.570   6.855  11.424
 1528W        W73821  43.501  37.352  13.944
 1529W        W73822  30.529  11.169   4.745
 1530W        W73823  29.658  43.793  11.033
 1531W        W73824  29.033  18.790  14.338
 1532W        W73825  30.488  12.783  13.881
 1533W        W73826  24.119   9.171   4.653
 1534W        W73827  24.164   6.310   3.831
 1535W        W73828  31.129   5.200   1.717
 1536W        W73829  23.129  23.180   3.229
 1537W        W73830  43.436  34.002   9.500
 1538W        W73831   1.786  30.584   1.387
 1539W        W73832  40.821  13.130  13.929
 1540W        W73833  39.024  27.985   1.236
 1541W        W73834  10.782  32.504  11.961
 1542W        W73835  41.532  20.098  12.440
 1543W        W73836  36.553  26.130  12.904
 1544W        W73837  25.119  37.406   2.362
 1545W        W73838  41.936  17.751   2.393
 1546W        W73839  36.978  33.041  14.970
 1547W        W73840  14.626  43.862  12.030
 1548W        W73841   4.229  19.063  11.959
 1549W        W73842  24.500  41.439  11.429
 1550W        W73843   5.226  34.993   4.792
 1551W        W73844  37.364  39.832   1.253
 1552W        W73845  38.376  28.543   1.854
 1553W        W73846   3.716   5.438  14.420
 1554W        W73847  19.580  32.568   0.785
 1555W        W73848  32.137  38.568   4.837
 1556W        W73849  21.579  34.426   1.339
 1557W        W73850  11.179  20.732   0.960
 1558W        W73851  38.940   2.364   3.737
 1559W        W73852   4.319  18.143  13.387
 1560W        W73853  27.971  22.657   0.737
 1561W        W73854  21.683  41.978  12.826
 1562W        W73855  26.138  32.505  10.920
 1563W        W73856  32.521   6.360  10.603
 1564W        W73857   5.711  25.150   0.860
 1565W        W73858  28.070  43.279  13.808
 1566W        W73859  43.372  17.739  12.824
 1567W        W73860  28.999  17.560   0.467
 1568W        W73861   3.839  25.635  11.518
 1569W        W73862   2.744  21.134  13.480
 1570W        W73863   7.676  29.614  10.413
 1571W        W73864  40.314  44.399  14.906
 1572W        W73865  40.022  14.682  12.060
 1573W        W73866   9.758  35.950  13.795
 1574W        W73867  31.610  31.576  14.938
 1575W        W73868   7.395  41.453  11.950
 1576W        W73869  32.594  14.761   4.245
 1577W        W73870   9.733  18.589   1.373
 1578W        W73871   7.203  41.973  14.008
 1579W        W73872  44.923  34.991  12.030
 1580W        W73873  16.155  23.145   3.809
 1581W        W73874  40.497  35.905  12.959
 1582W        W73875  13.778  43.983  13.832
 1583W        W73876  19.049  35.866   4.298
 1584W        W73877  37.401  16.122   4.643
 1585W        W73878  42.467  29.977  11.979
 1586W        W73879  35.030  13.243   4.113
 1587W        W73880   4.732  26.069  12.898
 1588W        W73881   6.787  28.954   1.278
 1589W        W73882  30.466  28.677  12.891
 1590W        W73883  25.690   3.431  11.012
 1591W        W73884  34.581  17.607  10.495
 1592W        W73885   3.901  33.059  11.452
 1593W        W73886   7.752  36.424  10.073
 1594W        W73887   8.798  32.561  11.524
 1595W        W73888  30.542  18.603   3.294
 1596W        W73889  39.337  38.998   2.848
 1597W        W73890  44.007  12.675  14.405
 1598W        W73891  43.004  37.392   1.737
 1599W        W73892  22.229  41.895  11.384
 1600W        W73893   9.796  15.229   1.800
 1601W        W73894  26.004  26.562  14.984
 1602W        W73895  44.418  25.038  14.846
 1603W        W73896  13.834   2.862  13.049
 1604W        W73897  29.036  13.741   4.333
 1605W        W73898  16.626  27.940  12.353
 1606W        W73899  32.575   8.699  10.971
 1607W        W73900   9.868  23.191   4.264
 1608W        W73901  17.638  25.602  10.450
 1609W        W73902   7.713  25.977   0.473
 1610W        W73903  17.138   3.759   0.817
 1611W        W73904  29.161  18.737  11.014
 1612W        W73905   0.266   4.765   1.721
 1613W        W73906  33.948   0.424   0.459
 1614W        W73907  14.115  27.122  14.906
 1615W        W73908  36.092   8.832   1.317
 1616W        W73909  24.598  20.763   1.878
 1617W        W73910   9.852   1.750   0.798
 1618W        W73911  33.519  17.615  10.972
 1619W        W73912   2.936  40.867  10.489
 1620W        W73913  42.935   7.673  14.492
 1621W        W73914  36.857  15.814  12.846
 1622W        W73915  17.181  18.182  10.644
 1623W        W73916  40.930   2.270  12.981
 1624W        W73917  27.508  38.957   1.812
 1625W        W73918   2.311   8.661  14.399
 1626W        W73919   9.840   3.828   3.253
 1627W        W73920  23.704  32.452   4.114
 1628W        W73921  12.209   2.788  14.950
 1629W        W73922  19.577  23.658   9.666
 1630W        W73923  33.393  21.718   0.458
 1631W        W73924  41.363  21.131  11.512
 1632W        W73925  25.511  14.676   1.358
 1633W        W73926  34.598   6.281   0.823
 1634W        W73927  12.802  15.085   4.216
 1635W        W73928  39.951  12.611   0.397
 1636W        W73929  36.037  31.032   2.361
 1637W        W73930   0.792  23.681   0.420
 1638W        W73931  16.256  39.037   4.670
 1639W        W73932  44.289   0.896   5.260
 1640W        W73933   7.402  35.054   1.767
 1641W        W73934  30.619  43.393   0.457
 1642W        W73935  25.143  44.919  12.513
 1643W        W73936  20.185  24.523   4.284
 1644W        W73937  29.120  31.648   1.312
 1645W        W73938  27.020  21.560   4.220
 1646W        W73939  43.011  40.544   5.134
 1647W        W73940  43.771   0.457  12.838
 1648W        W73941  44.357  38.947   4.603
 1649W        W73942  10.164   7.665  10.543
 1650W        W73943  14.620  26.588  13.013
 1651W        W73944  38.056  15.279   0.457
 1652W        W73945  23.627  24.220   0.891
 1653W        W73946   3.784  11.276  10.521
 1654W        W73947  37.025   6.336  13.488
 1655W        W73948   7.826   4.803   3.207
 1656W        W73949   6.202  23.603  11.443
 1657W        W73950  15.610  15.731   2.308
 1658W        W73951  41.883  20.587  13.374
 1659W        W73952  22.622  28.587  13.824
 1660W        W73953  33.097   6.283   3.308
 1661W        W73954  37.087   3.399   1.778
 1662W        W73955  29.654   5.317  14.885
 1663W        W73956  38.512  21.580  12.424
 1664W        W73957   4.808  32.463  14.351
 1665W        W73958   8.771  30.421   3.386
 1666W        W73959  34.953  21.679  13.458
 1667W        W73960  35.941  16.711   2.860
 1668W        W73961   9.175  38.469  10.976
 1669W        W73962  15.803  26.519   1.356
 1670W        W73963  25.984  14.297   3.852
 1671W        W73964  42.778  19.252  12.408
 1672W        W73965  21.676   5.300   4.664
 1673W        W73966  16.113   9.251   1.829
 1674W        W73967  22.720  10.225   2.699
 1675W        W73968   8.403   3.768   4.838
 1676W        W73969  34.083   4.279   1.322
 1677W        W73970  18.068  23.549  14.870
 1678W        W73971  33.528   5.274  12.488
 1679W        W73972  44.354  23.095   3.843
 1680W        W73973   7.297  33.003   3.693
 1681W        W73974  37.900  34.992   4.265
 1682W        W73975  22.720  12.710  14.835
 1683W        W73976  13.131   2.926  12.946
 1684W        W73977  14.664  39.369  11.089
 1685W        W73978  33.459  12.166  11.093
 1686W        W73979  18.791  11.292  13.547
 1687W        W73980   0.286  19.596  12.543
 1688W        W73981   3.369   8.800   2.685
 1689W        W73982  38.331  14.784   2.795
 1690W        W73983  38.901  16.253   1.894
 1691W        W73984  23.579  17.115   1.270
 1692W        W73985  12.299  24.202   0.766
 1693W        W73986  34.503  19.279  11.877
 1694W        W73987   7.737  13.222   0.280
 1695W        W73988  38.459  38.042  14.911
 1696W        W73989   7.760  40.804   2.297
 1697W        W73990  37.995  34.947  12.563
 1698W        W73991  34.511  35.067  11.044
 1699W        W73992  21.748  20.108  10.992
 1700W        W73993  24.709   2.247   0.467
 1701W        W73994   2.318  36.516   2.796
 1702W        W73995  38.927  23.715  11.459
 1703W        W73996  18.589  11.295  14.858
 1704W        W73997  23.497  22.573  12.504
 1705W        W73998  17.562   5.893   2.308
 1706W        W73999  19.549  25.687  12.532
 1707W        W74000  40.373   0.971  13.912
 1708W        W74001  21.533  22.738  12.898
 1709W        W74002  17.567  37.405  12.437
 1710W        W74003   5.888  12.774   0.932
 1711W        W74004  13.839  38.502  14.791
 1712W        W74005  43.022  24.038   3.310
 1713W        W74006  36.885  41.469  12.393
 1714W        W74007  14.285  25.560   4.713
 1715W        W74008  36.987  35.085   1.754
 1716W        W74009  34.035  16.675  13.510
 1717W        W74010  31.919  20.691  14.915
 1718W        W74011  15.262  34.011   3.812
 1719W        W74012   6.314  18.569   2.815
 1720W        W74013  19.086  31.992   3.829
 1721W        W74014  37.368  22.666  11.006
 1722W        W74015   2.332  39.959  14.918
 1723W        W74016  30.634   9.293   4.283
 1724W        W74017  36.568   9.368  12.458
 1725W        W74018  23.613  15.104   0.477
 1726W        W74019   3.229   1.862   2.185
 1727W        W74020   6.833  13.287   2.662
 1728W        W74021   3.367  12.652   3.775
 1729W        W74022  21.263  19.223   3.834
 1730W        W74023  34.513   8.878  13.506
 1731W        W74024  44.439   5.895   4.803
 1732W        W74025  19.575   8.201   3.677
 1733W        W74026   6.750  14.786  12.501
 1734W        W74027   2.292   9.673   3.740
 1735W        W74028   1.945  18.776   1.882
 1736W        W74029  33.912  20.595   3.364
 1737W        W74030  17.712  39.843  11.588
 1738W        W74031  44.273  13.236  13.481
 1739W        W74032  15.792  13.259   2.191
 1740W        W74033   4.875  38.009  13.888
 1741W        W74034  22.162  21.043  11.433
 1742W        W74035   8.753  30.599   0.470
 1743W        W74036  41.412   0.920   3.738
 1744W        W74037   6.881  27.486   2.822
 1745W        W74038  34.968  25.558  11.463
 1746W        W74039   2.928  38.508   3.736
 1747W        W74040  16.692  36.566  14.928
 1748W        W74041   7.326  28.056  12.858
 1749W        W74042  31.008  18.555  12.559
 1750W        W74043   9.695  15.313  14.428
 1751W        W74044  27.580  44.962   1.925
 1752W        W74045  42.008  23.042  13.999
 1753W        W74046  17.305  10.300  13.979
 1754W        W74047  33.904   4.793   0.795
 1755W        W74048  17.608   4.901   4.171
 1756W        W74049  15.600  19.698   1.878
 1757W        W74050  32.512   7.884   3.716
 1758W        W74051  26.608  23.155   3.662
 1759W        W74052   2.441   8.674   1.873
 1760W        W74053  35.383  18.546   0.263
 1761W        W74054  29.584   7.882   4.770
 1762W        W74055  18.553   9.298  11.086
 1763W        W74056  18.141  28.131  12.546
 1764W        W74057  29.568  11.233  11.581
 1765W        W74058  42.796  13.243  10.504
 1766W        W74059  20.573  16.731  11.002
 1767W        W74060  21.544   6.830  11.405
 1768W        W74061  15.221  34.559  12.390
 1769W        W74062  41.860  33.523  14.789
 1770W        W74063  29.164  31.526   4.339
 1771W        W74064  29.521  23.202   1.398
 1772W        W74065  12.804  18.621   0.783
 1773W        W74066  25.677  23.199  14.426
 1774W        W74067  31.526  27.588  13.812
 1775W        W74068  33.888   9.863  14.905
 1776W        W74069  18.784  25.166   1.816
 1777W        W74070  13.236  10.698   1.695
 1778W        W74071  25.501  31.581   3.860
 1779W        W74072  14.119  37.032   4.796
 1780W        W74073  38.077   6.395   2.291
 1781W        W74074  20.175   4.916   2.717
 1782W        W74075  40.971  15.750  11.572
 1783W        W74076  31.637  37.859  14.807
 1784W        W74077  29.549  32.100   0.328
 1785W        W74078  41.492  29.100   4.172
 1786W        W74079  15.218  33.393   0.784
 1787W        W74080  14.594  25.998  14.282
 1788W        W74081  44.987  17.187   1.443
 1789W        W74082   1.293   2.910   1.396
 1790W        W74083  35.028  23.040  10.518
 1791W        W74084  40.033  21.682   4.790
 1792W        W74085   9.822  33.937  10.551
 1793W        W74086   5.265  19.195  14.860
 1794W        W74087  39.345  42.972  10.615
 1795W        W74088  33.943  37.412   2.298
 1796W        W74089  20.681  38.832   4.809
 1797W        W74090  19.759  32.472  12.359
 1798W        W74091   6.867  26.123   4.603
 1799W        W74092  43.455  16.128   4.633
 1800W        W74093  16.225  34.556  11.593
 1801W        W74094  38.488  26.580  11.869
 1802W        W74095  12.316   0.753   0.922
 1803W        W74096  19.175  29.051  12.463
 1804W        W74097  39.408  28.465  12.091
 1805W        W74098  42.825  23.129   2.736
 1806W        W74099  14.615  31.919  11.062
 1807W        W74100  13.274  18.094   0.360
 1808W        W74101  20.766   2.369  13.836
 1809W        W74102   8.301  20.758  10.472
 1810W        W74103  17.657  25.587   3.321
 1811W        W74104  35.375   6.869  10.605
 1812W        W74105  26.027  13.694   4.680
 1813W        W74106  43.811  44.830  12.554
 1814W        W74107  42.349  15.644   5.105
 1815W        W74108   1.324  27.642  13.328
 1816W        W74109  27.007  34.987   0.926
 1817W        W74110  21.752  19.606  14.023
 1818W        W74111  42.997  18.688   3.211
 1819W        W74112  13.680   1.950   9.588
 1820W        W74113   5.248  41.432  14.491
 1821W        W74114  25.484   9.355  13.958
 1822W        W74115  39.420   5.743   3.697
 1823W        W74116  30.652   3.333  12.891
 1824W        W74117  17.203  25.067   0.362
 1825W        W74118  41.809  12.632  14.277
 1826W        W74119  32.111  37.901  14.342
 1827W        W74120  14.613  23.137  11.973
 1828W        W74121  33.475   3.356  12.545
 1829W        W74122  38.406   1.255   4.178
 1830W        W74123  41.352  43.820   2.208
 1831W        W74124  24.558   3.457  13.484
 1832W        W74125   7.413   5.220  14.766
 1833W        W74126  18.132  15.299   2.798
 1834W        W74127   9.387  42.890   5.184
 1835W        W74128  31.406  35.361  11.586
 1836W        W74129  16.764  33.083  13.834
 1837W        W74130  30.577  40.850  12.474
 1838W        W74131  36.368  12.243   4.804
 1839W        W74132  12.731  28.041  13.058
 1840W        W74133  43.897  31.439  14.853
 1841W        W74134  16.588  18.241   3.205
 1842W        W74135  13.207   1.330   2.698
 1843W        W74136   6.791   4.853   0.307
 1844W        W74137  34.068  40.966  11.539
 1845W        W74138  29.065  40.994  12.574
 1846W        W74139  44.788  17.764   9.641
 1847W        W74140  17.245  29.570   2.856
 1848W        W74141  24.601  42.792   5.319
 1849W        W74142  20.548  44.500   3.808
 1850W        W74143  40.809  29.573  13.927
 1851W        W74144   5.200  30.547  12.559
 1852W        W74145  43.000  22.144  10.067
 1853W        W74146  22.044  44.495   1.820
 1854W        W74147  44.285  30.011   3.840
 1855W        W74148  19.206  30.014   0.759
 1856W        W74149  32.919   5.308   2.189
 1857W        W74150  44.342   0.854  10.449
 1858W        W74151   3.782  35.578  10.534
 1859W        W74152   7.791  38.958   0.379
 1860W        W74153  32.541  11.309  13.907
 1861W        W74154  39.904  39.964  14.883
 1862W        W74155  29.105   6.355  12.456
 1863W        W74156  25.072  43.494  10.985
 1864W        W74157  16.747  14.646  12.924
 1865W        W74158   0.957  21.692   4.156
 1866W        W74159  11.312  31.411  14.013
 1867W        W74160  16.572  43.005   1.244
 1868W        W74161  34.402  13.659  14.766
 1869W        W74162  31.483  32.908   1.439
 1870W        W74163  37.831  24.557  13.984
 1871W        W74164  10.642  19.723  13.426
 1872W        W74165   1.363  17.616  13.350
 1873W        W74166  25.046  23.714   4.160
 1874W        W74167  39.339  37.997   2.372
 1875W        W74168  19.585  26.074   3.834
 1876W        W74169  38.844   4.755   0.770
 1877W        W74170  19.059  23.047   2.365
 1878W        W74171  11.228  30.566  12.950
 1879W        W74172  40.847  22.225   4.171
 1880W        W74173   6.829  10.726   3.777
 1881W        W74174   0.334  21.143  14.776
 1882W        W74175  16.261  43.836   0.358
 1883W        W74176  11.650  41.479   1.439
 1884W        W74177  41.952  31.615  14.358
 1885W        W74178  29.978   3.806   1.446
 1886W        W74179  11.637  27.094   1.695
 1887W        W74180  13.779  15.110   2.391
 1888W        W74181  42.881  39.922  11.874
 1889W        W74182   4.798   9.888  14.773
 1890W        W74183   9.189   8.879  13.375
 1891W        W74184   4.274  37.539   4.315
 1892W        W74185   0.473  30.037  11.395
 1893W        W74186  33.473  17.743  12.475
 1894W        W74187   8.255  33.616   3.676
 1895W        W74188   6.341  38.418  11.550
 1896W        W74189  11.187  35.508  13.999
 1897W        W74190  32.547  37.854  13.834
 1898W        W74191  31.037  12.728  11.574
 1899W        W74192   4.402  20.681  14.989
 1900W        W74193  27.085  43.298   4.826
 1901W        W74194  13.663  33.054  14.889
 1902W        W74195  35.385  25.036   0.844
 1903W        W74196  11.322  44.265  13.333
 1904W        W74197   3.369   5.265  12.054
 1905W        W74198  24.672  18.184  13.490
 1906W        W74199  16.680  43.446  12.428
 1907W        W74200  19.758   6.731  12.455
 1908W        W74201  37.469  12.731   2.342
 1909W        W74202   1.861  11.176  12.511
 1910W        W74203  22.728  37.861   0.402
 1911W        W74204  35.402  34.068   4.685
 1912W        W74205  21.218   1.310   0.740
 1913W        W74206  10.849  21.690  11.025
 1914W        W74207  38.895   6.687   0.323
 1915W        W74208  39.434  25.054   4.274
 1916W        W74209  16.651  34.021   0.737
 1917W        W74210   9.159  17.085   0.277
 1918W        W74211   8.193  38.026   0.727
 1919W        W74212  36.348  43.904  14.942
 1920W        W74213  19.632  30.571  11.460
 1921W        W74214  25.106  18.152  12.869
 1922W        W74215   9.706  17.068   2.280
 1923W        W74216  23.051  44.815  12.986
 1924W        W74217  26.167   7.335   4.615
 1925W        W74218  41.001   3.419   2.358
 1926W        W74219  33.466  43.312  12.476
 1927W        W74220   6.263  44.341   0.280
 1928W        W74221  33.531  17.672   1.280
 1929W        W74222  37.471  32.992  12.572
 1930W        W74223  13.207  39.416  14.987
 1931W        W74224  21.633  40.968   3.760
 1932W        W74225  17.649   1.444  14.417
 1933W        W74226  40.445  25.120   4.756
 1934W        W74227  12.335  41.519   3.739
 1935W        W74228  24.669   7.410   1.261
 1936W        W74229  32.037  35.903   4.613
 1937W        W74230  39.950  43.878  11.450
 1938W        W74231   4.235   6.259   0.892
 1939W        W74232  35.963   3.321   9.946
 1940W        W74233  35.896  41.857  11.551
 1941W        W74234   2.841  31.404  10.456
 1942W        W74235  15.710  11.759  11.027
 1943W        W74236  19.169  18.749  10.633
 1944W        W74237  13.708  21.206   4.597
 1945W        W74238  40.953   2.852  13.360
 1946W        W74239   9.180  41.294  13.317
 1947W        W74240  31.641  11.776   3.827
 1948W        W74241  28.054  24.673   2.899
 1949W        W74242  23.729   6.292  10.550
 1950W        W74243  42.817  19.108   2.240
 1951W        W74244  30.125  44.926  12.576
 1952W        W74245  30.481  12.223   1.329
 1953W        W74246  16.271  18.636  14.315
 1954W        W74247  38.999  44.301   3.383
 1955W        W74248  13.295  43.508   1.861
 1956W        W74249  24.174  32.496   3.782
 1957W        W74250  18.584  11.731  11.479
 1958W        W74251  26.615  22.594   9.530
 1959W        W74252   4.921  43.007  14.832
 1960W        W74253  24.568  41.844   2.333
 1961W        W74254   5.227  27.670  10.618
 1962W        W74255  37.532  18.558   1.721
 1963W        W74256  29.944  16.778  12.894
 1964W        W74257  22.707  33.901  11.047
 1965W        W74258  15.194  38.362   4.809
 1966W        W74259  34.017   9.193   4.740
 1967W        W74260  22.046   4.349   4.734
 1968W        W74261   0.883  12.755   4.148
 1969W        W74262   9.163  29.981   2.346
 1970W        W74263  40.461  38.451   2.682
 1971W        W74264   4.741  10.850   4.711
 1972W        W74265  41.976  37.864   3.361
 1973W        W74266  15.170  11.280   3.349
 1974W        W74267  13.811  27.128   4.182
 1975W        W74268   2.769  26.642   4.632
 1976W        W74269  26.997  42.387  13.943
 1977W        W74270   8.219  13.180  13.309
 1978W        W74271  16.256   7.408  10.464
 1979W        W74272   7.858  28.018   3.631
 1980W        W74273  26.042  10.704   4.166
 1981W        W74274  13.828  12.855  12.434
 1982W        W74275  33.013  29.528  14.863
 1983W        W74276  30.572   9.157  13.498
 1984W        W74277  19.710  28.592  14.354
 1985W        W74278   4.418   8.774  10.605
 1986W        W74279  40.984   0.985  11.992
 1987W        W74280  13.147   5.756   2.343
 1988W        W74281   0.254  26.494   4.811
 1989W        W74282  38.538  31.645  14.815
 1990W        W74283  33.038  10.787   1.369
 1991W        W74284  22.546  16.609   4.158
 1992W        W74285  31.584  29.031   4.721
 1993W        W74286   2.921   2.727   4.146
 1994W        W74287  10.333  36.535   3.311
 1995W        W74288  28.648   7.903   4.334
 1996W        W74289  35.944   1.974   2.227
 1997W        W74290  23.126  39.516   3.768
 1998W        W74291  35.101  17.633   0.350
 1999W        W74292  17.253  10.719  14.399
 2000W        W74293  30.001  33.083   1.732
 2001W        W74294  34.544   1.326  13.830
 2002W        W74295  27.164   9.178  13.016
 2003W        W74296  10.805  19.556   4.720
 2004W        W74297  21.734   1.868   4.608
 2005W        W74298  37.433  31.499  11.910
 2006W        W74299   6.385  36.517   3.864
 2007W        W74300  28.622  21.594   4.125
 2008W        W74301  40.402  22.680  10.519
 2009W        W74302  26.125   2.883  11.101
 2010W        W74303  14.776  16.638  12.043
 2011W        W74304  37.396  33.132   0.793
 2012W        W74305  29.134  41.877  13.353
 2013W        W74306  14.136  24.208   3.793
 2014W        W74307  19.535  36.544   2.808
 2015W        W74308  29.970  37.352   1.279
 2016W        W74309  36.984  26.529  13.043
 2017W        W74310  28.013  32.104  10.616
 2018W        W74311  28.168  15.607   4.273
 2019W        W74312  38.966   4.402  11.566
 2020W        W74313  38.456  27.002  13.963
 2021W        W74314   9.297  25.052   0.284
 2022W        W74315  21.690  30.472   0.851
 2023W        W74316  26.614  34.057  13.905
 2024W        W74317  39.318  17.792  12.925
 2025W        W74318  10.690  36.515   0.414
 2026W        W74319  14.260  21.052   1.884
 2027W        W74320  13.175  32.000   3.335
 2028W        W74321   6.889  26.545   1.377
 2029W        W74322  43.947   8.892  14.865
 2030W        W74323   8.809  10.145  10.589
 2031W        W74324  26.506  38.007  12.535
 2032W        W74325  25.048  31.415  12.985
 2033W        W74326  40.861  13.733   3.309
 2034W        W74327  25.026  43.944  13.918
 2035W        W74328  37.073  30.590   2.725
 2036W        W74329  23.507  22.529   1.849
 2037W        W74330  28.971  30.647   3.236
 2038W        W74331   9.384  38.045  10.979
 2039W        W74332  15.290  25.606  11.103
 2040W        W74333  29.173  31.473  13.794
 2041W        W74334  25.086  14.710   3.161
 2042W        W74335  41.399  37.889   0.313
 2043W        W74336  39.977   5.250  14.829
 2044W        W74337  19.714  17.159   3.700
 2045W        W74338  30.524  44.878   3.290
 2046W        W74339  40.926  32.490   4.605
 2047W        W74340  10.206  25.024  12.513
 2048W        W74341  40.434  28.493  12.951
 2049W        W74342  35.966   0.766   1.696
 2050W        W74343  38.358  10.756  10.944
 2051W        W74344  43.897  16.206   2.893
 2052W        W74345  27.638  13.323  12.537
 2053W        W74346   6.829   3.363   1.852
 2054W        W74347  28.610  23.521   4.195
 2055W        W74348  31.603  42.030  11.596
 2056W        W74349  22.546  28.586   2.340
 2057W        W74350   3.834  27.529  10.984
 2058W        W74351  15.635  37.565  13.835
 2059W        W74352  37.927  16.798   4.697
 2060W        W74353  20.168   1.393  11.491
 2061W        W74354  34.866   3.461   0.763
 2062W        W74355  21.229  44.780  13.350
 2063W        W74356  32.439  22.630  14.347
 2064W        W74357   2.451  28.075   4.687
 2065W        W74358   9.244  19.248   4.645
 2066W        W74359  34.019  24.228   4.116
 2067W        W74360  23.607  14.733   3.728
 2068W        W74361  40.380  35.405   1.893
 2069W        W74362   0.451  31.066   1.218
 2070W        W74363   5.866  27.178  14.766
 2071W        W74364  29.652  32.002   3.676
 2072W        W74365  21.756  43.324  11.037
 2073W        W74366  27.555  19.122  14.922
 2074W        W74367  27.943  30.472  13.425
 2075W        W74368  41.334  33.482   5.123
 2076W        W74369  40.836  26.601   1.806
 2077W        W74370  14.339  19.162  13.312
 2078W        W74371   7.200  23.714  11.944
 2079W        W74372  36.405  18.196  11.887
 2080W        W74373  32.117  29.043   0.813
 2081W        W74374  19.154  21.141   2.290
 2082W        W74375   9.224  30.018  11.060
 2083W        W74376  20.702  21.722  11.983
 2084W        W74377  35.027  34.026  14.813
 2085W        W74378  22.132  15.745   1.399
 2086W        W74379  27.161  39.551   2.314
 2087W        W74380   9.294   2.824   3.669
 2088W        W74381  26.029  16.294  12.398
 2089W        W74382  25.634   2.297   1.325
 2090W        W74383   7.225  44.408  14.484
 2091W        W74384  23.024  11.820  11.893
 2092W        W74385  18.658  10.375  13.917
 2093W        W74386  11.637  31.973   0.256
 2094W        W74387   6.813   8.769  13.536
 2095W        W74388   3.238  31.962   0.931
 2096W        W74389  16.685   2.272   0.808
 2097W        W74390  27.608  27.540  14.775
 2098W        W74391  16.115   4.839   2.710
 2099W        W74392  27.456  41.497  12.890
 2100W        W74393   6.792  24.587   3.364
 2101W        W74394  12.631  28.635   1.725
 2102W        W74395  25.532  29.135   2.412
 2103W        W74396  13.762  22.735  14.512
 2104W        W74397  43.423   1.379   0.962
 2105W        W74398   9.326  34.967   3.844
 2106W        W74399  31.515   2.310  12.993
 2107W        W74400   9.347  25.475  14.839
 2108W        W74401   0.861  43.383   0.771
 2109W        W74402   1.766   7.381   0.770
 2110W        W74403  43.808  12.362   0.799
 2111W        W74404  41.903  20.143  14.952
 2112W        W74405  37.952   7.273  14.388
 2113W        W74406  27.604  11.633  13.327
 2114W        W74407  10.233  38.004   4.744
 2115W        W74408  31.461  10.660   4.144
 2116W        W74409  37.861  23.500   0.756
 2117W        W74410  24.179  12.192  14.444
 2118W        W74411   0.956   0.745   3.383
 2119W        W74412  33.623   5.791  11.113
 2120W        W74413  30.595  14.742   0.754
 2121W        W74414  15.712   6.742  11.901
 2122W        W74415  38.024   5.282  13.444
 2123W        W74416   9.871  11.851   3.208
 2124W        W74417  17.203   0.302   4.758
 2125W        W74418   0.790  14.772   0.298
 2126W        W74419  44.806  36.425   4.719
 2127W        W74420  37.020  35.530   3.327
 2128W        W74421  37.065  19.216   0.771
 2129W        W74422   7.392  16.110   4.346
 2130W        W74423  43.827  39.054   4.141
 2131W        W74424  31.961  32.612  14.389
 2132W        W74425  42.432   4.410   2.692
 2133W        W74426   4.781   9.691   1.778
 2134W        W74427  15.801   3.421  13.800
 2135W        W74428   5.874  25.144  11.424
 2136W        W74429  25.475  41.013  14.298
 2137W        W74430   0.926  22.619   0.429
 2138W        W74431  37.559   2.856  13.844
 2139W        W74432  17.094  38.976   1.422
 2140W        W74433  30.122  38.464   0.845
 2141W        W74434  31.422  12.704  13.406
 2142W        W74435  44.364  18.748  10.416
 2143W        W74436  22.524   9.198  10.417
 2144W        W74437  15.185   5.216   2.227
 2145W        W74438   8.772  15.317   0.900
 2146W        W74439  13.200   8.724  14.017
 2147W        W74440  35.542   8.284   1.271
 2148W        W74441  17.262  37.978   4.291
 2149W        W74442  10.702  13.107  10.617
 2150W        W74443  30.452   2.298   2.407
 2151W        W74444  12.330  30.931   2.765
 2152W        W74445  44.353   1.425   1.745
 2153W        W74446  28.148  12.142   0.457
 2154W        W74447   4.345  24.580  11.523
 2155W        W74448   1.876   9.851  12.000
 2156W        W74449  36.418   2.376   4.199
 2157W        W74450  18.600  42.993   5.258
 2158W        W74451  38.930  42.833  11.462
 2159W        W74452  34.384  33.569  12.022
 2160W        W74453   5.810  44.936  12.857
 2161W        W74454   1.966  21.574   0.424
 2162W        W74455  25.145   1.775   0.439
 2163W        W74456  41.491  23.686  13.977
 2164W        W74457   5.292  10.763  13.878
 2165W        W74458   6.427  12.814  14.311
 2166W        W74459   5.312   7.197   4.207
 2167W        W74460  30.936  18.660  12.013
 2168W        W74461   7.289  19.726  10.612
 2169W        W74462  35.511   1.284  13.048
 2170W        W74463   7.278   6.220  13.014
 2171W        W74464  36.375  32.997  14.480
 2172W        W74465  37.877   1.903   2.762
 2173W        W74466  19.567   0.377   4.269
 2174W        W74467  13.675  11.672   0.321
 2175W        W74468  44.987   2.911  12.450
 2176W        W74469  13.188  42.887   3.338
 2177W        W74470  35.936  21.250  13.466
 2178W        W74471  13.813  20.145  14.866
 2179W        W74472  37.503  16.212   1.764
 2180W        W74473  19.144  43.395   3.816
 2181W        W74474  22.238  18.088  11.124
 2182W        W74475   9.289   3.345   0.260
 2183W        W74476  20.237  41.316  12.955
 2184W        W74477   6.370  25.501  12.380
 2185W        W74478  44.281  31.499   0.365
 2186W        W74479  24.600  23.508  12.416
 2187W        W74480   3.305  33.446  14.814
 2188W        W74481   6.271   7.878   0.464
 2189W        W74482  42.781  31.955   5.276
 2190W        W74483  41.935  15.623  12.081
 2191W        W74484  38.071  11.280   4.311
 2192W        W74485  38.003  39.981  11.016
 2193W        W74486   4.912  25.119  11.884
 2194W        W74487  13.239   0.851   3.153
 2195W        W74488   0.387  30.462  12.045
 2196W        W74489  43.849  38.491  10.579
 2197W        W74490  44.781  27.083  12.393
 2198W        W74491  28.489  18.752  10.596
 2199W        W74492   4.832  24.703  10.471
 2200W        W74493  20.524  33.454   1.338
 2201W        W74494  17.194   2.432   3.228
 2202W        W74495   7.265  44.871  11.022
 2203W        W74496  38.352  33.081   1.720
 2204W        W74497  40.411  28.186  14.354
 2205W        W74498  30.525  29.583  11.047
 2206W        W74499  33.440  24.715   2.817
 2207W        W74500  20.183   3.326   4.279
 2208W        W74501  24.713   6.788  11.997
 2209W        W74502  12.827   5.352   0.965
 2210W        W74503  14.120  33.054  14.820
 2211W        W74504  33.921  31.504   1.315
 2212W        W74505   1.276  29.096  11.486
 2213W        W74506  11.659  26.575   5.184
 2214W        W74507  43.422  21.740  14.765
 2215W        W74508  36.423  11.336  10.528
 2216W        W74509  29.013  23.215   3.324
 2217W        W74510  11.858   3.886   1.871
 2218W        W74511  44.800  10.760  13.418
 2219W        W74512  38.851  44.327   3.828
 2220W        W74513   4.837  22.033   1.268
 2221W        W74514  13.163   1.736   2.777
 2222W        W74515   7.383  19.601  12.463
 2223W        W74516  18.051  29.954   3.237
 2224W        W74517  20.686  29.939   4.321
 2225W        W74518  31.538  39.824  13.052
 2226W        W74519   2.469  25.195   1.320
 2227W        W74520  27.161  34.938   1.294
 2228W        W74521  38.035  16.785  14.414
 2229W        W74522  33.464  35.971   1.874
 2230W        W74523   9.711  11.179  10.435
 2231W        W74524  29.655  42.310  14.306
 2232W        W74525   5.366   6.182   2.852
 2233W        W74526   0.438  20.041   4.695
 2234W        W74527  15.321  13.344  14.409
 2235W        W74528  35.426  40.815   2.413
 2236W        W74529  20.273  42.008  11.006
 2237W        W74530  26.673   4.797   4.822
 2238W        W74531  38.047  15.092  13.821
 2239W        W74532  26.202  21.232  10.625
 2240W        W74533  38.361   5.198   4.123
 2241W        W74534  40.980  40.499   1.712
 2242W        W74535  20.162  28.452   1.409
 2243W        W74536  22.523  26.559  14.507
 2244W        W74537  32.896   9.823   0.764
 2245W        W74538  38.850  27.155   4.317
 2246W        W74539  12.184  28.648   1.288
 2247W        W74540  28.483   8.741  14.930
 2248W        W74541  22.561  32.392   1.773
 2249W        W74542  35.983  37.927  11.475
 2250W        W74543   2.892  20.524   3.835
 2251W        W74544  10.337   2.836  14.872
 2252W        W74545   8.773  37.398   1.409
 2253W        W74546  44.913  14.116  14.378
 2254W        W74547   6.343  13.690   0.470
 2255W        W74548  43.313  39.517   2.377
 2256W        W74549  30.914   7.334  14.369
 2257W        W74550   4.306  41.890  11.058
 2258W        W74551  40.532  43.844   4.325
 2259W        W74552   2.226  39.052   4.828
 2260W        W74553   7.789  33.101   1.283
 2261W        W74554  20.136  35.892  11.591
 2262W        W74555  37.446  15.672   3.362
 2263W        W74556  38.879  25.637   1.223
 2264W        W74557  20.172  28.070   1.798
 2265W        W74558  19.682   0.406  11.458
 2266W        W74559  41.846   1.794   9.998
 2267W        W74560  33.119  36.006   3.177
 2268W        W74561  23.665  10.232  13.883
 2269W        W74562  27.176  32.901   1.272
 2270W        W74563  44.785  34.051  11.469
 2271W        W74564  10.691  10.848   3.762
 2272W        W74565   7.853  13.328   1.857
 2273W        W74566  33.044  27.524   4.655
 2274W        W74567  29.026  13.282   4.696
 2275W        W74568  32.110  39.857  13.529
 2276W        W74569  39.348   3.358   1.216
 2277W        W74570   5.402  44.470  10.430
 2278W        W74571  13.703  13.626  13.911
 2279W        W74572  16.237  19.535  11.425
 2280W        W74573  30.606   2.901  13.478
 2281W        W74574   1.472   6.319   3.689
 2282W        W74575  15.232  38.873   0.836
 2283W        W74576  35.057  20.574  12.047
 2284W        W74577   0.324   1.465  10.981
 2285W        W74578  20.067   6.897   1.317
 2286W        W74579  19.596  29.519  10.484
 2287W        W74580  19.605  12.337  12.560
 2288W        W74581  44.409  17.754  12.904
 2289W        W74582  30.658  33.566  13.821
 2290W        W74583  43.802  32.107   2.342
 2291W        W74584  16.309  42.892  10.465
 2292W        W74585  29.019  11.309  11.856
 2293W        W74586  43.911  13.803  10.512
 2294W        W74587  29.010  22.094  11.055
 2295W        W74588  18.090  36.924   2.727
 2296W        W74589  17.678  38.409  13.833
 2297W        W74590  21.577  10.259  13.496
 2298W        W74591  23.050  16.770   0.282
 2299W        W74592  25.468  33.516   2.206
 2300W        W74593  25.089  13.826  11.891
 2301W        W74594  23.095   6.848   1.763
 2302W        W74595  13.336  10.783   0.760
 2303W        W74596   8.300  28.596  11.578
 2304W        W74597   7.212   9.231   0.795
 2305W        W74598  34.112   6.891  11.862
 2306W        W74599   5.882  21.172  13.899
 2307W        W74600   7.738   8.272   4.695
 2308W        W74601  10.873  20.110  13.396
 2309W        W74602   4.303  10.661   1.349
 2310W        W74603   5.255  27.944   0.361
 2311W        W74604  21.545  37.022  14.970
 2312W        W74605  23.576  14.750  13.020
 2313W        W74606   6.880  32.029   0.408
 2314W        W74607  17.629  12.824  12.993
 2315W        W74608  35.417  35.529   4.679
 2316W        W74609  43.007   7.813  10.459
 2317W        W74610  35.438  20.127   1.923
 2318W        W74611  34.913  15.742   0.859
 2319W        W74612  37.400  22.155   3.704
 2320W        W74613  42.492  31.145  13.309
 2321W        W74614  21.636  16.688  12.540
 2322W        W74615  21.141  28.066   0.424
 2323W        W74616   2.265   1.867  14.762
 2324W        W74617  29.137  33.086  11.952
 2325W        W74618   5.849  44.389  12.447
 2326W        W74619   8.704  39.933   4.647
 2327W        W74620  31.618  20.678  13.417
 2328W        W74621  26.524  20.632   2.365
 2329W        W74622  23.651   4.364   2.795
 2330W        W74623  10.311   6.744   1.388
 2331W        W74624  37.401  10.203  11.460
 2332W        W74625   5.699  19.651  11.115
 2333W        W74626  40.842  43.013  10.576
 2334W        W74627  29.613  22.556   1.790
 2335W        W74628  23.001   7.686  12.946
 2336W        W74629  11.254   5.775  11.109
 2337W        W74630  33.479  32.441   0.251
 2338W        W74631  18.579  29.425   3.167
 2339W        W74632   1.325  23.538  12.880
 2340W        W74633  26.615  25.966   3.806
 2341W        W74634   6.814  30.045   0.295
 2342W        W74635   6.350  18.189  10.081
 2343W        W74636  37.887  15.260  12.400
 2344W        W74637  21.750  29.118   4.324
 2345W        W74638   0.452  26.992  13.345
 2346W        W74639   3.326   7.324   1.387
 2347W        W74640  11.815  39.470   3.184
 2348W        W74641  12.788  32.463   4.634
 2349W        W74642  15.721  21.245   1.396
 2350W        W74643  42.921   0.264  14.384
 2351W        W74644  17.103   2.796  14.881
 2352W        W74645   4.940   8.258  11.945
 2353W        W74646  38.480  12.322  10.533
 2354W        W74647   0.275  22.677  12.007
 2355W        W74648   8.316   5.828   2.377
 2356W        W74649  26.958  38.048  14.485
 2357W        W74650   8.271  11.766  14.953
 2358W        W74651  39.809  42.868  10.978
 2359W        W74652  33.993  13.668   4.833
 2360W        W74653  34.577  21.622  14.466
 2361W        W74654  31.976  18.056  13.516
 2362W        W74655  15.654  13.705   1.749
 2363W        W74656  27.145  18.765   1.855
 2364W        W74657   6.811  16.289  12.850
 2365W        W74658  25.631  22.704  14.894
 2366W        W74659  12.173   8.249   3.328
 2367W        W74660  25.560  42.332   1.887
 2368W        W74661  35.935  22.627   3.645
 2369W        W74662   8.711  21.139   2.306
 2370W        W74663  10.833  40.314  12.975
 2371W        W74664  16.267   7.874  11.546
 2372W        W74665  19.155  39.452   0.424
 2373W        W74666  26.489  34.997   0.943
 2374W        W74667  23.612   4.405  11.996
 2375W        W74668  37.338  17.164  12.376
 2376W        W74669   1.438  14.125   5.280
 2377W        W74670  18.790  15.653   5.249
 2378W        W74671  15.168  24.204  11.422
 2379W        W74672  27.032  22.536  14.833
 2380W        W74673   4.745  44.778   2.178
 2381W        W74674  25.044  30.966  13.889
 2382W        W74675  21.681  42.496   2.224
 2383W        W74676  11.727   4.888  14.984
 2384W        W74677  25.161  40.996  12.540
 2385W        W74678  26.035  20.557   2.680
 2386W        W74679   1.762  29.982  11.030
 2387W        W74680  11.765  21.058  13.892
 2388W        W74681   1.762   8.362  14.408
 2389W        W74682  28.981  24.028  12.033
 2390W        W74683  23.663  44.959   2.797
 2391W        W74684   3.267  44.942   2.752
 2392W        W74685  38.335   8.858   2.240
 2393W        W74686  32.995  10.324  12.945
 2394W        W74687   3.248  43.513   3.242
 2395W        W74688   5.744  23.535  11.985
 2396W        W74689  25.681  15.671  14.910
 2397W        W74690  14.830   0.303   2.744
 2398W        W74691  30.459   4.716  10.085
 2399W        W74692   6.251  38.358   2.253
 2400W        W74693   0.982  30.526   4.293
 2401W        W74694  33.525   4.320   3.716
 2402W        W74695  11.276  39.971   0.778
 2403W        W74696   4.783  12.270   2.729
 2404W        W74697   9.254   4.311   0.350
 2405W        W74698  32.991   4.311  12.392
 2406W        W74699   9.243   6.413   2.713
 2407W        W74700  32.046  13.774   0.834
 2408W        W74701   1.811  26.699   0.453
 2409W        W74702  10.728   0.292  11.879
 2410W        W74703  35.004  36.457  10.958
 2411W        W74704  30.428  42.525   2.201
 2412W        W74705  32.404   3.421  13.401
 2413W        W74706  15.192  36.507  11.470
 2414W        W74707  27.010  27.480   1.894
 2415W        W74708  30.495  38.031   4.189
 2416W        W74709   6.745  29.591   0.471
 2417W        W74710  20.667  42.838   1.787
 2418W        W74711  19.665  25.061   4.677
 2419W        W74712   1.757  12.314  14.455
 2420W        W74713  40.433   7.679  14.330
 2421W        W74714   8.294  24.138   4.831
 2422W        W74715   3.357  17.786  14.283
 2423W        W74716   5.741  26.576  12.547
 2424W        W74717  26.201   4.240   3.316
 2425W        W74718  42.894  25.484  12.013
 2426W        W74719  16.118  16.079  10.549
 2427W        W74720  40.403  33.486  12.396
 2428W        W74721  22.596  36.965   3.767
 2429W        W74722   9.845  43.377  12.995
 2430W        W74723  19.700   9.889  13.380
 2431W        W74724  16.127   3.924  13.510
 2432W        W74725  10.821  36.548   2.298
 2433W        W74726  22.714  13.177  13.486
 2434W        W74727  14.242   4.253  12.851
 2435W        W74728   7.172  14.798   4.703
 2436W        W74729  26.201  29.498  11.986
 2437W        W74730  27.556   8.204   1.904
 2438W        W74731  21.249  12.754  11.075
 2439W        W74732  36.591  26.017   1.267
 2440W        W74733  41.858  28.579  14.804
 2441W        W74734   1.777   9.761   1.875
 2442W        W74735  24.573  37.933   3.729
 2443W        W74736  12.786  25.692  14.791
 2444W        W74737  14.807   3.344   1.242
 2445W        W74738  43.288  10.220   4.128
 2446W        W74739  28.640   6.795   1.409
 2447W        W74740  33.519   3.828  12.868
 2448W        W74741  26.952  16.772   0.808
 2449W        W74742  12.329  14.133  12.390
 2450W        W74743   9.246  30.577  14.017
 2451W        W74744   5.320   1.480   3.680
 2452W        W74745  42.862  11.840  14.349
 2453W        W74746  11.781  16.702  14.019
 2454W        W74747  11.832  22.600  14.328
 2455W        W74748   7.823  16.081   1.755
 2456W        W74749  43.336  42.877   1.213
 2457W        W74750  38.357  33.402   0.354
 2458W        W74751   7.402   9.803   3.830
 2459W        W74752  20.713   8.340  12.517
 2460W        W74753   6.310  19.246   0.851
 2461W        W74754  30.545  20.588   3.840
 2462W        W74755  35.522   4.276  11.488
 2463W        W74756  16.251  35.489  14.293
 2464W        W74757  44.884  34.082  12.375
 2465W        W74758  27.047  10.798   4.657
 2466W        W74759  31.075  34.894   3.293
 2467W        W74760  44.472  38.947  13.332
 2468W        W74761  12.321  31.002   3.633
 2469W        W74762  22.119   9.277  11.118
 2470W        W74763  43.351  10.383   2.291
 2471W        W74764  13.229  14.814  12.507
 2472W        W74765   4.395  35.366   2.836
 2473W        W74766  40.901  33.569  14.381
 2474W        W74767  28.114  13.738   1.366
 2475W        W74768  23.195  31.953  12.040
 2476W        W74769  11.821  19.602   4.137
 2477W        W74770   2.413   7.202  10.566
 2478W        W74771  15.639  31.911  11.372
 2479W        W74772   9.287  24.069  13.849
 2480W        W74773  16.260  44.401  13.892
 2481W        W74774  43.367  26.115   2.197
 2482W        W74775  26.186   8.331   2.672
 2483W        W74776   0.278  11.632   1.800
 2484W        W74777  28.078  29.959   5.195
 2485W        W74778  27.520  23.041  11.947
 2486W        W74779   4.740   0.752  12.058
 2487W        W74780  31.958  18.738   4.720
 2488W        W74781  12.657   7.872  14.803
 2489W        W74782  19.628  13.662  12.080
 2490W        W74783  15.698   1.931   3.302
 2491W        W74784  27.040  18.556   0.917
 2492W        W74785  15.671  27.996  14.004
 2493W        W74786  23.076   3.377  13.500
 2494W        W74787  34.393  38.399   1.914
 2495W        W74788   3.861  41.853  13.482
 2496W        W74789  10.197  19.184   5.247
 2497W        W74790  35.368  14.590   2.288
 2498W        W74791   9.377   8.805   4.652
 2499W        W74792   3.435  38.352  11.420
 2500W        W74793   2.943   3.240   4.773
 2501W        W74794  24.230   7.215   0.351
 2502W        W74795  23.666   9.164   1.416
 2503W        W74796  40.895  32.459  13.938
 2504W        W74797  10.299  41.868   0.750
 2505W        W74798  21.552  26.521  10.470
 2506W        W74799   5.309  32.934  13.947
 2507W        W74800  39.491  30.617  11.905
 2508W        W74801  33.531  12.661   0.837
 2509W        W74802  18.789  29.042  14.908
 2510W        W74803  22.203   0.920   3.283
 2511W        W74804  13.655  30.908  12.357
 2512W        W74805  26.067   7.310  13.926
 2513W        W74806  30.970   9.175   1.245
 2514W        W74807  31.499   2.369  13.926
 2515W        W74808  41.871  43.871   5.142
 2516W        W74809  44.970  30.558   1.253
 2517W        W74810  41.297  26.129   2.389
 2518W        W74811  16.157  36.959  12.992
 2519W        W74812  10.179  28.660   3.663
 2520W        W74813  44.343  34.083  12.052
 2521W        W74814   0.399  18.078  12.460
 2522W        W74815  23.560   7.714  11.111
 2523W        W74816  27.097  43.284  11.962
 2524W        W74817  40.356   9.272   1.237
 2525W        W74818  26.116  24.504   1.845
 2526W        W74819  43.907  13.843   4.350
 2527W        W74820  17.757  33.563   5.255
 2528W        W74821  30.937   0.781  11.077
 2529W        W74822  26.992  13.111   4.720
 2530W        W74823  20.085  33.919  11.089
 2531W        W74824  40.482  39.405  11.103
 2532W        W74825  17.658  31.015  14.951
 2533W        W74826  18.655  15.633   0.923
 2534W        W74827  20.239   0.421  13.542
 2535W        W74828  10.278  38.866  11.031
 2536W        W74829  29.161  14.723  11.611
 2537W        W74830  16.566   4.779  10.459
 2538W        W74831  42.793  37.881  10.983
 2539W        W74832  33.114   5.926   4.188
 2540W        W74833  35.068   7.369  10.450
 2541W        W74834  27.578  22.683  13.446
 2542W        W74835   0.901  29.001  14.443
 2543W        W74836  22.515  32.033  12.924
 2544W        W74837  42.402  19.217   5.088
 2545W        W74838  25.711  14.736   2.415
 2546W        W74839  32.034  36.353   1.382
 2547W        W74840  44.423  39.531  12.555
 2548W        W74841  13.745  33.924   1.913
 2549W        W74842  28.017   5.434   4.265
 2550W        W74843   7.317  32.485   4.760
 2551W        W74844   4.813  16.574   3.834
 2552W        W74845  25.498  11.714  12.087
 2553W        W74846  33.480  16.669   2.264
 2554W        W74847  41.910  39.548   4.598
 2555W        W74848  20.737  22.061  12.838
 2556W        W74849  32.896   9.230   0.301
 2557W        W74850   8.665  35.017   3.803
 2558W        W74851  36.878  21.153   0.330
 2559W        W74852  16.685  18.280   4.324
 2560W        W74853  25.685  15.190   1.436
 2561W        W74854  19.113  13.338  13.798
 2562W        W74855  19.124  15.797  11.929
 2563W        W74856   8.299   3.790  12.508
 2564W        W74857   5.333  40.425  10.422
 2565W        W74858  11.275  21.547  10.641
 2566W        W74859  25.469  16.612   4.627
 2567W        W74860  40.010  38.496   3.648
 2568W        W74861   8.891  29.489  12.882
 2569W        W74862  21.595  12.812   0.919
 2570W        W74863  13.815  39.549   3.815
 2571W        W74864  11.215  10.262   1.217
 2572W        W74865   3.865  30.061   4.696
 2573W        W74866  24.661  24.974  11.434
 2574W        W74867  29.079  28.105   1.811
 2575W        W74868  19.140  25.535  10.537
 2576W        W74869   6.747  34.987   4.812
 2577W        W74870  28.106  10.647  14.439
 2578W        W74871  22.711  22.508   1.271
 2579W        W74872   5.369  16.757   3.735
 2580W        W74873  21.048  26.665  10.518
 2581W        W74874  18.234  12.811   4.681
 2582W        W74875  15.655  42.360   1.916
 2583W        W74876  18.685  32.459  13.460
 2584W        W74877  33.876  35.443   4.737
 2585W        W74878  29.932  25.514  13.528
 2586W        W74879   1.389  24.132  14.439
 2587W        W74880   0.412  26.978   3.293
 2588W        W74881   1.940  43.822   3.344
 2589W        W74882  30.044  17.167  11.930
 2590W        W74883  30.036  40.393   1.797
 2591W        W74884  10.874  10.204  11.373
 2592W        W74885   2.252  43.457  14.865
 2593W        W74886  14.255  17.614  11.496
 2594W        W74887   1.439  35.001  14.760
 2595W        W74888  30.942  22.562  14.965
 2596W        W74889  23.056   9.832   1.775
 2597W        W74890  19.264  15.237  12.952
 2598W        W74891   0.364  18.209  12.981
 2599W        W74892   6.832  22.032  14.015
 2600W        W74893  42.022  23.010   1.889
 2601W        W74894   8.352  15.807  14.854
 2602W        W74895  19.244  34.432   2.718
 2603W        W74896  39.037  21.078   0.355
 2604W        W74897  16.811   2.294  13.905
 2605W        W74898  34.876  20.142   4.140
 2606W        W74899  39.985  11.673   0.967
 2607W        W74900  31.151   0.322  13.808
 2608W        W74901  15.746  11.648   3.208
 2609W        W74902  24.998  35.877  11.942
 2610W        W74903   7.285  40.021  11.992
 2611W        W74904  20.589  34.088  11.372
 2612W        W74905  33.941   5.692   3.672
 2613W        W74906   9.768  33.533   3.343
 2614W        W74907  33.551  40.484  10.062
 2615W        W74908  25.605  37.411   2.848
 2616W        W74909  40.349  35.363  14.412
 2617W        W74910  34.090  38.030   4.334
 2618W        W74911   4.290  23.110  14.311
 2619W        W74912  36.459  20.114  12.971
 2620W        W74913  16.634  18.141   0.375
 2621W        W74914  40.959  13.767   2.248
 2622W        W74915   3.357   8.816  11.981
 2623W        W74916  20.720  44.283  10.617
 2624W        W74917  44.398  21.254  10.426
 2625W        W74918  37.902   5.729   4.172
 2626W        W74919  36.860  25.091   1.752
 2627W        W74920  41.020  10.329   2.203
 2628W        W74921  10.759  17.745  11.891
 2629W        W74922   5.427   7.269   1.341
 2630W        W74923  24.560  39.323   2.854
 2631W        W74924   7.273  20.668  10.619
 2632W        W74925   1.808  12.317   1.710
 2633W        W74926  27.989  40.015  11.545
 2634W        W74927   4.225   0.411  13.930
 2635W        W74928  17.654  11.251  13.411
 2636W        W74929  25.551  34.396   3.275
 2637W        W74930  19.771  27.095  11.069
 2638W        W74931  13.186   3.318  11.911
 2639W        W74932   4.225  33.467   2.704
 2640W        W74933   7.798  15.673   4.754
 2641W        W74934  21.573  14.590   3.662
 2642W        W74935  24.057  29.003   1.704
 2643W        W74936   4.291  40.027  11.956
 2644W        W74937   6.381  44.502  14.424
 2645W        W74938  17.225  22.582  13.875
 2646W        W74939  14.184  18.121  12.960
 2647W        W74940   7.743  33.493  10.443
 2648W        W74941  36.909  44.430  12.470
 2649W        W74942  40.327  34.029   1.892
 2650W        W74943   6.390   7.212   4.115
 2651W        W74944  12.690  12.145   4.301
 2652W        W74945  27.496  39.533  12.519
 2653W        W74946   4.799  12.299  14.008
 2654W        W74947  30.493  13.799   3.304
 2655W        W74948  17.258  38.990   4.701
 2656W        W74949  30.913  25.972   4.202
 2657W        W74950   2.413  12.173   0.951
 2658W        W74951   3.420  36.456   4.651
 2659W        W74952   3.354  37.556  12.037
 2660W        W74953  18.263   1.790   0.786
 2661W        W74954  33.005  37.070   2.404
 2662W        W74955  22.522  19.762  14.796
 2663W        W74956  44.844   5.858  11.579
 2664W        W74957  35.873  26.480   4.685
 2665W        W74958  32.122  21.250  14.410
 2666W        W74959  19.281  36.503  10.585
 2667W        W74960   4.344   2.346  11.488
 2668W        W74961  28.637  30.027   2.870
 2669W        W74962  15.659  19.766   9.951
 2670W        W74963   8.734   5.750   0.406
 2671W        W74964   4.910  32.484   1.239
 2672W        W74965   0.862  30.553   3.266
 2673W        W74966  19.088  15.690   0.474
 2674W        W74967   6.810   1.291   3.767
 2675W        W74968  40.506  27.090  14.434
 2676W        W74969  39.403   3.336   4.669
 2677W        W74970  22.625   1.890   1.363
 2678W        W74971  13.828   1.953   3.256
 2679W        W74972  36.003  33.919   4.640
 2680W        W74973  39.370   9.222  10.525
 2681W        W74974  33.400  16.150  12.957
 2682W        W74975  44.911  25.106  10.584
 2683W        W74976  14.623  44.387  13.039
 2684W        W74977  13.336  16.637  11.554
 2685W        W74978   7.717  10.353   4.170
 2686W        W74979  31.034  12.799   4.792
 2687W        W74980   2.888  10.809  14.338
 2688W        W74981  13.819  24.025   3.797
 2689W        W74982  42.511  11.281  12.058
 2690W        W74983  11.174  42.972   4.813
 2691W        W74984  41.890  29.928   4.687
 2692W        W74985  22.561  25.186  13.896
 2693W        W74986   4.287  38.869   0.366
 2694W        W74987   8.396  28.142  13.844
 2695W        W74988  43.406  35.041  12.054
 2696W        W74989  37.531  20.062  13.531
 2697W        W74990  18.117  15.666   2.851
 2698W        W74991  24.624  22.513   4.321
 2699W        W74992   3.374  42.780   4.190
 2700W        W74993  33.580  27.478   2.274
 2701W        W74994  10.197  12.198   3.233
 2702W        W74995  22.246  37.449   2.395
 2703W        W74996  22.166   9.866   0.763
 2704W        W74997  21.530  32.123  13.895
 2705W        W74998  13.175  33.443  11.603
 2706W        W74999  27.453   3.344  14.766
 2707W        W75000  25.641   6.304  13.889
 2708W        W75001  36.489   3.771  12.435
 2709W        W75002  42.335  11.624   0.910
 2710W        W75003   7.346  14.269   4.196
 2711W        W75004  12.142  28.671   4.706
 2712W        W75005   5.872  15.269   3.677
 2713W        W75006   4.721  12.128  12.902
 2714W        W75007  26.662  25.126   4.673
 2715W        W75008  12.614  23.502   3.201
 2716W        W75009  32.977   6.274  11.087
 2717W        W75010  37.534   4.449  11.915
 2718W        W75011   4.789   7.894  13.433
 2719W        W75012  33.068  16.124  13.939
 2720W        W75013  18.566  41.333  11.596
 2721W        W75014  43.929   1.950  14.970
 2722W        W75015  27.516  31.407  14.935
 2723W        W75016  39.322  31.510  14.922
 2724W        W75017  26.188  22.676  14.942
 2725W        W75018   2.894  13.167  11.579
 2726W        W75019   9.249  35.570  12.581
 2727W        W75020  16.740  41.929  12.961
 2728W        W75021   0.300  21.558   2.874
 2729W        W75022  36.079  43.999   2.730
 2730W        W75023  42.984  20.196   4.283
 2731W        W75024  17.699  20.767  10.152
 2732W        W75025  40.337   0.458   0.913
 2733W        W75026  44.313  36.456   3.636
 2734W        W75027  22.116  43.357   1.288
 2735W        W75028   6.285   7.243  13.336
 2736W        W75029  17.596  14.234   0.414
 2737W        W75030  42.017  18.153  10.139
 2738W        W75031  33.427  18.183   0.883
 2739W        W75032  39.383  30.910  14.901
 2740W        W75033   5.328   8.836   2.770
 2741W        W75034  25.134  10.731  11.543
 2742W        W75035  41.911  17.124  14.960
 2743W        W75036  20.682  11.728  13.944
 2744W        W75037  21.083  24.531  10.984
 2745W        W75038   4.804   0.471  14.808
 2746W        W75039  36.071  38.013   3.272
 2747W        W75040   8.778  26.113   4.226
 2748W        W75041   7.331  30.483  11.483
 2749W        W75042   8.675   8.659   4.721
 2750W        W75043  44.293  36.845   4.326
 2751W        W75044  26.010   8.888  11.999
 2752W        W75045   6.369  22.056  13.913
 2753W        W75046  29.646  33.897   3.165
 2754W        W75047  30.535   5.874  11.908
 2755W        W75048  43.279  28.961   0.309
 2756W        W75049  42.480  22.074  11.110
 2757W        W75050  19.066  33.999   5.757
 2758W        W75051  18.163  43.354   3.201
 2759W        W75052  40.415  17.671  13.959
 2760W        W75053  29.014  18.611  14.779
 2761W        W75054  40.976  20.080  14.865
 2762W        W75055  21.054  13.602   0.361
 2763W        W75056  34.428  13.787   0.451
 2764W        W75057  26.123  14.795  14.009
 2765W        W75058  20.605  37.505  13.509
 2766W        W75059  41.853  38.995  11.023
 2767W        W75060  31.117  39.940  12.475
 2768W        W75061  13.648  33.389   1.808
 2769W        W75062  42.321  30.983  13.976
 2770W        W75063  22.155  24.706  12.939
 2771W        W75064  38.552  43.993   1.412
 2772W        W75065  35.569  36.879  11.891
 2773W        W75066  40.849  34.455   2.397
 2774W        W75067   8.305  37.845   1.239
 2775W        W75068  42.316  38.006  11.979
 2776W        W75069  18.225  14.619   0.256
 2777W        W75070   4.906   0.876  13.498
 2778W        W75071  35.987  24.040   2.308
 2779W        W75072  41.961  21.096  10.415
 2780W        W75073  38.502  43.780   3.355
 2781W        W75074  32.124  10.680   2.798
 2782W        W75075  34.419  26.024  13.488
 2783W        W75076   3.728  30.561  10.975
 2784W        W75077  12.648  18.728   2.682
 2785W        W75078   0.885   7.845  12.835
 2786W        W75079   2.287  41.315   1.358
 2787W        W75080  24.559   7.202  10.481
 2788W        W75081  28.964  44.392   1.732
 2789W        W75082  28.959   0.444   0.244
 2790W        W75083  26.698  28.152   2.370
 2791W        W75084  44.921   5.724  13.000
 2792W        W75085  10.200   3.821  10.940
 2793W        W75086  22.607  32.479   3.631
 2794W        W75087  32.128  32.402   0.336
 2795W        W75088  42.999  44.984   0.779
 2796W        W75089  26.136  28.499   0.861
 2797W        W75090  27.158  14.777  10.964
 2798W        W75091   2.397  32.553   2.187
 2799W        W75092  25.551   3.803   1.448
 2800W        W75093   3.769  15.800  12.861
 2801W        W75094   4.248  36.849   2.737
 2802W        W75095  17.724   7.768  13.393
 2803W        W75096  44.782  25.137   1.335
 2804W        W75097  20.633   3.302   0.884
 2805W        W75098  43.409  15.680  13.959
 2806W        W75099   3.395   5.390   4.811
 2807W        W75100  27.121  11.796  10.474
 2808W        W75101  12.132   3.362  14.929
 2809W        W75102  42.924  28.454  13.801
 2810W        W75103  17.697  14.805  12.421
 2811W        W75104   8.768  31.086   2.738
 2812W        W75105   9.155   4.719  13.913
 2813W        W75106  40.314  40.500  13.842
 2814W        W75107  44.448  25.597   1.258
 2815W        W75108  10.822  27.447   3.161
 2816W        W75109  36.925  40.023   2.183
 2817W        W75110  31.052   9.842   1.262
 2818W        W75111   5.881   2.310  10.534
 2819W        W75112  34.970  40.029  12.947
 2820W        W75113  19.156  26.548   1.447
 2821W        W75114  41.894  38.409   1.423
 2822W        W75115  22.662   9.726   0.762
 2823W        W75116  21.239   1.823   0.765
 2824W        W75117  41.979   3.809  13.457
 2825W        W75118   1.784  22.744  13.064
 2826W        W75119  20.640  41.027   0.295
 2827W        W75120  26.554  43.987   3.661
 2828W        W75121   3.866   1.383  14.020
 2829W        W75122  40.494  39.496  13.451
 2830W        W75123   5.872  30.569   2.822
 2831W        W75124  43.897   9.294  11.447
 2832W        W75125  15.591  25.470   1.334
 2833W        W75126  34.512  24.084  11.914
 2834W        W75127   2.310  37.574   2.285
 2835W        W75128  15.594  16.311   3.794
 2836W        W75129  35.017   4.883  11.086
 2837W        W75130   6.746  13.330  13.012
 2838W        W75131  27.490   7.833  14.895
 2839W        W75132   5.195  29.667  14.298
 2840W        W75133   2.727  30.967  13.339
 2841W        W75134  36.027   2.374   0.335
 2842W        W75135   8.200  14.588   2.192
 2843W        W75136  38.864  40.889  14.005
 2844W        W75137  37.961  20.124  12.345
 2845W        W75138  36.872  19.673   0.377
 2846W        W75139  28.131  25.110  10.540
 2847W        W75140   2.292  10.794   4.704
 2848W        W75141  10.850   1.938   5.307
 2849W        W75142  31.994  13.650   0.428
 2850W        W75143   9.356  40.415  10.963
 2851W        W75144  32.107  31.983  10.889
 2852W        W75145  37.021  21.607  14.283
 2853W        W75146  19.631  44.425   1.289
 2854W        W75147  17.584  42.439   2.810
 2855W        W75148  14.128  13.622   3.252
 2856W        W75149  15.281  42.493   3.220
 2857W        W75150  24.120  31.579  11.080
 2858W        W75151   5.897   1.243  13.309
 2859W        W75152  23.690   5.880  12.851
 2860W        W75153  14.103  19.051   4.833
 2861W        W75154  33.913  15.112   2.785
 2862W        W75155  10.804  38.010  12.517
 2863W        W75156  34.863   0.812  10.596
 2864W        W75157  35.392   4.359   2.734
 2865W        W75158  17.089  12.306  13.544
 2866W        W75159  14.652  37.350   3.762
 2867W        W75160   5.438  33.913  14.490
 2868W        W75161  32.958  41.966  14.498
 2869W        W75162  19.608  25.978   3.366
 2870W        W75163  23.000  27.601   0.910
 2871W        W75164  23.164  22.011   3.302
 2872W        W75165   9.165  36.965   0.933
 2873W        W75166   6.320  28.518  13.055
 2874W        W75167  27.616  16.253   0.258
 2875W        W75168  29.093  27.518  11.400
 2876W        W75169  35.369  17.711   0.471
 2877W        W75170   4.755  24.629   2.785
 2878W        W75171   9.331  38.476   2.841
 2879W        W75172  34.556   4.443  14.782
 2880W        W75173  29.506  38.429  10.613
 2881W        W75174   3.868   5.902  14.996
 2882W        W75175  44.316  10.304   4.355
 2883W        W75176  31.146  17.215  12.343
 2884W        W75177  44.865  27.011  14.426
 2885W        W75178  41.392  12.170   2.187
 2886W        W75179  33.544   8.672   5.100
 2887W        W75180  27.571  27.538   0.939
 2888W        W75181  26.655  22.106   2.264
 2889W        W75182   5.903   7.746  12.443
 2890W        W75183  35.601  32.992  13.493
 2891W        W75184  12.348   6.827  10.923
 2892W        W75185  27.176   8.843   1.374
 2893W        W75186   7.228  13.332  10.465
 2894W        W75187  23.127  22.194   0.833
 2895W        W75188  28.439  36.497  13.040
 2896W        W75189  30.120   3.317  11.894
 2897W        W75190  21.056  44.754   0.275
 2898W        W75191  24.173  30.135  14.507
 2899W        W75192   8.744  19.713  13.443
 2900W        W75193  29.056  14.296  13.016
 2901W        W75194  19.088  24.618  11.080
 2902W        W75195  26.124   7.812   3.228
 2903W        W75196   7.323  13.637  13.995
 2904W        W75197  22.711  16.291   0.297
 2905W        W75198   9.644   8.175  13.401
 2906W        W75199  26.472  28.483  14.878
 2907W        W75200  26.525  30.570   4.816
 2908W        W75201  31.916  35.868   3.249
 2909W        W75202  33.566   2.949  11.381
 2910W        W75203   0.747  34.407   3.637
 2911W        W75204  34.043  17.235   1.913
 2912W        W75205  10.824  31.902  14.348
 2913W        W75206  22.062  16.627  14.991
 2914W        W75207  44.931   7.196  12.054
 2915W        W75208  44.901  27.524   0.263
 2916W        W75209  43.499  20.168  11.903
 2917W        W75210  28.645  39.319  10.901
 2918W        W75211  10.639  26.053   4.159
 2919W        W75212  14.764  26.204   0.933
 2920W        W75213   2.382   8.300   2.187
 2921W        W75214  35.600  26.475   4.688
 2922W        W75215  16.172   4.838   3.229
 2923W        W75216  37.531  35.363   0.334
 2924W        W75217  19.704   5.726   1.368
 2925W        W75218  42.826   7.293  14.010
 2926W        W75219  19.749  34.503  14.999
 2927W        W75220  44.813  40.429   0.297
 2928W        W75221  36.053  39.457   0.747
 2929W        W75222  35.004  45.000   0.765
 2930W        W75223  31.461  37.440   3.830
 2931W        W75224  34.924  26.647  14.015
 2932W        W75225  28.020   6.282  12.060
 2933W        W75226  12.179  21.651  10.957
 2934W        W75227  41.402  18.715   0.355
 2935W        W75228  27.102  31.042   3.204
 2936W        W75229  19.043  12.124  13.512
 2937W        W75230  44.782  35.525  10.507
 2938W        W75231  28.156  39.906  14.771
 2939W        W75232  16.234  44.996   1.817
 2940W        W75233  12.646   4.448  10.977
 2941W        W75234  25.144  26.633  13.442
 2942W        W75235  31.105  10.267   0.933
 2943W        W75236  21.536   1.919   1.258
 2944W        W75237  22.676  14.744  11.442
 2945W        W75238  24.075  37.434   0.757
 2946W        W75239   1.264   2.437  12.899
 2947W        W75240  26.120  39.970  13.834
 2948W        W75241  39.324   6.285   3.797
 2949W        W75242  11.180  22.217   3.659
 2950W        W75243  28.967  27.462  13.333
 2951W        W75244  36.082  31.454   3.192
 2952W        W75245  35.464  37.491  13.871
 2953W        W75246  34.119  22.570   2.809
 2954W        W75247  29.113  15.253  11.094
 2955W        W75248   1.940  17.573  10.576
 2956W        W75249  16.629  20.122  12.550
 2957W        W75250  32.591  18.129   3.209
 2958W        W75251   5.203  12.326   4.789
 2959W        W75252  37.522   2.796  10.420
 2960W        W75253  36.955  44.884  13.416
 2961W        W75254  34.493   8.847   1.354
 2962W        W75255   7.770  28.026   4.798
 2963W        W75256  23.087  35.016  13.997
 2964W        W75257  27.617  30.489  11.600
 2965W        W75258  16.583  21.135  10.567
 2966W        W75259   9.685  40.845   4.628
 2967W        W75260  34.927  17.626   1.805
 2968W        W75261  11.360  12.190   2.335
 2969W        W75262  44.280   6.703  14.026
 2970W        W75263  20.141  37.030   1.748
 2971W        W75264  21.226  43.987   1.736
 2972W        W75265  20.123   7.691   4.709
 2973W        W75266  10.324  33.097   0.823
 2974W        W75267  13.678  27.658   4.637
 2975W        W75268  20.555  16.262   4.187
 2976W        W75269   8.386  39.011  12.884
 2977W        W75270   3.377  26.106   0.909
 2978W        W75271  26.513  37.525   1.912
 2979W        W75272  36.846  36.560  11.565
 2980W        W75273  23.075  38.884   2.276
 2981W        W75274  40.893   4.449   0.298
 2982W        W75275  18.718  29.004   0.727
 2983W        W75276   1.295  41.507  14.318
 2984W        W75277  22.076   6.291  13.387
 2985W        W75278  21.705  22.509  14.297
 2986W        W75279  34.051  18.073  11.556
 2987W        W75280  38.006  25.503  12.348
 2988W        W75281  43.022  10.715   4.672
 2989W        W75282  22.036  17.630  13.528
 2990W        W75283  44.961  26.686   1.710
 2991W        W75284  20.084  22.180   3.868
 2992W        W75285  40.997  14.736  12.829
 2993W        W75286  31.015  34.945  11.523
 2994W        W75287  35.498  16.774  14.893
 2995W        W75288  36.921  25.007   0.805
 2996W        W75289  29.531   7.177  13.466
 2997W        W75290  24.005  25.217   9.925
 2998W        W75291  42.423   6.250  13.836
 2999W        W75292  43.793  21.190  14.399
 3000W        W75293  26.166  13.268   0.734
 3001W        W75294   1.444  19.740   0.318
 3002W        W75295   4.728  38.819  12.882
 3003W        W75296  25.481  42.284  11.467
 3004W        W75297   7.767   4.432  14.313
 3005W        W75298  43.881  16.185  10.526
 3006W        W75299  44.859  43.332  11.865
 3007W        W75300   5.786  26.095   2.898
 3008W        W75301  20.645  34.485  11.417
 3009W        W75302  41.491   2.301  12.501
 3010W        W75303  38.500  42.359   0.801
 3011W        W75304  19.092   9.314  13.932
 3012W        W75305  24.700  10.288  12.494
 3013W        W75306   7.895  28.967   4.189
 3014W        W75307  39.930  26.976  13.493
 3015W        W75308   6.838  12.662  13.337
 3016W        W75309   7.300  38.856   0.386
 3017W        W75310   7.266  17.211  12.984
 3018W        W75311   5.777  15.235  14.839
 3019W        W75312  30.955   7.291  10.588
 3020W        W75313  22.059  15.662  10.986
 3021W        W75314  35.481  31.423  10.440
 3022W        W75315  22.050  23.220   3.380
 3023W        W75316  29.023   6.701  13.346
 3024W        W75317   9.212  31.615   3.215
 3025W        W75318  19.555  20.595  13.938
 3026W        W75319  23.199   2.745  14.315
 3027W        W75320  41.420   0.855  11.569
 3028W        W75321  36.056  40.042  14.874
 3029W        W75322  25.962  40.480   4.256
 3030W        W75323  29.661  29.605  13.974
 3031W        W75324  13.322  25.708   0.793
 3032W        W75325   5.285  13.329   2.696
 3033W        W75326  21.220  11.765   1.818
 3034W        W75327   7.239  38.542   0.414
 3035W        W75328  17.061   4.808  11.121
 3036W        W75329  32.013  10.158   0.795
 3037W        W75330  35.040  35.967   1.858
 3038W        W75331   3.425  11.344   2.202
 3039W        W75332  21.741  26.095  10.957
 3040W        W75333  29.642  11.212   1.223
 3041W        W75334  28.008  23.033   2.361
 3042W        W75335  26.057   0.467   0.402
 3043W        W75336   2.942   2.463   0.795
 3044W        W75337  35.469  22.995   4.228
 3045W        W75338  23.113   3.796   3.631
 3046W        W75339  28.588  23.134  11.573
 3047W        W75340  10.161  43.348   1.433
 3048W        W75341  29.158   9.186  10.129
 3049W        W75342  35.523  20.069  10.947
 3050W        W75343  22.044  41.297   0.367
 3051W        W75344  36.358  24.133  13.053
 3052W        W75345  40.485   1.864   5.219
 3053W        W75346  26.538  32.602   3.723
 3054W        W75347  35.026  41.442   4.132
 3055W        W75348  17.711   9.882   1.934
 3056W        W75349   8.298  25.538   1.787
 3057W        W75350  17.719   2.413  14.853
 3058W        W75351  37.517   2.420   1.824
 3059W        W75352  41.913  21.629  11.462
 3060W        W75353  12.350  14.804  13.868
 3061W        W75354  43.298   7.270   0.873
 3062W        W75355  37.008   8.871   1.373
 3063W        W75356  13.228  10.708  13.430
 3064W        W75357  28.496  18.651  14.811
 3065W        W75358  20.250  14.269  13.892
 3066W        W75359  43.772  19.076  12.478
 3067W        W75360  12.286  33.471  14.012
 3068W        W75361  13.156  12.164  10.975
 3069W        W75362  16.791  29.643  11.586
 3070W        W75363   5.853  18.557  10.453
 3071W        W75364  18.214  31.532  10.113
 3072W        W75365  20.629  18.574   4.337
 3073W        W75366   3.791  30.044   4.177
 3074W        W75367  39.370  25.010   1.417
 3075W        W75368  35.507  44.910   4.294
 3076W        W75369  26.027  23.076  10.433
 3077W        W75370   6.716  35.407  14.308
 3078W        W75371  18.102  43.492   3.815
 3079W        W75372   3.451  20.031  12.869
 3080W        W75373   7.716  24.151  10.546
 3081W        W75374  26.596  25.695  10.617
 3082W        W75375   4.779  42.422  13.361
 3083W        W75376  20.108  22.651   5.574
 3084W        W75377  13.805  27.584  14.310
 3085W        W75378  25.084   5.895  12.439
 3086W        W75379  31.909  43.298   5.147
 3087W        W75380  27.628  31.514   2.205
 3088W        W75381   4.316  17.110  11.478
 3089W        W75382  34.910  30.415   1.882
 3090W        W75383   7.376  30.978   1.305
 3091W        W75384  17.271  31.948  13.995
 3092W        W75385  27.577  29.096  12.374
 3093W        W75386  33.402   5.774  13.528
 3094W        W75387   3.459   6.749  12.092
 3095W        W75388  22.598  28.633   0.794
 3096W        W75389  36.577  44.971   4.697
 3097W        W75390  28.561  20.706  10.083
 3098W        W75391  25.006  32.501  12.368
 3099W        W75392  39.988  22.058   3.279
 3100W        W75393  27.644  24.555   2.364
 3101W        W75394  28.025   8.750  11.881
 3102W        W75395  44.828  43.795   1.704
 3103W        W75396  30.512  44.921  10.468
 3104W        W75397  36.992   5.341   1.699
 3105W        W75398  42.878  10.713  13.953
 3106W        W75399  42.485   0.264  10.130
 3107W        W75400  32.418  33.901   2.696
 3108W        W75401  35.534  39.847  14.427
 3109W        W75402  14.615  44.466   2.381
 3110W        W75403  24.496  11.241  12.553
 3111W        W75404  11.718  27.083   1.238
 3112W        W75405  21.100  24.670  14.282
 3113W        W75406  10.795  43.913   1.909
 3114W        W75407   4.377  28.063  14.914
 3115W        W75408   8.304  22.612   3.299
 3116W        W75409   3.811   5.421  10.433
 3117W        W75410  42.831  30.027   4.200
 3118W        W75411  23.671  15.777  14.818
 3119W        W75412   7.267  25.581  10.530
 3120W        W75413  41.456  16.208  11.049
 3121W        W75414   6.410  17.251  12.927
 3122W        W75415   0.794  37.534  14.444
 3123W        W75416   2.458  33.394  14.012
 3124W        W75417  44.334  18.239   3.707
 3125W        W75418  42.408  31.608   4.719
 3126W        W75419  25.072  27.589   3.867
 3127W        W75420   4.205  43.286   0.316
 3128W        W75421  18.559  14.280   3.806
 3129W        W75422  14.286   2.747  14.940
 3130W        W75423  11.138   3.345   4.275
 3131W        W75424  32.907  35.426   4.286
 3132W        W75425   6.223   7.246   1.218
 3133W        W75426  37.023  11.193   2.868
 3134W        W75427  43.398  32.980  11.896
 3135W        W75428   9.214  36.024  14.322
 3136W        W75429  33.886  31.470  12.387
 3137W        W75430  11.808  22.741   5.178
 3138W        W75431  36.348  33.064  13.346
 3139W        W75432  18.103   0.965   0.943
 3140W        W75433  30.938   5.800   2.763
 3141W        W75434  10.648  31.097   4.740
 3142W        W75435   9.229  35.569   3.700
 3143W        W75436   9.325  19.563  11.955
 3144W        W75437  14.330  30.992   4.266
 3145W        W75438   6.361  40.998   1.832
 3146W        W75439  20.636  15.605   2.191
 3147W        W75440  34.997  19.574  10.079
 3148W        W75441  18.196  40.368  13.964
 3149W        W75442   9.843   4.355   3.629
 3150W        W75443  11.346  40.965  11.417
 3151W        W75444   7.745  26.196  14.894
 3152W        W75445  24.201  36.430   0.732
 3153W        W75446  44.467  21.138   3.249
 3154W        W75447  29.646  25.469   3.842
 3155W        W75448  30.029  21.030   0.794
 3156W        W75449  34.432  30.136   1.258
 3157W        W75450  38.064  32.082   4.290
 3158W        W75451  11.196  16.674  12.895
 3159W        W75452  39.525   0.781  14.419
 3160W        W75453  22.500  25.201  11.573
 3161W        W75454  15.816  15.136   3.796
 3162W        W75455  17.799  11.354  14.991
 3163W        W75456   6.397  40.338  13.985
 3164W        W75457  32.492  26.688   0.773
 3165W        W75458   8.668   4.348   4.156
 3166W        W75459  28.559   3.768  14.349
 3167W        W75460   0.408   1.467  12.048
 3168W        W75461   7.343  20.562   2.701
 3169W        W75462  13.336  32.896   1.353
 3170W        W75463  17.086  26.472   0.909
 3171W        W75464   5.218   0.345   3.319
 3172W        W75465  25.649  14.261  13.997
 3173W        W75466  33.452  28.985  10.619
 3174W        W75467   0.830  39.940  11.002
 3175W        W75468  20.098  26.082  11.904
 3176W        W75469  39.351  22.133   0.324
 3177W        W75470   5.816   1.368  12.919
 3178W        W75471  28.441  20.705   3.212
 3179W        W75472  31.058  33.444   3.745
 3180W        W75473  32.393  20.077   1.862
 3181W        W75474   4.726  21.056   3.761
 3182W        W75475  33.096  23.553   3.367
 3183W        W75476  12.195  32.908   4.341
 3184W        W75477  34.528   6.777  11.974
 3185W        W75478  41.423  37.499   4.277
 3186W        W75479  34.926  40.544  12.956
 3187W        W75480   7.399  39.551  12.466
 3188W        W75481   9.665  21.664   0.780
 3189W        W75482  17.158  35.065   2.332
 3190W        W75483  10.371  13.249   4.117
 3191W        W75484   8.729  34.533   2.804
 3192W        W75485  17.783  33.007   2.383
 3193W        W75486  37.490  15.765  12.503
 3194W        W75487   5.856  12.837   1.331
 3195W        W75488  11.273   5.292  10.513
 3196W        W75489  42.313  18.229   2.691
 3197W        W75490  20.121  19.131  10.607
 3198W        W75491   8.341  32.445  14.794
 3199W        W75492  40.906   0.968  10.455
 3200W        W75493  43.972  33.007   9.978
 3201W        W75494  42.788  25.549  14.324
 3202W        W75495   5.808  33.915   0.275
 3203W        W75496  11.198  33.961   4.604
 3204W        W75497   4.701   1.928  10.460
 3205W        W75498  21.549  14.618   2.774
 3206W        W75499  39.528  44.445   3.686
 3207W        W75500  30.976  17.159  10.468
 3208W        W75501  25.989  16.605  13.894
 3209W        W75502  10.665  37.384   2.307
 3210W        W75503  14.140  10.677  13.437
 3211W        W75504  21.100  18.215   2.714
 3212W        W75505  26.988  37.541   1.360
 3213W        W75506  18.689  13.269   0.248
 3214W        W75507  31.046  18.291   3.838
 3215W        W75508  27.013  11.690   1.301
 3216W        W75509   6.846  40.855  13.882
 3217W        W75510   3.274  44.776  13.986
 3218W        W75511   5.724   2.903  10.427
 3219W        W75512  18.682  33.957   9.481
 3220W        W75513   9.716   6.217   4.834
 3221W        W75514   5.749  31.084   2.664
 3222W        W75515  32.995  22.223   1.241
 3223W        W75516  39.398  12.205   2.791
 3224W        W75517  35.084   3.937  13.979
 3225W        W75518  12.673  15.174   3.333
 3226W        W75519  35.589  38.449  10.891
 3227W        W75520  24.593  16.266  11.929
 3228W        W75521  35.561  39.970  11.545
 3229W        W75522   9.651   6.376  11.062
 3230W        W75523   6.255  28.635  10.959
 3231W        W75524  39.523  35.528   4.612
 3232W        W75525  25.614  11.803  14.834
 3233W        W75526  36.538  42.819   1.901
 3234W        W75527   1.893  21.672   3.193
 3235W        W75528  38.332  29.984  12.429
 3236W        W75529  20.665  26.627  14.398
 3237W        W75530  16.700  11.841  13.961
 3238W        W75531  42.330   8.754  12.488
 3239W        W75532  29.020  13.244   3.182
 3240W        W75533  23.615  38.889   1.266
 3241W        W75534   4.713   0.758  12.988
 3242W        W75535   2.355  17.753  12.537
 3243W        W75536  26.693   0.493   2.701
 3244W        W75537  36.848   1.938  14.375
 3245W        W75538  11.348  19.664   2.282
 3246W        W75539   6.781   2.728   0.433
 3247W        W75540   5.902  37.507  10.556
 3248W        W75541  40.499  22.010   2.860
 3249W        W75542  32.607  41.368  12.512
 3250W        W75543  11.824  30.088  13.389
 3251W        W75544  23.588  23.176   4.769
 3252W        W75545  19.280   3.752   4.745
 3253W        W75546  42.487  34.498  11.931
 3254W        W75547  32.547   5.248   1.240
 3255W        W75548  19.555  31.943   0.789
 3256W        W75549  30.624   4.918  12.021
 3257W        W75550  33.113   8.748   3.221
 3258W        W75551  12.122  19.537   1.388
 3259W        W75552   1.362  25.508   4.338
 3260W        W75553  32.967  38.525   0.425
 3261W        W75554   1.460  30.948   1.357
 3262W        W75555   2.351  21.024  14.278
 3263W        W75556   1.754  15.639  12.946
 3264W        W75557  37.030   5.194  14.974
 3265W        W75558  19.610  19.552  11.576
 3266W        W75559   6.853  24.538   1.812
 3267W        W75560   5.406  35.974  11.572
 3268W        W75561  17.277  37.546  11.405
 3269W        W75562  37.506  29.484   5.098
 3270W        W75563   8.657  20.163   4.734
 3271W        W75564   8.865  19.664   3.785
 3272W        W75565  35.098  28.500  14.390
 3273W        W75566  28.494  20.185   2.193
 3274W        W75567  26.697   9.752  10.567
 3275W        W75568  43.991  19.251  12.851
 3276W        W75569  12.283  35.930   2.782
 3277W        W75570  40.953  32.060  11.976
 3278W        W75571  25.127   8.330  13.001
 3279W        W75572  27.534  30.090  10.577
 3280W        W75573  42.311  39.918  10.957
 3281W        W75574  37.909  31.109   3.811
 3282W        W75575   5.379  43.489  10.487
 3283W        W75576  11.359  12.305  12.993
 3284W        W75577  19.072  41.002  14.352
 3285W        W75578  43.922   4.755  12.490
 3286W        W75579  11.749  16.204   3.341
 3287W        W75580   1.831  18.588   4.266
 3288W        W75581  36.510  24.639  10.975
 3289W        W75582  17.070  32.523   1.371
 3290W        W75583   6.877   3.438   2.395
 3291W        W75584   0.363  34.072   5.688
 3292W        W75585  18.079  33.450  13.540
 3293W        W75586  37.519  19.755   3.680
 3294W        W75587  38.512   8.713  10.982
 3295W        W75588  40.014  29.069  11.075
 3296W        W75589  12.708  34.983  14.843
 3297W        W75590   5.843  34.517   0.396
 3298W        W75591  10.770  19.269   1.256
 3299W        W75592   6.195  36.381  14.291
 3300W        W75593  11.819  24.586  12.008
 3301W        W75594  22.719  20.740  13.929
 3302W        W75595  23.621  35.531  10.997
 3303W        W75596  32.102  28.966   1.269
 3304W        W75597   1.377  36.934  12.503
 3305W        W75598  23.997  26.472  13.968
 3306W        W75599  35.502  39.820   2.351
 3307W        W75600  37.016  34.981   0.795
 3308W        W75601   5.342   4.212   0.908
 3309W        W75602   5.271  25.028  13.961
 3310W        W75603  41.849  25.508   0.380
 3311W        W75604  28.667   7.722   3.675
 3312W        W75605   0.825  13.786  10.618
 3313W        W75606  14.340  40.506  14.839
 3314W        W75607  24.169  27.082   0.374
 3315W        W75608  28.588  25.576  14.472
 3316W        W75609  33.031  20.226   2.339
 3317W        W75610  43.781  41.469  13.316
 3318W        W75611   7.727  36.350   5.165
 3319W        W75612  42.387  29.491   0.313
 3320W        W75613  43.348  36.859   1.400
 3321W        W75614  43.009   2.287   0.261
 3322W        W75615  17.232  43.013  14.865
 3323W        W75616   3.903  15.200  12.351
 3324W        W75617  11.822  23.240  11.462
 3325W        W75618  20.235  18.061  11.882
 3326W        W75619  25.963  16.096   0.318
 3327W        W75620  43.872   8.398  11.410
 3328W        W75621  43.413  14.708  14.760
 3329W        W75622  13.753  13.720  10.456
 3330W        W75623  37.375  43.819   1.408
 3331W        W75624  33.088  40.338   2.267
 3332W        W75625  42.391  24.088  12.061
 3333W        W75626   4.431  36.386  12.889
 3334W        W75627  29.080  34.995  10.984
 3335W        W75628  27.480  43.375  14.867
 3336W        W75629   7.299  14.727   0.775
 3337W        W75630  16.181  37.999  13.450
 3338W        W75631   2.280  42.907  13.377
 3339W        W75632  33.468   3.819  13.470
 3340W        W75633  20.613  26.696  10.644
 3341W        W75634  16.113  10.169   1.860
 3342W        W75635  41.995   2.899   1.284
 3343W        W75636  11.849  20.694   3.266
 3344W        W75637  17.600   1.947  11.914
 3345W        W75638  11.690  16.287  10.992
 3346W        W75639  32.540   1.351  14.513
 3347W        W75640  41.915   6.402   2.221
 3348W        W75641   0.775  27.495   3.710
 3349W        W75642  22.207  34.426   4.124
 3350W        W75643   0.765  41.869  12.952
 3351W        W75644  23.579  41.832   4.245
 3352W        W75645   9.738  41.789   1.751
 3353W        W75646  26.586   7.397   4.169
 3354W        W75647  29.632  20.156  11.098
 3355W        W75648  19.207   6.789  12.547
 3356W        W75649  32.019  24.180  12.831
 3357W        W75650  16.112  23.997  14.328
 3358W        W75651   9.722  39.017   1.369
 3359W        W75652  20.265  34.488   2.376
 3360W        W75653  32.894   8.789   3.770
 3361W        W75654  23.719  36.391  14.465
 3362W        W75655   0.484  15.190   0.763
 3363W        W75656  40.975  31.971   5.218
 3364W        W75657  33.120  11.857  12.857
 3365W        W75658  13.682   1.373   1.805
 3366W        W75659  26.104  41.014   0.781
 3367W        W75660  26.493  26.460   1.780
 3368W        W75661  19.561  39.496   2.675
 3369W        W75662   3.902  24.008  14.463
 3370W        W75663  42.017   0.756  13.869
 3371W        W75664   0.319  23.229  11.937
 3372W        W75665  28.078  38.454   0.436
 3373W        W75666   9.786  28.506   4.285
 3374W        W75667  44.948  12.151   1.340
 3375W        W75668  26.509  15.142  11.430
 3376W        W75669  15.674  27.073  10.900
 3377W        W75670  29.008  16.174   3.634
 3378W        W75671  26.147  20.660  13.846
 3379W        W75672  44.771   5.927   3.146
 3380W        W75673  24.676  37.416  13.444
 3381W        W75674  26.078  17.589  12.879
 3382W        W75675  44.004   1.850  10.544
 3383W        W75676  43.455  11.821   3.765
 3384W        W75677  18.607   6.900   0.270
 3385W        W75678  16.640  14.661   4.660
 3386W        W75679   8.729  12.814   0.915
 3387W        W75680  29.055  26.670   4.629
 3388W        W75681  27.495  12.727  10.995
 3389W        W75682  22.028  27.943   0.763
 3390W        W75683  21.609   6.749  13.923
 3391W        W75684  32.505  15.211   3.320
 3392W        W75685   3.427  17.601  14.961
 3393W        W75686  17.772  21.525   3.858
 3394W        W75687   4.267  16.242  11.115
 3395W        W75688   5.714  12.358   2.195
 3396W        W75689   0.345   6.790  10.998
 3397W        W75690  22.506   5.866  11.442
 3398W        W75691  28.022  11.769  10.888
 3399W        W75692  41.394  39.922  14.860
 3400W        W75693  11.310  43.285  13.041
 3401W        W75694  43.329  17.745   3.832
 3402W        W75695  34.584  40.939  11.969
 3403W        W75696   1.736  35.035   1.285
 3404W        W75697  11.799   8.822   2.342
 3405W        W75698  34.975   8.394  14.857
 3406W        W75699  32.889  26.646   4.137
 3407W        W75700  30.149  14.662  13.337
 3408W        W75701  10.727  44.811   4.130
 3409W        W75702  26.117  13.798   3.368
 3410W        W75703  40.518  19.637  14.029
 3411W        W75704  11.210   1.393   0.416
 3412W        W75705  17.618  27.954  13.437
 3413W        W75706  35.076   2.871  10.907
 3414W        W75707  30.997  20.208  11.422
 3415W        W75708  16.794   1.758   2.779
 3416W        W75709  14.293  12.359   3.733
 3417W        W75710  35.039  36.991   1.329
 3418W        W75711  42.313  35.102   3.832
 3419W        W75712   3.899  40.432  12.927
 3420W        W75713  34.101  22.596   1.399
 3421W        W75714  28.622   2.742  14.441
 3422W        W75715  22.544  28.141   4.347
 3423W        W75716   9.178  40.817   3.823
 3424W        W75717  34.929   2.400   0.861
 3425W        W75718  35.546  24.507   0.405
 3426W        W75719  32.917  25.137  14.295
 3427W        W75720  33.516  26.978  10.445
 3428W        W75721  30.992  31.119  13.859
 3429W        W75722  18.668  15.164   1.236
 3430W        W75723  37.525  36.917  12.530
 3431W        W75724  32.887   5.317   3.768
 3432W        W75725  34.402  43.932  10.975
 3433W        W75726  29.659  21.592  12.463
 3434W        W75727  14.111  20.550   0.378
 3435W        W75728  27.548  16.126   0.877
 3436W        W75729   9.797  11.204  14.328
 3437W        W75730  34.515  12.269  12.552
 3438W        W75731  11.856  37.335  10.522
 3439W        W75732  28.557  40.358  13.836
 3440W        W75733   8.160  28.099  10.575
 3441W        W75734   1.351  27.050  10.633
 3442W        W75735  25.507  35.592  14.785
 3443W        W75736  18.583  22.119  10.411
 3444W        W75737  18.081  13.817   1.404
 3445W        W75738   5.790  27.478  14.812
 3446W        W75739  38.865   9.281   0.852
 3447W        W75740  33.044  24.209   3.179
 3448W        W75741  33.121  16.652  13.311
 3449W        W75742  14.724  25.529   1.802
 3450W        W75743   5.925  36.857  11.523
 3451W        W75744  39.538   8.187  11.545
 3452W        W75745  13.712  23.144   2.684
 3453W        W75746   7.686   2.267   1.730
 3454W        W75747  14.833   5.915   0.263
 3455W        W75748  31.007  35.532  14.758
 3456W        W75749  10.238  30.009   3.632
 3457W        W75750  41.514  43.794  11.991
 3458W        W75751   2.340  26.697  13.311
 3459W        W75752  30.074  29.014  10.416
 3460W        W75753  40.351  15.734   5.318
 3461W        W75754  37.007  24.128   1.921
 3462W        W75755  21.064  29.003  13.949
 3463W        W75756  42.834  39.863  14.951
 3464W        W75757  34.370  17.733   0.857
 3465W        W75758   9.804   0.383   4.140
 3466W        W75759  35.443   3.359  14.784
 3467W        W75760  38.844  12.824   2.750
 3468W        W75761   3.711  38.904  10.467
 3469W        W75762  38.948  24.612  12.516
 3470W        W75763  41.506  43.333  12.050
 3471W        W75764  20.224  34.448  11.884
 3472W        W75765   7.674  44.353  13.480
 3473W        W75766   0.360  44.774  13.865
 3474W        W75767  14.331  15.305  14.904
 3475W        W75768   3.336  32.977   3.758
 3476W        W75769  26.134  11.262   0.940
 3477W        W75770   7.320   4.340  10.925
 3478W        W75771  18.720  32.941   1.289
 3479W        W75772  32.088  14.112  11.120
 3480W        W75773  20.158   5.774  14.793
 3481W        W75774   3.236  25.701   3.807
 3482W        W75775  30.465  21.064  10.499
 3483W        W75776  29.066  19.253  13.911
 3484W        W75777  37.009  21.594   3.805
 3485W        W75778  31.071  17.792   2.712
 3486W        W75779  13.637  28.176   4.636
 3487W        W75780  10.789   1.274   1.310
 3488W        W75781  37.498  36.944   3.792
 3489W        W75782  20.760   4.733  14.366
 3490W        W75783   9.339  14.157   4.296
 3491W        W75784   4.204  11.363   1.388
 3492W        W75785  27.128  26.478   3.815
 3493W        W75786   9.245   3.725   1.768
 3494W        W75787  26.471  26.120  10.017
 3495W        W75788  40.491  44.300   1.735
 3496W        W75789  42.502   9.272  12.943
 3497W        W75790  14.719  13.787   2.265
 3498W        W75791  41.392   3.769   3.210
 3499W        W75792  30.986  23.677  13.893
 3500W        W75793   2.421  29.982   4.179
 3501W        W75794  34.612   0.744  13.425
 3502W        W75795  18.760  29.105  11.391
 3503W        W75796  41.917  22.175   2.202
 3504W        W75797  31.500  33.920   2.669
 3505W        W75798  40.961  28.076  12.969
 3506W        W75799  31.561  28.446   3.373
 3507W        W75800  36.852  26.569  13.324
 3508W        W75801  25.638  11.627  11.042
 3509W        W75802  39.864  43.857  12.386
 3510W        W75803  16.186  36.486   0.893
 3511W        W75804   4.762  10.872   2.863
 3512W        W75805  15.810   1.789   0.786
 3513W        W75806   6.249  23.169  13.046
 3514W        W75807  11.656  10.336  14.972
 3515W        W75808  40.012  38.970  13.018
 3516W        W75809  32.112  44.276   4.672
 3517W        W75810  15.809  32.036   1.836
 3518W        W75811  28.563   4.350  11.510
 3519W        W75812  22.091  36.876   0.749
 3520W        W75813  17.607  34.914  13.803
 3521W        W75814   4.388  33.565  10.114
 3522W        W75815  41.953  28.660   1.815
 3523W        W75816  23.206   9.391   0.295
 3524W        W75817  39.008  44.375   0.952
 3525W        W75818  42.392  19.679   3.784
 3526W        W75819  43.473   6.685  12.961
 3527W        W75820  25.606  36.352  10.904
 3528W        W75821  41.917   9.844   2.201
 3529W        W75822   2.327   2.720  14.939
 3530W        W75823  30.529  10.662   2.313
 3531W        W75824   3.261  37.521  14.763
 3532W        W75825  38.430  42.341  14.344
 3533W        W75826  24.538  35.860  11.972
 3534W        W75827   3.857  39.918  11.862
 3535W        W75828  35.585  11.365  13.008
 3536W        W75829   7.712  20.118   4.653
 3537W        W75830   2.849   5.249  11.540
 3538W        W75831  40.321  10.172  11.448
 3539W        W75832  11.228   7.730   0.270
 3540W        W75833  35.957  13.252   3.774
 3541W        W75834  22.036  15.123   3.279
 3542W        W75835  18.788  29.070   2.377
 3543W        W75836  33.084   5.427  10.619
 3544W        W75837  16.282  26.157  13.905
 3545W        W75838  41.932  38.352   0.912
 3546W        W75839  24.050   1.466  14.350
 3547W        W75840  33.104  31.940  13.540
 3548W        W75841  33.613  36.421   4.729
 3549W        W75842  11.737  30.025   3.689
 3550W        W75843  20.258   9.303   0.342
 3551W        W75844  23.582  23.145  11.097
 3552W        W75845  19.112  41.439   0.792
 3553W        W75846  35.972  42.407  11.515
 3554W        W75847  23.201  29.636  13.920
 3555W        W75848   0.810  37.922   3.642
 3556W        W75849  42.777   1.907  12.910
 3557W        W75850  14.116   4.232   9.548
 3558W        W75851   0.894  34.372   2.701
 3559W        W75852   6.393  40.540   2.310
 3560W        W75853  21.559  44.889  10.431
 3561W        W75854  25.596  37.434  13.938
 3562W        W75855  42.838  14.804   2.809
 3563W        W75856  37.373  18.218   0.265
 3564W        W75857  32.485   8.880   9.921
 3565W        W75858  30.150  44.263  14.947
 3566W        W75859  32.493  37.950  10.464
 3567W        W75860   2.800  23.515   3.801
 3568W        W75861  30.054  41.839   0.298
 3569W        W75862   3.406  31.940  14.380
 3570W        W75863   2.365   2.351  12.898
 3571W        W75864  19.617   4.356  11.388
 3572W        W75865  22.131  41.413   4.820
 3573W        W75866   8.890  42.917   4.738
 3574W        W75867   1.959  37.927   0.450
 3575W        W75868   8.374  42.479   0.465
 3576W        W75869  22.554   2.847  12.440
 3577W        W75870  42.959  32.112   3.735
 3578W        W75871  22.182   2.308  11.951
 3579W        W75872  40.536  41.304  12.902
 3580W        W75873  17.623  22.188   3.705
 3581W        W75874  20.197  33.971   4.631
 3582W        W75875   8.230   7.315  10.430
 3583W        W75876  14.687  33.437   1.843
 3584W        W75877   7.818  25.505   3.287
 3585W        W75878  20.224   1.420   0.947
 3586W        W75879  31.638   5.785  14.948
 3587W        W75880  18.675  43.910  12.931
 3588W        W75881  11.700  31.507   4.303
 3589W        W75882  43.396  16.108   5.083
 3590W        W75883  38.889  18.725   0.286
 3591W        W75884  42.989  13.613   0.314
 3592W        W75885  29.052  25.521  14.926
 3593W        W75886  12.615   6.804   4.791
 3594W        W75887  37.446  25.540  10.520
 3595W        W75888  40.866  36.472   2.316
 3596W        W75889  23.990   4.867   9.930
 3597W        W75890   6.258  33.910   1.327
 3598W        W75891  25.657   1.391   1.782
 3599W        W75892  37.934  11.335   0.328
 3600W        W75893  31.441  21.261   1.771
 3601W        W75894  37.376  42.284   1.824
 3602W        W75895  43.953   4.715  12.006
 3603W        W75896  34.400  15.597   1.312
 3604W        W75897  26.612  24.124   4.304
 3605W        W75898  28.049  35.507  14.837
 3606W        W75899  41.414   0.912  13.865
 3607W        W75900   3.272  44.453  12.554
 3608W        W75901  35.034   6.698  13.923
 3609W        W75902  25.094   2.903  10.554
 3610W        W75903  26.151  36.573  12.478
 3611W        W75904   2.323  11.678   0.784
 3612W        W75905  36.378  20.234   1.259
 3613W        W75906  32.556  20.597   2.846
 3614W        W75907  19.675  13.689   2.341
 3615W        W75908  15.591  36.427  14.785
 3616W        W75909  10.747  36.429  14.911
 3617W        W75910   5.276  10.298  14.298
 3618W        W75911  17.070  21.688   4.625
 3619W        W75912  28.496  14.634  14.451
 3620W        W75913  31.086  40.942  10.513
 3621W        W75914   2.744  38.394   2.391
 3622W        W75915  32.983  13.105  13.535
 3623W        W75916  28.063  38.389   1.349
 3624W        W75917  38.327   6.315  11.861
 3625W        W75918   9.690   2.730   0.266
 3626W        W75919  15.796  23.495  11.974
 3627W        W75920  12.317   0.968   2.413
 3628W        W75921   1.872  26.087  11.920
 3629W        W75922  26.562   4.805   3.713
 3630W        W75923  33.505  35.941   4.642
 3631W        W75924   6.243  16.119  12.085
 3632W        W75925  41.354   1.475   4.180
 3633W        W75926  13.816  37.509  10.523
 3634W        W75927  36.062   1.476   1.757
 3635W        W75928   1.906  18.736  11.480
 3636W        W75929  16.734  27.465  11.485
 3637W        W75930   8.369  30.000  11.506
 3638W        W75931  31.079   9.343   4.738
 3639W        W75932   9.699  43.884   3.349
 3640W        W75933   9.292  21.581  11.986
 3641W        W75934  27.998  18.729   0.285
 3642W        W75935   0.442  32.963   1.887
 3643W        W75936  25.551  15.601   1.264
 3644W        W75937  32.936  38.929   1.349
 3645W        W75938  27.481  39.857  13.441
 3646W        W75939  41.359  13.199  14.434
 3647W        W75940  20.218  19.560   3.824
 3648W        W75941  25.585  23.240   2.341
 3649W        W75942  10.248  29.504  10.630
 3650W        W75943   1.413   7.682  14.884
 3651W        W75944  44.401  31.581  11.981
 3652W        W75945  14.748   1.934  10.532
 3653W        W75946  13.682  38.333  12.070
 3654W        W75947  21.514  19.547  12.430
 3655W        W75948  12.214  29.120  11.061
 3656W        W75949  28.012  25.186  11.425
 3657W        W75950  18.721  20.612   0.367
 3658W        W75951   6.850   4.823  13.795
 3659W        W75952  36.561  35.072   3.365
 3660W        W75953   8.760  23.128   3.242
 3661W        W75954  30.078   4.741  14.406
 3662W        W75955  14.127  35.076   1.232
 3663W        W75956   5.328  34.966  11.051
 3664W        W75957  15.775   8.274  14.413
 3665W        W75958  34.494  37.898  14.929
 3666W        W75959  31.032   4.405   3.370
 3667W        W75960   5.722   5.385  11.862
 3668W        W75961  18.567   9.781   0.330
 3669W        W75962  26.127   9.238   3.752
 3670W        W75963  37.898   2.937   1.439
 3671W        W75964   7.883  23.653  13.511
 3672W        W75965  40.428   1.412   3.824
 3673W        W75966  33.106  29.528  11.469
 3674W        W75967  38.034  26.131   0.276
 3675W        W75968  21.088   4.292   2.870
 3676W        W75969  12.124   3.227   2.309
 3677W        W75970  23.655  28.184  11.590
 3678W        W75971  25.978   5.840  11.036
 3679W        W75972   6.357  27.964  11.440
 3680W        W75973  12.822  39.391  10.964
 3681W        W75974  32.132  22.607   3.276
 3682W        W75975  14.138  13.839  10.558
 3683W        W75976  25.085  25.203   4.824
 3684W        W75977   3.243  17.184  11.898
 3685W        W75978  35.485  37.939   3.794
 3686W        W75979  34.963  11.265   4.272
 3687W        W75980  26.070  35.037   1.355
 3688W        W75981   5.924   8.865  10.556
 3689W        W75982  39.529  37.056   3.715
 3690W        W75983  26.486  37.479  13.039
 3691W        W75984  11.321  28.439   3.327
 3692W        W75985  44.853  28.610  12.443
 3693W        W75986  43.381  21.246   4.769
 3694W        W75987  37.843  10.172   0.264
 3695W        W75988  42.881  20.679  10.947
 3696W        W75989  40.482   8.801  13.436
 3697W        W75990  12.131  21.080   0.378
 3698W        W75991  21.081  13.135   2.384
 3699W        W75992  25.114  32.559  14.007
 3700W        W75993  17.672   0.955  11.094
 3701W        W75994  36.436  42.291  10.980
 3702W        W75995  11.748  13.624   3.809
 3703W        W75996  26.568  16.301  13.826
 3704W        W75997  29.980   8.190   4.261
 3705W        W75998  38.455  38.075  14.380
 3706W        W75999  43.406   8.402   4.157
 3707W        W76000  21.564   8.164  14.769
 3708W        W76001   0.908   3.298  13.897
 3709W        W76002  26.639  23.682   3.685
 3710W        W76003  35.579  24.481   1.841
 3711W        W76004  31.095  27.063   2.236
 3712W        W76005  40.951   0.949  12.899
 3713W        W76006   2.873   1.326   1.733
 3714W        W76007  27.060  27.131  14.340
 3715W        W76008  44.338  38.474   5.251
 3716W        W76009  23.018  21.571  10.975
 3717W        W76010  12.745  38.820   2.377
 3718W        W76011   7.299  16.149  12.548
 3719W        W76012  41.323  20.104   3.659
 3720W        W76013  33.577  29.539   2.378
 3721W        W76014  36.084  38.493  13.032
 3722W        W76015  31.553   0.949  12.987
 3723W        W76016  38.543  22.573  10.418
 3724W        W76017  27.118  22.620  10.590
 3725W        W76018  23.997   2.777  13.795
 3726W        W76019   0.404  30.557   1.835
 3727W        W76020  38.043  42.902   2.898
 3728W        W76021  31.989  39.823   5.108
 3729W        W76022  30.159  12.721  12.085
 3730W        W76023  42.350  27.677  10.526
 3731W        W76024  13.190  40.485   4.692
 3732W        W76025   2.233  28.629   2.378
 3733W        W76026  12.696  40.470   4.624
 3734W        W76027  33.554  25.498   4.605
 3735W        W76028  16.160  30.555   2.267
 3736W        W76029  23.611  39.481   4.663
 3737W        W76030  42.287   3.284  12.948
 3738W        W76031  17.685   6.747  12.525
 3739W        W76032  20.096  23.502  13.802
 3740W        W76033  17.735  41.018   0.290
 3741W        W76034  35.588  12.696  13.832
 3742W        W76035  42.021  30.458  11.566
 3743W        W76036  26.496  15.194   3.678
 3744W        W76037  36.452   8.229   2.799
 3745W        W76038  25.994  36.968   3.659
 3746W        W76039  11.745  31.538   1.783
 3747W        W76040  39.456   8.736  11.612
 3748W        W76041  30.083  14.795   2.742
 3749W        W76042  37.926  30.631  14.381
 3750W        W76043   2.923  38.071   1.783
 3751W        W76044  44.799  24.714   0.460
 3752W        W76045  19.615   4.335   0.339
 3753W        W76046   0.321   9.371   4.252
 3754W        W76047  32.954  34.576   2.415
 3755W        W76048  32.000  27.662  12.443
 3756W        W76049   2.260  15.646   0.764
 3757W        W76050  42.524   3.876  10.496
 3758W        W76051   9.248  25.119   0.849
 3759W        W76052  35.891   2.232  13.386
 3760W        W76053  16.679  11.702  13.322
 3761W        W76054  19.144  22.539  10.145
 3762W        W76055  42.479   6.874   2.731
 3763W        W76056  21.651  21.619  12.947
 3764W        W76057  20.204  21.560  11.908
 3765W        W76058  42.976   1.775   4.667
 3766W        W76059  15.661  44.957  10.468
 3767W        W76060  10.266  30.113  12.574
 3768W        W76061  40.025  26.530   2.845
 3769W        W76062  41.349  41.332  11.918
 3770W        W76063  21.539   3.755   0.754
 3771W        W76064  40.054  18.651  10.616
 3772W        W76065  35.026  39.931   3.727
 3773W        W76066  17.611  30.989   0.290
 3774W        W76067  36.027   3.737   4.214
 3775W        W76068  28.031  42.369   2.350
 3776W        W76069   4.798  23.158   2.358
 3777W        W76070  13.619  23.161   3.694
 3778W        W76071  12.804  19.084  13.020
 3779W        W76072  11.346  15.216   4.770
 3780W        W76073  11.783  30.592   1.294
 3781W        W76074  36.943  11.695  11.874
 3782W        W76075  14.660   7.831   1.397
 3783W        W76076  36.361   7.870  11.941
 3784W        W76077  10.801  14.210   4.319
 3785W        W76078  21.225  33.526  10.046
 3786W        W76079  11.822  31.402   4.795
 3787W        W76080   1.288  14.829  10.981
 3788W        W76081  16.748  38.352   2.308
 3789W        W76082  21.697  43.275   1.927
 3790W        W76083  20.648  32.441  14.458
 3791W        W76084  22.247  36.995   2.229
 3792W        W76085  36.972  38.928   2.688
 3793W        W76086  14.246  38.064  12.970
 3794W        W76087  21.145  19.622   1.718
 3795W        W76088  14.171  31.507   3.826
 3796W        W76089  40.927  40.004   3.229
 3797W        W76090  44.857  12.855  14.860
 3798W        W76091  14.648   7.707  11.430
 3799W        W76092  43.935  29.985   1.766
 3800W        W76093   2.942  31.528   1.877
 3801W        W76094  32.390  33.564  14.023
 3802W        W76095  21.169  41.476   1.723
 3803W        W76096  37.923  22.135  11.499
 3804W        W76097  14.324  41.314  13.468
 3805W        W76098  35.869  29.616   4.728
 3806W        W76099  22.118  41.873   2.896
 3807W        W76100  13.814  32.516   3.689
 3808W        W76101   9.887   5.773   1.292
 3809W        W76102  41.850  34.470   3.750
 3810W        W76103   9.166  27.006  13.821
 3811W        W76104  38.879  31.011  10.429
 3812W        W76105   0.749   2.927   0.368
 3813W        W76106  28.135  26.205   0.742
 3814W        W76107  28.126  21.062   4.615
 3815W        W76108  22.084  34.442   0.454
 3816W        W76109   9.280  30.565   0.941
 3817W        W76110   4.767   7.273   3.757
 3818W        W76111  34.531  17.268   1.757
 3819W        W76112  37.581  10.796   1.364
 3820W        W76113  30.490  23.540  13.427
 3821W        W76114   5.414  24.229  13.975
 3822W        W76115  29.528  17.688   3.654
 3823W        W76116  20.135  40.000  11.414
 3824W        W76117  32.618   4.815  14.449
 3825W        W76118  38.551  30.550   2.291
 3826W        W76119  40.948   2.935  10.910
 3827W        W76120  25.640  25.965  14.445
 3828W        W76121  23.508  11.640   4.149
 3829W        W76122  25.067  13.213  12.836
 3830W        W76123  38.431  38.888  11.098
 3831W        W76124  43.856  37.017   0.740
 3832W        W76125  35.008  38.847   2.217
 3833W        W76126  14.296  39.558  10.536
 3834W        W76127  37.912  28.139   0.430
 3835W        W76128  41.916  16.311   2.351
 3836W        W76129  35.436  37.436  12.873
 3837W        W76130  40.920   8.193  14.894
 3838W        W76131   0.391  20.553   1.314
 3839W        W76132  32.398  44.757   1.831
 3840W        W76133  34.523  31.585   3.340
 3841W        W76134   1.749   9.818  12.992
 3842W        W76135  43.379   5.884  12.825
 3843W        W76136  33.622  29.094   2.321
 3844W        W76137   2.399  18.551  12.869
 3845W        W76138   2.326   9.883   4.166
 3846W        W76139  11.258  42.827  12.826
 3847W        W76140  23.534  34.433  12.903
 3848W        W76141  26.026  21.690   1.761
 3849W        W76142   8.243  29.959  14.011
 3850W        W76143  40.489  28.583   3.760
 3851W        W76144   0.915  20.078   1.751
 3852W        W76145  41.887   8.273   2.849
 3853W        W76146  12.840  35.591  11.513
 3854W        W76147  27.544  41.477  10.619
 3855W        W76148  24.711  22.527  14.787
 3856W        W76149  28.166   1.271  11.055
 3857W        W76150  28.155  28.528  12.505
 3858W        W76151   1.831  16.149  11.566
 3859W        W76152   3.797   6.300   0.862
 3860W        W76153  30.921  24.169   3.279
 3861W        W76154  19.188  23.010   3.157
 3862W        W76155  21.079   6.829   0.380
 3863W        W76156  41.921   5.357   1.912
 3864W        W76157  32.003   6.894  13.984
 3865W        W76158  28.633  39.506  12.513
 3866W        W76159   1.467  23.643   3.632
 3867W        W76160  16.243  42.329  12.937
 3868W        W76161  16.199   8.312  11.593
 3869W        W76162  27.020  32.599  12.833
 3870W        W76163  13.109  37.428   4.161
 3871W        W76164  18.072  39.882  14.026
 3872W        W76165  30.492  19.062  10.572
 3873W        W76166  25.065   0.326  13.486
 3874W        W76167  21.066  35.871  13.810
 3875W        W76168  42.438  30.158  14.944
 3876W        W76169  36.938  32.607  13.029
 3877W        W76170   7.685  14.782  12.549
 3878W        W76171   1.420   9.719  11.911
 3879W        W76172  30.570  17.673   1.742
 3880W        W76173  18.604  34.021   2.335
 3881W        W76174  37.934   9.747  12.489
 3882W        W76175  25.546   3.772  14.972
 3883W        W76176  34.509  11.314  12.534
 3884W        W76177  41.452   7.693  12.058
 3885W        W76178  44.844  15.710   2.226
 3886W        W76179  24.551  25.566  10.980
 3887W        W76180  34.876  18.780  13.307
 3888W        W76181  15.696   9.207   1.757
 3889W        W76182  19.595  31.137   9.630
 3890W        W76183  35.432  42.952  11.508
 3891W        W76184  17.149  13.706  14.830
 3892W        W76185  34.522  23.202  14.862
 3893W        W76186  38.327  28.482  13.966
 3894W        W76187  29.989  24.123  11.876
 3895W        W76188  38.932  30.600  10.521
 3896W        W76189   8.806  32.119   2.808
 3897W        W76190   6.302   6.233  11.424
 3898W        W76191  32.492  17.677   2.698
 3899W        W76192  22.079  17.735  13.020
 3900W        W76193   7.234  16.608  13.992
 3901W        W76194   0.269  21.189   4.640
 3902W        W76195  21.039  17.128   2.229
 3903W        W76196  18.279  31.571  11.999
 3904W        W76197   1.327  22.221  14.787
 3905W        W76198   5.290  33.039  10.940
 3906W        W76199  34.099  38.925  12.976
 3907W        W76200  10.294  40.845  11.556
 3908W        W76201  19.233  18.678   2.683
 3909W        W76202  36.471  12.662   0.268
 3910W        W76203   3.925  38.004   4.188
 3911W        W76204  35.510  11.249  11.861
 3912W        W76205  29.006  22.108   0.474
 3913W        W76206  11.734  39.471  13.487
 3914W        W76207  43.361  34.058   0.294
 3915W        W76208  22.180  26.679  13.356
 3916W        W76209   4.936   0.364  12.953
 3917W        W76210   1.750  44.862   4.691
 3918W        W76211  29.056  43.897   2.204
 3919W        W76212  28.119  23.076   4.738
 3920W        W76213   2.799  38.888   1.391
 3921W        W76214  39.549  33.439  12.380
 3922W        W76215  19.668  26.574  12.400
 3923W        W76216  19.630  15.250  11.384
 3924W        W76217  31.995  12.262  14.877
 3925W        W76218  15.181   2.446  10.422
 3926W        W76219  26.586  40.824   1.756
 3927W        W76220  10.193  28.124   2.667
 3928W        W76221  36.584   3.301  11.120
 3929W        W76222  27.499  12.184   4.742
 3930W        W76223  10.679   4.303  11.502
 3931W        W76224  31.576  26.632   3.320
 3932W        W76225  42.313   5.697   3.734
 3933W        W76226  18.594  33.041  11.530
 3934W        W76227  36.444   8.859   1.227
 3935W        W76228  13.256  44.489  14.345
 3936W        W76229  41.362  22.508   2.900
 3937W        W76230  35.592  20.616   1.928
 3938W        W76231  21.636  19.084  13.846
 3939W        W76232  36.941  14.775   1.766
 3940W        W76233  16.171  22.995   2.248
 3941W        W76234  22.192  13.340   1.915
 3942W        W76235  14.743  10.315  12.498
 3943W        W76236  19.606   0.355   2.780
 3944W        W76237   1.273  25.697  14.759
 3945W        W76238  31.925   5.236  10.576
 3946W        W76239  41.864  27.617   1.224
 3947W        W76240   2.741  36.417  13.022
 3948W        W76241  13.798   1.732   2.229
 3949W        W76242  32.461   1.776  12.449
 3950W        W76243   7.765  30.116   0.484
 3951W        W76244  25.686  12.722   5.169
 3952W        W76245  34.012  17.656   4.671
 3953W        W76246  26.502   9.221  13.523
 3954W        W76247   2.439  42.845  12.022
 3955W        W76248  44.904  21.600  11.516
 3956W        W76249  12.715  32.123  12.054
 3957W        W76250  38.421  21.670  12.073
 3958W        W76251   4.808  41.007   4.628
 3959W        W76252  28.655   4.889   0.848
 3960W        W76253  34.868   6.271   4.153
 3961W        W76254  42.867   7.280  10.547
 3962W        W76255  44.404  22.235   2.827
 3963W        W76256  23.730  26.199  13.402
 3964W        W76257  13.836  33.485  11.395
 3965W        W76258  37.880   8.350  11.952
 3966W        W76259  21.109  11.737   0.942
 3967W        W76260  33.966   8.704  11.542
 3968W        W76261  31.556   5.359   1.920
 3969W        W76262  35.044  43.897  11.433
 3970W        W76263  22.673  20.219  14.787
 3971W        W76264   5.373   4.325   4.612
 3972W        W76265  36.931  30.566  10.487
 3973W        W76266   1.856  44.965  14.390
 3974W        W76267  38.831   8.214  14.842
 3975W        W76268  31.514   4.257  10.410
 3976W        W76269  42.483  10.280  10.985
 3977W        W76270   2.423  26.984   1.328
 3978W        W76271  17.648  17.634  10.892
 3979W        W76272  34.614  20.690   0.912
 3980W        W76273  20.560   0.340  11.498
 3981W        W76274  42.425  12.136  13.923
 3982W        W76275  31.953   1.479  14.802
 3983W        W76276  13.147  23.170  12.001
 3984W        W76277  37.874  15.753   0.909
 3985W        W76278  39.952   1.269   2.864
 3986W        W76279  15.322   6.798   0.303
 3987W        W76280  18.760  14.828  13.485
 3988W        W76281  41.318  18.621  14.383
 3989W        W76282  22.114  36.906   1.908
 3990W        W76283  24.215  31.999  14.416
 3991W        W76284   2.347   1.330   2.848
 3992W        W76285  34.430  24.015  10.583
 3993W        W76286   6.685  40.956   1.935
 3994W        W76287  24.585  18.586   2.788
 3995W        W76288  33.891  43.492  13.342
 3996W        W76289  18.103  26.122  11.455
 3997W        W76290  25.219  24.591   4.197
 3998W        W76291  31.929  14.136   9.976
 3999W        W76292   2.800  13.253   3.768
 4000W        W76293  43.334  42.860   0.857
 4001W        W76294  14.112  20.148  10.962
 4002W        W76295  18.687  30.559   4.667
 4003W        W76296  35.360  23.025  14.793
 4004W        W76297  41.854   6.858   0.843
 4005W        W76298   6.869  17.580  12.841
 4006W        W76299  40.832  14.277   0.479
 4007W        W76300   6.292  22.697  13.415
 4008W        W76301  12.247  37.073   2.708
 4009W        W76302  18.241  36.001  10.548
 4010W        W76303   8.230   6.855   3.300
 4011W        W76304  34.979  40.431   3.656
 4012W        W76305  16.173  22.713  13.862
 4013W        W76306  16.113  42.501  11.551
 4014W        W76307  28.500  29.507  11.528
 4015W        W76308  23.656  12.322   2.401
 4016W        W76309  29.099  28.599  13.315
 4017W        W76310  29.140  30.062  14.904
 4018W        W76311  27.144  40.050   1.291
 4019W        W76312  40.907  34.882   0.953
 4020W        W76313   3.234   1.418  13.341
 4021W        W76314   8.695  14.607   3.717
 4022W        W76315  27.018  32.622  11.015
 4023W        W76316  33.437  34.578  11.503
 4024W        W76317  37.423  14.805   4.600
 4025W        W76318  31.444  25.492  14.987
 4026W        W76319  19.701  29.006   3.797
 4027W        W76320  19.146   7.847  12.484
 4028W        W76321  31.977   5.344   1.877
 4029W        W76322  15.730  33.941  10.999
 4030W        W76323  15.735   5.852   0.891
 4031W        W76324  36.356   0.316  13.052
 4032W        W76325   3.837  13.751  14.005
 4033W        W76326  40.895  13.694   0.476
 4034W        W76327  33.461   2.799   1.841
 4035W        W76328  27.581  33.892   3.757
 4036W        W76329  37.536  12.678  13.510
 4037W        W76330  28.615   7.189   4.787
 4038W        W76331  43.847   0.889   2.693
 4039W        W76332  36.843   8.782   2.289
 4040W        W76333  17.631   6.729   2.397
 4041W        W76334  42.978   2.866   4.127
 4042W        W76335  34.455  36.421  11.517
 4043W        W76336  33.901  16.663  14.424
 4044W        W76337  42.348  26.001   2.824
 4045W        W76338  30.541  19.547   2.248
 4046W        W76339  35.380  26.963  12.461
 4047W        W76340  35.889   9.749   4.131
 4048W        W76341  27.162   1.789   2.735
 4049W        W76342  42.393   5.292  14.023
 4050W        W76343  13.611  14.267   0.834
 4051W        W76344   1.913  13.267   4.162
 4052W        W76345  33.526  11.782   0.408
 4053W        W76346  38.987  14.698   2.788
 4054W        W76347  34.392  35.967   4.613
 4055W        W76348  26.642  12.208   4.242
 4056W        W76349   2.464  18.097  12.398
 4057W        W76350  36.483  11.813  12.506
 4058W        W76351  11.267  35.569   3.858
 4059W        W76352  33.464  30.973  10.582
 4060W        W76353  35.424  21.617  11.938
 4061W        W76354  42.978  44.500   3.692
 4062W        W76355   5.750   4.900   2.880
 4063W        W76356  28.045  31.089   2.743
 4064W        W76357  38.059   7.677   1.709
 4065W        W76358  24.602  18.731  11.377
 4066W        W76359  32.410  16.670  10.437
 4067W        W76360  17.680  20.732  12.830
 4068W        W76361  30.062   5.755   4.309
 4069W        W76362  39.826  33.535   4.199
 4070W        W76363  17.773  14.814   2.392
 4071W        W76364  42.946   3.908   4.805
 4072W        W76365  20.119  29.953  13.318
 4073W        W76366   5.238  14.229  13.339
 4074W        W76367  23.134   6.708   4.797
 4075W        W76368  10.685  26.663   3.341
 4076W        W76369  40.915  35.094  14.413
 4077W        W76370  10.657  13.832  10.937
 4078W        W76371   1.300  34.091   1.276
 4079W        W76372  19.137  39.992  14.796
 4080W        W76373  10.678  28.151   2.347
 4081W        W76374   3.834  21.666  11.391
 4082W        W76375  18.295  32.403   1.447
 4083W        W76376  43.821  40.359  11.871
 4084W        W76377   7.741  44.265   4.787
 4085W        W76378  36.916   2.275  14.314
 4086W        W76379  28.569  15.658  13.898
 4087W        W76380   0.778   4.917   2.763
 4088W        W76381  42.020  35.105  11.488
 4089W        W76382  43.465  31.047  12.527
 4090W        W76383  39.817  14.191   0.247
 4091W        W76384  29.601  41.412   4.792
 4092W        W76385  40.531  43.390  14.338
 4093W        W76386   5.727  12.204  11.015
 4094W        W76387  30.461  18.609  10.620
 4095W        W76388  20.226  21.228   9.663
 4096W        W76389   9.201  20.256   2.197
 4097W        W76390   3.756  17.590  14.328
 4098W        W76391  34.920  19.639  12.481
 4099W        W76392  27.688   5.833   1.725
 4100W        W76393  41.333  24.981  11.905
 4101W        W76394  16.715  23.098   2.194
 4102W        W76395   1.472  31.104   4.254
 4103W        W76396  31.624  18.576   0.338
 4104W        W76397   0.297  28.148   3.170
 4105W        W76398  28.089  10.653  12.056
 4106W        W76399  39.951  18.192  14.022
 4107W        W76400  30.114  37.881   0.349
 4108W        W76401  17.068  26.479   4.298
 4109W        W76402   9.765  10.672  11.384
 4110W        W76403  11.218  31.138  12.397
 4111W        W76404  31.084   5.342  10.891
 4112W        W76405   1.296  25.169  13.378
 4113W        W76406  33.079   3.904   0.909
 4114W        W76407   6.388   8.268  14.932
 4115W        W76408  36.488  40.507   4.745
 4116W        W76409  37.891  24.132   9.978
 4117W        W76410  22.635  27.531   3.233
 4118W        W76411  32.920   2.855   1.290
 4119W        W76412   8.210   4.821   3.758
 4120W        W76413   7.766   3.257   3.688
 4121W        W76414   7.880   5.910  13.953
 4122W        W76415  23.209  40.313  13.448
 4123W        W76416  13.149  18.723   1.356
 4124W        W76417  26.587  32.634  10.948
 4125W        W76418  21.655   8.749   2.699
 4126W        W76419  44.325  34.539  12.041
 4127W        W76420  14.684  24.663  14.786
 4128W        W76421   5.814   0.876  12.096
 4129W        W76422  27.489  40.809  11.412
 4130W        W76423   4.766  41.039   2.389
 4131W        W76424  30.103  14.622   4.302
 4132W        W76425   3.928  29.568   1.865
 4133W        W76426  30.957   3.386   0.308
 4134W        W76427  11.709  42.933   3.346
 4135W        W76428  37.569   5.912   4.234
 4136W        W76429  43.435  18.706  14.843
 4137W        W76430   3.917  38.425   1.378
 4138W        W76431  37.558  31.614   0.335
 4139W        W76432  25.010  12.155  14.007
 4140W        W76433  22.533  41.404   3.218
 4141W        W76434   7.751  26.600  10.597
 4142W        W76435   0.756   8.686   0.905
 4143W        W76436  36.916   9.233  15.000
 4144W        W76437  10.348  18.290  11.968
 4145W        W76438  21.175  16.099   4.175
 4146W        W76439  18.142  35.059   1.726
 4147W        W76440   6.802  39.429  14.453
 4148W        W76441  28.987   2.391  12.829
 4149W        W76442  42.964  34.011  14.774
 4150W        W76443   9.292  15.178  13.320
 4151W        W76444  15.806  39.376   1.339
 4152W        W76445  37.352  23.656   0.311
 4153W        W76446  38.533   8.895   2.764
 4154W        W76447   3.847  29.488   4.342
 4155W        W76448  10.361   8.828   3.282
 4156W        W76449  27.669  17.116  13.432
 4157W        W76450   4.917   5.687  13.855
 4158W        W76451  32.425   6.775   0.959
 4159W        W76452  18.239  41.325   4.722
 4160W        W76453  13.837  18.700  14.010
 4161W        W76454  17.076  16.225   2.818
 4162W        W76455  33.931  42.837   3.328
 4163W        W76456  21.621  42.407   3.755
 4164W        W76457  15.087   0.358  13.445
 4165W        W76458  20.753  18.702  13.975
 4166W        W76459  30.113  43.452  13.528
 4167W        W76460   0.808  18.253  13.412
 4168W        W76461   8.292   5.335   3.344
 4169W        W76462  31.998  23.596   3.162
 4170W        W76463  20.061  29.577   3.262
 4171W        W76464  21.066  38.363  10.074
 4172W        W76465  35.058   3.909  13.481
 4173W        W76466  40.800  32.631  11.572
 4174W        W76467  29.074   7.788  11.980
 4175W        W76468  43.462  43.795   4.650
 4176W        W76469   8.388  12.657   4.828
 4177W        W76470  29.011  21.130   4.631
 4178W        W76471  17.668  35.543  12.423
 4179W        W76472  28.579  44.818  13.061
 4180W        W76473  29.124  32.602  11.384
 4181W        W76474   6.340  25.662  14.408
 4182W        W76475  17.624  33.525  11.018
 4183W        W76476   7.743   2.465  14.867
 4184W        W76477  34.463  41.448   0.406
 4185W        W76478  11.629   4.387   0.313
 4186W        W76479   8.801  29.971  11.980
 4187W        W76480  37.414   1.785  10.597
 4188W        W76481  11.314  28.437  13.021
 4189W        W76482  33.453  38.997   0.397
 4190W        W76483  25.162   0.914  14.952
 4191W        W76484  10.140  43.480  11.078
 4192W        W76485  17.738  44.817  10.403
 4193W        W76486  13.660  11.326   2.878
 4194W        W76487  13.808  20.164   1.794
 4195W        W76488  11.236  29.109   2.178
 4196W        W76489   2.453  16.136  12.960
 4197W        W76490   9.837  31.008   4.605
 4198W        W76491  27.963   4.318   0.323
 4199W        W76492  35.380   7.734  12.499
 4200W        W76493  44.806  34.052   2.683
 4201W        W76494   6.366  31.058   3.235
 4202W        W76495  17.253   6.207   1.375
 4203W        W76496  18.716  30.910  11.129
 4204W        W76497   2.958   1.766  10.616
 4205W        W76498   3.900  12.703   3.870
 4206W        W76499  42.427  44.366  13.423
 4207W        W76500  34.939  41.499   2.712
 4208W        W76501  24.175  10.346   1.398
 4209W        W76502  36.994   1.282  13.792
 4210W        W76503  20.652   6.405   4.117
 4211W        W76504  10.274   8.839  11.547
 4212W        W76505  44.442  29.118   2.669
 4213W        W76506  19.237  18.083   4.695
 4214W        W76507  16.268  11.651   4.714
 4215W        W76508  36.964  23.225  12.013
 4216W        W76509   2.274  33.457   9.991
 4217W        W76510  41.858  28.981   9.944
 4218W        W76511  41.330  36.030   4.696
 4219W        W76512   7.863  23.503  14.970
 4220W        W76513  44.832  12.183  12.856
 4221W        W76514  41.998  11.759  11.610
 4222W        W76515  22.123  24.587  11.006
 4223W        W76516  24.654  39.897   2.860
 4224W        W76517   9.247  44.277   2.362
 4225W        W76518  40.493  33.917  14.769
 4226W        W76519  24.679  28.662  14.332
 4227W        W76520  24.591  16.724   4.227
 4228W        W76521   3.341  19.766   4.323
 4229W        W76522  12.653  31.897  11.116
 4230W        W76523  14.673   5.794  14.029
 4231W        W76524  38.463  20.118   2.178
 4232W        W76525  22.182  11.757   2.716
 4233W        W76526  36.459  41.371  11.873
 4234W        W76527  37.408  41.361  12.020
 4235W        W76528   1.427  28.958  11.868
 4236W        W76529  34.376  20.154   3.759
 4237W        W76530   9.231   2.314  13.916
 4238W        W76531  33.996  19.256  11.003
 4239W        W76532  33.002   4.240   0.876
 4240W        W76533  22.512  22.096   2.196
 4241W        W76534  37.839  39.518   3.776
 4242W        W76535  41.810  20.632  11.063
 4243W        W76536  34.605  37.881   4.289
 4244W        W76537  33.543  38.832   2.322
 4245W        W76538  28.583  13.162   2.705
 4246W        W76539  13.165  17.187  10.471
 4247W        W76540  42.312  31.436   0.445
 4248W        W76541   1.249  39.947  12.076
 4249W        W76542   2.926  36.005   4.687
 4250W        W76543   8.402  16.777  13.372
 4251W        W76544  10.197  28.474   4.270
 4252W        W76545  11.800   0.857   3.281
 4253W        W76546  11.344  15.738  11.570
 4254W        W76547  20.136  11.647  11.915
 4255W        W76548   6.238  22.227   0.745
 4256W        W76549  11.624  43.445  12.378
 4257W        W76550  31.939   4.222   4.288
 4258W        W76551  41.857   7.225  14.357
 4259W        W76552  38.970  14.224   1.402
 4260W        W76553  25.211   9.370  12.095
 4261W        W76554  25.117  23.726   1.754
 4262W        W76555  29.930  20.084   1.786
 4263W        W76556   7.366   9.175  12.473
 4264W        W76557  34.068  36.900  14.011
 4265W        W76558  28.681   4.441   2.707
 4266W        W76559  28.023  22.515   4.201
 4267W        W76560  42.358  33.497   3.861
 4268W        W76561  17.160  23.680   2.850
 4269W        W76562   8.243  44.794   0.914
 4270W        W76563   8.728  43.799  14.947
 4271W        W76564  37.402   6.769  14.867
 4272W        W76565   9.783  35.510  12.580
 4273W        W76566  26.703  24.141  13.420
 4274W        W76567  30.510  27.148   3.358
 4275W        W76568  15.288  10.270  10.508
 4276W        W76569  34.465  19.635  10.633
 4277W        W76570  20.037   0.804   2.784
 4278W        W76571  24.515  27.948  14.836
 4279W        W76572  40.979  30.056   4.308
 4280W        W76573  20.202  34.024   9.969
 4281W        W76574  41.016  37.975  12.531
 4282W        W76575   7.395  16.256  13.005
 4283W        W76576   5.412  24.663   3.793
 4284W        W76577  35.573   3.460  11.487
 4285W        W76578  29.090  22.609  10.909
 4286W        W76579  34.981  21.733  14.311
 4287W        W76580   2.953  30.950   1.285
 4288W        W76581   1.813  22.720   2.681
 4289W        W76582  21.195   1.372  13.954
 4290W        W76583  14.328  44.375  13.324
 4291W        W76584  28.502  35.968  14.419
 4292W        W76585  26.683  37.359  11.609
 4293W        W76586  38.506   5.730  12.931
 4294W        W76587  20.097  22.533   3.160
 4295W        W76588  12.343   4.328   3.794
 4296W        W76589  24.085  23.671  13.000
 4297W        W76590  30.104  41.801   3.668
 4298W        W76591  28.112  33.495  11.917
 4299W        W76592   4.837  22.613  10.515
 4300W        W76593  34.946  32.140   0.743
 4301W        W76594  20.083  11.737   5.256
 4302W        W76595   5.303   6.225  12.907
 4303W        W76596  26.186  36.548  13.839
 4304W        W76597  37.403  39.547   0.864
 4305W        W76598  34.088  16.072  11.608
 4306W        W76599  14.590  34.976   9.996
 4307W        W76600  23.195   8.263  10.895
 4308W        W76601  35.481  12.766  11.945
 4309W        W76602  22.667  42.969  12.985
 4310W        W76603  18.578   8.857  12.928
 4311W        W76604  14.314  14.758  12.354
 4312W        W76605  35.371  32.938  14.816
 4313W        W76606  19.180  42.451   0.771
 4314W        W76607  43.349  41.413  14.304
 4315W        W76608  44.309  31.988  13.319
 4316W        W76609   8.839  25.992  11.410
 4317W        W76610  35.023   4.329   0.765
 4318W        W76611  22.215  13.678   4.149
 4319W        W76612  18.576  38.417   4.184
 4320W        W76613  17.700  35.857  12.953
 4321W        W76614  27.956  25.978  14.805
 4322W        W76615   3.885   0.329   1.394
 4323W        W76616  12.122  40.486   3.843
 4324W        W76617  17.222  34.436   3.870
 4325W        W76618  17.164   8.785   9.997
 4326W        W76619  44.401   8.227   3.798
 4327W        W76620   4.838  31.510   5.118
 4328W        W76621  37.040  26.496  11.897
 4329W        W76622  40.857  24.698   3.152
 4330W        W76623  37.478  15.222   4.671
 4331W        W76624  43.367  13.223   1.328
 4332W        W76625  42.976  22.205  12.574
 4333W        W76626  39.533  18.208  11.085
 4334W        W76627  17.757  27.678  13.323
 4335W        W76628   1.893  23.560  12.083
 4336W        W76629  12.773  18.726  11.123
 4337W        W76630  31.559  19.196  10.409
 4338W        W76631  35.982  36.486  11.879
 4339W        W76632   9.731  33.503  13.942
 4340W        W76633  28.440  43.810  12.887
 4341W        W76634  36.394  27.600   0.858
 4342W        W76635  13.274   3.379  12.483
 4343W        W76636   4.767  16.721  13.517
 4344W        W76637  43.343  31.110  12.981
 4345W        W76638  16.205  36.544  14.786
 4346W        W76639  33.436  12.305   4.147
 4347W        W76640  30.936   7.819  10.053
 4348W        W76641  42.349  43.418  13.000
 4349W        W76642   9.315  23.234   3.202
 4350W        W76643  42.335   9.341  14.787
 4351W        W76644  40.046   3.792  12.368
 4352W        W76645   6.209  36.408  13.994
 4353W        W76646  43.361  14.593   1.290
 4354W        W76647  17.211  28.672   0.882
 4355W        W76648   5.247  24.003  10.569
 4356W        W76649  37.032  22.038  14.861
 4357W        W76650  25.168  29.109   3.658
 4358W        W76651  10.283  28.982  14.460
 4359W        W76652  40.478  16.074  11.964
 4360W        W76653  29.920   4.443   3.294
 4361W        W76654  11.132   0.890   2.384
 4362W        W76655  31.979   0.298  10.521
 4363W        W76656  20.678  29.932  10.445
 4364W        W76657  18.123  44.336  13.477
 4365W        W76658   3.237  15.788  14.860
 4366W        W76659  10.337  25.125  10.427
 4367W        W76660  24.146  23.618  13.331
 4368W        W76661  24.099  16.225   1.357
 4369W        W76662  33.457  18.635  13.535
 4370W        W76663  10.806  35.903  14.966
 4371W        W76664  33.054  30.034   0.772
 4372W        W76665  41.468  29.593   1.449
 4373W        W76666  16.210  41.001  11.942
 4374W        W76667   8.233  38.020  11.524
 4375W        W76668  36.513  16.315   4.659
 4376W        W76669  40.344  40.535   4.795
 4377W        W76670  36.358  38.362  12.838
 4378W        W76671   1.280   9.712   1.745
 4379W        W76672  28.610  11.769   2.827
 4380W        W76673  26.477   9.299   4.350
 4381W        W76674  29.494  10.837  11.029
 4382W        W76675  19.649  15.799  10.628
 4383W        W76676  13.172  11.373   2.332
 4384W        W76677   1.772  23.186   2.311
 4385W        W76678  37.070  39.407   4.245
 4386W        W76679  26.089  15.595  12.387
 4387W        W76680  35.874  19.068   3.737
 4388W        W76681  41.380  41.379   3.698
 4389W        W76682  24.194  20.762   3.352
 4390W        W76683  28.965  10.167   3.234
 4391W        W76684   2.935  39.529   1.765
 4392W        W76685   5.378  23.233  11.488
 4393W        W76686  27.452  39.404  14.789
 4394W        W76687  34.947  36.425  14.853
 4395W        W76688  30.527  40.018   0.298
 4396W        W76689  26.098  13.162   2.320
 4397W        W76690  44.385  36.899  11.984
 4398W        W76691   7.343   8.229   2.249
 4399W        W76692   1.251  13.328  13.995
 4400W        W76693   7.252   0.453  12.485
 4401W        W76694  42.359  26.101  14.449
 4402W        W76695  43.829  23.574   2.345
 4403W        W76696   9.238   9.390  10.543
 4404W        W76697  15.158  39.370  11.005
 4405W        W76698  36.860  12.142  10.503
 4406W        W76699   3.764   8.379   2.861
 4407W        W76700   2.877  38.963   2.324
 4408W        W76701  27.987  41.317   1.914
 4409W        W76702  25.702  21.655  13.053
 4410W        W76703  31.613  42.983   1.923
 4411W        W76704  24.217  37.950  14.323
 4412W        W76705  39.010  19.221  11.419
 4413W        W76706  25.196  11.685   4.618
 4414W        W76707  13.671  28.999   0.779
 4415W        W76708  43.004  14.328   3.728
 4416W        W76709  35.980  27.117   1.323
 4417W        W76710  23.038  11.784   1.866
 4418W        W76711  20.655  27.534  14.398
 4419W        W76712   2.846   5.249  12.894
 4420W        W76713  28.964   6.250   4.661
 4421W        W76714  17.188   2.288   2.863
 4422W        W76715  25.080  44.965   2.304
 4423W        W76716  14.616  22.661   4.204
 4424W        W76717  29.561   8.335   1.259
 4425W        W76718  15.116   7.679   3.258
 4426W        W76719  20.705  28.960  13.932
 4427W        W76720  25.659   6.795  14.899
 4428W        W76721  38.860  41.443   1.236
 4429W        W76722   7.309  11.720  12.425
 4430W        W76723  11.650  15.297  11.600
 4431W        W76724  28.458  23.194  14.869
 4432W        W76725  11.336   1.741   1.423
 4433W        W76726  25.703  37.437   0.441
 4434W        W76727  31.063   7.381  13.380
 4435W        W76728  17.302   8.843   3.772
 4436W        W76729  14.134   2.882  11.467
 4437W        W76730  32.606  10.679   1.405
 4438W        W76731  39.522  28.600   4.233
 4439W        W76732  36.388  40.498  13.906
 4440W        W76733   1.440   8.351   2.808
 4441W        W76734  34.407  34.927   2.708
 4442W        W76735   5.929  27.966   0.356
 4443W        W76736   9.178  29.463  11.389
 4444W        W76737  35.973  20.122   1.867
 4445W        W76738  30.116  27.499  11.560
 4446W        W76739  14.216  18.277  13.430
 4447W        W76740   1.944  17.086   3.732
 4448W        W76741   1.382   9.795  13.840
 4449W        W76742  14.207   3.921   0.831
 4450W        W76743  37.083  17.247   1.404
 4451W        W76744  30.652   3.717  13.365
 4452W        W76745   3.772  16.580   2.255
 4453W        W76746  21.146  24.616  12.037
 4454W        W76747  31.128  25.625  14.467
 4455W        W76748   7.783  25.003   4.795
 4456W        W76749   6.886  15.154   3.350
 4457W        W76750   5.931  31.411   4.324
 4458W        W76751   3.765  19.165  14.873
 4459W        W76752  31.055  33.925   3.252
 4460W        W76753   6.869  20.755   4.776
 4461W        W76754  15.602  26.478   4.760
 4462W        W76755  19.079   5.787   2.258
 4463W        W76756  27.177   3.379   1.773
 4464W        W76757   0.917   7.357  13.056
 4465W        W76758  14.304  15.261  10.920
 4466W        W76759  22.203   2.396  13.393
 4467W        W76760   4.747  36.355  10.427
 4468W        W76761  39.843  17.696  14.798
 4469W        W76762  28.597  23.490  14.347
 4470W        W76763  15.613  12.631  12.460
 4471W        W76764   0.934  11.326   3.218
 4472W        W76765  13.108  32.515   4.189
 4473W        W76766  36.892  15.647   1.216
 4474W        W76767  29.980  23.512  14.029
 4475W        W76768  22.173  41.445   1.857
 4476W        W76769  25.558   9.798   4.781
 4477W        W76770  15.819   8.302   2.388
 4478W        W76771  17.198  43.271  11.426
 4479W        W76772  23.501  35.854   3.762
 4480W        W76773  19.567  12.306   1.211
 4481W        W76774   0.310  21.207  12.539
 4482W        W76775  17.735  16.684  12.936
 4483W        W76776  21.252  42.373   3.813
 4484W        W76777   7.185  22.081   0.790
 4485W        W76778  19.252  27.048  11.523
 4486W        W76779  16.169   2.302  14.381
 4487W        W76780  41.324  41.365   0.323
 4488W        W76781  36.987  35.382   2.330
 4489W        W76782   0.852  39.475   3.203
 4490W        W76783  40.474  30.072   3.748
 4491W        W76784  33.051   2.245   1.226
 4492W        W76785  16.625  32.103   3.311
 4493W        W76786  33.403   3.937   3.300
 4494W        W76787  10.642  34.562  12.871
 4495W        W76788  39.922  36.442   1.219
 4496W        W76789  22.007  24.054  11.897
 4497W        W76790   8.748  34.927   1.309
 4498W        W76791  44.843  31.140  14.888
 4499W        W76792  13.770  15.779  11.452
 4500W        W76793   4.739  40.819  14.030
 4501W        W76794   2.886  11.206  10.442
 4502W        W76795  17.189  21.660   2.671
 4503W        W76796  10.225  25.040   2.833
 4504W        W76797  25.651  12.814   4.744
 4505W        W76798  14.291  42.910   2.819
 4506W        W76799  41.320  24.662  11.973
 4507W        W76800  42.811  11.324  10.440
 4508W        W76801  26.115  14.274  14.923
 4509W        W76802   8.800  42.291   2.243
 4510W        W76803  43.965  15.128   3.634
 4511W        W76804  30.972  33.545  13.057
 4512W        W76805  27.069  30.480   4.137
 4513W        W76806  44.816  41.001   3.782
 4514W        W76807  10.749  18.126  11.094
 4515W        W76808   2.919  17.253   1.724
 4516W        W76809  41.524  15.759   2.186
 4517W        W76810   5.931  25.669  10.524
 4518W        W76811  36.887  11.234   0.920
 4519W        W76812  16.182  27.605   3.655
 4520W        W76813  10.752   5.801   0.280
 4521W        W76814  42.338  25.492   1.237
 4522W        W76815  37.893  17.664  13.890
 4523W        W76816  31.923  17.155   3.836
 4524W        W76817  27.155  32.607   1.702
 4525W        W76818  11.821  38.484  12.560
 4526W        W76819   7.217  36.477   1.370
 4527W        W76820   3.236  22.526   3.639
 4528W        W76821  12.215  28.069   3.758
 4529W        W76822  33.387   1.851   0.802
 4530W        W76823   1.844  19.256   1.791
 4531W        W76824  14.757  23.132  10.485
 4532W        W76825   3.867  21.157   2.897
 4533W        W76826  43.319  24.559  12.460
 4534W        W76827  22.722   7.203  14.899
 4535W        W76828  36.098   8.815  14.488
 4536W        W76829  30.941  31.432  12.914
 4537W        W76830  16.597  33.035   1.792
 4538W        W76831  16.655   2.828  12.868
 4539W        W76832  43.505  32.606   2.819
 4540W        W76833  17.655   1.744  13.878
 4541W        W76834  38.829   8.851  10.597
 4542W        W76835   8.868  23.593   2.365
 4543W        W76836  14.798  28.004  12.011
 4544W        W76837  40.521  13.153   4.242
 4545W        W76838  35.434  40.306  13.909
 4546W        W76839   8.782  41.398  10.048
 4547W        W76840  29.475  44.770   1.231
 4548W        W76841  14.819  42.965  10.478
 4549W        W76842   6.368  10.272  12.560
 4550W        W76843  43.923  25.967   4.284
 4551W        W76844   3.895  28.460   1.426
 4552W        W76845   2.882   3.772  14.896
 4553W        W76846   4.234  36.530  14.852
 4554W        W76847   1.255  30.046   1.808
 4555W        W76848  26.959  21.657  12.870
 4556W        W76849  25.689  20.695   1.848
 4557W        W76850  11.801   4.225   4.761
 4558W        W76851   1.826  42.031   4.291
 4559W        W76852  42.958  18.156   3.381
 4560W        W76853  20.029  44.291   0.278
 4561W        W76854  36.879  43.875  10.560
 4562W        W76855  10.643   3.318  13.448
 4563W        W76856  32.974  31.534   0.845
 4564W        W76857  14.296  18.052   1.747
 4565W        W76858  14.598  21.757   4.646
 4566W        W76859  41.395  19.605   4.824
 4567W        W76860  18.765   0.776  12.838
 4568W        W76861  40.454  44.262   5.155
 4569W        W76862  24.211  25.045  11.479
 4570W        W76863  12.753   7.365   0.799
 4571W        W76864   6.777   8.757   2.303
 4572W        W76865  41.032  36.521   0.261
 4573W        W76866  41.424  17.754   5.251
 4574W        W76867  20.168   5.698   2.671
 4575W        W76868  19.102  24.099  13.486
 4576W        W76869  38.345  42.480  14.871
 4577W        W76870  15.235  37.582   4.731
 4578W        W76871  31.517  15.657  12.861
 4579W        W76872   1.818  11.325  10.495
 4580W        W76873  15.134  33.030   4.739
 4581W        W76874  32.018   2.838  12.540
 4582W        W76875  20.267  33.075  13.947
 4583W        W76876  42.897   7.315  11.125
 4584W        W76877  31.047  19.644  11.606
 4585W        W76878  11.749  44.800   2.350
 4586W        W76879  11.787   3.378  14.370
 4587W        W76880   4.738  38.867  14.307
 4588W        W76881   4.405  28.490  13.815
 4589W        W76882  26.562  31.141   5.115
 4590W        W76883  17.200  15.326   4.305
 4591W        W76884  36.062  32.110  10.048
 4592W        W76885   0.833  13.762   3.763
 4593W        W76886  35.507   4.416  10.969
 4594W        W76887  27.163  18.116  11.551
 4595W        W76888  20.763  29.081   4.193
 4596W        W76889  37.335  42.437   4.820
 4597W        W76890  35.386  19.164   1.446
 4598W        W76891   1.976  23.503   2.294
 4599W        W76892  29.938  22.048   4.320
 4600W        W76893  35.389  22.679  11.109
 4601W        W76894  18.640  35.486  11.986
 4602W        W76895  27.038  22.679   1.409
 4603W        W76896  11.191   0.871   1.869
 4604W        W76897  12.743  44.476   3.804
 4605W        W76898  30.043  22.159   3.830
 4606W        W76899  26.052  22.737  12.505
 4607W        W76900  15.648   8.787   2.665
 4608W        W76901  40.967  17.636   4.270
 4609W        W76902  18.550  35.426  14.362
 4610W        W76903  24.098  37.029   3.375
 4611W        W76904  29.512  23.688  12.516
 4612W        W76905  32.396   8.278  13.317
 4613W        W76906   6.743  42.339  12.482
 4614W        W76907  24.715  34.069  11.390
 4615W        W76908  35.450   4.893   1.391
 4616W        W76909  10.237  44.906  11.483
 4617W        W76910  35.490  11.623  14.389
 4618W        W76911   4.811  43.450  12.918
 4619W        W76912  29.512  17.075   1.917
 4620W        W76913   3.247   0.457  12.549
 4621W        W76914  12.306  38.893   4.717
 4622W        W76915  33.931  41.016  12.831
 4623W        W76916  38.848   7.360   4.731
 4624W        W76917   3.875  20.115   2.716
 4625W        W76918  35.083  13.608   4.355
 4626W        W76919  40.512  13.779  11.870
 4627W        W76920  31.053  34.379  10.614
 4628W        W76921  11.644  14.606  13.339
 4629W        W76922  29.986  38.864  13.831
 4630W        W76923  32.473  26.036  11.964
 4631W        W76924  26.208  38.044  11.046
 4632W        W76925   4.353  31.044   1.366
 4633W        W76926  10.146   2.939   0.729
 4634W        W76927  30.464   1.370  11.952
 4635W        W76928   2.431  18.752  12.418
 4636W        W76929  24.530  42.299  14.024
 4637W        W76930   4.778  14.653   4.115
 4638W        W76931  28.088  39.846   0.257
 4639W        W76932  22.205  13.193  14.279
 4640W        W76933  23.623  44.435  13.377
 4641W        W76934   1.896  12.214   2.256
 4642W        W76935  39.400  29.585   2.403
 4643W        W76936  12.675  31.012  12.356
 4644W        W76937  35.560  41.814   1.874
 4645W        W76938  12.327  19.690   4.604
 4646W        W76939  44.329  26.687   2.200
 4647W        W76940   9.242  11.137   1.281
 4648W        W76941  28.952   0.296  12.346
 4649W        W76942   5.378  35.536  11.588
 4650W        W76943   4.827  27.613   0.465
 4651W        W76944   6.282  42.504   3.819
 4652W        W76945  23.712  25.595   4.687
 4653W        W76946  22.079  36.564  14.975
 4654W        W76947  40.332  33.480   4.663
 4655W        W76948   8.400  12.156  10.593
 4656W        W76949  15.699  43.346   4.173
 4657W        W76950  15.581   0.367   4.224
 4658W        W76951   1.293  38.349   3.318
 4659W        W76952  30.107  34.484   1.778
 4660W        W76953   8.301  32.543  10.976
 4661W        W76954  11.373  29.053   0.401
 4662W        W76955  23.497  25.687  10.968
 4663W        W76956  12.115  19.090  10.533
 4664W        W76957  36.074  30.098   2.355
 4665W        W76958   6.297  33.464   5.311
 4666W        W76959  43.904  16.119   1.447
 4667W        W76960  33.558   4.862  10.474
 4668W        W76961  32.574   3.254  14.380
 4669W        W76962   3.429  26.566   1.320
 4670W        W76963  25.474  20.122  12.911
 4671W        W76964   9.387  31.092  14.348
 4672W        W76965  25.159  19.638   1.878
 4673W        W76966  13.128  12.798   4.736
 4674W        W76967  27.534  37.363   0.375
 4675W        W76968  12.281   2.324   2.386
 4676W        W76969  32.964   3.391   1.309
 4677W        W76970  29.493  19.136  14.854
 4678W        W76971  18.560  14.203   4.150
 4679W        W76972  42.000   9.258  11.506
 4680W        W76973  19.631  32.130   0.362
 4681W        W76974  30.927   2.967   2.664
 4682W        W76975  20.569  31.915  11.481
 4683W        W76976   1.821  10.679   4.151
 4684W        W76977   2.832  21.675  10.576
 4685W        W76978  37.047  38.343   1.846
 4686W        W76979   7.192   7.267  12.461
 4687W        W76980   8.735  26.582  11.429
 4688W        W76981   4.740  11.235  14.927
 4689W        W76982   5.381   4.879   1.723
 4690W        W76983  35.412   5.815  14.934
 4691W        W76984  29.508  12.716  13.858
 4692W        W76985  40.965  33.050   1.898
 4693W        W76986  43.937  28.007   2.370
 4694W        W76987  32.423  25.588  13.375
 4695W        W76988   6.856  12.152   4.212
 4696W        W76989  36.591   6.275   3.271
 4697W        W76990  18.272  30.526  10.030
 4698W        W76991   0.410  20.577   3.760
 4699W        W76992  19.645  23.050   2.260
 4700W        W76993   1.921  23.547   1.342
 4701W        W76994  13.185  19.574  11.538
 4702W        W76995  31.641  42.483  13.510
 4703W        W76996  10.289   3.793   2.661
 4704W        W76997  38.444   0.854   0.890
 4705W        W76998  23.669   4.867   2.853
 4706W        W76999  29.600  37.040  12.446
 4707W        W77000  20.698  28.135  12.973
 4708W        W77001  30.419  13.343   2.733
 4709W        W77002  28.466   3.388   1.916
 4710W        W77003  14.708   7.362   5.112
 4711W        W77004  17.298  22.119   0.253
 4712W        W77005  37.903  44.967   1.221
 4713W        W77006  34.906  28.155   2.888
 4714W        W77007   7.248   4.921   0.778
 4715W        W77008  21.118   0.396  10.959
 4716W        W77009  35.566   0.342  12.951
 4717W        W77010   0.838  27.065  12.969
 4718W        W77011  44.466   4.754   3.827
 4719W        W77012  19.213  36.470   2.282
 4720W        W77013   9.305   9.657   1.897
 4721W        W77014  34.871  34.083  12.967
 4722W        W77015  42.020  36.980   1.823
 4723W        W77016   2.763  40.908  10.975
 4724W        W77017  37.415  38.884  14.498
 4725W        W77018  12.123  24.589   4.695
 4726W        W77019  21.040  27.056   1.214
 4727W        W77020  19.581  24.055   3.255
 4728W        W77021  37.537  16.155   2.345
 4729W        W77022  16.172  33.519   3.783
 4730W        W77023  31.416  29.010  12.093
 4731W        W77024  16.228  18.784   0.472
 4732W        W77025  22.591  30.474   0.933
 4733W        W77026  40.396  43.820  14.334
 4734W        W77027  35.068  37.545  13.927
 4735W        W77028   1.303  35.950  10.915
 4736W        W77029  13.224  19.101  14.777
 4737W        W77030   5.200  38.856  10.625
 4738W        W77031  18.096   1.955  13.957
 4739W        W77032   9.741  12.777  12.046
 4740W        W77033  32.564   7.695   2.662
 4741W        W77034  10.689  21.259  14.471
 4742W        W77035   5.921  38.977  12.001
 4743W        W77036  16.810  14.108   2.858
 4744W        W77037  11.629  32.440  10.627
 4745W        W77038  25.570  15.310  11.444
 4746W        W77039  23.523   7.678  11.430
 4747W        W77040  38.001  21.115  10.094
 4748W        W77041   8.727  18.094  13.347
 4749W        W77042  25.970  39.524   1.451
 4750W        W77043  30.089  35.441  11.068
 4751W        W77044  35.067  38.073  13.010
 4752W        W77045  25.548  17.711   4.816
 4753W        W77046   5.700   8.395  11.575
 4754W        W77047   2.311  37.950   2.884
 4755W        W77048   4.925  18.761  14.924
 4756W        W77049   6.383  12.326   0.817
 4757W        W77050  39.390   9.764  10.971
 4758W        W77051  16.118  14.715  13.356
 4759W        W77052  22.728  35.509  11.055
 4760W        W77053  26.198  35.425   0.911
 4761W        W77054   3.289  35.364  10.608
 4762W        W77055  12.158   1.911   5.228
 4763W        W77056  30.552   7.308   1.257
 4764W        W77057  36.992  14.756  11.918
 4765W        W77058  43.919  29.439   2.851
 4766W        W77059  19.246  43.297  10.557
 4767W        W77060  31.524  43.488  12.944
 4768W        W77061   9.751   8.845   3.711
 4769W        W77062  23.496   5.385  13.011
 4770W        W77063  39.057  35.542   4.120
 4771W        W77064  33.413  44.824  11.909
 4772W        W77065  35.886  41.977  12.349
 4773W        W77066   9.273  18.639   3.839
 4774W        W77067   2.746  31.453  13.505
 4775W        W77068  43.793   3.808   0.838
 4776W        W77069  38.917  26.637  12.494
 4777W        W77070  39.539  41.788   2.766
 4778W        W77071  35.560   3.805  12.487
 4779W        W77072  33.978  33.581   1.389
 4780W        W77073  19.762   1.421   2.178
 4781W        W77074  35.401  42.390   2.322
 4782W        W77075  40.997  21.203   2.361
 4783W        W77076  42.333  37.900  12.932
 4784W        W77077  34.908   4.367  12.457
 4785W        W77078  33.574   0.831  10.617
 4786W        W77079  39.052  38.354  11.918
 4787W        W77080  18.710  19.171   4.605
 4788W        W77081  42.822  25.567  13.886
 4789W        W77082  19.744   2.388  13.862
 4790W        W77083  42.318   1.259  10.089
 4791W        W77084  31.431  17.705  11.983
 4792W        W77085  29.563   2.915  10.435
 4793W        W77086  26.469  39.458   0.843
 4794W        W77087  20.745  14.608  10.994
 4795W        W77088  20.250   9.806   2.897
 4796W        W77089  12.689  41.912  10.532
 4797W        W77090  10.821  22.535   3.152
 4798W        W77091  13.168  43.786  12.405
 4799W        W77092   5.406  15.139   0.285
 4800W        W77093  21.078  33.604  12.379
 4801W        W77094  12.672   7.885  13.860
 4802W        W77095  37.890  37.421   3.649
 4803W        W77096  36.555  28.579  10.414
 4804W        W77097   8.894  25.219  10.942
 4805W        W77098  20.043  21.679  14.992
 4806W        W77099  21.703  17.698   2.358
 4807W        W77100  43.432  38.039  11.372
 4808W        W77101  39.987  44.759  10.409
 4809W        W77102  44.411   1.765  11.921
 4810W        W77103  11.310   2.842  10.971
 4811W        W77104  17.217  11.254   2.822
 4812W        W77105   0.478  19.143   1.228
 4813W        W77106   7.318  38.926   3.237
 4814W        W77107  41.933  18.631  14.914
 4815W        W77108  10.287   3.294  11.955
 4816W        W77109   3.235  17.216  14.470
 4817W        W77110   5.751  23.120   4.121
 4818W        W77111  25.638  38.531   0.896
 4819W        W77112  24.001  15.579  11.555
 4820W        W77113  28.090  36.931  11.089
 4821W        W77114   6.255  20.061  12.893
 4822W        W77115  16.237  34.529  13.507
 4823W        W77116  16.090  41.031   0.752
 4824W        W77117   7.748  16.301   4.140
 4825W        W77118  27.509   4.295   3.231
 4826W        W77119  29.002  32.510  13.337
 4827W        W77120  31.483  35.895   1.855
 4828W        W77121  19.553  25.036   3.279
 4829W        W77122  34.121  43.448   4.262
 4830W        W77123  16.318  10.345  10.514
 4831W        W77124  29.008  16.182  11.025
 4832W        W77125  35.498  31.543  13.370
 4833W        W77126  21.190  16.144   4.611
 4834W        W77127  26.614  41.876   0.910
 4835W        W77128  29.000   7.369  13.434
 4836W        W77129  12.677  25.482  10.568
 4837W        W77130  25.031  10.698  13.855
 4838W        W77131  18.067   9.786   1.780
 4839W        W77132  13.740  27.125  12.539
 4840W        W77133  11.764  29.631  12.509
 4841W        W77134  29.471  16.746  13.906
 4842W        W77135   5.813  39.049   3.690
 4843W        W77136  31.455  43.813   4.778
 4844W        W77137  16.263  18.716   4.353
 4845W        W77138  10.867  10.838  10.445
 4846W        W77139  11.252  42.452  11.588
 4847W        W77140  12.348  13.826   1.348
 4848W        W77141  35.516   0.822   0.856
 4849W        W77142  44.312  19.209  13.490
 4850W        W77143  32.014  12.629   2.672
 4851W        W77144   6.210  29.442   4.811
 4852W        W77145  28.523   9.837   0.767
 4853W        W77146  25.169  37.856  10.571
 4854W        W77147  24.178  34.601   3.241
 4855W        W77148  14.141  21.179   0.380
 4856W        W77149   1.251  31.950   3.744
 4857W        W77150  12.316  18.270  11.433
 4858W        W77151   4.698  23.527  13.329
 4859W        W77152  20.174  19.047  11.410
 4860W        W77153  24.102   4.280  14.515
 4861W        W77154  33.116  23.173   1.292
 4862W        W77155  11.191   4.433  13.892
 4863W        W77156  30.462   0.834  10.915
 4864W        W77157  18.790  27.092   3.227
 4865W        W77158  29.465   6.814   3.257
 4866W        W77159   8.232   5.690   4.328
 4867W        W77160  31.518   0.303   2.692
 4868W        W77161  13.610   2.807  10.526
 4869W        W77162  15.194   5.306  11.061
 4870W        W77163  19.121  12.288   1.265
 4871W        W77164  32.484  38.055   3.814
 4872W        W77165   1.382  12.804  13.424
 4873W        W77166  24.593   9.659  10.961
 4874W        W77167   0.424  33.129   0.390
 4875W        W77168  20.164  32.401  13.478
 4876W        W77169  14.807  41.789   1.712
 4877W        W77170  12.778  22.153   2.894
 4878W        W77171  36.967  24.713   1.315
 4879W        W77172  30.594  39.536   1.332
 4880W        W77173  37.521   6.807   2.725
 4881W        W77174  13.690  19.778  11.910
 4882W        W77175   1.289  38.491  13.450
 4883W        W77176  21.661  19.680  11.492
 4884W        W77177  31.505   9.304   0.477
 4885W        W77178  42.797  22.724  10.464
 4886W        W77179  24.507   1.847  11.989
 4887W        W77180  27.067  19.754  10.496
 4888W        W77181  41.959   1.445   4.797
 4889W        W77182  31.608  44.009  12.344
 4890W        W77183  28.056  31.025   0.803
 4891W        W77184   9.647   2.243   2.312
 4892W        W77185   6.861  20.179  10.895
 4893W        W77186  35.424  24.529  11.394
 4894W        W77187   1.449  15.604  11.452
 4895W        W77188  18.595  33.472   3.632
 4896W        W77189   2.868  38.452   1.451
 4897W        W77190  29.957   2.890  14.367
 4898W        W77191  16.632  37.446  14.489
 4899W        W77192  27.103  36.056  11.591
 4900W        W77193  18.076  32.964  13.932
 4901W        W77194  13.788  27.046   1.322
 4902W        W77195  27.586   8.183   0.865
 4903W        W77196   8.256  38.880  10.893
 4904W        W77197   1.313  25.187  13.856
 4905W        W77198   2.948   7.808   4.821
 4906W        W77199  18.548  19.101   1.444
 4907W        W77200  44.779  39.971  13.511
 4908W        W77201  34.511  10.331  11.014
 4909W        W77202  39.990  23.629  12.566
 4910W        W77203  26.611   5.418  12.346
 4911W        W77204  26.130  27.510  12.963
 4912W        W77205  33.544  44.372  12.355
 4913W        W77206  27.661   6.877   4.178
 4914W        W77207  30.039  12.194  10.472
 4915W        W77208  16.645   9.203  12.042
 4916W        W77209  37.835  38.965   2.798
 4917W        W77210  30.129  39.988   2.257
 4918W        W77211  23.574  11.283  11.100
 4919W        W77212   1.815  18.152   2.753
 4920W        W77213  27.600  43.305  13.342
 4921W        W77214  29.978  22.134   5.621
 4922W        W77215   7.280   6.284  11.522
 4923W        W77216   4.728  37.428   1.759
 4924W        W77217   3.274   8.817   1.235
 4925W        W77218  18.186  33.451  11.530
 4926W        W77219  13.843  10.813  14.963
 4927W        W77220  26.499  10.293  10.486
 4928W        W77221  41.487   4.230  13.809
 4929W        W77222  15.250  28.595  14.960
 4930W        W77223  30.623   8.336  14.772
 4931W        W77224  44.431  29.056   1.389
 4932W        W77225  15.222  17.131   2.804
 4933W        W77226  26.110  43.493  14.368
 4934W        W77227   5.356  29.932   1.880
 4935W        W77228   9.316  15.761   0.823
 4936W        W77229   9.150  36.028   4.178
 4937W        W77230  32.999   0.409  12.979
 4938W        W77231  27.030  41.004   3.677
 4939W        W77232   1.298  40.438  11.056
 4940W        W77233  35.049  33.111   4.791
 4941W        W77234  36.860   7.790  14.482
 4942W        W77235   3.259  13.288  14.378
 4943W        W77236   3.322  40.480   1.900
 4944W        W77237   9.663  28.186  10.568
 4945W        W77238  29.073  34.556  14.842
 4946W        W77239  39.962  24.214  11.097
 4947W        W77240   2.275  15.706   3.269
 4948W        W77241  33.081  10.371   4.255
 4949W        W77242  28.039  40.420  14.401
 4950W        W77243  18.604  16.137   1.272
 4951W        W77244  20.769  24.621   3.290
 4952W        W77245  14.755  35.860  10.088
 4953W        W77246  38.905  34.599   5.088
 4954W        W77247   0.960  42.431   3.178
 4955W        W77248   1.386  28.979   1.229
 4956W        W77249  14.762  34.027   2.377
 4957W        W77250  38.398  22.743  12.451
 4958W        W77251   7.278  26.201   1.884
 4959W        W77252  36.589  20.240  13.324
 4960W        W77253  10.795   4.832  13.347
 4961W        W77254  20.213  27.491   0.792
 4962W        W77255  40.433  33.945  12.911
 4963W        W77256  18.571  41.026   2.199
 4964W        W77257  36.547  17.626  13.983
 4965W        W77258  36.558  41.846   0.839
 4966W        W77259  23.167  26.571  14.775
 4967W        W77260  22.037  26.545  12.079
 4968W        W77261  35.035   6.327  13.364
 4969W        W77262  37.451  19.206  13.920
 4970W        W77263  23.984   5.812  12.459
 4971W        W77264   8.669  12.820  11.497
 4972W        W77265  29.635  22.063   4.817
 4973W        W77266  21.164   8.214   0.379
 4974W        W77267  30.600  44.963  13.924
 4975W        W77268   2.430  44.869   1.233
 4976W        W77269  33.484  35.429  13.366
 4977W        W77270   6.369  28.489  12.092
 4978W        W77271  34.024  17.629  11.009
 4979W        W77272  31.007  36.442  11.613
 4980W        W77273  40.538  17.066  11.567
 4981W        W77274   5.425  12.699   2.222
 4982W        W77275  37.506  41.440   2.284
 4983W        W77276  25.527  15.282   3.231
 4984W        W77277  17.579  38.464   3.300
 4985W        W77278   0.284  36.527   4.202
 4986W        W77279  11.140   8.838  11.571
 4987W        W77280   5.796  29.511  12.452
 4988W        W77281  23.584  38.424   3.857
 4989W        W77282  39.832  33.493   3.242
 4990W        W77283  14.134  23.533   3.290
 4991W        W77284  22.642  26.987   2.382
 4992W        W77285  15.663  10.798  12.094
 4993W        W77286  27.005  38.341   4.142
 4994W        W77287   8.698  33.031  10.438
 4995W        W77288  10.325  17.260  12.488
 4996W        W77289   8.290  40.042   2.323
 4997W        W77290  40.330  37.870  13.430
 4998W        W77291   7.694  23.683  11.864
 4999W        W77292   0.411   9.340   2.225
 5000W        W77293  24.650  42.986   4.318
 5001W        W77294  24.608  36.969   4.806
 5002W        W77295  18.191  22.548   4.796
 5003W        W77296  10.159  22.568   3.825
 5004W        W77297   6.707  18.694  12.938
 5005W        W77298  28.605  24.642  14.397
 5006W        W77299   8.378  39.883   4.285
 5007W        W77300   9.777  34.052   5.147
 5008W        W77301   5.244   4.710  14.787
 5009W        W77302   1.846   4.301  12.498
 5010W        W77303  27.146   2.854  14.880
 5011W        W77304   1.970   5.356  12.515
 5012W        W77305  44.006  14.144   4.299
 5013W        W77306  13.805  17.597  11.569
 5014W        W77307  27.109  20.229  12.909
 5015W        W77308  19.779  35.581  12.433
 5016W        W77309  28.520  14.711  12.992
 5017W        W77310  27.458   5.237  14.444
 5018W        W77311  39.011   1.309  14.969
 5019W        W77312  20.765  31.455   3.837
 5020W        W77313   6.874   1.327   2.803
 5021W        W77314  36.862  34.924  12.960
 5022W        W77315  12.198  26.991   2.315
 5023W        W77316  27.467  40.823  14.294
 5024W        W77317  37.045   5.888  12.010
 5025W        W77318  18.204  35.008  10.939
 5026W        W77319  22.602   5.257  10.159
 5027W        W77320  20.734  16.201  11.435
 5028W        W77321  38.470  10.285   2.800
 5029W        W77322  29.985  32.032  14.834
 5030W        W77323  13.320  41.875  12.409
 5031W        W77324  16.131  33.069  14.469
 5032W        W77325  27.673  35.036  13.443
 5033W        W77326   8.243  18.667  12.415
 5034W        W77327   9.692  35.421  11.533
 5035W        W77328  24.974   6.785   4.661
 5036W        W77329  15.298  33.000   3.379
 5037W        W77330  13.633  17.604  14.876
 5038W        W77331   5.206  31.599  10.484
 5039W        W77332  22.200  37.389  14.896
 5040W        W77333  20.075  32.496  11.014
 5041W        W77334   0.444  39.416   1.763
 5042W        W77335  36.897  28.664  12.970
 5043W        W77336  11.252  31.061   2.270
 5044W        W77337   9.263   0.470   1.329
 5045W        W77338  19.224  36.968  11.404
 5046W        W77339   8.278  42.891   4.832
 5047W        W77340   3.428  42.965   1.700
 5048W        W77341  24.575  23.619  10.540
 5049W        W77342   4.909   1.864   3.352
 5050W        W77343   2.791   2.761  11.081
 5051W        W77344  17.254  26.194  11.081
 5052W        W77345  44.292  12.132  10.063
 5053W        W77346   7.872  10.821  10.498
 5054W        W77347   9.289  26.466   9.999
 5055W        W77348  35.500  41.895   0.772
 5056W        W77349  34.455   5.854  14.888
 5057W        W77350  37.047  33.601   1.423
 5058W        W77351  33.875  14.725   4.273
 5059W        W77352  11.624  37.025  11.514
 5060W        W77353  25.523  18.582  12.041
 5061W        W77354   3.838  26.513  12.066
 5062W        W77355   1.774  26.507   3.301
 5063W        W77356   2.384  33.587   2.219
 5064W        W77357   3.717  36.977   1.814
 5065W        W77358  14.173  29.106  12.952
 5066W        W77359   7.808   5.888   2.223
 5067W        W77360  23.555  23.561   0.293
 5068W        W77361   7.405  37.428   2.297
 5069W        W77362  11.697  32.431   0.858
 5070W        W77363   3.898  20.622   0.431
 5071W        W77364   3.908   2.831   2.366
 5072W        W77365  10.250  21.601   3.344
 5073W        W77366   1.738  30.047  11.456
 5074W        W77367   6.816   1.822   4.761
 5075W        W77368  31.533   8.349  10.908
 5076W        W77369  20.236  18.085   0.786
 5077W        W77370  40.870  27.446  10.475
 5078W        W77371  24.561   5.253  12.049
 5079W        W77372  15.285  37.369   3.283
 5080W        W77373   4.323  32.930   2.207
 5081W        W77374  36.404   9.780   0.938
 5082W        W77375  11.157  44.871  12.580
 5083W        W77376  12.643  38.992   3.702
 5084W        W77377  32.905  10.237   3.849
 5085W        W77378   3.457  15.251  14.766
 5086W        W77379  33.887  43.925  10.551
 5087W        W77380   7.750  27.029   0.744
 5088W        W77381  35.016  21.565   4.345
 5089W        W77382  37.975   0.897  12.011
 5090W        W77383  28.970  34.543   1.305
 5091W        W77384  11.298  14.332  11.058
 5092W        W77385  33.026  21.617   3.361
 5093W        W77386  41.957  33.456   0.432
 5094W        W77387  43.297   8.894  10.470
 5095W        W77388  29.473  32.444   0.895
 5096W        W77389  44.863  42.011   2.326
 5097W        W77390  24.501  44.276  12.914
 5098W        W77391  10.312  23.048  14.901
 5099W        W77392   8.689  20.538  11.038
 5100W        W77393   0.805   4.421  14.931
 5101W        W77394  13.599  39.899   1.797
 5102W        W77395  23.086   0.310  13.480
 5103W        W77396  41.962  19.242   2.258
 5104W        W77397  19.735  38.333   3.803
 5105W        W77398   5.412  33.424   0.843
 5106W        W77399  15.252  14.801  10.510
 5107W        W77400  41.839  21.640  13.803
 5108W        W77401  30.597   6.357  14.392
 5109W        W77402  19.101   9.689  14.811
 5110W        W77403  17.655  10.143  11.488
 5111W        W77404   1.465  30.413  10.484
 5112W        W77405  16.111  26.099  12.904
 5113W        W77406  38.361   1.923   0.795
 5114W        W77407  39.964  34.461  11.570
 5115W        W77408  32.095  33.381   2.243
 5116W        W77409  17.620  19.779  13.510
 5117W        W77410  25.971  43.846   1.330
 5118W        W77411  34.491  32.033   4.684
 5119W        W77412  43.775  35.052   2.360
 5120W        W77413  29.617  21.655  10.121
 5121W        W77414   3.461  16.271  13.501
 5122W        W77415  20.032  28.159  13.431
 5123W        W77416  37.955  41.478  12.573
 5124W        W77417  25.642  24.128  11.497
 5125W        W77418  42.966   7.284   1.877
 5126W        W77419  14.257  13.842   2.714
 5127W        W77420  15.185  26.011  11.919
 5128W        W77421  24.497  23.046   0.757
 5129W        W77422   0.820  28.126   2.311
 5130W        W77423  44.988  31.014  13.056
 5131W        W77424   5.781  42.866  10.471
 5132W        W77425   1.448  14.168   1.447
 5133W        W77426  38.977  14.315  12.037
 5134W        W77427  20.221  10.327  10.992
 5135W        W77428  34.987   6.371  13.824
 5136W        W77429  28.681  21.150   2.756
 5137W        W77430  42.298  18.770   3.868
 5138W        W77431  28.581  37.886   3.364
 5139W        W77432  44.321  37.909   2.877
 5140W        W77433   8.192   8.891  14.851
 5141W        W77434   4.789  18.582   3.154
 5142W        W77435  18.098  21.644  11.591
 5143W        W77436  25.698  40.426  14.448
 5144W        W77437   4.892   2.931   1.930
 5145W        W77438   1.322  12.329   0.372
 5146W        W77439  37.016  36.996   4.641
 5147W        W77440  19.742  42.417  14.373
 5148W        W77441  22.111  41.000  10.434
 5149W        W77442  21.519  33.125  11.600
 5150W        W77443   0.839  23.155   4.628
 5151W        W77444  22.174   3.906   4.670
 5152W        W77445  34.969  39.445   2.719
 5153W        W77446  31.923  24.012  11.096
 5154W        W77447   4.236  18.139   2.823
 5155W        W77448  33.953  25.476   1.446
 5156W        W77449  43.914  18.091  12.482
 5157W        W77450  11.275  39.328   0.467
 5158W        W77451  40.363  36.479  11.494
 5159W        W77452  34.058  38.564   3.758
 5160W        W77453  42.329  43.370   3.756
 5161W        W77454  10.860  14.249   0.938
 5162W        W77455  10.807  21.257   0.402
 5163W        W77456  33.071  23.167  12.061
 5164W        W77457  44.293   0.420   1.749
 5165W        W77458  44.940   0.352   3.266
 5166W        W77459  35.000  31.076  11.878
 5167W        W77460   6.411  31.514  13.448
 5168W        W77461  41.816   4.428  10.549
 5169W        W77462  41.977  38.932   0.414
 5170W        W77463  25.683  13.803   3.299
 5171W        W77464  28.610   0.260   1.236
 5172W        W77465   0.899   4.287   4.801
 5173W        W77466  27.148   8.291   2.880
 5174W        W77467   3.351  16.586   0.953
 5175W        W77468   4.338   6.197  14.768
 5176W        W77469   4.222   4.417   3.838
 5177W        W77470  10.228  15.216   4.824
 5178W        W77471   2.439   2.284   1.818
 5179W        W77472  15.672  27.158   4.146
 5180W        W77473  14.143  33.033  13.930
 5181W        W77474  26.978  19.747  13.495
 5182W        W77475  11.811  11.827   1.787
 5183W        W77476  40.052  42.787  14.927
 5184W        W77477  37.858  40.941  10.895
 5185W        W77478   1.942  32.104  13.840
 5186W        W77479  11.171  10.747  11.442
 5187W        W77480  23.080  24.085   3.184
 5188W        W77481  21.542  31.006   0.895
 5189W        W77482   5.741  35.581   5.173
 5190W        W77483  35.566  42.001  10.914
 5191W        W77484  18.162  27.998  13.316
 5192W        W77485  43.306  24.711  12.864
 5193W        W77486  11.694  17.802   0.438
 5194W        W77487  31.571   9.165   1.352
 5195W        W77488   1.734  13.161   0.900
 5196W        W77489   5.250   1.768  12.409
 5197W        W77490  18.090  40.834   4.269
 5198W        W77491  22.691  21.107  10.498
 5199W        W77492  24.514  10.202  11.434
 5200W        W77493  17.191  42.430   4.343
 5201W        W77494  33.986  38.904   3.684
 5202W        W77495  16.167  16.643  12.967
 5203W        W77496  10.699  26.628  11.449
 5204W        W77497  16.153  38.432   4.801
 5205W        W77498  12.847  40.049   4.285
 5206W        W77499  20.049  10.844   1.911
 5207W        W77500  14.631  20.747   4.265
 5208W        W77501  24.025  12.632  12.359
 5209W        W77502  26.495  42.325  14.278
 5210W        W77503   0.279   6.861  12.005
 5211W        W77504  34.436   6.395   2.267
 5212W        W77505  43.892  39.327   0.316
 5213W        W77506  37.426  41.492  10.527
 5214W        W77507   5.913   4.444  14.414
 5215W        W77508  18.664   6.922  12.340
 5216W        W77509  33.043  43.843   0.463
 5217W        W77510  32.396  10.328  14.859
 5218W        W77511  16.687  18.632   0.821
 5219W        W77512  29.050  15.610   0.432
 5220W        W77513  12.809  40.925   1.421
 5221W        W77514   6.288  22.571  13.988
 5222W        W77515  26.195  37.419   3.855
 5223W        W77516  33.625   9.370   4.310
 5224W        W77517  43.441   0.297   5.581
 5225W        W77518  40.515   3.940   0.448
 5226W        W77519  18.720  38.476   1.728
 5227W        W77520  44.987  38.552  11.974
 5228W        W77521  32.506  20.134  11.106
 5229W        W77522  26.517   4.866  13.955
 5230W        W77523  30.103  40.400  11.940
 5231W        W77524   5.891  19.686   4.335
 5232W        W77525  28.129   7.290   4.608
 5233W        W77526  38.397   7.749  13.014
 5234W        W77527  20.565  38.027   1.741
 5235W        W77528  22.646  22.248  14.406
 5236W        W77529  39.979  16.682  13.484
 5237W        W77530  33.562  17.587  14.458
 5238W        W77531   6.859  37.429   3.260
 5239W        W77532  29.128  25.530   3.366
 5240W        W77533   8.318  16.618  11.448
 5241W        W77534  36.496  16.195  11.586
 5242W        W77535   0.872  19.110  14.859
 5243W        W77536  43.358  42.387  13.972
 5244W        W77537  16.278   4.255   3.638
 5245W        W77538  44.294  44.444   0.385
 5246W        W77539   6.381  24.141  14.027
 5247W        W77540  19.762  35.565   1.225
 5248W        W77541  16.695   5.760  11.449
 5249W        W77542  40.370  17.745   0.468
 5250W        W77543  40.846   9.222   2.297
 5251W        W77544  36.408  37.394   5.169
 5252W        W77545  15.094   9.747  11.377
 5253W        W77546  42.430  26.485   3.855
 5254W        W77547  10.245  42.331   3.816
 5255W        W77548  38.385  23.193   1.381
 5256W        W77549  41.389  25.201   0.946
 5257W        W77550  25.166  15.615  12.054
 5258W        W77551  18.062  16.235  11.966
 5259W        W77552  22.086  23.558  12.572
 5260W        W77553   7.388  28.186  11.985
 5261W        W77554   2.408  39.869  13.807
 5262W        W77555  25.004  30.086  12.032
 5263W        W77556   3.251  25.965   3.319
 5264W        W77557  16.206  42.465   2.319
 5265W        W77558  11.321  36.368  11.891
 5266W        W77559  32.062  38.849  10.635
 5267W        W77560  35.050   4.816  14.915
 5268W        W77561  19.141  20.659   5.167
 5269W        W77562  28.476  16.638  11.059
 5270W        W77563  36.944  30.100   4.147
 5271W        W77564  30.119  40.982  11.381
 5272W        W77565  14.176  12.150   0.332
 5273W        W77566  35.930  38.360   2.677
 5274W        W77567  28.179  15.223  13.807
 5275W        W77568  37.972  37.918  12.537
 5276W        W77569  37.936  23.138  13.449
 5277W        W77570  33.397  26.671   4.286
 5278W        W77571  42.948  21.238   1.299
 5279W        W77572  42.455  23.550  11.030
 5280W        W77573   8.252   3.825   1.894
 5281W        W77574  12.811  28.478   0.478
 5282W        W77575  14.100  25.662  14.887
 5283W        W77576  20.709  11.833   4.621
 5284W        W77577  38.020  22.028   3.182
 5285W        W77578  34.521  34.972  11.984
 5286W        W77579  24.545  13.210   3.320
 5287W        W77580  14.320  38.521  14.415
 5288W        W77581  13.315  43.461  12.533
 5289W        W77582   7.320  34.584   0.359
 5290W        W77583  27.022  11.171   4.702
 5291W        W77584  26.616  42.872  13.326
 5292W        W77585  40.401  31.468   1.735
 5293W        W77586  28.558  42.002  13.017
 5294W        W77587  17.092  41.787  14.396
 5295W        W77588  37.457  29.455   4.300
 5296W        W77589  25.575   8.739   5.314
 5297W        W77590   7.736  41.021  13.317
 5298W        W77591  19.658  40.437  13.857
 5299W        W77592  37.393  31.124  10.488
 5300W        W77593  17.777  39.329   1.734
 5301W        W77594  22.530  18.586   3.383
 5302W        W77595  44.448  21.260   3.731
 5303W        W77596  36.855  28.068  11.878
 5304W        W77597  18.114  36.531  13.315
 5305W        W77598  13.336  35.989   2.724
 5306W        W77599  32.510  27.114   0.431
 5307W        W77600   5.728  33.112   0.428
 5308W        W77601  29.518  12.249  13.945
 5309W        W77602  35.543   4.315  14.888
 5310W        W77603  10.245  41.376  13.509
 5311W        W77604  30.071  27.571   0.959
 5312W        W77605  25.017   3.311   4.354
 5313W        W77606  27.679  34.994   0.378
 5314W        W77607  16.279  42.333   1.757
 5315W        W77608  31.538  38.006  12.902
 5316W        W77609  18.169   9.885   4.796
 5317W        W77610  33.499  31.962  11.938
 5318W        W77611  23.123  38.046  13.876
 5319W        W77612   3.812  25.165  12.372
 5320W        W77613  43.924   1.245   0.824
 5321W        W77614   1.850  27.644   1.846
 5322W        W77615  26.196  32.026  14.030
 5323W        W77616  17.283   9.730  13.999
 5324W        W77617  42.852  23.071   4.323
 5325W        W77618  10.201  21.231   0.921
 5326W        W77619  30.490  21.555  10.582
 5327W        W77620   5.340   5.925   3.697
 5328W        W77621  42.503  23.656   0.869
 5329W        W77622  14.223  44.398   0.911
 5330W        W77623  30.654  13.703  10.917
 5331W        W77624   8.271  35.944   1.232
 5332W        W77625  35.017   0.390   0.355
 5333W        W77626  14.742   3.738   0.962
 5334W        W77627   4.877  10.288   5.198
 5335W        W77628  13.105   5.264  13.842
 5336W        W77629  31.901  12.677  11.529
 5337W        W77630  23.716   6.417   3.242
 5338W        W77631  19.660  12.620  10.547
 5339W        W77632   6.912  43.389  11.945
 5340W        W77633  20.625  20.246   2.338
 5341W        W77634  12.248  15.167   2.721
 5342W        W77635  24.025  43.460  14.360
 5343W        W77636   6.412  21.579   0.280
 5344W        W77637  44.330  21.688   2.357
 5345W        W77638  28.036   4.358  13.883
 5346W        W77639  38.962  36.465  11.448
 5347W        W77640  23.222  37.526   0.376
 5348W        W77641  23.549   0.439   2.771
 5349W        W77642  44.923  38.955   1.817
 5350W        W77643  41.495   2.878  10.637
 5351W        W77644  18.697  23.727   3.713
 5352W        W77645  10.798  32.106  11.123
 5353W        W77646  24.527   2.404   9.539
 5354W        W77647  34.084  28.448  13.978
 5355W        W77648  38.346  35.897  13.022
 5356W        W77649  40.050  44.919   4.796
 5357W        W77650  40.030  39.444   2.189
 5358W        W77651   7.700  20.532  12.570
 5359W        W77652  43.924  12.730  11.469
 5360W        W77653  16.142  31.446   4.785
 5361W        W77654  39.982   2.852  12.487
 5362W        W77655   2.332  25.478  13.945
 5363W        W77656   4.819  27.096  11.472
 5364W        W77657  37.452  24.112  10.988
 5365W        W77658  11.711   2.289   3.866
 5366W        W77659   3.938  27.597   3.663
 5367W        W77660  30.638  28.561   4.214
 5368W        W77661  14.104  17.593   4.189
 5369W        W77662  41.530  39.926  13.516
 5370W        W77663   8.656   0.292  13.521
 5371W        W77664   0.363   9.729  11.383
 5372W        W77665  33.459  44.883   4.626
 5373W        W77666  22.233   5.720   3.171
 5374W        W77667  39.411   0.291  10.953
 5375W        W77668  28.556  25.661  12.876
 5376W        W77669  31.435  12.224   4.155
 5377W        W77670   1.437   4.907   0.891
 5378W        W77671  33.390  36.355   1.262
 5379W        W77672  32.597  10.140   2.712
 5380W        W77673  37.576  31.479  12.500
 5381W        W77674  20.570   6.788  12.846
 5382W        W77675  31.435   0.783   3.788
 5383W        W77676  39.845   0.438   0.868
 5384W        W77677  19.074  31.569   3.761
 5385W        W77678   6.837   3.849   1.356
 5386W        W77679   7.387  20.247   4.629
 5387W        W77680  10.239  35.856  10.133
 5388W        W77681  30.562   0.285  14.906
 5389W        W77682  15.328  12.691  13.342
 5390W        W77683  24.519   1.960   4.168
 5391W        W77684  42.311  36.024  14.013
 5392W        W77685  29.111  10.270  11.588
 5393W        W77686   2.930   4.226  13.873
 5394W        W77687   4.788   5.791   0.425
 5395W        W77688  29.122  37.437  11.126
 5396W        W77689  13.677  25.157  14.354
 5397W        W77690  13.270  37.396  14.948
 5398W        W77691  37.997  40.507  13.466
 5399W        W77692  33.390   3.932   2.232
 5400W        W77693   8.272   1.318  10.899
 5401W        W77694  43.490  38.033  11.890
 5402W        W77695  19.749  21.524  14.364
 5403W        W77696  34.954   4.881   1.252
 5404W        W77697  14.296   0.248  11.486
 5405W        W77698  43.992  22.234  14.888
 5406W        W77699  31.105  27.580  13.901
 5407W        W77700  23.060  11.755  12.564
 5408W        W77701  16.120   4.427  12.467
 5409W        W77702  19.543  42.370   3.681
 5410W        W77703  13.766  16.749   1.717
 5411W        W77704   2.738  24.548  13.967
 5412W        W77705  10.309   9.877  13.419
 5413W        W77706   2.458  27.606   4.627
 5414W        W77707  25.616   4.283   5.153
 5415W        W77708   8.774  40.303  12.074
 5416W        W77709  17.574  24.091  10.464
 5417W        W77710  29.961  27.601   4.173
 5418W        W77711  11.243  43.379  14.500
 5419W        W77712  35.068   3.393   2.837
 5420W        W77713  14.113  40.900   1.239
 5421W        W77714  19.556  30.418   2.767
 5422W        W77715  20.049  10.720  12.823
 5423W        W77716  22.035  24.196   4.671
 5424W        W77717  28.994  36.486   4.810
 5425W        W77718   6.282  34.930   9.987
 5426W        W77719   1.966  11.294   2.820
 5427W        W77720  27.158   1.326  13.533
 5428W        W77721  39.016   5.349  12.078
 5429W        W77722  40.349  43.283   4.161
 5430W        W77723   2.345   4.752   1.444
 5431W        W77724  36.561  35.531  13.511
 5432W        W77725  40.448  24.030   3.192
 5433W        W77726  42.884  40.850  14.311
 5434W        W77727  10.655   2.744   0.479
 5435W        W77728   0.472  37.483  12.962
 5436W        W77729  30.604  12.666   0.314
 5437W        W77730   6.358   9.167  10.971
 5438W        W77731   6.726  31.968   4.625
 5439W        W77732  32.133  36.060  14.315
 5440W        W77733  23.506   8.269  13.946
 5441W        W77734  15.091  34.400   4.831
 5442W        W77735  20.073  31.079   1.809
 5443W        W77736  12.358  34.546  13.920
 5444W        W77737  19.150  27.186   2.256
 5445W        W77738   4.805  28.507   4.702
 5446W        W77739  39.916  37.953  12.474
 5447W        W77740   9.280  34.017  11.044
 5448W        W77741  25.699  40.832   1.739
 5449W        W77742  36.466  15.813  11.920
 5450W        W77743   3.780  33.506   3.865
 5451W        W77744  33.623  24.025  13.537
 5452W        W77745  34.385   0.875  11.414
 5453W        W77746  35.009  21.678   3.158
 5454W        W77747   8.802  19.641   4.828
 5455W        W77748  21.747  34.953  11.049
 5456W        W77749  28.475   1.298   4.132
 5457W        W77750  13.806  13.176  13.823
 5458W        W77751  17.100  42.425  12.864
 5459W        W77752   8.230   4.283  13.479
 5460W        W77753  26.629  31.473  12.997
 5461W        W77754  37.889  31.426   0.807
 5462W        W77755  43.306  10.826   2.862
 5463W        W77756  41.030  17.590   1.397
 5464W        W77757  30.951  22.731   3.219
 5465W        W77758   0.777  14.608  12.095
 5466W        W77759  39.560  37.857  10.995
 5467W        W77760  34.507  13.140  13.466
 5468W        W77761  25.520  35.984  12.039
 5469W        W77762   1.783   5.908  10.417
 5470W        W77763  11.307   0.754  11.058
 5471W        W77764  12.305  34.961  14.312
 5472W        W77765   6.384  20.672   0.855
 5473W        W77766  20.672  17.597  13.501
 5474W        W77767  40.420  19.743  10.952
 5475W        W77768  31.904  22.551  12.391
 5476W        W77769  22.021  11.655   2.412
 5477W        W77770  32.133  10.699   5.181
 5478W        W77771  22.191  21.143   0.254
 5479W        W77772  33.572  42.816  10.416
 5480W        W77773   8.382  11.127  14.373
 5481W        W77774  17.116  39.332  10.441
 5482W        W77775  23.525  42.785   5.101
 5483W        W77776  29.481  20.692   3.647
 5484W        W77777   6.408  19.086   4.807
 5485W        W77778  40.030   4.708   4.114
 5486W        W77779  12.696  12.240   0.895
 5487W        W77780  26.983  14.321   3.371
 5488W        W77781  38.956  34.417   1.832
 5489W        W77782  27.485  32.047  12.055
 5490W        W77783  21.103  16.188   3.678
 5491W        W77784  14.145  24.667  12.066
 5492W        W77785  39.813  39.017  13.390
 5493W        W77786  34.436  25.117   4.769
 5494W        W77787  43.286   7.275   0.417
 5495W        W77788  13.343  34.101  14.020
 5496W        W77789  28.050   1.409   3.739
 5497W        W77790  43.355  12.216  14.798
 5498W        W77791  38.363  29.627   0.754
 5499W        W77792  44.346  19.267   1.387
 5500W        W77793  12.733  44.331  13.965
 5501W        W77794  40.952  14.601  14.495
 5502W        W77795  31.507  20.213   1.292
 5503W        W77796  30.432  33.905   3.665
 5504W        W77797   4.819  41.031  13.520
 5505W        W77798  22.587  10.176   2.212
 5506W        W77799  24.999  13.707  14.971
 5507W        W77800   7.685  15.676  10.991
 5508W        W77801  37.514  11.208   0.438
 5509W        W77802  14.831  35.560   1.855
 5510W        W77803  44.449  32.582  12.089
 5511W        W77804  16.660  21.145   3.241
 5512W        W77805  24.697  24.059  11.537
 5513W        W77806  40.378  33.976  12.444
 5514W        W77807   9.172  37.470  14.501
 5515W        W77808  29.662   3.243   0.920
 5516W        W77809  19.175  29.945   9.497
 5517W        W77810  17.686  29.124   3.147
 5518W        W77811  13.840  10.248   4.762
 5519W        W77812  18.665  40.347   1.864
 5520W        W77813  27.025  21.097  14.320
 5521W        W77814  33.039  28.564   0.903
 5522W        W77815   0.796  16.088  11.424
 5523W        W77816  27.605  35.383  12.825
 5524W        W77817  21.522  43.857  12.497
 5525W        W77818  44.810   7.391   2.673
 5526W        W77819   0.907   1.305  13.838
 5527W        W77820  38.988  27.498   4.776
 5528W        W77821  35.882  11.705  12.849
 5529W        W77822   9.761  16.294   2.859
 5530W        W77823  32.618   1.883   3.178
 5531W        W77824   0.370  35.046  13.438
 5532W        W77825  15.660  36.514  12.982
 5533W        W77826  22.226  29.446   2.214
 5534W        W77827  12.648  37.845  13.899
 5535W        W77828  25.712  28.535   3.204
 5536W        W77829   1.315  17.799   1.905
 5537W        W77830   5.433  22.578  10.011
 5538W        W77831  38.074  41.917  10.615
 5539W        W77832  12.269  10.166   3.229
 5540W        W77833   5.318  17.633  13.311
 5541W        W77834  37.836  26.601  14.001
 5542W        W77835  38.440   8.870  14.323
 5543W        W77836  36.486  41.356   2.668
 5544W        W77837  17.638  13.679  14.277
 5545W        W77838  15.684  24.202  10.428
 5546W        W77839   9.356  36.080   5.684
 5547W        W77840   1.938   3.310   2.381
 5548W        W77841  35.549  21.539   0.831
 5549W        W77842  19.263  31.522  10.917
 5550W        W77843  29.566  33.023   1.839
 5551W        W77844  40.469   4.772  11.456
 5552W        W77845  16.150  31.094   0.872
 5553W        W77846  19.141   3.347  14.997
 5554W        W77847   7.808  16.083  14.867
 5555W        W77848  39.461  12.728   1.931
 5556W        W77849  19.757  29.463   4.655
 5557W        W77850  10.224  14.754   4.152
 5558W        W77851  21.233  24.586   4.789
 5559W        W77852   4.418  19.116  14.368
 5560W        W77853  33.039  36.870  13.873
 5561W        W77854   3.421  33.508   4.832
 5562W        W77855  40.325  42.830   4.266
 5563W        W77856  40.309  35.094  11.104
 5564W        W77857  28.981  37.403  10.546
 5565W        W77858  39.890  13.634   1.829
 5566W        W77859  36.060  33.504  13.368
 5567W        W77860  44.448  30.477  14.487
 5568W        W77861  16.678  14.101   1.323
 5569W        W77862  20.204   9.689   3.162
 5570W        W77863  12.693  44.279   1.912
 5571W        W77864  26.638  23.143   0.823
 5572W        W77865  44.996  12.263   0.967
 5573W        W77866  41.015  35.371  11.465
 5574W        W77867   5.301  22.201  12.364
 5575W        W77868   4.713  44.398  14.999
 5576W        W77869  29.447  28.983  13.996
 5577W        W77870   9.644  11.764  11.987
 5578W        W77871  23.088  12.299   4.760
 5579W        W77872  20.524  28.094  11.543
 5580W        W77873  28.463  40.506  14.355
 5581W        W77874  31.113  40.459  13.966
 5582W        W77875   2.418  11.157   3.311
 5583W        W77876  16.215  28.125  13.020
 5584W        W77877  44.309  40.938  14.945
 5585W        W77878  38.033  43.786   4.779
 5586W        W77879   3.345  13.800  13.500
 5587W        W77880  21.520  36.587  11.038
 5588W        W77881  11.682  34.012   3.695
 5589W        W77882  32.042  22.028  12.563
 5590W        W77883  42.957  20.196   0.402
 5591W        W77884  24.675   1.922  10.116
 5592W        W77885  35.978  11.631   3.664
 5593W        W77886   3.343  17.678  12.056
 5594W        W77887  44.886  31.958   9.968
 5595W        W77888  43.792  36.941  12.559
 5596W        W77889  19.568   7.241   3.298
 5597W        W77890   3.451  15.139  12.867
 5598W        W77891  27.531  16.268  14.922
 5599W        W77892  32.976  12.735   1.870
 5600W        W77893  10.754  21.755  14.327
 5601W        W77894   7.798  25.684  14.506
 5602W        W77895  36.049   4.216   3.185
 5603W        W77896  29.932  39.041  14.802
 5604W        W77897  27.683  41.831  13.975
 5605W        W77898  34.058  20.120   2.836
 5606W        W77899   1.252   3.383   4.819
 5607W        W77900   4.918  38.523  13.888
 5608W        W77901  35.417  25.083   0.303
 5609W        W77902  24.567  40.366   2.680
 5610W        W77903   1.241  26.553  10.560
 5611W        W77904   2.798  28.474   2.334
 5612W        W77905  28.040  32.915   0.336
 5613W        W77906  22.162  26.668  11.535
 5614W        W77907   7.412  38.368  14.783
 5615W        W77908  16.261   8.174   2.831
 5616W        W77909  23.649  26.532   1.708
 5617W        W77910  44.332   0.777   3.300
 5618W        W77911  35.001  34.583   2.696
 5619W        W77912   2.905  37.078  11.891
 5620W        W77913  30.029  26.590  12.956
 5621W        W77914   3.828  42.318  10.918
 5622W        W77915  10.870  31.956   3.305
 5623W        W77916  16.603  12.278   4.262
 5624W        W77917   5.265  18.263   3.848
 5625W        W77918  25.102   8.263   4.161
 5626W        W77919  22.159  19.633  13.869
 5627W        W77920  36.986  31.063  12.574
 5628W        W77921  21.555   7.417   1.399
 5629W        W77922  10.843  13.236  13.863
 5630W        W77923  21.205   5.902   4.597
 5631W        W77924  36.366  29.533   4.263
 5632W        W77925  33.028   5.283   4.156
 5633W        W77926  26.166  12.760   3.825
 5634W        W77927  26.040  18.228   4.638
 5635W        W77928  25.550  14.744  12.033
 5636W        W77929  17.176  32.565   4.341
 5637W        W77930   2.454  16.683  11.115
 5638W        W77931  41.940  42.515  12.082
 5639W        W77932  20.745  36.053   1.904
 5640W        W77933  21.121   3.250   2.822
 5641W        W77934  28.982  16.256  12.543
 5642W        W77935  10.169  37.389   3.385
 5643W        W77936  43.361   5.195  13.514
 5644W        W77937  26.648  15.752  14.356
 5645W        W77938  29.434  22.680   4.688
 5646W        W77939  31.015  42.435  10.538
 5647W        W77940  15.613  18.111   3.688
 5648W        W77941  39.889  16.251   0.393
 5649W        W77942  33.964  40.026   3.244
 5650W        W77943  37.914  10.381  14.415
 5651W        W77944  27.458  17.218   1.416
 5652W        W77945  25.675  30.552   4.633
 5653W        W77946  12.172  18.641   0.471
 5654W        W77947  25.530   8.871   0.265
 5655W        W77948  41.978   3.397   0.472
 5656W        W77949  32.634  20.683   4.752
 5657W        W77950  44.953  31.045   1.296
 5658W        W77951  40.877   0.450  14.365
 5659W        W77952  35.026  17.214  13.325
 5660W        W77953  38.017  32.948   4.128
 5661W        W77954   6.681  26.591   0.403
 5662W        W77955   8.204  26.622   2.819
 5663W        W77956  12.275  14.318   1.792
 5664W        W77957  11.246   5.918  11.924
 5665W        W77958  18.708   8.273   1.352
 5666W        W77959  32.578  18.233   1.789
 5667W        W77960  16.133  23.672   3.739
 5668W        W77961   7.810  18.149  11.382
 5669W        W77962  40.924  42.291   4.148
 5670W        W77963   0.775  26.093  13.447
 5671W        W77964  13.158  24.623  10.935
 5672W        W77965  17.578  15.620  11.559
 5673W        W77966  37.567  37.491   0.418
 5674W        W77967  39.340  38.034   3.166
 5675W        W77968  29.158  27.122  12.465
 5676W        W77969  14.207  13.803   4.297
 5677W        W77970  31.518  32.452   2.688
 5678W        W77971  36.000  21.039   0.930
 5679W        W77972   7.757   7.360  12.561
 5680W        W77973  30.447  27.671   3.656
 5681W        W77974  16.720  26.051  13.908
 5682W        W77975  15.670  23.008   4.837
 5683W        W77976  31.031  30.001  14.769
 5684W        W77977  13.793   8.765   5.293
 5685W        W77978  20.150  22.536   0.892
 5686W        W77979  38.512   0.338  14.476
 5687W        W77980  31.505   7.777   2.264
 5688W        W77981   3.384  29.518   1.349
 5689W        W77982  20.639  17.750   1.409
 5690W        W77983  29.562  30.928   3.322
 5691W        W77984  27.104  11.239  12.381
 5692W        W77985  30.456  26.494  12.525
 5693W        W77986  39.386  16.077   4.822
 5694W        W77987  18.611  25.039   2.794
 5695W        W77988  15.814  24.125   5.166
 5696W        W77989   1.936  28.603   4.231
 5697W        W77990  29.997  44.367   2.270
 5698W        W77991  40.047  19.140   0.786
 5699W        W77992  38.874  35.082   1.321
 5700W        W77993   1.349  24.183  14.979
 5701W        W77994  40.532  25.634  12.421
 5702W        W77995  16.683  35.071   2.309
 5703W        W77996  14.709  41.830  12.491
 5704W        W77997  39.555  40.940  10.481
 5705W        W77998   7.385  14.635   1.844
 5706W        W77999  36.906   2.791   1.712
 5707W        W78000  22.551  24.566  11.012
 5708W        W78001  39.851  21.203  11.091
 5709W        W78002  37.968  20.648   4.672
 5710W        W78003  24.060  31.985  11.050
 5711W        W78004   9.392   2.275   0.450
 5712W        W78005  40.866   4.774   4.126
 5713W        W78006  12.736   1.862  13.821
 5714W        W78007  10.355  17.700  12.390
 5715W        W78008  24.199  16.225   2.336
 5716W        W78009  44.276  26.168  11.084
 5717W        W78010  44.308  15.229  13.924
 5718W        W78011  44.882  28.952   0.807
 5719W        W78012  23.713   2.269   3.665
 5720W        W78013  17.681  24.132   3.290
 5721W        W78014   5.906   6.793  13.796
 5722W        W78015  19.643  25.979   4.607
 5723W        W78016  15.649  31.939  12.015
 5724W        W78017  17.681  18.657  13.372
 5725W        W78018  26.569  18.787   2.307
 5726W        W78019  18.158  14.157  12.389
 5727W        W78020  36.436  39.845  14.915
 5728W        W78021  15.751  30.057  11.054
 5729W        W78022  35.979   3.360  13.909
 5730W        W78023  31.904  37.358  12.919
 5731W        W78024  40.404  22.098  11.449
 5732W        W78025   9.651   0.475   1.858
 5733W        W78026   9.720  30.141  13.817
 5734W        W78027  25.628   6.261   4.665
 5735W        W78028   9.706  40.917  14.957
 5736W        W78029   5.438  15.087   0.726
 5737W        W78030  43.954  42.512   1.754
 5738W        W78031  39.900   5.344  11.410
 5739W        W78032  28.970  16.297   4.242
 5740W        W78033  31.542  22.227  14.002
 5741W        W78034   2.819  24.589   2.824
 5742W        W78035   8.867  15.797  12.847
 5743W        W78036  41.325  40.541  12.069
 5744W        W78037  14.218  20.726  13.878
 5745W        W78038  17.203   2.427  11.126
 5746W        W78039  29.162  36.368  10.502
 5747W        W78040  12.683  43.458   3.750
 5748W        W78041   0.793  40.379   2.271
 5749W        W78042  19.075   0.828   4.821
 5750W        W78043  17.697  27.644   2.897
 5751W        W78044   1.348   6.261  12.973
 5752W        W78045  35.021  28.040  13.352
 5753W        W78046   3.377  22.530   2.219
 5754W        W78047  32.927  39.449   0.734
 5755W        W78048  12.716  15.737  10.041
 5756W        W78049  37.948  20.619   4.222
 5757W        W78050  20.149   7.711  11.524
 5758W        W78051  10.145  12.250   3.739
 5759W        W78052  40.830  33.068  10.488
 5760W        W78053   6.302  39.548   4.677
 5761W        W78054  43.279  21.687   3.647
 5762W        W78055   5.217  21.206   1.242
 5763W        W78056  20.253  32.892   0.833
 5764W        W78057   3.292  16.776  14.488
 5765W        W78058  34.416  27.956   2.805
 5766W        W78059  20.618  31.442  11.508
 5767W        W78060  17.760  20.131   1.239
 5768W        W78061   3.310  37.835   4.137
 5769W        W78062  22.107  17.649  14.347
 5770W        W78063  29.487  30.973  10.559
 5771W        W78064  38.560  29.535   3.772
 5772W        W78065  42.007  18.245   1.777
 5773W        W78066  36.411  44.475   4.631
 5774W        W78067   9.864  16.134  14.376
 5775W        W78068  32.041  19.100  10.487
 5776W        W78069  21.676  14.199   1.759
 5777W        W78070  11.771   8.794   5.270
 5778W        W78071  43.829  39.971  13.830
 5779W        W78072  11.339   9.884  12.394
 5780W        W78073  18.774   1.399   1.411
 5781W        W78074  32.513  41.013  12.473
 5782W        W78075  38.425  12.738  12.889
 5783W        W78076   2.905  42.372   3.751
 5784W        W78077  32.516  43.365   0.451
 5785W        W78078  27.108   8.252   3.715
 5786W        W78079  32.598  40.033  12.870
 5787W        W78080  13.713  24.702   0.743
 5788W        W78081  24.144  23.714   4.251
 5789W        W78082   7.231  25.699  11.572
 5790W        W78083  13.816  12.779  11.971
 5791W        W78084   6.403  12.148  13.932
 5792W        W78085  20.756  44.914  12.984
 5793W        W78086  38.916  16.296  11.379
 5794W        W78087  36.491  17.169   3.356
 5795W        W78088   9.757  32.136  13.961
 5796W        W78089   1.902  31.544  10.600
 5797W        W78090  29.003  43.438  13.038
 5798W        W78091  23.038  27.583   4.791
 5799W        W78092  21.644  15.696  13.468
 5800W        W78093   9.767  37.446   1.272
 5801W        W78094  35.041  18.172   3.305
 5802W        W78095  31.054  11.798   3.804
 5803W        W78096  30.910  15.626   3.216
 5804W        W78097  25.610  38.840   9.978
 5805W        W78098  18.186  43.419   4.170
 5806W        W78099  28.629   5.804  12.339
 5807W        W78100   0.476  25.968  13.805
 5808W        W78101  36.520  43.908   0.368
 5809W        W78102  24.993  25.102  14.933
 5810W        W78103   3.749   2.385  11.119
 5811W        W78104  21.159  25.564   3.234
 5812W        W78105  33.624  16.766   4.299
 5813W        W78106   5.725  43.983   3.831
 5814W        W78107  17.683  36.052   2.849
 5815W        W78108   2.299  27.107   4.639
 5816W        W78109   6.694  44.758   0.844
 5817W        W78110  29.927  31.546   4.761
 5818W        W78111  44.264  32.540  11.432
 5819W        W78112  24.587   5.294   2.335
 5820W        W78113  42.031  28.441   3.239
 5821W        W78114  37.948  19.193   4.139
 5822W        W78115  14.644  14.225   1.916
 5823W        W78116  13.601  42.286  14.770
 5824W        W78117  43.454  36.018   1.382
 5825W        W78118  10.142   0.987   4.247
 5826W        W78119  40.816   2.253   1.797
 5827W        W78120  27.483  18.652  11.082
 5828W        W78121  24.705  44.963   1.372
 5829W        W78122  30.075   9.767  12.475
 5830W        W78123  16.283  14.808   2.683
 5831W        W78124  14.106  28.991   4.837
 5832W        W78125  27.047  13.351   1.389
 5833W        W78126  14.812   0.796  14.015
 5834W        W78127  25.650  11.273   3.670
 5835W        W78128   4.906  17.225   2.820
 5836W        W78129  30.570  21.045  14.869
 5837W        W78130  29.454  38.483   1.439
 5838W        W78131  21.235   5.216  13.838
 5839W        W78132  23.597   9.394  11.449
 5840W        W78133  35.980  34.503  13.519
 5841W        W78134  33.594  37.427   1.384
 5842W        W78135  13.780   4.928  10.984
 5843W        W78136  29.025   9.335   0.898
 5844W        W78137  16.570  30.647   0.363
 5845W        W78138  25.997  32.029  11.879
 5846W        W78139  25.571  28.973   2.849
 5847W        W78140   5.357   5.298   3.243
 5848W        W78141  17.776  21.031  13.968
 5849W        W78142   2.878  38.937   3.815
 5850W        W78143  18.151  24.209  10.915
 5851W        W78144   0.412  42.446  11.072
 5852W        W78145  27.651  33.597   3.847
 5853W        W78146   6.911  23.542  11.060
 5854W        W78147  32.441   7.685  12.532
 5855W        W78148  20.761  21.132   2.901
 5856W        W78149   0.839  42.798   2.895
 5857W        W78150  42.825  41.535   4.612
 5858W        W78151  44.863  16.789   1.245
 5859W        W78152  10.754  40.932   4.810
 5860W        W78153  41.868   0.451  11.116
 5861W        W78154   2.280   8.860  12.081
 5862W        W78155  23.652  29.118   4.674
 5863W        W78156  11.803  39.027   5.109
 5864W        W78157  14.803  23.676  10.958
 5865W        W78158  38.337  24.545  11.061
 5866W        W78159  31.610  20.680   4.281
 5867W        W78160  43.422  38.540  11.874
 5868W        W78161  36.929  29.602  12.418
 5869W        W78162   3.289  31.983  10.086
 5870W        W78163  29.989  30.462   3.228
 5871W        W78164  30.057  14.285   2.273
 5872W        W78165  18.703  37.509   3.861
 5873W        W78166  10.878  26.641  14.508
 5874W        W78167   0.433  19.653  14.023
 5875W        W78168  29.588  40.501   1.727
 5876W        W78169  30.450  17.153  13.542
 5877W        W78170   0.887  15.688  10.087
 5878W        W78171  22.086  18.764  10.623
 5879W        W78172  32.465  20.139   2.408
 5880W        W78173   4.875  18.619  12.942
 5881W        W78174  35.413   9.331  12.873
 5882W        W78175   1.774  19.630   3.207
 5883W        W78176  10.807   1.403  12.487
 5884W        W78177  24.510  30.647   1.760
 5885W        W78178  35.445  35.375  14.997
 5886W        W78179  44.845  16.631  13.515
 5887W        W78180   8.901  40.915  12.375
 5888W        W78181  35.466   0.369  11.402
 5889W        W78182  11.291   1.801   4.266
 5890W        W78183  26.204  24.182   0.890
 5891W        W78184   8.781  30.654   0.935
 5892W        W78185  13.185  24.036  11.451
 5893W        W78186  39.323   9.259   2.316
 5894W        W78187  26.543  35.572   3.832
 5895W        W78188  24.022  12.241  13.997
 5896W        W78189   5.272   1.274   2.775
 5897W        W78190  40.818  12.281   0.342
 5898W        W78191  10.327  21.092   5.234
 5899W        W78192  26.962  25.704  14.359
 5900W        W78193  20.222  21.575  14.373
 5901W        W78194  36.352  21.569   3.170
 5902W        W78195  31.025  25.088  14.959
 5903W        W78196  19.145  35.544   4.160
 5904W        W78197   1.855  17.691   3.190
 5905W        W78198  39.021  16.126   0.848
 5906W        W78199  24.519   2.803  13.504
 5907W        W78200  34.393  17.261   2.800
 5908W        W78201   1.290  10.712  11.417
 5909W        W78202  20.542  32.141   5.126
 5910W        W78203  37.979  40.369  14.340
 5911W        W78204  23.570  42.489   2.685
 5912W        W78205  36.464  38.431   3.314
 5913W        W78206  16.110  27.074  12.428
 5914W        W78207  13.131   2.833   1.733
 5915W        W78208  10.243  29.004  13.370
 5916W        W78209  44.866  16.097  11.551
 5917W        W78210  36.957  40.532  13.015
 5918W        W78211  32.028  32.039   1.785
 5919W        W78212  29.663  33.001  10.968
 5920W        W78213  25.104  25.124  11.109
 5921W        W78214  12.696  21.709  13.060
 5922W        W78215  28.541  16.122   3.156
 5923W        W78216  12.836  23.662   2.179
 5924W        W78217  26.016  15.285   3.309
 5925W        W78218  44.389  26.581  13.879
 5926W        W78219  19.133  38.870   0.412
 5927W        W78220   9.229  25.500   0.277
 5928W        W78221  34.908  17.274   2.872
 5929W        W78222   7.710  33.532  14.406
 5930W        W78223  37.022  36.532   4.665
 5931W        W78224  30.085  41.036   4.315
 5932W        W78225  23.506  30.037  11.539
 5933W        W78226  22.674  44.994   3.856
 5934W        W78227  11.742  19.607  12.452
 5935W        W78228   6.836   6.357  14.378
 5936W        W78229  11.260   8.347  11.588
 5937W        W78230  26.087  10.286   0.480
 5938W        W78231  22.132  32.497  12.475
 5939W        W78232  32.127  19.693  14.857
 5940W        W78233  36.369  19.710   0.480
 5941W        W78234  40.028  38.401  11.892
 5942W        W78235  24.587   8.803   0.274
 5943W        W78236  38.899  14.261   0.956
 5944W        W78237  39.831  31.074   1.363
 5945W        W78238  37.449  27.001   1.918
 5946W        W78239  36.516  31.985   1.780
 5947W        W78240  14.177  37.572  13.863
 5948W        W78241  33.901  38.021  14.030
 5949W        W78242  21.671  29.977   2.242
 5950W        W78243   4.263  28.974  14.500
 5951W        W78244  20.120  24.030   3.842
 5952W        W78245  44.889  33.887  13.953
 5953W        W78246  37.012  22.622  11.073
 5954W        W78247  43.445  36.883   4.648
 5955W        W78248   7.336  37.880   0.905
 5956W        W78249  43.361  35.399  11.034
 5957W        W78250  20.654  30.652  10.507
 5958W        W78251  37.544  37.341   1.811
 5959W        W78252  27.558  37.898   4.613
 5960W        W78253  29.426   0.932  12.578
 5961W        W78254   7.316  11.369   0.769
 5962W        W78255  21.129  25.550  10.610
 5963W        W78256  32.135   5.320   4.206
 5964W        W78257   9.172  34.972   4.810
 5965W        W78258  37.374   4.286  10.448
 5966W        W78259  14.202  17.677  11.128
 5967W        W78260  13.665   5.773  10.434
 5968W        W78261  20.593  10.348   0.305
 5969W        W78262   2.315   7.668   4.219
 5970W        W78263  10.306  35.047   3.322
 5971W        W78264  43.324   3.277   4.634
 5972W        W78265  12.786  26.986  14.829
 5973W        W78266   3.265   7.678  14.973
 5974W        W78267   3.427   9.699  11.453
 5975W        W78268   1.901  12.353  13.366
 5976W        W78269  40.346  26.024   2.855
 5977W        W78270   7.855  23.004  11.493
 5978W        W78271   3.923  20.619  10.412
 5979W        W78272   2.450   3.367  14.934
 5980W        W78273  38.846  38.866   0.379
 5981W        W78274  17.798  14.592   0.895
 5982W        W78275  12.155  10.781   3.837
 5983W        W78276   4.778  32.567  10.918
 5984W        W78277   3.323  16.704   0.243
 5985W        W78278  17.257  21.720   4.159
 5986W        W78279  10.668  41.358   1.823
 5987W        W78280   0.825  34.522  14.785
 5988W        W78281  30.952  41.875   3.800
 5989W        W78282  24.515  43.834   4.653
 5990W        W78283  34.104  27.188   0.455
 5991W        W78284   4.769  22.151   0.761
 5992W        W78285  38.909  13.843   1.700
 5993W        W78286  37.952  31.611   3.340
 5994W        W78287  44.486  23.621   1.279
 5995W        W78288  11.808   7.382  14.803
 5996W        W78289  21.021  28.511  11.955
 5997W        W78290   1.316   4.940  13.525
 5998W        W78291  38.569  11.747   3.642
 5999W        W78292  20.045  29.450   5.094
 6000W        W78293  32.568   9.787  12.000
 6001W        W78294  17.276  12.125   1.394
 6002W        W78295   4.742  15.286  10.979
 6003W        W78296   8.684  35.414   1.785
 6004W        W78297  34.559  19.250  11.540
 6005W        W78298  24.101  32.472   0.929
 6006W        W78299  39.027  26.076   4.681
 6007W        W78300  15.251  10.824   3.702
 6008W        W78301   7.904  25.520   0.888
 6009W        W78302  43.824  18.203  11.433
 6010W        W78303   8.324   6.710   4.281
 6011W        W78304  23.069  17.699  14.007
 6012W        W78305  30.948  34.420  13.319
 6013W        W78306  37.083  22.510  13.473
 6014W        W78307  24.143   7.216   1.291
 6015W        W78308   1.447  35.439  14.437
 6016W        W78309  19.660  17.632  12.417
 6017W        W78310  16.160   8.715  11.473
 6018W        W78311   9.644  13.644   1.433
 6019W        W78312  31.589  36.062  11.548
 6020W        W78313  44.329  43.411  10.422
 6021W        W78314  38.409  19.231  13.997
 6022W        W78315  22.038  42.302  11.885
 6023W        W78316   3.867  39.340  14.510
 6024W        W78317  16.598  19.655  11.966
 6025W        W78318  17.111  19.238   4.217
 6026W        W78319  15.666  44.324  14.369
 6027W        W78320  28.515  30.506  10.414
 6028W        W78321  36.442  13.232  10.603
 6029W        W78322  23.100  37.955  14.945
 6030W        W78323  39.809  29.459  11.988
 6031W        W78324   1.914  10.779   4.760
 6032W        W78325  21.606  31.964   3.350
 6033W        W78326  27.022  32.132  13.818
 6034W        W78327   2.786  28.070  14.314
 6035W        W78328  19.756  10.804  13.975
 6036W        W78329  18.090  18.193   0.847
 6037W        W78330   7.236   5.856  13.529
 6038W        W78331  13.719  31.616   2.301
 6039W        W78332  44.863  32.933   3.831
 6040W        W78333  18.057   5.787  14.494
 6041W        W78334   3.809  41.972  14.904
 6042W        W78335  10.873  18.295   2.376
 6043W        W78336   5.257  43.949   2.822
 6044W        W78337  13.181  38.539   3.788
 6045W        W78338  36.461  12.815  12.019
 6046W        W78339  25.593  36.466   4.173
 6047W        W78340   3.921  43.464   1.733
 6048W        W78341   6.412  12.338   2.312
 6049W        W78342  27.166  42.408  14.275
 6050W        W78343   2.334   2.807   2.678
 6051W        W78344  19.239  22.596  10.523
 6052W        W78345   9.241  27.979  11.925
 6053W        W78346  13.138  41.449   2.198
 6054W        W78347  34.879   4.906  10.121
 6055W        W78348  44.910  36.394   1.421
 6056W        W78349   2.761  36.024   0.479
 6057W        W78350  37.373   7.315   3.212
 6058W        W78351  37.013  23.082  11.461
 6059W        W78352  33.494  38.988  12.501
 6060W        W78353   1.482   3.260  13.404
 6061W        W78354   5.193   3.427  11.613
 6062W        W78355  14.736   7.214  14.782
 6063W        W78356  19.164   9.327  11.903
 6064W        W78357   1.259  38.054   1.295
 6065W        W78358  10.202  39.488   1.303
 6066W        W78359  42.384  21.587   3.177
 6067W        W78360  35.541  32.538  12.997
 6068W        W78361   9.240  11.289  14.342
 6069W        W78362  33.932  18.680   0.875
 6070W        W78363  39.061  17.220   3.780
 6071W        W78364  43.922  12.193   4.722
 6072W        W78365  31.458  18.559  14.787
 6073W        W78366  41.933  13.224   3.681
 6074W        W78367  33.493   0.889  14.507
 6075W        W78368   5.360   5.897  13.891
 6076W        W78369  21.045  27.650  14.952
 6077W        W78370  13.332  12.286  11.608
 6078W        W78371  28.435  36.553   2.323
 6079W        W78372  35.468  20.115   0.785
 6080W        W78373  13.739  22.121  12.521
 6081W        W78374  16.610  38.991  11.463
 6082W        W78375   9.378   9.736  13.938
 6083W        W78376  28.094   4.781  12.386
 6084W        W78377  27.549  44.345  14.016
 6085W        W78378   0.319  13.802  12.564
 6086W        W78379  28.499  17.612   4.703
 6087W        W78380  44.395  27.504  10.115
 6088W        W78381   2.238  14.320   1.904
 6089W        W78382   2.902   7.379  12.499
 6090W        W78383  32.062  33.483   0.892
 6091W        W78384  25.053  29.972   2.796
 6092W        W78385   9.149  26.032   1.418
 6093W        W78386   8.752  15.314  12.572
 6094W        W78387   1.284  10.191   4.280
 6095W        W78388  35.500   3.815   3.364
 6096W        W78389  12.710  37.017   1.221
 6097W        W78390   0.980  28.972  10.130
 6098W        W78391  29.503  43.780  11.392
 6099W        W78392  19.696   3.239   2.338
 6100W        W78393  35.970   1.864  10.937
 6101W        W78394  23.525  37.346  13.388
 6102W        W78395  28.483  17.779  12.871
 6103W        W78396  37.005  17.728   2.366
 6104W        W78397  43.926   9.777  10.473
 6105W        W78398   2.351  44.420   2.851
 6106W        W78399  24.613  39.823  12.824
 6107W        W78400  41.526   1.917  11.604
 6108W        W78401  16.250  35.870   1.810
 6109W        W78402   0.457   3.293   2.309
 6110W        W78403  33.536  29.036  12.049
 6111W        W78404   3.811  11.635  12.559
 6112W        W78405  12.856  12.220  11.512
 6113W        W78406  43.311  18.103  10.567
 6114W        W78407   3.768  17.243  12.993
 6115W        W78408   3.927  18.590  11.424
 6116W        W78409  36.054  25.033  12.862
 6117W        W78410  29.529  27.555   1.294
 6118W        W78411   0.316  19.686   5.278
 6119W        W78412  31.526  35.449  13.815
 6120W        W78413  42.988  13.809  11.003
 6121W        W78414  41.494   9.151  14.402
 6122W        W78415  12.146  43.485   3.865
 6123W        W78416   8.876  14.222   2.793
 6124W        W78417   8.391  38.839   0.959
 6125W        W78418  28.175  41.813   1.449
 6126W        W78419  33.556  17.624   2.889
 6127W        W78420  16.762  17.101   2.360
 6128W        W78421  23.674  15.196   0.940
 6129W        W78422   9.879   0.958   1.303
 6130W        W78423  33.616   6.306   2.200
 6131W        W78424  41.801  16.748  14.974
 6132W        W78425   2.389  40.799   2.296
 6133W        W78426  42.505  16.741   5.186
 6134W        W78427   8.882  11.681  13.516
 6135W        W78428  28.457  34.558   4.193
 6136W        W78429  36.048  35.557   0.786
 6137W        W78430   5.211   0.940  13.398
 6138W        W78431   2.422  32.546  13.847
 6139W        W78432  19.094   7.715   3.295
 6140W        W78433  10.149  20.142  13.884
 6141W        W78434   2.308  21.246  10.936
 6142W        W78435  19.626   2.951   2.770
 6143W        W78436  21.162  42.964   1.771
 6144W        W78437  16.188  12.854  12.979
 6145W        W78438  41.432  43.793   5.163
 6146W        W78439  44.898  24.525   4.187
 6147W        W78440   2.372   5.883  11.486
 6148W        W78441  16.706  25.516  14.479
 6149W        W78442  24.089   8.352  13.942
 6150W        W78443  43.277  31.475   3.229
 6151W        W78444  37.024   2.238  11.375
 6152W        W78445  20.668  34.473  10.407
 6153W        W78446   1.942  43.772   4.211
 6154W        W78447  39.405  38.385  11.884
 6155W        W78448  38.439   4.393  11.607
 6156W        W78449  23.116   3.768  13.799
 6157W        W78450  37.439  36.585   0.894
 6158W        W78451  34.964  32.501   2.861
 6159W        W78452   8.384   9.854  13.027
 6160W        W78453  33.472  39.332   0.377
 6161W        W78454  19.243  16.633   1.847
 6162W        W78455  11.634  21.529   2.243
 6163W        W78456  29.970  25.021   4.230
 6164W        W78457  12.850  43.772  14.422
 6165W        W78458  35.109   3.826   0.794
 6166W        W78459   2.250  34.405   4.328
 6167W        W78460  32.452  20.606  12.512
 6168W        W78461  41.891   7.865   0.410
 6169W        W78462   8.817  27.645  12.066
 6170W        W78463  23.560  22.193   1.273
 6171W        W78464  36.405  38.396  14.438
 6172W        W78465   3.303  16.746   3.386
 6173W        W78466   1.806  15.658   2.362
 6174W        W78467  19.254  21.065   3.380
 6175W        W78468   1.471  24.536   4.688
 6176W        W78469   0.455  17.281   3.209
 6177W        W78470  27.541  16.584  14.300
 6178W        W78471   1.930  38.058  13.899
 6179W        W78472  20.083  27.974   0.920
 6180W        W78473  33.963  12.335   1.811
 6181W        W78474  29.640  34.972   5.125
 6182W        W78475  40.989  18.551   1.439
 6183W        W78476  25.014  10.372  11.507
 6184W        W78477  16.267  19.746  12.565
 6185W        W78478  37.401  29.137   3.167
 6186W        W78479  24.001  38.474  14.804
 6187W        W78480  28.016  12.686   1.269
 6188W        W78481  15.111  18.660  13.982
 6189W        W78482  12.306  40.868  11.601
 6190W        W78483  15.087  21.654  14.294
 6191W        W78484  33.486  33.005  14.307
 6192W        W78485  31.922  36.889   0.800
 6193W        W78486  34.958  31.129   0.783
 6194W        W78487  11.717  24.073   2.215
 6195W        W78488   4.242  43.424  14.896
 6196W        W78489  22.654  21.607  10.560
 6197W        W78490  14.716  25.202   1.419
 6198W        W78491   4.710  14.290   2.403
 6199W        W78492  39.853  28.544   3.700
 6200W        W78493  32.450  16.108  11.560
 6201W        W78494  23.143  30.508  13.885
 6202W        W78495  33.915  35.431  14.311
 6203W        W78496   2.797  30.003   2.886
 6204W        W78497  24.670   6.209   0.405
 6205W        W78498  43.469   0.430  11.082
 6206W        W78499  24.138   5.202  12.422
 6207W        W78500  39.060  19.562  12.421
 6208W        W78501  43.495   2.848  13.872
 6209W        W78502  16.160  27.139  14.028
 6210W        W78503  36.863  29.649   1.327
 6211W        W78504  40.819  30.422   4.720
 6212W        W78505  15.769  15.706  13.944
 6213W        W78506   6.251  24.725   3.364
 6214W        W78507  37.030  17.092  10.518
 6215W        W78508   2.918  26.150  12.564
 6216W        W78509  32.622  12.211   0.381
 6217W        W78510  39.823  32.598  12.546
 6218W        W78511  15.269  38.944  12.892
 6219W        W78512  42.812   8.828   4.797
 6220W        W78513  14.167   7.703   2.879
 6221W        W78514   5.246   8.779  15.000
 6222W        W78515  29.444  25.687   0.822
 6223W        W78516  25.515  34.019   2.212
 6224W        W78517  22.690  11.694  14.013
 6225W        W78518   0.965  15.238   1.698
 6226W        W78519  25.995   6.723  11.410
 6227W        W78520   2.376  25.177   1.784
 6228W        W78521  32.116  43.486   2.836
 6229W        W78522  19.613  31.128   4.794
 6230W        W78523  21.562  31.478   5.710
 6231W        W78524   0.976  42.388   3.717
 6232W        W78525  40.957  22.114  14.006
 6233W        W78526  34.990  22.203   0.245
 6234W        W78527  39.905  27.457   4.143
 6235W        W78528  40.539   3.757   1.432
 6236W        W78529  36.409   8.887  12.494
 6237W        W78530  44.892  41.526   3.207
 6238W        W78531  38.990   6.892  11.402
 6239W        W78532  21.712  24.074   1.238
 6240W        W78533  23.217  42.861   5.086
 6241W        W78534  28.167   3.441  10.447
 6242W        W78535  27.951  22.515  12.831
 6243W        W78536  36.446  19.635  13.969
 6244W        W78537  16.158   6.873  14.275
 6245W        W78538  36.358  30.590   4.161
 6246W        W78539  43.847  13.629  11.485
 6247W        W78540  13.267  28.018   1.733
 6248W        W78541  12.281  22.184   1.834
 6249W        W78542   0.768  43.443   3.746
 6250W        W78543  40.487  32.548  12.877
 6251W        W78544  19.260  10.322   0.462
 6252W        W78545  18.731  26.473  11.456
 6253W        W78546  33.947  24.688  10.935
 6254W        W78547  14.815  22.177  12.021
 6255W        W78548   7.790  18.721   0.244
 6256W        W78549  35.998  42.348   1.422
 6257W        W78550  23.535  39.031   4.740
 6258W        W78551  44.796  36.373   0.823
 6259W        W78552  20.169  20.726  10.498
 6260W        W78553  41.443  10.775  12.080
 6261W        W78554   3.940  44.356   2.809
 6262W        W78555  24.507  35.525  11.121
 6263W        W78556   6.724  20.690  13.964
 6264W        W78557   1.392  10.806   1.233
 6265W        W78558  32.429  12.843   1.273
 6266W        W78559  22.196  13.718   0.845
 6267W        W78560  39.032  18.154  11.865
 6268W        W78561  32.439  15.247  13.499
 6269W        W78562  35.444  30.503  14.822
 6270W        W78563  33.414   7.753  14.280
 6271W        W78564   9.856  23.541   4.187
 6272W        W78565  36.382  29.956  12.946
 6273W        W78566  34.884  33.529  10.925
 6274W        W78567  40.518  42.463   4.344
 6275W        W78568  31.028   6.193  12.579
 6276W        W78569  42.960  22.683   3.231
 6277W        W78570  38.989  13.136  12.458
 6278W        W78571  41.309  35.971  12.501
 6279W        W78572  43.386   0.480  11.917
 6280W        W78573  25.977  25.548   2.824
 6281W        W78574   6.706   9.712  14.360
 6282W        W78575   7.791  43.328  13.484
 6283W        W78576  36.521  12.295  12.045
 6284W        W78577  11.784   0.777  10.095
 6285W        W78578  14.722  27.161  10.446
 6286W        W78579  22.642   2.357   9.649
 6287W        W78580   2.856  31.992   0.261
 6288W        W78581   6.842  41.367  13.441
 6289W        W78582  27.975   9.357  14.918
 6290W        W78583  28.988  38.565  13.312
 6291W        W78584  33.610  44.293  12.832
 6292W        W78585   3.222  11.813  14.445
 6293W        W78586  40.454   4.923   2.868
 6294W        W78587  41.020  25.625  12.871
 6295W        W78588  26.208  43.424   2.714
 6296W        W78589  37.520   4.247   1.874
 6297W        W78590  28.666  30.111  10.432
 6298W        W78591   2.466   9.860   3.185
 6299W        W78592  16.813  22.675   3.234
 6300W        W78593   8.280  32.582   4.725
 6301W        W78594  26.623  13.161  14.821
 6302W        W78595  22.228  43.384  11.558
 6303W        W78596  28.147   8.657   2.246
 6304W        W78597  38.438   1.262  13.852
 6305W        W78598  18.136  41.415   2.329
 6306W        W78599  19.205  25.675  14.830
 6307W        W78600  33.586  20.089  11.901
 6308W        W78601   3.225   1.762   0.948
 6309W        W78602  28.617  13.734  11.412
 6310W        W78603  43.805  39.971  11.546
 6311W        W78604  40.891  27.463   1.851
 6312W        W78605  20.570  38.363   2.898
 6313W        W78606  16.736  29.121   2.224
 6314W        W78607  18.225   2.936  14.313
 6315W        W78608   4.722   2.773   1.362
 6316W        W78609   7.379  39.549   0.921
 6317W        W78610   9.280   3.860  13.805
 6318W        W78611  42.016  39.505  14.299
 6319W        W78612  22.744  34.470  12.071
 6320W        W78613   9.846   8.797  11.114
 6321W        W78614  22.189  42.798   0.782
 6322W        W78615  42.877   6.794   4.225
 6323W        W78616  15.087   2.903  11.476
 6324W        W78617  38.544  28.967  13.323
 6325W        W78618  21.138  38.356   4.234
 6326W        W78619  27.628  16.741   2.665
 6327W        W78620  38.347  37.053  12.513
 6328W        W78621  31.103  30.921   0.311
 6329W        W78622   3.413  41.964  11.406
 6330W        W78623  27.640  44.855  13.838
 6331W        W78624  35.912  24.652  12.861
 6332W        W78625  22.614  43.338  12.414
 6333W        W78626  25.649   0.396  12.535
 6334W        W78627  32.574   5.300  12.471
 6335W        W78628   1.854   2.927  11.488
 6336W        W78629  24.535  12.618   0.760
 6337W        W78630  27.102   1.245   4.641
 6338W        W78631  15.798  39.852   4.742
 6339W        W78632  17.240   2.277   5.322
 6340W        W78633  20.210   2.892  11.406
 6341W        W78634   8.852  44.822  14.839
 6342W        W78635   0.488  16.688   0.467
 6343W        W78636  22.707   0.827  14.770
 6344W        W78637   5.220  39.997  11.429
 6345W        W78638   3.915  26.076   1.236
 6346W        W78639   9.253   6.770  13.327
 6347W        W78640  42.398  16.211  11.030
 6348W        W78641  10.266   1.406   0.470
 6349W        W78642  22.098  39.468  12.476
 6350W        W78643  12.844  40.304  11.586
 6351W        W78644   0.900   5.818   4.283
 6352W        W78645  26.556   4.232  10.925
 6353W        W78646  10.661   4.857   2.367
 6354W        W78647  12.712  27.008   2.185
 6355W        W78648  31.629  34.561   0.471
 6356W        W78649  34.449   9.850   1.708
 6357W        W78650  15.822  26.582   0.915
 6358W        W78651  26.199   3.246  10.469
 6359W        W78652  25.618  17.761   2.754
 6360W        W78653  31.578  25.639   2.214
 6361W        W78654   9.887  34.868   1.745
 6362W        W78655   0.439   1.375   4.606
 6363W        W78656  26.693   4.828  13.419
 6364W        W78657   5.826  21.100  11.064
 6365W        W78658  29.476  35.990  12.937
 6366W        W78659   5.696  14.649   3.679
 6367W        W78660  33.894   7.381  10.993
 6368W        W78661  17.705  38.484   0.374
 6369W        W78662  36.995  35.367   3.766
 6370W        W78663  27.555   4.769   2.288
 6371W        W78664  22.220  26.632  14.800
 6372W        W78665  29.100   3.367  13.312
 6373W        W78666  34.967  44.964  14.406
 6374W        W78667  42.809   8.760   1.894
 6375W        W78668   2.378  22.729  12.079
 6376W        W78669   9.221  10.646   4.228
 6377W        W78670  42.520  10.298   2.246
 6378W        W78671  17.141  39.542  13.860
 6379W        W78672   1.361  30.058  13.520
 6380W        W78673  21.039   9.213   2.378
 6381W        W78674  21.119  42.855   1.364
 6382W        W78675  19.216  32.139  11.422
 6383W        W78676  35.510  40.378  13.483
 6384W        W78677  35.056  29.549   4.632
 6385W        W78678  41.966   4.384  14.830
 6386W        W78679  33.595  11.750   5.195
 6387W        W78680  32.999  22.609  12.073
 6388W        W78681  17.580  31.912   3.307
 6389W        W78682  24.000  36.962   0.367
 6390W        W78683   2.373  28.044  11.022
 6391W        W78684  11.195   7.244   0.411
 6392W        W78685   1.347   8.215  13.401
 6393W        W78686  33.892  35.955  11.457
 6394W        W78687  39.526  16.223   2.844
 6395W        W78688  27.507  33.876  14.403
 6396W        W78689   2.417   8.241   3.267
 6397W        W78690  42.370  37.052  13.337
 6398W        W78691   5.271  11.211  11.032
 6399W        W78692  12.179  24.158   0.421
 6400W        W78693  12.734   8.815  14.018
 6401W        W78694  22.724  18.190  14.988
 6402W        W78695  15.819  44.497   3.377
 6403W        W78696  20.036  22.174   3.238
 6404W        W78697  19.740  23.634  10.086
 6405W        W78698   3.372  10.778   3.185
 6406W        W78699  40.892  19.046   3.656
 6407W        W78700  35.010   4.276  12.063
 6408W        W78701  26.555  36.967  10.444
 6409W        W78702  11.819  12.749   3.267
 6410W        W78703  44.464  41.429  14.797
 6411W        W78704  31.636  30.061  14.942
 6412W        W78705  27.047  36.962  11.500
 6413W        W78706   0.897  26.992   2.758
 6414W        W78707  21.046  32.910   4.153
 6415W        W78708   5.829   9.755   2.315
 6416W        W78709  41.979  42.818  11.002
 6417W        W78710  17.726  11.811   3.752
 6418W        W78711  35.026  22.556  13.383
 6419W        W78712  19.755   7.291   4.174
 6420W        W78713  14.798  35.008   0.284
 6421W        W78714  20.729  40.303   3.350
 6422W        W78715   4.795  41.333   2.662
 6423W        W78716  20.058  20.625  11.947
 6424W        W78717  44.804   2.922  10.963
 6425W        W78718  33.541  10.685  13.333
 6426W        W78719  15.703  15.698  14.375
 6427W        W78720  12.229  28.992   4.783
 6428W        W78721  36.554  38.839  12.912
 6429W        W78722  34.513  23.646  12.531
 6430W        W78723   6.264  29.476  14.506
 6431W        W78724  19.185  30.658   3.678
 6432W        W78725  20.271   3.259   5.230
 6433W        W78726  26.970  18.753  11.390
 6434W        W78727  37.435  13.603   3.652
 6435W        W78728   8.350  40.887  10.948
 6436W        W78729   6.833   6.407  10.428
 6437W        W78730   1.875  26.125   0.428
 6438W        W78731  19.757  31.560  10.044
 6439W        W78732  30.613  35.875   3.338
 6440W        W78733  32.625  11.693  11.477
 6441W        W78734  36.877  35.939  10.548
 6442W        W78735  33.032   8.693   1.700
 6443W        W78736   3.908  32.907  12.861
 6444W        W78737  26.610  16.307  14.796
 6445W        W78738  17.591  10.754   4.282
 6446W        W78739   1.312  24.191   1.746
 6447W        W78740  27.994  15.151  12.340
 6448W        W78741  22.161  20.240   1.915
 6449W        W78742   0.794  21.224  14.329
 6450W        W78743  24.054  27.129   3.832
 6451W        W78744  33.525  14.341   0.784
 6452W        W78745   6.231  21.078   0.455
 6453W        W78746  35.872  35.108  11.077
 6454W        W78747  21.070  25.053   2.687
 6455W        W78748  16.117  14.295  12.982
 6456W        W78749  19.766  36.965  13.850
 6457W        W78750  35.053  15.280  12.879
 6458W        W78751  18.651  26.457  13.895
 6459W        W78752  29.425  16.707  12.356
 6460W        W78753  14.176   2.304  13.875
 6461W        W78754  27.193  12.833  10.584
 6462W        W78755  14.776  35.491   0.781
 6463W        W78756  21.200   6.407  11.966
 6464W        W78757  23.501   9.337  13.927
 6465W        W78758  36.366  11.240  11.983
 6466W        W78759  24.498   0.403   0.341
 6467W        W78760  42.989  24.521   4.828
 6468W        W78761  30.126  36.079   0.839
 6469W        W78762  32.020  16.103  11.047
 6470W        W78763  22.679  20.209   1.277
 6471W        W78764  22.236   3.437  12.962
 6472W        W78765  28.983  30.003   2.232
 6473W        W78766  43.806  22.097   1.695
 6474W        W78767  44.983  39.843  12.464
 6475W        W78768   5.699   9.379  11.529
 6476W        W78769  13.829  13.761  11.974
 6477W        W78770  40.430  21.710   0.430
 6478W        W78771  18.248   0.847  12.073
 6479W        W78772  41.946   0.984   5.293
 6480W        W78773  20.601  17.748  10.518
 6481W        W78774  19.634  23.691  10.965
 6482W        W78775  37.953  34.017   4.114
 6483W        W78776  23.706  43.930   0.354
 6484W        W78777  36.454   8.203   0.858
 6485W        W78778  29.650  23.121   5.616
 6486W        W78779   9.803  25.594  13.917
 6487W        W78780   3.364  38.941   4.755
 6488W        W78781  34.538  34.045  14.313
 6489W        W78782   0.267   7.205   4.641
 6490W        W78783  26.041  20.146  14.912
 6491W        W78784  36.995  35.546  11.061
 6492W        W78785  40.386  24.191   4.275
 6493W        W78786  22.019   9.278   4.672
 6494W        W78787  24.035  39.851   0.829
 6495W        W78788  44.259  37.011   9.954
 6496W        W78789  43.950  43.803   2.215
 6497W        W78790  39.339   5.693   4.188
 6498W        W78791  21.131   2.353  10.635
 6499W        W78792  28.930  12.128  11.002
 6500W        W78793  17.618  24.712  13.312
 6501W        W78794   2.831  43.509   1.864
 6502W        W78795  42.520  15.246   3.338
 6503W        W78796   1.780  11.260   1.305
 6504W        W78797  42.438  27.513  13.991
 6505W        W78798  27.570   4.707   3.739
 6506W        W78799  24.535  44.374   0.805
 6507W        W78800  41.004  17.775   0.427
 6508W        W78801  33.971  16.081   4.189
 6509W        W78802  39.917   3.332  13.502
 6510W        W78803  29.600  41.498   1.838
 6511W        W78804  39.013  13.799   0.789
 6512W        W78805  15.130  17.105  10.424
 6513W        W78806   9.829   0.824  11.513
 6514W        W78807  13.751   1.774   4.650
 6515W        W78808  41.862  41.955  13.436
 6516W        W78809  28.179   9.346   1.844
 6517W        W78810   0.862  16.702  10.529
 6518W        W78811   7.354  23.013  13.895
 6519W        W78812  18.066  10.827   1.344
 6520W        W78813  26.022   0.797   0.483
 6521W        W78814   7.763  28.620  10.482
 6522W        W78815  30.429  23.238   3.211
 6523W        W78816  36.446  25.491  10.542
 6524W        W78817  42.933  24.604  14.926
 6525W        W78818  42.029  16.696   4.260
 6526W        W78819  31.100  21.141  12.492
 6527W        W78820  44.278  29.018   4.676
 6528W        W78821  27.017   3.412   0.737
 6529W        W78822  44.368  42.857   1.801
 6530W        W78823  21.571  23.072  10.924
 6531W        W78824  21.652  28.098  13.369
 6532W        W78825  10.305  10.758  13.971
 6533W        W78826  23.715   1.451   0.308
 6534W        W78827   3.428  14.817   5.256
 6535W        W78828  10.782  13.347  11.389
 6536W        W78829   5.803  23.995   2.778
 6537W        W78830  14.110   5.326   4.736
 6538W        W78831  23.733  24.524   2.221
 6539W        W78832  39.843  17.301  13.353
 6540W        W78833  30.441  12.150   2.267
 6541W        W78834   9.233  31.932  11.467
 6542W        W78835  25.524   6.757   4.299
 6543W        W78836  33.380  18.265  13.037
 6544W        W78837   0.452  27.061  10.517
 6545W        W78838   0.907  26.527  13.017
 6546W        W78839  28.955  15.271   1.396
 6547W        W78840   5.798  28.088   4.683
 6548W        W78841  18.750   4.778  13.829
 6549W        W78842  36.352  38.536   2.770
 6550W        W78843  27.616  14.194  14.997
 6551W        W78844  21.622  27.180  12.372
 6552W        W78845  31.108  33.517  14.373
 6553W        W78846   4.354  15.265   3.681
 6554W        W78847  32.576  35.858  13.798
 6555W        W78848  21.147  10.162   2.402
 6556W        W78849   5.264   3.760   1.231
 6557W        W78850  44.858  38.005  10.626
 6558W        W78851  30.539   1.293   1.861
 6559W        W78852  34.897  19.758   1.699
 6560W        W78853   1.801   7.894   4.818
 6561W        W78854  27.627  23.129   0.379
 6562W        W78855  20.587  11.663  13.006
 6563W        W78856  34.946  18.715  10.444
 6564W        W78857   4.388   6.747  12.897
 6565W        W78858  18.095  34.998  14.002
 6566W        W78859   4.265  22.746   0.917
 6567W        W78860  12.318   6.920   0.853
 6568W        W78861   4.253  17.089   0.801
 6569W        W78862   1.916  24.987  14.826
 6570W        W78863  34.119  36.945   3.657
 6571W        W78864  19.043  30.981   3.676
 6572W        W78865   0.764  12.631  10.942
 6573W        W78866  40.313  24.020   1.280
 6574W        W78867  13.147  27.954  13.003
 6575W        W78868   9.844  20.645  13.362
 6576W        W78869  34.413  21.538   4.201
 6577W        W78870   1.877  33.009   3.704
 6578W        W78871   6.852   7.778   2.415
 6579W        W78872   6.923  32.523   1.849
 6580W        W78873  22.061  38.050  11.862
 6581W        W78874  26.623  42.490  10.485
 6582W        W78875   5.356  24.642   2.754
 6583W        W78876  37.044  21.179   4.116
 6584W        W78877  12.144  22.091  13.344
 6585W        W78878  14.139  26.159  11.932
 6586W        W78879   7.791  35.869  12.439
 6587W        W78880  38.005  44.961  13.792
 6588W        W78881  36.013  35.927  13.997
 6589W        W78882   9.712  24.990  11.858
 6590W        W78883  19.257   2.878  11.099
 6591W        W78884  12.688  39.353  14.465
 6592W        W78885  13.189  41.449  10.517
 6593W        W78886  36.027  25.192   0.424
 6594W        W78887  13.122  40.940  11.458
 6595W        W78888  13.687  24.578   4.784
 6596W        W78889  19.117  42.956  11.127
 6597W        W78890  42.302  31.996   1.851
 6598W        W78891  24.193  10.819  10.486
 6599W        W78892  24.998  11.362   1.733
 6600W        W78893   3.867   1.963   9.952
 6601W        W78894   6.762  28.169  11.561
 6602W        W78895   8.171  36.359   3.852
 6603W        W78896  22.745  13.763   1.731
 6604W        W78897  11.813  43.011   2.241
 6605W        W78898  33.600  35.361   1.722
 6606W        W78899  23.552  21.521   4.195
 6607W        W78900   7.907  34.068   2.846
 6608W        W78901  15.747   7.667  12.078
 6609W        W78902  38.859  36.390   4.815
 6610W        W78903  37.852   9.772  14.302
 6611W        W78904  10.810  14.781  14.349
 6612W        W78905  43.506  12.221   0.393
 6613W        W78906  18.279   2.305   1.337
 6614W        W78907  28.055   7.787  13.538
 6615W        W78908  12.820  17.122   0.753
 6616W        W78909  20.165  21.207   2.360
 6617W        W78910  27.149  11.183   1.816
 6618W        W78911   7.210  38.996  13.512
 6619W        W78912   2.917   0.942  11.026
 6620W        W78913  20.269  37.413  14.871
 6621W        W78914  29.103   3.295   4.120
 6622W        W78915  21.559  25.152   1.816
 6623W        W78916  41.524  30.138   2.888
 6624W        W78917   0.345  42.812   4.799
 6625W        W78918  27.642  17.563   4.654
 6626W        W78919  38.495   4.273   4.669
 6627W        W78920  10.751  20.040  13.063
 6628W        W78921  38.434  13.229   4.634
 6629W        W78922  42.518  26.674   4.659
 6630W        W78923  20.708  42.824  10.632
 6631W        W78924  22.998  12.271   3.679
 6632W        W78925  28.090   0.428   0.257
 6633W        W78926  38.492  18.095   1.298
 6634W        W78927  35.009  42.391  14.892
 6635W        W78928  21.538  28.935   2.400
 6636W        W78929  29.632   1.965  11.529
 6637W        W78930   2.830  21.168  10.533
 6638W        W78931   6.215  29.028   1.877
 6639W        W78932  26.096  32.140  10.448
 6640W        W78933  15.090  11.356   4.655
 6641W        W78934  12.198  38.941   4.336
 6642W        W78935  33.423  40.810   0.478
 6643W        W78936  19.741  25.109   4.199
 6644W        W78937  16.756  13.228   2.814
 6645W        W78938  20.245  14.653   3.325
 6646W        W78939   3.844  28.034  14.349
 6647W        W78940   0.261  17.588  11.978
 6648W        W78941  12.220  17.113   0.282
 6649W        W78942  30.457   2.397  13.876
 6650W        W78943  12.150  35.546   2.375
 6651W        W78944  32.526  17.604   2.398
 6652W        W78945  27.031  35.881   4.800
 6653W        W78946   4.350   1.438  12.014
 6654W        W78947  37.861  25.117   3.802
 6655W        W78948  35.919   7.391   2.182
 6656W        W78949   3.883  33.015  10.994
 6657W        W78950  28.576  26.697   0.740
 6658W        W78951  37.507   6.284   1.211
 6659W        W78952  21.139  33.979   0.777
 6660W        W78953  41.020  32.891   4.238
 6661W        W78954  15.721  36.909   0.841
 6662W        W78955  42.393  39.038  10.117
 6663W        W78956  14.664  37.474   3.306
 6664W        W78957  40.920  41.958   4.828
 6665W        W78958  27.988  13.704  14.515
 6666W        W78959   7.315   3.223   3.373
 6667W        W78960  18.748  36.032   1.702
 6668W        W78961   0.835  16.656   2.242
 6669W        W78962   0.781   2.741   3.768
 6670W        W78963   6.731  10.688   4.809
 6671W        W78964  16.139  21.637  11.115
 6672W        W78965  10.184  11.370  13.973
 6673W        W78966  13.307  20.621   3.684
 6674W        W78967  36.093   8.367   3.681
 6675W        W78968  14.102  42.467  11.897
 6676W        W78969  44.823  34.111  12.870
 6677W        W78970  30.916  17.234   3.815
 6678W        W78971  36.405  28.151   3.227
 6679W        W78972  32.127  31.444   1.802
 6680W        W78973  15.269  34.395   3.828
 6681W        W78974  31.154  26.982  14.317
 6682W        W78975  44.493  25.012  11.869
 6683W        W78976   8.729  28.972   4.308
 6684W        W78977  12.812   5.865   1.267
 6685W        W78978  36.347  16.709  14.461
 6686W        W78979   1.932  15.267   4.332
 6687W        W78980  28.971   7.893   1.876
 6688W        W78981  17.303  22.518  11.031
 6689W        W78982  35.359  34.600  13.850
 6690W        W78983  27.642  14.616   0.869
 6691W        W78984   5.289  30.427  14.770
 6692W        W78985  44.845  21.601  13.060
 6693W        W78986   5.372  13.310   0.463
 6694W        W78987  10.261   7.816   0.782
 6695W        W78988  17.062  40.876   3.255
 6696W        W78989  17.582   9.234   1.722
 6697W        W78990   7.335  11.342  10.977
 6698W        W78991  34.902  33.925   2.408
 6699W        W78992   1.824  27.691   4.827
 6700W        W78993  37.939  42.875   3.708
 6701W        W78994  18.550  31.536  13.458
 6702W        W78995  25.479  18.182   2.735
 6703W        W78996   1.781  44.443   4.144
 6704W        W78997  32.067  24.503   0.264
 6705W        W78998  16.249  39.954  13.934
 6706W        W78999   1.942  16.171   4.195
 6707W        W79000  17.687  12.846  10.582
 6708W        W79001  39.496  15.273   1.440
 6709W        W79002   6.319   9.682   3.661
 6710W        W79003   2.331  12.624   4.824
 6711W        W79004  28.525   9.799   3.377
 6712W        W79005  20.214   1.901   1.392
 6713W        W79006  10.242  33.950   3.328
 6714W        W79007  17.622  19.560   3.177
 6715W        W79008  32.056   8.259   5.760
 6716W        W79009   2.263  41.361   0.852
 6717W        W79010   5.904  35.448   1.412
 6718W        W79011   5.226  33.926   4.820
 6719W        W79012  26.587  11.853  14.800
 6720W        W79013  43.956  32.894   1.907
 6721W        W79014  21.584  32.482  11.964
 6722W        W79015   9.170  42.401  13.917
 6723W        W79016  29.444   8.875  14.999
 6724W        W79017   2.351  37.362  13.826
 6725W        W79018  25.550  12.277   1.297
 6726W        W79019  39.393  16.628  13.967
 6727W        W79020   9.253  27.069   1.365
 6728W        W79021   0.891  21.618   1.873
 6729W        W79022   0.446  26.197  10.432
 6730W        W79023  40.484  28.641  11.515
 6731W        W79024  42.023  28.558   4.802
 6732W        W79025  19.596  42.886  13.859
 6733W        W79026   6.310  44.983   3.844
 6734W        W79027  42.908  41.927   4.139
 6735W        W79028  24.119  33.113  10.634
 6736W        W79029  30.088  23.095  11.373
 6737W        W79030  16.708  34.870  11.467
 6738W        W79031  31.510   2.414  11.409
 6739W        W79032   3.941   3.401  12.441
 6740W        W79033  36.364   9.188  14.366
 6741W        W79034  17.063  21.114  11.555
 6742W        W79035  33.106  40.393  11.030
 6743W        W79036  27.498  24.624  12.442
 6744W        W79037   4.874  21.648   1.914
 6745W        W79038  15.593  23.580   1.714
 6746W        W79039   6.262   0.888   2.307
 6747W        W79040  41.905  32.116   4.313
 6748W        W79041  22.518  30.549  13.833
 6749W        W79042  20.153  11.162   1.908
 6750W        W79043  44.859  27.691   3.223
 6751W        W79044   5.806  43.445  13.439
 6752W        W79045   2.952  39.347  11.933
 6753W        W79046  23.084  32.471   0.363
 6754W        W79047  42.382  29.159  14.365
 6755W        W79048  42.341  43.943  10.625
 6756W        W79049  31.039  32.490   2.867
 6757W        W79050  20.253  18.789  14.473
 6758W        W79051   2.754  34.451  14.332
 6759W        W79052  41.885  11.732   1.448
 6760W        W79053  20.173  35.994  12.569
 6761W        W79054   8.280   5.214  11.409
 6762W        W79055  13.608  34.940   2.721
 6763W        W79056   5.727   0.910   1.346
 6764W        W79057  31.072   3.845   2.707
 6765W        W79058  18.618   3.377  12.480
 6766W        W79059  10.864  43.780   0.437
 6767W        W79060  36.062  12.253  11.072
 6768W        W79061  32.061  22.202   1.725
 6769W        W79062  40.030  39.495   4.263
 6770W        W79063  44.851  24.219   0.402
 6771W        W79064  27.568  16.653   0.445
 6772W        W79065  29.956  21.601  12.387
 6773W        W79066  44.429  44.327  10.591
 6774W        W79067  16.157  33.879  13.900
 6775W        W79068  26.593  10.750  10.956
 6776W        W79069  14.162  41.918  11.484
 6777W        W79070  43.863  44.388   9.439
 6778W        W79071  16.085  33.905   1.850
 6779W        W79072   8.895   1.744  14.386
 6780W        W79073   1.293   6.908  12.918
 6781W        W79074  38.482  30.635   1.802
 6782W        W79075  42.450  21.054  14.788
 6783W        W79076  29.581  16.080   3.789
 6784W        W79077   8.781  14.748   1.238
 6785W        W79078  17.729  10.719  11.392
 6786W        W79079  30.509   7.746   3.802
 6787W        W79080  28.569  37.514  11.570
 6788W        W79081   1.944  21.678  14.968
 6789W        W79082  43.483  42.323  13.455
 6790W        W79083  37.903   1.756  10.581
 6791W        W79084  21.114  10.710  14.466
 6792W        W79085   7.385  13.147   0.264
 6793W        W79086   9.660  30.164  14.283
 6794W        W79087  42.015  31.495   3.178
 6795W        W79088  29.567  44.461   4.817
 6796W        W79089  30.019  28.053   1.436
 6797W        W79090  42.349  29.029   2.293
 6798W        W79091   2.844  28.503  12.347
 6799W        W79092  42.890  38.538   3.188
 6800W        W79093  24.652  31.419   2.883
 6801W        W79094   6.402   7.317  11.014
 6802W        W79095  37.434   5.219  10.451
 6803W        W79096  24.993  32.112  13.991
 6804W        W79097  22.235   2.390  12.414
 6805W        W79098  11.716  17.603  10.478
 6806W        W79099  19.173  41.462  13.920
 6807W        W79100   9.763   3.445   1.928
 6808W        W79101  39.359  27.021  10.502
 6809W        W79102  18.279  32.966  11.095
 6810W        W79103  16.226  14.648  14.400
 6811W        W79104  35.030  42.861  14.797
 6812W        W79105   1.746  11.783  14.005
 6813W        W79106  41.992  13.158   0.758
 6814W        W79107  32.609  10.355  11.502
 6815W        W79108  30.528   6.330  13.796
 6816W        W79109  16.160  22.104  11.020
 6817W        W79110  14.283  12.327  11.009
 6818W        W79111   6.205  14.799  13.900
 6819W        W79112  26.005  10.182  13.850
 6820W        W79113  36.067  17.252   3.640
 6821W        W79114  36.459   0.795   0.430
 6822W        W79115   7.802   5.355   4.711
 6823W        W79116   1.393  19.124  13.437
 6824W        W79117  25.679  35.548   2.224
 6825W        W79118  20.759   8.887   2.393
 6826W        W79119  18.568  23.020  13.355
 6827W        W79120  13.825  36.421  14.300
 6828W        W79121  39.473  20.217  11.498
 6829W        W79122  36.582   0.796   4.602
 6830W        W79123   6.293  42.404   0.853
 6831W        W79124  15.721  14.787  11.892
 6832W        W79125  11.204   2.333   3.239
 6833W        W79126   2.388  13.663   3.322
 6834W        W79127   0.464   4.943   2.695
 6835W        W79128  28.522  24.072   1.369
 6836W        W79129  24.579   3.399  12.850
 6837W        W79130  43.381  22.641  10.519
 6838W        W79131   3.858  40.956   2.328
 6839W        W79132  42.348  35.947   0.405
 6840W        W79133  42.443  26.952   2.794
 6841W        W79134  36.444  38.356  11.474
 6842W        W79135  40.474  11.676  13.995
 6843W        W79136  24.191   6.373  14.294
 6844W        W79137  18.131   6.395  10.996
 6845W        W79138   9.319  12.834  13.328
 6846W        W79139  36.453   3.408  14.908
 6847W        W79140  17.639  32.471   5.122
 6848W        W79141  31.579  10.213   2.299
 6849W        W79142   6.835  23.718   0.381
 6850W        W79143  22.066   4.271   5.800
 6851W        W79144  38.497  36.916   2.310
 6852W        W79145  21.219   0.484  13.468
 6853W        W79146   9.173  21.130  13.517
 6854W        W79147  36.946  30.486  12.551
 6855W        W79148  33.027  24.111   2.403
 6856W        W79149  27.518  38.042   1.312
 6857W        W79150  43.785  30.960  12.910
 6858W        W79151  15.312  29.505   4.656
 6859W        W79152  41.349  19.217   3.319
 6860W        W79153  18.131   7.701   0.728
 6861W        W79154   0.327  37.977   2.233
 6862W        W79155  43.814  25.061   2.231
 6863W        W79156  12.634   9.164  12.967
 6864W        W79157  39.917  27.506  14.801
 6865W        W79158  29.112   2.907  11.867
 6866W        W79159  22.552   9.360  12.537
 6867W        W79160  23.536  32.096   2.747
 6868W        W79161  39.452  18.118   2.341
 6869W        W79162  11.342  15.629  13.985
 6870W        W79163  31.081   2.773  14.794
 6871W        W79164  10.176  42.476   0.805
 6872W        W79165  36.910  31.458   2.737
 6873W        W79166  27.958  15.727  12.476
 6874W        W79167  23.670  29.036   1.377
 6875W        W79168   7.297  37.891   3.267
 6876W        W79169  44.831  23.161   3.693
 6877W        W79170  35.530  38.393  13.948
 6878W        W79171   3.724  21.754  13.380
 6879W        W79172  22.103  39.479   4.334
 6880W        W79173  41.969  41.842   1.287
 6881W        W79174   5.859  40.423   4.130
 6882W        W79175  19.554  24.191  10.919
 6883W        W79176  21.055  10.374  13.403
 6884W        W79177  32.105  11.180   4.766
 6885W        W79178   2.755  36.522  11.025
 6886W        W79179  33.092  16.644  11.510
 6887W        W79180  17.228  32.136  13.454
 6888W        W79181  44.431  32.982  10.610
 6889W        W79182  34.045  36.452   4.633
 6890W        W79183  10.642  40.824   2.270
 6891W        W79184  13.152  32.625   2.816
 6892W        W79185  13.798   5.703   3.280
 6893W        W79186  30.985   2.229  10.923
 6894W        W79187  24.163   2.305   1.449
 6895W        W79188  31.426  28.550   1.315
 6896W        W79189  24.631   9.781   2.307
 6897W        W79190  40.812   5.212  14.478
 6898W        W79191  37.458  32.949  10.497
 6899W        W79192  13.272  42.328   1.774
 6900W        W79193  35.934  44.440  14.822
 6901W        W79194   8.235  32.442  11.589
 6902W        W79195  15.173  41.998  10.544
 6903W        W79196  32.395   1.395  10.494
 6904W        W79197  14.193  26.080  13.816
 6905W        W79198  31.506  23.009  14.813
 6906W        W79199   8.383  36.907  12.835
 6907W        W79200  25.630  12.281   0.389
 6908W        W79201  39.515   0.251  10.436
 6909W        W79202   9.203  35.884  11.073
 6910W        W79203  21.259  25.114   5.265
 6911W        W79204  22.591  15.281   2.199
 6912W        W79205  29.080  32.393   3.716
 6913W        W79206   6.911  16.607  13.339
 6914W        W79207  13.166  41.323   0.301
 6915W        W79208  27.076  19.575  10.892
 6916W        W79209  15.743  25.613  10.910
 6917W        W79210  44.300  24.582  13.003
 6918W        W79211  24.599  30.418  14.337
 6919W        W79212  10.322  19.638   1.368
 6920W        W79213  15.736  28.610  11.868
 6921W        W79214  33.416  16.166   0.261
 6922W        W79215  34.082  31.082  12.478
 6923W        W79216   0.824  41.826  10.587
 6924W        W79217  29.609  16.156  10.490
 6925W        W79218  43.797   0.391  14.912
 6926W        W79219   6.273  32.481  12.576
 6927W        W79220  36.378  13.789  13.970
 6928W        W79221  24.159  42.317   3.345
 6929W        W79222  32.502  43.834  11.894
 6930W        W79223   8.704  20.542   3.333
 6931W        W79224  14.305  44.993   3.869
 6932W        W79225   2.419  16.316  10.600
 6933W        W79226  43.456  36.394   5.680
 6934W        W79227  33.488  14.107  11.474
 6935W        W79228  34.574  11.303  10.516
 6936W        W79229  23.073   4.861   0.263
 6937W        W79230  24.553   9.302   3.150
 6938W        W79231   7.258  43.367   4.702
 6939W        W79232  41.818   8.384  13.401
 6940W        W79233  39.406  23.102   4.821
 6941W        W79234  13.720  40.797  14.841
 6942W        W79235  29.665   1.385   2.252
 6943W        W79236   8.752  44.324  13.011
 6944W        W79237  20.557  19.128  10.910
 6945W        W79238  16.720  41.517   1.793
 6946W        W79239  43.318  19.684   5.680
 6947W        W79240  10.829   4.832  11.082
 6948W        W79241   3.335  44.924  10.486
 6949W        W79242   1.450  29.946  13.915
 6950W        W79243  32.977  18.150   4.203
 6951W        W79244   5.894   8.813  11.928
 6952W        W79245  27.130  40.306   0.312
 6953W        W79246   7.248  13.124   1.901
 6954W        W79247  44.917  40.488   2.887
 6955W        W79248  27.009  35.452   0.459
 6956W        W79249  39.063   3.374  10.960
 6957W        W79250  30.098  43.295   4.164
 6958W        W79251  42.792  22.137   4.166
 6959W        W79252  30.508   7.671   4.137
 6960W        W79253  28.629  38.345   0.961
 6961W        W79254  33.551  22.542   3.345
 6962W        W79255  17.565   1.308   2.235
 6963W        W79256  14.630  11.367  11.406
 6964W        W79257   7.211  26.131  10.975
 6965W        W79258  12.160  41.928  12.500
 6966W        W79259  13.618  24.991   0.931
 6967W        W79260  33.979   6.402  13.007
 6968W        W79261   4.918  24.669   5.283
 6969W        W79262  25.566  16.177   4.283
 6970W        W79263   5.692  37.404   2.867
 6971W        W79264  25.583  13.116   4.185
 6972W        W79265  18.633   7.286   2.750
 6973W        W79266   4.313  26.143   3.230
 6974W        W79267  27.071  42.889   3.338
 6975W        W79268  30.637  27.961  13.988
 6976W        W79269  11.359  39.473   3.249
 6977W        W79270  13.183  16.694  12.878
 6978W        W79271  30.071  23.569  14.298
 6979W        W79272  24.596  39.426   1.446
 6980W        W79273  21.082  20.195   1.891
 6981W        W79274  18.571  27.654   0.274
 6982W        W79275   2.347  13.229   1.767
 6983W        W79276  39.823  31.530  14.880
 6984W        W79277  37.466  39.815   3.325
 6985W        W79278  37.521  34.107   1.754
 6986W        W79279  12.210  34.877   4.773
 6987W        W79280  13.182   5.732  11.857
 6988W        W79281  35.855  44.977  14.908
 6989W        W79282  26.573  32.417  10.467
 6990W        W79283  21.746  43.350   2.783
 6991W        W79284  32.936  29.986  11.089
 6992W        W79285   0.809  41.907  11.585
 6993W        W79286  17.152   4.838  12.480
 6994W        W79287  18.259  19.576  11.972
 6995W        W79288  36.047   6.797   0.292
 6996W        W79289  10.809   9.351  13.871
 6997W        W79290  26.518   0.367   0.435
 6998W        W79291  42.015  37.336   0.373
 6999W        W79292  21.076  41.847  10.556
 7000W        W79293  24.595  38.073   1.339
 7001W        W79294  13.679  13.205   4.220
 7002W        W79295  20.629  43.773  13.452
 7003W        W79296   5.694   5.427   0.853
 7004W        W79297  22.700  21.144   0.897
 7005W        W79298  24.676  43.288  13.996
 7006W        W79299  18.732   4.298   4.697
 7007W        W79300  11.336  32.089  12.546
 7008W        W79301  27.053  41.481  13.797
 7009W        W79302  10.701  27.137   1.375
 7010W        W79303  24.675  39.328   3.724
 7011W        W79304  31.909   8.298   2.795
 7012W        W79305  33.018   0.332  12.554
 7013W        W79306   1.246  18.117   2.273
 7014W        W79307   2.932  35.001  14.357
 7015W        W79308  30.515  22.509   1.831
 7016W        W79309  19.192  37.973   3.640
 7017W        W79310  36.041  21.177  14.339
 7018W        W79311  13.757  25.699   4.325
 7019W        W79312  14.649  39.516  14.316
 7020W        W79313  10.264   5.707   2.777
 7021W        W79314  33.582  44.886   3.780
 7022W        W79315  25.015  43.812  14.281
 7023W        W79316  26.459   1.358  12.526
 7024W        W79317  23.635  41.922  10.932
 7025W        W79318  15.228  15.219   2.265
 7026W        W79319  36.931  34.934   0.290
 7027W        W79320  13.319  12.746   5.258
 7028W        W79321   3.746  18.549  13.499
 7029W        W79322  34.534  37.472   0.768
 7030W        W79323   2.314  26.191   1.934
 7031W        W79324  35.967  11.829  14.854
 7032W        W79325   2.892  23.156  13.367
 7033W        W79326  20.065   0.765  12.356
 7034W        W79327  21.647  39.337  10.992
 7035W        W79328  27.122  42.905   5.168
 7036W        W79329  14.158  36.873   3.675
 7037W        W79330  39.485  39.466   0.373
 7038W        W79331   6.215  38.521  13.328
 7039W        W79332  11.373  40.438   2.328
 7040W        W79333  16.568  20.160   0.844
 7041W        W79334  18.674   6.221   0.321
 7042W        W79335  30.977  41.889  12.409
 7043W        W79336   0.493  18.692  13.528
 7044W        W79337   2.767  42.836  10.464
 7045W        W79338  24.205  37.082   1.436
 7046W        W79339  28.075   1.384  11.894
 7047W        W79340  10.687  11.139   3.380
 7048W        W79341  33.084  27.647  13.315
 7049W        W79342  10.144  40.548  10.477
 7050W        W79343  35.503  24.633   3.278
 7051W        W79344  44.318   8.228  14.946
 7052W        W79345  15.238   4.333  14.445
 7053W        W79346  12.119   4.940   4.707
 7054W        W79347  43.812  22.535   1.770
 7055W        W79348  19.226  33.012  13.385
 7056W        W79349  19.704   1.409   4.598
 7057W        W79350  10.829  37.056  14.363
 7058W        W79351  36.913   8.881   4.181
 7059W        W79352  25.213  37.016   4.778
 7060W        W79353   5.882  32.450   1.250
 7061W        W79354   7.235  12.816  11.579
 7062W        W79355  16.725   0.846  13.919
 7063W        W79356  30.422  19.623   0.941
 7064W        W79357  33.443  15.614   3.340
 7065W        W79358  21.522  39.441  12.495
 7066W        W79359  22.664   2.457  14.916
 7067W        W79360  32.927  33.087   2.302
 7068W        W79361  14.766  19.635   4.163
 7069W        W79362  25.522   8.209  14.503
 7070W        W79363   9.344  32.991   2.770
 7071W        W79364   1.344  11.779  11.951
 7072W        W79365  21.047  20.248   2.320
 7073W        W79366  23.051  13.193  13.907
 7074W        W79367  27.474  17.076   2.863
 7075W        W79368  29.167  39.907   1.735
 7076W        W79369  16.794  40.402   4.821
 7077W        W79370  18.637  13.667  14.376
 7078W        W79371  13.312  15.276   1.333
 7079W        W79372   7.330  37.472  11.443
 7080W        W79373  27.101  37.464   4.704
 7081W        W79374   3.751  36.586   1.331
 7082W        W79375   6.744  26.675   5.119
 7083W        W79376  41.388  11.321   0.948
 7084W        W79377  38.328  38.511   2.858
 7085W        W79378   8.389  36.956   4.789
 7086W        W79379   3.236  27.964   2.696
 7087W        W79380  38.477  34.023   3.859
 7088W        W79381   5.200  20.626  14.819
 7089W        W79382  25.569   6.385  12.992
 7090W        W79383   6.316  45.000  14.482
 7091W        W79384  44.503  21.188   5.108
 7092W        W79385  18.096   7.235   0.905
 7093W        W79386  21.228  44.813  14.895
 7094W        W79387   4.770   8.168  10.444
 7095W        W79388   7.773   0.859  10.433
 7096W        W79389  34.592  17.074   3.154
 7097W        W79390  30.155  22.543  13.399
 7098W        W79391   3.853   9.732  12.864
 7099W        W79392  29.981  29.446   4.140
 7100W        W79393  29.958  33.889  10.481
 7101W        W79394   8.889   1.862  12.844
 7102W        W79395  24.661   0.938  10.887
 7103W        W79396  18.763  21.714   3.273
 7104W        W79397  40.971  18.221   3.848
 7105W        W79398  18.657  11.373   1.355
 7106W        W79399   6.854   4.709  13.422
 7107W        W79400  31.456  11.290  11.079
 7108W        W79401   3.389  13.603   2.689
 7109W        W79402   0.825  12.755   2.393
 7110W        W79403   6.212  20.105   3.326
 7111W        W79404  43.481  34.609   0.300
 7112W        W79405  33.896  31.929  12.361
 7113W        W79406  28.973   0.950   1.912
 7114W        W79407  43.424   8.822  11.994
 7115W        W79408  28.628  38.540  13.333
 7116W        W79409   5.754  23.500   4.215
 7117W        W79410  12.255  15.673  10.911
 7118W        W79411  34.387  18.603  12.045
 7119W        W79412   3.461  17.182   1.293
 7120W        W79413  36.540  23.006  10.463
 7121W        W79414   7.824  11.836  14.866
 7122W        W79415   2.462   2.298   4.676
 7123W        W79416   7.897   9.717   3.696
 7124W        W79417  20.553  41.523  14.338
 7125W        W79418   8.865  41.821   2.379
 7126W        W79419  27.022  37.436  11.105
 7127W        W79420  24.152   2.862  13.364
 7128W        W79421  25.168  32.441  10.586
 7129W        W79422  31.444  22.051   3.705
 7130W        W79423  10.205   9.271   3.668
 7131W        W79424   8.778  37.003   4.734
 7132W        W79425  11.809  28.181   1.444
 7133W        W79426  34.560   2.247   0.944
 7134W        W79427   4.711  37.996  13.450
 7135W        W79428  26.126  31.632  14.990
 7136W        W79429   3.308  44.375   0.740
 7137W        W79430  22.044  19.708   4.782
 7138W        W79431  27.189  15.100   2.301
 7139W        W79432  22.547  24.049   4.159
 7140W        W79433  27.020  44.788  11.424
 7141W        W79434  15.227  26.565   3.192
 7142W        W79435  16.803  16.696  11.531
 7143W        W79436  23.177   1.288  11.519
 7144W        W79437   8.772  20.566  10.417
 7145W        W79438  12.329  11.131   1.235
 7146W        W79439  44.447   3.902  12.828
 7147W        W79440  17.734  29.092  10.603
 7148W        W79441  17.256  37.399   0.884
 7149W        W79442  37.387  39.917  14.457
 7150W        W79443   8.388   6.420   2.685
 7151W        W79444  28.007  42.418   1.790
 7152W        W79445  19.595  22.597   1.923
 7153W        W79446  15.597  23.168  12.096
 7154W        W79447  25.673  37.870   3.164
 7155W        W79448  38.027   8.222   2.382
 7156W        W79449  23.553  41.919  14.515
 7157W        W79450   2.464   1.373   0.476
 7158W        W79451  21.718  15.645  11.605
 7159W        W79452  42.874   1.882   1.363
 7160W        W79453  17.799  17.236   3.666
 7161W        W79454  32.397   2.428   4.149
 7162W        W79455   3.356  33.553   1.883
 7163W        W79456  25.999  17.750  14.796
 7164W        W79457  23.685  12.720  14.499
 7165W        W79458  29.157  41.382  13.547
 7166W        W79459  24.990  37.509   0.428
 7167W        W79460  42.290  38.992   4.217
 7168W        W79461  14.281  10.358   5.091
 7169W        W79462  16.731  16.284   3.313
 7170W        W79463  17.716  32.527   1.772
 7171W        W79464  35.482  41.486  11.056
 7172W        W79465  22.129  12.265  13.965
 7173W        W79466   1.737  41.814   1.243
 7174W        W79467  34.443  22.641  10.605
 7175W        W79468  11.330  23.041   1.720
 7176W        W79469  43.453  36.850   5.234
 7177W        W79470  40.309  38.849  13.820
 7178W        W79471   9.783  20.620   4.625
 7179W        W79472   9.780   0.289   2.717
 7180W        W79473  24.633  19.089  11.561
 7181W        W79474  24.184  40.509   3.262
 7182W        W79475  35.974  11.180   4.169
 7183W        W79476  29.079  41.916   4.183
 7184W        W79477  13.817  44.806  12.465
 7185W        W79478  43.495  19.693  14.962
 7186W        W79479  29.541  33.955  13.452
 7187W        W79480  30.506  20.538  14.021
 7188W        W79481  16.641  15.206  14.763
 7189W        W79482  16.233  22.049  14.923
 7190W        W79483  22.525   4.388   3.371
 7191W        W79484  18.712  27.655   1.900
 7192W        W79485  43.874   5.831   1.288
 7193W        W79486  29.147  41.520   3.191
 7194W        W79487  35.950  10.702  14.773
 7195W        W79488  25.675  23.690  13.536
 7196W        W79489  29.096  37.530   2.412
 7197W        W79490   2.284  16.177  10.947
 7198W        W79491  43.865   4.874  14.777
 7199W        W79492  38.437   0.936  14.772
 7200W        W79493  42.522  43.868  12.012
 7201W        W79494  35.472  44.336  12.469
 7202W        W79495  41.950   7.175   1.704
 7203W        W79496   5.299  36.087   2.678
 7204W        W79497  14.136  43.957  10.415
 7205W        W79498  38.950  14.323  14.511
 7206W        W79499  19.041  25.140  14.892
 7207W        W79500  37.042  40.895   0.418
 7208W        W79501  17.668  33.122   9.641
 7209W        W79502  15.299  15.799   1.421
 7210W        W79503  28.014  44.835   1.856
 7211W        W79504  18.647  27.175  13.540
 7212W        W79505   0.794  44.466   2.358
 7213W        W79506  38.549  39.914  13.843
 7214W        W79507   7.251  19.674   4.233
 7215W        W79508  20.760  23.504   3.666
 7216W        W79509  22.661   2.416   1.300
 7217W        W79510  42.861   5.719   4.189
 7218W        W79511  27.501   7.902  11.448
 7219W        W79512  10.717  23.668   1.366
 7220W        W79513  26.583  22.716  10.964
 7221W        W79514  11.711  17.207  14.300
 7222W        W79515  31.054  18.789   2.370
 7223W        W79516  36.507  27.167  13.311
 7224W        W79517  14.336  24.106   1.761
 7225W        W79518  13.259  33.978  10.447
 7226W        W79519  34.016  40.957   2.314
 7227W        W79520  34.931  18.688  10.914
 7228W        W79521  19.052  38.388  13.460
 7229W        W79522   0.904  36.474  14.350
 7230W        W79523  40.983  39.455  12.517
 7231W        W79524   4.725  22.565   5.148
 7232W        W79525  14.737   2.345   3.371
 7233W        W79526  34.010  14.098  13.913
 7234W        W79527  41.523   7.232  10.914
 7235W        W79528   3.724   8.796   3.807
 7236W        W79529  33.075   1.791   4.300
 7237W        W79530   1.416  28.625  11.128
 7238W        W79531  29.011  22.128  11.377
 7239W        W79532  38.881  15.150  14.276
 7240W        W79533  14.143   0.821   0.923
 7241W        W79534   7.671  36.869   1.800
 7242W        W79535   6.270  20.572  13.830
 7243W        W79536  12.223  22.511   1.305
 7244W        W79537  39.948  41.011   3.220
 7245W        W79538  31.580  24.555  12.011
 7246W        W79539  23.053  38.538   2.718
 7247W        W79540  19.696  37.079   3.797
 7248W        W79541  10.657  15.589   0.944
 7249W        W79542  26.045  20.544  12.401
 7250W        W79543   1.335  17.098  14.854
 7251W        W79544  13.610  21.153  11.473
 7252W        W79545  26.075   4.829   3.647
 7253W        W79546  41.498  21.184   0.830
 7254W        W79547   3.307  38.869   4.176
 7255W        W79548  19.579  44.350   2.318
 7256W        W79549  44.317  27.147   2.294
 7257W        W79550  35.097  15.135   4.263
 7258W        W79551   1.973  21.020  10.632
 7259W        W79552  33.994  25.585   3.337
 7260W        W79553   8.788  43.503   1.835
 7261W        W79554  10.854  26.618   0.834
 7262W        W79555  15.097  33.416  13.002
 7263W        W79556  14.099  42.452   3.681
 7264W        W79557  11.643  34.967   4.149
 7265W        W79558  20.214  32.979  11.100
 7266W        W79559  18.235  40.811  13.389
 7267W        W79560  16.101  31.473   2.693
 7268W        W79561  15.646  10.653   3.707
 7269W        W79562  22.586  30.499   5.315
 7270W        W79563  38.332  44.992  11.445
 7271W        W79564  15.776  25.546   0.426
 7272W        W79565  43.397  36.550  14.021
 7273W        W79566  10.254  39.367   2.370
 7274W        W79567  19.633  10.355  12.935
 7275W        W79568   1.402   5.364   1.926
 7276W        W79569  35.595  13.824  12.910
 7277W        W79570  34.542  25.532  13.404
 7278W        W79571  23.057   1.971  14.437
 7279W        W79572  13.797   5.735   0.424
 7280W        W79573  43.426  24.490   2.760
 7281W        W79574  29.022  36.080  12.366
 7282W        W79575  39.449  31.151  13.517
 7283W        W79576  40.010  10.671  11.606
 7284W        W79577  26.658   9.326   1.401
 7285W        W79578  37.559  32.075  12.543
 7286W        W79579  33.909  24.973  13.936
 7287W        W79580  21.674  31.142   2.256
 7288W        W79581  43.309  25.137   0.820
 7289W        W79582  28.675  22.652   4.655
 7290W        W79583  12.611  30.908   1.712
 7291W        W79584  11.633  37.396   9.956
 7292W        W79585  23.587  27.000  13.466
 7293W        W79586  17.306  40.911   4.787
 7294W        W79587  24.495  24.022   4.242
 7295W        W79588  10.339  22.527  10.962
 7296W        W79589  22.193  19.281  14.913
 7297W        W79590  44.430  10.163   3.243
 7298W        W79591  35.106  18.137   4.199
 7299W        W79592  34.929  31.081   3.287
 7300W        W79593  18.664  11.208  10.607
 7301W        W79594  42.870  33.913   0.333
 7302W        W79595   0.845   4.875   9.945
 7303W        W79596  19.061  38.073  13.487
 7304W        W79597  15.289  33.604  11.029
 7305W        W79598  43.907  14.120  12.363
 7306W        W79599  16.635  31.530   0.322
 7307W        W79600  29.918  39.332  10.984
 7308W        W79601  31.559  18.605  11.094
 7309W        W79602  44.505  12.616  10.626
 7310W        W79603   2.958  42.862  12.007
 7311W        W79604   2.303  22.647   1.712
 7312W        W79605  44.969  42.810  10.459
 7313W        W79606   5.331  14.174  10.552
 7314W        W79607  27.144   3.454  13.494
 7315W        W79608  44.435  34.929   1.906
 7316W        W79609   4.935  43.417   1.435
 7317W        W79610  35.493  10.246   2.349
 7318W        W79611  43.387   0.859  10.598
 7319W        W79612  17.212   1.853  12.373
 7320W        W79613  40.000  27.476  11.940
 7321W        W79614  23.616  43.985   0.902
 7322W        W79615  40.798  25.583  13.454
 7323W        W79616  17.212  21.202   3.308
 7324W        W79617  20.726  24.629  13.902
 7325W        W79618  41.855   0.420  13.056
 7326W        W79619  23.723  24.680  14.302
 7327W        W79620  40.839  19.705  11.573
 7328W        W79621  40.028  15.279  13.966
 7329W        W79622   8.297  31.953  10.493
 7330W        W79623  10.872   1.385   4.619
 7331W        W79624  40.002  34.923  14.367
 7332W        W79625  18.734   9.302   0.769
 7333W        W79626   0.341  41.400   1.254
 7334W        W79627   6.921  28.068  13.529
 7335W        W79628  19.138  35.466   3.678
 7336W        W79629  25.545  24.171   2.726
 7337W        W79630   0.399  11.288   2.792
 7338W        W79631  20.570  21.160   3.317
 7339W        W79632   6.198   9.792   0.951
 7340W        W79633  19.240  25.140   4.812
 7341W        W79634  11.165  40.519   0.267
 7342W        W79635   7.869  32.015   2.383
 7343W        W79636  17.210  16.633  10.621
 7344W        W79637   9.805  33.106   4.719
 7345W        W79638  34.875  39.397  12.439
 7346W        W79639   4.439  19.052  10.447
 7347W        W79640  26.460  39.469  12.074
 7348W        W79641  26.464   3.446   2.888
 7349W        W79642  14.765  31.912   3.818
 7350W        W79643  17.618  37.456  13.810
 7351W        W79644   5.799   1.884  14.787
 7352W        W79645  20.126  39.454   3.767
 7353W        W79646  26.697  14.222   0.860
 7354W        W79647  41.322  32.959  10.425
 7355W        W79648  27.979  26.124   3.681
 7356W        W79649   9.305   7.743  11.439
 7357W        W79650  39.522  10.777  10.500
 7358W        W79651  23.581  19.722  10.519
 7359W        W79652  38.955  30.118   4.767
 7360W        W79653  36.975   7.402  12.942
 7361W        W79654  32.143  41.020   4.692
 7362W        W79655  22.746   2.456  12.471
 7363W        W79656   6.263   8.788   0.960
 7364W        W79657  23.505  38.856  14.868
 7365W        W79658  40.541  38.476  10.467
 7366W        W79659   8.383  26.009   1.279
 7367W        W79660  19.739  34.449  10.430
 7368W        W79661   4.869  10.877  12.029
 7369W        W79662  28.185  31.526   1.377
 7370W        W79663  35.406  36.025   3.219
 7371W        W79664  11.240  33.060   0.913
 7372W        W79665  38.906  13.333  10.921
 7373W        W79666  11.692  37.336   1.368
 7374W        W79667  18.239  29.651   0.386
 7375W        W79668  10.196  33.549  13.011
 7376W        W79669  14.784  33.614   2.283
 7377W        W79670   7.194  24.623  13.914
 7378W        W79671  32.127  38.879   2.829
 7379W        W79672   5.347   1.890  14.883
 7380W        W79673  10.294  22.607  14.284
 7381W        W79674  33.486  34.407   4.744
 7382W        W79675  26.655   1.246   3.862
 7383W        W79676   4.875  19.633   1.265
 7384W        W79677  40.851  38.048   0.365
 7385W        W79678   5.790   7.800  14.342
 7386W        W79679   0.438  30.458   4.325
 7387W        W79680  18.568  24.226   9.559
 7388W        W79681  24.688  18.294  14.369
 7389W        W79682  35.853  29.110   0.806
 7390W        W79683   1.855  20.658   1.416
 7391W        W79684   1.397  35.370   3.717
 7392W        W79685  23.018   0.483  11.602
 7393W        W79686   3.402  38.432  14.331
 7394W        W79687  27.615  44.820   3.282
 7395W        W79688  26.695  40.828   3.726
 7396W        W79689  34.447  33.884  14.939
 7397W        W79690  13.163   4.829  11.974
 7398W        W79691  22.018   8.834  13.485
 7399W        W79692   8.283  27.475   2.894
 7400W        W79693  29.455  17.273  13.030
 7401W        W79694  18.235   0.862  12.384
 7402W        W79695  13.127  14.202   0.863
 7403W        W79696  26.183  25.675   1.328
 7404W        W79697   9.158   0.278  14.843
 7405W        W79698  37.949  33.537  14.343
 7406W        W79699  33.427  31.042   2.332
 7407W        W79700  19.115  17.230  12.515
 7408W        W79701  40.355  18.052   3.788
 7409W        W79702  10.763  19.056  10.552
 7410W        W79703   7.238  42.938  12.448
 7411W        W79704  42.363  24.118  11.512
 7412W        W79705  27.019  29.616  10.536
 7413W        W79706  40.045  12.195  12.076
 7414W        W79707  17.164  40.426  10.917
 7415W        W79708  23.645  44.982   4.785
 7416W        W79709  44.371   4.843  12.387
 7417W        W79710  44.824  30.125   0.934
 7418W        W79711  16.607  23.727  10.940
 7419W        W79712   2.769  13.811   0.810
 7420W        W79713  32.116  44.767   2.851
 7421W        W79714   3.873   4.704  14.760
 7422W        W79715  36.570   3.363  14.295
 7423W        W79716   1.335  24.607   3.858
 7424W        W79717  44.888  43.022  10.920
 7425W        W79718  34.458   3.910  14.286
 7426W        W79719   0.913  29.007  12.086
 7427W        W79720  11.265  43.272   1.747
 7428W        W79721  22.629  11.665   1.431
 7429W        W79722  18.283   3.306  11.536
 7430W        W79723  17.180  23.712  12.471
 7431W        W79724  37.952  28.980  10.584
 7432W        W79725  33.480  28.669  12.457
 7433W        W79726  42.489  23.091  14.027
 7434W        W79727  32.392  40.970  12.993
 7435W        W79728  44.409  32.889  12.951
 7436W        W79729   2.840  26.034  13.971
 7437W        W79730  38.377  29.978   1.898
 7438W        W79731  29.006  42.900  14.436
 7439W        W79732   6.885   1.833   2.315
 7440W        W79733   5.298  18.278  10.420
 7441W        W79734   5.309  34.595  12.574
 7442W        W79735   9.796   6.887   2.205
 7443W        W79736  28.572   4.420  10.493
 7444W        W79737  10.291  13.664   2.778
 7445W        W79738  37.461   3.383   1.305
 7446W        W79739   9.757  17.288  12.932
 7447W        W79740   9.686  38.482  13.007
 7448W        W79741  17.566   8.857  13.346
 7449W        W79742  40.917  22.242   3.637
 7450W        W79743   6.216   7.687  12.010
 7451W        W79744  28.512  30.565  13.517
 7452W        W79745  11.634  21.084  11.474
 7453W        W79746  18.578  33.888   5.654
 7454W        W79747  37.388  25.165  13.851
 7455W        W79748  12.158  39.499   3.762
 7456W        W79749  28.047  20.043  10.465
 7457W        W79750   1.871  36.442  10.527
 7458W        W79751  44.377  23.163   4.757
 7459W        W79752  41.949  30.495   4.159
 7460W        W79753  30.457  39.944  13.927
 7461W        W79754  25.619  13.764  14.506
 7462W        W79755  41.416  28.519  10.483
 7463W        W79756  32.634  35.082  10.962
 7464W        W79757  13.735  20.688   3.205
 7465W        W79758  43.390  34.472   3.333
 7466W        W79759  32.887  37.405  12.574
 7467W        W79760  20.656  38.378   2.235
 7468W        W79761  20.143  38.933  10.511
 7469W        W79762  21.141  37.465   1.215
 7470W        W79763  14.749   1.375   0.323
 7471W        W79764  27.040  38.359  12.401
 7472W        W79765  19.746  29.578  12.907
 7473W        W79766   3.358  14.310  12.409
 7474W        W79767  22.506  15.103  11.602
 7475W        W79768  18.718  31.151   4.283
 7476W        W79769  43.301   6.735   2.672
 7477W        W79770  21.576  41.820   3.271
 7478W        W79771  40.979  25.105   3.301
 7479W        W79772  18.207  43.017   1.822
 7480W        W79773  25.671  24.696  10.435
 7481W        W79774  24.670  21.564  11.042
 7482W        W79775  20.628  25.509  11.518
 7483W        W79776   0.387  17.117   0.961
 7484W        W79777  14.718  19.168  12.501
 7485W        W79778  41.397  45.000   3.368
 7486W        W79779  23.623  16.778  13.322
 7487W        W79780  13.735  31.413  13.985
 7488W        W79781   0.846  12.202  12.062
 7489W        W79782  40.444  43.782   9.553
 7490W        W79783  20.151  23.102   1.450
 7491W        W79784   6.217  13.174  12.556
 7492W        W79785  24.165  31.415   4.258
 7493W        W79786   3.334  15.681  11.118
 7494W        W79787  37.534  27.501  11.932
 7495W        W79788  15.167  32.898   4.259
 7496W        W79789  40.829  42.844   0.264
 7497W        W79790  44.474   8.843  12.075
 7498W        W79791  19.625   7.385   1.832
 7499W        W79792  10.276  10.731   0.365
 7500W        W79793   9.347  35.081   2.725
 7501W        W79794  32.448  10.850  12.410
 7502W        W79795  13.826  25.584  13.844
 7503W        W79796   4.355  13.770  11.088
 7504W        W79797  16.808  35.505  14.775
 7505W        W79798  27.942  11.808  12.095
 7506W        W79799  16.113   2.903   2.410
 7507W        W79800  23.667  20.538  13.347
 7508W        W79801  41.991  41.340  13.464
 7509W        W79802  44.355  31.576   3.336
 7510W        W79803  38.888  12.693  10.598
 7511W        W79804  18.196  39.534  12.346
 7512W        W79805  24.579  14.704   1.851
 7513W        W79806  10.355  32.057   9.991
 7514W        W79807  16.104   5.262   3.783
 7515W        W79808  16.214  43.417  11.459
 7516W        W79809  44.344  20.169  14.410
 7517W        W79810  44.342  13.786   4.711
 7518W        W79811  42.360  30.965  10.942
 7519W        W79812  31.574  41.908   2.248
 7520W        W79813  19.143  11.799  11.447
 7521W        W79814  16.278   1.831   0.737
 7522W        W79815  15.104  34.988   2.791
 7523W        W79816  12.226  14.644  10.497
 7524W        W79817  35.503  25.707  14.418
 7525W        W79818  29.988  30.595   4.657
 7526W        W79819  42.862  36.430  11.531
 7527W        W79820  29.058  31.464  10.613
 7528W        W79821  17.279   6.348  12.090
 7529W        W79822  39.958  44.482  10.146
 7530W        W79823  25.189   1.752   1.250
 7531W        W79824  29.936  29.948  11.925
 7532W        W79825  17.668  37.903   2.404
 7533W        W79826  39.558  26.117   3.757
 7534W        W79827  30.621  41.378   3.350
 7535W        W79828  31.899  15.262   0.875
 7536W        W79829  34.579  37.914  13.533
 7537W        W79830   3.276  21.675  13.332
 7538W        W79831  11.686  40.958   1.266
 7539W        W79832  32.994  12.251  13.910
 7540W        W79833  39.437   7.751  10.917
 7541W        W79834  41.843   1.424  14.509
 7542W        W79835  42.505  24.012   1.923
 7543W        W79836  18.663  41.369  10.515
 7544W        W79837  16.605  10.870  11.934
 7545W        W79838  41.521  16.191   1.326
 7546W        W79839  11.370   1.910  11.446
 7547W        W79840  21.191  11.695  12.553
 7548W        W79841  28.544  32.913   0.407
 7549W        W79842  41.800  26.677   5.157
 7550W        W79843   6.770  24.182  12.926
 7551W        W79844  28.440  12.188  11.893
 7552W        W79845  32.606  19.082  10.901
 7553W        W79846  37.403   4.252  13.909
 7554W        W79847  34.048  28.114  10.123
 7555W        W79848  28.511  20.730   4.304
 7556W        W79849  41.796  33.464   1.925
 7557W        W79850  18.765   9.149  14.482
 7558W        W79851  24.115  14.600  11.015
 7559W        W79852  13.140   2.446  13.056
 7560W        W79853  11.209  20.665   0.352
 7561W        W79854   2.268  10.273  14.791
 7562W        W79855  24.514  22.539  10.629
 7563W        W79856  40.862  44.370   9.922
 7564W        W79857  16.742   7.873   4.756
 7565W        W79858  12.794  24.173   3.645
 7566W        W79859  26.063  20.728   4.312
 7567W        W79860  30.994  29.019  14.456
 7568W        W79861  22.701  29.924   1.383
 7569W        W79862  23.608  10.270   2.852
 7570W        W79863  26.479  17.161   1.232
 7571W        W79864  11.771  39.866   9.974
 7572W        W79865  12.801  30.986  11.437
 7573W        W79866  32.607  26.961  11.594
 7574W        W79867  26.651  18.630   0.339
 7575W        W79868  39.867  31.515   2.369
 7576W        W79869  18.281  13.833  10.521
 7577W        W79870  16.673  13.114   0.873
 7578W        W79871  33.880  27.090   4.177
 7579W        W79872  36.087  19.689   2.224
 7580W        W79873  33.432  28.089  14.841
 7581W        W79874  10.233  43.384  14.444
 7582W        W79875   1.876  12.363  11.860
 7583W        W79876  40.805  38.880  14.512
 7584W        W79877  32.076  41.839   2.728
 7585W        W79878   3.844   1.970   2.853
 7586W        W79879  29.585  32.993  14.466
 7587W        W79880   2.470  13.228  13.326
 7588W        W79881  13.607  35.477  12.915
 7589W        W79882  18.656  24.165   2.251
 7590W        W79883  42.418  14.687   2.676
 7591W        W79884  21.569  16.754  13.538
 7592W        W79885  40.373   6.727   4.276
 7593W        W79886  26.498  35.494   4.222
 7594W        W79887   8.681  25.546  10.580
 7595W        W79888  35.109  40.885   3.797
 7596W        W79889  19.227   8.724  12.078
 7597W        W79890  35.036  22.546  14.852
 7598W        W79891  32.596  32.590   3.632
 7599W        W79892  27.953   1.966  13.432
 7600W        W79893  14.324  20.634  13.427
 7601W        W79894  13.712  32.435   2.726
 7602W        W79895  17.698   8.715  12.058
 7603W        W79896  20.761  38.873  11.485
 7604W        W79897  20.729  19.720   3.737
 7605W        W79898  11.823  15.721   1.842
 7606W        W79899  19.173  32.982   2.402
 7607W        W79900   9.721  37.036  11.603
 7608W        W79901   4.810  19.166   0.925
 7609W        W79902  38.561  35.953  13.915
 7610W        W79903   0.456  34.905  11.033
 7611W        W79904  39.979  26.080   2.862
 7612W        W79905   0.757   2.315   0.810
 7613W        W79906  19.267  40.513   1.772
 7614W        W79907  30.626  20.269  10.887
 7615W        W79908  37.560  29.527  11.525
 7616W        W79909   3.419  21.531  13.025
 7617W        W79910   4.715  22.535  14.829
 7618W        W79911  23.118  11.776   2.903
 7619W        W79912   4.324  27.507   4.230
 7620W        W79913   8.358  26.109   0.329
 7621W        W79914  38.964  16.637   0.401
 7622W        W79915  31.945  40.972  13.991
 7623W        W79916  32.949  39.421   2.358
 7624W        W79917  36.556  42.929   0.301
 7625W        W79918  12.190  34.582   0.769
 7626W        W79919  14.214  38.420  12.838
 7627W        W79920  27.499   5.852  13.034
 7628W        W79921  23.653  29.450   0.275
 7629W        W79922  15.240   7.781  12.062
 7630W        W79923   9.721  39.524   0.442
 7631W        W79924  15.610  35.855   1.327
 7632W        W79925  22.671  43.839  13.901
 7633W        W79926  14.678  37.929   3.362
 7634W        W79927  22.508  11.735  11.101
 7635W        W79928   3.302  26.081  13.851
 7636W        W79929  34.985  16.293  13.806
 7637W        W79930  12.754  17.276  13.908
 7638W        W79931  28.164  22.615  14.317
 7639W        W79932   9.857  39.905  11.023
 7640W        W79933  18.179  37.345   2.352
 7641W        W79934  20.167  29.122   4.337
 7642W        W79935  28.549  15.294  14.448
 7643W        W79936  37.868  20.074   2.787
 7644W        W79937  31.483   9.863  14.928
 7645W        W79938  28.066   7.254  11.488
 7646W        W79939   9.688  25.150   2.198
 7647W        W79940  12.688  34.590   1.931
 7648W        W79941  29.445  35.905   1.396
 7649W        W79942  15.739   7.321  10.146
 7650W        W79943   9.817  17.185  11.499
 7651W        W79944   8.723  30.021  13.982
 7652W        W79945  11.177  13.155  12.388
 7653W        W79946  11.340  10.175   3.364
 7654W        W79947  35.927  32.585   0.733
 7655W        W79948  18.062   0.247  14.867
 7656W        W79949  28.956  38.012   4.620
 7657W        W79950   8.359  25.148  10.546
 7658W        W79951  36.089  29.105   1.410
 7659W        W79952  25.606  31.976  12.343
 7660W        W79953  34.109  21.542  10.524
 7661W        W79954  16.132   6.851   0.787
 7662W        W79955  14.738  13.300  14.763
 7663W        W79956  29.147  42.421  11.445
 7664W        W79957  35.958  21.549   2.245
 7665W        W79958  23.733   0.486   0.770
 7666W        W79959  34.604   6.700  10.614
 7667W        W79960  29.108   1.263  14.830
 7668W        W79961  31.134  10.877  13.917
 7669W        W79962  39.326   2.837  11.009
 7670W        W79963  31.943  32.905  10.608
 7671W        W79964  32.451   1.908  11.973
 7672W        W79965  42.414  21.526   0.424
 7673W        W79966  42.938  14.795  12.393
 7674W        W79967   9.760   7.293   2.327
 7675W        W79968   0.464   0.347  14.008
 7676W        W79969  13.217  21.563   1.765
 7677W        W79970  32.532  20.530  11.898
 7678W        W79971  11.373  24.687  11.562
 7679W        W79972  35.519  38.511  13.446
 7680W        W79973   4.907  12.814   3.234
 7681W        W79974   9.176  16.699  12.858
 7682W        W79975  24.565  30.541  10.960
 7683W        W79976  32.584  17.644   4.194
 7684W        W79977  43.325  44.833   1.363
 7685W        W79978  34.898  29.150  10.958
 7686W        W79979  10.834  15.151  11.377
 7687W        W79980  26.053  27.480   3.812
 7688W        W79981  36.881  12.283  14.773
 7689W        W79982   7.244  22.135  13.396
 7690W        W79983  10.845  31.074   2.357
 7691W        W79984  31.647   8.251  14.340
 7692W        W79985  37.571  13.145   0.434
 7693W        W79986  27.524  36.904   3.238
 7694W        W79987  20.699   5.753   2.199
 7695W        W79988  37.516  16.675  10.471
 7696W        W79989  23.065   7.415   1.789
 7697W        W79990   9.150  25.087   2.662
 7698W        W79991  25.562  31.471  11.556
 7699W        W79992  36.963  32.969   1.296
 7700W        W79993  14.220  14.291   4.619
 7701W        W79994   9.726   5.364  11.868
 7702W        W79995  29.551  21.619  14.437
 7703W        W79996  29.475  15.587   0.295
 7704W        W79997   6.321  33.055   2.752
 7705W        W79998  21.199  15.800   1.770
 7706W        W79999  21.749  30.595   4.260
 7707W        W80000  31.592   3.449  13.936
 7708W        W80001   2.318   0.248  12.472
 7709W        W80002  43.894  22.694   2.795
 7710W        W80003  36.348   2.420   3.851
 7711W        W80004   2.315   3.318   5.228
 7712W        W80005  18.263   3.255  13.940
 7713W        W80006  20.136  10.649   2.791
 7714W        W80007  30.014  23.022  10.019
 7715W        W80008  41.950  16.179  12.048
 7716W        W80009  37.944  12.205   4.743
 7717W        W80010  11.139  33.001  10.548
 7718W        W80011  13.704  42.313  11.445
 7719W        W80012  21.704  43.507   4.347
 7720W        W80013   7.834   8.672   1.226
 7721W        W80014  43.809  36.983   2.418
 7722W        W80015  42.466  42.463   4.833
 7723W        W80016  32.463   0.764  12.038
 7724W        W80017   8.213  29.146  14.803
 7725W        W80018  10.234  31.475   3.169
 7726W        W80019  15.711  26.673   3.775
 7727W        W80020  18.669  42.333  13.835
 7728W        W80021  13.184   6.191   3.852
 7729W        W80022  23.002  28.468   2.407
 7730W        W80023  43.307  42.957   3.232
 7731W        W80024  32.491   4.860   2.799
 7732W        W80025  34.088  21.678   0.748
 7733W        W80026  30.553   7.845   3.286
 7734W        W80027  11.243  39.494  14.823
 7735W        W80028  11.272  41.021   4.603
 7736W        W80029   1.379  42.356   2.779
 7737W        W80030  22.215  11.627  14.982
 7738W        W80031  33.117   5.907   0.743
 7739W        W80032   0.383  30.467  10.900
 7740W        W80033  36.941   1.867   0.898
 7741W        W80034  26.957  20.143  13.965
 7742W        W80035  40.805  13.237  11.989
 7743W        W80036   4.293   2.819  14.354
 7744W        W80037  10.854  15.818   4.834
 7745W        W80038  15.677   4.869  11.994
 7746W        W80039  30.636  13.679  14.798
 7747W        W80040  10.206  13.339  14.896
 7748W        W80041  27.065  44.293  10.416
 7749W        W80042  40.469  26.157   3.702
 7750W        W80043   6.389  21.115   5.244
 7751W        W80044   7.883  27.187  14.912
 7752W        W80045   1.358  10.227   0.255
 7753W        W80046  41.353  21.693  11.475
 7754W        W80047  30.620  16.676  11.122
 7755W        W80048  12.341  24.506  13.906
 7756W        W80049  29.607  22.168  13.866
 7757W        W80050   5.705  42.967   2.330
 7758W        W80051  37.035   8.217   3.779
 7759W        W80052  21.738  26.602   3.147
 7760W        W80053  25.200  28.557   3.669
 7761W        W80054  30.141  10.817   1.746
 7762W        W80055  26.072  38.831   1.400
 7763W        W80056  30.128  27.160   4.637
 7764W        W80057  20.031  10.159   2.821
 7765W        W80058  40.025  34.580   0.776
 7766W        W80059  39.517  12.651   4.607
 7767W        W80060  30.085  19.205   0.838
 7768W        W80061  41.822  32.986   1.298
 7769W        W80062  28.143  27.661   2.332
 7770W        W80063  34.988  32.436   4.149
 7771W        W80064  44.423   1.333  13.887
 7772W        W80065  26.653  34.919   2.306
 7773W        W80066  33.038  14.308   1.420
 7774W        W80067  13.168  29.919  14.382
 7775W        W80068  13.210  23.011  12.985
 7776W        W80069  39.389  43.814   1.777
 7777W        W80070  33.603  33.030   2.280
 7778W        W80071  26.098   1.458  13.453
 7779W        W80072  23.615  17.194   0.444
 7780W        W80073   3.815  40.467   0.883
 7781W        W80074  16.751  19.199   4.600
 7782W        W80075  38.453  42.437  10.623
 7783W        W80076  33.056  42.978   3.780
 7784W        W80077  39.526  41.977  11.097
 7785W        W80078  41.959   6.193  13.443
 7786W        W80079  39.056   3.902  14.936
 7787W        W80080  18.167  39.036  13.800
 7788W        W80081   0.448   8.393   4.694
 7789W        W80082  31.984  22.029  10.968
 7790W        W80083  26.970  33.530  14.312
 7791W        W80084  35.384  14.143  12.547
 7792W        W80085   6.678  14.254  13.799
 7793W        W80086   7.897  34.603   4.705
 7794W        W80087  32.414   8.683   4.157
 7795W        W80088  44.834  42.421  10.931
 7796W        W80089  40.473  23.207   3.272
 7797W        W80090  37.575  31.976   3.149
 7798W        W80091  16.295  43.451   0.927
 7799W        W80092  23.228   0.851   0.329
 7800W        W80093  23.076  24.700  12.850
 7801W        W80094  35.889  11.170  11.970
 7802W        W80095  34.967  41.812  14.002
 7803W        W80096  27.649  43.364   4.113
 7804W        W80097  39.415  36.862  14.327
 7805W        W80098  41.344  21.044  14.496
 7806W        W80099  23.555  38.464   0.315
 7807W        W80100  35.073   7.362  11.449
 7808W        W80101   0.455  34.003   9.923
 7809W        W80102  24.993  19.540   2.192
 7810W        W80103  42.916  12.852   1.746
 7811W        W80104  14.154  23.105  13.950
 7812W        W80105  38.828  26.035   1.271
 7813W        W80106  18.189  32.539  12.509
 7814W        W80107  38.996  34.019  11.997
 7815W        W80108  21.262  36.075   4.757
 7816W        W80109   8.277  41.788  14.882
 7817W        W80110  39.446  43.348   0.482
 7818W        W80111  13.137  25.535  14.831
 7819W        W80112   9.854  28.951  14.784
 7820W        W80113  22.013   8.828  11.120
 7821W        W80114  24.725  22.172  11.460
 7822W        W80115  35.105  21.746  14.852
 7823W        W80116  25.648  17.142  13.823
 7824W        W80117  40.042  34.598  14.921
 7825W        W80118   1.439  36.863   0.395
 7826W        W80119  17.280  34.379   2.729
 7827W        W80120   6.206  39.361   2.405
 7828W        W80121  26.555  17.659  13.543
 7829W        W80122  29.923  18.155  11.559
 7830W        W80123  10.688  14.796   2.821
 7831W        W80124  21.741  43.012  11.382
 7832W        W80125   8.188  22.190   2.217
 7833W        W80126  25.592  43.859   3.753
 7834W        W80127  40.826  22.506   3.148
 7835W        W80128  16.142  44.312  12.980
 7836W        W80129  39.956  40.842  14.895
 7837W        W80130   2.786   5.279  14.416
 7838W        W80131   6.357  10.686  11.944
 7839W        W80132  36.567  25.556   3.206
 7840W        W80133  18.072  20.539   4.266
 7841W        W80134   8.174  36.397  14.761
 7842W        W80135  34.508  23.731  14.954
 7843W        W80136  17.680   7.828   0.901
 7844W        W80137  17.095   7.899  13.377
 7845W        W80138  15.745   2.853   9.487
 7846W        W80139  34.980  34.596  10.026
 7847W        W80140  33.098  42.952   1.815
 7848W        W80141  19.764  24.042   4.201
 7849W        W80142  11.842  41.001   3.156
 7850W        W80143  27.493  35.526   3.248
 7851W        W80144  29.525   2.932   1.782
 7852W        W80145  31.076  30.616   3.772
 7853W        W80146  31.137  10.274  10.603
 7854W        W80147  31.459  37.486  11.109
 7855W        W80148  25.202  17.144   3.745
 7856W        W80149   9.742  33.394  14.276
 7857W        W80150   4.430  38.511  12.519
 7858W        W80151   5.376   3.303   4.723
 7859W        W80152  10.760  19.546   1.876
 7860W        W80153  14.145  39.320   0.391
 7861W        W80154  13.338  44.269   1.371
 7862W        W80155  44.932  30.006  13.841
 7863W        W80156  29.589  17.653   2.701
 7864W        W80157  41.973  10.185   5.300
 7865W        W80158  10.803  31.042  10.549
 7866W        W80159  23.684  27.161  14.900
 7867W        W80160  22.556  19.572   2.240
 7868W        W80161  39.414  22.652   3.330
 7869W        W80162   5.397  15.145   3.237
 7870W        W80163  38.071  28.663   2.890
 7871W        W80164  17.768  22.639   0.915
 7872W        W80165   2.841  22.562   4.201
 7873W        W80166  24.001   0.358  12.542
 7874W        W80167  39.394  19.729  13.912
 7875W        W80168  33.600  26.115  13.856
 7876W        W80169  26.093  31.534  12.422
 7877W        W80170  19.087   0.356  14.291
 7878W        W80171  26.565  11.244   4.826
 7879W        W80172  42.388  41.793   3.784
 7880W        W80173  12.323   2.351   1.371
 7881W        W80174   7.905  28.131   0.768
 7882W        W80175  13.640   6.796  14.772
 7883W        W80176  29.987  17.662  13.444
 7884W        W80177   8.392  25.676  14.772
 7885W        W80178  13.289  24.092   0.932
 7886W        W80179  28.124  42.915  14.474
 7887W        W80180   1.903  20.639   0.854
 7888W        W80181   1.483  24.663  13.513
 7889W        W80182  12.679  16.761  11.021
 7890W        W80183   6.708  36.566  14.433
 7891W        W80184  24.223  29.062   4.789
 7892W        W80185  26.050   8.354  14.514
 7893W        W80186  23.666   2.936  12.936
 7894W        W80187  13.822  37.531   4.172
 7895W        W80188  12.708  30.158  10.468
 7896W        W80189  12.626   2.782  12.092
 7897W        W80190  33.428   2.756  14.448
 7898W        W80191  38.971  19.711   4.350
 7899W        W80192  21.651  15.616   4.725
 7900W        W80193  34.898  37.496   4.252
 7901W        W80194  29.476  20.236   3.787
 7902W        W80195  12.276  21.082  11.891
 7903W        W80196  36.578   5.251  14.893
 7904W        W80197  10.166   4.442  14.905
 7905W        W80198  16.231  16.757   3.664
 7906W        W80199  27.169   1.915  10.468
 7907W        W80200   9.322  15.758   2.786
 7908W        W80201  27.108  19.761   3.649
 7909W        W80202  20.067  29.072   0.955
 7910W        W80203   5.348  26.588   0.847
 7911W        W80204  20.675  17.610   3.685
 7912W        W80205  23.656  28.480   0.298
 7913W        W80206  26.078  21.579   0.914
 7914W        W80207  41.990  40.914  13.388
 7915W        W80208  10.672  38.421   3.276
 7916W        W80209   1.763  13.140  11.947
 7917W        W80210  37.540  37.870   4.300
 7918W        W80211  14.314  33.509  14.978
 7919W        W80212  17.269  11.791  13.913
 7920W        W80213  16.795   8.773  12.000
 7921W        W80214  37.925  16.787  14.846
 7922W        W80215   0.980   4.439   3.230
 7923W        W80216   7.710   6.395  11.869
 7924W        W80217  37.036  32.618   0.448
 7925W        W80218  14.098   3.423   0.376
 7926W        W80219   2.874  44.263   0.757
 7927W        W80220  31.976  40.895   1.781
 7928W        W80221  39.921  41.808   1.289
 7929W        W80222  28.024  25.980   0.419
 7930W        W80223  32.542  44.406  14.775
 7931W        W80224  32.393  41.292  14.344
 7932W        W80225  38.026  15.780  12.539
 7933W        W80226  32.962  10.140  11.039
 7934W        W80227   9.854  20.589   0.365
 7935W        W80228  22.664  13.712   2.841
 7936W        W80229   9.247  16.261  11.476
 7937W        W80230  42.856  36.969  12.831
 7938W        W80231  21.084  25.670   2.676
 7939W        W80232  26.523  44.452  10.618
 7940W        W80233  25.169  37.932  12.942
 7941W        W80234  40.801   0.385   2.755
 7942W        W80235  42.482  13.235  12.452
 7943W        W80236  14.253  37.852  13.927
 7944W        W80237  27.545  30.977   0.944
 7945W        W80238  42.957  24.578  10.455
 7946W        W80239   9.204  42.886  14.450
 7947W        W80240  11.146  36.899  10.932
 7948W        W80241  40.437  43.515  12.542
 7949W        W80242   5.245   3.816  12.542
 7950W        W80243  38.854   9.650   4.281
 7951W        W80244   9.231  28.681  11.058
 7952W        W80245  10.692  17.575  11.050
 7953W        W80246   7.401  37.442   1.847
 7954W        W80247   1.247  18.118  10.425
 7955W        W80248  40.900  42.964   0.930
 7956W        W80249  24.137   4.875  12.439
 7957W        W80250  16.118  28.477   3.674
 7958W        W80251  25.560  15.292  13.009
 7959W        W80252  10.732   9.378   0.779
 7960W        W80253  27.531  28.158  13.985
 7961W        W80254  17.642  18.051  14.929
 7962W        W80255  41.332   0.808  14.972
 7963W        W80256   2.742  28.944   4.764
 7964W        W80257  37.869   2.410  13.321
 7965W        W80258  10.697  39.930  13.880
 7966W        W80259   4.327  35.022   3.292
 7967W        W80260   3.766  23.076   2.874
 7968W        W80261  15.136  33.512   3.681
 7969W        W80262   6.182  40.349  14.355
 7970W        W80263   8.754  22.664   2.691
 7971W        W80264   0.984  32.442  11.443
 7972W        W80265  19.231   8.386  11.068
 7973W        W80266  44.821  28.650   2.316
 7974W        W80267  16.700  17.634   3.340
 7975W        W80268  28.569  21.074  14.501
 7976W        W80269  25.966  14.218  14.359
 7977W        W80270   7.894  32.509   3.308
 7978W        W80271  33.994  12.679   2.761
 7979W        W80272  12.278  32.418   4.265
 7980W        W80273   2.360  28.030   3.381
 7981W        W80274  43.499  18.157  12.080
 7982W        W80275  34.892  31.983  12.834
 7983W        W80276   8.364   4.780  14.283
 7984W        W80277  39.055   2.376  11.044
 7985W        W80278   5.687  31.079   0.316
 7986W        W80279  38.872  21.106  14.367
 7987W        W80280  38.413   6.237   4.207
 7988W        W80281  39.887   1.282   1.830
 7989W        W80282   7.356  27.124  12.855
 7990W        W80283  26.094  30.135   4.603
 7991W        W80284   2.907  18.148  10.642
 7992W        W80285   4.333  11.808  14.867
 7993W        W80286  10.292  15.163  12.342
 7994W        W80287  32.116   7.171   2.331
 7995W        W80288   9.253  43.486   2.339
 7996W        W80289  35.472  37.064   3.151
 7997W        W80290  36.851  15.137   1.741
 7998W        W80291   0.274  23.219   0.268
 7999W        W80292  30.657   4.412  14.882
 8000W        W80293  34.406  19.742  10.985
 8001W        W80294  28.080  39.499   3.653
 8002W        W80295   3.749  34.599  13.842
 8003W        W80296  14.809  22.596   1.297
 8004W        W80297  31.904   9.714  12.418
 8005W        W80298   9.859  23.622  10.489
 8006W        W80299  12.320  15.658  13.517
 8007W        W80300   6.766  29.468  14.455
 8008W        W80301  22.622  35.374   3.370
 8009W        W80302  13.318  31.955  14.340
 8010W        W80303  39.409  36.350   3.699
 8011W        W80304  38.502  26.667   0.728
 8012W        W80305   7.288  26.645  12.445
 8013W        W80306  18.126  37.849  11.429
 8014W        W80307  35.567  17.127  11.014
 8015W        W80308   7.233  31.064   3.363
 8016W        W80309  38.570  34.483  13.806
 8017W        W80310  40.986  18.172   5.317
 8018W        W80311  21.145  33.426  13.995
 8019W        W80312  22.523  42.926  12.517
 8020W        W80313  19.215  36.444   0.381
 8021W        W80314   0.826  20.550  14.468
 8022W        W80315  33.917  26.515  11.113
 8023W        W80316  11.349  31.912   2.409
 8024W        W80317  23.105  33.596  13.441
 8025W        W80318   6.762   6.802  13.802
 8026W        W80319  32.966  21.539  13.320
 8027W        W80320  14.588  40.972  14.508
 8028W        W80321  24.509  39.930  13.540
 8029W        W80322  26.057  22.167   1.751
 8030W        W80323  27.584  24.116   9.938
 8031W        W80324  44.855   0.912   2.823
 8032W        W80325  29.609   6.323  12.433
 8033W        W80326   5.818  27.532  12.451
 8034W        W80327  22.583  23.622   2.236
 8035W        W80328   3.735  44.824   2.887
 8036W        W80329  27.551  26.595   2.200
 8037W        W80330   6.825  29.935   3.320
 8038W        W80331  19.656  14.321  10.525
 8039W        W80332   2.786  44.447  10.457
 8040W        W80333  30.475  24.629  12.881
 8041W        W80334  44.924  40.352   1.344
 8042W        W80335  14.270   6.184   2.778
 8043W        W80336  17.286  23.118  11.120
 8044W        W80337  24.073  41.331   0.760
 8045W        W80338  12.816  36.935   3.742
 8046W        W80339  29.589  24.993  14.302
 8047W        W80340  26.108  19.161  13.889
 8048W        W80341  13.718   7.771  11.559
 8049W        W80342  23.599   7.323   4.733
 8050W        W80343  16.199   5.923   0.311
 8051W        W80344   5.816   1.940  11.007
 8052W        W80345  34.981  24.193   0.425
 8053W        W80346  34.468  30.453  11.475
 8054W        W80347  20.534   0.911   2.752
 8055W        W80348  32.519  10.689   9.526
 8056W        W80349  21.073  22.714  12.961
 8057W        W80350  29.927   9.662  14.848
 8058W        W80351   1.950  42.316  11.428
 8059W        W80352   8.208  38.400   4.802
 8060W        W80353  29.547  24.693  13.419
 8061W        W80354  29.515  17.713  12.890
 8062W        W80355  35.526  16.222   3.364
 8063W        W80356  40.415  30.462  10.982
 8064W        W80357  33.603  26.043   0.843
 8065W        W80358  10.230  13.795  14.289
 8066W        W80359  17.164  41.472  14.873
 8067W        W80360  38.057  21.129  11.054
 8068W        W80361   5.249  17.793  11.023
 8069W        W80362  30.133  29.038  11.048
 8070W        W80363  10.664  39.918  11.408
 8071W        W80364  29.467  25.161   2.180
 8072W        W80365  18.250   2.741   1.353
 8073W        W80366  10.704  11.633   1.724
 8074W        W80367  41.993  37.930  11.887
 8075W        W80368  28.532   8.223  14.765
 8076W        W80369  39.469  18.619  12.512
 8077W        W80370  32.029  28.080   2.696
 8078W        W80371  27.469  10.858   0.409
 8079W        W80372  17.109  14.239   2.257
 8080W        W80373   5.736  12.817  12.423
 8081W        W80374  25.536  30.076  10.959
 8082W        W80375  41.435  35.500   2.353
 8083W        W80376  34.108  40.413  11.075
 8084W        W80377  14.756   0.467   4.154
 8085W        W80378  24.665   6.760   4.141
 8086W        W80379  17.062  41.830  12.075
 8087W        W80380  20.084  19.250   1.898
 8088W        W80381  19.654  39.915  14.942
 8089W        W80382   9.353   9.270  13.017
 8090W        W80383  13.688  44.970  14.329
 8091W        W80384  31.100  19.055  11.898
 8092W        W80385  29.535  26.584  14.888
 8093W        W80386  28.173   9.373  14.031
 8094W        W80387  21.096  32.982  13.336
 8095W        W80388  28.063   4.760   0.316
 8096W        W80389  15.105  11.279   1.260
 8097W        W80390  35.478  40.444   2.184
 8098W        W80391  33.601  40.051  10.443
 8099W        W80392  16.604  37.503  14.942
 8100W        W80393  11.177  21.129  13.464
 8101W        W80394  16.724   4.778   2.665
 8102W        W80395  29.050  27.183  11.981
 8103W        W80396  25.468  38.966  10.434
 8104W        W80397   6.766   9.701   1.236
 8105W        W80398  20.660  16.764   3.860
 8106W        W80399  36.023  37.510   0.374
 8107W        W80400  21.670  21.217  11.865
 8108W        W80401  16.774  35.995   3.158
 8109W        W80402  44.834  17.627  11.094
 8110W        W80403   0.981   4.750   3.300
 8111W        W80404  32.994  43.914   3.313
 8112W        W80405  41.514   9.282  13.883
 8113W        W80406  43.810  17.582   4.808
 8114W        W80407  43.493  36.065  13.325
 8115W        W80408  22.192  43.997  14.438
 8116W        W80409   9.299  19.219  10.447
 8117W        W80410  24.991  23.588   0.854
 8118W        W80411  25.586  34.418  13.853
 8119W        W80412  34.966  40.322  11.003
 8120W        W80413  32.994   8.818  14.931
 8121W        W80414  25.508   5.278  11.501
 8122W        W80415  24.582   8.295  13.986
 8123W        W80416  28.013   0.764  12.881
 8124W        W80417  39.353   1.384   3.808
 8125W        W80418  23.666  35.582   4.639
 8126W        W80419  17.774  23.192   1.797
 8127W        W80420  30.983  15.309  12.053
 8128W        W80421  16.095  37.000   3.175
 8129W        W80422  20.139  41.512   4.796
 8130W        W80423  37.503  28.047  13.542
 8131W        W80424   0.475  26.659   0.446
 8132W        W80425  44.967  13.229  14.475
 8133W        W80426  23.601  10.833   4.646
 8134W        W80427  11.235  40.961   0.384
 8135W        W80428  36.520  40.304  14.950
 8136W        W80429  40.457  36.526   4.344
 8137W        W80430  19.551  44.321   0.242
 8138W        W80431  40.834  32.624   1.301
 8139W        W80432  36.517  17.189  14.277
 8140W        W80433  38.868  40.026   9.965
 8141W        W80434  35.958  24.987  14.439
 8142W        W80435  23.111  18.105  12.849
 8143W        W80436   1.976  20.168   0.244
 8144W        W80437  38.563  11.836  11.119
 8145W        W80438  12.658  24.984   4.617
 8146W        W80439  38.386  17.663  10.905
 8147W        W80440  16.312   9.704  13.880
 8148W        W80441   2.286   1.818   2.320
 8149W        W80442  30.634  23.618   2.874
 8150W        W80443  40.454   5.342  13.465
 8151W        W80444  29.519  37.357   3.669
 8152W        W80445  27.077  21.671   2.730
 8153W        W80446   6.185   5.774   3.750
 8154W        W80447  12.360   0.808  12.879
 8155W        W80448  19.161   5.719  10.531
 8156W        W80449  29.617  23.988  14.416
 8157W        W80450  19.667  17.612  10.920
 8158W        W80451  35.881  19.042  10.469
 8159W        W80452   3.259  18.553   2.394
 8160W        W80453  14.261  13.150  10.631
 8161W        W80454  44.856   1.361  10.951
 8162W        W80455  31.900   9.226  14.430
 8163W        W80456   9.691  37.973   2.366
 8164W        W80457  41.914  23.505  13.960
 8165W        W80458  41.325  28.554   4.753
 8166W        W80459  32.499   6.741   1.386
 8167W        W80460   4.283   1.270  12.570
 8168W        W80461  26.675  37.850  12.900
 8169W        W80462  15.099  42.906   3.834
 8170W        W80463  25.968  17.569  12.386
 8171W        W80464  43.007  40.371  11.114
 8172W        W80465  28.165   6.914  10.026
 8173W        W80466  13.326  41.373   2.778
 8174W        W80467  20.173  31.104  11.413
 8175W        W80468  26.098  22.194  14.310
 8176W        W80469  25.591   4.796  13.946
 8177W        W80470  22.588  12.825  10.034
 8178W        W80471  16.793   8.739  10.588
 8179W        W80472  13.810  16.756   0.266
 8180W        W80473  17.705   1.829   3.302
 8181W        W80474   7.182  27.472  12.534
 8182W        W80475  13.308   3.299  10.614
 8183W        W80476   6.258  31.633  14.922
 8184W        W80477   9.170  22.633   0.401
 8185W        W80478  39.835  32.432   3.363
 8186W        W80479  26.020   0.958   4.769
 8187W        W80480  21.038  27.963   3.176
 8188W        W80481  37.494  44.792  10.630
 8189W        W80482  38.926   1.382  12.525
 8190W        W80483  29.571  40.468  12.351
 8191W        W80484  36.561   1.768  10.433
 8192W        W80485  41.037  23.062   2.855
 8193W        W80486  37.903  37.427   2.826
 8194W        W80487  23.193   1.756  11.419
 8195W        W80488   8.256  34.482   2.722
 8196W        W80489  39.541   4.807  13.792
 8197W        W80490  11.156  17.653   2.229
 8198W        W80491   5.735  37.052  13.491
 8199W        W80492   2.241  15.212  12.903
 8200W        W80493   6.770  29.171   2.300
 8201W        W80494   4.446  26.504  12.963
 8202W        W80495  15.675  12.783   0.820
 8203W        W80496  21.746   6.718   4.688
 8204W        W80497  10.364  30.488   0.824
 8205W        W80498  15.663  40.547   1.276
 8206W        W80499   7.731  17.606  10.965
 8207W        W80500  43.485   4.923   3.759
 8208W        W80501  25.691  34.916   1.220
 8209W        W80502   1.258  15.204  13.321
 8210W        W80503  42.370  19.580   2.891
 8211W        W80504  15.270  44.493  12.350
 8212W        W80505  35.099   0.315  14.495
 8213W        W80506  10.376   1.740  13.922
 8214W        W80507  23.722  40.798  12.922
 8215W        W80508   9.373  37.581  11.983
 8216W        W80509  18.714   0.259   3.300
 8217W        W80510  21.698  41.858  14.817
 8218W        W80511  31.021   7.205  10.984
 8219W        W80512  19.244  24.670  12.871
 8220W        W80513  11.683  16.685  12.417
 8221W        W80514  36.510  30.500  12.985
 8222W        W80515  10.873  37.420   0.429
 8223W        W80516  25.124   9.300  11.457
 8224W        W80517   7.360  39.062  12.006
 8225W        W80518  44.990  31.647   4.691
 8226W        W80519  34.010  15.119  10.518
 8227W        W80520  12.796  16.259  11.585
 8228W        W80521  11.155  43.920  12.007
 8229W        W80522  13.653  20.265  12.835
 8230W        W80523  36.395  39.390   2.200
 8231W        W80524  10.670  30.557   4.156
 8232W        W80525  12.737  26.472  10.957
 8233W        W80526   0.472  42.379  14.395
 8234W        W80527  43.971  12.666   2.406
 8235W        W80528  16.772  10.252  10.456
 8236W        W80529   0.444  12.289   0.480
 8237W        W80530  16.672  12.286   3.317
 8238W        W80531  28.043  28.035   1.286
 8239W        W80532  44.891  20.626  11.564
 8240W        W80533  18.108  33.397  14.340
 8241W        W80534   3.431  14.622   2.820
 8242W        W80535  20.189   2.298   2.734
 8243W        W80536  40.477   8.852  11.606
 8244W        W80537  13.134  44.297  10.611
 8245W        W80538  13.281  16.297   0.749
 8246W        W80539  29.919   2.810   2.662
 8247W        W80540  40.870  13.240   0.423
 8248W        W80541  11.749  34.559   2.881
 8249W        W80542  35.553  34.072   4.117
 8250W        W80543  15.761   2.342  12.344
 8251W        W80544  36.926  28.936   4.683
 8252W        W80545  22.592  36.085  10.623
 8253W        W80546   0.317  21.641   0.353
 8254W        W80547  10.233  37.041   3.674
 8255W        W80548  22.011  39.833  13.490
 8256W        W80549  32.961  28.645  13.516
 8257W        W80550  19.720  32.067  12.526
 8258W        W80551  19.750  40.910  14.403
 8259W        W80552   7.338  43.423  12.985
 8260W        W80553  33.551  13.281  12.916
 8261W        W80554  27.038  20.118   4.743
 8262W        W80555  20.587   3.414   0.332
 8263W        W80556  42.942  32.135  12.569
 8264W        W80557  44.379  23.240  10.574
 8265W        W80558   0.249  27.090   1.819
 8266W        W80559  34.481  13.137  12.908
 8267W        W80560   1.805  40.482   3.365
 8268W        W80561  26.150  10.258   2.196
 8269W        W80562   1.425  31.960  11.540
 8270W        W80563  13.738  29.060   3.808
 8271W        W80564  22.527   2.436  14.514
 8272W        W80565  34.374   3.796   0.248
 8273W        W80566  23.056  38.003   3.352
 8274W        W80567   3.796  28.483   4.190
 8275W        W80568  40.859  21.121  14.795
 8276W        W80569  30.582  18.725  12.441
 8277W        W80570  27.948  24.565   2.236
 8278W        W80571  43.411  36.017   2.295
 8279W        W80572   3.301  31.426  13.904
 8280W        W80573  24.583  36.853  11.602
 8281W        W80574  14.618   5.420   4.185
 8282W        W80575   8.356  24.560  11.531
 8283W        W80576  34.864  16.790  12.848
 8284W        W80577  44.439   0.839  12.850
 8285W        W80578  14.790  30.143  13.864
 8286W        W80579  14.254   8.399  12.943
 8287W        W80580  27.019  22.146  14.857
 8288W        W80581  31.443   8.215   2.200
 8289W        W80582  42.318  23.712   3.714
 8290W        W80583  17.688  19.557   4.257
 8291W        W80584  13.144  17.703  12.899
 8292W        W80585  32.141  39.928   2.680
 8293W        W80586  19.268   6.814   3.684
 8294W        W80587  12.746  29.162  11.950
 8295W        W80588  21.525   7.355   4.658
 8296W        W80589  23.050   0.288   3.766
 8297W        W80590  44.977  20.038   1.718
 8298W        W80591  30.925  21.182   5.187
 8299W        W80592  36.090  35.074   3.203
 8300W        W80593  20.662   4.902  11.047
 8301W        W80594  29.174  22.660  10.416
 8302W        W80595  28.495  23.496   1.782
 8303W        W80596  16.721  36.414   2.676
 8304W        W80597   6.300  41.380  12.955
 8305W        W80598  42.954  43.430  11.559
 8306W        W80599   5.281  15.084  12.908
 8307W        W80600  26.014  13.229  13.381
 8308W        W80601  35.581  39.470   3.370
 8309W        W80602  42.342  10.793  12.062
 8310W        W80603  25.471  34.470  11.397
 8311W        W80604   9.770  18.746  13.974
 8312W        W80605  20.049  11.174  11.068
 8313W        W80606  11.286  26.563  12.851
 8314W        W80607  19.768  38.455   1.740
 8315W        W80608  25.046  16.085   3.263
 8316W        W80609  42.454  44.893  13.534
 8317W        W80610  34.462  14.145   1.215
 8318W        W80611   0.867  11.797   1.356
 8319W        W80612  20.199  33.909   5.778
 8320W        W80613  19.062   8.170  10.537
 8321W        W80614   7.262  23.616  14.331
 8322W        W80615   0.258   2.246  13.538
 8323W        W80616  11.372  33.032  13.396
 8324W        W80617   7.893   3.839   2.840
 8325W        W80618   7.753   3.774  12.499
 8326W        W80619   2.359  41.892   4.306
 8327W        W80620  39.883   2.373  12.001
 8328W        W80621  31.032   2.317   1.881
 8329W        W80622  19.182   8.785  14.404
 8330W        W80623  28.530  17.072   0.463
 8331W        W80624  29.109  40.012  14.031
 8332W        W80625  42.998  39.315  11.865
 8333W        W80626  19.129  23.062   5.161
 8334W        W80627   8.690  37.063  13.021
 8335W        W80628  10.871  31.011  13.012
 8336W        W80629  43.472  33.980  14.435
 8337W        W80630   4.254  29.107   0.743
 8338W        W80631  20.100  34.601  13.458
 8339W        W80632  33.466  20.591   4.283
 8340W        W80633  29.122  12.121  10.490
 8341W        W80634   4.240  14.128  12.912
 8342W        W80635   0.959  21.173  11.560
 8343W        W80636  15.725  19.770   2.854
 8344W        W80637  28.675  22.544   3.249
 8345W        W80638   7.246  39.816   1.227
 8346W        W80639  23.990  16.256   0.929
 8347W        W80640  42.287  37.363  13.374
 8348W        W80641   0.379  25.651   0.735
 8349W        W80642   7.225  43.397   2.862
 8350W        W80643  37.008  17.639  14.931
 8351W        W80644   7.342  10.716   1.333
 8352W        W80645   7.785  27.552  14.334
 8353W        W80646  18.657  40.902  13.491
 8354W        W80647  44.472  19.053   5.174
 8355W        W80648   2.367  12.739   0.361
 8356W        W80649  10.745  38.568   2.369
 8357W        W80650  21.755  27.683  13.954
 8358W        W80651  29.093  35.385  13.922
 8359W        W80652  27.004  26.578   0.462
 8360W        W80653  17.779   8.386   1.829
 8361W        W80654  33.069  29.070   2.202
 8362W        W80655  32.528  20.701  13.402
 8363W        W80656  29.923  12.159  11.414
 8364W        W80657  18.704  40.021  13.985
 8365W        W80658  19.112  17.101  13.859
 8366W        W80659  35.916  17.671  11.076
 8367W        W80660  23.048  14.268  14.769
 8368W        W80661  11.828  12.265  10.980
 8369W        W80662  27.603  18.608   3.798
 8370W        W80663  32.496   9.376  11.514
 8371W        W80664  11.634   2.793   1.437
 8372W        W80665  20.586  15.152   3.744
 8373W        W80666  42.315  29.976  10.505
 8374W        W80667  35.539   2.431   1.284
 8375W        W80668   5.754  35.885   1.275
 8376W        W80669  37.466   8.240   2.884
 8377W        W80670  11.144  20.271  14.376
 8378W        W80671   7.739  30.500   0.374
 8379W        W80672   6.765   2.397   0.908
 8380W        W80673  27.052  30.420  10.473
 8381W        W80674  15.584  40.509  13.813
 8382W        W80675  14.723  28.952  13.855
 8383W        W80676   6.902  31.974   3.852
 8384W        W80677   6.700  37.887  14.832
 8385W        W80678  21.077  23.651   5.122
 8386W        W80679  22.031  44.944   0.359
 8387W        W80680   4.795   3.452  14.003
 8388W        W80681  20.738  15.750  11.434
 8389W        W80682  34.543  27.153  14.393
 8390W        W80683  38.067  18.122   3.833
 8391W        W80684  24.191   6.258   4.266
 8392W        W80685   5.395  37.357   0.480
 8393W        W80686   3.712   6.825  12.902
 8394W        W80687  14.150  36.080  12.929
 8395W        W80688  20.148  22.711   1.707
 8396W        W80689  36.502  26.979  12.020
 8397W        W80690  13.159  11.684  10.553
 8398W        W80691  30.584  23.624   3.767
 8399W        W80692   1.944  31.083   2.338
 8400W        W80693  20.720  25.655  13.348
 8401W        W80694  14.682  10.166   1.873
 8402W        W80695  29.479  27.990  13.037
 8403W        W80696  32.081  15.583  11.536
 8404W        W80697  26.019  35.485   3.378
 8405W        W80698  23.628  23.701  11.508
 8406W        W80699   7.238  13.173   3.243
 8407W        W80700  21.704  35.889   2.888
 8408W        W80701  18.284  25.203   4.833
 8409W        W80702  17.669  42.298  10.435
 8410W        W80703   5.402  34.019   2.732
 8411W        W80704  25.090  42.389   1.912
 8412W        W80705   0.307  32.916  13.401
 8413W        W80706   4.853   3.224   1.317
 8414W        W80707  40.356  26.683   3.288
 8415W        W80708  28.514  44.284  12.343
 8416W        W80709  32.565  20.610   1.268
 8417W        W80710  31.115  21.671  12.840
 8418W        W80711  31.534   1.481   0.274
 8419W        W80712  11.745  37.505  13.448
 8420W        W80713   7.382  42.441   4.238
 8421W        W80714  19.670   2.347  13.496
 8422W        W80715   0.885   5.289   4.275
 8423W        W80716  26.579  31.562   3.268
 8424W        W80717  24.538  31.421   0.341
 8425W        W80718  18.707  30.069   4.599
 8426W        W80719  16.081  43.394  13.007
 8427W        W80720   9.253  13.147  11.482
 8428W        W80721  39.845  42.025  11.499
 8429W        W80722  27.671  31.070  14.980
 8430W        W80723  31.638  34.474   4.300
 8431W        W80724  25.708  44.949  11.532
 8432W        W80725  22.527   8.714  14.327
 8433W        W80726  40.304  44.806   2.378
 8434W        W80727   4.400   4.449   1.308
 8435W        W80728  26.021   2.787  12.463
 8436W        W80729  10.670  19.776  12.524
 8437W        W80730   3.366  22.215  13.424
 8438W        W80731  44.943  21.207  12.401
 8439W        W80732  39.843   9.330   1.431
 8440W        W80733  24.118  14.827  12.458
 8441W        W80734  17.641  15.122   2.357
 8442W        W80735  39.403  16.660  12.339
 8443W        W80736  38.499  27.114   4.163
 8444W        W80737   3.458  22.053  11.606
 8445W        W80738   4.893  30.124  10.495
 8446W        W80739  42.418  36.543  14.310
 8447W        W80740  43.438  27.176   2.694
 8448W        W80741   6.878  43.383   1.417
 8449W        W80742  44.335  43.384  11.916
 8450W        W80743  24.502  13.106  11.121
 8451W        W80744  37.029  37.450   3.223
 8452W        W80745  34.403   9.770  13.946
 8453W        W80746   1.405   4.913  14.445
 8454W        W80747  14.615  22.236   3.197
 8455W        W80748  39.505  42.333  12.549
 8456W        W80749  43.991  26.663   2.185
 8457W        W80750  40.025   4.450  10.989
 8458W        W80751   1.925  20.163  12.415
 8459W        W80752  31.534  17.282  10.413
 8460W        W80753   8.301  41.854   4.239
 8461W        W80754  18.700  31.545  14.282
 8462W        W80755  17.642  44.837   4.837
 8463W        W80756  43.423  14.756  13.479
 8464W        W80757  43.993  20.758  14.761
 8465W        W80758  26.132  24.192  11.990
 8466W        W80759   3.440  44.757  14.319
 8467W        W80760  37.545   8.349  10.414
 8468W        W80761  35.358   3.823   2.685
 8469W        W80762  15.139  44.459   2.689
 8470W        W80763   8.171  36.949   5.742
 8471W        W80764  40.047   8.772  14.888
 8472W        W80765   2.870   6.883   4.768
 8473W        W80766   3.912  19.256  14.452
 8474W        W80767   2.846  32.016  14.295
 8475W        W80768   0.309  33.949   1.815
 8476W        W80769  40.323  11.756   3.368
 8477W        W80770  27.471  18.669  14.892
 8478W        W80771   2.277  44.322   3.284
 8479W        W80772   8.667  31.095   0.765
 8480W        W80773  10.785  21.562   0.422
 8481W        W80774  37.444   3.955   4.127
 8482W        W80775  24.218  15.582   4.832
 8483W        W80776  21.528  32.021   0.247
 8484W        W80777  16.713  11.229   4.165
 8485W        W80778   3.363  37.501  12.361
 8486W        W80779  32.087  19.279   1.828
 8487W        W80780  20.063  18.688   4.188
 8488W        W80781  20.589  35.046  10.410
 8489W        W80782  33.932  18.232  11.096
 8490W        W80783  26.556  15.319   0.810
 8491W        W80784   1.444  12.627   4.347
 8492W        W80785  39.314  12.707   0.256
 8493W        W80786  21.591  11.716   1.757
 8494W        W80787   7.895   4.908   0.926
 8495W        W80788   7.753  36.520  13.814
 8496W        W80789  25.634  28.098   3.370
 8497W        W80790  12.249  14.747   3.168
 8498W        W80791  29.116  22.630   4.806
 8499W        W80792  20.071  35.905  10.421
 8500W        W80793  26.019  39.811   4.140
 8501W        W80794  11.213  23.148   3.656
 8502W        W80795  25.547  10.818  13.543
 8503W        W80796  24.719  19.738   3.295
 8504W        W80797  26.178  44.260  13.036
 8505W        W80798  28.016  23.134  13.793
 8506W        W80799  22.048  10.855  14.281
 8507W        W80800  44.413  12.196   1.384
 8508W        W80801   3.782  19.682  11.949
 8509W        W80802   7.685   2.812  13.940
 8510W        W80803  12.264  39.015   3.681
 8511W        W80804  29.130  32.589   1.768
 8512W        W80805  18.575  10.856   1.728
 8513W        W80806  41.478  11.855  11.007
 8514W        W80807  22.166   7.746   1.824
 8515W        W80808   5.344  19.203   2.355
 8516W        W80809  15.666  12.309   0.857
 8517W        W80810  31.945  31.131   4.151
 8518W        W80811  35.406  11.347   0.478
 8519W        W80812  36.366  42.010  14.311
 8520W        W80813   2.426  44.294  14.785
 8521W        W80814  43.977  23.562   1.759
 8522W        W80815   9.154  11.210  12.940
 8523W        W80816  10.152   0.914   4.805
 8524W        W80817  37.890  21.035  12.518
 8525W        W80818  29.430  36.011   2.793
 8526W        W80819  33.041  43.304   2.194
 8527W        W80820  12.286  13.151  13.439
 8528W        W80821  29.986  17.288   3.717
 8529W        W80822  36.511  42.485  13.531
 8530W        W80823  17.602  22.046  11.494
 8531W        W80824  15.158  33.397  14.947
 8532W        W80825  17.721  17.121  10.982
 8533W        W80826  39.433  36.068   1.317
 8534W        W80827   1.347  17.239  11.555
 8535W        W80828  28.134  35.027   1.715
 8536W        W80829  13.162   0.781  10.100
 8537W        W80830  18.665  13.168   1.785
 8538W        W80831  44.331  26.616  12.340
 8539W        W80832  26.137  30.164  12.066
 8540W        W80833   4.443  43.004  14.916
 8541W        W80834   1.402  42.905  12.362
 8542W        W80835   1.945  35.558  11.447
 8543W        W80836  32.396  39.380   4.205
 8544W        W80837  12.831  24.226  13.036
 8545W        W80838  22.093  29.041   3.313
 8546W        W80839  31.423  19.717   3.719
 8547W        W80840  13.770  11.814   1.401
 8548W        W80841  34.063  18.159  13.828
 8549W        W80842   2.777  22.642  11.595
 8550W        W80843  30.654  10.792   1.853
 8551W        W80844  12.804  21.704   4.804
 8552W        W80845  22.703   2.258  13.962
 8553W        W80846   7.290  30.651   3.215
 8554W        W80847   3.429  21.707  13.941
 8555W        W80848  14.147   5.704   4.824
 8556W        W80849   1.828  44.883   1.395
 8557W        W80850  27.095  42.351  13.407
 8558W        W80851   9.868  42.441  11.518
 8559W        W80852  36.035  11.352  13.352
 8560W        W80853  22.737   5.288   1.391
 8561W        W80854   4.768  28.625  14.905
 8562W        W80855  29.604  31.508   3.720
 8563W        W80856  42.843  17.762   4.812
 8564W        W80857  25.097  22.152   2.733
 8565W        W80858  37.430  36.845   0.321
 8566W        W80859  26.114  19.281   2.319
 8567W        W80860  23.093  14.652  14.826
 8568W        W80861  17.715  15.106   0.786
 8569W        W80862  30.946  14.605   0.450
 8570W        W80863  25.013  20.641   9.942
 8571W        W80864   3.747  12.314  12.919
 8572W        W80865   9.715  43.880   3.815
 8573W        W80866  11.668   2.294   2.903
 8574W        W80867  41.908  35.003   1.927
 8575W        W80868  31.031  34.013   4.775
 8576W        W80869  18.751  17.120   3.192
 8577W        W80870   9.259  33.456   4.331
 8578W        W80871  13.254  15.591   0.823
 8579W        W80872  43.306  40.527  10.891
 8580W        W80873  29.453  21.023   0.749
 8581W        W80874  16.092   9.293  12.476
 8582W        W80875   3.934  38.351   3.695
 8583W        W80876   0.783  19.583   1.358
 8584W        W80877  31.988   4.364   0.927
 8585W        W80878  44.905  14.607   4.250
 8586W        W80879  16.780  37.888   3.306
 8587W        W80880  13.827  43.963   3.648
 8588W        W80881   3.376  13.617  14.820
 8589W        W80882  31.634  43.305  11.373
 8590W        W80883  11.777  29.585   5.238
 8591W        W80884  15.790  44.327   4.757
 8592W        W80885  25.681   2.825   1.818
 8593W        W80886  28.641   6.211   1.381
 8594W        W80887  42.002  33.463   1.308
 8595W        W80888  24.526  33.391  14.388
 8596W        W80889  28.972  23.233   4.126
 8597W        W80890  16.766  34.559  13.391
 8598W        W80891   1.470  44.837  14.848
 8599W        W80892  13.634  19.747   3.268
 8600W        W80893  21.578  35.526   3.762
 8601W        W80894  11.305  28.557  14.511
 8602W        W80895  44.426  33.941  11.491
 8603W        W80896  40.876   2.938   1.332
 8604W        W80897  23.489   6.689  11.483
 8605W        W80898  34.065  36.412   0.334
 8606W        W80899  32.141  24.165   1.783
 8607W        W80900  41.476  20.584  11.948
 8608W        W80901  20.685   2.232   4.201
 8609W        W80902  33.419  27.692  13.843
 8610W        W80903  43.940   0.984  14.513
 8611W        W80904  22.629  27.636  11.907
 8612W        W80905  17.225  22.506   3.293
 8613W        W80906  26.528  18.288  13.815
 8614W        W80907   8.734  35.082   3.190
 8615W        W80908  28.954  39.529   0.453
 8616W        W80909  31.641  26.972   3.785
 8617W        W80910   7.326  29.995   4.237
 8618W        W80911  25.066  10.746  13.498
 8619W        W80912  32.931  40.020  14.786
 8620W        W80913  12.800  23.083  13.844
 8621W        W80914  35.081  10.657   0.322
 8622W        W80915  37.876  11.372   2.184
 8623W        W80916  38.527  12.708  10.990
 8624W        W80917  20.544  20.254  11.565
 8625W        W80918  14.112  33.426   4.639
 8626W        W80919  27.027  24.982   1.874
 8627W        W80920  25.082   5.878  11.542
 8628W        W80921  25.517   2.472   3.184
 8629W        W80922   6.248   2.745   1.925
 8630W        W80923  13.119  10.716  13.023
 8631W        W80924  19.159  12.291  10.481
 8632W        W80925  17.184  36.582  10.578
 8633W        W80926  22.165  20.632   0.785
 8634W        W80927   3.239  37.387   2.831
 8635W        W80928  24.185   9.750  12.525
 8636W        W80929  15.121  13.234   1.899
 8637W        W80930   7.213  38.449  10.915
 8638W        W80931   5.291  17.199  13.040
 8639W        W80932  44.340  37.353   2.860
 8640W        W80933  28.139  41.024   2.209
 8641W        W80934  14.122  44.472  13.903
 8642W        W80935  30.993  13.657   0.347
 8643W        W80936  44.439  15.169  11.514
 8644W        W80937  38.052  42.781   2.346
 8645W        W80938  42.864   5.244  14.939
 8646W        W80939  37.482  33.484   3.848
 8647W        W80940  36.530  10.655  14.438
 8648W        W80941  27.967  30.988  14.331
 8649W        W80942  22.602  43.431  10.976
 8650W        W80943  42.880  35.940  11.006
 8651W        W80944  29.012  37.368   3.831
 8652W        W80945  41.850  41.791  11.432
 8653W        W80946  18.222  39.999  12.834
 8654W        W80947  11.323  33.435  14.984
 8655W        W80948  13.622  21.595  13.814
 8656W        W80949  37.550  26.483   1.841
 8657W        W80950   6.790  23.107   2.350
 8658W        W80951   4.737  27.454  12.514
 8659W        W80952   9.803  21.553  13.475
 8660W        W80953   6.222  11.290  11.084
 8661W        W80954   2.754  33.560   0.879
 8662W        W80955  29.930  24.212   4.820
 8663W        W80956  35.925   5.894  14.770
 8664W        W80957  12.682  39.379   3.785
 8665W        W80958   9.336  17.687   2.835
 8666W        W80959  27.069  29.060  13.523
 8667W        W80960  14.266  43.362   4.737
 8668W        W80961  33.521  27.591   4.234
 8669W        W80962   4.894  23.516   3.180
 8670W        W80963   5.820   3.913   1.349
 8671W        W80964   5.378  35.998   3.368
 8672W        W80965  28.580  33.926  14.465
 8673W        W80966  43.838  34.941  13.407
 8674W        W80967  11.634   7.797   1.250
 8675W        W80968  24.620  37.035   2.849
 8676W        W80969  21.638   1.322   3.725
 8677W        W80970   3.275  14.708   4.182
 8678W        W80971  21.253  21.253  14.982
 8679W        W80972   2.451  38.355   2.409
 8680W        W80973   7.204  22.194  11.894
 8681W        W80974  37.458  35.904   2.317
 8682W        W80975  35.512  18.578  11.026
 8683W        W80976  18.695  24.106   3.337
 8684W        W80977  31.119  43.427  14.337
 8685W        W80978  29.577  27.670   3.371
 8686W        W80979   2.359  25.650   3.185
 8687W        W80980  15.269   6.822   4.170
 8688W        W80981  28.456  17.726   3.334
 8689W        W80982  20.207   9.809  13.997
 8690W        W80983  16.787  17.590   1.343
 8691W        W80984  36.559  28.128   9.995
 8692W        W80985   2.348   9.743  12.896
 8693W        W80986  26.150  26.501   1.320
 8694W        W80987  18.683  16.788   4.751
 8695W        W80988  19.243  34.046   0.842
 8696W        W80989  11.341   4.358  12.878
 8697W        W80990  29.093  14.186   5.146
 8698W        W80991  35.494   2.753   2.297
 8699W        W80992  16.239  12.643  14.819
 8700W        W80993  40.000  30.532  14.377
 8701W        W80994  26.196   7.847   3.816
 8702W        W80995   2.287  10.811  10.977
 8703W        W80996   9.150  11.210   0.297
 8704W        W80997  33.578   7.786  13.336
 8705W        W80998  32.047   1.289  12.515
 8706W        W80999  41.043   3.737   1.913
 8707W        W81000  38.484  43.963   1.914
 8708W        W81001  14.609  13.318  13.921
 8709W        W81002   9.870  43.982   0.948
 8710W        W81003   5.355  44.323   2.278
 8711W        W81004  37.980  28.952  12.957
 8712W        W81005  26.194  28.616  13.062
 8713W        W81006  39.061  43.772  12.949
 8714W        W81007  23.170  21.669   1.252
 8715W        W81008  15.792  28.640  14.389
 8716W        W81009  43.495  24.670   4.645
 8717W        W81010  21.100   5.828   3.685
 8718W        W81011  35.411  44.767   1.402
 8719W        W81012  27.620  10.784   1.316
 8720W        W81013  13.214  28.542  10.950
 8721W        W81014  21.221  15.679   2.776
 8722W        W81015  12.124  28.037   1.848
 8723W        W81016  30.452   1.892  12.952
 8724W        W81017  17.161  27.951  13.922
 8725W        W81018  12.688  23.132  11.032
 8726W        W81019   8.399  35.899  10.013
 8727W        W81020  11.752  31.567  10.484
 8728W        W81021   6.370  26.156   0.318
 8729W        W81022  32.995  19.203  13.050
 8730W        W81023  11.660   4.424   1.397
 8731W        W81024   8.289   2.414  11.882
 8732W        W81025   3.229   0.890  11.952
 8733W        W81026  25.055  24.608   1.821
 8734W        W81027  30.496  43.422  12.037
 8735W        W81028  12.224  40.386   1.273
 8736W        W81029  23.047  21.664   2.353
 8737W        W81030  32.891  40.973   1.778
 8738W        W81031  12.126  29.023   2.743
 8739W        W81032  32.566  39.461   1.240
 8740W        W81033   0.291  26.031   4.744
 8741W        W81034  43.317  15.207  13.907
 8742W        W81035  17.609   7.908   3.836
 8743W        W81036   7.362  42.480  14.832
 8744W        W81037  12.622   3.761   9.937
 8745W        W81038  10.331  28.040   3.385
 8746W        W81039  17.140  40.394   3.642
 8747W        W81040  17.137  15.730   2.373
 8748W        W81041  21.513   1.391  12.921
 8749W        W81042  11.777  34.027  12.861
 8750W        W81043   0.391   6.890   3.681
 8751W        W81044   5.888  36.379  11.879
 8752W        W81045  30.052   3.879   3.822
 8753W        W81046  15.695  35.463   2.872
 8754W        W81047   6.181  27.569   3.212
 8755W        W81048  14.312  29.097  14.411
 8756W        W81049  36.985  34.082  10.527
 8757W        W81050  11.245  36.495  14.866
 8758W        W81051  28.035   2.817  14.510
 8759W        W81052  33.943  33.618  14.833
 8760W        W81053  27.659  16.231  11.967
 8761W        W81054   8.813   0.894   0.843
 8762W        W81055  19.625  14.739  10.485
 8763W        W81056  21.542  11.189  10.560
 8764W        W81057  12.842  27.984  13.948
 8765W        W81058  16.096  25.473   1.779
 8766W        W81059  37.918  13.152   4.310
 8767W        W81060   7.391  24.532  10.530
 8768W        W81061  21.091  34.932  13.801
 8769W        W81062  20.216  39.031   4.750
 8770W        W81063  43.986   0.348  10.903
 8771W        W81064  28.970  20.673  14.420
 8772W        W81065  29.444  28.032  14.278
 8773W        W81066  32.457  24.072  14.026
 8774W        W81067  35.930   2.468   0.954
 8775W        W81068  35.360  26.966  10.530
 8776W        W81069  23.608  19.212  13.351
 8777W        W81070  34.013  20.593  14.317
 8778W        W81071  18.282  10.297  11.029
 8779W        W81072   0.908  20.742   2.900
 8780W        W81073  14.641  32.056  10.418
 8781W        W81074  38.061  32.949  13.980
 8782W        W81075  41.534   1.875  12.546
 8783W        W81076   0.941  17.771   3.268
 8784W        W81077   4.792  28.149   4.320
 8785W        W81078  16.641   5.243  14.770
 8786W        W81079  44.461  33.127   9.557
 8787W        W81080  32.885   3.919   0.314
 8788W        W81081  20.679  39.968   0.952
 8789W        W81082  29.923  24.158   5.265
 8790W        W81083  10.282  37.340  11.971
 8791W        W81084   8.323  43.958   2.260
 8792W        W81085  38.898  28.077   0.919
 8793W        W81086  32.617   4.218  11.104
 8794W        W81087   4.783  38.017   1.715
 8795W        W81088   3.859  22.061   2.692
 8796W        W81089  37.508  36.978  10.542
 8797W        W81090  24.480  20.230   2.710
 8798W        W81091  44.491  42.860   3.864
 8799W        W81092  22.551   6.747   1.257
 8800W        W81093  22.652  31.511   4.716
 8801W        W81094  11.774  35.992   3.220
 8802W        W81095   4.725  15.712  13.881
 8803W        W81096  39.362  19.571  10.945
 8804W        W81097  39.924  35.102  10.603
 8805W        W81098  26.016  13.277   2.791
 8806W        W81099  13.687  23.202  12.891
 8807W        W81100  38.003   9.676  14.998
 8808W        W81101  39.923  10.288   3.281
 8809W        W81102  16.233  37.906   1.883
 8810W        W81103  13.624  26.631   0.250
 8811W        W81104  40.895  22.690   4.622
 8812W        W81105  27.174  33.003   2.884
 8813W        W81106  40.028   6.875   1.835
 8814W        W81107  40.822  17.669   1.820
 8815W        W81108  17.769  27.077   3.722
 8816W        W81109   7.691  21.569   0.758
 8817W        W81110  43.786  32.051   4.128
 8818W        W81111  21.663  16.796   0.941
 8819W        W81112   1.966   9.884   0.414
 8820W        W81113   2.368  36.890   3.248
 8821W        W81114   8.875   7.822   2.690
 8822W        W81115   5.741  11.622  12.362
 8823W        W81116   5.879  16.661   4.254
 8824W        W81117   5.321  38.920   1.923
 8825W        W81118  38.489  36.434   4.331
 8826W        W81119   5.322   2.299  14.959
 8827W        W81120  26.995  31.094   2.340
 8828W        W81121  39.842   9.854  11.019
 8829W        W81122  41.010  26.992  11.894
 8830W        W81123  34.491  25.549  13.005
 8831W        W81124  36.023  13.706   1.815
 8832W        W81125  18.222  34.421   3.196
 8833W        W81126  17.582  34.595   4.781
 8834W        W81127  10.310  17.591   4.767
 8835W        W81128   1.244  39.365  11.904
 8836W        W81129  14.336  39.867   1.907
 8837W        W81130  29.998  35.592  13.884
 8838W        W81131   0.436  29.989  10.544
 8839W        W81132  32.911  28.507   2.333
 8840W        W81133  30.012  37.522  14.475
 8841W        W81134  35.413  43.333  12.514
 8842W        W81135  43.766  23.091  12.355
 8843W        W81136  43.886  43.408  13.328
 8844W        W81137   6.726  14.773  14.003
 8845W        W81138   8.334   9.804   4.621
 8846W        W81139  12.119  39.386  13.523
 8847W        W81140   9.284   9.731  12.087
 8848W        W81141  27.023  43.926   0.829
 8849W        W81142  36.067  22.595   0.314
 8850W        W81143  40.904  21.587  12.446
 8851W        W81144   1.362  18.267  12.870
 8852W        W81145  11.792  41.957   1.227
 8853W        W81146  27.131  39.464   4.181
 8854W        W81147  34.611  20.235   1.810
 8855W        W81148   0.382  36.881  13.437
 8856W        W81149  25.007  29.173  12.075
 8857W        W81150  20.234   0.811   1.279
 8858W        W81151  12.650  10.251   3.311
 8859W        W81152  19.598  33.927   3.233
 8860W        W81153   9.780   9.763   3.718
 8861W        W81154   3.257   8.722  14.429
 8862W        W81155  20.683  29.947   3.286
 8863W        W81156  34.896  18.646  14.003
 8864W        W81157  31.140  19.675   4.721
 8865W        W81158  22.647  41.932   3.309
 8866W        W81159  20.677  21.574   0.256
 8867W        W81160  21.684  13.772  12.449
 8868W        W81161   3.265  13.812  11.942
 8869W        W81162  21.035   9.717   2.685
 8870W        W81163  18.154  40.536   3.180
 8871W        W81164  32.059  25.519   3.293
 8872W        W81165  11.789  15.259   1.290
 8873W        W81166  40.867  29.965   4.600
 8874W        W81167  25.196  26.513   4.312
 8875W        W81168  30.960   3.868   0.893
 8876W        W81169  36.356   1.915  14.981
 8877W        W81170   4.204  43.480   0.784
 8878W        W81171  12.655  23.673  13.040
 8879W        W81172   4.323  44.386  14.393
 8880W        W81173  29.053  39.431   1.891
 8881W        W81174  31.424  13.158  10.465
 8882W        W81175  21.150  15.141  14.003
 8883W        W81176  41.904  37.879  14.883
 8884W        W81177   5.354  25.471  14.348
 8885W        W81178   0.424   1.245   4.274
 8886W        W81179   7.756  14.116  11.607
 8887W        W81180  23.499   9.222   3.305
 8888W        W81181  11.642  41.980   4.162
 8889W        W81182  43.798   5.379  13.873
 8890W        W81183  43.399  23.633  11.987
 8891W        W81184  37.016  12.855  11.102
 8892W        W81185  36.876  31.054   0.853
 8893W        W81186  13.674  10.175   0.762
 8894W        W81187  23.623   7.822  10.615
 8895W        W81188  42.992  18.223   3.843
 8896W        W81189  31.142  28.052   4.697
 8897W        W81190  19.252  20.733   2.727
 8898W        W81191  36.023  15.691   4.755
 8899W        W81192  34.022  32.117   3.160
 8900W        W81193  20.603  32.074  11.119
 8901W        W81194  23.234  43.299   2.359
 8902W        W81195  43.922  32.405   4.291
 8903W        W81196  22.710   7.395   0.929
 8904W        W81197  35.940  16.133   1.719
 8905W        W81198  42.965  16.811   4.618
 8906W        W81199  44.293  42.882  13.891
 8907W        W81200   7.312  41.302   2.237
 8908W        W81201  21.525  18.295   1.896
 8909W        W81202  17.792  28.166  12.392
 8910W        W81203  12.313   3.861   2.357
 8911W        W81204  10.830  28.020  11.481
 8912W        W81205  26.657  37.357   3.226
 8913W        W81206   4.900  31.017   0.462
 8914W        W81207  27.994  44.851   0.959
 8915W        W81208  19.276   7.330   3.259
 8916W        W81209  13.296   6.295   0.941
 8917W        W81210  30.031  41.337   0.337
 8918W        W81211   5.259   1.369  10.493
 8919W        W81212   8.195  41.978   0.322
 8920W        W81213  39.829  42.988   3.277
 8921W        W81214  20.074  42.927   1.717
 8922W        W81215  23.093  24.228  12.959
 8923W        W81216   5.747  43.957   0.259
 8924W        W81217   3.229  29.613   0.838
 8925W        W81218  42.978  36.844  11.966
 8926W        W81219  27.117  32.072   5.116
 8927W        W81220  23.180  25.094  13.023
 8928W        W81221   4.873  16.221  11.861
 8929W        W81222  10.223   8.352  12.560
 8930W        W81223  44.386  44.882   3.702
 8931W        W81224   8.203   7.171  12.081
 8932W        W81225   5.857   1.847  14.376
 8933W        W81226   5.262   7.779  14.993
 8934W        W81227  43.393  20.119   2.324
 8935W        W81228  34.606  27.187   4.143
 8936W        W81229  44.956  34.531   1.444
 8937W        W81230   0.469   0.414   2.666
 8938W        W81231  37.375  10.841   3.787
 8939W        W81232  13.334  13.316  10.932
 8940W        W81233   0.298  27.185  12.849
 8941W        W81234  14.807  40.940   0.908
 8942W        W81235  16.158  18.613  13.415
 8943W        W81236  39.516  37.572  14.473
 8944W        W81237  37.338  43.297   3.294
 8945W        W81238   2.926   5.903  11.501
 8946W        W81239  19.647  37.400  13.474
 8947W        W81240  18.266  14.227  11.415
 8948W        W81241  34.026  44.757  10.592
 8949W        W81242  33.589  12.254  11.585
 8950W        W81243  13.724  35.083  13.799
 8951W        W81244  37.508   5.856  10.620
 8952W        W81245  35.557  20.696   2.831
 8953W        W81246  31.484  14.807  14.516
 8954W        W81247  27.634   4.760   1.324
 8955W        W81248  13.623   2.848  11.920
 8956W        W81249  28.552  42.919  12.516
 8957W        W81250   9.304  41.319   4.274
 8958W        W81251  17.073  33.031  11.582
 8959W        W81252   8.730  43.425  12.058
 8960W        W81253   3.728  34.540  11.957
 8961W        W81254  11.231  23.616  11.099
 8962W        W81255  18.172  41.845  11.075
 8963W        W81256   4.261  39.971  11.421
 8964W        W81257  36.005  16.592  11.543
 8965W        W81258  30.157   1.736  14.293
 8966W        W81259  32.086  33.433   0.319
 8967W        W81260   5.362   9.241   1.435
 8968W        W81261   1.325   2.951  11.418
 8969W        W81262  43.373  41.871   2.798
 8970W        W81263   7.813  35.557  12.485
 8971W        W81264  10.817  38.914  14.336
 8972W        W81265  18.588  22.995  14.507
 8973W        W81266   0.836  26.460  10.541
 8974W        W81267  22.678   1.913  12.394
 8975W        W81268  30.490  23.638   2.374
 8976W        W81269  34.888  32.541  14.363
 8977W        W81270  33.047   9.752  13.402
 8978W        W81271  10.720  22.149   3.205
 8979W        W81272  11.667   8.884  12.465
 8980W        W81273  26.535   5.834   4.680
 8981W        W81274   3.842   1.272  13.548
 8982W        W81275  15.797  12.360   0.276
 8983W        W81276   1.862  32.477  12.965
 8984W        W81277  41.504  42.347  14.502
 8985W        W81278  20.678   7.272   4.656
 8986W        W81279  15.266  20.677   2.866
 8987W        W81280  31.585  29.652   2.229
 8988W        W81281  26.519   6.776   0.246
 8989W        W81282  25.190  38.905  11.590
 8990W        W81283  18.282  30.980  14.298
 8991W        W81284  34.083  20.640   2.711
 8992W        W81285  27.996  21.160  13.313
 8993W        W81286   6.680  41.800  12.969
 8994W        W81287  32.591  16.787  11.045
 8995W        W81288  19.686  36.404  14.915
 8996W        W81289  12.749  33.528  13.436
 8997W        W81290  25.032   0.267  11.068
 8998W        W81291  31.923  28.663   3.865
 8999W        W81292  14.172  35.588   2.392
 9000W        W81293  10.145  24.719   0.448
 9001W        W81294  36.955   1.260  10.613
 9002W        W81295  38.415   3.429   4.615
 9003W        W81296   4.834  18.238  11.504
 9004W        W81297  44.434  43.008  11.564
 9005W        W81298  12.183   3.735  13.947
 9006W        W81299  29.451  34.578  14.873
 9007W        W81300   1.271  22.083  10.500
 9008W        W81301  27.491  20.235  14.760
 9009W        W81302  30.417  41.514   3.643
 9010W        W81303  23.520  44.766   4.182
 9011W        W81304  38.845  10.834   3.186
 9012W        W81305  39.950  24.680  14.344
 9013W        W81306  27.988  42.918   5.141
 9014W        W81307  35.031  13.612  11.609
 9015W        W81308  17.687  23.101  14.903
 9016W        W81309  27.968   9.678   4.629
 9017W        W81310  25.623  25.164  12.438
 9018W        W81311  30.085  39.876  13.436
 9019W        W81312   9.254  24.200  12.851
 9020W        W81313  29.976  31.089  12.517
 9021W        W81314  11.690   3.377  14.817
 9022W        W81315   6.250  19.229   4.269
 9023W        W81316   9.754  13.179  13.820
 9024W        W81317  14.763  37.376  10.464
 9025W        W81318   3.367   2.753   0.323
 9026W        W81319  40.991  20.166  12.350
 9027W        W81320  21.233   5.883   2.262
 9028W        W81321   7.745   0.858  13.941
 9029W        W81322  31.085   1.272  14.284
 9030W        W81323  11.297  13.181  11.990
 9031W        W81324  33.600  30.593   1.746
 9032W        W81325  28.175  43.485  10.497
 9033W        W81326  17.191  41.990  11.426
 9034W        W81327  24.616  13.196  12.458
 9035W        W81328  34.004   3.345   0.399
 9036W        W81329  44.868  40.051   4.777
 9037W        W81330  13.240  29.017   1.368
 9038W        W81331  44.890  29.487  12.953
 9039W        W81332  42.291  19.284   5.587
 9040W        W81333  12.637  43.373   2.299
 9041W        W81334  13.667  35.583   1.903
 9042W        W81335  41.480  39.341  10.551
 9043W        W81336  22.208  41.878  13.390
 9044W        W81337   6.873  21.520  11.075
 9045W        W81338  35.885  18.774   0.811
 9046W        W81339  36.002   5.245   0.372
 9047W        W81340  41.361  41.912  12.857
 9048W        W81341  35.472  44.769   1.741
 9049W        W81342  43.815  40.416  13.044
 9050W        W81343   7.288  25.661   1.352
 9051W        W81344  15.815   4.350   4.260
 9052W        W81345   2.762  24.649  11.911
 9053W        W81346  22.032  37.401   3.819
 9054W        W81347  35.510  14.791  14.969
 9055W        W81348  18.578  26.575   0.347
 9056W        W81349  12.276  24.224   2.257
 9057W        W81350  42.786  15.725   3.841
 9058W        W81351  38.821  38.435  13.488
 9059W        W81352   2.958   2.355   1.268
 9060W        W81353  37.884  28.587  10.992
 9061W        W81354   6.805  10.204  10.615
 9062W        W81355   2.425   6.265  12.351
 9063W        W81356  39.381   2.306  14.361
 9064W        W81357  37.412   1.322   2.875
 9065W        W81358  29.998  13.153   0.414
 9066W        W81359   2.442   7.826   1.859
 9067W        W81360  22.730  27.477  13.002
 9068W        W81361  41.902  25.687  13.903
 9069W        W81362  43.424  43.334  14.947
 9070W        W81363  39.057  29.632  11.464
 9071W        W81364  11.203   0.822   0.337
 9072W        W81365  25.659  23.107  11.601
 9073W        W81366  36.471   5.296  11.871
 9074W        W81367   8.799  19.765  14.943
 9075W        W81368   1.282  15.233   3.855
 9076W        W81369   8.259  38.497  13.029
 9077W        W81370  13.803  16.746   4.656
 9078W        W81371   8.656  37.454  13.547
 9079W        W81372  30.631  35.438  12.435
 9080W        W81373  42.919  26.577  13.309
 9081W        W81374  13.821  20.615  11.091
 9082W        W81375  31.015  31.526   3.332
 9083W        W81376  33.908  42.468  13.885
 9084W        W81377   3.247  42.795  12.486
 9085W        W81378  39.965   9.256   4.259
 9086W        W81379   5.727  10.373   4.754
 9087W        W81380  26.187  18.770  14.320
 9088W        W81381  37.533   1.379  13.464
 9089W        W81382   2.801  19.548  10.996
 9090W        W81383   9.163  31.992  10.986
 9091W        W81384  42.466  20.266  10.949
 9092W        W81385  36.529   3.772   1.211
 9093W        W81386  34.001   5.694  12.988
 9094W        W81387  32.506  15.673   2.740
 9095W        W81388  26.638  31.483  10.929
 9096W        W81389  41.825  38.395  12.545
 9097W        W81390  17.205  14.234  13.047
 9098W        W81391  35.453  16.253   2.787
 9099W        W81392  17.287  29.619   4.637
 9100W        W81393  14.163  14.159  10.412
 9101W        W81394  25.093  27.057   2.734
 9102W        W81395  15.643  11.767  11.572
 9103W        W81396   5.839   1.844   0.948
 9104W        W81397  13.117  38.496   2.813
 9105W        W81398  18.643  12.610   0.318
 9106W        W81399  23.140  42.871   0.927
 9107W        W81400   1.947  29.430  14.759
 9108W        W81401   7.889  15.255   1.716
 9109W        W81402  43.485  25.188   1.358
 9110W        W81403  30.952  39.354   3.256
 9111W        W81404   5.267   7.183   0.731
 9112W        W81405  42.929  25.053  14.952
 9113W        W81406  24.213  20.615  11.876
 9114W        W81407  20.718  29.118  13.312
 9115W        W81408  42.830  32.501   0.748
 9116W        W81409  10.222  13.734  13.502
 9117W        W81410  30.072  21.518   9.494
 9118W        W81411   2.462  39.455   0.819
 9119W        W81412  19.614   8.752   2.790
 9120W        W81413  27.158  17.216  13.024
 9121W        W81414  30.496   3.879   3.701
 9122W        W81415  16.566  31.518   1.839
 9123W        W81416  16.090   7.747  14.815
 9124W        W81417  37.431  27.120   0.783
 9125W        W81418  22.017   9.820   4.271
 9126W        W81419  43.472  28.498  14.424
 9127W        W81420  34.012  14.324  11.872
 9128W        W81421  37.016  43.482  11.502
 9129W        W81422  25.635  20.201   0.955
 9130W        W81423  28.142  24.229   3.236
 9131W        W81424   0.773  40.798  11.952
 9132W        W81425  18.210  38.069   3.683
 9133W        W81426  25.046  34.574   2.806
 9134W        W81427  25.653   3.431   0.765
 9135W        W81428  24.051  15.803  12.049
 9136W        W81429  12.292  41.922  11.042
 9137W        W81430   5.725  30.908  12.935
 9138W        W81431  12.256  10.875   2.877
 9139W        W81432  13.668  23.694  14.955
 9140W        W81433   4.756  40.459   3.825
 9141W        W81434  32.611  29.084   4.248
 9142W        W81435  16.306  42.315   3.348
 9143W        W81436  34.076   3.323  12.928
 9144W        W81437  16.656  40.053  11.487
 9145W        W81438  17.077  11.355  14.398
 9146W        W81439  32.563   0.261  12.062
 9147W        W81440  15.723  25.684   2.227
 9148W        W81441  31.589  11.300   9.480
 9149W        W81442   0.951   5.902  11.486
 9150W        W81443   2.268   7.769   4.620
 9151W        W81444  10.744  36.553   2.832
 9152W        W81445   7.673  30.968   3.694
 9153W        W81446  29.935   4.821   4.323
 9154W        W81447  18.780  40.875  12.992
 9155W        W81448   0.782   4.724   1.746
 9156W        W81449   8.233   2.765   0.442
 9157W        W81450  27.043  36.946   0.397
 9158W        W81451  13.744  32.978   3.160
 9159W        W81452  29.540  23.665   5.161
 9160W        W81453  36.015  32.959   4.237
 9161W        W81454  38.434  29.022  13.825
 9162W        W81455  31.951   4.218   2.288
 9163W        W81456  36.572  39.976   2.704
 9164W        W81457  12.635   2.778   0.376
 9165W        W81458   1.785  30.916   1.374
 9166W        W81459  38.429   5.396   0.869
 9167W        W81460  11.724  37.526  14.362
 9168W        W81461  34.011  11.689   3.250
 9169W        W81462   8.171   8.865  11.098
 9170W        W81463  42.837  21.706   1.751
 9171W        W81464  27.510  12.656  13.810
 9172W        W81465   8.273   3.817  11.928
 9173W        W81466  23.066  41.009  13.888
 9174W        W81467   8.824   0.801   3.270
 9175W        W81468  25.520  19.560   2.317
 9176W        W81469  34.875  26.487   4.788
 9177W        W81470  21.140   2.721   1.263
 9178W        W81471  24.987  12.792  10.929
 9179W        W81472  43.504  12.788   0.797
 9180W        W81473  32.014  18.083  11.060
 9181W        W81474  27.943   8.260  14.900
 9182W        W81475  43.334  27.559   0.472
 9183W        W81476   6.338  22.708   0.383
 9184W        W81477  20.051  24.628  13.975
 9185W        W81478  28.038  37.349   0.847
 9186W        W81479   3.426   0.817  14.316
 9187W        W81480  42.411   6.272  10.899
 9188W        W81481  27.017  32.396  11.435
 9189W        W81482  10.317  42.941  12.975
 9190W        W81483  14.158  10.382   4.339
 9191W        W81484  40.942  23.713   3.243
 9192W        W81485  44.474   6.326   2.865
 9193W        W81486  44.819  13.141   0.887
 9194W        W81487  17.617  26.026  12.438
 9195W        W81488   2.249  21.662  13.813
 9196W        W81489  14.636   6.313   0.252
 9197W        W81490  18.113  33.962   1.316
 9198W        W81491  33.084  38.340  13.926
 9199W        W81492  28.983  38.995   0.930
 9200W        W81493  36.372  20.594  13.530
 9201W        W81494  42.497  22.158  12.037
 9202W        W81495  11.696  28.962  11.115
 9203W        W81496  35.428  29.515  14.353
 9204W        W81497  15.210  22.035  14.951
 9205W        W81498   6.872  20.142   3.746
 9206W        W81499  15.290  15.734   1.788
 9207W        W81500  20.702  40.813  13.514
 9208W        W81501  12.712  37.012   3.268
 9209W        W81502   5.239  39.965  10.624
 9210W        W81503  20.561  31.521   0.739
 9211W        W81504   2.401  43.948   0.925
 9212W        W81505  23.114   5.241  13.537
 9213W        W81506  24.546  43.894   3.316
 9214W        W81507  19.638  27.495  14.974
 9215W        W81508  40.496  17.746  11.581
 9216W        W81509   5.409  11.288   2.887
 9217W        W81510  18.050  15.283  11.035
 9218W        W81511  25.682  32.522  14.892
 9219W        W81512  28.518  24.704  13.452
 9220W        W81513  13.315  41.922   2.844
 9221W        W81514  24.718   1.800  14.974
 9222W        W81515  15.784  13.684  10.935
 9223W        W81516  11.308  40.532   0.836
 9224W        W81517  37.356  36.385   4.192
 9225W        W81518   3.292  16.072   0.447
 9226W        W81519  21.018  40.411   1.705
 9227W        W81520  23.647  22.698  10.595
 9228W        W81521  14.614  23.677   2.691
 9229W        W81522  31.922  19.049   3.787
 9230W        W81523  25.125   1.470   0.769
 9231W        W81524   8.222  25.028  13.913
 9232W        W81525   7.706  10.817   1.804
 9233W        W81526  23.141   7.416  14.287
 9234W        W81527  34.060   8.212   3.677
 9235W        W81528   3.816  16.187   4.659
 9236W        W81529  15.661  15.824   3.255
 9237W        W81530  15.285  14.247   4.759
 9238W        W81531   7.815  40.491   2.337
 9239W        W81532  27.116  22.997   3.754
 9240W        W81533  44.756   0.855  12.900
 9241W        W81534   6.216  20.646  11.058
 9242W        W81535   7.877  33.511  11.098
 9243W        W81536  44.299  20.246  12.497
 9244W        W81537  31.138  26.973   1.374
 9245W        W81538  32.458  13.199  13.832
 9246W        W81539   0.748  26.498  14.784
 9247W        W81540  24.060  31.996   2.859
 9248W        W81541  16.779  11.651  10.613
 9249W        W81542  36.940  23.219   1.401
 9250W        W81543  34.434  30.140   4.651
 9251W        W81544   4.898  21.636   1.227
 9252W        W81545  14.620   1.769   0.266
 9253W        W81546  11.798  33.906  13.368
 9254W        W81547  21.617   1.929   0.293
 9255W        W81548   6.920  40.469   3.791
 9256W        W81549   2.378  14.685   0.931
 9257W        W81550  24.614  32.421  14.768
 9258W        W81551  28.447  29.626  10.562
 9259W        W81552  32.609  25.131  14.324
 9260W        W81553  39.994  27.141  14.933
 9261W        W81554  20.100  25.567   1.357
 9262W        W81555  31.103  34.402   1.773
 9263W        W81556  34.452  30.582  11.050
 9264W        W81557  26.094  20.711  11.575
 9265W        W81558  12.619  11.300  13.359
 9266W        W81559  18.587  20.754  11.584
 9267W        W81560  38.016  33.505  13.944
 9268W        W81561  44.284  19.694  12.090
 9269W        W81562  25.160  42.400  11.482
 9270W        W81563   2.439  34.075   3.341
 9271W        W81564  12.193  15.287  13.514
 9272W        W81565   5.291   0.374   4.788
 9273W        W81566  20.634  31.434   5.158
 9274W        W81567  14.734  32.633   3.680
 9275W        W81568   6.307  29.488  11.037
 9276W        W81569  37.013  15.269  12.580
 9277W        W81570  16.255  44.345  10.644
 9278W        W81571  22.636  30.087   0.472
 9279W        W81572  36.510  39.897  13.317
 9280W        W81573  12.251  36.475   1.286
 9281W        W81574  13.601  39.354  12.950
 9282W        W81575  40.020   7.840  11.534
 9283W        W81576  39.981  19.541   4.653
 9284W        W81577  32.610  35.929   2.180
 9285W        W81578  16.742  17.233   0.936
 9286W        W81579  33.078   2.769   4.832
 9287W        W81580  33.418  31.648   3.865
 9288W        W81581  34.589  18.086  12.037
 9289W        W81582  13.270  11.326  13.811
 9290W        W81583   1.372  32.958   2.352
 9291W        W81584  19.282   0.822   0.350
 9292W        W81585  39.033  22.502  14.847
 9293W        W81586   9.163  14.797  14.775
 9294W        W81587  26.528   5.384  14.329
 9295W        W81588  35.857  13.636  10.946
 9296W        W81589   3.749  26.098  14.342
 9297W        W81590   7.283   4.878  10.894
 9298W        W81591   0.797  29.077  12.415
 9299W        W81592  42.975  30.095   1.393
 9300W        W81593  23.619   2.472  11.960
 9301W        W81594  31.951  27.447   1.789
 9302W        W81595   1.797  12.292  11.007
 9303W        W81596  16.113  15.685   9.923
 9304W        W81597  34.019   6.375   3.148
 9305W        W81598  37.868  30.657  11.379
 9306W        W81599   9.824  14.246   2.418
 9307W        W81600  21.086   2.811   4.145
 9308W        W81601  16.730   0.985   4.214
 9309W        W81602   2.275   9.647  11.922
 9310W        W81603   3.717  41.494  11.948
 9311W        W81604  23.569  43.442  12.465
 9312W        W81605  19.775  12.159  14.473
 9313W        W81606  40.457  13.227   4.781
 9314W        W81607   4.364   6.222  12.427
 9315W        W81608   1.922  26.689   0.827
 9316W        W81609  20.214  38.898  14.452
 9317W        W81610  36.466  23.544   3.771
 9318W        W81611   7.398  16.106  14.766
 9319W        W81612  44.357  25.585  11.579
 9320W        W81613   4.294  35.469   1.401
 9321W        W81614  26.144   7.364  12.574
 9322W        W81615  39.362  35.437   1.798
 9323W        W81616  14.626   0.885   1.268
 9324W        W81617  14.149  40.029  10.975
 9325W        W81618   1.768  37.488   3.865
 9326W        W81619  35.596  42.939  10.946
 9327W        W81620  26.113  12.655   0.267
 9328W        W81621   1.893  13.180   0.404
 9329W        W81622  24.617  44.913   3.762
 9330W        W81623  42.882  17.223   3.332
 9331W        W81624  24.593  24.719  11.001
 9332W        W81625  44.261  42.962  14.761
 9333W        W81626  19.186  23.680  14.393
 9334W        W81627  41.388  38.062  12.861
 9335W        W81628  26.146  20.030   4.218
 9336W        W81629  38.954  27.623  13.538
 9337W        W81630  23.628  30.514   4.237
 9338W        W81631   2.471  23.548  10.638
 9339W        W81632  12.141  30.913   1.810
 9340W        W81633  24.620   6.743  12.460
 9341W        W81634   8.306  36.071  13.344
 9342W        W81635  38.990   3.892   0.881
 9343W        W81636  43.362  43.766   9.464
 9344W        W81637  17.151   6.420   2.394
 9345W        W81638   1.797  36.026   1.772
 9346W        W81639  38.858  36.072  10.461
 9347W        W81640  19.561  22.657  14.346
 9348W        W81641  36.579  10.185   4.134
 9349W        W81642  27.181  32.020   2.227
 9350W        W81643  10.644  30.463  10.949
 9351W        W81644  17.202  30.435  12.873
 9352W        W81645   0.958   8.300   4.826
 9353W        W81646  38.831   7.697  13.437
 9354W        W81647  16.798  26.964   3.160
 9355W        W81648  26.197  42.016   3.640
 9356W        W81649  22.729   4.354  12.905
 9357W        W81650   8.713  18.249  11.903
 9358W        W81651  10.267  17.558  14.333
 9359W        W81652  31.910  38.569   0.343
 9360W        W81653   6.186  28.054   3.148
 9361W        W81654  40.378  24.139   1.904
 9362W        W81655  30.525  19.706   3.673
 9363W        W81656  42.826  26.993   3.358
 9364W        W81657   5.891  30.471   0.402
 9365W        W81658  27.664  33.547  11.906
 9366W        W81659  34.040  26.183   0.836
 9367W        W81660  25.524  13.187  13.470
 9368W        W81661  17.068   5.420  12.009
 9369W        W81662  18.596  19.069  12.941
 9370W        W81663  12.638  33.583   1.877
 9371W        W81664  27.031  21.200  10.586
 9372W        W81665   4.229   2.818  13.405
 9373W        W81666  25.123  36.542   2.383
 9374W        W81667  15.784   7.408  13.438
 9375W        W81668  14.710   9.786   3.368
 9376W        W81669  28.952  17.561   4.618
 9377W        W81670   0.845  19.264   1.279
 9378W        W81671   8.191  23.178  12.454
 9379W        W81672   4.794  11.133  10.413
 9380W        W81673  15.116  41.913   2.407
 9381W        W81674  31.416   0.482  14.799
 9382W        W81675  19.560  38.378  12.939
 9383W        W81676  29.984   4.368  13.307
 9384W        W81677  42.424   7.281   4.334
 9385W        W81678  11.173  43.323   0.896
 9386W        W81679  32.055  35.028   2.845
 9387W        W81680  11.250  28.134   4.328
 9388W        W81681  42.382   2.278   4.727
 9389W        W81682  24.103  30.649   4.132
 9390W        W81683  44.008  21.160   3.774
 9391W        W81684  14.262   7.726   2.403
 9392W        W81685  40.969  34.039   3.146
 9393W        W81686  34.497   7.829   3.169
 9394W        W81687  19.114  11.705   3.758
 9395W        W81688  17.770  37.050   2.366
 9396W        W81689  31.095  34.870  13.983
 9397W        W81690  30.647   6.774   4.291
 9398W        W81691  39.408   5.788  12.063
 9399W        W81692  20.557  27.501  10.482
 9400W        W81693  32.940  11.808   1.911
 9401W        W81694  36.414   4.392   0.368
 9402W        W81695  32.489  36.952   0.961
 9403W        W81696  21.217  43.404  13.425
 9404W        W81697  23.671   3.809   5.266
 9405W        W81698  25.612  35.535   4.766
 9406W        W81699  26.642  27.128   1.291
 9407W        W81700  31.940  20.089  10.408
 9408W        W81701  13.302  39.978  12.516
 9409W        W81702  20.125  12.826   4.778
 9410W        W81703  34.578  32.033  10.983
 9411W        W81704   7.176  23.155   4.705
 9412W        W81705  18.064  17.072  12.453
 9413W        W81706  21.651  12.778  14.970
 9414W        W81707   2.451  38.868  12.927
 9415W        W81708  14.702   3.444  14.837
 9416W        W81709   9.270  22.207  10.587
 9417W        W81710  27.062  26.634  12.477
 9418W        W81711  31.045   9.867   3.167
 9419W        W81712  12.298  19.070  13.490
 9420W        W81713  36.466  42.968   4.348
 9421W        W81714  42.968  34.923  11.587
 9422W        W81715  10.726   4.782  11.984
 9423W        W81716  14.266  38.438   4.771
 9424W        W81717   8.370  28.511   0.860
 9425W        W81718  31.015  13.308   3.796
 9426W        W81719   7.299   5.753   1.828
 9427W        W81720   7.182   0.987  11.054
 9428W        W81721  36.006  18.777   4.779
 9429W        W81722   2.830  28.498   1.750
 9430W        W81723  26.588  16.102  10.539
 9431W        W81724   9.158  20.586   0.769
 9432W        W81725  15.761  12.797   4.614
 9433W        W81726  43.914  28.595   2.772
 9434W        W81727  10.820  31.594   0.906
 9435W        W81728  21.099   9.233   3.210
 9436W        W81729   3.412   7.874   3.844
 9437W        W81730  38.440  15.152  10.502
 9438W        W81731  13.806  23.537  11.496
 9439W        W81732  11.663  40.335   0.266
 9440W        W81733  34.904  16.648  11.394
 9441W        W81734  34.461  18.569  10.631
 9442W        W81735  30.999   3.402   1.277
 9443W        W81736   2.825  26.609  10.423
 9444W        W81737   8.196  23.048   0.464
 9445W        W81738  39.410  18.780   4.777
 9446W        W81739  39.436  18.725   1.884
 9447W        W81740  36.574  13.730  14.887
 9448W        W81741  32.023  23.080   5.094
 9449W        W81742  32.080  33.424  12.032
 9450W        W81743  20.643  32.907  10.143
 9451W        W81744  43.307  28.048  14.953
 9452W        W81745  26.098  27.583  14.322
 9453W        W81746  36.388  39.837  12.933
 9454W        W81747  39.368  29.930   1.331
 9455W        W81748  42.970  12.755   0.419
 9456W        W81749  35.029  32.604  13.401
 9457W        W81750   5.735  29.138   4.267
 9458W        W81751  44.333  36.954   1.718
 9459W        W81752  32.078   1.339   1.356
 9460W        W81753  21.513  31.487  12.865
 9461W        W81754  27.643   7.881   4.749
 9462W        W81755   9.646  44.266  10.633
 9463W        W81756  38.456  29.645   1.716
 9464W        W81757  15.688  30.055   4.805
 9465W        W81758  20.688  30.146   4.837
 9466W        W81759   5.858  44.461   2.341
 9467W        W81760   8.854  18.096   4.793
 9468W        W81761  21.172  19.664   2.293
 9469W        W81762  17.590   9.374  13.364
 9470W        W81763  17.646  10.684   1.287
 9471W        W81764   9.810   6.215  14.807
 9472W        W81765   6.270   4.783  11.451
 9473W        W81766  32.896  37.500  12.941
 9474W        W81767  14.209   3.336   3.727
 9475W        W81768  11.349  40.314   4.761
 9476W        W81769  28.446  14.248   4.657
 9477W        W81770   7.792   0.259  13.909
 9478W        W81771  22.701  40.415  13.869
 9479W        W81772  44.816  39.559   3.695
 9480W        W81773  43.988  38.400  11.576
 9481W        W81774  28.027  19.538   1.696
 9482W        W81775  36.043  44.772   1.371
 9483W        W81776  18.183  24.701   3.260
 9484W        W81777  42.368  19.665  11.097
 9485W        W81778  32.941   8.279   0.928
 9486W        W81779  44.010   1.894  14.482
 9487W        W81780  14.318  31.438  14.861
 9488W        W81781  41.525  26.476   5.092
 9489W        W81782  31.525  21.157  14.440
 9490W        W81783  19.559  27.503  11.032
 9491W        W81784   1.744  44.505  14.832
 9492W        W81785  29.429  19.111  12.555
 9493W        W81786  42.913  24.550  11.067
 9494W        W81787  40.054   6.277  14.427
 9495W        W81788   5.386  22.519   2.218
 9496W        W81789  41.880  41.314  12.840
 9497W        W81790  14.326   4.247  12.435
 9498W        W81791  35.986  10.755  10.897
 9499W        W81792  14.796  36.390   0.881
 9500W        W81793  12.135  19.045  14.360
 9501W        W81794  42.778  12.779  14.778
 9502W        W81795   7.697  19.193  12.031
 9503W        W81796  19.608  17.197  12.352
 9504W        W81797  14.273   4.786  14.361
 9505W        W81798  42.406  44.346  14.501
 9506W        W81799  37.505  43.903   0.481
 9507W        W81800  23.194  19.128   3.387
 9508W        W81801  19.256  19.232   1.334
 9509W        W81802  12.174  16.799  13.902
 9510W        W81803  42.413  17.759  13.928
 9511W        W81804  20.186  14.244   3.220
 9512W        W81805   6.842  26.159  14.915
 9513W        W81806  16.601   1.415  11.045
 9514W        W81807  13.351  44.892  14.032
 9515W        W81808  32.493  38.425   4.114
 9516W        W81809  17.556   0.270  13.915
 9517W        W81810  36.900   4.305  12.018
 9518W        W81811  30.930  12.308   3.250
 9519W        W81812   2.437  23.609   3.748
 9520W        W81813  14.302  17.681   2.231
 9521W        W81814  41.446   6.254   0.252
 9522W        W81815  35.438  37.367  10.448
 9523W        W81816  25.494  23.191   1.780
 9524W        W81817  25.067  28.001   1.242
 9525W        W81818  39.939  27.036  14.452
 9526W        W81819  26.669  26.539  11.573
 9527W        W81820  34.080   9.213   0.395
 9528W        W81821  38.544  21.703   4.245
 9529W        W81822  21.518  35.553  12.923
 9530W        W81823  20.251  25.017   9.922
 9531W        W81824  29.017  39.350   0.915
 9532W        W81825  25.983  35.020   1.782
 9533W        W81826  25.066  39.967   1.932
 9534W        W81827  21.055  32.995   1.393
 9535W        W81828  41.499   4.901   4.641
 9536W        W81829   0.278  37.479   1.801
 9537W        W81830  16.306  11.716   1.249
 9538W        W81831  34.375  22.045   1.931
 9539W        W81832   8.699  41.458   0.966
 9540W        W81833  20.124  32.430   1.425
 9541W        W81834  12.360  19.584   2.765
 9542W        W81835  28.035  28.073   0.434
 9543W        W81836   1.973   0.775  12.896
 9544W        W81837  36.960  16.118   2.751
 9545W        W81838   2.255   3.311  12.347
 9546W        W81839  27.463  29.596  13.828
 9547W        W81840  11.176   6.183  13.797
 9548W        W81841   7.266  30.955   2.254
 9549W        W81842  34.510   7.337   0.467
 9550W        W81843  34.571  42.289  12.363
 9551W        W81844  26.618  13.609   4.261
 9552W        W81845  23.499  19.658   4.608
 9553W        W81846   0.363  38.558  13.543
 9554W        W81847  30.142  33.897   2.678
 9555W        W81848  21.140  35.403   1.813
 9556W        W81849  21.592  37.387   3.802
 9557W        W81850  18.252  18.727  12.528
 9558W        W81851  32.039   0.333   3.351
 9559W        W81852  37.486  40.990   0.847
 9560W        W81853  44.000  15.213   3.268
 9561W        W81854  14.736  34.869  12.541
 9562W        W81855  21.606  24.580   0.327
 9563W        W81856  19.551  33.595   1.378
 9564W        W81857  41.037   2.317  11.598
 9565W        W81858  17.766  15.800   0.459
 9566W        W81859  36.852  37.919   0.808
 9567W        W81860  41.828  28.173  11.859
 9568W        W81861   9.889  19.057  13.489
 9569W        W81862  17.716  14.665   3.212
 9570W        W81863   2.920  21.111   3.244
 9571W        W81864   5.784   3.360   0.308
 9572W        W81865  16.109  13.347   4.206
 9573W        W81866  30.503  21.626  13.510
 9574W        W81867  21.674  14.647  14.830
 9575W        W81868   0.897  19.578   0.469
 9576W        W81869  12.301  16.606   3.822
 9577W        W81870  28.640  38.980   1.759
 9578W        W81871  19.669  36.063  13.974
 9579W        W81872  26.143  19.193   3.778
 9580W        W81873  17.693  20.624  14.424
 9581W        W81874  25.048   4.805  14.774
 9582W        W81875  43.278  36.395  11.558
 9583W        W81876  41.011  43.905   1.878
 9584W        W81877   7.710  44.873  14.443
 9585W        W81878  42.484  16.729  11.459
 9586W        W81879  12.857  18.551  14.420
 9587W        W81880  31.931  39.969   0.817
 9588W        W81881  26.584  10.872   1.410
 9589W        W81882  37.900  26.200   0.956
 9590W        W81883  44.779  13.338  10.603
 9591W        W81884  18.619  38.871  14.936
 9592W        W81885  41.919  29.574   4.293
 9593W        W81886  27.568  36.059  13.819
 9594W        W81887  21.563   8.285  12.931
 9595W        W81888   0.390  19.660   1.769
 9596W        W81889  38.381   3.841  11.584
 9597W        W81890  44.307  19.255  13.883
 9598W        W81891  39.559  14.127  10.507
 9599W        W81892  44.849  15.593  11.123
 9600W        W81893   6.388   7.769  12.859
 9601W        W81894   4.708  25.493  11.936
 9602W        W81895  24.649  34.909   4.599
 9603W        W81896   1.747   4.400  11.962
 9604W        W81897   6.911  44.904  13.494
 9605W        W81898  27.945  16.598  13.988
 9606W        W81899  22.995  39.936  14.473
 9607W        W81900  41.407  31.528   3.829
 9608W        W81901   9.794  37.852   0.374
 9609W        W81902   7.791   1.241  14.431
 9610W        W81903  39.439  11.754  12.046
 9611W        W81904  26.607  29.464   3.366
 9612W        W81905   1.915  34.070   1.748
 9613W        W81906  27.100  14.613  11.871
 9614W        W81907  43.006  12.840  13.360
 9615W        W81908  42.322  13.268   2.770
 9616W        W81909  21.670  19.633   1.387
 9617W        W81910  26.960  17.618   2.683
 9618W        W81911  19.177  28.573   1.224
 9619W        W81912  32.508  40.325  12.569
 9620W        W81913   0.305  44.272   0.369
 9621W        W81914  40.898  15.662   0.278
 9622W        W81915  11.856  11.676   3.314
 9623W        W81916  23.656  17.162  10.914
 9624W        W81917  23.707  16.286   3.851
 9625W        W81918  28.627  42.868  11.097
 9626W        W81919  35.535  25.066  13.947
 9627W        W81920   1.811   8.391  11.084
 9628W        W81921  41.902  36.504   0.897
 9629W        W81922  44.949  42.837   0.768
 9630W        W81923  38.377  25.647   2.863
 9631W        W81924  21.219  40.515   3.198
 9632W        W81925  43.808  25.168  13.437
 9633W        W81926  31.929   0.483  13.538
 9634W        W81927  38.472  32.576  13.819
 9635W        W81928  36.948  11.814  11.542
 9636W        W81929  23.047   1.892  13.437
 9637W        W81930  20.034   0.353  13.822
 9638W        W81931   0.301  35.603  10.084
 9639W        W81932  13.313   1.895   4.764
 9640W        W81933  14.647   2.357  10.031
 9641W        W81934  25.587  29.066   1.368
 9642W        W81935  11.307   7.783  10.993
 9643W        W81936  29.606  16.209   2.666
 9644W        W81937  25.191  31.093  13.371
 9645W        W81938  26.476  34.981  13.434
 9646W        W81939  19.200  24.196  11.974
 9647W        W81940  16.709   8.351  11.518
 9648W        W81941  24.188   4.266  13.473
 9649W        W81942  24.214  21.110  11.557
 9650W        W81943   2.462   6.694   4.821
 9651W        W81944  33.496  12.790   9.987
 9652W        W81945   8.260  18.186   2.340
 9653W        W81946  17.745  38.336  13.327
 9654W        W81947  23.152  30.090  10.591
 9655W        W81948  23.149  28.656  13.390
 9656W        W81949   2.429   3.819  14.984
 9657W        W81950  10.684  18.130   3.296
 9658W        W81951  14.181  42.852   3.240
 9659W        W81952  27.669  15.329   3.810
 9660W        W81953  39.398  31.040   4.238
 9661W        W81954  42.798  20.064   3.767
 9662W        W81955   2.442  41.479   4.324
 9663W        W81956  11.658  18.560  10.996
 9664W        W81957  14.324  10.219  13.921
 9665W        W81958  38.834  38.065   0.299
 9666W        W81959  32.471   8.796  13.929
 9667W        W81960  12.168  30.467  14.759
 9668W        W81961   0.409  29.918   0.861
 9669W        W81962  36.396  26.663  10.561
 9670W        W81963  34.083   1.737   4.336
 9671W        W81964  34.018   3.248   1.808
 9672W        W81965  44.370  26.095   0.793
 9673W        W81966  36.028  19.764  11.882
 9674W        W81967   0.745  25.594  10.948
 9675W        W81968   6.397  24.095   3.824
 9676W        W81969   9.166  37.524  12.387
 9677W        W81970  33.449  25.013  12.951
 9678W        W81971   2.321   7.386  13.391
 9679W        W81972  42.795  12.137  10.910
 9680W        W81973  10.205  29.966  12.089
 9681W        W81974  12.325  42.894   3.186
 9682W        W81975  24.691  41.316   4.679
 9683W        W81976   4.852  15.148  13.833
 9684W        W81977   7.813  38.854   2.781
 9685W        W81978  21.123  12.173   3.160
 9686W        W81979   9.212  20.236  10.517
 9687W        W81980   1.435   3.440  14.419
 9688W        W81981   2.343   2.465   3.848
 9689W        W81982  35.395  39.367   4.134
 9690W        W81983  17.635  32.895  10.122
 9691W        W81984  44.986   3.887   2.345
 9692W        W81985  10.727  12.671  11.578
 9693W        W81986  26.153  28.543   1.738
 9694W        W81987  43.823   4.444   3.319
 9695W        W81988  33.052  17.761  12.957
 9696W        W81989  16.757  20.028   2.199
 9697W        W81990  38.369  14.300  11.453
 9698W        W81991  11.844  14.738   0.848
 9699W        W81992  44.763  13.332   1.234
 9700W        W81993   4.903  15.793   2.672
 9701W        W81994  30.062  19.576  11.502
 9702W        W81995  14.339  10.252   1.774
 9703W        W81996  32.929  13.770  11.017
 9704W        W81997  18.706   3.863   2.373
 9705W        W81998   5.804  37.548   0.330
 9706W        W81999  14.126   5.403  14.877
 9707W        W82000  36.964  34.028  14.964
 9708W        W82001  14.329  16.125  11.085
 9709W        W82002  13.629  27.650   1.317
 9710W        W82003   2.288   1.302  11.483
 9711W        W82004  36.435  33.425   4.828
 9712W        W82005   2.321  19.099   1.380
 9713W        W82006   4.939  10.239   1.820
 9714W        W82007  13.779  26.474   3.767
 9715W        W82008  19.613  14.102  14.895
 9716W        W82009  11.652  28.546  13.944
 9717W        W82010  10.365   1.362   2.810
 9718W        W82011  10.261  14.771   2.808
 9719W        W82012  43.274  26.100   3.178
 9720W        W82013  36.441  17.233   2.241
 9721W        W82014  32.136  18.565  14.848
 9722W        W82015   7.814   6.324  10.062
 9723W        W82016  11.220  43.838  11.545
 9724W        W82017   1.921  43.766   1.816
 9725W        W82018   3.313  10.855   1.855
 9726W        W82019  40.971  20.536   2.274
 9727W        W82020  33.929  27.955   1.881
 9728W        W82021   3.296  15.324   2.221
 9729W        W82022  19.748  26.667   2.872
 9730W        W82023  24.205  36.350   3.194
 9731W        W82024  35.481  16.218  11.559
 9732W        W82025  36.897   7.370   4.329
 9733W        W82026   4.817  38.930   3.640
 9734W        W82027  15.729  16.670   1.332
 9735W        W82028  28.146  23.571  13.352
 9736W        W82029  34.401  39.035   3.774
 9737W        W82030  24.038  22.528   4.752
 9738W        W82031  17.637  16.799   3.148
 9739W        W82032  29.427  41.024  10.919
 9740W        W82033  19.151  35.445   2.830
 9741W        W82034  27.119  11.300   2.308
 9742W        W82035  24.997  11.149   4.725
 9743W        W82036  39.388  33.622   3.304
 9744W        W82037  28.975  37.557  11.430
 9745W        W82038   5.829  17.202  14.012
 9746W        W82039  42.289  42.339  10.557
 9747W        W82040   1.840   7.784   0.771
 9748W        W82041  19.217   1.339  14.784
 9749W        W82042  16.258  21.176  13.354
 9750W        W82043   6.830  11.369   4.642
 9751W        W82044  31.488   0.761  14.807
 9752W        W82045  31.085  23.651   1.448
 9753W        W82046   8.782  31.012  12.482
 9754W        W82047  30.009  25.014   5.246
 9755W        W82048   5.688  42.433  14.454
 9756W        W82049  20.072   9.334  11.534
 9757W        W82050  31.569  19.274  11.431
 9758W        W82051  20.162   0.839   0.848
 9759W        W82052   2.819  16.299   2.344
 9760W        W82053  16.717  37.956  12.048
 9761W        W82054  18.050   0.451  13.383
 9762W        W82055   8.282  24.179   1.894
 9763W        W82056  25.022  18.720   2.735
 9764W        W82057  21.613  16.765   1.429
 9765W        W82058  21.585   0.346   0.820
 9766W        W82059  35.097  18.687   0.253
 9767W        W82060  39.974  44.889   3.785
 9768W        W82061   6.755   8.780   0.932
 9769W        W82062  22.524  35.960  12.917
 9770W        W82063   8.878  13.295  11.498
 9771W        W82064   0.784  37.516   2.723
 9772W        W82065   9.873  15.714  12.858
 9773W        W82066  19.628  22.134   1.844
 9774W        W82067   0.896  25.591   4.135
 9775W        W82068  31.423  23.120   0.828
 9776W        W82069  21.222   0.950  11.984
 9777W        W82070  36.940  44.487  13.908
 9778W        W82071  31.444  29.512   3.378
 9779W        W82072  29.574  42.888  14.001
 9780W        W82073  37.450  36.067   3.293
 9781W        W82074  13.338  36.901   4.742
 9782W        W82075  26.662   7.737  13.928
 9783W        W82076  42.508   9.151  13.547
 9784W        W82077  18.755  43.374  14.374
 9785W        W82078  32.034  30.916   2.840
 9786W        W82079  10.302  32.581  11.574
 9787W        W82080  25.605  16.733  12.365
 9788W        W82081  12.728  21.669  11.568
 9789W        W82082   9.672  14.613  12.017
 9790W        W82083  43.429   3.738   1.317
 9791W        W82084  29.072   4.432   3.765
 9792W        W82085  36.905  19.240  12.092
 9793W        W82086  38.389  21.596  11.091
 9794W        W82087   5.696  10.826  10.916
 9795W        W82088  32.034   3.950  10.635
 9796W        W82089   5.317  38.380  12.982
 9797W        W82090  10.244   7.373  13.969
 9798W        W82091  18.557  10.714  13.839
 9799W        W82092  19.157  19.768   1.738
 9800W        W82093  42.472  14.195  10.623
 9801W        W82094  14.300  42.789   0.458
 9802W        W82095  34.110  26.698   1.403
 9803W        W82096  22.119   6.343  14.010
 9804W        W82097  19.758  18.234  14.960
 9805W        W82098   8.705  37.568  12.853
 9806W        W82099   8.776  18.098  14.026
 9807W        W82100  39.480   9.266   4.646
 9808W        W82101  33.392  18.675  11.905
 9809W        W82102   8.244  18.786   1.215
 9810W        W82103  15.705  20.171  12.573
 9811W        W82104  18.684   0.382  11.442
 9812W        W82105  32.490  44.970   0.849
 9813W        W82106  21.264  13.134  12.008
 9814W        W82107  39.836  10.166  14.389
 9815W        W82108  13.287  31.616   4.147
 9816W        W82109  28.528  17.175  14.408
 9817W        W82110   6.285  24.004  13.380
 9818W        W82111  26.954  11.261  13.324
 9819W        W82112  25.970  44.806  14.983
 9820W        W82113  11.297   8.763   0.250
 9821W        W82114  25.495  31.434   2.296
 9822W        W82115   7.777  21.147   2.325
 9823W        W82116  10.685  21.512  11.425
 9824W        W82117  25.528  15.262   3.685
 9825W        W82118  34.873   1.809  12.489
 9826W        W82119  21.755   9.807  13.511
 9827W        W82120  24.203  37.049  11.998
 9828W        W82121  10.874   8.272   1.267
 9829W        W82122   3.909   7.753   4.672
 9830W        W82123  15.580   9.700   4.320
 9831W        W82124  11.639  41.516   5.278
 9832W        W82125   5.850  39.817   3.720
 9833W        W82126  19.130  32.912   3.667
 9834W        W82127  38.979  15.137   0.836
 9835W        W82128  38.423  38.382  12.568
 9836W        W82129  32.129  44.847  11.886
 9837W        W82130  25.634  39.842   2.389
 9838W        W82131  36.350  42.875  12.412
 9839W        W82132   9.330   1.968  11.525
 9840W        W82133   1.443  35.484  12.440
 9841W        W82134  33.895   6.427  14.309
 9842W        W82135  25.202  14.261  13.000
 9843W        W82136   0.486  14.765  11.981
 9844W        W82137  17.641  43.365  11.041
 9845W        W82138   2.722  20.096  12.489
 9846W        W82139  17.298  17.145   3.159
 9847W        W82140  39.997   2.759   4.667
 9848W        W82141  34.923   2.361   3.798
 9849W        W82142  10.837   3.416   1.390
 9850W        W82143  44.851  17.148  11.024
 9851W        W82144  39.390   9.752   2.247
 9852W        W82145  23.142  25.070   1.219
 9853W        W82146   2.830  32.578   1.449
 9854W        W82147  27.941  14.126  12.832
 9855W        W82148  31.570   4.801  13.010
 9856W        W82149  15.623  44.840  12.438
 9857W        W82150  13.213   5.842   3.696
 9858W        W82151  30.067  41.397  14.408
 9859W        W82152   3.894   1.895  13.955
 9860W        W82153  29.555   3.247  14.504
 9861W        W82154  30.911  38.916   4.790
 9862W        W82155  36.846  10.781   1.871
 9863W        W82156   9.823  30.964   2.815
 9864W        W82157   8.722  35.861   2.838
 9865W        W82158   1.892  37.846  12.938
 9866W        W82159  12.129  22.606   2.271
 9867W        W82160  25.091  16.784   0.941
 9868W        W82161  22.046   8.237   1.765
 9869W        W82162  22.091  44.365  11.918
 9870W        W82163  12.662  35.423  12.379
 9871W        W82164  26.136  25.691  13.353
 9872W        W82165  42.901  28.633   0.376
 9873W        W82166  41.531  20.537  13.414
 9874W        W82167  15.094  28.592  10.405
 9875W        W82168  10.258  38.556  10.554
 9876W        W82169  38.967   8.702   4.783
 9877W        W82170  30.448  30.095  11.536
 9878W        W82171  10.689  22.548   4.158
 9879W        W82172  30.924   8.377   3.695
 9880W        W82173   8.290  25.193   3.754
 9881W        W82174  37.970  19.778   1.330
 9882W        W82175   0.309   3.362   1.927
 9883W        W82176  42.915  10.265  13.927
 9884W        W82177  12.208  17.235  14.293
 9885W        W82178   9.687  30.018  13.032
 9886W        W82179  10.790  12.814   0.851
 9887W        W82180   1.861  34.537  11.957
 9888W        W82181  13.724  13.251   1.931
 9889W        W82182  28.082  12.766  14.456
 9890W        W82183  36.479   0.344   4.827
 9891W        W82184  22.724   3.899  14.290
 9892W        W82185  17.107  10.665   0.274
 9893W        W82186  40.868  31.956   3.150
 9894W        W82187  20.190  18.637   2.757
 9895W        W82188  31.643   8.866   3.661
 9896W        W82189  31.516  34.612   0.747
 9897W        W82190   4.314  26.475   2.772
 9898W        W82191  33.005  31.925  11.984
 9899W        W82192  38.915   3.221   0.732
 9900W        W82193  15.259  36.370   4.116
 9901W        W82194  44.326  36.091  14.848
 9902W        W82195  19.672  13.330   2.692
 9903W        W82196   2.407  18.730   0.414
 9904W        W82197   9.150  16.246   1.317
 9905W        W82198   5.204   3.330   0.280
 9906W        W82199  15.101  22.030   4.684
 9907W        W82200  34.973  23.007   0.956
 9908W        W82201  40.543  21.221   0.963
 9909W        W82202  36.463  23.004  14.505
 9910W        W82203  38.522  38.854  10.514
 9911W        W82204   4.341  18.713   1.807
 9912W        W82205   3.946  42.355  12.930
 9913W        W82206   8.782   3.921  11.048
 9914W        W82207  19.261  32.636   4.633
 9915W        W82208   8.171  27.515  13.061
 9916W        W82209  32.478  32.582  11.896
 9917W        W82210  16.308  25.559   3.734
 9918W        W82211  44.353  19.622   2.730
 9919W        W82212  29.020  19.241   1.406
 9920W        W82213  38.885  24.183   0.475
 9921W        W82214  32.432  18.252  14.800
 9922W        W82215  15.141  23.594  13.444
 9923W        W82216  35.955  37.510  10.916
 9924W        W82217  10.741  38.859  14.916
 9925W        W82218   9.735  10.215  10.937
 9926W        W82219  24.152  14.187  10.419
 9927W        W82220  27.958   4.220   1.217
 9928W        W82221   4.939  21.097  12.434
 9929W        W82222  29.651  41.342  13.892
 9930W        W82223  40.901  18.759  11.487
 9931W        W82224   7.711  40.395   2.865
 9932W        W82225  25.584  33.600   0.256
 9933W        W82226   1.824  44.283  10.608
 9934W        W82227   8.270  25.485   0.411
 9935W        W82228  22.034   4.908  12.353
 9936W        W82229  13.137  17.143   4.186
 9937W        W82230   8.172  23.615  12.365
 9938W        W82231  21.195   8.226   2.834
 9939W        W82232  18.216  25.068  13.883
 9940W        W82233  42.516   5.802  11.859
 9941W        W82234  31.451   7.343   2.802
 9942W        W82235  30.632  44.821  14.782
 9943W        W82236  34.962   2.911  11.923
 9944W        W82237  25.138   3.432  14.423
 9945W        W82238  38.027  22.617   0.431
 9946W        W82239  11.349  40.874   1.761
 9947W        W82240   7.770  40.385   0.480
 9948W        W82241  38.448  37.545   3.254
 9949W        W82242  36.034  37.969   4.632
 9950W        W82243  41.328  36.578   1.221
 9951W        W82244  24.146  24.538   3.203
 9952W        W82245   1.944  29.045  11.057
 9953W        W82246  31.631  42.984   3.223
 9954W        W82247  13.132  28.438   4.758
 9955W        W82248  32.900  36.984  10.953
 9956W        W82249  12.840  22.704  10.998
 9957W        W82250  34.066  37.455   0.763
 9958W        W82251  34.599   5.693   0.266
 9959W        W82252   0.303  42.460  12.346
 9960W        W82253   4.312  36.434   1.258
 9961W        W82254   0.806  11.367   1.852
 9962W        W82255  18.243   2.297   0.258
 9963W        W82256  41.523  16.214  13.411
 9964W        W82257   8.888  31.037  11.980
 9965W        W82258  44.849  23.055  14.318
 9966W        W82259  15.710  24.187   2.365
 9967W        W82260  44.945   1.942   1.260
 9968W        W82261  28.598   1.978   3.829
 9969W        W82262  25.552   0.281  10.631
 9970W        W82263  16.265  27.664  11.892
 9971W        W82264  17.634  23.049   0.371
 9972W        W82265   2.265  16.650  11.492
 9973W        W82266  41.825   9.317  13.024
 9974W        W82267  15.110  12.205   1.341
 9975W        W82268  11.144  34.453  12.017
 9976W        W82269   5.806  40.440   0.317
 9977W        W82270  41.460  30.481  14.301
 9978W        W82271  30.535  39.876   1.795
 9979W        W82272  21.591  28.044  12.004
 9980W        W82273   2.392  10.674  14.496
 9981W        W82274  35.984   0.392   0.746
 9982W        W82275  31.152  11.300   3.249
 9983W        W82276   1.879  19.737   1.698
 9984W        W82277  38.562  21.048   1.888
 9985W        W82278  19.695  18.773   0.958
 9986W        W82279   1.369  29.566  13.947
 9987W        W82280  35.436  40.838  10.509
 9988W        W82281  26.525  27.645   2.854
 9989W        W82282  14.821  18.210   1.785
 9990W        W82283  19.099  13.341  12.979
 9991W        W82284  44.467   5.811  11.473
 9992W        W82285  31.550  33.524  13.960
 9993W        W82286   8.297  25.141  14.781
 9994W        W82287  39.969  25.102   2.754
 9995W        W82288  38.075  11.825  13.458
 9996W        W82289  27.083  33.997  12.522
 9997W        W82290  10.804  40.997   1.707
 9998W        W82291  30.116  33.535  13.843
 9999W        W82292  15.222  39.349  14.830
10000W        W82293   0.962  18.693   1.390
10001W        W82294  12.734  40.419  12.562
10002W        W82295  30.924  10.343  14.879
10003W        W82296  38.066  37.403   3.320
10004W        W82297  44.863  37.081   2.789
10005W        W82298  17.095   5.259  11.453
10006W        W82299  21.675  16.703   0.390
10007W        W82300  35.887  10.633   2.698
10008W        W82301   0.858  31.952   9.984
10009W        W82302  41.954   6.251   0.861
10010W        W82303  39.514  14.262  12.354
10011W        W82304   9.343  14.803   0.778
10012W        W82305  30.590   8.183   0.850
10013W        W82306  10.861  30.050   3.170
10014W        W82307  15.747  25.045   1.714
10015W        W82308  26.508   7.770   1.380
10016W        W82309   9.210  14.143   0.270
10017W        W82310  38.829  25.524  14.505
10018W        W82311  41.330  24.146  14.020
10019W        W82312   8.778  37.876   4.170
10020W        W82313  28.100   2.392  10.153
10021W        W82314   0.743  42.315   1.809
10022W        W82315   0.798  19.236   0.255
10023W        W82316  12.242  24.093  10.468
10024W        W82317  42.339   1.479  12.498
10025W        W82318  15.127  30.581  11.905
10026W        W82319  20.727  24.674  14.789
10027W        W82320  33.552  35.929  13.822
10028W        W82321  39.519  29.463   1.808
10029W        W82322  11.285  38.005  12.084
10030W        W82323  44.975  21.205   1.935
10031W        W82324  29.030   5.699  14.382
10032W        W82325   5.865  31.437  14.872
10033W        W82326   5.785   5.345  12.363
10034W        W82327  40.532  44.343  10.644
10035W        W82328  25.205  21.732   3.234
10036W        W82329   8.661  42.954   3.841
10037W        W82330  38.893  41.522   4.240
10038W        W82331  10.197  44.463  12.897
10039W        W82332   3.282  32.427   0.274
10040W        W82333  35.972  32.567  10.635
10041W        W82334  20.655   9.274  10.506
10042W        W82335   0.438   0.980  11.877
10043W        W82336   8.755  41.041   4.672
10044W        W82337  17.255  13.638   0.321
10045W        W82338  34.442  19.136   4.600
10046W        W82339  34.508   0.781   3.151
10047W        W82340  10.750  18.637   2.386
10048W        W82341   5.271  11.843   3.384
10049W        W82342  19.659  25.978  12.568
10050W        W82343  22.714   9.873  14.318
10051W        W82344  18.565  13.186  13.361
10052W        W82345  14.697  28.964   3.348
10053W        W82346  36.587  39.378  14.454
10054W        W82347  33.500  24.564  11.563
10055W        W82348  30.119   3.327  12.974
10056W        W82349   4.298  12.301   1.886
10057W        W82350   9.765  18.640  11.055
10058W        W82351  26.515   5.869   0.261
10059W        W82352  25.147  29.998   3.768
10060W        W82353   2.412  37.868  10.930
10061W        W82354  15.653  21.131   5.213
10062W        W82355  11.276  30.615  13.516
10063W        W82356  19.113  12.827   1.900
10064W        W82357  13.144  14.100  14.334
10065W        W82358  44.500  41.348  10.461
10066W        W82359   5.196  37.922  11.004
10067W        W82360  10.180  19.105   3.682
10068W        W82361  10.787  35.374   0.731
10069W        W82362  15.662  14.607  12.377
10070W        W82363  40.890  28.505   2.706
10071W        W82364  28.107  37.491   5.182
10072W        W82365   6.376  40.397   1.864
10073W        W82366  12.829  37.940   4.194
10074W        W82367  41.016  32.112   0.791
10075W        W82368   1.401   4.785  12.558
10076W        W82369  26.993  26.550   2.846
10077W        W82370  35.072  11.218   0.247
10078W        W82371  31.560   3.926  14.415
10079W        W82372  36.593  12.780  10.019
10080W        W82373   6.361  12.208   3.286
10081W        W82374   6.357  24.639   0.394
10082W        W82375  31.912  17.117   4.319
10083W        W82376  27.536  39.831  13.045
10084W        W82377  31.065  24.120  12.023
10085W        W82378  38.018  25.133  14.870
10086W        W82379  39.532  36.979   4.293
10087W        W82380  33.120  10.358   5.089
10088W        W82381   2.321  40.810   4.810
10089W        W82382   6.749  39.503   0.268
10090W        W82383  37.975  34.082   2.705
10091W        W82384  11.864   1.977   3.194
10092W        W82385  32.024  36.868   4.748
10093W        W82386  28.121   8.303   1.418
10094W        W82387  19.154  34.386  13.842
10095W        W82388   2.268  11.791   3.302
10096W        W82389  37.882  19.706  11.398
10097W        W82390  33.536  42.961  11.890
10098W        W82391  23.538   0.427   3.182
10099W        W82392  40.929   8.246   3.181
10100W        W82393   1.394  13.744   2.356
10101W        W82394   7.887  16.768   3.187
10102W        W82395  14.630   2.873   0.737
10103W        W82396  14.797  26.632   5.122
10104W        W82397   9.652  23.172  14.832
10105W        W82398  11.328  13.348  13.459
10106W        W82399   6.825   7.366   3.802
10107W        W82400   3.322  24.597   0.913
10108W        W82401   3.354  44.999   3.727
10109W        W82402  32.032   6.220   4.263
10110W        W82403   0.837  24.007   4.344
10111W        W82404  29.480  40.486  14.504
10112W        W82405  13.236  23.676  12.024
10113W        W82406  13.175  39.984  11.422
10114W        W82407   6.345  30.120  13.841
10115W        W82408  37.545  26.023   1.367
10116W        W82409   8.313  38.849  14.505
10117W        W82410  33.606  33.914  10.949
10118W        W82411  16.211  23.036   0.730
10119W        W82412  33.916   4.856   2.358
10120W        W82413  20.580  20.707  14.879
10121W        W82414  20.768  28.536   4.762
10122W        W82415  20.755  43.994  11.954
10123W        W82416  19.122  16.202  12.043
10124W        W82417  44.338  30.447  10.108
10125W        W82418  41.426  38.988  11.880
10126W        W82419  34.562  43.797  11.418
10127W        W82420  27.594   1.369   0.274
10128W        W82421   9.805  36.530  12.578
10129W        W82422   7.716  22.175   2.819
10130W        W82423  42.797  38.403   2.351
10131W        W82424  11.711   7.233   2.817
10132W        W82425  41.301  12.256   1.284
10133W        W82426  30.450  16.643   2.760
10134W        W82427  32.117   6.858   1.398
10135W        W82428  35.931   9.218  11.417
10136W        W82429  25.978  33.945  13.853
10137W        W82430  19.260  19.061  13.050
10138W        W82431  18.588  28.179  14.357
10139W        W82432  30.156   6.354  10.621
10140W        W82433  24.041  30.932  10.995
10141W        W82434  10.751  11.282   1.890
10142W        W82435   7.279  31.992  12.951
10143W        W82436  37.465  21.709   5.259
10144W        W82437  22.074  24.052   3.681
10145W        W82438  29.996  25.703  13.855
10146W        W82439  43.395   4.886  11.586
10147W        W82440  38.056   4.833  13.001
10148W        W82441  10.837   1.376  10.514
10149W        W82442  11.804  37.527   0.337
10150W        W82443  15.175  35.926   2.745
10151W        W82444  10.201  43.909   2.717
10152W        W82445  10.291  43.418   3.166
10153W        W82446   5.291   8.383  11.576
10154W        W82447   2.353  41.453  11.007
10155W        W82448   3.872  30.940   3.660
10156W        W82449  17.761  38.853   4.278
10157W        W82450  35.967  43.918   0.739
10158W        W82451  44.817  43.282   2.867
10159W        W82452   7.884  18.185  10.114
10160W        W82453  28.977  15.289   0.814
10161W        W82454  21.230   7.733  13.926
10162W        W82455  12.645   5.264  12.906
10163W        W82456  34.067  10.337  14.785
10164W        W82457  23.505  21.095   3.673
10165W        W82458   7.406   1.288   2.194
10166W        W82459  15.761  35.370  11.049
10167W        W82460  24.512  16.082  10.425
10168W        W82461   7.369  29.596   1.729
10169W        W82462  16.078  32.574  14.006
10170W        W82463  25.095  12.350  12.928
10171W        W82464   3.298  19.582   2.187
10172W        W82465  13.641  12.240   2.244
10173W        W82466  33.884  22.153  13.818
10174W        W82467  24.081  36.084  11.562
10175W        W82468  12.822  39.889   1.795
10176W        W82469  40.483  31.433   0.913
10177W        W82470  36.528  42.860  11.416
10178W        W82471  16.769  39.862   1.786
10179W        W82472  35.575  18.188   2.268
10180W        W82473   3.426  25.566  12.434
10181W        W82474  28.098   1.761  14.982
10182W        W82475  21.211  42.311   2.720
10183W        W82476  11.752  10.760   4.609
10184W        W82477  31.562  16.684  11.050
10185W        W82478  13.652  28.042  13.863
10186W        W82479   9.878  27.544   1.727
10187W        W82480  19.646   4.286  11.862
10188W        W82481   2.889  30.164  11.542
10189W        W82482  42.825   4.424  14.824
10190W        W82483  37.384  39.825   3.693
10191W        W82484  25.150   0.445  11.517
10192W        W82485  37.868  20.652  14.498
10193W        W82486  28.499  11.289  11.876
10194W        W82487  44.457   7.675   3.324
10195W        W82488  27.570   3.453   1.708
10196W        W82489  44.832  40.003  12.860
10197W        W82490  11.747  24.608   2.283
10198W        W82491  12.761  26.963  13.906
10199W        W82492  36.966  26.612  13.968
10200W        W82493  22.508   3.245   3.742
10201W        W82494  39.848   1.849   1.337
10202W        W82495   4.286  13.708   2.898
10203W        W82496  39.870  34.026  11.054
10204W        W82497  14.200  37.934   4.706
10205W        W82498  13.184  20.132   3.652
10206W        W82499  39.480  10.296  14.987
10207W        W82500  31.947  25.491   5.088
10208W        W82501   0.829   1.851  10.613
10209W        W82502  41.010  27.028  13.845
10210W        W82503  11.814  25.101  12.839
10211W        W82504  37.844  11.775   2.693
10212W        W82505  31.962  30.633   4.828
10213W        W82506  44.780   2.437   4.230
10214W        W82507  19.711  21.069   0.827
10215W        W82508  43.324  15.753  10.452
10216W        W82509  16.075  28.030   0.347
10217W        W82510  14.338  10.767  14.807
10218W        W82511  15.683   4.756   2.860
10219W        W82512  35.519  42.850   4.687
10220W        W82513  40.839  42.843  13.467
10221W        W82514  23.178   9.216  13.014
10222W        W82515  36.495  10.145  11.497
10223W        W82516  21.563  30.437   3.314
10224W        W82517  30.067  31.595   2.274
10225W        W82518  21.120  11.700   4.246
10226W        W82519  43.402  39.893  12.951
10227W        W82520  37.340  36.475   5.204
10228W        W82521   8.835  29.428  11.992
10229W        W82522  42.381  20.130   1.759
10230W        W82523  13.654  12.351   0.280
10231W        W82524   1.826  33.444  13.971
10232W        W82525   6.690   9.379   0.257
10233W        W82526  25.027  14.296   2.225
10234W        W82527  44.488  11.837  13.490
10235W        W82528  42.787  11.800   1.777
10236W        W82529  40.848  11.262   0.439
10237W        W82530  19.667  17.187   0.793
10238W        W82531  31.507   0.327  10.425
10239W        W82532  31.119  37.007  11.396
10240W        W82533  40.968  22.664   0.919
10241W        W82534   9.833   8.200   4.322
10242W        W82535  10.172   9.351   1.794
10243W        W82536   8.163  25.145   0.451
10244W        W82537  15.213  23.130   0.355
10245W        W82538  10.638  12.206   3.737
10246W        W82539  20.645  42.817   2.684
10247W        W82540  19.620  16.178   1.406
10248W        W82541   4.213  38.482   0.891
10249W        W82542  44.457   5.405  12.888
10250W        W82543  35.562  23.230  10.954
10251W        W82544  33.460  31.059  14.771
10252W        W82545  13.674  27.471   4.337
10253W        W82546  43.008  16.732   1.394
10254W        W82547  39.528  19.752  14.460
10255W        W82548  26.111  19.534  14.952
10256W        W82549  23.637  27.506   4.210
10257W        W82550  12.753   1.295  10.403
10258W        W82551  35.000  22.173   4.317
10259W        W82552   8.735  33.935  11.115
10260W        W82553   3.308  13.752  11.433
10261W        W82554  35.357  25.212  11.913
10262W        W82555  25.212  41.530   4.124
10263W        W82556  42.338   1.791  13.873
10264W        W82557   0.758   6.682  12.865
10265W        W82558  21.514  12.353   0.297
10266W        W82559  23.193   7.281   3.646
10267W        W82560  42.296  32.453  14.365
10268W        W82561  31.425   1.764   4.656
10269W        W82562  25.554  28.606  11.973
10270W        W82563  28.617  30.436   3.154
10271W        W82564  39.540   2.333   3.835
10272W        W82565  15.766  15.235   4.641
10273W        W82566  28.153  34.079  11.858
10274W        W82567   7.715  10.167  13.900
10275W        W82568  13.718  34.010  14.404
10276W        W82569  30.657  15.664  11.993
10277W        W82570  20.056  19.237  13.827
10278W        W82571  27.948  14.222   1.792
10279W        W82572  15.702   2.426  11.449
10280W        W82573   1.482  16.228  14.329
10281W        W82574  31.559  12.786   2.859
10282W        W82575   8.254  13.656  10.941
10283W        W82576  28.466  23.160  11.036
10284W        W82577  40.976   6.856  10.635
10285W        W82578   8.798  43.929   1.727
10286W        W82579  29.652   6.358  14.491
10287W        W82580  16.708  33.007  12.932
10288W        W82581  44.338  40.864   0.819
10289W        W82582  32.088  39.515  14.952
10290W        W82583  35.558  22.735   1.414
10291W        W82584  25.043  41.454   4.819
10292W        W82585  32.916  43.995  14.500
10293W        W82586  40.939  24.528   2.183
10294W        W82587  12.335  10.660   1.886
10295W        W82588  38.901  18.064   0.862
10296W        W82589   4.859  34.532  14.878
10297W        W82590   0.948   6.755   3.319
10298W        W82591   3.287  33.130  13.940
10299W        W82592  40.024   6.892  11.875
10300W        W82593  39.983  10.663  13.329
10301W        W82594  35.955  23.557   2.277
10302W        W82595  27.483   9.163   3.743
10303W        W82596  35.604  29.439  11.053
10304W        W82597  16.709  39.346  12.909
10305W        W82598  18.200  30.499  11.026
10306W        W82599  41.905   9.801  10.549
10307W        W82600  31.451  17.676   3.227
10308W        W82601   2.894  39.369   3.806
10309W        W82602  20.054  11.787   4.812
10310W        W82603   6.270  13.267  14.399
10311W        W82604   0.909  27.677  11.514
10312W        W82605   1.337  41.884   0.794
10313W        W82606  36.401  34.003  12.377
10314W        W82607  10.189   1.414   1.430
10315W        W82608  16.105  16.240   4.750
10316W        W82609  19.558  42.383   3.372
10317W        W82610  28.175  13.108  14.029
10318W        W82611  40.952   9.338   2.840
10319W        W82612  41.896   1.478   3.216
10320W        W82613  31.062  30.416  11.561
10321W        W82614  33.108  41.032  11.068
10322W        W82615  33.096  27.098   4.114
10323W        W82616  25.018  36.524  12.872
10324W        W82617   2.894   8.168  14.867
10325W        W82618   6.231  36.865   2.898
10326W        W82619  39.462   9.391   4.233
10327W        W82620  27.558  34.878   1.305
10328W        W82621  30.640  10.668   3.155
10329W        W82622  43.978  43.921  12.406
10330W        W82623  34.909   6.288   0.845
10331W        W82624  21.186  31.052   4.659
10332W        W82625   7.704  16.652   2.761
10333W        W82626   9.185   4.806   0.380
10334W        W82627  13.658  28.487  11.380
10335W        W82628  26.962  29.477   1.257
10336W        W82629  43.350  36.531   4.602
10337W        W82630  32.089   0.978  13.987
10338W        W82631  10.174  43.840  13.816
10339W        W82632  19.177  34.010   1.261
10340W        W82633  17.788  28.952   1.711
10341W        W82634  32.572   7.907  11.969
10342W        W82635  23.989  42.861   4.198
10343W        W82636  42.025   0.268   9.967
10344W        W82637  15.645   0.256   0.907
10345W        W82638  23.027  25.657  11.054
10346W        W82639  19.225   7.774   0.873
10347W        W82640  10.331  44.343   0.905
10348W        W82641   6.859  14.133   1.793
10349W        W82642  38.045  34.896  14.953
10350W        W82643  44.815  38.838  14.378
10351W        W82644  25.512  26.679  12.853
10352W        W82645  25.617  22.672   1.780
10353W        W82646  24.005   0.393  12.057
10354W        W82647  19.588  20.609   1.802
10355W        W82648  26.086  32.468  11.869
10356W        W82649  36.471   4.867   4.674
10357W        W82650  17.756  39.884   1.438
10358W        W82651  27.627  41.293  12.457
10359W        W82652  16.198  22.175  12.555
10360W        W82653  30.912   3.456  14.847
10361W        W82654  29.445   7.813  11.611
10362W        W82655   6.209  40.392   4.309
10363W        W82656  36.583  29.982   3.343
10364W        W82657  37.421  15.614   0.363
10365W        W82658  13.137   4.325   1.709
10366W        W82659  16.717  32.046  12.405
10367W        W82660   5.836  40.458   4.837
10368W        W82661   6.844  20.718   0.255
10369W        W82662  42.877  14.207  13.479
10370W        W82663  26.540  33.008   3.770
10371W        W82664  41.885  17.188   1.699
10372W        W82665  13.643  13.802   3.688
10373W        W82666  22.740  25.624  13.475
10374W        W82667  26.167  22.187  12.420
10375W        W82668  17.598  41.930  12.887
10376W        W82669   9.295  38.964   0.764
10377W        W82670  14.311  33.936  14.349
10378W        W82671   2.299  24.583  14.455
10379W        W82672  30.554   3.896   4.715
10380W        W82673  39.870  33.919  14.853
10381W        W82674  41.440  10.779   2.280
10382W        W82675  44.760  32.052   3.828
10383W        W82676  24.713  11.804  13.329
10384W        W82677  39.429  32.070   3.644
10385W        W82678  21.702  35.527  14.490
10386W        W82679  11.661  10.720  14.977
10387W        W82680  38.507   1.956   4.684
10388W        W82681   3.726  28.466   3.246
10389W        W82682  38.821  17.642   3.333
10390W        W82683  40.482  19.740   5.216
10391W        W82684  14.825  26.643  13.914
10392W        W82685   1.791  16.090   2.880
10393W        W82686   0.886  28.535  12.954
10394W        W82687  42.877   0.904  10.153
10395W        W82688  43.281   5.379  12.857
10396W        W82689  16.076  27.085  10.552
10397W        W82690  20.686  37.386  12.005
10398W        W82691   7.739  20.693  11.856
10399W        W82692  19.227   8.176  14.425
10400W        W82693  42.365   0.954   2.212
10401W        W82694   5.246  25.549  14.888
10402W        W82695  17.285  41.404  11.945
10403W        W82696  40.358  34.010  13.308
10404W        W82697  43.960  19.649   0.917
10405W        W82698  34.403  18.695  12.868
10406W        W82699  36.849   0.299  13.366
10407W        W82700  13.800   7.233   3.157
10408W        W82701  14.727   8.369   2.386
10409W        W82702  41.828   1.746  14.416
10410W        W82703  44.873   1.749   1.800
10411W        W82704  21.731  27.196  14.296
10412W        W82705  31.149  29.449  13.860
10413W        W82706   3.280  41.413   0.350
10414W        W82707  16.588   9.355   1.367
10415W        W82708  31.610   1.815  10.558
10416W        W82709   7.897   1.416   2.350
10417W        W82710  29.088  39.487   4.269
10418W        W82711  31.937   7.179  13.378
10419W        W82712  27.987   0.264   4.656
10420W        W82713  25.497  38.021   2.780
10421W        W82714  37.948  21.585   2.232
10422W        W82715  31.898   6.818  14.423
10423W        W82716  37.539  11.168   2.348
10424W        W82717  35.446  28.006  13.547
10425W        W82718  35.537  36.030   1.443
10426W        W82719  12.341  39.495   1.901
10427W        W82720  12.711   3.731   2.688
10428W        W82721  30.139  31.552  10.567
10429W        W82722  15.734   0.944  12.046
10430W        W82723  13.263   3.867   0.358
10431W        W82724   4.403   0.458   3.350
10432W        W82725  32.936  15.611  13.371
10433W        W82726  17.216  24.091  12.360
10434W        W82727   4.921  12.792   4.231
10435W        W82728  24.218   5.335   3.234
10436W        W82729  39.895   6.702  12.430
10437W        W82730  15.214   0.253   1.416
10438W        W82731  37.915  18.219   0.841
10439W        W82732   5.867  27.571   4.795
10440W        W82733  31.516   0.822   4.649
10441W        W82734  32.957   7.331   2.405
10442W        W82735   2.779  24.009   0.919
10443W        W82736   1.435   9.210  10.905
10444W        W82737   5.226   1.945   4.761
10445W        W82738  24.002  20.030   3.768
10446W        W82739  11.141   6.269   0.354
10447W        W82740   6.775  40.347  13.419
10448W        W82741  30.606  16.644  11.909
10449W        W82742  23.014  29.161  11.488
10450W        W82743  27.497  13.722   1.755
10451W        W82744   2.871  19.129   0.478
10452W        W82745  29.492   1.879   5.166
10453W        W82746   9.779   9.836  13.886
10454W        W82747  31.503  27.510   3.766
10455W        W82748   2.343  44.384   4.209
10456W        W82749  20.036  40.000   1.900
10457W        W82750  10.679  26.683  13.452
10458W        W82751  27.089  36.083   3.380
10459W        W82752   1.342  40.409  11.539
10460W        W82753  26.458  24.498   1.414
10461W        W82754   5.205  43.875  11.588
10462W        W82755  35.026  11.172  11.426
10463W        W82756   8.399  31.093   4.803
10464W        W82757  14.668   7.753  13.497
10465W        W82758  10.853  28.585  10.630
10466W        W82759  39.873  42.825  11.553
10467W        W82760  29.927  21.111   3.648
10468W        W82761  32.597  23.636  11.439
10469W        W82762  36.866  21.257  11.098
10470W        W82763  42.784   0.814  12.352
10471W        W82764   2.926   8.169   4.326
10472W        W82765  35.451   7.848  10.579
10473W        W82766  32.123  27.643   3.210
10474W        W82767   6.713  34.458   3.281
10475W        W82768  23.223  29.920  11.611
10476W        W82769  36.522   2.323   0.423
10477W        W82770  38.436  42.283  13.850
10478W        W82771   6.270   2.433   1.717
10479W        W82772  18.293  37.966  13.410
10480W        W82773  40.537  39.927  10.553
10481W        W82774  41.016  41.529   0.283
10482W        W82775   5.328  15.721   3.806
10483W        W82776  10.383   5.858   3.658
10484W        W82777  24.089  34.604  14.843
10485W        W82778  44.839   5.275   0.306
10486W        W82779  32.545  32.464   3.305
10487W        W82780  16.767  22.010   1.349
10488W        W82781   7.360  26.123   1.373
10489W        W82782  42.293  19.140  11.870
10490W        W82783  33.498   5.230  11.030
10491W        W82784  11.360  37.012   4.277
10492W        W82785  27.099  18.215   0.821
10493W        W82786  42.833  17.141  13.504
10494W        W82787  11.184   8.830  14.817
10495W        W82788   7.889  16.682   0.727
10496W        W82789  23.098  44.345  13.318
10497W        W82790  27.499  26.965   0.818
10498W        W82791  29.039  25.594  12.916
10499W        W82792  11.713  43.456  12.039
10500W        W82793   3.349  23.676  12.041
10501W        W82794  21.179  26.646  12.466
10502W        W82795  15.243  34.994   1.902
10503W        W82796   4.874  39.321  11.072
10504W        W82797  23.626   1.778   4.692
10505W        W82798   8.823  27.664   1.827
10506W        W82799  39.000  41.870  14.317
10507W        W82800  24.202   6.391   1.921
10508W        W82801   6.282  44.304  14.992
10509W        W82802  33.431  19.192  13.471
10510W        W82803  23.669  33.448  12.440
10511W        W82804  28.003  40.879   3.635
10512W        W82805  19.671  41.443  13.518
10513W        W82806  25.094  39.426   4.178
10514W        W82807  37.885   1.389  13.339
10515W        W82808   7.883  19.672  14.490
10516W        W82809   7.869  31.413   1.819
10517W        W82810   4.376  42.311   1.293
10518W        W82811   6.777  41.990   2.411
10519W        W82812  36.438  19.254   4.208
10520W        W82813  43.343  36.876  11.382
10521W        W82814   5.408  11.261  13.906
10522W        W82815  23.044  35.036   1.314
10523W        W82816  22.703  36.358  13.509
10524W        W82817   7.181   6.899  12.978
10525W        W82818   8.373  22.174  10.613
10526W        W82819  29.032  39.515   3.177
10527W        W82820   7.369  13.224   2.192
10528W        W82821  21.040  39.934  10.930
10529W        W82822  22.129  42.455   2.819
10530W        W82823  17.121  28.979  13.980
10531W        W82824  41.310   2.261   1.394
10532W        W82825  21.526   7.860  11.895
10533W        W82826  10.680  33.882   4.344
10534W        W82827  32.995  44.483  10.435
10535W        W82828  15.747   0.385   0.386
10536W        W82829  43.773  43.461  12.413
10537W        W82830  29.123   4.935  13.931
10538W        W82831  16.104  36.445   1.906
10539W        W82832  43.289  42.495  14.375
10540W        W82833  40.332   8.827   9.930
10541W        W82834  26.029  27.101  13.984
10542W        W82835  23.131  13.224   2.182
10543W        W82836  16.575  26.531   0.449
10544W        W82837  30.607  32.068   2.880
10545W        W82838   1.917  26.198   0.787
10546W        W82839  33.480  19.549   1.221
10547W        W82840   1.752  16.690  12.946
10548W        W82841  22.679   2.442  13.401
10549W        W82842   1.930  31.591  14.836
10550W        W82843  32.014   3.263  12.893
10551W        W82844  44.454  18.585  12.507
10552W        W82845  33.103  34.546   2.685
10553W        W82846  31.043  14.203   1.872
10554W        W82847  11.795  22.692  10.931
10555W        W82848  22.010  19.694   1.703
10556W        W82849  24.229   2.823  12.341
10557W        W82850  16.766  36.593   3.287
10558W        W82851  18.070  12.254   4.269
10559W        W82852   9.228  31.527  11.955
10560W        W82853  28.931  12.723  13.010
10561W        W82854   7.273  42.426  11.451
10562W        W82855  33.483  31.082   4.804
10563W        W82856  35.012  29.459   0.947
10564W        W82857  27.569   5.294  13.434
10565W        W82858  31.497  31.410   1.723
10566W        W82859  18.211  43.443   1.922
10567W        W82860  19.284  32.394  14.423
10568W        W82861  14.792  20.630   0.759
10569W        W82862  39.475  42.966  13.842
10570W        W82863   2.754  31.425   2.808
10571W        W82864  29.434  18.659  12.380
10572W        W82865   5.439  15.117  14.839
10573W        W82866  16.689  13.738   0.730
10574W        W82867  19.185  32.979   4.231
10575W        W82868  14.296  21.610   1.373
10576W        W82869  21.713  21.132   3.823
10577W        W82870  19.683  30.481   9.593
10578W        W82871  42.006  13.341  12.556
10579W        W82872  34.966  44.775  11.542
10580W        W82873  13.307  36.892  12.571
10581W        W82874  10.703   4.698   2.881
10582W        W82875  32.481  11.327   4.296
10583W        W82876  43.003  43.399   2.254
10584W        W82877  33.431   9.646  14.351
10585W        W82878  32.073  35.984   4.266
10586W        W82879  43.955  21.587   1.717
10587W        W82880  35.073   5.426   0.352
10588W        W82881  42.928  26.133  14.843
10589W        W82882  11.742  17.689   1.878
10590W        W82883   5.713  16.223   0.281
10591W        W82884   2.433  14.799  10.477
10592W        W82885   6.864  24.196   4.307
10593W        W82886  42.333  34.058   1.695
10594W        W82887  23.994  11.356  12.013
10595W        W82888  29.599   7.373   4.341
10596W        W82889  35.865  35.366   2.887
10597W        W82890  43.810  13.771   0.275
10598W        W82891  11.642  18.558   2.357
10599W        W82892  34.113  34.985  11.912
10600W        W82893  14.687  30.635  13.972
10601W        W82894  12.633  40.328   2.672
10602W        W82895  34.012  33.962  12.010
10603W        W82896  22.080  23.548   2.402
10604W        W82897  33.554  10.734   3.785
10605W        W82898  26.032  37.544  14.832
10606W        W82899  30.096  43.431   2.282
10607W        W82900  10.216  12.341   0.801
10608W        W82901   5.405  19.082  13.329
10609W        W82902  20.032  20.559   3.330
10610W        W82903  18.225  23.102   5.286
10611W        W82904  23.147  44.336   9.990
10612W        W82905  42.450  13.843  10.525
10613W        W82906   9.660  20.533  11.885
10614W        W82907  42.313  27.482  14.852
10615W        W82908  14.827  12.697   9.942
10616W        W82909  41.901  13.677   1.781
10617W        W82910  10.203  13.346  13.347
10618W        W82911  27.007  41.456   4.750
10619W        W82912  22.236  10.221  12.851
10620W        W82913  40.539  39.929   4.338
10621W        W82914  14.645   5.208   5.244
10622W        W82915  44.442  14.750   9.983
10623W        W82916  39.325  16.806   3.768
10624W        W82917   0.820  37.466   1.774
10625W        W82918  31.538  39.408  14.417
10626W        W82919  19.704   7.882   0.899
10627W        W82920  37.416  31.041   3.279
10628W        W82921   2.340  40.361   1.260
10629W        W82922  21.164  29.011  14.862
10630W        W82923   0.751  33.944   2.209
10631W        W82924  33.095   8.739   1.331
10632W        W82925  12.357  44.882   3.159
10633W        W82926  15.635  38.365   4.784
10634W        W82927  21.575   9.858  10.553
10635W        W82928   0.370  37.521  10.622
10636W        W82929   0.405  32.574   4.665
10637W        W82930   0.800   4.935  13.055
10638W        W82931  43.378  44.350  13.387
10639W        W82932  36.546  17.713  11.533
10640W        W82933   1.418  22.070  13.044
10641W        W82934  23.160  32.413  11.436
10642W        W82935   2.442  28.462   2.894
10643W        W82936  21.147  21.110   3.371
10644W        W82937  22.716   5.700   0.734
10645W        W82938  43.944  27.957  10.425
10646W        W82939  42.819  32.975   2.681
10647W        W82940  10.768  44.771  14.805
10648W        W82941  36.932  14.302  10.597
10649W        W82942  25.582   6.696   2.228
10650W        W82943  33.944   5.426   1.929
10651W        W82944  41.455  10.366  12.074
10652W        W82945   4.720  26.665  10.536
10653W        W82946  40.042  34.923   4.233
10654W        W82947  28.083  36.970  14.331
10655W        W82948   3.895   5.349   1.256
10656W        W82949  38.057   6.294   3.648
10657W        W82950  37.565  28.541   0.739
10658W        W82951  23.184   1.439  12.072
10659W        W82952  17.644  40.841   4.758
10660W        W82953  11.279  42.414   2.315
10661W        W82954  28.455  41.866   1.366
10662W        W82955  22.087  37.581  12.838
10663W        W82956  14.673   3.802  10.086
10664W        W82957   1.365  22.699  12.033
10665W        W82958  14.691  17.228   1.280
10666W        W82959  44.867  16.664  12.498
10667W        W82960  21.065  32.957   9.948
10668W        W82961  17.285   4.321  11.964
10669W        W82962  10.232  11.714  14.888
10670W        W82963  41.787  14.299  12.838
10671W        W82964   3.782  30.430   3.276
10672W        W82965  16.680  36.511  11.394
10673W        W82966  22.693  43.851   4.148
10674W        W82967  43.432  43.785  11.094
10675W        W82968  21.031  40.445  11.985
10676W        W82969   8.819  11.228   2.351
10677W        W82970  40.811  42.469  12.902
10678W        W82971   2.422  13.660   1.856
10679W        W82972  31.931  38.932   0.329
10680W        W82973  33.097  11.687  14.794
10681W        W82974  12.721  39.459   2.359
10682W        W82975  44.951  42.857   3.796
10683W        W82976  27.056  23.022   0.345
10684W        W82977  12.183  14.132  13.416
10685W        W82978  18.289  36.893  12.923
10686W        W82979  40.819  27.497  11.522
10687W        W82980  34.020   3.360  12.438
10688W        W82981  26.049   7.214  12.975
10689W        W82982  25.637  18.088  14.477
10690W        W82983  12.310  20.195   2.324
10691W        W82984  11.337  34.459  13.960
10692W        W82985   5.820  36.980   3.313
10693W        W82986   6.379  12.747  14.912
10694W        W82987  44.494   7.825   3.799
10695W        W82988   2.273   9.320   1.252
10696W        W82989  25.057  11.652   5.102
10697W        W82990  23.000  35.559  10.441
10698W        W82991   2.902  32.606   3.806
10699W        W82992  35.393  12.791  12.948
10700W        W82993  31.920  17.119  14.516
10701W        W82994  26.964  12.684   3.287
10702W        W82995  22.646  19.586   3.289
10703W        W82996  41.844   5.411  12.897
10704W        W82997  26.000   3.418  12.913
10705W        W82998   4.224  11.658   1.826
10706W        W82999  29.663  14.715   4.273
10707W        W83000  33.610  40.424   1.410
10708W        W83001  18.730  20.040   4.197
10709W        W83002  13.188  25.164   1.931
10710W        W83003  20.153  32.546   0.784
10711W        W83004  15.314  16.096  10.572
10712W        W83005  37.464  14.694   5.308
10713W        W83006  18.726  23.228   9.555
10714W        W83007  23.106  27.664  12.363
10715W        W83008  29.079  29.642   3.248
10716W        W83009  31.629  19.775  10.566
10717W        W83010  19.232  31.936   2.363
10718W        W83011  11.796  36.399   2.217
10719W        W83012  11.334  41.440   0.395
10720W        W83013  25.064  13.124  11.486
10721W        W83014  10.230  24.652  10.984
10722W        W83015  36.903  11.274  14.866
10723W        W83016  37.905   0.852   4.225
10724W        W83017  16.311  15.614  13.973
10725W        W83018   7.851   4.922   3.663
10726W        W83019  15.611  31.133  12.847
10727W        W83020  37.966  15.134  14.378
10728W        W83021   1.744  11.816   2.353
10729W        W83022  12.724   0.250   1.842
10730W        W83023  31.146  20.644  10.409
10731W        W83024  44.930  44.500   0.921
10732W        W83025  37.892  24.088   2.804
10733W        W83026  43.328  14.599   0.934
10734W        W83027  16.303   5.811   2.309
10735W        W83028  13.121  27.969   0.425
10736W        W83029  36.460  28.039  14.337
10737W        W83030  44.773  19.110   1.747
10738W        W83031   0.348  11.663   0.728
10739W        W83032   4.263  43.832   2.786
10740W        W83033  16.675  29.976  13.413
10741W        W83034  13.233  42.319   1.445
10742W        W83035  34.536   5.333  13.531
10743W        W83036  44.371  13.668  12.996
10744W        W83037  42.420  29.474   1.787
10745W        W83038  35.930   3.902   1.262
10746W        W83039  18.244  31.462   4.118
10747W        W83040  23.064   9.203  13.522
10748W        W83041  35.392  36.084  10.901
10749W        W83042  23.997  11.724   4.787
10750W        W83043   6.804  13.304  10.585
10751W        W83044   6.703   4.301  13.823
10752W        W83045  15.661  11.721   5.317
10753W        W83046  27.054  37.874   3.220
10754W        W83047  21.656  21.657  14.850
10755W        W83048   2.892  33.435   4.227
10756W        W83049  33.545  33.593   9.956
10757W        W83050  27.558   4.425  13.029
10758W        W83051  37.890   9.319  13.870
10759W        W83052   8.813  14.674  12.073
10760W        W83053  20.252  38.014   1.223
10761W        W83054  35.510  22.646   4.196
10762W        W83055   9.245  42.293   1.318
10763W        W83056  42.860  20.655   4.263
10764W        W83057  14.650  17.169  11.971
10765W        W83058  37.961  16.214  12.062
10766W        W83059  40.424  20.623  12.984
10767W        W83060  23.065  30.059  14.345
10768W        W83061   3.754  18.056  11.019
10769W        W83062  11.762  41.921  12.830
10770W        W83063  36.462  26.498  13.940
10771W        W83064  20.719  19.570   4.727
10772W        W83065  15.629  15.297   0.869
10773W        W83066  40.883  19.611   2.784
10774W        W83067  21.045  28.631  10.605
10775W        W83068  20.100  41.423  13.957
10776W        W83069  16.094  19.640  10.941
10777W        W83070  35.889   3.432   1.708
10778W        W83071  10.278   9.333  11.127
10779W        W83072  43.482  16.252  10.547
10780W        W83073  43.974  25.988   2.738
10781W        W83074   9.393   4.406  13.380
10782W        W83075  28.960  27.999  12.967
10783W        W83076  39.470   0.769   3.188
10784W        W83077  32.628   4.373   3.658
10785W        W83078  19.209  13.686   0.848
10786W        W83079   7.291  25.637  12.404
10787W        W83080  39.885   2.832   3.856
10788W        W83081  38.933  28.528   4.787
10789W        W83082  24.124   8.740  13.486
10790W        W83083   3.276  19.688  11.415
10791W        W83084  34.120   8.248   4.121
10792W        W83085   9.658  26.480  12.978
10793W        W83086  10.299   3.776   3.669
10794W        W83087  28.982   9.785  13.345
10795W        W83088   6.255  33.422   3.668
10796W        W83089  43.356  16.803   2.847
10797W        W83090  28.520  41.918   1.923
10798W        W83091  38.331  19.585   2.347
10799W        W83092  13.162  42.527   3.858
10800W        W83093  38.978  21.151   2.338
10801W        W83094   6.711  31.561   1.827
10802W        W83095  11.675  41.903  13.972
10803W        W83096  37.995   9.267   4.334
10804W        W83097  23.665  11.705   1.315
10805W        W83098  19.044   4.320   4.657
10806W        W83099  23.667  27.941   0.470
10807W        W83100  10.252  14.184  11.053
10808W        W83101  37.525  43.472  12.879
10809W        W83102  16.077  32.957   2.254
10810W        W83103   8.734  20.645   0.953
10811W        W83104  27.555  13.176  10.625
10812W        W83105  19.214  20.117   1.373
10813W        W83106  41.378  10.777   3.704
10814W        W83107  38.038  16.697  11.898
10815W        W83108   8.257   9.680  11.543
10816W        W83109   1.870  27.454   3.175
10817W        W83110  15.132   5.932  12.967
10818W        W83111  10.360  21.599   0.855
10819W        W83112  15.105  39.338   4.771
10820W        W83113  25.678  25.031   3.673
10821W        W83114  33.489   7.387   0.437
10822W        W83115   8.355  11.138   1.797
10823W        W83116   0.795  23.227   1.808
10824W        W83117  26.501  22.205   5.737
10825W        W83118  15.695  10.353  12.433
10826W        W83119  11.807  32.604   1.270
10827W        W83120  34.489   9.680   0.365
10828W        W83121   5.870  23.562   1.737
10829W        W83122  18.074  10.306  11.389
10830W        W83123  27.003   7.410  11.112
10831W        W83124  19.138  34.905  10.068
10832W        W83125  43.311  19.062   9.438
10833W        W83126  30.986  39.508  12.853
10834W        W83127  20.637  14.801   4.691
10835W        W83128  39.510   1.337  10.574
10836W        W83129  43.849  22.729   0.466
10837W        W83130   2.345   3.320   4.651
10838W        W83131   7.910  10.324   1.780
10839W        W83132  25.621  21.157  13.833
10840W        W83133  19.674   2.338   1.227
10841W        W83134  25.142  22.726   0.829
10842W        W83135   6.335  40.050   2.693
10843W        W83136  17.690  17.092  13.844
10844W        W83137  28.158  28.999  12.897
10845W        W83138  44.425  10.270  10.560
10846W        W83139  33.622  39.417   4.666
10847W        W83140  24.227  39.891  13.468
10848W        W83141  43.491  16.574  10.158
10849W        W83142   7.235  39.546  11.599
10850W        W83143  21.643  11.642  10.544
10851W        W83144  14.214  44.754  11.119
10852W        W83145  26.149  21.086  12.070
10853W        W83146  38.465  17.162   3.361
10854W        W83147   9.878  10.216  12.842
10855W        W83148  28.499  35.358  14.984
10856W        W83149  33.421   3.443  14.415
10857W        W83150  15.274  35.939  10.443
10858W        W83151  39.479   3.260  13.985
10859W        W83152  25.095   1.247  13.021
10860W        W83153  26.158  34.609   3.793
10861W        W83154  24.534  25.468  12.922
10862W        W83155  25.619   2.248   1.803
10863W        W83156   9.751   0.823   1.916
10864W        W83157   1.455  20.646   0.299
10865W        W83158  10.308  39.050  10.459
10866W        W83159  43.961  39.919   0.796
10867W        W83160   3.725  11.218  10.961
10868W        W83161   0.845  35.924  13.962
10869W        W83162  13.654  43.340   1.730
10870W        W83163  38.025  23.726   4.629
10871W        W83164   4.235  25.071  13.970
10872W        W83165  15.810   0.840  14.396
10873W        W83166  19.685  27.971   1.757
10874W        W83167  40.818   4.722  14.390
10875W        W83168  40.959   6.366   0.874
10876W        W83169  25.610  19.173   1.715
10877W        W83170  27.643   0.436   3.241
10878W        W83171  34.461  13.265  10.960
10879W        W83172  13.635   1.798  12.827
10880W        W83173   6.364   6.832  11.123
10881W        W83174  22.545  36.540   4.138
10882W        W83175  19.605   0.876  14.489
10883W        W83176  43.287  16.807   4.804
10884W        W83177  16.774   1.764   4.122
10885W        W83178   2.318  42.828   2.246
10886W        W83179   6.250   8.321  14.471
10887W        W83180  31.468   6.381  13.840
10888W        W83181   5.343   2.259  11.386
10889W        W83182  15.661  14.252  11.898
10890W        W83183   0.408  40.394  11.920
10891W        W83184  36.021  35.991  11.453
10892W        W83185  35.982   3.746   0.856
10893W        W83186  38.393  29.427  12.424
10894W        W83187   2.941  38.498   4.606
10895W        W83188  33.566  18.080  14.924
10896W        W83189  39.000  37.004   1.314
10897W        W83190  13.703   7.313  13.516
10898W        W83191   8.892  43.446   0.803
10899W        W83192  14.834  26.622   1.764
10900W        W83193  10.224  16.257   4.191
10901W        W83194  12.798  29.129   2.378
10902W        W83195  31.493  29.951   1.394
10903W        W83196   8.730   6.294  14.974
10904W        W83197  39.497  23.544   3.863
10905W        W83198  17.080  22.176  11.889
10906W        W83199  14.145  13.111  14.922
10907W        W83200   6.780  14.308  13.532
10908W        W83201  27.661  13.732   0.364
10909W        W83202  44.275   6.769   1.369
10910W        W83203  21.589  18.259   0.389
10911W        W83204  14.150   9.705  11.074
10912W        W83205  34.430   7.869   2.320
10913W        W83206  41.916   7.739   2.858
10914W        W83207  16.672  37.858   3.675
10915W        W83208   1.818  32.480   1.832
10916W        W83209  26.699  37.848   5.125
10917W        W83210  28.667   4.706   3.661
10918W        W83211  40.025  27.460   2.714
10919W        W83212   5.792  43.854   3.332
10920W        W83213  42.007  11.773   3.166
10921W        W83214   4.852  40.496  12.067
10922W        W83215  21.187   9.283   5.291
10923W        W83216  17.079  21.649  13.926
10924W        W83217  14.229  31.476  13.502
10925W        W83218   8.207  43.419   4.174
10926W        W83219   0.366  12.247  13.311
10927W        W83220  35.086  38.063   1.786
10928W        W83221   0.972  39.388   0.793
10929W        W83222  19.225  22.739  12.504
10930W        W83223  19.045   1.922  11.070
10931W        W83224  22.504  12.812   0.380
10932W        W83225  31.093  35.495   4.319
10933W        W83226  42.846   8.317   2.351
10934W        W83227  11.140   9.732  12.024
10935W        W83228   4.310  31.047  12.397
10936W        W83229  14.130  23.537   1.866
10937W        W83230  32.085  35.422   3.153
10938W        W83231   5.845  35.029  13.443
10939W        W83232  41.795  10.326  10.422
10940W        W83233  13.640  15.748  12.012
10941W        W83234   2.420  27.051   0.945
10942W        W83235  26.651  28.010   2.681
10943W        W83236  29.960  13.802   0.864
10944W        W83237  33.468  18.744   3.186
10945W        W83238   7.227   2.333   3.363
10946W        W83239  34.429  24.178  13.957
10947W        W83240  15.083   8.180  13.896
10948W        W83241   3.733  37.919  11.477
10949W        W83242  27.081  12.774   4.114
10950W        W83243  36.855  22.731  12.525
10951W        W83244  27.676  26.685   4.822
10952W        W83245  40.985  42.340   0.921
10953W        W83246  41.349  34.381  11.430
10954W        W83247   3.254   2.829   1.853
10955W        W83248   6.726   2.953   1.311
10956W        W83249  44.855  40.353  10.560
10957W        W83250   0.953  13.348  11.985
10958W        W83251   2.453  29.525  10.905
10959W        W83252  15.809  10.791   2.689
10960W        W83253  14.736  13.285   3.855
10961W        W83254  18.187  25.976   1.410
10962W        W83255   2.947  11.243   4.163
10963W        W83256   0.330   0.757  13.407
10964W        W83257   7.792   2.961  10.921
10965W        W83258  26.196  43.306  11.525
10966W        W83259  30.060  38.074   2.788
10967W        W83260  43.855  43.802   5.602
10968W        W83261   8.256   7.344  11.416
10969W        W83262  36.554  30.045  10.922
10970W        W83263  27.580  41.494   1.340
10971W        W83264  13.715  41.526  11.057
10972W        W83265  21.743  13.157   2.242
10973W        W83266  26.565  35.946   9.963
10974W        W83267  15.173  24.143   3.323
10975W        W83268  39.901  39.883   1.855
10976W        W83269  35.081  27.150   1.420
10977W        W83270  43.407  21.658  11.010
10978W        W83271  25.099  30.622   0.846
10979W        W83272  15.625  18.759  11.048
10980W        W83273  37.854  18.213   5.130
10981W        W83274   5.715   9.286   4.165
10982W        W83275  29.435  15.222   3.289
10983W        W83276  18.719  29.160   3.711
10984W        W83277  16.595  31.118   0.407
10985W        W83278  43.315   3.291   1.702
10986W        W83279  34.453  44.799   2.365
10987W        W83280  21.061  30.043   2.287
10988W        W83281  31.482   8.319   3.644
10989W        W83282   7.671   1.872   4.670
10990W        W83283  41.995  39.004   1.311
10991W        W83284  25.095  27.111  10.596
10992W        W83285  14.784  15.669   2.313
10993W        W83286  11.299  42.526  13.973
10994W        W83287   7.781  37.901   2.267
10995W        W83288  18.700  26.017   3.681
10996W        W83289  41.308  15.676   0.898
10997W        W83290   2.734  11.729  10.642
10998W        W83291  37.020  20.560   0.400
10999W        W83292   0.471  24.095   2.265
11000W        W83293  41.469  17.566  13.835
11001W        W83294  42.334  20.108  11.434
11002W        W83295  38.851  37.546   1.907
11003W        W83296  43.793  30.133   3.724
11004W        W83297  11.214   6.861  14.852
11005W        W83298   0.784  28.105  13.062
11006W        W83299  10.256  29.454  12.389
11007W        W83300   7.313  35.571   1.856
11008W        W83301   3.932   3.452  11.920
11009W        W83302  42.503   4.215   1.893
11010W        W83303   1.438  35.927   4.793
11011W        W83304  41.873  12.739   3.259
11012W        W83305  22.076  18.710   1.277
11013W        W83306  19.271  23.170  11.073
11014W        W83307  13.257  26.607  10.554
11015W        W83308  35.421  21.663   2.395
11016W        W83309   9.753  30.000  12.479
11017W        W83310   1.262   7.221   4.686
11018W        W83311  18.654  12.813  14.761
11019W        W83312  38.516  26.571  11.032
11020W        W83313  13.738  19.664  10.416
11021W        W83314  31.576   4.396  12.388
11022W        W83315  19.566  11.215  12.457
11023W        W83316  15.122  39.388  11.931
11024W        W83317  32.580  37.856  14.878
11025W        W83318  28.055  10.862  12.478
11026W        W83319   7.829   6.913   1.326
11027W        W83320  44.494  36.866   5.259
11028W        W83321  23.079  44.434   2.304
11029W        W83322  40.490  39.517   3.693
11030W        W83323   9.226   1.333  13.828
11031W        W83324  10.763  21.518   1.908
11032W        W83325  14.131   2.409  11.598
11033W        W83326  27.675  32.528  10.963
11034W        W83327  30.558  13.689   0.953
11035W        W83328  29.610  41.911   4.787
11036W        W83329  30.035   8.666  14.317
11037W        W83330  18.149  19.264  11.472
11038W        W83331   0.488  11.642  12.013
11039W        W83332  43.813   5.826   3.304
11040W        W83333  27.479  42.018   1.440
11041W        W83334  21.757  25.071  12.464
11042W        W83335  19.702  10.775   2.670
11043W        W83336  17.285   0.930   4.205
11044W        W83337  32.080  14.120  10.516
11045W        W83338   6.311  42.809  10.407
11046W        W83339  24.696  31.012  11.929
11047W        W83340  34.422  32.437  12.350
11048W        W83341   6.740  20.271   0.365
11049W        W83342  35.507   5.283   1.251
11050W        W83343  44.411   0.298  14.854
11051W        W83344  43.515  15.121  14.443
11052W        W83345  23.141  32.544  11.093
11053W        W83346  19.724  20.170   0.745
11054W        W83347   5.885  33.986  11.893
11055W        W83348  33.023  28.084   2.675
11056W        W83349   0.810  38.474   0.831
11057W        W83350   9.171  39.896  10.454
11058W        W83351  25.534  12.707  13.494
11059W        W83352  36.947  21.169   3.316
11060W        W83353   6.851  15.706   3.794
11061W        W83354  36.092  25.501   1.380
11062W        W83355  28.524  41.516   0.800
11063W        W83356  31.607  27.577   1.210
11064W        W83357   5.716  21.035  10.510
11065W        W83358  33.531  26.666  11.399
11066W        W83359  16.789  28.528  13.317
11067W        W83360  19.589  39.543  11.921
11068W        W83361  26.109   6.275   0.338
11069W        W83362  29.084   2.336  14.022
11070W        W83363  17.099   6.260  14.950
11071W        W83364  30.514  21.092   0.743
11072W        W83365  38.875  38.915  14.917
11073W        W83366  23.210  19.085  14.810
11074W        W83367  10.809   4.215   2.738
11075W        W83368   0.283  19.746  10.455
11076W        W83369   2.733  23.989   1.733
11077W        W83370  41.801  13.230  10.586
11078W        W83371  14.623  43.272   2.771
11079W        W83372   3.948  40.821   0.907
11080W        W83373  21.181  17.661   3.247
11081W        W83374  31.552  32.962  13.991
11082W        W83375  43.326  36.586   9.517
11083W        W83376  20.658  33.400  11.882
11084W        W83377  30.954  43.834  11.955
11085W        W83378  21.678  22.228   4.788
11086W        W83379   3.898  30.519  10.041
11087W        W83380  25.601  33.114  13.883
11088W        W83381  20.131   9.820  14.864
11089W        W83382  36.905   0.478  12.908
11090W        W83383  37.976  41.902   2.278
11091W        W83384   0.834  17.776  10.627
11092W        W83385  44.449  34.580   1.870
11093W        W83386  28.555  17.147  10.983
11094W        W83387   5.194  30.521   2.317
11095W        W83388  43.863  36.548   3.242
11096W        W83389   4.416  42.980  10.421
11097W        W83390  13.757  39.842  13.967
11098W        W83391  35.087  12.287   3.208
11099W        W83392  38.914   0.742   0.795
11100W        W83393   2.891  38.839   0.824
11101W        W83394  25.636  44.374  11.047
11102W        W83395  12.241   9.783   1.696
11103W        W83396  29.477  27.976  10.534
11104W        W83397  43.866  10.306   2.715
11105W        W83398   2.464   5.288  12.429
11106W        W83399  26.599  29.555   0.423
11107W        W83400  14.325  41.373  12.445
11108W        W83401  32.963  12.760  14.462
11109W        W83402  34.103   5.762   3.347
11110W        W83403  39.870  31.453   3.315
11111W        W83404  31.905  10.372  11.391
11112W        W83405  37.410  22.060  13.348
11113W        W83406  33.588  29.460  12.970
11114W        W83407  34.375  37.572  11.106
11115W        W83408  26.515  15.289  13.321
11116W        W83409   6.323  17.128   2.354
11117W        W83410  38.545  36.587  14.469
11118W        W83411   4.762  21.222  14.910
11119W        W83412  36.943  33.485   4.150
11120W        W83413  18.663  10.663   2.211
11121W        W83414  30.528   4.355   2.262
11122W        W83415  29.138  19.266  13.512
11123W        W83416  23.725  36.404   2.260
11124W        W83417  40.517  24.011   3.842
11125W        W83418   5.304  19.629   4.641
11126W        W83419  11.848  33.089  13.466
11127W        W83420  44.501  25.491   4.785
11128W        W83421  33.619  13.644  10.601
11129W        W83422  15.172  40.351   4.824
11130W        W83423  17.735  31.584   2.245
11131W        W83424  11.749  14.709  13.835
11132W        W83425  30.658  27.601  12.929
11133W        W83426   2.925   1.417  12.496
11134W        W83427  43.888  35.943  14.959
11135W        W83428  30.655  11.789   5.243
11136W        W83429  17.770  29.659   2.708
11137W        W83430  23.182  36.364  13.314
11138W        W83431  33.016  24.655   1.364
11139W        W83432   3.385  11.665   3.791
11140W        W83433  23.543  30.070  11.999
11141W        W83434  34.450  20.079   3.381
11142W        W83435  38.367  33.885  11.605
11143W        W83436  44.956  28.446   4.348
11144W        W83437  23.214  14.746   0.894
11145W        W83438  26.690  22.038  14.365
11146W        W83439  36.028  44.927   3.205
11147W        W83440   6.403   9.368   1.326
11148W        W83441  42.834  36.417   3.249
11149W        W83442  19.073   6.231  11.019
11150W        W83443  42.407  13.599   3.168
11151W        W83444  17.253   8.173  14.944
11152W        W83445  33.968  40.820   0.301
11153W        W83446  23.071  17.068  10.476
11154W        W83447   5.843  35.497  12.837
11155W        W83448   5.236  26.161  14.490
11156W        W83449   0.747   0.889  11.432
11157W        W83450  19.215  29.432  13.873
11158W        W83451  12.224  39.489  12.075
11159W        W83452  25.201  30.543  10.515
11160W        W83453  36.996   4.296  12.349
11161W        W83454  42.009  16.584   4.792
11162W        W83455  18.656  19.276  12.480
11163W        W83456  25.569   3.306  13.466
11164W        W83457  27.062  31.430   0.854
11165W        W83458  35.547  31.631  14.940
11166W        W83459  12.689  42.890   2.841
11167W        W83460  28.125  39.876  12.891
11168W        W83461  27.582  28.990  14.366
11169W        W83462  35.038   5.345   1.447
11170W        W83463  24.075  25.571  11.907
11171W        W83464  20.270  35.979   4.710
11172W        W83465  27.175  33.573   1.875
11173W        W83466   7.781  24.089   4.231
11174W        W83467  42.825  43.471  12.434
11175W        W83468  37.002   4.826  12.390
11176W        W83469   8.738  20.549  12.943
11177W        W83470  39.031  28.600  14.848
11178W        W83471  38.950  35.040  14.324
11179W        W83472   0.974  22.673   0.801
11180W        W83473  14.209  25.048   0.335
11181W        W83474  37.450   9.722   2.206
11182W        W83475  31.024  13.136  14.286
11183W        W83476   2.913  22.608  13.368
11184W        W83477  24.634   4.289   0.339
11185W        W83478  33.946  39.395  12.548
11186W        W83479  10.180  18.694   5.189
11187W        W83480   4.291  13.337  10.625
11188W        W83481  12.290  19.065  14.900
11189W        W83482  18.702  15.578   2.365
11190W        W83483  40.848  44.350   5.219
11191W        W83484  38.424   8.664   0.291
11192W        W83485  38.331   8.840  13.969
11193W        W83486   6.754  41.928   4.244
11194W        W83487  31.058  16.579  14.383
11195W        W83488   3.230  20.183   3.666
11196W        W83489   9.733   8.243   1.908
11197W        W83490  38.448  20.220   4.293
11198W        W83491  27.612  31.578  13.518
11199W        W83492  36.497   6.838  14.460
11200W        W83493  21.086   4.725   3.165
11201W        W83494  37.874  27.495  12.505
11202W        W83495  26.637  14.117  13.507
11203W        W83496  33.444  19.648   4.781
11204W        W83497  37.863  10.329  12.877
11205W        W83498  31.916   9.769   0.279
11206W        W83499  29.642  18.119   3.656
11207W        W83500  27.120  33.936  13.538
11208W        W83501  10.357  30.647  10.420
11209W        W83502   9.876  22.652   0.933
11210W        W83503   1.280  18.233   3.221
11211W        W83504  27.634  22.114   5.242
11212W        W83505  23.086  16.089   0.908
11213W        W83506  12.617  39.441   4.719
11214W        W83507  26.100   2.794   2.397
11215W        W83508   5.323  21.755   2.245
11216W        W83509  37.456  28.184  14.401
11217W        W83510   3.821  37.849   2.684
11218W        W83511  39.959  32.509  14.968
11219W        W83512  19.177   5.312  11.558
11220W        W83513  28.546  14.286  12.385
11221W        W83514  34.882  18.753   0.757
11222W        W83515  35.393  31.416   1.793
11223W        W83516  39.947   6.676   0.396
11224W        W83517   1.761  38.512   0.284
11225W        W83518   3.927   2.466  13.030
11226W        W83519   3.955   3.790   3.671
11227W        W83520  42.482  32.120  11.107
11228W        W83521  10.219  10.311  10.067
11229W        W83522  33.543  40.974  13.520
11230W        W83523  23.130  32.134   0.435
11231W        W83524  31.014  38.067  10.462
11232W        W83525  18.227  21.689   5.307
11233W        W83526  30.497  25.529  12.416
11234W        W83527   4.885  11.677  14.313
11235W        W83528  26.644  32.490   5.154
11236W        W83529  31.599  32.947   2.182
11237W        W83530  14.230  40.449   3.348
11238W        W83531  21.083  28.040   5.290
11239W        W83532  38.978  17.281  14.775
11240W        W83533  31.016  11.817   1.318
11241W        W83534   5.312  21.626  12.522
11242W        W83535  19.263   0.895   3.163
11243W        W83536  21.260  17.096  14.828
11244W        W83537  43.288  18.059  11.509
11245W        W83538  16.786  31.486  10.919
11246W        W83539  15.754  29.013   3.826
11247W        W83540  41.981  20.696   0.789
11248W        W83541  29.120  13.239   3.827
11249W        W83542  41.398  33.951   4.351
11250W        W83543  33.406  31.927   3.233
11251W        W83544  23.703  40.460   0.265
11252W        W83545  17.785   5.750   0.424
11253W        W83546  33.468  13.116   0.371
11254W        W83547  10.799  36.358   1.891
11255W        W83548   9.780  38.929  14.414
11256W        W83549  31.620  28.470   2.371
11257W        W83550  18.117  21.146  12.519
11258W        W83551  37.461   1.450  11.383
11259W        W83552  12.628  27.075   4.343
11260W        W83553   6.732  17.795   2.851
11261W        W83554  13.125  29.016  14.918
11262W        W83555  15.613  19.155   0.482
11263W        W83556   2.805  35.602  11.003
11264W        W83557  28.180  29.118   2.678
11265W        W83558  37.361  20.046   5.095
11266W        W83559   5.427   3.387  10.920
11267W        W83560  35.019  41.493  11.381
11268W        W83561  37.426   9.694   0.844
11269W        W83562  41.833   9.335   3.247
11270W        W83563  17.618   8.314  14.870
11271W        W83564   9.698  40.868  14.437
11272W        W83565  34.471   1.902  13.455
11273W        W83566   9.856  33.427  14.826
11274W        W83567  11.215  33.090   2.292
11275W        W83568  43.913  28.601  14.018
11276W        W83569   2.320  36.945  10.501
11277W        W83570   9.765  30.004   1.858
11278W        W83571  14.701  33.525  13.531
11279W        W83572  23.602  14.208   2.206
11280W        W83573  12.275  14.633   2.314
11281W        W83574  10.308  28.537   2.770
11282W        W83575  43.009   5.399   2.665
11283W        W83576  22.142  24.621   0.435
11284W        W83577  36.452  23.229   4.735
11285W        W83578  32.438  10.292   4.692
11286W        W83579   3.852  25.113  13.899
11287W        W83580  29.928  22.742   1.791
11288W        W83581  33.113  28.991   3.834
11289W        W83582  43.509   8.665  14.361
11290W        W83583  34.488  13.671   4.219
11291W        W83584  23.030  43.345   4.269
11292W        W83585  42.356  27.992  13.802
11293W        W83586   4.753  36.492   1.231
11294W        W83587  24.683   2.255   1.326
11295W        W83588  31.028   8.777   2.753
11296W        W83589  44.461  14.770  13.827
11297W        W83590  36.004  25.639  11.514
11298W        W83591  26.124  37.547  12.465
11299W        W83592  18.256  24.036  12.037
11300W        W83593  43.951  21.525   0.328
11301W        W83594  41.021  26.151   0.868
11302W        W83595   4.777  18.165   1.223
11303W        W83596   6.775   5.382   4.241
11304W        W83597  22.638  33.549   3.223
11305W        W83598  25.583  40.858  11.524
11306W        W83599  41.381  43.844   9.944
11307W        W83600  23.070  27.517  11.065
11308W        W83601  10.143  21.652  14.761
11309W        W83602  24.478  36.540  13.838
11310W        W83603  40.375  43.825  12.342
11311W        W83604  11.788   8.268  14.771
11312W        W83605  11.274  26.204  13.512
11313W        W83606  14.601   6.206  13.417
11314W        W83607  27.983  27.634   4.756
11315W        W83608  44.953  36.065   4.705
11316W        W83609  35.890  24.000  14.320
11317W        W83610   0.446  22.220   1.850
11318W        W83611   5.811  26.977   2.211
11319W        W83612   9.283  17.166  14.894
11320W        W83613  32.601  42.014  14.467
11321W        W83614  27.064  28.024  13.386
11322W        W83615  38.432  23.991   0.854
11323W        W83616  24.679   5.797   1.354
11324W        W83617  16.640  25.157  13.862
11325W        W83618  31.004  14.663  11.608
11326W        W83619  41.316  10.278   1.874
11327W        W83620   6.405   2.909   1.448
11328W        W83621  42.975  43.387   5.600
11329W        W83622  40.416  14.596   1.927
11330W        W83623   7.407  34.121   0.950
11331W        W83624  24.038  24.490   1.774
11332W        W83625   0.752  41.496  10.080
11333W        W83626  36.075  30.964  13.996
11334W        W83627   5.759  31.616  11.396
11335W        W83628  10.343  33.986  14.016
11336W        W83629  21.110  17.745  13.546
11337W        W83630   3.834  16.318  13.825
11338W        W83631  43.819  37.831   3.317
11339W        W83632  29.657  32.054   9.962
11340W        W83633   4.873  36.399   3.766
11341W        W83634  32.572  22.722  10.038
11342W        W83635  27.138   5.781   0.921
11343W        W83636  32.997  36.052   0.428
11344W        W83637   1.443  25.055   1.241
11345W        W83638  39.925  38.562  14.426
11346W        W83639  35.050   2.381   1.389
11347W        W83640  33.580  34.401  13.369
11348W        W83641   8.822  16.673   1.294
11349W        W83642   2.252  23.539  13.499
11350W        W83643  31.614  32.021  11.584
11351W        W83644  39.404  38.437   4.805
11352W        W83645  44.500   4.803   2.713
11353W        W83646  35.110  18.598  14.515
11354W        W83647  16.615   2.910  12.393
11355W        W83648  42.844  42.443   3.168
11356W        W83649  21.701  38.530  13.491
11357W        W83650  28.515   0.267  12.542
11358W        W83651  14.287  20.568   2.733
11359W        W83652  10.323  18.605   0.914
11360W        W83653  12.294   8.303  11.416
11361W        W83654  12.188  38.446  14.812
11362W        W83655  32.525  29.520   1.861
11363W        W83656   4.848   5.764   4.337
11364W        W83657   6.294  33.598  10.998
11365W        W83658   6.820  22.236   4.266
11366W        W83659  33.093  43.819  11.099
11367W        W83660  22.583  13.340  14.414
11368W        W83661  35.092  44.358   1.725
11369W        W83662  30.093  32.901   4.115
11370W        W83663  16.197  43.828  13.921
11371W        W83664  22.020  34.969   3.236
11372W        W83665  16.249   3.754  11.492
11373W        W83666   4.854   9.281   3.364
11374W        W83667  29.171  35.382   0.922
11375W        W83668  34.486   2.309  13.440
11376W        W83669   7.777  37.074  13.870
11377W        W83670  15.317  19.762  11.107
11378W        W83671  36.369  10.264  10.915
11379W        W83672  22.648  15.744   0.246
11380W        W83673  43.956   1.928   0.932
11381W        W83674  13.111  19.212  13.529
11382W        W83675   9.685  36.864   1.709
11383W        W83676  28.954  24.004   2.391
11384W        W83677   8.308  42.398  13.978
11385W        W83678  22.737  26.995  11.544
11386W        W83679  14.734  10.768  12.060
11387W        W83680  27.134  43.301  14.792
11388W        W83681  33.012  28.149   3.225
11389W        W83682  40.905  19.253  12.475
11390W        W83683   9.277  19.221  12.441
11391W        W83684   0.357  39.917  14.796
11392W        W83685  11.760  39.063  11.556
11393W        W83686  23.629  25.174   2.847
11394W        W83687   3.866  31.063  11.551
11395W        W83688   9.679   3.925   3.649
11396W        W83689  28.068  29.064   1.785
11397W        W83690  13.792   4.830  11.488
11398W        W83691  38.073  32.462   0.311
11399W        W83692  21.061   4.220   0.773
11400W        W83693  24.996   6.900  12.421
11401W        W83694  25.194   4.427  14.805
11402W        W83695  12.338  20.155   3.239
11403W        W83696  33.471  33.132  11.430
11404W        W83697  16.246   0.904   2.796
11405W        W83698  20.752  19.697  13.919
11406W        W83699  28.142  25.710   4.823
11407W        W83700  37.520  38.021  12.469
11408W        W83701  24.478  22.649   0.778
11409W        W83702  31.085  44.413   4.336
11410W        W83703  37.865   9.776  11.521
11411W        W83704   0.426  28.025   4.223
11412W        W83705  13.313   9.645   3.647
11413W        W83706  34.921  22.674  11.918
11414W        W83707  18.719  21.119   2.707
11415W        W83708  34.051  13.827   3.720
11416W        W83709   6.685  16.114   2.821
11417W        W83710  19.128  37.385   1.276
11418W        W83711  35.028  20.198   0.953
11419W        W83712  40.923  26.049   1.873
11420W        W83713   3.391   0.768   1.795
11421W        W83714  12.258  39.881   1.390
11422W        W83715   4.741   5.335  13.416
11423W        W83716  28.601   9.654   2.872
11424W        W83717  28.644   9.386   4.809
11425W        W83718   6.206  25.543  13.024
11426W        W83719  43.417  22.115   1.880
11427W        W83720   5.325  11.201   0.830
11428W        W83721   6.832  17.791  13.810
11429W        W83722   4.765  29.634   3.665
11430W        W83723  34.503   5.432   2.870
11431W        W83724   2.946  38.447  12.544
11432W        W83725   3.764  32.920   3.647
11433W        W83726  18.227  10.738  13.839
11434W        W83727  16.573  19.744   1.270
11435W        W83728  35.546  25.087   2.764
11436W        W83729  15.229  29.518   0.743
11437W        W83730  12.310  23.675  13.369
11438W        W83731  16.604  39.421  13.371
11439W        W83732  24.627   6.919   1.756
11440W        W83733  18.589   9.798  14.283
11441W        W83734  21.139   7.277   4.614
11442W        W83735  10.303  14.638  12.085
11443W        W83736  31.954  36.587   2.798
11444W        W83737   5.763  32.455  10.477
11445W        W83738  34.992  23.688   4.653
11446W        W83739  32.019  29.612  12.947
11447W        W83740   3.728  37.947  13.989
11448W        W83741  42.434  43.375   0.349
11449W        W83742   0.818  23.117  12.941
11450W        W83743  25.126  40.832  10.574
11451W        W83744  38.495  23.014   4.353
11452W        W83745  10.302   2.827  13.439
11453W        W83746   4.342  25.471   4.608
11454W        W83747  36.523  11.232   3.268
11455W        W83748   8.701  15.798   0.808
11456W        W83749   4.844  38.387  13.389
11457W        W83750  14.760  26.072   4.648
11458W        W83751   8.160  26.958   2.765
11459W        W83752   2.269  19.077  13.020
11460W        W83753  11.848  23.992   2.801
11461W        W83754  20.723  18.243  12.943
11462W        W83755  17.675  35.035   0.845
11463W        W83756  13.217  18.666  13.980
11464W        W83757  40.546  44.756  11.108
11465W        W83758  14.625  31.071   1.421
11466W        W83759  25.693   4.409   1.380
11467W        W83760  29.593  37.871  12.505
11468W        W83761  32.994  21.207   0.765
11469W        W83762  32.889  35.985  14.362
11470W        W83763  41.025  17.166  14.464
11471W        W83764   3.787  44.853   0.728
11472W        W83765  31.152  34.872   1.359
11473W        W83766  35.923   5.749  11.115
11474W        W83767  26.996  44.913  12.442
11475W        W83768   3.836  13.628   3.850
11476W        W83769  21.049  40.951  11.508
11477W        W83770   1.736   6.866   3.686
11478W        W83771   2.268  30.413   2.844
11479W        W83772  36.566  41.329  13.438
11480W        W83773   5.410   2.380  14.315
11481W        W83774   3.379  10.874  10.541
11482W        W83775  36.030  39.842  14.311
11483W        W83776  11.812  15.113   0.840
11484W        W83777   1.292   4.391   1.298
11485W        W83778  27.992  14.228  14.994
11486W        W83779  42.932  20.730  11.583
11487W        W83780   1.770  20.716   1.762
11488W        W83781  41.828  14.648   1.359
11489W        W83782  15.663  30.013   5.250
11490W        W83783   2.891   2.411   3.236
11491W        W83784  28.487  43.345  14.478
11492W        W83785  16.164   4.279  12.982
11493W        W83786  33.082   1.269   0.883
11494W        W83787  10.291  39.939   0.280
11495W        W83788  36.573  19.260  10.439
11496W        W83789  24.682   2.293  10.462
11497W        W83790  41.408  44.989   4.678
11498W        W83791  31.434  40.467   3.379
11499W        W83792   4.385   6.401  11.422
11500W        W83793  36.937  18.672   1.288
11501W        W83794  30.646  31.024   2.680
11502W        W83795  31.553  17.114  12.041
11503W        W83796  29.969  29.966  12.466
11504W        W83797  43.938   9.235   4.122
11505W        W83798   6.889  19.618   1.401
11506W        W83799  23.503   9.186   4.732
11507W        W83800  24.084   6.182  12.923
11508W        W83801   8.160  31.047  14.786
11509W        W83802  13.634  39.437   4.258
11510W        W83803  31.573  43.972  14.956
11511W        W83804  17.282  35.043   3.325
11512W        W83805  38.559  23.668  13.375
11513W        W83806  12.244   7.366   2.709
11514W        W83807  43.433  27.501  10.633
11515W        W83808  43.335  29.919   1.715
11516W        W83809  22.607  12.639   5.160
11517W        W83810  27.595   1.817   1.312
11518W        W83811  21.713  24.596   1.846
11519W        W83812  36.555   4.797   4.225
11520W        W83813  41.487  17.596   9.662
11521W        W83814  31.991  20.177  12.001
11522W        W83815  14.798   1.811   2.362
11523W        W83816  18.221   4.891   2.311
11524W        W83817  20.175  18.167  13.851
11525W        W83818   2.425   1.952   9.921
11526W        W83819  27.064  26.614   1.867
11527W        W83820  24.520   2.897   4.633
11528W        W83821   1.406  10.771   4.320
11529W        W83822  29.159  34.018   2.272
11530W        W83823   5.360  27.677  13.908
11531W        W83824  19.097  25.563   0.917
11532W        W83825  42.866  39.548   0.310
11533W        W83826  38.444  19.749  12.962
11534W        W83827  14.617  39.348  10.541
11535W        W83828  21.049  15.165  12.479
11536W        W83829  41.400  36.349   3.277
11537W        W83830   9.693   5.855  12.012
11538W        W83831   1.429  28.177  11.600
11539W        W83832  28.097  12.341  12.509
11540W        W83833  33.054   2.845  13.920
11541W        W83834  42.933  17.187  11.492
11542W        W83835  30.088  28.489   1.700
11543W        W83836  32.421  11.835   2.662
11544W        W83837  27.152  26.468   4.308
11545W        W83838  39.934  35.506   1.867
11546W        W83839  18.263   5.845  12.352
11547W        W83840  26.519  29.943  13.413
11548W        W83841  18.767   3.858   4.248
11549W        W83842  22.010  42.026  13.806
11550W        W83843  27.605  39.495  14.349
11551W        W83844  30.129  12.738  11.454
11552W        W83845   3.247  34.055   4.348
11553W        W83846  34.493  18.124  14.332
11554W        W83847  19.248  11.858  14.496
11555W        W83848  31.596   1.470  13.463
11556W        W83849  16.782  29.047  11.525
11557W        W83850  32.909  12.301  13.534
11558W        W83851   1.781  12.283  14.785
11559W        W83852  15.760  43.479  13.985
11560W        W83853   9.825   8.278  14.817
11561W        W83854   4.828  24.081   1.296
11562W        W83855  37.349  35.920  10.131
11563W        W83856   8.812  27.650  10.959
11564W        W83857  38.942  21.121  14.861
11565W        W83858  20.263   6.836   0.752
11566W        W83859  25.666  38.823   2.733
11567W        W83860  27.971  15.303  13.370
11568W        W83861  36.560   9.250  13.418
11569W        W83862  11.241  43.826   0.774
11570W        W83863  25.536  43.006   4.695
11571W        W83864  42.282  10.797   1.774
11572W        W83865  38.487  27.648   4.192
11573W        W83866  41.467  38.555   0.315
11574W        W83867  29.619  15.182  13.392
11575W        W83868  18.196   7.367  11.478
11576W        W83869  19.245  42.517   1.828
11577W        W83870  36.548  12.680  13.952
11578W        W83871  43.824  36.025  11.899
11579W        W83872  42.435  30.510  11.472
11580W        W83873  37.831   0.468  11.483
11581W        W83874   0.460  35.033  13.796
11582W        W83875  21.147  20.678  14.824
11583W        W83876  11.356  33.519   4.223
11584W        W83877  22.539  39.412  11.406
11585W        W83878  34.893  43.431  14.977
11586W        W83879  39.327  36.098  14.338
11587W        W83880  43.002  44.304  13.064
11588W        W83881  28.647  19.177  13.988
11589W        W83882  31.079   7.882   4.300
11590W        W83883  33.600  41.903   3.853
11591W        W83884  36.590  21.584  13.336
11592W        W83885  28.590  18.109   3.186
11593W        W83886  40.915  43.830   1.318
11594W        W83887  25.058  33.543   2.373
11595W        W83888  17.692   2.899  12.494
11596W        W83889  43.850  32.964   0.942
11597W        W83890  41.907   5.716   4.711
11598W        W83891   4.431  39.348  11.935
11599W        W83892  28.149  37.413   3.208
11600W        W83893  33.503  16.236   1.250
11601W        W83894  38.535  42.466  11.923
11602W        W83895  28.539   0.436   4.646
11603W        W83896  14.594   8.391  11.592
11604W        W83897  41.957  35.569   2.868
11605W        W83898  12.752  19.060   4.643
11606W        W83899  44.919  22.613  10.910
11607W        W83900  40.806  25.577   0.771
11608W        W83901  17.196   3.341  11.577
11609W        W83902   9.732  39.376   3.376
11610W        W83903  38.942  36.970   3.266
11611W        W83904   6.794  44.881   3.819
11612W        W83905  40.817  15.111   0.862
11613W        W83906  13.653  32.500  11.440
11614W        W83907   9.202   1.928   0.252
11615W        W83908  35.472   1.925  11.062
11616W        W83909   6.747  20.051   0.859
11617W        W83910   4.746   0.961  11.093
11618W        W83911   1.311  24.982  14.773
11619W        W83912  13.774   3.939  12.823
11620W        W83913  16.605  20.661   2.718
11621W        W83914  43.319  32.022   4.764
11622W        W83915  28.056   2.460  14.913
11623W        W83916   8.824   8.402   2.259
11624W        W83917   9.174  12.654   0.787
11625W        W83918  36.398   6.224   4.171
11626W        W83919  42.441  20.056  14.892
11627W        W83920  14.803   9.859   1.273
11628W        W83921   1.884  14.688   5.194
11629W        W83922  21.613  26.070   2.328
11630W        W83923  25.995   5.830  12.888
11631W        W83924  25.520  42.321  14.353
11632W        W83925  27.587  23.652   4.611
11633W        W83926  35.413  43.893  10.468
11634W        W83927  39.453  22.115   3.155
11635W        W83928  34.053  31.945   1.807
11636W        W83929  11.625  42.389  14.870
11637W        W83930   9.366   8.800  12.876
11638W        W83931  40.456  18.786   5.299
11639W        W83932  17.609  20.124   2.324
11640W        W83933  28.957  39.392   1.301
11641W        W83934  11.734  27.016  11.945
11642W        W83935  34.453  28.102  14.878
11643W        W83936  40.510  34.991  11.542
11644W        W83937   6.850  22.592  14.770
11645W        W83938  42.982  37.577  11.991
11646W        W83939  10.862  38.437   4.609
11647W        W83940  22.704  38.443   4.260
11648W        W83941   8.887  20.691   3.800
11649W        W83942  31.453  23.138  12.465
11650W        W83943   5.372   2.468  13.934
11651W        W83944  39.467  18.102  13.428
11652W        W83945   7.254  35.983   4.780
11653W        W83946  10.646  36.009   3.743
11654W        W83947  30.038  34.494  11.598
11655W        W83948   7.844  27.107  12.397
11656W        W83949   0.924  30.486  10.407
11657W        W83950  11.280  37.955   4.250
11658W        W83951  29.551  24.571   4.115
11659W        W83952  11.261  44.276   4.271
11660W        W83953  38.909   4.206  14.985
11661W        W83954  22.024   2.226   9.638
11662W        W83955  37.876   7.801  12.580
11663W        W83956   1.821  36.578  12.494
11664W        W83957  22.654  38.338   1.835
11665W        W83958  21.187   7.391  13.498
11666W        W83959  44.387  26.046   3.269
11667W        W83960  30.565  42.414   1.369
11668W        W83961   8.334  24.991  14.325
11669W        W83962   9.750  32.611   2.694
11670W        W83963  15.156  43.955   4.278
11671W        W83964   5.307  24.486  11.939
11672W        W83965   9.241  10.867   2.826
11673W        W83966  17.234  39.441   1.699
11674W        W83967  15.217  16.088  11.074
11675W        W83968   9.656   1.874   0.282
11676W        W83969  43.286  36.537   0.871
11677W        W83970   2.254  43.415   2.668
11678W        W83971   1.971  25.102  12.870
11679W        W83972  33.400  21.710   3.654
11680W        W83973  23.695   9.744   3.863
11681W        W83974  36.566  31.645   3.351
11682W        W83975  33.064  20.758   0.951
11683W        W83976  16.201  27.043  11.393
11684W        W83977  20.217  21.645  13.053
11685W        W83978  41.953  13.739  14.357
11686W        W83979  17.160   9.824  14.433
11687W        W83980   7.705  19.152   0.279
11688W        W83981  32.917  21.681  14.006
11689W        W83982   0.878  39.846  12.342
11690W        W83983  11.839  29.149  11.502
11691W        W83984  24.113   5.791   1.280
11692W        W83985  32.027   6.791  12.829
11693W        W83986  41.309  43.981  11.027
11694W        W83987   7.372   5.404  12.067
11695W        W83988  21.561  10.866   3.667
11696W        W83989  10.783  10.215  14.911
11697W        W83990  34.417  34.421  12.868
11698W        W83991  36.956   5.317   3.348
11699W        W83992  13.766  18.643  11.443
11700W        W83993  15.710  23.169   3.279
11701W        W83994  29.953  42.908   4.799
11702W        W83995   5.251  35.577   2.835
11703W        W83996  10.815  16.101  12.473
11704W        W83997  31.096   2.742  13.512
11705W        W83998  20.082  40.373   2.699
11706W        W83999  30.634  18.603   1.405
11707W        W84000  19.588   3.262   4.321
11708W        W84001   3.771   7.776  14.904
11709W        W84002  11.175  27.965   4.810
11710W        W84003  13.812  20.132  13.377
11711W        W84004  13.324  27.570  10.488
11712W        W84005  43.009  16.306   1.422
11713W        W84006  40.044  37.836   3.848
11714W        W84007  35.100  17.683   3.275
11715W        W84008  34.872   4.347  14.442
11716W        W84009   7.242  11.823   4.155
11717W        W84010   0.979   8.164  12.476
11718W        W84011  30.442  30.647  13.343
11719W        W84012   2.828  35.990  13.991
11720W        W84013   9.841  11.318   2.790
11721W        W84014  22.184  25.135   2.229
11722W        W84015  13.780  29.170   1.288
11723W        W84016  39.996  15.737   1.364
11724W        W84017   3.888  40.999  11.990
11725W        W84018  23.710  31.080  13.910
11726W        W84019   4.383  21.042  10.629
11727W        W84020   2.884  10.811   2.340
11728W        W84021  30.507   6.873  12.002
11729W        W84022  28.604  20.614  14.274
11730W        W84023  33.532  34.593  12.965
11731W        W84024   3.293  16.239  11.020
11732W        W84025  15.137  10.724  11.595
11733W        W84026   7.912  26.979  11.090
11734W        W84027  43.270   6.725  13.351
11735W        W84028  12.186   5.719   2.218
11736W        W84029  24.534  33.526  10.990
11737W        W84030  17.641  20.721  13.947
11738W        W84031  36.965  16.759   1.226
11739W        W84032  14.281   9.751  13.799
11740W        W84033  26.987  15.234  10.979
11741W        W84034   7.239  15.584   1.265
11742W        W84035  18.751   9.797  14.851
11743W        W84036  17.089  39.478  12.353
11744W        W84037   4.316  40.322  12.939
11745W        W84038   1.246  42.784  13.409
11746W        W84039  26.110  33.963  12.848
11747W        W84040  29.471  14.229   0.802
11748W        W84041  29.983   1.239  12.882
11749W        W84042  12.694  43.295  14.370
11750W        W84043  33.004  40.342   3.867
11751W        W84044  25.205  12.742   1.439
11752W        W84045  11.756   1.869  13.369
11753W        W84046  24.565  19.272   1.833
11754W        W84047  38.348  20.046  12.374
11755W        W84048  29.653  19.207  14.510
11756W        W84049   5.220  39.477   3.363
11757W        W84050  29.574  11.724   3.854
11758W        W84051  11.309  11.661  10.534
11759W        W84052  34.417  37.344  14.381
11760W        W84053  37.908  11.835   1.738
11761W        W84054   5.211  17.711  14.811
11762W        W84055  20.072  35.044   3.678
11763W        W84056   2.819  20.551   2.833
11764W        W84057  42.913  17.782   1.878
11765W        W84058  19.252  39.996   3.323
11766W        W84059  16.723   8.162  13.051
11767W        W84060  23.085  13.821  12.436
11768W        W84061  35.969  18.150  14.028
11769W        W84062  29.589  25.660   0.346
11770W        W84063  36.909   9.306  13.936
11771W        W84064  11.329  19.060   4.763
11772W        W84065   9.752  17.703   3.643
11773W        W84066   6.397   3.345  10.419
11774W        W84067  19.242  14.319   2.212
11775W        W84068   9.222  42.016   3.225
11776W        W84069   8.865   6.255  12.853
11777W        W84070   3.891  10.803   4.637
11778W        W84071  38.980  11.725  10.980
11779W        W84072  27.178   2.275  12.981
11780W        W84073  16.614  27.977   1.328
11781W        W84074  18.601  29.999   1.377
11782W        W84075  38.563  44.927  13.831
11783W        W84076  38.893  32.530   3.240
11784W        W84077  44.956  38.528   3.747
11785W        W84078  24.513  29.070   2.285
11786W        W84079  38.534  16.772  14.837
11787W        W84080  39.542  10.674   3.211
11788W        W84081  34.867  17.769  12.941
11789W        W84082  13.751   8.166   3.744
11790W        W84083  30.102   7.233   1.727
11791W        W84084  41.415  13.343   1.440
11792W        W84085  19.598   3.852   2.865
11793W        W84086  29.457   3.848  14.957
11794W        W84087  10.190   5.317   1.848
11795W        W84088  26.108  26.965   1.341
11796W        W84089  31.964  34.117   0.793
11797W        W84090  21.578   3.232   1.857
11798W        W84091  21.755   7.308   2.278
11799W        W84092   9.797  36.913  11.128
11800W        W84093  44.503  11.636   0.921
11801W        W84094   9.314   2.398  11.525
11802W        W84095  32.588  31.932   5.185
11803W        W84096   7.812  17.091  14.445
11804W        W84097  43.398  18.282  14.358
11805W        W84098  20.576  29.584   1.333
11806W        W84099   3.289  14.165  12.051
11807W        W84100   3.854  14.832   4.167
11808W        W84101   9.803  11.350  10.942
11809W        W84102  21.637  42.410  13.380
11810W        W84103  36.549  15.611   2.685
11811W        W84104  33.398  22.554  13.317
11812W        W84105  34.982  17.157   3.265
11813W        W84106  42.492   5.780  12.402
11814W        W84107  37.535   7.344  11.479
11815W        W84108  23.100  33.405   1.812
11816W        W84109  30.535  28.517   0.910
11817W        W84110  27.567  23.504   1.703
11818W        W84111  23.610  10.793   4.126
11819W        W84112  20.201   9.697   2.254
11820W        W84113  22.687  15.729   1.315
11821W        W84114  18.628   5.693   3.802
11822W        W84115   5.902  44.491   3.238
11823W        W84116  25.601  23.551  14.345
11824W        W84117  39.863  24.054   0.900
11825W        W84118  27.623  16.085  13.045
11826W        W84119  22.576  11.769  13.018
11827W        W84120   2.965  23.050  10.486
11828W        W84121  35.926   1.872   1.770
11829W        W84122  17.581  39.445  13.956
11830W        W84123  19.637   2.404   4.337
11831W        W84124   5.788   2.964  11.463
11832W        W84125   8.821   1.470   3.260
11833W        W84126  30.534   2.333  13.523
11834W        W84127  13.297  41.338  14.279
11835W        W84128  17.799  28.128  10.938
11836W        W84129  28.455   9.800  10.515
11837W        W84130  40.348  10.176   4.811
11838W        W84131  27.690   7.308   4.244
11839W        W84132   6.323  36.376   1.782
11840W        W84133  24.530  20.535  11.943
11841W        W84134  38.484  43.859  10.430
11842W        W84135  35.919  25.712  14.344
11843W        W84136  27.550  23.187   0.861
11844W        W84137  16.624  31.441  14.987
11845W        W84138  42.942   3.767   3.647
11846W        W84139  40.421   3.326   0.872
11847W        W84140  18.280  19.727   1.826
11848W        W84141  39.920  44.356   4.711
11849W        W84142  37.979  21.695  14.924
11850W        W84143  25.995  23.234  10.935
11851W        W84144  13.177  39.839   4.768
11852W        W84145  15.128  11.651   1.271
11853W        W84146  25.469  43.398   0.786
11854W        W84147  10.856  43.948  13.051
11855W        W84148  43.880  40.464   2.707
11856W        W84149  38.954  21.051  13.943
11857W        W84150  30.989  27.108  13.425
11858W        W84151   0.266  20.698   3.209
11859W        W84152   8.179  22.698  12.474
11860W        W84153  18.631  42.844  13.422
11861W        W84154  42.487  16.144  12.947
11862W        W84155  29.933  14.244   4.618
11863W        W84156  35.042  11.148   3.169
11864W        W84157  21.097  43.979   2.395
11865W        W84158  16.291  11.849  12.038
11866W        W84159  22.543  35.966  13.896
11867W        W84160   6.316  27.573  14.464
11868W        W84161   3.871   3.849   0.951
11869W        W84162  15.166  25.707  14.927
11870W        W84163  10.744   1.769  14.500
11871W        W84164  22.199  21.256   4.603
11872W        W84165  15.750  11.645  13.452
11873W        W84166  22.176   3.929  14.987
11874W        W84167   7.828   2.825  11.954
11875W        W84168  16.571  40.886   0.281
11876W        W84169   2.928   0.801   0.278
11877W        W84170  15.581   0.944   2.747
11878W        W84171  20.172  39.366  13.337
11879W        W84172   2.915  42.843   4.170
11880W        W84173  37.511  33.000  12.992
11881W        W84174   2.745  37.463  13.985
11882W        W84175  17.628  21.225  10.135
11883W        W84176  32.006  34.612   3.170
11884W        W84177  12.167  28.967  13.053
11885W        W84178  10.224   0.253   0.460
11886W        W84179   5.724  34.538  13.954
11887W        W84180   4.744  25.982  10.644
11888W        W84181  25.155  44.922   0.941
11889W        W84182  16.595   7.387  14.407
11890W        W84183  11.173  15.634   1.296
11891W        W84184  37.056  28.457  10.409
11892W        W84185  22.251  15.769  14.380
11893W        W84186   8.853   5.807  14.381
11894W        W84187  30.606  29.582   4.730
11895W        W84188  29.639  39.897   1.331
11896W        W84189  27.115  30.617   5.281
11897W        W84190  23.218  35.369  11.906
11898W        W84191  34.898  29.072   2.225
11899W        W84192  30.098  40.983   2.805
11900W        W84193  23.594   8.389   1.886
11901W        W84194  17.568  21.072   9.649
11902W        W84195   3.847   3.266  11.083
11903W        W84196  27.171  37.037  12.958
11904W        W84197  20.268   8.734  13.377
11905W        W84198  43.408   3.446   1.391
11906W        W84199  10.359  39.434   3.699
11907W        W84200  33.531  11.134   4.816
11908W        W84201  14.276   4.795  14.891
11909W        W84202  44.813  25.569  13.511
11910W        W84203  37.073   1.408   2.345
11911W        W84204   4.223  31.015  10.509
11912W        W84205  32.036  34.939  10.525
11913W        W84206  29.957  34.100   2.226
11914W        W84207   7.309  38.558  11.872
11915W        W84208  14.758  12.319  13.371
11916W        W84209  33.011  36.890   4.823
11917W        W84210   3.308  36.521   3.260
11918W        W84211  42.422  40.019  14.456
11919W        W84212   9.296   2.832   0.315
11920W        W84213  16.109  10.786  11.914
11921W        W84214  40.520  20.539  14.959
11922W        W84215  13.784  13.277   1.308
11923W        W84216   4.923  40.329   4.680
11924W        W84217   8.280  15.173  13.353
11925W        W84218   0.916  24.183  14.029
11926W        W84219  24.121  26.174   4.205
11927W        W84220  22.587  24.031  12.522
11928W        W84221  21.576  25.168  13.820
11929W        W84222   5.757  20.725   4.649
11930W        W84223   6.799  40.493   2.683
11931W        W84224   9.889   6.841   1.382
11932W        W84225  24.118  28.053   1.827
11933W        W84226   4.862  13.722   2.190
11934W        W84227  17.185  35.894   1.314
11935W        W84228  35.040  34.569  13.525
11936W        W84229  33.585   0.381  13.020
11937W        W84230  10.287   3.907  12.442
11938W        W84231  26.526  34.528  12.498
11939W        W84232  39.521   0.943   1.281
11940W        W84233  28.527  31.972   1.787
11941W        W84234  26.673  21.082   3.769
11942W        W84235   5.766  23.600   2.823
11943W        W84236  30.501  27.058   4.674
11944W        W84237   7.308   2.344  13.877
11945W        W84238   2.945  22.631   0.881
11946W        W84239  25.539   0.394   5.300
11947W        W84240   1.431   8.236  12.539
11948W        W84241  32.937  18.214  14.975
11949W        W84242   7.173  20.038  13.837
11950W        W84243  41.339  37.856  13.849
11951W        W84244  29.666   1.936   4.114
11952W        W84245  38.946  15.130  13.495
11953W        W84246  14.733  21.645   3.743
11954W        W84247   3.417  38.051  10.946
11955W        W84248  10.153  38.342   2.753
11956W        W84249   8.840   6.758   2.746
11957W        W84250  36.411  42.421  10.461
11958W        W84251  29.162  32.557  10.605
11959W        W84252   2.949  22.116  14.871
11960W        W84253  25.542  28.985  13.901
11961W        W84254  15.294  28.530   4.799
11962W        W84255  32.568  13.150  11.571
11963W        W84256  40.324  16.799   2.734
11964W        W84257  42.406  17.093  14.471
11965W        W84258  31.469  36.456  11.987
11966W        W84259  37.865   6.707  12.537
11967W        W84260  34.401  34.917   3.247
11968W        W84261  29.491  16.569  14.278
11969W        W84262   0.253  14.262  11.013
11970W        W84263   2.962  33.102   0.758
11971W        W84264  32.989  30.463  11.083
11972W        W84265  33.005  16.583   3.354
11973W        W84266   2.350  34.413   0.793
11974W        W84267   1.481  27.642  12.572
11975W        W84268   5.736  10.875   0.897
11976W        W84269  22.093   0.471   2.212
11977W        W84270  35.443  44.882  11.987
11978W        W84271  20.089   9.343   0.818
11979W        W84272  16.140  13.230   2.740
11980W        W84273  23.168   6.813  13.408
11981W        W84274  12.265  31.592  11.500
11982W        W84275  10.334  17.708  14.003
11983W        W84276  37.977  14.303  14.849
11984W        W84277  16.131   7.818   4.299
11985W        W84278  39.835  19.680  13.053
11986W        W84279   7.903  32.626  11.400
11987W        W84280  29.969  28.946   1.877
11988W        W84281  40.408   2.346  11.582
11989W        W84282  12.661   2.774   4.819
11990W        W84283   9.822   0.285   3.299
11991W        W84284  39.429  18.657   2.826
11992W        W84285   8.328  44.350  12.089
11993W        W84286  37.466  34.510   0.936
11994W        W84287   8.732   6.345   1.416
11995W        W84288  38.366  31.109   1.275
11996W        W84289  29.513   4.407   3.197
11997W        W84290  20.107  24.616   0.279
11998W        W84291  34.471  39.842  12.937
11999W        W84292  42.478  27.513  12.533
12000W        W84293  26.461  34.071  10.468
12001W        W84294   3.756   5.777   3.189
12002W        W84295  28.147  17.655  11.552
12003W        W84296  11.322  16.759  13.964
12004W        W84297  13.174  43.772  10.485
12005W        W84298  38.885  21.231  13.409
12006W        W84299  15.684  34.608   0.957
12007W        W84300  36.451   2.450   3.335
12008W        W84301  21.643  20.101   0.377
12009W        W84302  11.726  21.734  10.904
12010W        W84303  19.198   5.928  10.900
12011W        W84304   7.773  15.615  11.971
12012W        W84305  11.629  17.770  13.003
12013W        W84306   1.941  21.565  12.956
12014W        W84307  34.007   8.353  13.415
12015W        W84308   6.869   4.827  14.349
12016W        W84309  30.510  18.246   1.775
12017W        W84310   6.915  24.139   2.328
12018W        W84311   3.413  38.891   1.261
12019W        W84312  32.482  23.642   2.748
12020W        W84313   2.329  27.447   1.402
12021W        W84314   4.292  15.230   0.925
12022W        W84315   4.734   5.419   1.398
12023W        W84316   4.727  31.588  12.386
12024W        W84317  40.412  36.537   2.321
12025W        W84318   0.761   3.221   0.913
12026W        W84319   6.857   1.935   2.786
12027W        W84320  28.184  35.510  12.095
12028W        W84321   6.677  15.115  14.885
12029W        W84322   8.269  36.055   3.174
12030W        W84323   0.388  24.524  14.875
12031W        W84324  43.898  35.411   4.350
12032W        W84325   8.853   7.328  13.443
12033W        W84326  42.015  21.095  11.433
12034W        W84327  27.953  16.244   4.163
12035W        W84328  15.090  33.009  10.560
12036W        W84329  27.668  35.578   2.393
12037W        W84330  12.298  35.003   0.345
12038W        W84331  15.717  29.530   1.904
12039W        W84332   4.235  19.186  14.809
12040W        W84333  21.525  12.226   3.167
12041W        W84334   7.398  27.547   3.232
12042W        W84335   3.276  21.206   0.873
12043W        W84336   7.827  27.107  13.826
12044W        W84337   8.245  27.954  14.834
12045W        W84338  16.147  30.518  14.320
12046W        W84339  23.051  36.041   3.847
12047W        W84340   3.858  26.489  13.869
12048W        W84341  17.695  11.295   0.836
12049W        W84342  12.669  13.193  12.079
12050W        W84343  31.559   3.298  14.373
12051W        W84344  18.120   6.256  13.820
12052W        W84345  13.621   5.347   5.115
12053W        W84346   5.383  31.138   2.880
12054W        W84347  41.395   2.271  10.634
12055W        W84348  28.466  25.128   0.838
12056W        W84349  41.893  34.921   3.375
12057W        W84350  16.577  37.086   2.297
12058W        W84351   5.908  32.889   2.294
12059W        W84352  16.621  17.095  13.898
12060W        W84353  31.969  13.349  14.979
12061W        W84354  29.006  18.554   3.238
12062W        W84355  43.990   6.426   0.342
12063W        W84356  32.135  35.525   1.868
12064W        W84357  40.035  38.374  10.483
12065W        W84358  10.668  32.602   3.317
12066W        W84359  29.598  10.167  14.284
12067W        W84360  37.853  11.247  11.899
12068W        W84361  18.676  39.869   1.219
12069W        W84362  28.620   6.407   0.751
12070W        W84363  31.525   5.273  13.897
12071W        W84364  39.903  24.621  10.941
12072W        W84365  30.063  21.653  13.518
12073W        W84366  34.869  44.505   5.321
12074W        W84367  34.382  37.428  12.391
12075W        W84368  14.165  22.512  11.106
12076W        W84369  19.567  18.641  14.920
12077W        W84370  38.550  18.201   2.238
12078W        W84371  17.638  18.575  14.425
12079W        W84372  24.637  34.428   4.245
12080W        W84373  31.433  31.997   1.823
12081W        W84374  16.707   9.752  13.020
12082W        W84375  17.654   1.965   2.333
12083W        W84376  27.015  14.276   0.304
12084W        W84377  27.594   0.453   0.248
12085W        W84378  44.768   6.718   0.862
12086W        W84379   9.769  42.318  14.417
12087W        W84380  36.460  13.262   3.803
12088W        W84381  15.734   8.798   1.811
12089W        W84382  23.076  14.723   3.191
12090W        W84383  25.089  17.134  12.445
12091W        W84384  12.336  13.658  12.920
12092W        W84385  32.923  41.354  13.369
12093W        W84386  33.894   5.702  10.478
12094W        W84387  10.780   3.722   4.731
12095W        W84388  32.559   0.459   4.761
12096W        W84389  18.659   6.221  11.080
12097W        W84390   5.759   2.292  11.115
12098W        W84391   8.196  39.899   4.670
12099W        W84392  36.354   0.288   0.423
12100W        W84393  24.572  41.015   3.841
12101W        W84394   9.379  23.212   3.811
12102W        W84395  23.103  41.330   3.371
12103W        W84396  14.671  39.464   3.243
12104W        W84397  28.171   1.424  14.802
12105W        W84398  43.395   3.399   2.260
12106W        W84399  17.790  26.484  14.356
12107W        W84400  15.646  16.701  11.060
12108W        W84401  20.057  28.450   3.761
12109W        W84402   7.718   7.380   1.354
12110W        W84403  28.054  12.212  11.567
12111W        W84404   4.279  30.090   3.261
12112W        W84405  17.068  13.290   3.361
12113W        W84406  23.024  18.762  11.613
12114W        W84407  19.711  33.066  13.443
12115W        W84408  33.455  12.266  12.853
12116W        W84409  40.360  20.755   2.250
12117W        W84410  29.550  39.885  14.362
12118W        W84411  25.569   1.791  11.599
12119W        W84412  20.243  28.948  12.407
12120W        W84413   9.805   9.672   1.399
12121W        W84414  10.140  20.551   1.912
12122W        W84415  27.951  14.761   2.223
12123W        W84416  18.544  15.658   1.791
12124W        W84417   3.804  42.408   1.836
12125W        W84418  32.940  24.675   3.249
12126W        W84419  37.575  29.923   4.277
12127W        W84420  11.674  13.622  11.997
12128W        W84421  25.212  29.569  14.020
12129W        W84422   2.914  18.260  14.902
12130W        W84423   3.930  23.644  13.531
12131W        W84424  18.252   4.384  12.063
12132W        W84425  44.009  33.563   3.819
12133W        W84426  36.855   7.241  11.932
12134W        W84427  29.035  15.762  11.008
12135W        W84428  17.621  42.857  10.422
12136W        W84429  29.166  19.756   4.706
12137W        W84430  44.303   2.366  11.044
12138W        W84431  44.271  12.694   2.354
12139W        W84432  37.894  20.752  10.936
12140W        W84433  34.488  40.994  13.917
12141W        W84434   2.930   1.329  14.458
12142W        W84435  38.821   4.838  12.522
12143W        W84436   9.365  29.426   1.918
12144W        W84437  44.903  20.167   3.838
12145W        W84438  13.180   5.399   1.777
12146W        W84439  11.294  36.370  14.311
12147W        W84440  21.682   3.722   0.383
12148W        W84441   4.212   7.672   2.178
12149W        W84442  44.969  29.173  14.398
12150W        W84443  13.798  10.767   4.804
12151W        W84444  13.604   0.477   0.806
12152W        W84445  33.881  21.621   1.428
12153W        W84446  34.025   4.396   2.699
12154W        W84447  34.066  40.949   2.806
12155W        W84448  29.092  12.235   2.203
12156W        W84449  38.907  34.029   4.749
12157W        W84450  43.993  40.454  10.554
12158W        W84451  13.241  30.027  12.887
12159W        W84452  14.726   7.795   2.302
12160W        W84453  42.485  17.206  11.444
12161W        W84454  30.925   2.288  11.929
12162W        W84455  19.217  13.661   2.740
12163W        W84456  24.161   8.203  10.498
12164W        W84457  26.622  23.669   2.851
12165W        W84458  38.484  44.771   0.391
12166W        W84459  13.790  14.620  10.997
12167W        W84460  20.729  28.126  14.494
12168W        W84461  28.933  29.441   1.728
12169W        W84462  29.032   1.380  10.935
12170W        W84463  44.830  29.996   1.357
12171W        W84464  14.340  29.458  12.833
12172W        W84465   8.655  21.069  14.425
12173W        W84466  41.346  33.591   4.655
12174W        W84467  11.333  20.705   3.330
12175W        W84468  12.217   2.241  12.519
12176W        W84469  39.509   3.942  10.604
12177W        W84470  13.189  11.763   3.206
12178W        W84471  20.095  10.874   3.328
12179W        W84472  28.501  14.154   4.274
12180W        W84473  36.578  16.155  12.008
12181W        W84474   1.464  42.833  12.971
12182W        W84475   8.390  13.824  12.392
12183W        W84476  28.488  31.462   2.303
12184W        W84477  16.726  32.980   3.293
12185W        W84478   1.895  17.248  13.890
12186W        W84479  34.918  31.042  14.880
12187W        W84480  30.937  11.227   1.742
12188W        W84481   6.215  16.600  11.391
12189W        W84482  42.430  28.101  13.421
12190W        W84483  21.049  17.229  14.337
12191W        W84484  33.103  11.300   4.143
12192W        W84485   8.327   6.693   0.416
12193W        W84486   4.704  10.287  13.407
12194W        W84487   4.206  31.949   3.263
12195W        W84488   1.845   7.680   1.344
12196W        W84489  35.090   2.867  13.063
12197W        W84490  41.986  17.678   0.743
12198W        W84491  23.635  29.582   2.694
12199W        W84492   6.897  16.780   3.288
12200W        W84493  41.417  36.070   0.948
12201W        W84494  24.652   4.220   4.344
12202W        W84495  12.271  33.926  11.094
12203W        W84496  19.641  23.532  14.427
12204W        W84497  14.332  43.373  12.084
12205W        W84498  44.427  31.905   2.822
12206W        W84499  35.570   6.359   3.157
12207W        W84500  10.232  13.124  14.353
12208W        W84501  25.471   8.404  12.010
12209W        W84502   0.335   4.335   0.347
12210W        W84503  41.395  28.145   3.168
12211W        W84504  18.057  32.499  11.559
12212W        W84505  29.613   2.867   0.256
12213W        W84506   4.897  22.735   2.372
12214W        W84507   5.368  20.740  14.373
12215W        W84508   8.868  38.023   1.872
12216W        W84509  15.115   8.734   4.786
12217W        W84510  10.786   4.303  12.470
12218W        W84511  35.065  17.079  10.126
12219W        W84512  13.195  35.875   1.788
12220W        W84513   1.898  26.196   2.258
12221W        W84514  25.656  25.601  11.383
12222W        W84515  37.492   7.840  13.910
12223W        W84516  29.036   6.263   0.464
12224W        W84517  43.948  41.955  13.975
12225W        W84518  19.648  33.574   9.527
12226W        W84519  18.637   1.457   2.834
12227W        W84520  30.447  27.108   0.913
12228W        W84521  39.317   1.849   3.323
12229W        W84522  33.036  16.708   4.298
12230W        W84523  16.596  26.541   3.862
12231W        W84524  25.179  25.137   2.854
12232W        W84525  34.412  34.919  14.428
12233W        W84526  10.765  17.104  11.902
12234W        W84527  32.000  38.554   0.902
12235W        W84528  40.338  22.222  13.882
12236W        W84529  24.989  20.069  13.870
12237W        W84530  40.365  17.261   1.703
12238W        W84531  33.914  10.191   4.741
12239W        W84532   5.819  32.499  13.471
12240W        W84533  40.985  29.108   3.715
12241W        W84534  37.532  44.969   3.790
12242W        W84535   9.379  10.826  12.395
12243W        W84536  33.944  27.966   3.189
12244W        W84537  19.641  40.308   3.809
12245W        W84538   5.857  30.090   3.848
12246W        W84539  20.720  26.668  12.060
12247W        W84540  18.647   3.389   0.910
12248W        W84541  43.481  37.039   4.127
12249W        W84542  12.650  42.445  14.875
12250W        W84543  13.648  13.828   4.819
12251W        W84544  31.027  30.601   4.338
12252W        W84545  29.926  41.448   0.903
12253W        W84546  11.729  21.140  10.630
12254W        W84547  33.913  17.750   1.379
12255W        W84548  19.585  36.083   1.447
12256W        W84549  32.077  44.415   5.162
12257W        W84550  30.611  32.090  11.044
12258W        W84551  33.108   6.202  11.469
12259W        W84552  38.433  23.168   0.783
12260W        W84553  32.397  41.405  13.445
12261W        W84554  39.982   8.216  13.968
12262W        W84555  27.956  39.888   4.806
12263W        W84556   6.836  23.090  11.399
12264W        W84557   7.256  21.557   2.205
12265W        W84558  19.726  25.996   1.347
12266W        W84559  25.503  33.410  10.622
12267W        W84560   1.445   2.809  13.815
12268W        W84561  16.265  26.476   0.760
12269W        W84562  31.422  20.639  13.994
12270W        W84563   6.883  36.454  14.011
12271W        W84564   7.667  34.988  13.424
12272W        W84565  38.328  43.814   4.810
12273W        W84566  20.168  18.557   5.321
12274W        W84567  29.062  31.561  14.947
12275W        W84568  15.751  30.132   2.814
12276W        W84569  39.542  10.213   1.390
12277W        W84570  17.616  21.667   4.796
12278W        W84571   0.806  12.728   0.347
12279W        W84572   8.345   9.174  14.368
12280W        W84573  36.082  24.996  13.899
12281W        W84574  38.912  19.590  11.492
12282W        W84575  19.203  31.912  13.893
12283W        W84576  18.097  17.199  14.814
12284W        W84577  25.558   0.251   4.732
12285W        W84578  15.283  14.099   3.752
12286W        W84579  17.768  44.477  12.562
12287W        W84580  12.178   2.874  13.795
12288W        W84581   5.340  11.654   1.419
12289W        W84582  13.338   7.263   4.632
12290W        W84583  24.072  16.619   1.893
12291W        W84584  16.779   0.412   2.898
12292W        W84585  13.664  37.573  14.025
12293W        W84586  31.527  30.444  14.805
12294W        W84587   8.364   6.321  12.840
12295W        W84588  22.697  10.313  11.978
12296W        W84589   3.258  25.966  10.414
12297W        W84590   4.291  29.638   1.427
12298W        W84591   8.374   9.762   2.723
12299W        W84592  25.122  43.423   3.691
12300W        W84593  36.426  20.549  12.018
12301W        W84594  38.368   8.271   4.658
12302W        W84595  13.772  16.294   2.202
12303W        W84596  13.205  37.352   5.122
12304W        W84597  37.396   0.821  11.878
12305W        W84598  35.395   5.348  13.508
12306W        W84599  36.950  31.082  10.464
12307W        W84600  18.121  29.522  12.009
12308W        W84601   9.885   4.840   1.316
12309W        W84602  25.669  34.590  10.631
12310W        W84603   7.198  23.181  11.097
12311W        W84604  38.831  40.374   4.762
12312W        W84605  31.054   1.385   3.724
12313W        W84606  27.629  30.490   0.742
12314W        W84607  23.227   6.288   2.343
12315W        W84608  20.223  19.681  12.353
12316W        W84609  41.503   2.367   3.731
12317W        W84610  36.910  37.959  10.442
12318W        W84611  25.573  18.122   1.290
12319W        W84612  25.047   0.467  10.424
12320W        W84613  18.558  36.557   1.393
12321W        W84614  39.057  10.716   1.283
12322W        W84615  18.686  23.634   3.165
12323W        W84616  10.280   6.921  10.947
12324W        W84617  38.440   5.801  12.447
12325W        W84618  25.659  23.124  13.321
12326W        W84619   0.843  26.103  12.539
12327W        W84620   9.741  19.170  10.951
12328W        W84621  38.351  26.461   0.341
12329W        W84622  38.994  20.590   0.829
12330W        W84623  19.077  17.572   4.737
12331W        W84624  39.474   4.398  14.832
12332W        W84625  12.699  31.935  14.500
12333W        W84626  38.473   2.923  12.871
12334W        W84627  40.950  19.619  12.896
12335W        W84628  33.130   7.404   1.711
12336W        W84629   5.267  27.069   1.391
12337W        W84630  20.101  29.642   4.157
12338W        W84631  18.673   6.325  12.854
12339W        W84632  15.809  30.045  14.779
12340W        W84633  31.975  13.714  13.848
12341W        W84634  12.325  35.514   4.239
12342W        W84635  17.217  22.103  13.438
12343W        W84636   4.802  44.482   4.328
12344W        W84637  40.548  33.621  11.002
12345W        W84638  33.076  40.415  13.400
12346W        W84639  27.020  12.203  14.411
12347W        W84640  44.266  26.022   4.188
12348W        W84641  35.981  37.053  13.310
12349W        W84642  23.599  33.396  13.821
12350W        W84643  17.080   5.410  13.538
12351W        W84644  22.679   6.278  11.471
12352W        W84645   6.387   4.392  14.795
12353W        W84646  19.143  32.412   3.343
12354W        W84647  32.631   6.195  10.126
12355W        W84648  28.956   9.712   5.806
12356W        W84649   6.301  12.706  13.931
12357W        W84650   2.337  21.756  14.409
12358W        W84651  28.025  17.227  10.453
12359W        W84652  32.104  40.488   3.269
12360W        W84653  18.106  16.271   4.181
12361W        W84654  21.511  15.760   2.743
12362W        W84655  36.572   4.867   2.899
12363W        W84656  38.400  10.175  12.549
12364W        W84657  30.930  20.071   2.730
12365W        W84658   5.700  39.415  11.972
12366W        W84659  44.332  12.743  14.860
12367W        W84660  39.454  36.004  14.791
12368W        W84661   8.211  10.142   3.168
12369W        W84662   8.720  25.063  13.381
12370W        W84663  42.290   7.849  11.568
12371W        W84664  43.275  31.414  10.931
12372W        W84665  38.375   0.395   2.713
12373W        W84666   8.885  32.999  11.015
12374W        W84667  34.576  17.748   1.239
12375W        W84668  17.078  43.979   4.158
12376W        W84669   1.807  15.756   4.603
12377W        W84670  38.961   8.232   3.292
12378W        W84671  27.625  31.489   4.169
12379W        W84672  18.294  38.376   4.310
12380W        W84673  12.751  15.688  13.329
12381W        W84674  33.905  29.039   1.245
12382W        W84675  29.133  37.886   1.306
12383W        W84676  13.181  18.131  11.449
12384W        W84677   7.300  13.256  11.386
12385W        W84678   5.766  31.966   3.311
12386W        W84679   7.721  43.894   0.313
12387W        W84680  24.183  35.872   5.113
12388W        W84681  16.601  39.013   4.768
12389W        W84682  39.449  16.150  13.028
12390W        W84683   0.922   8.180  12.090
12391W        W84684   0.813  39.929   1.322
12392W        W84685  39.370  12.639  14.365
12393W        W84686  10.878  37.412  10.123
12394W        W84687   8.800  32.633   1.246
12395W        W84688  21.522  33.534   4.661
12396W        W84689  25.689  34.116  11.936
12397W        W84690  33.993  18.550  13.008
12398W        W84691  40.543  42.380   1.781
12399W        W84692  12.837  27.087  10.617
12400W        W84693  42.846  13.624  13.429
12401W        W84694   3.279   2.271  14.909
12402W        W84695  31.462   6.274   4.732
12403W        W84696   5.356  17.263   4.183
12404W        W84697  12.738   5.827   0.439
12405W        W84698  26.187  18.147  10.533
12406W        W84699  38.057  39.946   2.695
12407W        W84700  10.802  43.437  11.048
12408W        W84701  19.668  35.001   3.645
12409W        W84702  29.945  10.321   3.350
12410W        W84703  15.322  44.458   0.784
12411W        W84704  42.948  44.854   0.357
12412W        W84705  28.644  21.754   2.178
12413W        W84706  42.322  22.608   2.222
12414W        W84707  27.511   4.373   4.826
12415W        W84708  25.530  41.815   4.762
12416W        W84709  44.470  14.681   3.847
12417W        W84710  22.224  13.339   2.746
12418W        W84711   6.883   8.779   0.455
12419W        W84712  38.054  29.152   4.777
12420W        W84713   9.319  25.531   4.829
12421W        W84714   2.422  14.753  13.360
12422W        W84715  19.044  38.501   2.885
12423W        W84716  13.312   3.712   9.960
12424W        W84717  28.587  25.074   3.378
12425W        W84718   2.396  31.899  13.357
12426W        W84719  27.180  14.319   1.845
12427W        W84720  38.336  44.406  12.464
12428W        W84721  25.219  40.837   3.785
12429W        W84722   4.294  28.974   4.217
12430W        W84723  19.664  18.145  11.891
12431W        W84724  24.494  14.292   1.212
12432W        W84725  12.124  39.395  11.389
12433W        W84726  32.615  29.440   0.249
12434W        W84727   6.424  28.168  11.912
12435W        W84728  31.457  41.944  12.400
12436W        W84729  37.444  40.481  14.400
12437W        W84730  25.708  32.596  12.379
12438W        W84731  40.460  21.241  14.325
12439W        W84732   2.242  24.563   4.320
12440W        W84733  14.272  36.427   4.822
12441W        W84734  30.597  34.555  11.419
12442W        W84735  16.125  18.109  11.531
12443W        W84736  12.267   6.260   3.378
12444W        W84737  30.462  23.134   1.762
12445W        W84738  31.921   8.168  10.094
12446W        W84739  38.061  18.675   4.825
12447W        W84740  10.274   4.258   9.921
12448W        W84741  41.331   1.274   1.341
12449W        W84742  44.476   2.727   2.331
12450W        W84743  35.911   7.352   3.356
12451W        W84744   8.728  30.907  13.807
12452W        W84745   3.366  42.991   3.279
12453W        W84746  42.921  26.498  11.566
12454W        W84747  19.188  20.588   0.440
12455W        W84748   6.700  18.673  11.988
12456W        W84749  23.616   6.206   0.280
12457W        W84750  33.967   5.840   4.287
12458W        W84751  23.710  20.529  14.900
12459W        W84752   5.253   6.281   0.728
12460W        W84753  38.529  35.431   1.710
12461W        W84754  23.990  12.813   3.198
12462W        W84755  12.335  15.698  14.302
12463W        W84756  20.189  18.723  10.425
12464W        W84757  34.101  42.428   1.798
12465W        W84758  18.142   0.929  13.026
12466W        W84759  32.927   0.300   2.713
12467W        W84760  33.525  25.524  14.014
12468W        W84761  19.597  20.762   0.348
12469W        W84762  30.558  29.016   4.747
12470W        W84763   9.882  19.684   2.898
12471W        W84764   8.855  24.595   0.796
12472W        W84765   5.932  21.180   3.677
12473W        W84766  35.943  16.142   4.236
12474W        W84767  27.454  12.666  12.390
12475W        W84768  44.826  17.232   0.841
12476W        W84769   7.291  25.124   3.158
12477W        W84770  27.030  41.349   2.798
12478W        W84771  39.559  31.605  13.387
12479W        W84772  33.588  15.155   1.403
12480W        W84773   2.442  40.965   3.851
12481W        W84774  34.467  16.566   4.139
12482W        W84775  22.055  18.069   0.380
12483W        W84776  39.375  28.535   2.901
12484W        W84777   8.229  15.093   0.816
12485W        W84778  18.591  34.480  11.856
12486W        W84779  32.932   8.320  11.987
12487W        W84780  42.905  23.985   4.641
12488W        W84781  36.976  34.965  10.582
12489W        W84782   3.357  36.884   3.342
12490W        W84783  24.208  30.920  12.867
12491W        W84784   3.894   7.786   2.813
12492W        W84785  38.877  17.739  12.376
12493W        W84786  15.278  28.002  11.113
12494W        W84787   7.806  11.284   4.201
12495W        W84788  12.251  37.468   3.265
12496W        W84789  14.759   4.219   1.730
12497W        W84790  21.106  41.339   1.346
12498W        W84791  11.700   6.376  13.908
12499W        W84792  22.693  37.998  10.600
12500W        W84793  29.476  14.149  12.015
12501W        W84794  21.032  16.714  11.572
12502W        W84795   6.398  20.223   0.843
12503W        W84796  14.821  13.143  12.893
12504W        W84797   2.403  34.029  12.339
12505W        W84798  30.485  41.021   1.266
12506W        W84799   9.311   0.414  10.522
12507W        W84800  39.024  22.712   3.679
12508W        W84801  37.052   2.469  13.848
12509W        W84802  16.175   0.745  11.008
12510W        W84803  32.437   0.429   0.243
12511W        W84804  43.398  19.122  11.599
12512W        W84805  38.473  35.930   0.884
12513W        W84806   4.345  25.496  10.435
12514W        W84807   1.753  33.498   4.805
12515W        W84808  34.929  31.552   4.143
12516W        W84809  41.455  32.899   4.266
12517W        W84810   9.722   8.227   1.300
12518W        W84811  35.459  13.663   2.191
12519W        W84812  44.011   3.921  14.820
12520W        W84813   8.256  13.767   3.777
12521W        W84814  30.613  43.990  10.549
12522W        W84815  39.338   2.739   2.725
12523W        W84816  36.385  16.669  11.518
12524W        W84817  37.358  28.491  13.046
12525W        W84818   5.831  23.185   4.665
12526W        W84819  15.608  44.443   3.814
12527W        W84820   5.825   7.736   2.245
12528W        W84821  13.252  25.511  11.945
12529W        W84822  37.909  28.453  10.634
12530W        W84823  10.735  36.440  10.565
12531W        W84824  39.544  32.519  13.825
12532W        W84825  39.061  41.314   1.901
12533W        W84826  39.371  12.208  12.565
12534W        W84827  31.132   4.210  11.593
12535W        W84828  40.944   9.353  14.789
12536W        W84829  29.638  42.810  12.351
12537W        W84830  34.428  18.789   4.802
12538W        W84831   0.358  18.575  10.898
12539W        W84832  18.216  34.978  11.465
12540W        W84833   0.835   1.336   2.206
12541W        W84834   6.712  29.550   1.884
12542W        W84835  30.147  28.139   4.237
12543W        W84836  18.700  21.246   3.152
12544W        W84837   0.311  37.978  10.955
12545W        W84838  18.686   1.347   4.621
12546W        W84839  15.703  39.997   2.314
12547W        W84840  39.016  34.384  12.041
12548W        W84841  20.210  34.985  14.455
12549W        W84842  32.970  42.792  11.870
12550W        W84843  37.525  39.942   4.707
12551W        W84844   9.804  43.994  10.892
12552W        W84845  40.416  43.865  10.436
12553W        W84846  21.120   0.353   4.197
12554W        W84847  11.231  36.991   1.704
12555W        W84848  41.419  16.588  12.402
12556W        W84849   9.758  10.193  13.340
12557W        W84850  39.435  15.755  10.983
12558W        W84851  42.437  17.707  14.979
12559W        W84852  15.640   0.274  10.051
12560W        W84853   5.285  38.854   2.231
12561W        W84854   4.718  11.766  11.417
12562W        W84855  42.845  27.046   4.714
12563W        W84856  18.106  27.572  14.474
12564W        W84857  37.018   8.825   3.642
12565W        W84858  19.737  26.012  14.896
12566W        W84859  28.603  27.054  10.576
12567W        W84860  11.698  37.358   4.127
12568W        W84861  41.538  37.482   4.713
12569W        W84862  40.837  12.843   3.385
12570W        W84863  42.925  19.130  13.940
12571W        W84864  39.960   9.322   1.843
12572W        W84865  25.038  31.448   0.450
12573W        W84866  14.276  31.422   0.934
12574W        W84867  12.215  28.476  11.442
12575W        W84868  15.731   9.264   0.476
12576W        W84869  15.655  17.244   0.298
12577W        W84870  39.314   5.923  11.396
12578W        W84871  28.088  22.654   2.760
12579W        W84872  37.500   9.864   2.768
12580W        W84873  41.987  17.164   3.682
12581W        W84874  28.162  35.930   3.772
12582W        W84875  41.007  15.703  12.856
12583W        W84876   1.375   3.737   4.325
12584W        W84877   0.916  42.416  13.832
12585W        W84878  26.648   7.173   0.379
12586W        W84879  36.919  23.987  13.890
12587W        W84880  20.669  29.101   0.956
12588W        W84881  40.799  33.033  14.990
12589W        W84882  19.724  20.713  10.989
12590W        W84883   0.952  16.227   1.210
12591W        W84884  12.788  21.177   0.319
12592W        W84885   9.238  16.721  14.288
12593W        W84886  17.088  15.088  10.512
12594W        W84887  32.522  16.157  14.330
12595W        W84888  35.467  26.097  12.932
12596W        W84889   5.369  37.382   3.841
12597W        W84890  37.975  34.074  14.936
12598W        W84891  35.018   5.247  12.560
12599W        W84892  43.817  34.446   1.320
12600W        W84893  44.340  26.131  14.965
12601W        W84894   8.833  41.357  11.540
12602W        W84895  44.295  39.448   2.395
12603W        W84896  33.948  32.128   1.322
12604W        W84897   8.687  34.082   9.530
12605W        W84898   2.784  43.946  11.547
12606W        W84899  33.478  32.544   2.396
12607W        W84900  12.269  41.018   4.640
12608W        W84901   5.764   1.397  12.524
12609W        W84902  44.834   4.771  13.035
12610W        W84903  40.924  14.216  11.006
12611W        W84904  21.545  38.470  14.409
12612W        W84905  36.560  10.831  11.441
12613W        W84906  36.423  39.361  12.947
12614W        W84907  37.996   1.373   1.283
12615W        W84908  42.895  34.582   9.977
12616W        W84909   4.768  36.434  14.871
12617W        W84910  24.180  10.349  13.940
12618W        W84911   3.301  43.394  11.063
12619W        W84912   3.916  21.568   2.852
12620W        W84913  42.465  21.593  14.803
12621W        W84914  18.101   7.780  10.554
12622W        W84915  25.043  12.116   1.799
12623W        W84916  43.821  43.769   3.357
12624W        W84917  29.578  20.060   4.725
12625W        W84918  17.172  14.274  12.492
12626W        W84919   9.280  28.591   1.212
12627W        W84920  31.568  37.895   4.661
12628W        W84921  14.275  37.035  13.838
12629W        W84922  23.569  16.233   4.783
12630W        W84923  11.810  16.297  12.412
12631W        W84924  28.140  10.376  12.921
12632W        W84925  41.998  20.768   0.281
12633W        W84926  35.927  32.450   1.779
12634W        W84927  31.920   8.831  12.562
12635W        W84928  34.955  21.078  14.831
12636W        W84929   7.361  34.099  10.094
12637W        W84930  16.633  17.245  14.884
12638W        W84931  41.343  21.718  13.029
12639W        W84932  24.667  37.418  10.934
12640W        W84933   3.760  32.994   3.214
12641W        W84934  43.840  22.591  13.402
12642W        W84935  11.223   0.280  10.506
12643W        W84936  44.259  34.083   0.955
12644W        W84937  19.621  44.781   3.207
12645W        W84938   3.430   7.786   4.785
12646W        W84939  15.110   5.276   2.878
12647W        W84940  12.302   2.726   1.882
12648W        W84941  37.520  25.180   4.758
12649W        W84942  22.219   7.760   2.847
12650W        W84943  12.854  15.785  13.022
12651W        W84944  13.720  33.561  13.024
12652W        W84945  38.938  24.526   2.768
12653W        W84946   7.856  33.935   3.795
12654W        W84947  23.710  35.988   1.820
12655W        W84948  18.062  29.493  10.439
12656W        W84949  21.167   9.699  13.542
12657W        W84950  25.996  38.964   3.705
12658W        W84951   2.874  36.588   2.360
12659W        W84952  23.012   9.190  12.034
12660W        W84953  18.093  35.376  11.385
12661W        W84954   3.732   4.401   2.262
12662W        W84955  22.069  40.313   1.229
12663W        W84956  43.975  23.509   2.863
12664W        W84957  27.982  27.966  12.002
12665W        W84958  21.023  38.446  13.048
12666W        W84959   3.222   6.355  14.798
12667W        W84960  23.588   4.932   5.280
12668W        W84961  34.404   4.241  14.488
12669W        W84962  37.957  34.085   0.908
12670W        W84963  16.580  23.723   0.842
12671W        W84964  31.928  22.024   0.325
12672W        W84965   8.733  39.549   3.173
12673W        W84966  31.909   4.310  10.145
12674W        W84967  33.490  29.621  14.929
12675W        W84968  16.150  20.175   3.277
12676W        W84969  44.293   2.912  14.928
12677W        W84970  40.546  17.680  14.487
12678W        W84971  15.233   1.839  12.946
12679W        W84972  12.258   0.930  14.370
12680W        W84973  25.117  29.491  13.389
12681W        W84974  43.481  39.902  12.077
12682W        W84975  21.621   1.770   3.835
12683W        W84976  34.389  24.540   4.187
12684W        W84977  11.665   0.877   1.815
12685W        W84978  38.928   8.238  14.380
12686W        W84979   5.236  23.060   0.897
12687W        W84980  17.640  44.849  11.955
12688W        W84981   3.346   6.686  13.327
12689W        W84982  22.617  42.392   0.447
12690W        W84983  25.634  37.964   1.241
12691W        W84984  41.446  40.418   2.900
12692W        W84985   8.357  33.127  13.981
12693W        W84986   0.325  30.470  10.405
12694W        W84987  23.107  29.467   0.783
12695W        W84988  13.742  15.236   2.692
12696W        W84989  12.613  24.110  10.931
12697W        W84990  16.645   5.330   1.221
12698W        W84991  43.902  40.842  13.530
12699W        W84992  26.082  27.479   1.412
12700W        W84993  26.157   7.363   3.155
12701W        W84994  16.602  43.297  14.309
12702W        W84995   3.853   0.902   2.693
12703W        W84996  31.063  33.545   3.284
12704W        W84997  38.562   7.195   4.613
12705W        W84998  21.748  30.959  13.956
12706W        W84999   4.783   8.805  10.500
12707W        W85000  40.443  11.860   2.407
12708W        W85001  28.041  22.250  10.576
12709W        W85002  19.214  26.619  10.625
12710W        W85003  44.353  43.444  13.059
12711W        W85004  26.461  16.203   0.407
12712W        W85005   7.409  33.538  12.037
12713W        W85006  43.317   8.781  12.365
12714W        W85007   9.272  18.718   4.268
12715W        W85008  43.969  41.870  14.365
12716W        W85009  12.722   3.750   0.378
12717W        W85010  31.020  16.806   1.838
12718W        W85011  22.085  27.064   1.391
12719W        W85012  27.044  12.659   5.163
12720W        W85013  29.016  28.044  11.000
12721W        W85014  35.921  38.941   4.188
12722W        W85015  19.084  31.452   1.815
12723W        W85016  43.856  24.517   3.752
12724W        W85017   5.225  28.495  11.048
12725W        W85018  39.443  11.353   0.880
12726W        W85019  44.279  15.137   3.321
12727W        W85020  29.605  31.009  11.573
12728W        W85021  14.254  33.913   0.956
12729W        W85022  37.038  25.625  10.967
12730W        W85023  28.516  20.695  14.879
12731W        W85024  21.235  31.975   3.371
12732W        W85025  17.701   6.757   1.407
12733W        W85026  28.176  41.417  13.028
12734W        W85027  18.591  37.571  11.474
12735W        W85028  18.177   9.228   3.632
12736W        W85029  36.418   3.812  12.031
12737W        W85030  22.612  14.823  10.637
12738W        W85031  12.124   7.287   2.303
12739W        W85032   0.770  40.371  12.000
12740W        W85033  23.602   1.477  14.494
12741W        W85034   2.279  28.009   3.824
12742W        W85035   2.724   5.925  12.340
12743W        W85036   4.739   6.766  13.479
12744W        W85037   5.927  10.202  10.005
12745W        W85038  32.445  33.557  10.006
12746W        W85039   3.824  19.689   0.860
12747W        W85040   2.445  42.282   0.918
12748W        W85041  22.728   7.351  14.343
12749W        W85042   5.425  19.138   4.757
12750W        W85043  25.179  17.699  13.366
12751W        W85044  10.703  43.923  13.858
12752W        W85045  40.896  21.609  10.907
12753W        W85046  26.520  36.060  12.031
12754W        W85047  39.315  23.727   1.421
12755W        W85048  30.470  31.024   3.384
12756W        W85049  19.540  42.381  11.928
12757W        W85050  42.289   8.188   3.804
12758W        W85051   8.222  44.466   3.299
12759W        W85052  41.976  36.438  11.025
12760W        W85053  28.551  17.082  13.993
12761W        W85054   1.383  14.724  14.974
12762W        W85055  30.010  37.479  14.759
12763W        W85056  33.040  31.451  11.999
12764W        W85057   8.375  43.825   4.324
12765W        W85058  40.478  44.384  13.798
12766W        W85059   6.704  10.742  12.041
12767W        W85060  35.381   6.821   0.826
12768W        W85061  36.542   7.778   1.337
12769W        W85062  25.037  43.848  10.485
12770W        W85063   2.946  30.444  10.480
12771W        W85064  35.071  23.714  13.890
12772W        W85065  13.655   4.730  10.139
12773W        W85066   5.314  21.585  12.937
12774W        W85067  26.542  12.771   1.332
12775W        W85068  44.896  15.698  11.568
12776W        W85069  29.476   6.697   4.252
12777W        W85070  14.177   1.475   2.219
12778W        W85071  20.660  42.778   4.226
12779W        W85072  23.671   3.289   4.604
12780W        W85073  42.489  41.510   2.292
12781W        W85074  11.735  19.264   4.224
12782W        W85075  11.195  28.953  12.431
12783W        W85076  14.791  19.636   1.899
12784W        W85077  26.142   8.877  14.503
12785W        W85078   6.344  24.082   2.327
12786W        W85079  41.849   5.258  12.365
12787W        W85080  39.022  20.144  11.380
12788W        W85081  19.268   5.404   3.335
12789W        W85082  43.287   1.349  13.034
12790W        W85083  14.592  22.742   3.270
12791W        W85084  33.066  14.117  10.444
12792W        W85085  36.014  16.676   3.860
12793W        W85086  24.604  12.828   1.249
12794W        W85087  23.494  34.433  12.069
12795W        W85088  39.019   5.710  12.545
12796W        W85089  14.098   8.373  11.472
12797W        W85090  10.281   9.330  11.947
12798W        W85091  38.833  12.619   1.904
12799W        W85092  42.483  37.935   3.775
12800W        W85093  17.236   8.801  11.401
12801W        W85094  12.350  22.194  12.427
12802W        W85095  20.711  29.575  12.882
12803W        W85096  10.637  10.686   0.299
12804W        W85097   5.930   7.822  14.014
12805W        W85098  19.725  27.584   3.145
12806W        W85099  23.036  16.264   0.455
12807W        W85100  44.797  26.497   2.347
12808W        W85101  44.831   9.327   4.289
12809W        W85102  42.997  24.541  12.490
12810W        W85103   4.299  30.913  13.059
12811W        W85104   8.229   8.785  13.947
12812W        W85105  40.036  10.641  13.985
12813W        W85106  11.649  31.411  14.367
12814W        W85107   8.739  13.134   4.636
12815W        W85108  42.961  13.645   0.821
12816W        W85109  28.142  40.008   1.743
12817W        W85110  16.722  23.100  13.802
12818W        W85111  32.080  12.700   2.397
12819W        W85112  44.859  24.629  11.542
12820W        W85113  17.593  36.528  10.480
12821W        W85114  40.833  28.633  13.382
12822W        W85115  15.143  16.109   2.742
12823W        W85116  14.720  11.280  10.532
12824W        W85117  12.188  21.134   1.860
12825W        W85118  21.537   8.248   2.740
12826W        W85119  19.155   8.894  11.440
12827W        W85120  16.275  10.144   2.775
12828W        W85121  44.446  34.404   2.685
12829W        W85122   8.881  39.891   0.258
12830W        W85123  41.347  11.698   0.858
12831W        W85124  28.644  42.788  13.348
12832W        W85125   2.281  43.421   0.445
12833W        W85126  23.143   9.644   4.703
12834W        W85127   0.817  35.500   0.803
12835W        W85128  20.154  35.467  11.999
12836W        W85129   4.826  29.062  12.444
12837W        W85130  22.507  17.560   0.442
12838W        W85131  42.871  36.415  14.872
12839W        W85132  42.526  32.029  11.928
12840W        W85133  13.115  38.857   5.179
12841W        W85134  41.934   0.964   3.682
12842W        W85135  21.552  24.559  10.450
12843W        W85136  14.766  42.815   1.340
12844W        W85137  40.528  26.540   0.300
12845W        W85138  19.195  43.354  11.406
12846W        W85139   2.794  38.402  11.926
12847W        W85140   0.875  30.628   2.668
12848W        W85141  27.589  25.154  13.309
12849W        W85142   7.905  21.529   1.403
12850W        W85143   1.920  43.470  11.026
12851W        W85144  10.300  42.291  12.360
12852W        W85145  41.958  26.612  11.116
12853W        W85146  42.291  21.717  13.060
12854W        W85147  34.446   0.966   2.304
12855W        W85148   5.780  39.903   2.754
12856W        W85149  24.185  37.568  11.584
12857W        W85150  28.932  31.149  14.982
12858W        W85151  28.507  28.179  10.128
12859W        W85152  35.442   6.181  12.441
12860W        W85153  14.255  22.212   2.276
12861W        W85154  42.323   2.418  14.885
12862W        W85155  27.499  14.113  11.867
12863W        W85156   5.275  35.486  13.921
12864W        W85157  32.590  12.202  12.973
12865W        W85158  28.153  30.455  10.990
12866W        W85159  29.146  15.759   1.307
12867W        W85160  21.081  14.758   0.881
12868W        W85161  27.518  35.435   1.891
12869W        W85162  42.855  28.109   2.407
12870W        W85163  17.171   8.369  13.385
12871W        W85164  14.723  11.366  12.940
12872W        W85165   7.891  28.447   1.907
12873W        W85166  33.894  34.548  12.382
12874W        W85167  21.718  11.153  10.998
12875W        W85168  18.751  20.588  14.362
12876W        W85169  26.005  27.056  13.377
12877W        W85170   4.303  34.897  10.546
12878W        W85171   4.309  35.910   2.730
12879W        W85172  39.041   4.724  11.996
12880W        W85173  10.265  17.088   1.927
12881W        W85174   8.342  22.727  10.982
12882W        W85175  35.361  18.709   2.201
12883W        W85176  29.163  10.239   0.483
12884W        W85177  26.629  21.646   1.803
12885W        W85178  20.768  33.958  14.464
12886W        W85179  44.361  33.570   5.145
12887W        W85180  38.012  41.438   2.683
12888W        W85181  19.251  26.952  13.960
12889W        W85182  20.273  12.340  13.004
12890W        W85183  33.591   6.858   4.677
12891W        W85184  26.606  33.094  11.923
12892W        W85185  18.072  12.166  10.482
12893W        W85186  29.454   9.724   2.714
12894W        W85187  10.221   6.316  14.285
12895W        W85188  17.111  32.922   0.368
12896W        W85189  10.869  39.882  12.924
12897W        W85190   6.351  16.218  14.458
12898W        W85191  44.893   9.316   1.362
12899W        W85192  10.337  44.267  13.348
12900W        W85193  14.635  25.203   0.895
12901W        W85194  13.171  34.508   1.416
12902W        W85195  42.405  26.168  10.436
12903W        W85196  15.108  15.205   0.847
12904W        W85197  14.179  23.105   0.387
12905W        W85198  16.159   8.734  13.977
12906W        W85199  24.569  12.164   4.123
12907W        W85200  23.541  18.775   4.707
12908W        W85201   7.826  44.451   4.285
12909W        W85202  31.440   4.894   2.696
12910W        W85203  27.106  40.513   3.698
12911W        W85204  16.249   1.889   3.373
12912W        W85205  10.224  42.022   1.389
12913W        W85206  11.281  38.861   2.731
12914W        W85207  30.002  10.185  13.391
12915W        W85208  28.486  25.086  12.952
12916W        W85209  27.456  26.662  12.356
12917W        W85210  44.302  29.499   3.154
12918W        W85211  38.519  11.725   1.236
12919W        W85212  25.063  20.146  11.904
12920W        W85213  15.292  38.398  11.482
12921W        W85214  21.055  25.019  14.366
12922W        W85215  13.729  36.500  11.108
12923W        W85216  17.165  11.639   5.195
12924W        W85217  29.930  20.085   2.799
12925W        W85218   6.222  36.562  10.622
12926W        W85219   6.186  33.600   3.309
12927W        W85220  40.538   0.306   3.766
12928W        W85221  13.676  26.551   4.220
12929W        W85222  24.677  38.059  12.529
12930W        W85223  19.610   8.221   4.765
12931W        W85224  37.832   1.304   3.830
12932W        W85225  25.097  22.718   1.360
12933W        W85226  17.768  26.153   2.671
12934W        W85227  25.027  38.379  11.961
12935W        W85228  27.131  17.101  12.577
12936W        W85229  24.569  38.875  14.885
12937W        W85230  35.515  33.962  13.054
12938W        W85231   8.295  21.077  14.968
12939W        W85232  41.952  23.008  12.950
12940W        W85233  30.412  10.701  14.761
12941W        W85234  18.785  21.036   3.692
12942W        W85235   5.774   9.174   3.728
12943W        W85236  21.595  40.802  13.862
12944W        W85237  35.587  10.189   3.277
12945W        W85238  10.314  29.560  12.988
12946W        W85239   9.664   0.844   2.234
12947W        W85240   4.396   8.226   2.187
12948W        W85241   9.389   2.747   1.241
12949W        W85242  29.469  25.695   4.815
12950W        W85243  28.513  18.204   2.215
12951W        W85244  23.142  19.695   4.352
12952W        W85245   9.742  22.536  10.466
12953W        W85246  11.160   6.737  11.448
12954W        W85247  19.106  12.335  11.426
12955W        W85248  42.009  27.659  13.956
12956W        W85249  15.096  44.938   2.855
12957W        W85250   7.681  19.757  13.350
12958W        W85251   9.177  31.455   2.198
12959W        W85252  23.067  12.671  14.773
12960W        W85253  17.177   2.770  14.370
12961W        W85254  33.890  33.614  11.124
12962W        W85255   8.293  18.625   0.258
12963W        W85256  22.534  28.994   4.703
12964W        W85257  13.646  42.976  11.557
12965W        W85258   5.407  11.142  13.395
12966W        W85259  29.135  33.948  11.944
12967W        W85260  36.071  26.558  13.417
12968W        W85261  36.930  14.733  11.434
12969W        W85262  41.932  11.296  11.038
12970W        W85263   2.896  16.599  12.522
12971W        W85264  30.979   8.825   2.343
12972W        W85265  23.724   5.728  12.437
12973W        W85266  19.245  40.801   0.895
12974W        W85267  25.547   1.270   4.656
12975W        W85268  32.099  40.353  14.786
12976W        W85269   2.827  37.496  10.547
12977W        W85270   1.282   7.371   0.416
12978W        W85271  27.493  27.528  11.949
12979W        W85272  20.258  16.669   0.887
12980W        W85273  18.632  21.099  14.027
12981W        W85274   4.772  15.587   3.770
12982W        W85275  12.265  34.073  12.929
12983W        W85276  32.060  23.607  12.977
12984W        W85277   4.860  10.266   2.791
12985W        W85278  14.269  44.980  14.768
12986W        W85279   5.893   5.746  14.320
12987W        W85280   1.963  44.456  13.377
12988W        W85281  12.668  15.802   2.344
12989W        W85282  31.416  42.339  11.051
12990W        W85283  40.798   6.744  14.482
12991W        W85284  33.101   0.259   4.302
12992W        W85285  25.100  20.697  13.874
12993W        W85286  34.438  37.906   2.854
12994W        W85287  31.921   2.731   4.675
12995W        W85288  33.429   3.912  11.934
12996W        W85289  37.878  21.594  11.940
12997W        W85290  19.117  10.826   3.771
12998W        W85291  34.983  33.382   2.888
12999W        W85292  44.386  34.934  11.105
13000W        W85293  32.954  23.013  12.340
13001W        W85294  24.007  36.090  13.475
13002W        W85295  32.997  28.506  14.373
13003W        W85296   7.386  26.079   3.701
13004W        W85297  20.616  28.965   1.771
13005W        W85298  23.220   1.408  12.847
13006W        W85299  21.645  27.094  10.458
13007W        W85300   4.861  14.153  11.474
13008W        W85301  37.362   4.837  12.986
13009W        W85302  14.234   8.665  14.494
13010W        W85303   3.413  18.277   4.688
13011W        W85304  32.405  42.026  10.535
13012W        W85305  19.597   5.327  13.437
13013W        W85306  29.964   6.227  11.119
13014W        W85307  17.598  35.589   1.699
13015W        W85308  42.471  19.205  14.493
13016W        W85309  37.428  14.289  10.105
13017W        W85310  40.448  41.957   1.906
13018W        W85311  44.790   4.797   2.680
13019W        W85312  38.503  35.481   4.798
13020W        W85313  43.423   3.765   4.760
13021W        W85314  41.962  38.010  13.356
13022W        W85315  37.501   2.834  14.453
13023W        W85316  14.593   5.837  12.007
13024W        W85317  22.691  13.617  12.894
13025W        W85318   4.313  19.158   1.294
13026W        W85319  19.578  22.628  11.449
13027W        W85320   3.857  41.996   1.921
13028W        W85321  17.082  34.374  11.015
13029W        W85322  37.989   9.821   0.912
13030W        W85323  20.760  31.574  13.012
13031W        W85324  28.497  33.017  13.025
13032W        W85325  34.533  33.945   3.374
13033W        W85326   7.706  17.162  11.608
13034W        W85327  19.276  16.072  11.603
13035W        W85328  20.631   8.892  11.584
13036W        W85329  26.148  17.183   3.235
13037W        W85330  44.352  37.550  10.637
13038W        W85331   1.451  25.700   1.713
13039W        W85332  17.653   0.863  11.492
13040W        W85333  40.415  20.644   3.295
13041W        W85334   6.225  37.914   4.709
13042W        W85335   4.702  18.281  12.386
13043W        W85336  33.392  21.517   4.200
13044W        W85337  19.769  11.178  10.100
13045W        W85338  40.372  44.767   5.189
13046W        W85339  23.141  26.606  11.075
13047W        W85340   9.888  27.189   0.890
13048W        W85341  21.592  37.390  14.308
13049W        W85342  22.551  36.980   1.391
13050W        W85343  25.534   1.856   1.286
13051W        W85344   0.478  34.497  10.045
13052W        W85345   0.386  20.106   3.359
13053W        W85346  39.347  29.030   1.750
13054W        W85347   4.900  20.735  14.959
13055W        W85348  44.946  44.823  12.401
13056W        W85349  24.095  15.217  11.942
13057W        W85350  31.975  37.944   2.206
13058W        W85351  16.123  40.898   3.319
13059W        W85352  27.996  31.941   0.827
13060W        W85353   7.385  10.701   3.324
13061W        W85354  12.620  17.727  13.545
13062W        W85355  30.973  38.495   4.302
13063W        W85356   5.259  17.225  13.474
13064W        W85357   9.252  44.978  13.030
13065W        W85358  11.199   0.758  11.423
13066W        W85359  25.962  20.595  14.404
13067W        W85360  18.269  37.433  14.774
13068W        W85361  28.118  31.085  12.916
13069W        W85362   1.300  13.188   0.385
13070W        W85363  24.229   6.803  11.968
13071W        W85364  12.678  22.527  13.873
13072W        W85365  43.917  16.184  11.584
13073W        W85366  13.843  36.374   3.818
13074W        W85367  11.680  33.423   9.974
13075W        W85368  24.058  22.635   0.306
13076W        W85369  42.986   2.907   1.347
13077W        W85370  29.089  19.584  10.910
13078W        W85371   0.418   8.810  13.853
13079W        W85372  43.932  30.062  13.437
13080W        W85373  16.600  26.982  11.419
13081W        W85374  32.976  29.998  14.927
13082W        W85375  25.710  39.433  13.488
13083W        W85376  42.356  10.163  11.520
13084W        W85377  18.548  16.180  11.565
13085W        W85378  44.923  44.449  13.359
13086W        W85379  35.036  31.618  11.876
13087W        W85380  44.852  41.814   0.406
13088W        W85381  31.919  35.944  13.821
13089W        W85382  39.034   4.223   2.698
13090W        W85383  22.084   2.247   5.760
13091W        W85384  40.513  36.094  14.894
13092W        W85385   1.258  11.312   1.720
13093W        W85386  21.550  37.415  12.937
13094W        W85387  22.086  42.503   4.149
13095W        W85388  42.354  37.014  14.394
13096W        W85389  43.834   8.714   1.803
13097W        W85390  27.963  43.514  12.406
13098W        W85391  26.615  40.404   4.143
13099W        W85392   8.168  14.804   2.827
13100W        W85393  35.942   7.383   0.333
13101W        W85394  32.102  39.987  12.012
13102W        W85395  36.571  27.988   1.780
13103W        W85396   8.836  39.973  12.432
13104W        W85397  11.723   4.442   0.743
13105W        W85398  42.443  17.746   4.714
13106W        W85399  44.953   2.444  13.902
13107W        W85400  30.505   0.928  13.333
13108W        W85401  30.460  23.169   1.414
13109W        W85402  17.620  24.115   1.368
13110W        W85403   6.424  44.917   4.291
13111W        W85404  30.922   8.339   3.321
13112W        W85405  27.637   4.376  10.515
13113W        W85406  16.126  36.464  13.489
13114W        W85407  26.086  19.708   0.274
13115W        W85408  40.980   4.789  10.909
13116W        W85409  10.861   8.840   0.353
13117W        W85410  29.620  20.682  12.430
13118W        W85411  13.646  21.062  12.049
13119W        W85412  27.945   1.904  13.866
13120W        W85413   4.761  26.007   0.357
13121W        W85414  42.377  32.419   2.792
13122W        W85415  35.883   5.397  10.909
13123W        W85416  32.896  28.500   4.770
13124W        W85417  39.335  17.694  14.020
13125W        W85418   3.329  44.474  14.031
13126W        W85419  31.986   6.696  11.989
13127W        W85420  20.588  37.461   2.297
13128W        W85421  14.248  24.603   0.863
13129W        W85422  13.705  35.059  12.022
13130W        W85423  41.002  36.010  14.472
13131W        W85424   0.401  12.630   1.315
13132W        W85425   2.304  28.080  11.978
13133W        W85426  34.522  43.434  14.432
13134W        W85427   5.221   8.363   3.371
13135W        W85428   2.246  15.598  10.557
13136W        W85429   0.746  32.130   4.824
13137W        W85430   4.376  13.147  14.995
13138W        W85431  22.093  25.666  11.034
13139W        W85432  33.514   4.897   4.620
13140W        W85433  29.640  15.682  12.981
13141W        W85434  20.625  39.960   3.298
13142W        W85435   4.218  30.436   3.149
13143W        W85436   8.233   0.364   3.383
13144W        W85437   2.442  16.089   3.716
13145W        W85438  17.607  30.579   1.898
13146W        W85439  23.220  39.986   0.847
13147W        W85440  21.195  37.374   4.286
13148W        W85441  39.322  37.064   2.847
13149W        W85442  22.165   7.233  10.612
13150W        W85443  34.576   0.463   4.278
13151W        W85444  44.842  16.314   3.335
13152W        W85445  15.267  24.070  11.970
13153W        W85446  29.077  10.668   4.654
13154W        W85447  18.096   2.756   4.166
13155W        W85448  18.780  23.732  12.526
13156W        W85449  12.246  12.321  14.313
13157W        W85450  25.507  34.591  10.917
13158W        W85451  40.898  23.516   3.733
13159W        W85452  42.794  26.502  11.034
13160W        W85453  16.109  13.221   0.775
13161W        W85454  13.242   2.910  14.331
13162W        W85455  14.824   5.194   3.730
13163W        W85456  12.793  42.796  13.892
13164W        W85457  27.510  21.112  12.500
13165W        W85458  13.341   3.280  14.416
13166W        W85459  24.723  32.539   1.779
13167W        W85460  35.943  25.164  14.898
13168W        W85461  34.554  18.198  11.048
13169W        W85462  41.411  10.141  11.566
13170W        W85463  30.086  33.464  14.356
13171W        W85464  15.164  22.215  14.411
13172W        W85465  16.248  23.491  12.838
13173W        W85466  21.680   5.357   0.770
13174W        W85467  26.149   4.362   3.665
13175W        W85468   9.194  26.670   4.609
13176W        W85469  28.609  10.840   2.804
13177W        W85470  20.570  34.937  12.548
13178W        W85471  44.988   4.225   3.167
13179W        W85472  25.203  35.000  13.504
13180W        W85473   3.234  38.015   1.210
13181W        W85474  14.714  26.643   3.675
13182W        W85475   4.875   0.410   3.155
13183W        W85476  23.564   8.789  12.392
13184W        W85477  13.147  10.195  14.449
13185W        W85478  14.225  19.120  11.907
13186W        W85479   3.944  36.527   0.392
13187W        W85480  19.196  16.764   0.318
13188W        W85481  34.536   4.849  12.455
13189W        W85482   8.848  28.954   1.903
13190W        W85483  28.051  40.437   2.339
13191W        W85484   1.395  26.106   4.337
13192W        W85485  18.709  12.613   1.915
13193W        W85486  41.973  44.468  13.838
13194W        W85487   5.433  19.566   4.303
13195W        W85488  43.809   8.224   4.748
13196W        W85489  20.269  30.435   2.819
13197W        W85490  20.639   6.837   1.281
13198W        W85491  17.571  19.684   2.856
13199W        W85492  35.436  33.420  12.982
13200W        W85493  22.581  39.510   2.895
13201W        W85494  12.720   6.840  14.998
13202W        W85495  28.938   3.414   1.869
13203W        W85496  37.556  24.666  10.581
13204W        W85497   9.261  10.330  12.954
13205W        W85498  25.055  34.520  14.836
13206W        W85499  36.034   1.976  11.527
13207W        W85500  13.150  44.967  11.916
13208W        W85501   9.259   5.844   2.827
13209W        W85502  22.712   7.828   1.450
13210W        W85503  42.917  39.836   0.309
13211W        W85504  25.523  11.834   2.686
13212W        W85505   5.197  13.125   2.363
13213W        W85506  22.236  22.227   0.815
13214W        W85507  24.056  42.460  11.018
13215W        W85508  41.795  31.407   2.894
13216W        W85509  32.049  40.924   0.350
13217W        W85510  17.746  33.916   1.907
13218W        W85511  18.666  28.525   4.663
13219W        W85512  43.297  13.240  12.896
13220W        W85513  13.171  14.212  13.950
13221W        W85514  20.124  18.292  10.428
13222W        W85515   1.314  43.310  12.501
13223W        W85516  36.893  41.504  11.013
13224W        W85517   0.395  20.092  14.392
13225W        W85518  16.670  10.845   3.216
13226W        W85519  38.398   6.692  12.496
13227W        W85520  23.064  36.434  14.481
13228W        W85521  37.374  29.595   0.327
13229W        W85522  18.101  24.597  12.572
13230W        W85523  24.058  26.471   2.664
13231W        W85524  36.574  25.541   4.280
13232W        W85525  38.939  12.307  13.505
13233W        W85526  15.733  29.465  11.045
13234W        W85527  22.696  39.959  13.900
13235W        W85528  28.093  25.649   1.891
13236W        W85529  33.537  20.191   2.759
13237W        W85530   0.305  26.653  11.530
13238W        W85531  32.532  25.584   0.329
13239W        W85532   6.287  17.306   4.196
13240W        W85533  24.097  30.547  14.881
13241W        W85534  29.072   3.816  13.336
13242W        W85535  22.731   1.366   1.791
13243W        W85536  16.125   9.337   3.803
13244W        W85537  20.142  41.445   2.850
13245W        W85538  34.539  20.075   4.811
13246W        W85539   6.847  44.449  10.511
13247W        W85540   5.835  39.847  14.326
13248W        W85541  38.515  21.688  14.510
13249W        W85542   9.715   9.154  13.866
13250W        W85543  28.031   1.469  14.446
13251W        W85544  31.106  15.120  14.982
13252W        W85545   6.228   2.395   4.335
13253W        W85546  32.514  42.423  13.995
13254W        W85547  35.575  42.854  10.550
13255W        W85548  12.681   6.315  12.425
13256W        W85549  35.013  30.657  14.772
13257W        W85550   9.313   0.753   3.270
13258W        W85551  22.129  23.496  12.855
13259W        W85552  12.691   3.222  10.980
13260W        W85553  44.865  29.549   2.231
13261W        W85554  32.942  17.306   1.901
13262W        W85555   7.741   6.205   0.424
13263W        W85556  17.689  25.218   0.363
13264W        W85557   8.764   2.402  13.834
13265W        W85558   2.764   1.938   2.804
13266W        W85559  22.591   1.464  11.595
13267W        W85560  43.415   1.430   2.194
13268W        W85561  18.187  36.566   1.785
13269W        W85562  22.245  39.500  14.440
13270W        W85563  28.443  19.089   0.732
13271W        W85564  16.592  35.008   3.335
13272W        W85565  44.836  15.255   4.118
13273W        W85566  20.718  37.362   1.709
13274W        W85567  35.873  28.639   3.235
13275W        W85568  44.332  40.364   5.236
13276W        W85569   8.296  18.557  14.817
13277W        W85570  13.797  13.218  11.098
13278W        W85571  38.892  41.350  11.393
13279W        W85572  10.361  12.219  12.064
13280W        W85573  27.088  39.360   0.402
13281W        W85574  37.504   6.426   0.476
13282W        W85575  13.662   0.951  11.457
13283W        W85576   7.300  20.645   0.878
13284W        W85577   3.424  31.957   1.837
13285W        W85578   0.304  44.458  12.074
13286W        W85579  21.647  37.415   1.753
13287W        W85580  14.667  23.651   0.368
13288W        W85581   7.828  36.502  14.972
13289W        W85582   1.786  42.948   9.984
13290W        W85583  23.565  39.960  14.300
13291W        W85584  13.796  32.013   2.240
13292W        W85585  12.804  14.197  13.912
13293W        W85586  31.930  42.510  14.989
13294W        W85587   5.374  11.837   2.269
13295W        W85588   3.724   3.324   2.682
13296W        W85589  26.199  17.665   4.333
13297W        W85590   3.737   7.411  12.382
13298W        W85591  29.524  31.543  13.847
13299W        W85592  41.901  31.609  10.587
13300W        W85593  17.567  14.267   4.804
13301W        W85594   3.237  16.198   1.813
13302W        W85595  16.296  13.808   0.773
13303W        W85596  37.940  16.204   4.828
13304W        W85597   0.320   2.868   2.364
13305W        W85598  13.687  22.048  11.565
13306W        W85599  23.664  26.992   2.286
13307W        W85600   8.802   9.390   0.418
13308W        W85601  22.534  10.163   0.894
13309W        W85602  28.991  21.160  13.514
13310W        W85603  42.301   0.895  11.972
13311W        W85604   4.911  14.247  11.882
13312W        W85605  27.171   5.742  11.538
13313W        W85606  21.553  44.764  11.593
13314W        W85607  27.685  11.738  14.279
13315W        W85608  29.942  33.984   3.167
13316W        W85609   3.749   6.254  13.322
13317W        W85610   6.379  33.415  14.998
13318W        W85611  13.343  27.190  13.007
13319W        W85612   5.429  10.343   3.186
13320W        W85613   0.915  23.109   2.840
13321W        W85614  10.740  27.979   1.399
13322W        W85615  13.784  14.632   1.389
13323W        W85616  41.536  27.089  12.557
13324W        W85617  10.156   4.854  13.036
13325W        W85618  40.018  40.309  11.003
13326W        W85619  24.128  18.791  14.861
13327W        W85620  18.641  19.563  12.999
13328W        W85621  22.179  23.697   2.861
13329W        W85622  33.066  30.081   2.815
13330W        W85623  36.920  22.186  14.379
13331W        W85624  37.428  11.269  13.386
13332W        W85625  20.678  40.325   2.755
13333W        W85626   6.713  12.809   0.271
13334W        W85627  26.482  42.810   2.834
13335W        W85628  12.118   8.859   0.310
13336W        W85629  35.457   7.704  13.448
13337W        W85630  20.556  33.051  10.506
13338W        W85631   0.834   4.289  10.913
13339W        W85632  34.971  42.411   0.932
13340W        W85633  36.932  19.723  11.537
13341W        W85634   3.895   6.922  11.109
13342W        W85635   2.929  10.282   2.283
13343W        W85636  14.115  12.840   2.789
13344W        W85637  36.423   4.783   5.106
13345W        W85638  10.361  34.475  13.353
13346W        W85639  13.330  38.060  14.949
13347W        W85640  22.524   5.420  11.495
13348W        W85641  38.428   5.866  11.405
13349W        W85642  36.097  17.620   2.363
13350W        W85643  36.983  11.271  13.803
13351W        W85644   3.789  15.201   4.124
13352W        W85645  17.580  30.537  13.930
13353W        W85646  44.396  32.057  10.555
13354W        W85647  30.082  32.987   4.835
13355W        W85648  27.562  40.997   3.377
13356W        W85649   2.245  19.155   4.793
13357W        W85650  40.861  13.201   1.365
13358W        W85651   3.738  25.110   2.854
13359W        W85652  33.939   9.248   3.813
13360W        W85653  15.250  20.241   2.370
13361W        W85654  17.719  14.653   3.658
13362W        W85655  38.374  18.669   0.877
13363W        W85656   0.397  20.709  14.896
13364W        W85657   8.171  43.319  14.014
13365W        W85658  39.965  31.598  13.908
13366W        W85659  26.141  19.661   4.158
13367W        W85660  35.453  11.647  10.458
13368W        W85661  18.119  13.665   1.702
13369W        W85662  32.006  24.718  12.563
13370W        W85663  34.988  17.179  12.937
13371W        W85664  31.573  22.010  14.823
13372W        W85665  22.724  24.547   0.482
13373W        W85666   8.697  20.072  10.450
13374W        W85667  38.479  25.162  11.882
13375W        W85668  32.901  13.820   4.808
13376W        W85669  26.087  10.690  14.309
13377W        W85670  39.829  21.740   2.247
13378W        W85671   6.796  39.044   2.362
13379W        W85672  42.309  30.149  11.503
13380W        W85673   7.336  36.446  13.328
13381W        W85674  31.910  13.272  11.581
13382W        W85675   7.697  19.560   3.664
13383W        W85676   6.315  24.197   0.905
13384W        W85677  24.208   4.371   0.310
13385W        W85678  36.503  11.841  11.967
13386W        W85679  20.131  11.622   2.820
13387W        W85680  36.471  20.678   4.603
13388W        W85681  35.100  18.673   1.775
13389W        W85682  26.503  43.447   2.666
13390W        W85683  27.197  23.099   2.353
13391W        W85684  36.900  22.057  12.483
13392W        W85685  19.097  16.211  12.346
13393W        W85686  29.650  26.125  11.100
13394W        W85687  22.020  42.986  12.023
13395W        W85688  28.138  18.055   0.784
13396W        W85689   2.460  29.644  12.956
13397W        W85690  18.631  18.676  10.588
13398W        W85691  37.437   7.744   3.364
13399W        W85692  18.238  35.880  12.524
13400W        W85693  37.461  33.976  12.030
13401W        W85694  38.344  40.054   3.866
13402W        W85695  36.079  14.623  11.570
13403W        W85696  41.834  11.649   3.804
13404W        W85697  43.969  33.519   9.950
13405W        W85698  30.442  41.959  12.946
13406W        W85699  10.782  43.377  14.354
13407W        W85700  36.564   7.221  12.359
13408W        W85701   7.212   1.237  14.772
13409W        W85702   3.821   9.839  13.856
13410W        W85703  39.944  26.536   0.823
13411W        W85704  35.413   3.767  11.595
13412W        W85705  17.563  30.983   4.836
13413W        W85706  13.210  41.322   4.662
13414W        W85707  22.058   3.331  14.488
13415W        W85708   9.381  25.651  10.501
13416W        W85709  27.977  31.023  10.592
13417W        W85710  44.900  19.145  11.474
13418W        W85711  11.749  19.553   3.261
13419W        W85712  35.473  19.246   2.880
13420W        W85713   6.411   5.727   1.892
13421W        W85714  44.833  15.241  11.450
13422W        W85715   0.449  33.467   0.961
13423W        W85716   4.728   9.735   0.732
13424W        W85717  13.785  44.475   3.244
13425W        W85718  40.454  40.938  13.947
13426W        W85719   1.749  27.956   3.370
13427W        W85720  25.027  27.975  13.439
13428W        W85721  40.306  18.736  11.495
13429W        W85722  18.557   4.356  14.910
13430W        W85723  37.960   4.879  12.039
13431W        W85724  10.376  39.395  14.796
13432W        W85725  15.816  15.267  14.342
13433W        W85726  18.758   9.862  12.032
13434W        W85727  18.604  20.172   3.219
13435W        W85728  21.100   5.409  12.944
13436W        W85729  23.712  15.255  13.531
13437W        W85730  13.670  19.070   4.223
13438W        W85731  10.287  35.502   5.181
13439W        W85732  20.203  13.614   1.441
13440W        W85733   3.414  26.520  13.485
13441W        W85734  34.524  24.692  14.835
13442W        W85735  36.551  10.732  12.877
13443W        W85736  30.999  39.970  11.113
13444W        W85737  24.515  21.559  12.903
13445W        W85738  39.911  17.160  12.861
13446W        W85739  35.469  38.887  10.898
13447W        W85740  41.824   7.712  10.564
13448W        W85741  40.514  17.607  12.552
13449W        W85742  43.891  23.727  11.870
13450W        W85743   8.219  43.379   0.275
13451W        W85744  21.133  40.799   2.402
13452W        W85745  32.572   5.926   2.771
13453W        W85746   9.644   4.880  14.293
13454W        W85747  19.221   0.421   3.801
13455W        W85748   4.242  31.114   1.852
13456W        W85749  27.568  18.098  10.915
13457W        W85750  42.325  12.834  13.402
13458W        W85751  36.930  33.522   3.757
13459W        W85752   5.256  41.417   2.688
13460W        W85753  41.890  42.823   9.536
13461W        W85754  10.800   0.951   0.339
13462W        W85755  15.748  16.094   4.815
13463W        W85756  41.861  41.532  14.471
13464W        W85757  11.793  44.469  14.763
13465W        W85758  44.463  19.779   2.356
13466W        W85759  32.529   2.949   2.737
13467W        W85760   5.886  14.820  11.984
13468W        W85761   9.257   9.725  12.347
13469W        W85762  37.924   3.355  11.016
13470W        W85763  40.935   6.386  11.069
13471W        W85764  22.183   8.364  10.640
13472W        W85765  11.646  37.983  11.973
13473W        W85766   4.834   5.834  14.350
13474W        W85767   3.851   6.755   1.403
13475W        W85768  29.928  31.552   1.389
13476W        W85769  12.305   7.379  14.341
13477W        W85770  33.599  25.129   5.196
13478W        W85771  44.496   0.340  14.299
13479W        W85772  29.536  23.681   3.633
13480W        W85773  34.014  18.226  14.419
13481W        W85774  44.899   5.357  12.059
13482W        W85775  16.600   8.684   2.323
13483W        W85776  22.153  38.027  14.316
13484W        W85777  13.184  22.558   1.899
13485W        W85778  40.875  41.019   1.266
13486W        W85779  27.015  17.656   4.727
13487W        W85780  39.413   4.429  10.431
13488W        W85781  21.138  14.772   1.344
13489W        W85782  44.309  30.965   1.409
13490W        W85783  27.069  20.193  14.479
13491W        W85784  44.837  27.978   2.250
13492W        W85785   5.889  32.893  14.443
13493W        W85786  20.185  31.113  13.459
13494W        W85787  26.485  43.946  10.500
13495W        W85788   3.328   0.892  11.507
13496W        W85789   8.216  28.672  14.284
13497W        W85790  27.673  37.459  11.046
13498W        W85791  39.857  17.192  11.021
13499W        W85792  17.723  15.751  12.520
13500W        W85793  37.382  34.584   1.243
13501W        W85794  19.165  31.080   3.248
13502W        W85795  28.495  24.224   2.873
13503W        W85796  28.025   1.453  13.466
13504W        W85797  30.509  12.210  11.398
13505W        W85798   9.838  39.541   3.857
13506W        W85799  35.030  29.011   3.359
13507W        W85800   4.822   8.180   4.781
13508W        W85801  35.064  34.979  13.459
13509W        W85802  43.932  15.771  11.415
13510W        W85803  37.422  18.276   9.952
13511W        W85804  17.636  26.052  11.545
13512W        W85805  24.161   2.350   5.296
13513W        W85806   0.327  43.469   3.867
13514W        W85807  19.244  26.682   0.340
13515W        W85808  43.964  11.160  13.951
13516W        W85809   8.828  27.034  13.829
13517W        W85810  13.297   5.269  12.531
13518W        W85811  31.523  26.650  14.793
13519W        W85812   0.459  31.448   2.352
13520W        W85813  21.077  34.383   2.372
13521W        W85814  42.463  12.201  10.546
13522W        W85815  35.930   2.902  14.925
13523W        W85816  39.056   9.681  14.760
13524W        W85817  37.870  36.024  12.517
13525W        W85818  18.604  18.564  10.932
13526W        W85819  13.250  23.618  13.045
13527W        W85820  44.270  41.429  14.300
13528W        W85821  30.457  40.414  13.515
13529W        W85822  26.024  43.351   1.721
13530W        W85823  30.985  30.048   4.342
13531W        W85824  17.673  16.687  10.990
13532W        W85825  25.975  11.190   4.285
13533W        W85826  16.220  36.916   2.745
13534W        W85827  16.167  33.919  14.792
13535W        W85828  16.158  12.820   1.449
13536W        W85829  34.994  43.884  14.376
13537W        W85830  13.694  16.277   4.252
13538W        W85831  12.205   7.185  13.805
13539W        W85832  44.499  20.093   2.874
13540W        W85833  21.657   4.735   1.860
13541W        W85834  39.019  20.052   0.300
13542W        W85835  34.986  14.676  14.775
13543W        W85836   8.747  44.403  14.489
13544W        W85837  40.540  18.605   2.256
13545W        W85838   4.801  41.988   3.748
13546W        W85839  11.745  20.175   2.412
13547W        W85840   5.439   1.295  14.303
13548W        W85841  28.505  32.115  10.574
13549W        W85842  43.453  13.316  11.372
13550W        W85843  37.876  28.016   4.756
13551W        W85844  26.982   8.782   4.702
13552W        W85845  40.818  29.143   0.755
13553W        W85846  19.689  22.500  10.542
13554W        W85847  38.943   1.904  14.327
13555W        W85848   1.326  22.529  11.572
13556W        W85849  42.458  12.730  11.032
13557W        W85850  27.553   5.199   0.916
13558W        W85851   8.719   1.798  12.083
13559W        W85852   6.903   9.376   4.120
13560W        W85853  36.960   6.679   1.337
13561W        W85854  39.496   3.864   1.772
13562W        W85855  38.355  38.984  13.347
13563W        W85856  29.568   8.236   2.683
13564W        W85857  23.614  19.623   1.782
13565W        W85858  18.738  23.062  12.382
13566W        W85859  35.997  13.818  13.389
13567W        W85860  27.007   9.871   3.711
13568W        W85861   0.403   4.386  10.513
13569W        W85862  20.666  20.624   2.836
13570W        W85863  29.968   8.239   2.240
13571W        W85864  32.596  19.066  14.298
13572W        W85865  36.354   9.667   4.304
13573W        W85866   2.389   9.163  10.637
13574W        W85867  11.624   6.749   0.349
13575W        W85868  30.416  21.524   4.750
13576W        W85869  17.644  40.527   4.171
13577W        W85870  32.951  29.516   0.962
13578W        W85871  39.005  21.664  14.317
13579W        W85872  13.321  27.058   0.887
13580W        W85873  30.655  10.831  13.860
13581W        W85874  43.286  22.605  14.477
13582W        W85875  32.410  42.809  10.523
13583W        W85876  35.425  13.205  12.971
13584W        W85877  30.943  43.396   0.937
13585W        W85878  31.117  26.498   1.374
13586W        W85879  36.843   0.332  12.554
13587W        W85880  28.183  30.978   9.992
13588W        W85881  39.384   2.755  13.883
13589W        W85882  36.467  27.982  11.516
13590W        W85883  24.175  15.796   5.099
13591W        W85884  15.758  43.835   2.770
13592W        W85885   2.860  17.064  11.864
13593W        W85886   6.781  36.990  14.942
13594W        W85887   7.839  44.386  14.430
13595W        W85888  31.958   9.311   1.354
13596W        W85889  24.181  43.334   0.839
13597W        W85890  43.829  44.996   0.440
13598W        W85891  19.677  29.451  12.032
13599W        W85892  21.234   8.742   1.825
13600W        W85893  21.553   2.292  11.394
13601W        W85894  21.734   0.946   1.792
13602W        W85895  38.058  29.162  14.784
13603W        W85896  27.181  20.580   1.785
13604W        W85897   3.760   9.369  10.971
13605W        W85898  13.263  40.418  13.548
13606W        W85899   2.245   2.860  13.803
13607W        W85900  35.489  40.845  14.504
13608W        W85901  21.028  10.350   5.209
13609W        W85902  32.517   0.371  10.975
13610W        W85903   3.854  34.050   3.703
13611W        W85904  36.007  16.190   2.253
13612W        W85905  27.531  21.158   4.628
13613W        W85906  30.017   9.155   4.611
13614W        W85907  27.183  11.771  14.506
13615W        W85908   7.878  16.309  13.796
13616W        W85909  30.605  15.117   2.675
13617W        W85910  24.228   3.383  14.306
13618W        W85911  30.564  39.880   1.252
13619W        W85912  34.511   2.734  14.761
13620W        W85913  35.559  27.003  13.831
13621W        W85914   9.313  21.110   3.799
13622W        W85915  21.062  37.071   1.273
13623W        W85916   1.256  21.652   3.817
13624W        W85917  14.646   4.433   2.255
13625W        W85918  29.105  29.655   3.643
13626W        W85919  36.044  43.308   4.280
13627W        W85920  20.161  32.106  14.500
13628W        W85921  15.782  28.087  14.432
13629W        W85922  41.497   3.269   3.817
13630W        W85923  38.875  44.983   2.301
13631W        W85924  31.923   9.371   0.414
13632W        W85925   3.934  23.536   1.893
13633W        W85926  39.519  23.197   2.317
13634W        W85927   8.719  26.457   1.266
13635W        W85928  27.479   2.919   3.252
13636W        W85929  35.905  34.395   4.724
13637W        W85930  21.592   7.395  13.807
13638W        W85931  17.798  33.124   3.633
13639W        W85932  11.863  44.450  11.553
13640W        W85933  18.145  43.767  11.993
13641W        W85934   3.443  25.538  11.607
13642W        W85935  23.718  41.913   3.637
13643W        W85936  36.415  20.538   4.201
13644W        W85937  19.145   0.337   0.735
13645W        W85938  31.490   9.304  12.580
13646W        W85939  38.821  19.697  13.047
13647W        W85940  17.151   0.316   4.266
13648W        W85941   9.375  26.651  14.493
13649W        W85942  33.063  15.231   1.448
13650W        W85943  26.650   3.787   1.451
13651W        W85944   8.349   5.431  14.012
13652W        W85945  14.148   2.873   1.416
13653W        W85946  10.211  15.709   5.295
13654W        W85947  32.416   4.351   1.925
13655W        W85948  10.725  12.632  13.816
13656W        W85949   8.785  37.850  10.437
13657W        W85950  14.283  39.320  13.801
13658W        W85951   5.270  32.516   4.173
13659W        W85952  20.039  44.282  12.009
13660W        W85953  28.558  10.373  13.881
13661W        W85954  37.425  40.536  14.009
13662W        W85955  27.021   7.251   2.730
13663W        W85956  41.363   5.198  14.785
13664W        W85957   4.778  31.461  14.839
13665W        W85958  30.141   4.815  14.780
13666W        W85959  25.970   1.888   3.653
13667W        W85960  34.951  28.476   0.331
13668W        W85961  19.152  24.719   0.966
13669W        W85962  41.016  11.266   3.167
13670W        W85963   6.379  38.076  14.978
13671W        W85964  40.036   0.311  14.903
13672W        W85965  28.947  11.840   1.877
13673W        W85966  18.265   0.769  11.435
13674W        W85967  37.837  27.560  10.919
13675W        W85968  12.269  39.050   2.388
13676W        W85969  18.102  15.717   2.264
13677W        W85970   9.670   7.817   3.848
13678W        W85971  35.106   9.269  14.446
13679W        W85972  19.724   9.800  12.444
13680W        W85973  40.431  24.635  12.422
13681W        W85974  15.121  14.690  13.020
13682W        W85975   7.392   1.937  14.431
13683W        W85976  38.894  18.765   5.233
13684W        W85977  37.944  27.020  14.876
13685W        W85978   5.828  42.439  12.885
13686W        W85979  10.243   2.266  11.910
13687W        W85980   2.793  11.760   0.777
13688W        W85981  40.311  22.025  14.445
13689W        W85982  33.474  31.488   2.287
13690W        W85983  12.806  20.055   2.308
13691W        W85984  16.723  28.037   3.841
13692W        W85985   5.796  27.659  13.819
13693W        W85986  10.735  23.159   0.826
13694W        W85987  37.934  27.500  11.977
13695W        W85988  38.976  11.175  10.912
13696W        W85989  30.561  40.481  14.908
13697W        W85990  39.464  26.668   1.275
13698W        W85991  36.368  31.956  12.443
13699W        W85992  29.473  17.719   2.192
13700W        W85993  36.900  16.190  12.843
13701W        W85994  30.506  29.647  12.035
13702W        W85995  40.403   5.761  10.594
13703W        W85996   6.406  30.933   2.372
13704W        W85997  21.663  35.980  14.941
13705W        W85998  37.462  23.555   0.761
13706W        W85999  29.497  16.142   4.817
13707W        W86000   1.808  38.984  10.444
13708W        W86001  24.667   0.894  14.461
13709W        W86002  25.592   8.740  11.499
13710W        W86003  12.230  25.697  13.853
13711W        W86004  28.991  43.938  14.836
13712W        W86005   6.379  35.065  10.412
13713W        W86006  21.149   0.336   4.670
13714W        W86007   6.830  42.859  11.551
13715W        W86008  43.414  20.631   2.705
13716W        W86009  32.443  21.153   4.296
13717W        W86010  14.144  35.520  14.324
13718W        W86011  39.915  12.156   2.414
13719W        W86012  36.900  36.540  12.579
13720W        W86013  10.297  21.070   0.372
13721W        W86014   2.947  36.561  13.516
13722W        W86015  18.626  43.453  10.935
13723W        W86016  37.002  23.555  11.891
13724W        W86017  24.998  14.272  14.774
13725W        W86018  15.320  39.389  13.465
13726W        W86019  21.039  16.583   3.821
13727W        W86020  23.609  28.159  14.420
13728W        W86021   0.961   2.395  12.023
13729W        W86022  37.478   5.352  12.826
13730W        W86023  32.109  15.165   0.389
13731W        W86024   4.394  44.951   3.183
13732W        W86025   1.885  15.645  10.612
13733W        W86026  42.367   0.766   9.622
13734W        W86027  33.071  13.296   3.705
13735W        W86028   2.922  22.149  10.572
13736W        W86029  24.025  43.913   3.851
13737W        W86030  22.114   3.908   2.307
13738W        W86031  36.054   6.314  11.084
13739W        W86032  38.866  42.455   3.655
13740W        W86033  22.503  21.522  12.902
13741W        W86034  34.517   2.371  11.012
13742W        W86035  10.235   2.932  12.834
13743W        W86036  23.098  39.513   0.452
13744W        W86037   2.786  39.058   4.760
13745W        W86038   2.863  20.672  11.576
13746W        W86039  17.146  26.576  13.336
13747W        W86040  23.035  36.845  10.613
13748W        W86041  39.860  11.145  11.507
13749W        W86042  16.198  30.612  13.002
13750W        W86043  11.706  13.141   4.666
13751W        W86044  43.278  20.641   2.296
13752W        W86045   4.205  25.610  11.595
13753W        W86046   3.267  25.559   4.604
13754W        W86047  37.384  29.985   4.610
13755W        W86048  42.402  33.461   2.407
13756W        W86049  39.487  10.188  14.281
13757W        W86050   6.327  13.613   0.866
13758W        W86051  29.059  33.097   4.189
13759W        W86052   7.305   4.263   4.146
13760W        W86053  20.623  31.899  11.965
13761W        W86054   7.233  29.963  14.001
13762W        W86055  37.036  27.638   1.893
13763W        W86056  34.369  40.910  14.331
13764W        W86057  35.378   1.475  11.524
13765W        W86058   2.345  31.524  13.363
13766W        W86059   7.409  30.161   0.281
13767W        W86060  37.405  25.169   3.708
13768W        W86061  33.953  25.121   2.746
13769W        W86062   9.806  35.866  11.085
13770W        W86063  26.189  17.159   2.245
13771W        W86064  36.435   0.755   1.883
13772W        W86065  42.916  11.134   0.368
13773W        W86066  28.058   2.340  12.484
13774W        W86067   3.458  42.802  12.075
13775W        W86068  14.771  28.005   0.863
13776W        W86069  10.319  10.757   0.884
13777W        W86070   0.788   0.472  13.013
13778W        W86071   5.747  16.149   1.742
13779W        W86072   3.717   9.297   1.836
13780W        W86073   2.785  35.436  13.396
13781W        W86074   5.822  32.405  12.500
13782W        W86075  25.109   6.920   0.297
13783W        W86076  34.919  44.765  12.848
13784W        W86077  19.071   4.863  10.946
13785W        W86078  33.406   8.797  12.553
13786W        W86079   7.834   3.404  11.488
13787W        W86080  13.243  27.949   3.319
13788W        W86081  28.664  21.717   4.704
13789W        W86082  22.573  38.934   0.877
13790W        W86083  27.098  33.455   2.333
13791W        W86084  22.070  22.739   2.316
13792W        W86085   1.917  19.731   1.344
13793W        W86086  35.424  16.730   0.439
13794W        W86087  37.472  33.395   4.158
13795W        W86088  27.943  21.108   1.704
13796W        W86089  13.139  25.518  10.457
13797W        W86090  18.547   7.190   4.649
13798W        W86091  34.014  18.248   0.381
13799W        W86092   7.190   3.300   4.707
13800W        W86093   9.265  35.406  14.382
13801W        W86094   4.700  24.023  11.961
13802W        W86095  35.882  18.764  11.917
13803W        W86096   7.836   0.855   0.925
13804W        W86097  37.478  30.459   2.222
13805W        W86098   5.741  41.500  11.069
13806W        W86099  30.128   8.859   4.333
13807W        W86100  35.482  26.592  11.895
13808W        W86101  20.143  37.084  10.980
13809W        W86102   9.184  18.647  12.874
13810W        W86103  30.910  21.513  14.327
13811W        W86104  32.987  37.505  10.417
13812W        W86105  12.794   4.775   5.213
13813W        W86106  14.672  26.520  10.916
13814W        W86107   5.780  10.196   3.761
13815W        W86108   9.192  32.551  11.077
13816W        W86109  12.133  42.790   4.302
13817W        W86110  20.091  25.590   1.840
13818W        W86111  32.620  44.449  14.373
13819W        W86112   8.334   8.853  11.488
13820W        W86113  43.419  39.475  14.824
13821W        W86114  16.170  31.091  11.479
13822W        W86115   1.760  10.773  10.910
13823W        W86116   7.408  39.403   1.712
13824W        W86117  23.047  21.068   2.852
13825W        W86118  24.531   0.905  13.808
13826W        W86119   4.446  22.168   2.328
13827W        W86120  25.502  38.386  14.494
13828W        W86121   1.474  35.433  10.506
13829W        W86122  16.098  18.099   2.686
13830W        W86123   1.410  29.584  14.879
13831W        W86124  10.210  10.699  10.456
13832W        W86125  24.489   5.368   0.470
13833W        W86126   8.898  43.831   3.247
13834W        W86127   2.287   4.799  14.373
13835W        W86128  13.140  28.938  13.058
13836W        W86129  28.542   4.920  13.511
13837W        W86130  35.489   0.830   4.620
13838W        W86131  36.502  36.996  10.621
13839W        W86132  33.105   9.643   0.339
13840W        W86133  11.131  27.018  10.603
13841W        W86134  10.198   1.902  12.093
13842W        W86135  32.611   1.746   1.450
13843W        W86136  21.531  32.973   1.775
13844W        W86137  23.034  16.773  12.505
13845W        W86138  27.547  24.559   3.741
13846W        W86139  11.695  14.187  12.012
13847W        W86140  25.667   1.940   1.704
13848W        W86141  26.648   9.720  11.433
13849W        W86142  33.065  38.865   0.812
13850W        W86143  29.098  29.096  14.828
13851W        W86144   4.811   2.287   0.293
13852W        W86145  29.947  21.583   3.327
13853W        W86146  27.988  20.703  14.940
13854W        W86147  33.924  17.083  11.420
13855W        W86148  15.626   0.470  12.949
13856W        W86149  31.917  10.376  13.458
13857W        W86150  34.609   8.825   4.280
13858W        W86151  35.597  31.957  11.520
13859W        W86152   7.855  13.204   1.233
13860W        W86153  11.238  35.418   4.207
13861W        W86154  32.450  11.179   0.355
13862W        W86155  34.484  36.887  13.864
13863W        W86156  27.193  24.502   3.754
13864W        W86157  38.861  20.154  10.911
13865W        W86158   6.406  23.719  11.856
13866W        W86159  19.240  30.504  14.281
13867W        W86160  18.214  17.148  11.550
13868W        W86161  41.377   7.767   2.849
13869W        W86162  33.540  23.229  11.869
13870W        W86163  19.103   7.687  14.285
13871W        W86164  18.631  20.755  11.896
13872W        W86165  30.907  22.066  10.491
13873W        W86166  28.172  34.920  10.475
13874W        W86167   8.391  42.028  14.015
13875W        W86168  37.884   2.732   4.622
13876W        W86169  33.104  25.602   1.246
13877W        W86170   3.853  11.238   2.411
13878W        W86171  33.593   2.756   0.357
13879W        W86172  32.919  29.486   2.329
13880W        W86173   0.471  32.029   4.141
13881W        W86174  11.637   6.231  10.985
13882W        W86175  44.952  37.037   1.765
13883W        W86176   3.310  27.954  11.021
13884W        W86177   1.834   4.271  10.930
13885W        W86178  22.116  18.203   3.258
13886W        W86179  24.534  26.632  12.403
13887W        W86180  21.240  33.926  11.074
13888W        W86181  41.325  12.613   1.780
13889W        W86182  15.745   7.883  14.478
13890W        W86183  32.458   8.761   1.736
13891W        W86184  25.026  10.206   1.697
13892W        W86185  14.760   1.330   2.889
13893W        W86186   2.427  13.675   1.314
13894W        W86187  36.455  22.095  11.959
13895W        W86188  18.604  23.581  13.989
13896W        W86189  14.121  31.558   1.843
13897W        W86190  13.352  39.995   0.745
13898W        W86191   8.728   4.321   1.854
13899W        W86192   3.952  16.109   3.220
13900W        W86193  32.073  16.803  10.157
13901W        W86194   1.790  44.457   1.861
13902W        W86195  24.626  32.604  14.355
13903W        W86196   5.425  20.632   0.327
13904W        W86197  22.179  11.826  12.398
13905W        W86198  13.314   0.469  12.965
13906W        W86199  22.518   6.272  14.929
13907W        W86200   7.301  21.136   4.204
13908W        W86201  15.088  26.167   3.631
13909W        W86202  40.504  20.146   4.238
13910W        W86203  30.104  44.789  12.880
13911W        W86204  20.110  40.874  14.937
13912W        W86205  18.230  40.840  14.853
13913W        W86206  19.266  43.973  12.508
13914W        W86207  36.986  19.669  14.492
13915W        W86208  34.036  14.660   3.752
13916W        W86209  20.064   2.749   3.277
13917W        W86210  30.609   7.258  10.986
13918W        W86211  24.180  14.143  10.106
13919W        W86212  26.139  23.151   4.656
13920W        W86213  11.819  41.969  14.838
13921W        W86214   9.188  21.120  10.895
13922W        W86215  29.490  20.590   2.722
13923W        W86216  20.181  43.874   3.204
13924W        W86217  44.954   3.455  11.385
13925W        W86218   8.282   0.250  12.545
13926W        W86219   6.241   3.883  10.970
13927W        W86220  10.842  16.633  12.575
13928W        W86221  35.913  10.827   4.340
13929W        W86222  39.353  20.199   0.798
13930W        W86223   4.317  42.407  10.895
13931W        W86224  16.188   6.333   2.664
13932W        W86225  12.840   4.779   1.908
13933W        W86226   5.335  32.489  12.964
13934W        W86227  29.937  16.110   4.810
13935W        W86228  40.505  22.547   1.332
13936W        W86229  12.262  38.427  13.029
13937W        W86230   7.755  18.123   2.265
13938W        W86231  37.479   0.970   2.397
13939W        W86232  34.527  18.206   2.696
13940W        W86233  28.152  34.402  11.525
13941W        W86234  43.397  13.119   2.797
13942W        W86235  24.145  19.665  14.859
13943W        W86236  43.429  41.956   1.855
13944W        W86237  24.532  37.839   1.796
13945W        W86238   3.907  30.474   0.265
13946W        W86239  19.124   9.806   4.257
13947W        W86240  40.351  25.154  10.084
13948W        W86241  36.501  18.604  12.474
13949W        W86242  12.230  33.970   2.706
13950W        W86243  18.784  33.110   4.603
13951W        W86244  23.527  26.027  10.941
13952W        W86245  22.120   3.339  13.949
13953W        W86246   1.422  27.002   3.711
13954W        W86247   8.188  12.635   3.265
13955W        W86248   2.736  44.986   3.271
13956W        W86249  20.188  43.008   2.408
13957W        W86250  38.989  12.722  14.825
13958W        W86251  37.386  20.654   0.956
13959W        W86252  36.420   6.315  11.555
13960W        W86253  38.406  38.379  12.824
13961W        W86254  17.631   6.797   1.788
13962W        W86255  13.683  24.572  13.821
13963W        W86256  28.481  27.457   1.924
13964W        W86257   4.730   7.305   2.722
13965W        W86258  10.329  14.807  13.807
13966W        W86259  43.452  17.276  12.498
13967W        W86260  20.746  15.720   0.456
13968W        W86261  26.664   9.299   4.822
13969W        W86262  33.099  23.033   3.233
13970W        W86263  13.675  30.972  13.843
13971W        W86264   2.758   4.450   1.290
13972W        W86265  27.103  35.968  13.011
13973W        W86266  20.597  40.979   2.890
13974W        W86267  21.739  13.844   2.805
13975W        W86268  34.866  15.304  14.863
13976W        W86269  19.703  27.099   4.250
13977W        W86270  11.666  30.511  12.420
13978W        W86271  26.477   0.354  13.860
13979W        W86272  15.118  35.975  13.416
13980W        W86273  27.091  39.826  13.316
13981W        W86274  18.604  25.634  13.487
13982W        W86275   1.464  31.068   2.851
13983W        W86276  39.332  16.717   4.651
13984W        W86277  43.415   6.920  14.355
13985W        W86278  21.729   2.405   4.250
13986W        W86279  16.171  40.008  10.641
13987W        W86280  10.296  23.620   2.811
13988W        W86281  12.317   1.948  12.500
13989W        W86282  15.107  31.604   1.390
13990W        W86283   8.378  35.408   2.328
13991W        W86284  21.088  17.196  11.022
13992W        W86285  40.394   5.690  13.001
13993W        W86286  33.476  14.263  10.058
13994W        W86287  13.819  37.874  10.413
13995W        W86288  23.613  21.594   0.437
13996W        W86289  15.660  36.531   4.757
13997W        W86290  37.434  14.280  11.526
13998W        W86291   9.203  29.060   0.795
13999W        W86292   4.365  14.138   4.824
14000W        W86293  22.024  19.222  11.413
14001W        W86294  16.100  34.532   3.772
14002W        W86295   3.395  10.346   2.253
14003W        W86296  41.908  27.670  13.023
14004W        W86297  12.653  32.557  10.613
14005W        W86298   3.306  12.815  14.773
14006W        W86299  34.051  19.112   3.272
14007W        W86300  11.217   6.366  14.440
14008W        W86301  34.462   3.451  12.488
14009W        W86302  14.811  34.085  10.470
14010W        W86303  12.141  44.413   3.852
14011W        W86304   4.918   6.220   5.304
14012W        W86305  18.214  10.778   0.749
14013W        W86306  42.023  34.106  11.962
14014W        W86307  27.528  16.757  12.834
14015W        W86308   9.748   3.914   2.695
14016W        W86309  32.922  37.014  10.447
14017W        W86310  34.987   2.891  12.494
14018W        W86311  33.576  30.449  12.551
14019W        W86312  40.954  33.544   0.860
14020W        W86313  44.322  21.747   3.650
14021W        W86314  28.559   4.338   2.251
14022W        W86315  22.658  12.285   3.243
14023W        W86316  23.062   5.326   0.327
14024W        W86317  34.101  33.885   3.751
14025W        W86318  38.570  23.606   2.766
14026W        W86319  16.134  28.182  13.922
14027W        W86320  29.173  25.655   1.448
14028W        W86321  22.529  24.562  14.486
14029W        W86322  35.904  44.806   4.282
14030W        W86323   7.408   5.302   3.693
14031W        W86324  11.694  17.802  13.548
14032W        W86325   6.749  16.256  14.474
14033W        W86326  26.700  29.947   4.335
14034W        W86327  15.149   6.204   4.133
14035W        W86328  22.207  29.930  13.381
14036W        W86329   9.195  10.370  11.543
14037W        W86330  38.847  34.960  11.537
14038W        W86331  29.493  24.533  14.799
14039W        W86332  33.392   6.839   2.785
14040W        W86333  17.220  14.684  12.827
14041W        W86334  12.773  32.035   3.654
14042W        W86335  27.470  36.089   4.677
14043W        W86336  28.001  21.615   0.943
14044W        W86337  13.709  27.002  14.387
14045W        W86338  40.385  32.457   3.309
14046W        W86339  17.614  15.646   2.847
14047W        W86340  42.419  36.385   4.296
14048W        W86341  22.690  44.929  12.441
14049W        W86342  15.289  36.503   1.224
14050W        W86343  37.559  16.782  11.483
14051W        W86344  32.482  40.994   2.365
14052W        W86345  14.114  10.304   1.279
14053W        W86346  41.524   2.317  13.363
14054W        W86347  37.488  36.551   4.836
14055W        W86348  40.984  30.490  12.045
14056W        W86349  41.913  22.551  14.425
14057W        W86350  32.926  34.369   3.366
14058W        W86351  25.033  20.655   1.723
14059W        W86352   4.711  16.647  14.422
14060W        W86353  29.964  22.702   4.277
14061W        W86354  43.949  30.511   0.853
14062W        W86355  26.675  25.095   9.995
14063W        W86356  26.073  17.307   1.744
14064W        W86357   5.724  14.126  13.307
14065W        W86358  29.924  23.534   9.542
14066W        W86359  13.326  25.502  10.911
14067W        W86360   1.975   6.792   4.148
14068W        W86361  39.846  23.106   4.213
14069W        W86362   2.253  19.642  13.044
14070W        W86363  30.076  30.619  13.798
14071W        W86364  38.979  10.184   9.927
14072W        W86365   3.222  17.191  10.890
14073W        W86366  18.054  42.878   4.728
14074W        W86367  37.987  43.918   1.338
14075W        W86368  31.898   4.263  14.398
14076W        W86369   7.187  29.945  11.110
14077W        W86370  32.074  20.059   3.197
14078W        W86371  26.624  19.761  13.385
14079W        W86372   3.309  15.741  13.833
14080W        W86373  14.812  34.905  14.968
14081W        W86374   1.925  19.659  12.519
14082W        W86375  16.088  24.975  14.896
14083W        W86376  35.552  12.233  14.915
14084W        W86377   3.326   5.689   1.790
14085W        W86378  18.208  34.568   4.204
14086W        W86379  31.459  21.551  14.346
14087W        W86380  31.519  15.278   1.263
14088W        W86381  41.460  20.692   2.184
14089W        W86382  26.016   1.918  10.964
14090W        W86383   5.833  33.450  11.037
14091W        W86384  28.649  32.099   4.681
14092W        W86385  36.356  17.762  13.314
14093W        W86386   9.186   3.386  11.856
14094W        W86387   3.459  31.115  10.443
14095W        W86388  28.131  25.577  11.610
14096W        W86389   3.243  18.665  13.486
14097W        W86390  21.040  12.134   1.298
14098W        W86391  16.243  40.488  11.527
14099W        W86392  31.596  12.327  11.530
14100W        W86393  26.613  17.180   5.139
14101W        W86394  37.884  29.650  10.404
14102W        W86395   7.881  30.604   3.632
14103W        W86396  20.648  30.488   0.346
14104W        W86397  41.940  39.846  13.026
14105W        W86398   7.670  39.508   1.388
14106W        W86399  32.105  27.961   0.768
14107W        W86400  21.621   2.381   3.294
14108W        W86401  27.494   1.884  10.591
14109W        W86402  18.667  32.994   0.744
14110W        W86403  12.786  22.680  13.513
14111W        W86404  15.193  11.718  14.504
14112W        W86405  29.010  36.354  13.497
14113W        W86406  39.912  14.111  14.406
14114W        W86407  15.812  30.542   0.773
14115W        W86408  14.655  35.882  11.476
14116W        W86409   5.730  30.576  11.902
14117W        W86410  32.948  10.200   9.519
14118W        W86411  20.672  17.160   0.756
14119W        W86412  26.636   7.401  10.552
14120W        W86413  43.474  32.896   0.448
14121W        W86414  44.450   6.404  12.376
14122W        W86415  21.678  40.356  10.496
14123W        W86416  41.849  19.144  14.401
14124W        W86417  13.123  34.076  13.042
14125W        W86418  11.766  34.417   4.607
14126W        W86419  38.849  21.034   1.867
14127W        W86420  32.549  10.162   2.371
14128W        W86421  22.694   7.191   1.257
14129W        W86422  25.667  32.418  14.363
14130W        W86423  10.743  15.604   2.742
14131W        W86424   3.215  38.924  10.994
14132W        W86425  24.499  20.268   4.732
14133W        W86426  38.988  13.286   0.781
14134W        W86427  13.174  26.063  12.062
14135W        W86428  42.467  32.614   3.317
14136W        W86429  44.793  37.858   4.214
14137W        W86430   6.184   6.410  11.025
14138W        W86431  16.086   8.180  12.580
14139W        W86432  42.338   0.898   5.208
14140W        W86433  31.510  31.413   2.295
14141W        W86434  30.473  26.038   3.781
14142W        W86435  36.961   3.826  13.062
14143W        W86436  12.175   0.249  13.859
14144W        W86437  35.414  32.405   1.309
14145W        W86438  35.500  21.727   3.728
14146W        W86439   6.265  35.466   3.767
14147W        W86440  35.955  17.127   3.253
14148W        W86441  25.114   8.180   0.824
14149W        W86442   2.939  14.831  10.921
14150W        W86443   0.263  43.947   0.272
14151W        W86444  40.983  43.782  14.308
14152W        W86445  33.002  26.574   3.688
14153W        W86446   6.819   6.843   1.368
14154W        W86447  33.914  21.094  11.986
14155W        W86448  10.207  26.032   9.975
14156W        W86449   7.362  30.093  13.380
14157W        W86450  33.898  23.661  14.009
14158W        W86451   3.952  37.992   3.694
14159W        W86452  38.498  37.390   1.241
14160W        W86453  30.017  33.505  12.076
14161W        W86454  11.805  30.612   9.921
14162W        W86455  36.051   6.895  13.529
14163W        W86456  26.054  28.483   3.630
14164W        W86457  33.889  13.845  14.864
14165W        W86458  27.498  23.675  14.476
14166W        W86459   8.841  39.021  11.473
14167W        W86460   2.332  20.597  11.588
14168W        W86461  14.166  28.124   0.313
14169W        W86462  43.404  19.548  12.883
14170W        W86463  43.327  24.082   2.851
14171W        W86464  10.665  18.223  12.465
14172W        W86465   3.811  18.102  11.499
14173W        W86466  11.677   9.246  11.974
14174W        W86467  11.346  29.468  14.344
14175W        W86468  24.185  39.000  12.895
14176W        W86469  44.883  33.915  10.547
14177W        W86470  24.977  32.019  11.991
14178W        W86471   5.918  25.149   4.745
14179W        W86472   8.767  26.607  11.014
14180W        W86473  41.810  28.173  10.890
14181W        W86474  41.471  36.418   5.311
14182W        W86475  24.081  40.534   0.335
14183W        W86476  29.175  17.164   3.274
14184W        W86477  10.777  18.656  13.319
14185W        W86478  31.923  13.292  12.844
14186W        W86479  23.060  37.531  10.928
14187W        W86480  24.975  33.526  10.551
14188W        W86481  10.870  36.039  11.588
14189W        W86482   3.347  13.248   1.226
14190W        W86483   5.406  39.390  12.399
14191W        W86484   3.723  14.780  10.915
14192W        W86485   7.271   6.729  11.913
14193W        W86486  11.337  20.087   3.809
14194W        W86487  18.718  30.161  11.013
14195W        W86488   4.351   3.447   2.841
14196W        W86489  34.466  20.670  13.380
14197W        W86490  33.476  22.208   0.855
14198W        W86491   1.904   7.846  13.927
14199W        W86492   8.205  14.684   4.754
14200W        W86493   3.382  30.632  14.026
14201W        W86494  21.654  32.399   3.846
14202W        W86495  27.453  18.727   1.268
14203W        W86496  31.582   3.801  12.351
14204W        W86497  31.603  23.548  10.495
14205W        W86498   2.887  22.043  12.997
14206W        W86499   6.323  27.122   0.270
14207W        W86500  32.893  27.590   2.842
14208W        W86501   8.194  31.996  13.817
14209W        W86502  25.037  31.120  11.977
14210W        W86503  32.069  12.736  13.905
14211W        W86504  41.932  10.773  14.962
14212W        W86505  28.185  14.644   0.444
14213W        W86506  11.859  40.543  11.608
14214W        W86507  18.644  16.318  11.856
14215W        W86508  39.343  12.666  14.802
14216W        W86509  32.037  37.541   2.844
14217W        W86510  19.210   6.732   2.331
14218W        W86511  32.463  21.531   3.717
14219W        W86512  39.037  15.099   0.339
14220W        W86513   0.283  10.790  14.989
14221W        W86514  29.460  12.818   0.300
14222W        W86515  39.823  23.221  14.948
14223W        W86516  25.014  32.538  11.454
14224W        W86517  30.457  40.434  11.877
14225W        W86518  32.494  31.617  10.888
14226W        W86519  23.015  29.510   0.285
14227W        W86520  27.003  18.766  13.412
14228W        W86521  33.461  25.048   1.373
14229W        W86522  24.091  13.222  14.844
14230W        W86523  15.677  29.040  10.983
14231W        W86524  16.742   9.743   0.819
14232W        W86525  39.934  12.714  10.407
14233W        W86526  40.313  20.203   1.745
14234W        W86527  12.643  30.510   4.340
14235W        W86528   7.718  19.591  12.518
14236W        W86529   7.221  32.072  10.442
14237W        W86530  16.720  15.093  12.913
14238W        W86531  44.753  35.961  12.410
14239W        W86532  35.379   9.732   3.796
14240W        W86533  39.043  22.679   2.877
14241W        W86534  43.424   9.807   0.255
14242W        W86535   8.309  32.078  13.473
14243W        W86536  11.175  33.963  12.012
14244W        W86537  10.255  31.637  13.863
14245W        W86538  32.058  13.782   1.376
14246W        W86539  10.153   9.292   0.307
14247W        W86540  19.679  18.550   4.626
14248W        W86541  44.414  16.095  14.938
14249W        W86542  23.043  13.271  14.413
14250W        W86543  22.061  12.301   1.384
14251W        W86544  41.934  19.079   5.245
14252W        W86545  33.495  20.661   3.663
14253W        W86546  11.784  40.481  12.358
14254W        W86547   2.905  18.130   3.229
14255W        W86548  13.769  38.952   3.803
14256W        W86549  18.648  30.980  10.495
14257W        W86550  11.208   2.236  12.929
14258W        W86551  25.511  30.573   1.784
14259W        W86552   6.304  17.216  13.832
14260W        W86553  31.609  42.410   4.117
14261W        W86554   5.889   2.462  12.367
14262W        W86555  21.719   5.827  12.834
14263W        W86556  17.767  15.263  14.819
14264W        W86557  24.565  12.771  14.322
14265W        W86558   5.689  25.968   3.186
14266W        W86559  11.633  10.682   0.389
14267W        W86560   1.319  40.925   0.350
14268W        W86561  40.329  29.944  13.535
14269W        W86562  40.311  22.646  14.984
14270W        W86563   8.758  27.148   1.853
14271W        W86564  33.521  29.972   3.221
14272W        W86565  31.546  17.630   0.915
14273W        W86566   9.840  30.976  13.424
14274W        W86567  16.713  15.149  10.479
14275W        W86568   5.229  44.999   0.747
14276W        W86569  10.763   0.829  14.489
14277W        W86570  34.563  27.066   4.754
14278W        W86571  39.967   0.790   2.700
14279W        W86572  17.714  34.968  12.536
14280W        W86573  22.228  37.550   0.263
14281W        W86574  19.665  35.904   3.373
14282W        W86575   6.290  20.615   3.692
14283W        W86576   5.320  27.532  11.442
14284W        W86577  34.976  24.631  14.904
14285W        W86578  30.620  41.915   0.289
14286W        W86579  30.067  44.857  10.592
14287W        W86580  44.949  16.766   0.744
14288W        W86581  12.809  36.514   1.435
14289W        W86582   4.862  26.000   2.234
14290W        W86583  24.024   5.310  11.509
14291W        W86584   6.336  34.889  12.971
14292W        W86585  10.339   7.294   4.683
14293W        W86586   1.976   9.222  11.876
14294W        W86587  24.221   6.717  10.521
14295W        W86588  39.844  23.159   1.815
14296W        W86589  13.248   9.386  10.578
14297W        W86590  36.548   6.917   4.300
14298W        W86591  38.399  41.963   3.230
14299W        W86592   9.649  40.453   4.800
14300W        W86593  27.164   8.252  13.514
14301W        W86594   5.766  32.001   1.832
14302W        W86595  31.937  23.651   4.144
14303W        W86596  29.566   0.296   1.735
14304W        W86597  44.500  12.645   4.261
14305W        W86598   3.239  18.778   4.230
14306W        W86599   8.748   6.917  12.565
14307W        W86600  32.113   8.221   3.190
14308W        W86601  13.171  15.694  14.384
14309W        W86602  32.609   8.375  12.960
14310W        W86603  21.641  21.588   0.927
14311W        W86604  16.111  39.019  14.477
14312W        W86605  33.553  26.524  12.580
14313W        W86606  33.937  27.669  13.322
14314W        W86607  34.864  14.673  11.596
14315W        W86608  24.093  42.440  13.823
14316W        W86609  16.318  38.508  13.450
14317W        W86610   1.466  22.679   0.866
14318W        W86611  41.366   6.377   3.231
14319W        W86612  18.637  16.713  12.367
14320W        W86613   1.920  44.314   4.677
14321W        W86614  34.412  42.355   2.797
14322W        W86615  17.091   2.407  11.859
14323W        W86616   0.342  43.883   2.734
14324W        W86617  18.153  40.399  10.465
14325W        W86618   7.363  41.827   3.698
14326W        W86619  38.978   6.804   2.331
14327W        W86620  33.555  24.219   0.913
14328W        W86621  42.471   1.852  13.542
14329W        W86622  35.093  11.710   0.836
14330W        W86623  20.072  42.818   1.334
14331W        W86624  31.416  15.166   0.356
14332W        W86625  28.486  42.332  12.854
14333W        W86626   1.408  19.086  13.973
14334W        W86627  16.743  13.762   4.155
14335W        W86628  12.335  42.380   2.697
14336W        W86629  26.029  36.548  12.836
14337W        W86630  19.561  18.174  14.421
14338W        W86631  25.202  43.965   4.123
14339W        W86632   9.159  13.211   3.829
14340W        W86633  16.631  41.443  13.506
14341W        W86634   1.736  29.976  14.834
14342W        W86635  29.042  39.810   2.677
14343W        W86636  17.295   0.779  11.935
14344W        W86637  27.465  23.622  13.507
14345W        W86638  36.925  40.963   2.670
14346W        W86639  10.299  26.147   3.343
14347W        W86640  14.278  23.622  11.050
14348W        W86641  35.917  30.991  13.319
14349W        W86642   0.262  18.693  13.846
14350W        W86643  13.320  39.997   3.835
14351W        W86644  10.377  11.280  10.620
14352W        W86645  35.926  22.677  11.934
14353W        W86646   9.742  10.383   4.766
14354W        W86647  11.279  20.073   1.448
14355W        W86648   0.945  31.419   1.443
14356W        W86649   5.699  16.810  10.985
14357W        W86650  27.576   5.719  11.895
14358W        W86651   3.717  16.103  11.435
14359W        W86652   7.245  20.600  12.426
14360W        W86653  12.306  15.299   4.286
14361W        W86654  11.789  25.046   5.112
14362W        W86655   1.767   5.367  14.974
14363W        W86656  42.815  37.536   1.402
14364W        W86657  27.081   7.671   1.872
14365W        W86658  20.728  43.434  14.767
14366W        W86659  25.082  25.502  14.989
14367W        W86660  19.106  21.193   1.848
14368W        W86661  42.490  40.010  10.628
14369W        W86662  42.953   5.785  13.874
14370W        W86663  28.997   5.854   1.783
14371W        W86664  26.037  32.617  12.839
14372W        W86665  14.709  16.140   2.724
14373W        W86666  18.151  43.823  14.824
14374W        W86667  20.708  39.908  14.821
14375W        W86668   2.329   0.298  10.081
14376W        W86669  14.789  17.568  13.499
14377W        W86670   3.402   5.372   3.233
14378W        W86671  20.693  39.480   1.819
14379W        W86672  41.365  40.036   1.319
14380W        W86673  33.606  10.341   0.260
14381W        W86674  27.045  42.471   2.846
14382W        W86675  42.519  10.869   2.365
14383W        W86676  35.362   8.328   4.758
14384W        W86677  35.868   1.474  11.076
14385W        W86678  39.495  22.648  11.478
14386W        W86679  23.202  14.826  12.562
14387W        W86680  21.184  12.126  10.893
14388W        W86681  23.013   3.402  12.440
14389W        W86682  31.000  28.659   3.313
14390W        W86683  44.484  24.101   1.329
14391W        W86684   2.304   2.902   0.822
14392W        W86685  32.105  30.625  14.294
14393W        W86686   6.310  35.860   4.162
14394W        W86687  12.736  25.044  12.960
14395W        W86688   5.784   5.865  13.844
14396W        W86689  19.157  14.819  11.976
14397W        W86690   2.352   0.855   5.202
14398W        W86691  10.787  22.095  14.404
14399W        W86692  31.638  18.554  12.372
14400W        W86693  35.959  19.733  13.876
14401W        W86694   8.349   5.859   1.443
14402W        W86695  22.730  33.026  10.911
14403W        W86696   3.791  36.537   2.416
14404W        W86697  14.257  33.535   0.269
14405W        W86698  11.223  38.395   0.919
14406W        W86699  11.658  36.469  10.119
14407W        W86700  26.100  29.138   4.249
14408W        W86701  15.719  41.400   1.407
14409W        W86702  37.432  41.483  12.356
14410W        W86703  10.326  16.692  11.575
14411W        W86704   2.805  42.508  13.477
14412W        W86705  40.919  30.142  12.943
14413W        W86706  13.700  38.434  14.335
14414W        W86707  26.594  17.108   1.716
14415W        W86708  29.533  25.675   2.792
14416W        W86709  18.651  43.803   2.266
14417W        W86710   8.673  14.113   3.710
14418W        W86711  37.552  25.626  14.402
14419W        W86712   8.887  29.097  11.925
14420W        W86713  42.372  32.462  13.403
14421W        W86714  35.912  14.318  10.611
14422W        W86715  14.298   0.856  12.456
14423W        W86716  13.753  30.461  10.459
14424W        W86717   8.366  28.049  12.089
14425W        W86718  15.291  20.105   4.257
14426W        W86719   4.418   1.840  13.884
14427W        W86720  15.241   4.272  14.780
14428W        W86721  16.131  28.979  12.560
14429W        W86722   7.303  29.074  10.565
14430W        W86723  16.240  28.110   3.811
14431W        W86724   3.229  22.738  13.397
14432W        W86725  23.079  32.993   4.245
14433W        W86726   5.354   5.334   1.396
14434W        W86727   1.796  25.212  11.115
14435W        W86728  34.564  16.716  13.962
14436W        W86729  29.545  26.573  11.884
14437W        W86730  43.968  35.994   0.450
14438W        W86731  26.673  31.018  13.031
14439W        W86732  15.256  20.668  11.444
14440W        W86733  18.790  33.529   9.594
14441W        W86734  44.955   7.857  13.806
14442W        W86735  32.569   9.283  12.005
14443W        W86736  37.833  19.230  12.836
14444W        W86737   0.306  24.221  10.443
14445W        W86738  17.303  31.119   0.294
14446W        W86739  34.049   0.295  14.279
14447W        W86740  15.766  26.055   4.702
14448W        W86741   6.343  20.272  12.392
14449W        W86742  14.611   4.919  11.128
14450W        W86743  16.608  24.112   1.344
14451W        W86744  27.601  28.140   0.265
14452W        W86745   8.852   9.682  11.572
14453W        W86746  16.211  20.226  14.018
14454W        W86747  27.641  38.969  12.955
14455W        W86748  38.822  33.976   4.176
14456W        W86749   3.750  10.329  12.859
14457W        W86750  10.762  37.397  14.864
14458W        W86751   4.393  24.688  14.503
14459W        W86752  16.179  12.341  13.386
14460W        W86753  20.675  40.405  11.499
14461W        W86754  32.551  15.798   0.893
14462W        W86755   8.309  32.910   5.288
14463W        W86756   5.305  21.128   3.335
14464W        W86757  31.904  25.969   1.904
14465W        W86758  18.650  42.878   3.760
14466W        W86759  35.065  40.802   4.233
14467W        W86760   3.386   2.398   4.804
14468W        W86761  28.662  37.080  14.000
14469W        W86762   5.262  11.211   4.135
14470W        W86763  12.823  37.950   3.188
14471W        W86764  37.542  13.758   2.361
14472W        W86765  34.477  31.128  13.432
14473W        W86766   7.853  22.728  11.569
14474W        W86767  43.890  12.847  11.033
14475W        W86768  17.754  17.295   1.734
14476W        W86769  18.731  43.381  12.033
14477W        W86770  31.127   3.805   3.672
14478W        W86771   4.769   6.336   3.693
14479W        W86772  17.606  37.959  12.072
14480W        W86773  15.792  13.790   3.233
14481W        W86774   2.768  39.834  13.908
14482W        W86775   0.443  13.170  11.911
14483W        W86776   2.239   3.249   1.861
14484W        W86777  16.104  28.080  11.422
14485W        W86778  14.158   5.203  13.499
14486W        W86779  16.802  19.244  13.995
14487W        W86780  26.106  39.024  14.799
14488W        W86781  13.111  37.057  13.545
14489W        W86782  24.693   3.456  13.809
14490W        W86783  28.097   1.947  14.305
14491W        W86784  38.909  14.298   4.733
14492W        W86785   6.895  14.124   3.793
14493W        W86786  43.484   6.407   1.866
14494W        W86787   8.228  36.039   2.243
14495W        W86788  38.545  20.268  11.905
14496W        W86789  11.178  18.654  11.095
14497W        W86790   0.427  21.531  11.983
14498W        W86791  40.920  33.885   0.920
14499W        W86792  22.597  25.581   0.739
14500W        W86793   6.312  35.888   2.825
14501W        W86794  38.400  37.400   2.820
14502W        W86795  26.982  16.689   3.261
14503W        W86796  34.922  30.960  10.437
14504W        W86797   2.772  28.178   3.278
14505W        W86798  28.540  13.798  12.856
14506W        W86799   9.694  35.054   3.277
14507W        W86800   4.221  23.210  12.516
14508W        W86801  19.145   9.890  12.965
14509W        W86802  22.041   9.333   4.118
14510W        W86803   6.338   0.832  11.435
14511W        W86804   7.388  11.740  14.774
14512W        W86805  34.536  33.060   3.224
14513W        W86806  20.687  15.753  12.964
14514W        W86807   3.910  35.459   3.152
14515W        W86808  28.489  28.940  11.019
14516W        W86809   2.762  30.980  11.925
14517W        W86810  21.738  19.237  14.944
14518W        W86811  34.464  15.607  11.070
14519W        W86812  31.952  27.588  11.045
14520W        W86813  21.573  33.534  10.438
14521W        W86814   5.789  22.182  10.468
14522W        W86815  20.563   1.389   2.334
14523W        W86816  27.674  42.775   3.177
14524W        W86817  42.519  36.390  11.086
14525W        W86818   6.241  19.597   4.774
14526W        W86819  14.633  23.077  13.055
14527W        W86820   9.373  32.541  13.790
14528W        W86821  31.465  32.464  13.469
14529W        W86822  35.869  13.665   2.251
14530W        W86823  10.179   9.735  14.888
14531W        W86824  24.115  44.808   4.207
14532W        W86825   1.327  29.485   1.789
14533W        W86826  10.357  19.047   2.204
14534W        W86827   0.935  34.489  13.924
14535W        W86828  10.328  15.738  11.038
14536W        W86829  11.751  19.673  10.565
14537W        W86830  42.796   1.362   0.927
14538W        W86831   9.171  21.241   0.431
14539W        W86832  30.082   5.929   3.693
14540W        W86833  43.367  40.925   3.780
14541W        W86834  41.812  30.459  14.288
14542W        W86835  37.475  11.358  12.992
14543W        W86836  41.379  15.266   3.820
14544W        W86837   4.304  29.097   2.329
14545W        W86838  15.209  41.312   3.677
14546W        W86839  43.989   8.282   3.777
14547W        W86840  41.829  40.460  14.294
14548W        W86841  19.234  41.838   0.740
14549W        W86842  16.305  31.989  13.390
14550W        W86843  21.563   0.902  11.515
14551W        W86844  11.296  28.127   3.745
14552W        W86845  16.217   3.244   1.351
14553W        W86846  19.744   3.453   1.418
14554W        W86847  44.761   6.337  10.406
14555W        W86848  33.119  31.023   3.785
14556W        W86849  15.144   0.366  14.473
14557W        W86850  34.465   6.277   2.887
14558W        W86851  44.989   3.408  12.579
14559W        W86852  10.327   5.252   4.154
14560W        W86853   5.318  25.994   0.848
14561W        W86854  12.144   8.189  12.447
14562W        W86855   0.297  20.618   4.325
14563W        W86856  37.477   8.236  13.538
14564W        W86857  41.354  38.382   4.640
14565W        W86858  24.481  27.469  10.479
14566W        W86859   7.785   8.201  13.962
14567W        W86860  14.136  41.382   2.233
14568W        W86861   9.855  40.378   0.398
14569W        W86862   5.786  42.885   2.759
14570W        W86863  10.307  15.676   0.269
14571W        W86864  28.059  10.646   0.331
14572W        W86865  10.732   2.813   2.768
14573W        W86866  20.251  19.627  11.574
14574W        W86867  32.098  35.066   4.705
14575W        W86868  16.222  43.433  13.473
14576W        W86869   9.777  11.244   4.224
14577W        W86870  27.606  30.030  11.068
14578W        W86871  13.185  31.140  11.413
14579W        W86872  16.293  23.008  10.475
14580W        W86873  33.391  39.053  14.008
14581W        W86874  24.087  21.032  11.874
14582W        W86875  35.568  18.231   0.908
14583W        W86876  43.442  11.830  13.891
14584W        W86877   1.439  30.430  11.474
14585W        W86878  15.700  43.314  10.495
14586W        W86879  15.622  37.945   4.127
14587W        W86880  29.480  34.006   2.681
14588W        W86881  36.521  34.546  14.784
14589W        W86882   6.711  38.492  12.478
14590W        W86883  32.598   9.678   2.236
14591W        W86884  28.609  13.604   0.426
14592W        W86885   0.819  42.979  11.881
14593W        W86886  44.792   1.787  14.473
14594W        W86887  40.340  43.468  13.002
14595W        W86888  18.597   2.794  12.867
14596W        W86889   2.749  25.580   2.814
14597W        W86890  13.732  39.875  10.911
14598W        W86891  22.095  13.817   4.635
14599W        W86892  38.996  32.547  12.509
14600W        W86893  19.548   1.832  14.365
14601W        W86894  27.971  14.744  10.042
14602W        W86895  12.299  31.030  14.347
14603W        W86896  38.570  13.739   2.382
14604W        W86897  42.433  37.492   0.786
14605W        W86898  15.148  27.064  13.815
14606W        W86899   2.405  27.963   0.802
14607W        W86900  33.061  10.742  10.576
14608W        W86901   5.764   7.819   1.427
14609W        W86902  31.904  14.264   1.225
14610W        W86903  32.412  29.580   0.729
14611W        W86904  31.514  26.538   2.407
14612W        W86905  33.110  43.293   2.763
14613W        W86906  38.458  24.553   1.934
14614W        W86907  14.190  20.735  11.079
14615W        W86908   0.416  11.264  13.873
14616W        W86909  30.577  30.417  14.979
14617W        W86910  38.848   9.262   1.250
14618W        W86911  31.460  26.208   1.721
14619W        W86912  29.038  24.484   1.764
14620W        W86913   9.828   5.907  12.413
14621W        W86914  37.890   8.741   3.804
14622W        W86915   7.414  12.693  14.440
14623W        W86916  40.895  12.761  13.357
14624W        W86917  24.115  15.201  10.977
14625W        W86918  21.550  23.194   0.356
14626W        W86919   7.179   8.775   2.210
14627W        W86920   9.357  44.803  10.932
14628W        W86921  27.047  21.757   1.423
14629W        W86922  14.718  26.579   2.736
14630W        W86923  30.436  19.566   0.450
14631W        W86924  32.520  15.249   3.790
14632W        W86925   8.192  18.154  10.988
14633W        W86926   6.880   7.374   4.795
14634W        W86927  18.658  15.224  13.819
14635W        W86928   3.809  41.886   0.962
14636W        W86929  41.878  26.595  11.562
14637W        W86930  34.581  24.627  10.584
14638W        W86931  41.938   6.278   1.783
14639W        W86932  33.938  39.858  11.494
14640W        W86933  34.615  35.953  10.601
14641W        W86934  42.300  26.115   3.258
14642W        W86935   8.863  35.584  10.619
14643W        W86936  27.963  35.381   0.966
14644W        W86937   1.406  42.959  10.612
14645W        W86938  28.659   5.768   1.761
14646W        W86939   9.385  18.781   3.205
14647W        W86940   7.852  18.555  11.118
14648W        W86941  27.138   9.656  13.995
14649W        W86942  35.389  39.413   2.325
14650W        W86943  15.636  33.423   2.839
14651W        W86944  15.815  29.090   4.740
14652W        W86945  44.497  14.203   0.794
14653W        W86946  28.094  38.008   2.760
14654W        W86947  24.213   5.382   9.650
14655W        W86948  29.608  32.432  10.444
14656W        W86949  23.619  43.502  10.428
14657W        W86950   3.925  11.643   2.329
14658W        W86951  27.665  29.943   2.308
14659W        W86952  20.048  30.034  11.482
14660W        W86953  27.996   2.731   0.247
14661W        W86954  16.641  22.232  12.075
14662W        W86955  32.111  18.569   4.347
14663W        W86956  24.225  38.538   2.729
14664W        W86957  16.137  22.172   0.819
14665W        W86958  40.019  11.852  12.367
14666W        W86959  26.540  10.299  13.871
14667W        W86960  18.653  15.322  12.830
14668W        W86961  28.077  33.090   0.949
14669W        W86962  44.931  21.534  12.451
14670W        W86963  33.912  34.440  11.983
14671W        W86964  30.159  12.207  14.897
14672W        W86965  16.625  26.624   3.214
14673W        W86966  43.970  10.803   0.816
14674W        W86967  28.930  35.491  12.841
14675W        W86968  25.208  41.976   1.899
14676W        W86969  21.557  38.512  14.798
14677W        W86970  25.163  31.107  11.114
14678W        W86971  10.336  40.419  12.074
14679W        W86972   9.173   1.343   0.878
14680W        W86973  32.525  17.163   4.292
14681W        W86974  26.004   5.874   0.277
14682W        W86975   7.172  20.600  11.427
14683W        W86976  21.175  26.554  11.594
14684W        W86977   1.238  25.019   3.183
14685W        W86978  44.972   4.776  10.574
14686W        W86979  20.593  44.772   3.255
14687W        W86980   2.910  42.409   4.709
14688W        W86981   4.783   1.778   1.873
14689W        W86982  38.024  18.246  14.835
14690W        W86983  43.452   0.871  10.939
14691W        W86984   8.325  15.129  14.336
14692W        W86985  39.436  34.018   4.600
14693W        W86986  12.211   1.354   4.278
14694W        W86987  22.134   6.798  11.081
14695W        W86988  27.593   6.688   2.328
14696W        W86989  34.035  19.071   4.747
14697W        W86990  34.951   8.276  12.960
14698W        W86991   6.857  34.027  14.819
14699W        W86992   1.793   2.847  14.991
14700W        W86993   0.364  17.756  14.311
14701W        W86994  21.580  21.262   3.252
14702W        W86995  24.482  23.004  12.559
14703W        W86996  27.677  43.905   0.940
14704W        W86997  22.122  11.167  12.911
14705W        W86998  17.687  23.144  13.927
14706W        W86999  29.928  44.359   4.637
14707W        W87000  14.749  32.916   3.335
14708W        W87001  18.138  44.330  12.890
14709W        W87002  18.575   1.462  13.005
14710W        W87003  33.593  40.043  10.954
14711W        W87004  25.689  21.602   3.685
14712W        W87005  24.691   0.908   4.308
14713W        W87006  28.160  19.588  14.858
14714W        W87007  24.531  19.661   1.377
14715W        W87008  25.645  18.623  14.773
14716W        W87009  19.688   0.816   2.811
14717W        W87010   0.260  19.042  12.981
14718W        W87011  13.184  28.495  13.390
14719W        W87012  22.248  23.536  14.925
14720W        W87013  35.589  13.762   2.730
14721W        W87014  34.115  38.552   1.919
14722W        W87015  40.919   6.285  13.863
14723W        W87016  23.093  44.927   3.686
14724W        W87017  16.146  36.418  11.396
14725W        W87018  37.451  25.057  13.000
14726W        W87019   0.954  17.224  13.903
14727W        W87020  22.071  16.285  11.094
14728W        W87021  31.125  42.288  13.375
14729W        W87022   2.806  21.568  13.513
14730W        W87023  28.043   7.677   4.821
14731W        W87024  34.976  10.829   4.143
14732W        W87025  27.637  34.581   3.754
14733W        W87026  15.250   3.410   3.174
14734W        W87027  10.209  10.722  12.380
14735W        W87028  32.999   2.467  12.919
14736W        W87029  17.153  37.433  10.910
14737W        W87030  24.551  20.584   0.731
14738W        W87031  21.171  36.523   0.871
14739W        W87032   7.186  16.769   4.265
14740W        W87033  28.588   6.867  10.930
14741W        W87034  27.006  17.598  13.064
14742W        W87035  28.604   7.675   3.171
14743W        W87036  36.036  24.522  14.966
14744W        W87037   7.873  39.862   3.861
14745W        W87038  43.972  43.923  13.942
14746W        W87039   7.864   0.928   3.176
14747W        W87040  44.908  11.214  11.470
14748W        W87041  44.418   4.359   4.612
14749W        W87042  25.579  21.513  10.449
14750W        W87043  14.315   0.255   4.688
14751W        W87044  20.572   7.882  10.617
14752W        W87045  38.895  33.523   0.792
14753W        W87046   7.738   0.872  14.913
14754W        W87047  31.495  12.209  14.323
14755W        W87048  17.253   0.763  14.317
14756W        W87049  40.438  32.892  14.910
14757W        W87050   0.781  18.660   2.333
14758W        W87051  34.466  11.286   0.744
14759W        W87052  40.527   0.889  12.415
14760W        W87053  43.867  42.410   0.901
14761W        W87054   1.832  29.427  11.033
14762W        W87055  35.954  35.566  11.398
14763W        W87056  21.523  44.948  11.087
14764W        W87057   9.255  19.256   1.748
14765W        W87058  20.687   9.327   2.692
14766W        W87059  36.432  24.525  12.036
14767W        W87060  40.817  33.552   2.854
14768W        W87061  38.986  21.109   4.649
14769W        W87062  37.395  35.383  14.877
14770W        W87063  13.805  35.565  12.434
14771W        W87064   6.756  19.617   1.784
14772W        W87065   3.751  42.996  13.307
14773W        W87066  23.067  20.031   3.351
14774W        W87067  42.363  33.446  11.590
14775W        W87068  16.192  36.566  13.004
14776W        W87069  13.124   7.264   3.239
14777W        W87070  22.720  43.502   3.725
14778W        W87071   4.261  38.970  10.579
14779W        W87072   0.357   7.400   0.451
14780W        W87073  29.050  40.486  12.561
14781W        W87074  28.509  37.992   3.644
14782W        W87075   9.804  34.051   3.653
14783W        W87076   1.438  13.675   2.809
14784W        W87077  34.009  28.590  11.489
14785W        W87078  23.529   6.859   2.238
14786W        W87079  12.149  10.840   4.606
14787W        W87080  43.500  40.510  10.104
14788W        W87081  31.089  31.059   2.319
14789W        W87082  42.886  21.727  13.823
14790W        W87083  32.044  30.944   2.271
14791W        W87084  33.606  33.478  13.476
14792W        W87085  28.444  19.102  10.518
14793W        W87086  17.187  36.877   4.621
14794W        W87087   5.358  37.867  13.382
14795W        W87088  42.296  36.021  12.452
14796W        W87089  12.656  21.530   0.278
14797W        W87090   7.760  26.610  13.055
14798W        W87091  31.571  25.688  14.282
14799W        W87092  12.687   3.346  11.913
14800W        W87093  36.876   1.270  11.884
14801W        W87094  17.083  26.008  14.869
14802W        W87095  23.700  27.473  10.464
14803W        W87096  16.279  24.639   1.781
14804W        W87097  43.867   2.408   0.759
14805W        W87098   9.199   5.820   0.322
14806W        W87099  43.334   2.800   4.115
14807W        W87100   6.270  27.045   4.260
14808W        W87101  43.435  26.000  12.967
14809W        W87102   5.308  19.563  13.031
14810W        W87103  10.818  42.318  11.428
14811W        W87104  27.625  37.406   1.903
14812W        W87105  26.047  33.527  14.489
14813W        W87106  41.017  41.405  14.417
14814W        W87107  18.281  33.054  14.511
14815W        W87108   6.732  24.604   0.287
14816W        W87109   3.372  21.203  11.877
14817W        W87110  15.783  28.991  13.358
14818W        W87111  32.945  16.754   0.365
14819W        W87112  31.529  32.410   3.789
14820W        W87113  11.313  38.370   0.362
14821W        W87114  35.580  39.030  13.330
14822W        W87115  32.627  14.304   4.659
14823W        W87116  15.735   6.255   0.791
14824W        W87117  14.695  21.165  12.899
14825W        W87118  34.533  35.590   3.315
14826W        W87119  10.158  29.544  11.611
14827W        W87120  22.530  31.932  10.036
14828W        W87121  11.281  43.779  14.506
14829W        W87122  39.847  43.434   1.243
14830W        W87123  21.706   8.697   3.193
14831W        W87124  20.657  44.357  11.600
14832W        W87125  19.275  38.408   4.214
14833W        W87126  34.998   3.305  13.548
14834W        W87127  28.640  29.518   2.795
14835W        W87128  34.873  11.268  13.484
14836W        W87129  29.972  41.524  11.389
14837W        W87130  43.378   4.221  12.863
14838W        W87131   0.350   4.294  14.291
14839W        W87132  32.584  16.281   0.781
14840W        W87133   5.208  44.850  13.964
14841W        W87134  16.583  18.772  10.992
14842W        W87135  31.911  17.183  14.785
14843W        W87136  37.442  13.218   0.955
14844W        W87137  25.976  22.059  13.044
14845W        W87138  10.775   7.174   0.310
14846W        W87139  17.700  17.277  11.466
14847W        W87140  35.504  30.530   3.800
14848W        W87141  36.532  26.138   3.756
14849W        W87142  42.459   6.425   3.334
14850W        W87143  10.255  19.225  13.314
14851W        W87144  22.131   7.746  14.381
14852W        W87145  38.049  20.055  12.037
14853W        W87146  26.185  32.623  10.509
14854W        W87147  21.201  33.578   5.679
14855W        W87148  10.710  27.105  14.289
14856W        W87149   5.923   2.342   1.428
14857W        W87150  34.451  23.208   1.331
14858W        W87151   5.368  31.619  11.943
14859W        W87152   2.902  16.707  13.022
14860W        W87153  18.645   1.747   3.277
14861W        W87154  15.202  13.828   0.826
14862W        W87155   3.883   4.869   0.381
14863W        W87156  31.130  26.483  12.492
14864W        W87157  11.633  44.906   3.156
14865W        W87158  42.346   7.241   3.280
14866W        W87159   1.328   0.891   4.826
14867W        W87160  15.765   2.903   2.783
14868W        W87161  39.345  18.556   2.372
14869W        W87162  39.984  36.033  12.857
14870W        W87163   0.882  24.042  12.579
14871W        W87164  19.128  20.168  10.516
14872W        W87165  19.670  30.954   5.295
14873W        W87166  41.441  41.952   0.770
14874W        W87167  37.077  24.196   4.709
14875W        W87168  28.631  17.596  10.891
14876W        W87169  36.092   5.830   2.235
14877W        W87170  20.097   7.875   1.717
14878W        W87171  40.449  16.655   3.689
14879W        W87172  17.700   0.970  12.978
14880W        W87173  35.598  14.625   0.293
14881W        W87174  22.009  30.991  10.523
14882W        W87175  14.799  21.585   2.298
14883W        W87176  31.514   4.752  13.450
14884W        W87177  16.108  10.378   4.191
14885W        W87178  28.175  41.795  10.459
14886W        W87179  11.802   2.312   1.323
14887W        W87180  18.246  31.918   2.307
14888W        W87181  23.195   4.708  10.580
14889W        W87182  42.928  29.623   4.819
14890W        W87183  32.433  35.969   0.801
14891W        W87184  34.054  12.157  13.446
14892W        W87185   0.777   1.870  12.396
14893W        W87186  13.699  29.620  13.912
14894W        W87187  27.146  28.186  14.481
14895W        W87188   7.370  11.688  10.440
14896W        W87189  35.891  24.085   0.844
14897W        W87190  41.425   9.279  11.969
14898W        W87191   4.855   3.286  11.398
14899W        W87192  17.243   9.655  10.161
14900W        W87193  26.470  44.395   4.599
14901W        W87194  41.839  19.758   4.349
14902W        W87195  44.004  19.219  11.577
14903W        W87196  40.872   7.713  12.371
14904W        W87197  22.557   6.869  13.497
14905W        W87198  34.865  28.956  13.408
14906W        W87199  38.986  26.693  12.969
14907W        W87200  26.113  41.512  11.966
14908W        W87201  34.576  39.880  13.953
14909W        W87202  32.107  44.330   2.893
14910W        W87203  13.308  24.188  14.390
14911W        W87204   8.701  22.507  12.384
14912W        W87205  30.916   6.349   4.129
14913W        W87206   1.932  16.763  13.359
14914W        W87207  16.666  23.149  12.574
14915W        W87208  12.801  34.420   0.413
14916W        W87209  37.922   9.735   4.778
14917W        W87210  40.452  25.132  11.611
14918W        W87211  12.677  17.797  13.953
14919W        W87212  23.208  22.511  14.940
14920W        W87213  24.109  10.339   2.210
14921W        W87214   0.848  25.649   0.964
14922W        W87215   2.904  32.431   0.293
14923W        W87216  19.700   6.219   5.196
14924W        W87217  41.331   0.346  13.030
14925W        W87218  11.326   9.343   3.349
14926W        W87219  20.597  25.645  11.871
14927W        W87220   0.949  25.620  11.457
14928W        W87221  22.557  29.478  14.378
14929W        W87222  28.977  40.470  11.463
14930W        W87223  34.378  34.449  12.426
14931W        W87224  38.043  21.519  11.076
14932W        W87225  19.656  30.980  11.392
14933W        W87226  31.943  37.401   3.263
14934W        W87227  31.950  30.048   4.335
14935W        W87228  35.587  28.112  11.574
14936W        W87229  38.024  25.701   0.888
14937W        W87230  17.681  11.646  14.954
14938W        W87231   4.394   5.792  11.041
14939W        W87232  41.992  37.832   3.781
14940W        W87233  32.037   7.713   1.341
14941W        W87234  32.636  31.977   2.243
14942W        W87235  14.754  10.154   4.805
14943W        W87236  16.169  36.443   1.372
14944W        W87237  10.293  33.622  11.440
14945W        W87238  33.394  29.037  12.449
14946W        W87239  17.216  33.128   0.809
14947W        W87240   7.253  32.620  10.597
14948W        W87241  13.685  20.110   1.344
14949W        W87242   7.813  34.398   2.277
14950W        W87243  11.700  27.987   0.880
14951W        W87244  18.646  37.477   2.867
14952W        W87245  19.069  10.319  10.551
14953W        W87246  30.083  28.488   4.615
14954W        W87247  29.543  11.721   1.784
14955W        W87248  10.202  10.761  12.083
14956W        W87249  13.786  33.124  11.927
14957W        W87250  31.436  27.536   4.728
14958W        W87251  38.930  22.725   3.327
14959W        W87252  12.179  37.846  13.843
14960W        W87253  31.580  13.212   4.747
14961W        W87254  44.450  38.571   4.744
14962W        W87255   6.293  13.676   2.682
14963W        W87256  14.819  33.974  12.497
14964W        W87257  35.998  30.944  13.037
14965W        W87258  30.069   9.263   9.980
14966W        W87259  25.044  25.110  12.446
14967W        W87260  19.124  28.508  10.430
14968W        W87261  41.953  35.980  11.914
14969W        W87262  37.501  42.510  13.943
14970W        W87263  18.619   7.824   4.272
14971W        W87264   5.812  37.017  11.902
14972W        W87265  38.058  32.633  14.362
14973W        W87266  12.308   8.329   4.354
14974W        W87267  25.053  15.694  13.825
14975W        W87268  25.980  16.602   0.855
14976W        W87269  35.017  30.554   3.866
14977W        W87270  43.873   3.754  10.446
14978W        W87271  33.002  34.028  14.010
14979W        W87272  10.784  19.630   1.255
14980W        W87273   0.771   8.685   5.302
14981W        W87274  44.915  19.138  13.472
14982W        W87275  33.463  44.974  12.849
14983W        W87276  32.990  40.007  12.576
14984W        W87277   1.463  31.047  14.938
14985W        W87278  42.932  20.554   0.444
14986W        W87279  10.143  12.800  14.285
14987W        W87280  28.443   5.862   1.379
14988W        W87281  42.791  15.725   4.231
14989W        W87282  38.332  30.517  11.500
14990W        W87283  23.586  32.965   1.372
14991W        W87284  16.305  29.459   3.363
14992W        W87285   3.310  33.496   4.319
14993W        W87286  38.984  39.324  10.522
14994W        W87287  22.641   4.938   0.884
14995W        W87288   0.411  39.511   1.404
14996W        W87289  40.524  12.323   4.651
14997W        W87290  41.361  21.063  10.521
14998W        W87291  41.373  10.641   4.827
14999W        W87292  39.553  25.159  11.872
15000W        W87293   9.877   6.362   4.174
15001W        W87294   8.389  42.821  13.543
15002W        W87295  24.165  20.105   1.857
15003W        W87296  27.513   5.888  13.329
15004W        W87297  16.626  10.796  10.529
15005W        W87298   3.233  31.506   2.862
15006W        W87299  28.145   3.385   4.775
15007W        W87300  24.663  14.312  11.398
15008W        W87301  14.819  16.103  14.780
15009W        W87302  16.650   1.816  13.954
15010W        W87303   5.389   5.872  11.495
15011W        W87304  37.362  39.001   4.799
15012W        W87305  11.735   1.266  10.061
15013W        W87306   2.463   9.198  12.504
15014W        W87307  23.090  33.016  13.901
15015W        W87308   7.271  36.893  12.397
15016W        W87309  26.577  18.649   3.749
15017W        W87310  20.097   2.275   0.250
15018W        W87311   3.851  19.165   4.646
15019W        W87312  16.803  25.552  13.034
15020W        W87313   3.390  36.526   1.780
15021W        W87314  20.107  14.733  14.966
15022W        W87315  42.877  17.775   0.831
15023W        W87316  23.721  17.185  13.847
15024W        W87317  16.687  12.302  13.056
15025W        W87318   5.433  38.352   0.318
15026W        W87319   6.289  21.058  14.315
15027W        W87320  29.605   4.705   9.973
15028W        W87321  23.679  10.365  12.494
15029W        W87322  39.502  12.648  13.329
15030W        W87323  32.962   7.378  12.574
15031W        W87324  43.899  38.428   4.172
15032W        W87325   4.415  25.703   3.799
15033W        W87326  19.161  42.901  14.463
15034W        W87327  15.788  43.812  10.484
15035W        W87328  30.624   0.863   2.747
15036W        W87329  32.139  42.290   2.809
15037W        W87330  21.019  26.005   0.860
15038W        W87331  20.140   7.334   0.252
15039W        W87332  32.569  30.101  12.446
15040W        W87333  12.356  24.200  12.841
15041W        W87334  15.280   9.160  14.962
15042W        W87335   2.955  32.428   4.621
15043W        W87336  28.576  10.752  12.534
15044W        W87337  40.896  41.327  12.359
15045W        W87338  11.853  40.965  14.806
15046W        W87339   6.812  21.553  12.839
15047W        W87340  31.588  38.356  12.531
15048W        W87341  44.931   8.675  13.477
15049W        W87342  37.425  22.612  12.378
15050W        W87343  35.514  12.237   3.739
15051W        W87344  26.070  11.358  13.939
15052W        W87345  41.299  29.641   2.204
15053W        W87346  44.448  24.539   3.169
15054W        W87347  40.369  39.964   2.876
15055W        W87348   2.966   2.725  12.968
15056W        W87349  36.368  44.382   4.245
15057W        W87350   5.240  41.382   0.453
15058W        W87351   3.883  35.060  11.499
15059W        W87352  21.241  33.470   2.383
15060W        W87353  18.157  20.718  13.940
15061W        W87354  29.523  34.488  13.445
15062W        W87355  39.504  21.045  13.490
15063W        W87356  18.229  26.147  10.594
15064W        W87357  17.276  28.003  12.030
15065W        W87358   2.757  20.611  13.808
15066W        W87359   9.855   2.364  10.594
15067W        W87360  31.089  25.681   3.729
15068W        W87361  29.600   3.278   3.756
15069W        W87362  21.712  33.977  10.441
15070W        W87363  43.378  10.787  11.517
15071W        W87364  24.090  25.684   4.258
15072W        W87365  30.944   7.741   3.313
15073W        W87366  35.410  28.936  13.502
15074W        W87367  10.871  32.975   1.826
15075W        W87368   4.706  18.735  14.466
15076W        W87369  35.973  28.671   0.293
15077W        W87370  17.153   9.771   0.483
15078W        W87371   0.255  24.500  13.367
15079W        W87372  24.587  24.659  14.410
15080W        W87373  13.714  42.830   3.191
15081W        W87374  16.146  36.492   4.754
15082W        W87375   5.702  13.796   1.839
15083W        W87376   3.388  20.764  14.313
15084W        W87377  24.018  40.303  12.523
15085W        W87378  35.404   9.672   2.696
15086W        W87379   2.784  20.564  13.453
15087W        W87380   0.310  11.322   3.769
15088W        W87381  26.496   2.855  11.383
15089W        W87382   7.226  33.062  14.356
15090W        W87383  24.990  43.007   3.682
15091W        W87384   3.930  23.512  14.912
15092W        W87385  18.182  20.260   3.788
15093W        W87386  39.360  23.579   3.227
15094W        W87387  21.676  23.706  10.455
15095W        W87388   8.699   0.783  10.992
15096W        W87389  18.137  43.351  13.048
15097W        W87390  36.407  11.669   2.226
15098W        W87391  23.618  39.543  13.062
15099W        W87392   3.392  16.723  12.440
15100W        W87393  29.089  29.055   1.866
15101W        W87394   6.785   5.227   1.901
15102W        W87395   3.924  11.681  10.480
15103W        W87396  30.541  15.745  14.479
15104W        W87397   4.771  13.188   3.741
15105W        W87398  13.263  29.131   4.298
15106W        W87399   8.716  41.528  11.928
15107W        W87400  42.020   9.700  10.901
15108W        W87401  14.816  11.251   2.881
15109W        W87402  38.043  14.636   1.810
15110W        W87403  16.624   5.203   4.120
15111W        W87404  36.962   6.373   4.334
15112W        W87405   4.842  28.029  10.452
15113W        W87406  10.306  41.474   0.952
15114W        W87407  37.013  14.776  10.977
15115W        W87408   5.835   0.899   3.352
15116W        W87409  16.738  33.433   2.700
15117W        W87410  12.316  39.902  13.844
15118W        W87411   8.369  15.685   1.771
15119W        W87412   2.463   9.289  14.492
15120W        W87413   7.910  35.557   1.925
15121W        W87414  43.984  27.042  14.820
15122W        W87415  16.080  22.607   3.197
15123W        W87416   2.462   9.365   3.640
15124W        W87417  18.714  44.336  12.430
15125W        W87418  41.465  19.193   9.967
15126W        W87419  23.547   6.310  10.022
15127W        W87420   3.793  33.443  14.976
15128W        W87421  41.292   9.388   3.270
15129W        W87422  37.085  24.097  12.528
15130W        W87423   4.709  20.267  14.845
15131W        W87424  18.152  22.135  12.053
15132W        W87425   6.738  43.867  12.947
15133W        W87426  16.266   9.191  11.423
15134W        W87427   1.736  23.197  14.896
15135W        W87428   6.413  35.559  11.066
15136W        W87429  23.028  22.695  13.860
15137W        W87430  25.641  41.396  12.434
15138W        W87431  14.120  30.134   0.350
15139W        W87432  20.611  18.239  13.507
15140W        W87433  10.639  29.088  11.922
15141W        W87434  20.753  18.208  11.417
15142W        W87435  33.613  10.175   4.354
15143W        W87436  12.332  42.829   0.377
15144W        W87437  13.279  44.781  10.999
15145W        W87438  35.461  43.930   3.281
15146W        W87439   2.427   2.952   0.433
15147W        W87440  23.517   5.409   3.185
15148W        W87441   8.291  39.064   1.875
15149W        W87442   6.246  10.844   0.473
15150W        W87443   4.389  44.305   4.737
15151W        W87444  12.623   8.665   0.744
15152W        W87445  27.479   6.188   3.751
15153W        W87446  33.570   7.302  11.528
15154W        W87447  26.074  28.529   0.308
15155W        W87448   1.845  21.259  13.052
15156W        W87449  27.166   8.367  11.598
15157W        W87450   7.196   9.713  13.901
15158W        W87451   0.478  33.538   2.896
15159W        W87452  44.907  30.536  14.435
15160W        W87453  23.201  16.713   2.692
15161W        W87454  44.319  38.840  10.620
15162W        W87455  35.034  35.364  11.098
15163W        W87456  15.756  24.057  14.926
15164W        W87457  30.047   6.717  12.880
15165W        W87458  37.049  43.310   1.241
15166W        W87459  32.105   7.792   3.380
15167W        W87460  15.808  43.886  10.142
15168W        W87461  23.045   4.234  11.896
15169W        W87462   6.366   7.843  12.504
15170W        W87463  20.108  42.798  14.500
15171W        W87464   3.874  16.292   4.333
15172W        W87465  30.160  13.345  12.883
15173W        W87466  19.629   3.320  13.352
15174W        W87467  14.815  26.541   4.644
15175W        W87468  15.216  29.975   0.932
15176W        W87469  39.824  24.690  12.348
15177W        W87470  25.146  25.575   1.445
15178W        W87471  41.427   4.261   0.851
15179W        W87472   8.813  18.125  12.487
15180W        W87473   7.698  17.293  13.964
15181W        W87474  44.775   4.322  11.494
15182W        W87475  25.523  13.833   1.420
15183W        W87476  39.500  19.711  13.448
15184W        W87477  16.783   4.257  14.993
15185W        W87478  25.989  38.383   4.644
15186W        W87479  12.804  16.123  12.936
15187W        W87480  37.412  16.176   2.899
15188W        W87481  21.530   5.244  14.952
15189W        W87482  41.376  10.736  10.413
15190W        W87483  32.043  40.502  10.998
15191W        W87484   8.401  16.166   0.841
15192W        W87485   1.892  34.466   1.901
15193W        W87486  36.504  22.214   0.319
15194W        W87487  41.807  40.837   1.890
15195W        W87488  27.540  14.295   0.857
15196W        W87489  30.611  13.210  14.480
15197W        W87490  17.747  13.232  12.032
15198W        W87491  19.591  24.681   2.197
15199W        W87492   9.705  26.572   4.157
15200W        W87493  38.351   1.267   0.365
15201W        W87494  15.668   0.362   3.368
15202W        W87495  12.141  21.240   5.165
15203W        W87496  24.682  32.601   4.610
15204W        W87497  32.936  22.674  13.857
15205W        W87498  37.579  27.133   2.859
15206W        W87499  42.006  25.981   2.371
15207W        W87500  27.076  35.013  14.379
15208W        W87501  18.701   2.841  12.538
15209W        W87502  40.495   5.207  13.917
15210W        W87503  35.057  39.527  10.469
15211W        W87504   9.164  29.649   2.780
15212W        W87505   4.935  23.660   1.844
15213W        W87506  14.320  25.139  14.781
15214W        W87507  24.706  44.299   4.759
15215W        W87508  25.052  22.713   4.300
15216W        W87509  31.901  44.831  11.081
15217W        W87510  30.101  25.650  14.318
15218W        W87511  38.413  17.745  12.435
15219W        W87512  19.758  11.806  11.116
15220W        W87513   5.850  14.793  11.031
15221W        W87514  24.992  25.993   0.256
15222W        W87515  12.194  18.699  10.957
15223W        W87516  18.147  22.739   4.235
15224W        W87517   9.355   2.453   4.714
15225W        W87518  16.685  12.673   3.774
15226W        W87519  28.463  44.807  12.003
15227W        W87520  30.942  30.916  12.427
15228W        W87521   8.817  34.983  13.002
15229W        W87522  40.013  18.773  11.447
15230W        W87523  12.192  30.126   0.459
15231W        W87524  34.381  36.358   3.862
15232W        W87525  30.915  42.868  12.575
15233W        W87526  22.549   4.351   4.166
15234W        W87527  18.591  21.113  10.634
15235W        W87528  24.184  29.442   2.793
15236W        W87529  38.916  17.292  12.049
15237W        W87530  19.778  13.762  12.501
15238W        W87531   7.859  36.567   0.858
15239W        W87532  12.172  17.765   0.369
15240W        W87533  18.235   4.747  12.018
15241W        W87534  22.109   1.460  11.000
15242W        W87535  20.115  14.754  10.970
15243W        W87536  18.608  30.128   1.934
15244W        W87537  28.147  20.249   1.297
15245W        W87538  23.112   0.428   2.677
15246W        W87539  44.849  38.379   1.802
15247W        W87540  24.630  44.326  11.557
15248W        W87541  33.001  30.541   0.381
15249W        W87542   9.162  33.925  14.958
15250W        W87543  22.741  23.646   2.753
15251W        W87544  42.443  28.511   2.364
15252W        W87545  35.581  26.471   4.158
15253W        W87546  20.131  44.316  11.464
15254W        W87547  41.517  19.773  13.928
15255W        W87548  37.866  36.482   3.383
15256W        W87549  14.273  31.981   2.698
15257W        W87550   0.912  16.237   3.248
15258W        W87551  33.086   8.269   5.731
15259W        W87552  12.234  11.347   1.749
15260W        W87553  36.041   7.365   4.295
15261W        W87554   5.234   4.737   4.160
15262W        W87555  32.057  16.090   0.364
15263W        W87556  41.400   0.942   4.299
15264W        W87557  30.598  37.468  12.443
15265W        W87558  13.114   0.868   1.324
15266W        W87559  38.341  23.128   0.338
15267W        W87560  30.102  34.403   4.157
15268W        W87561  38.870  34.894  14.885
15269W        W87562  27.165  28.489  10.512
15270W        W87563  21.676  25.101   4.341
15271W        W87564  25.190  23.643  13.493
15272W        W87565   8.787  27.952  11.379
15273W        W87566  25.495  40.531  10.644
15274W        W87567  34.095  32.561  12.083
15275W        W87568  42.452  25.971  13.014
15276W        W87569  37.049   2.866  14.923
15277W        W87570  40.455   2.413   4.204
15278W        W87571   1.940   0.277   3.852
15279W        W87572   5.293  18.068   3.330
15280W        W87573   7.289   4.835   1.271
15281W        W87574  17.210   8.894  13.541
15282W        W87575   4.825  20.600  12.522
15283W        W87576   1.933  21.543   2.731
15284W        W87577  39.003  11.222   4.135
15285W        W87578  36.429  24.165   2.785
15286W        W87579  28.940  23.164  14.513
15287W        W87580  10.262  38.000  11.103
15288W        W87581  15.714  34.531  14.834
15289W        W87582  32.407  32.085   4.288
15290W        W87583  25.204   3.375  10.108
15291W        W87584  27.098  21.128   4.624
15292W        W87585  28.677  16.625  12.056
15293W        W87586  16.673  13.741  10.950
15294W        W87587  29.984  44.876   1.280
15295W        W87588  15.147  42.377   0.462
15296W        W87589   0.892   7.324  10.481
15297W        W87590  16.157  43.020  12.065
15298W        W87591  20.274   7.321   2.338
15299W        W87592  10.807   3.269  10.619
15300W        W87593  26.065   2.889  11.542
15301W        W87594  24.226  33.887   4.783
15302W        W87595   3.753  32.418   0.316
15303W        W87596  40.037  33.458  14.010
15304W        W87597  11.757   3.296  11.439
15305W        W87598  13.700  10.271  13.035
15306W        W87599  10.178  42.309   4.757
15307W        W87600  42.453  41.037  13.903
15308W        W87601  36.852  37.428   0.746
15309W        W87602  34.111  17.083  11.002
15310W        W87603   4.709  14.338  12.951
15311W        W87604  34.863  22.107   3.851
15312W        W87605  35.027   9.333  10.567
15313W        W87606  24.559  24.525   4.299
15314W        W87607  24.041  36.862  14.887
15315W        W87608  21.128  37.969   4.124
15316W        W87609  13.161   3.378   1.911
15317W        W87610  11.177  30.085  12.056
15318W        W87611   1.296  34.610   2.346
15319W        W87612  30.030  20.528  10.966
15320W        W87613  19.091  42.411  14.484
15321W        W87614  17.185  11.216   0.922
15322W        W87615  33.966  11.802  13.382
15323W        W87616  10.300   0.434   2.396
15324W        W87617  33.388  26.585   2.245
15325W        W87618  14.621  42.939   4.651
15326W        W87619  26.207  33.454   4.821
15327W        W87620  32.518  16.762  12.923
15328W        W87621  32.091  21.020   2.287
15329W        W87622  35.933  42.931   2.708
15330W        W87623  36.560  24.046  13.926
15331W        W87624  44.873   5.708   4.658
15332W        W87625  31.490  15.701   2.381
15333W        W87626  27.958  23.603   4.709
15334W        W87627  35.536  31.405   1.445
15335W        W87628  26.173  14.703   0.360
15336W        W87629  17.131  43.780  12.958
15337W        W87630  18.195   4.395   3.310
15338W        W87631  10.281  41.911   5.100
15339W        W87632   0.388  38.399   3.658
15340W        W87633  24.490  38.342  14.307
15341W        W87634  14.777  31.534  11.875
15342W        W87635  16.634  25.024  13.323
15343W        W87636  17.798  23.107   5.090
15344W        W87637  22.228  43.929  11.102
15345W        W87638  19.629  24.545   4.825
15346W        W87639  14.727  40.837   2.387
15347W        W87640  28.468   3.437  10.545
15348W        W87641  23.233   2.285   2.731
15349W        W87642  15.285  32.894   1.815
15350W        W87643  37.908   5.262   4.206
15351W        W87644  29.629  21.536   1.710
15352W        W87645  10.692  25.689   2.204
15353W        W87646   4.902  43.417   3.734
15354W        W87647  23.118  31.093   0.339
15355W        W87648   4.804   1.902  11.003
15356W        W87649  41.535   0.845  11.997
15357W        W87650  41.799  16.744  11.871
15358W        W87651  13.142  14.736  13.479
15359W        W87652  39.994  12.190  14.489
15360W        W87653  44.936   6.347   3.735
15361W        W87654  43.343  15.213  11.114
15362W        W87655  36.971   0.371   4.678
15363W        W87656  15.112  16.632  10.924
15364W        W87657  29.461  12.817  12.990
15365W        W87658  23.110  33.536   2.811
15366W        W87659  23.001  10.858  11.020
15367W        W87660  32.411  25.970  13.008
15368W        W87661  31.497  19.114   3.696
15369W        W87662  21.216  33.508  10.957
15370W        W87663  29.958  44.837  14.977
15371W        W87664  23.529   8.899  12.862
15372W        W87665  19.632  12.737   0.435
15373W        W87666  34.941  22.688  11.576
15374W        W87667  12.660   7.320   4.604
15375W        W87668  38.553  40.902   2.180
15376W        W87669  32.137  12.119  11.918
15377W        W87670  24.626  41.798  12.460
15378W        W87671   5.396  15.182   3.728
15379W        W87672  29.922  10.635   5.722
15380W        W87673  35.936  16.285   3.205
15381W        W87674   1.829  24.050   0.760
15382W        W87675  33.586  13.698   1.932
15383W        W87676   9.778  34.428   0.256
15384W        W87677  30.935  35.084   1.860
15385W        W87678   2.291   8.373  11.897
15386W        W87679  15.626  38.038   0.449
15387W        W87680  32.489  11.280  10.525
15388W        W87681   0.276  21.170   3.291
15389W        W87682  27.970  10.323  11.418
15390W        W87683  35.517  22.706   2.688
15391W        W87684   4.338   4.938   2.836
15392W        W87685   1.299  19.677   3.165
15393W        W87686  38.874  34.112   2.300
15394W        W87687  33.980  15.818  14.297
15395W        W87688  11.183  37.508   2.212
15396W        W87689  28.034  43.010   0.354
15397W        W87690   9.882  24.479  12.083
15398W        W87691  27.647   5.779   4.222
15399W        W87692  14.169   9.151  10.892
15400W        W87693  11.728  22.678   0.765
15401W        W87694  16.587  28.055  11.595
15402W        W87695   4.419  20.258  12.935
15403W        W87696  17.752  23.499  10.962
15404W        W87697  14.329  14.724   2.415
15405W        W87698   0.344  34.044  14.443
15406W        W87699  27.012  15.230   1.799
15407W        W87700  28.027  26.510   2.215
15408W        W87701   3.366  32.931  12.569
15409W        W87702  32.011  16.635  11.494
15410W        W87703  42.804  44.818  11.071
15411W        W87704  20.635  16.292  13.446
15412W        W87705  35.407  36.091   4.191
15413W        W87706  12.648  35.414   2.309
15414W        W87707  32.088  43.466  11.400
15415W        W87708  10.299   0.489   3.774
15416W        W87709  37.424   0.877   4.165
15417W        W87710  13.684  42.522  10.999
15418W        W87711  30.968   2.869   4.712
15419W        W87712  27.559  32.104  13.509
15420W        W87713   8.318  17.161  10.521
15421W        W87714  14.815  23.027   0.356
15422W        W87715  32.426  36.367   2.864
15423W        W87716   4.943   2.231   1.402
15424W        W87717  13.693  15.766  14.907
15425W        W87718   1.944  38.453   1.787
15426W        W87719  17.792  37.862   4.123
15427W        W87720  29.124   3.779   4.188
15428W        W87721   9.248  23.045   1.448
15429W        W87722   0.402  22.236   1.318
15430W        W87723  28.154  11.221   9.967
15431W        W87724  31.084  37.426   2.823
15432W        W87725  42.808  27.692   4.597
15433W        W87726  22.620  27.157   2.770
15434W        W87727  18.615   9.848  10.895
15435W        W87728  29.983  18.206  10.440
15436W        W87729  31.600  17.773  12.995
15437W        W87730  12.131  15.673   2.878
15438W        W87731  20.050  36.548  10.994
15439W        W87732  10.818   4.390   0.467
15440W        W87733  28.505   6.342  12.957
15441W        W87734  36.475  31.589   3.722
15442W        W87735   8.177   4.403  10.982
15443W        W87736   7.808  43.878   4.134
15444W        W87737  26.987  16.686  12.024
15445W        W87738  20.727   2.398   4.774
15446W        W87739  14.184   8.234  14.289
15447W        W87740  11.858  35.420  10.083
15448W        W87741   7.295  10.679  11.988
15449W        W87742  33.516   8.191   2.301
15450W        W87743  26.670  26.131  13.015
15451W        W87744  30.934  23.098   0.455
15452W        W87745  13.736   0.437  14.312
15453W        W87746   6.717  33.975   2.281
15454W        W87747  12.798  22.597   0.909
15455W        W87748   3.260  16.253   2.409
15456W        W87749  35.870  37.410   1.712
15457W        W87750  23.579   7.225   2.314
15458W        W87751  29.481   3.781  13.320
15459W        W87752  15.316   2.901  14.454
15460W        W87753  17.100   0.434   3.812
15461W        W87754  14.196  33.896  12.826
15462W        W87755   8.814   5.909  12.914
15463W        W87756  44.396  30.913  11.868
15464W        W87757  21.678  16.198   0.260
15465W        W87758  44.907  31.120   2.775
15466W        W87759  44.288  43.871   3.783
15467W        W87760  15.785  28.050  10.458
15468W        W87761  32.911  22.541  12.862
15469W        W87762  18.137  16.178   2.379
15470W        W87763   2.754  21.034   1.435
15471W        W87764   3.287  15.584   1.256
15472W        W87765  38.419  32.507   1.909
15473W        W87766  35.482  35.912   2.268
15474W        W87767  33.943  39.928  11.864
15475W        W87768  20.600  34.435   1.343
15476W        W87769  16.251  24.069  12.405
15477W        W87770  43.496  29.664  10.571
15478W        W87771  18.784   7.243   0.915
15479W        W87772   1.970   9.181  11.405
15480W        W87773  12.142  25.197  14.405
15481W        W87774  26.028   5.920  11.568
15482W        W87775  11.191  20.112  10.472
15483W        W87776  35.026   0.321  10.445
15484W        W87777   1.441  22.506  12.879
15485W        W87778   7.906  25.109   2.709
15486W        W87779   7.315   6.228  14.309
15487W        W87780  14.780   8.704  10.596
15488W        W87781   7.729  11.843  11.047
15489W        W87782  44.932   3.398  14.487
15490W        W87783   1.403  42.392   0.774
15491W        W87784  20.719  37.366   3.753
15492W        W87785  31.082  27.511  10.468
15493W        W87786  31.602  12.263   0.821
15494W        W87787   7.819  18.608  11.987
15495W        W87788  29.580   5.869   1.926
15496W        W87789  40.393  17.760   2.250
15497W        W87790   0.385   6.892  13.036
15498W        W87791  43.875   4.243  12.896
15499W        W87792   2.272  24.544  14.776
15500W        W87793  14.612   9.216  14.304
15501W        W87794  36.389  12.155  12.543
15502W        W87795  25.672  13.127   3.755
15503W        W87796  15.145  34.042   2.691
15504W        W87797   7.877   8.793   0.809
15505W        W87798  14.330  37.561  12.428
15506W        W87799   1.754  24.641   3.774
15507W        W87800   3.844  14.605   3.756
15508W        W87801  36.437  13.207  12.021
15509W        W87802  43.022   6.683  14.484
15510W        W87803  40.865  21.137   0.870
15511W        W87804  31.503  10.346   5.229
15512W        W87805   2.726  42.491   2.347
15513W        W87806  36.500   0.449   3.868
15514W        W87807  26.144  24.119  14.905
15515W        W87808  33.072  15.664   2.368
15516W        W87809  27.024  22.072  13.824
15517W        W87810  29.956  32.033   4.311
15518W        W87811  38.827   7.185   0.829
15519W        W87812   0.957  21.620  14.936
15520W        W87813  20.743  39.833  10.638
15521W        W87814   6.788   2.328  13.981
15522W        W87815  22.112  36.357  12.019
15523W        W87816  22.189  30.619   1.705
15524W        W87817  22.156  10.726   3.386
15525W        W87818  10.174  30.993   1.322
15526W        W87819  41.364  32.574   0.350
15527W        W87820  30.578  17.766   2.216
15528W        W87821  44.262  18.093   0.483
15529W        W87822  25.047  32.937   3.245
15530W        W87823  23.149  12.611  14.500
15531W        W87824  43.007  30.099   1.721
15532W        W87825  10.783  12.690   2.728
15533W        W87826  30.466  26.477  14.475
15534W        W87827  42.349  20.562  11.589
15535W        W87828  26.689  11.329  13.051
15536W        W87829  40.484  14.664  13.312
15537W        W87830  33.406  26.058  10.912
15538W        W87831  25.041   6.205  11.083
15539W        W87832  28.023   1.949  12.516
15540W        W87833  22.549  42.883   2.375
15541W        W87834  37.910  14.216   4.816
15542W        W87835  43.898  27.170  13.331
15543W        W87836  19.074  24.215  10.157
15544W        W87837  31.569  10.297  14.999
15545W        W87838  40.898   4.758   3.741
15546W        W87839  16.787  29.057   4.798
15547W        W87840  38.988  28.072  14.983
15548W        W87841  23.598  23.559   1.850
15549W        W87842  27.554  17.620  10.627
15550W        W87843  16.207  17.094  14.400
15551W        W87844  10.342   4.763   5.178
15552W        W87845  30.085  12.679   4.154
15553W        W87846  34.422  43.806   1.433
15554W        W87847   2.356   7.255   1.312
15555W        W87848  11.291   2.285  11.029
15556W        W87849   8.298  10.835  13.976
15557W        W87850  36.935   7.849   0.753
15558W        W87851   8.176  22.036   3.310
15559W        W87852  23.089  25.055  11.001
15560W        W87853  31.007  30.967  12.964
15561W        W87854   0.383  16.250   3.297
15562W        W87855  38.871   0.755   4.695
15563W        W87856  27.580  43.432   4.773
15564W        W87857  37.372  11.269   9.938
15565W        W87858  24.144  34.005  13.396
15566W        W87859  39.339  40.466  11.468
15567W        W87860   9.322  38.074  13.330
15568W        W87861   8.340  29.429   2.850
15569W        W87862  36.454  30.516  10.407
15570W        W87863  25.022  21.666  13.946
15571W        W87864  10.352  38.924   5.215
15572W        W87865  44.394  28.609   1.374
15573W        W87866  43.840   8.763  11.525
15574W        W87867  10.793  43.428  10.505
15575W        W87868  37.065  26.035   2.816
15576W        W87869   9.867  26.635   3.653
15577W        W87870  11.371  44.382  11.476
15578W        W87871  20.152  37.022  14.944
15579W        W87872  22.545  33.028  11.431
15580W        W87873  19.254  22.606  12.959
15581W        W87874  13.309  42.443  11.000
15582W        W87875   5.415  41.414  11.417
15583W        W87876   7.196   5.212  10.552
15584W        W87877  42.858  40.822   4.774
15585W        W87878  20.723  33.948  12.462
15586W        W87879   2.365   7.731  13.874
15587W        W87880  32.995  15.189  14.369
15588W        W87881   0.954  38.959  10.134
15589W        W87882  18.152  33.622   1.317
15590W        W87883  13.135  33.948  11.085
15591W        W87884   0.289  25.175   0.243
15592W        W87885  18.764  17.561   2.407
15593W        W87886  41.444  15.116  14.391
15594W        W87887  21.589  38.460   3.306
15595W        W87888  14.675  22.065  10.630
15596W        W87889   3.384  37.531   4.162
15597W        W87890  10.712  35.978  10.451
15598W        W87891  12.646   7.708   2.266
15599W        W87892  16.573   4.404   2.349
15600W        W87893   8.318  16.237  10.969
15601W        W87894  34.598  33.479  11.477
15602W        W87895  38.025  30.474  12.930
15603W        W87896   7.189  24.995  14.340
15604W        W87897  40.858  24.033   3.178
15605W        W87898  11.193  16.189   1.294
15606W        W87899   4.738  44.412  13.898
15607W        W87900  35.069  12.813  11.890
15608W        W87901  31.468  35.078  14.362
15609W        W87902  33.490  40.404  14.324
15610W        W87903  42.895  27.523  12.566
15611W        W87904  26.171  27.185   1.930
15612W        W87905  24.134  19.239   1.232
15613W        W87906  44.977   9.776  14.319
15614W        W87907  41.490  18.722  11.031
15615W        W87908  19.279  18.691  12.577
15616W        W87909  18.550  13.704   1.279
15617W        W87910  31.515  16.228   3.744
15618W        W87911   0.255  17.200  10.936
15619W        W87912  40.417   1.355   3.322
15620W        W87913   1.378  11.768   2.708
15621W        W87914   1.465  17.796   2.339
15622W        W87915  31.150  22.211  13.365
15623W        W87916  24.540   4.822  12.939
15624W        W87917  43.917   8.396  11.068
15625W        W87918   9.310  36.848  12.435
15626W        W87919  18.181  41.314   3.154
15627W        W87920  10.835  23.154   4.141
15628W        W87921  19.698  26.995  13.059
15629W        W87922  11.722  22.090  10.511
15630W        W87923  29.114   8.876  14.875
15631W        W87924  12.652   2.282   3.698
15632W        W87925  34.079  21.523  12.461
15633W        W87926  32.507  30.500   0.886
15634W        W87927  20.033  19.667   3.308
15635W        W87928  32.067  32.601  12.420
15636W        W87929  37.850   5.213   2.276
15637W        W87930   6.322   1.871  10.991
15638W        W87931  36.918  22.569  14.929
15639W        W87932  44.461  20.155   1.934
15640W        W87933  30.161  26.955  14.807
15641W        W87934  42.891  32.431   1.923
15642W        W87935   7.401  29.965  12.358
15643W        W87936  32.397  36.883  10.594
15644W        W87937  14.614  26.458  14.366
15645W        W87938  27.641  44.472  12.340
15646W        W87939  34.406  16.785   1.723
15647W        W87940  11.191  44.814   3.864
15648W        W87941  23.185  19.204  13.891
15649W        W87942  21.128  16.086   0.926
15650W        W87943  26.456  39.541   1.283
15651W        W87944  25.077  26.680  10.616
15652W        W87945  26.537  35.580  13.322
15653W        W87946  21.560  26.606  14.284
15654W        W87947  36.428  31.587   4.214
15655W        W87948  32.105  12.704  13.395
15656W        W87949  20.258  30.441  13.441
15657W        W87950  26.135   1.735   1.411
15658W        W87951   2.750   1.950   4.204
15659W        W87952   6.754  31.482  13.908
15660W        W87953  22.107   5.395   0.391
15661W        W87954  36.578   9.339   4.271
15662W        W87955   1.292  26.465   2.335
15663W        W87956  31.147  28.024  13.025
15664W        W87957   3.292   3.921  12.566
15665W        W87958  20.640  28.469  10.496
15666W        W87959  14.177  32.609  12.372
15667W        W87960  24.520   3.320  12.506
15668W        W87961  24.498  40.315  10.514
15669W        W87962   9.190  35.015   2.331
15670W        W87963  35.486  33.561  13.886
15671W        W87964  14.722  25.663  11.129
15672W        W87965  31.411  40.871  14.333
15673W        W87966  41.837  32.004   5.125
15674W        W87967   6.864  22.157   0.957
15675W        W87968  17.604  14.773   4.166
15676W        W87969  32.981  29.969  14.386
15677W        W87970  20.725  24.181  14.022
15678W        W87971  32.049  14.768   3.819
15679W        W87972  24.717   5.930  11.905
15680W        W87973  41.900  15.327  11.380
15681W        W87974  37.892   2.842  10.413
15682W        W87975  42.788   9.200  13.471
15683W        W87976  38.462  43.450   1.211
15684W        W87977   2.347  21.710   0.864
15685W        W87978  29.495   2.293   3.163
15686W        W87979   2.941  13.808  14.907
15687W        W87980  18.664   4.299  14.500
15688W        W87981  32.414  17.079  10.065
15689W        W87982  44.942  14.317   1.754
15690W        W87983  32.401   3.296  10.571
15691W        W87984  36.007  24.536  13.454
15692W        W87985  40.525  30.415  10.014
15693W        W87986  30.951  20.729  14.446
15694W        W87987  15.315  16.072  11.932
15695W        W87988  13.204  31.553   1.235
15696W        W87989  16.586   7.871  14.348
15697W        W87990  25.583  18.154  12.088
15698W        W87991   6.888  29.954   3.678
15699W        W87992   0.390   9.724  13.474
15700W        W87993  44.443  34.081   4.327
15701W        W87994  43.994  29.460  14.498
15702W        W87995   5.700   1.839  12.529
15703W        W87996  36.413  30.133  11.999
15704W        W87997  13.302   2.928   3.769
15705W        W87998  44.906  38.873  13.902
15706W        W87999  27.962  19.099  11.046
15707W        W88000  40.856   6.909   2.901
15708W        W88001   6.685   1.473   2.244
15709W        W88002   7.781  40.012   3.299
15710W        W88003  27.505  14.194   1.703
15711W        W88004  26.085   4.268  10.159
15712W        W88005  32.537  35.019  10.627
15713W        W88006  13.174  14.668  14.022
15714W        W88007  40.336  15.725  13.495
15715W        W88008  16.803  16.151   1.859
15716W        W88009  37.038  19.110  14.968
15717W        W88010  21.692  32.941   9.974
15718W        W88011  37.455  42.521   2.759
15719W        W88012   0.807  10.703  12.014
15720W        W88013  41.485   2.364  14.290
15721W        W88014  13.658  15.745   3.317
15722W        W88015  16.657  28.028  13.998
15723W        W88016  26.167  28.008  13.322
15724W        W88017  31.619  35.108   0.768
15725W        W88018  13.709  10.665   1.227
15726W        W88019  41.451   7.265  11.589
15727W        W88020   8.387  14.286  10.599
15728W        W88021   5.211   0.486  12.525
15729W        W88022  43.352  22.222  14.939
15730W        W88023  11.159  37.531   3.319
15731W        W88024   9.649  41.446  10.437
15732W        W88025  19.682   2.945   4.797
15733W        W88026  39.423  42.999   3.276
15734W        W88027  42.423   3.769   4.601
15735W        W88028  23.686  43.305  14.775
15736W        W88029  44.896  13.182  13.503
15737W        W88030  37.390  25.689  11.433
15738W        W88031  12.309  41.846  12.050
15739W        W88032  36.066   6.866   0.910
15740W        W88033  43.330   0.984   5.192
15741W        W88034  23.088   8.373   1.400
15742W        W88035   1.756  20.079  10.525
15743W        W88036   8.184  36.530   5.596
15744W        W88037   0.818  44.007  12.439
15745W        W88038  24.058  26.542   0.476
15746W        W88039  31.911  22.596   3.835
15747W        W88040  25.012  39.927   2.326
15748W        W88041  17.688  20.604   2.392
15749W        W88042   9.704  18.695  10.511
15750W        W88043  11.344  34.951   0.426
15751W        W88044  43.922  20.544  11.956
15752W        W88045   0.412  33.470  14.856
15753W        W88046   4.898  19.677   3.834
15754W        W88047  16.622  35.486   2.737
15755W        W88048  42.979  28.564  14.311
15756W        W88049   8.288   6.904  12.362
15757W        W88050  27.992  39.929   1.408
15758W        W88051   3.237  28.513  10.491
15759W        W88052  19.572   3.270  14.347
15760W        W88053   2.313  11.227  14.934
15761W        W88054  43.942  10.696   1.321
15762W        W88055  30.427  21.587   4.127
15763W        W88056  41.913  10.344   1.289
15764W        W88057  28.045   7.250   3.753
15765W        W88058  11.710  14.589   3.221
15766W        W88059  24.005  15.194   1.289
15767W        W88060  19.138  14.648   1.768
15768W        W88061   2.368  43.773  13.031
15769W        W88062  37.485  33.005  11.855
15770W        W88063  28.531  10.709  13.847
15771W        W88064  24.674   6.253  11.052
15772W        W88065  16.157  27.496  12.429
15773W        W88066  30.506  13.808   0.265
15774W        W88067  22.579   4.420   0.394
15775W        W88068  41.828  41.443  14.783
15776W        W88069   3.260  15.138  13.873
15777W        W88070  17.069  30.103  11.931
15778W        W88071  42.844  43.443   3.700
15779W        W88072   2.729  11.670  14.387
15780W        W88073  42.474  28.609  13.999
15781W        W88074   6.386  10.253  13.953
15782W        W88075   4.255  14.636  14.957
15783W        W88076   0.974  11.685   4.754
15784W        W88077   9.827  12.656  14.321
15785W        W88078  32.975  29.026   4.614
15786W        W88079  40.531  13.210   2.864
15787W        W88080  12.666   2.371   0.846
15788W        W88081  28.955  29.484   2.833
15789W        W88082  30.083  26.092  12.043
15790W        W88083  31.642  14.629   3.656
15791W        W88084  31.584  41.409   1.703
15792W        W88085  17.261  30.927   0.873
15793W        W88086  23.680  38.908  11.376
15794W        W88087  18.188  37.420   4.200
15795W        W88088  40.460  18.051   1.334
15796W        W88089   2.405  21.527   0.376
15797W        W88090  32.457  42.482   1.429
15798W        W88091  12.745   5.213   2.835
15799W        W88092  28.521  14.809   3.278
15800W        W88093  25.107   3.846  13.935
15801W        W88094   2.888  25.160  13.506
15802W        W88095   8.258  16.775  14.029
15803W        W88096  13.763  21.024   2.345
15804W        W88097  27.986   5.908   3.862
15805W        W88098  11.151  40.044   1.740
15806W        W88099  16.644  11.298   0.482
15807W        W88100  31.484  11.746   9.921
15808W        W88101  27.135   3.280   3.643
15809W        W88102  32.520  42.375   4.760
15810W        W88103  43.334  36.872  11.964
15811W        W88104  22.070   7.759   2.276
15812W        W88105  33.899  36.370  13.363
15813W        W88106  18.065  40.415  13.413
15814W        W88107  29.102  22.240  14.486
15815W        W88108   8.697  31.448  10.411
15816W        W88109  16.693  25.109   3.174
15817W        W88110  33.082  44.306  12.577
15818W        W88111   9.656  18.658   3.240
15819W        W88112   2.822  22.731  13.855
15820W        W88113  19.216   0.836  12.341
15821W        W88114  27.165  23.687  10.487
15822W        W88115  22.630  28.951  11.015
15823W        W88116  20.092   3.936   3.287
15824W        W88117   5.761  41.409   4.706
15825W        W88118   2.933   9.158   0.279
15826W        W88119  41.509  25.613  14.970
15827W        W88120  39.366  14.647  11.392
15828W        W88121  32.916  18.554  10.548
15829W        W88122  43.286  17.658  11.864
15830W        W88123  19.097  29.169   0.349
15831W        W88124   3.353  30.914   0.757
15832W        W88125  13.152  21.032   9.932
15833W        W88126  42.830   2.781   1.787
15834W        W88127  12.145   1.421  11.046
15835W        W88128  38.431  32.088  11.083
15836W        W88129  15.764  26.954   0.872
15837W        W88130  33.610  20.633  13.951
15838W        W88131  26.165  43.944   3.270
15839W        W88132  30.999  28.636  12.573
15840W        W88133  31.422   3.939   2.821
15841W        W88134   4.364  38.491  10.925
15842W        W88135   7.277  16.762  13.435
15843W        W88136   4.708   5.232   2.800
15844W        W88137  38.453   3.720   1.794
15845W        W88138  35.899  23.710   4.645
15846W        W88139  44.932  31.110   3.305
15847W        W88140  40.926  17.559   5.181
15848W        W88141  40.403  42.823  14.303
15849W        W88142   9.229  11.824  13.346
15850W        W88143  40.320  34.964  11.913
15851W        W88144   3.910  29.027   2.676
15852W        W88145  35.387  12.705  14.880
15853W        W88146  29.106   0.248  12.954
15854W        W88147  30.538   1.462   0.935
15855W        W88148  13.797  32.064  10.962
15856W        W88149  36.010  27.004  13.511
15857W        W88150  41.413  37.885  14.893
15858W        W88151   8.331  12.207   0.845
15859W        W88152  25.160  30.453  14.313
15860W        W88153  29.523  27.174  14.287
15861W        W88154  31.092  27.690  12.049
15862W        W88155  25.060  24.092  11.871
15863W        W88156   7.287   4.288  14.871
15864W        W88157  38.449  10.645  13.508
15865W        W88158   0.828  36.014   2.777
15866W        W88159  33.389  10.353   2.670
15867W        W88160  19.676   9.271  13.831
15868W        W88161  10.309  10.290   3.231
15869W        W88162  40.387  42.998   2.323
15870W        W88163  39.325   5.880   4.756
15871W        W88164  41.910  15.820  13.024
15872W        W88165  29.164  12.827  11.504
15873W        W88166  41.939  30.949   0.921
15874W        W88167   3.362  36.026  10.904
15875W        W88168  31.576  42.407  11.596
15876W        W88169  38.854  21.643   4.345
15877W        W88170  26.147  34.581  14.883
15878W        W88171  36.951  36.045  12.016
15879W        W88172  15.774  25.202   3.691
15880W        W88173  32.140  11.813   3.315
15881W        W88174  37.363  14.233   1.766
15882W        W88175   6.344   5.804  12.570
15883W        W88176  30.969  30.644   0.408
15884W        W88177  15.233   9.774  12.828
15885W        W88178  37.398  41.955  10.962
15886W        W88179  18.613   6.354   3.182
15887W        W88180  18.645  43.289   0.743
15888W        W88181  15.691  16.677  13.397
15889W        W88182  22.070   8.189  12.892
15890W        W88183  41.397  25.987   4.748
15891W        W88184  33.414  18.599   2.346
15892W        W88185  23.114  23.566  12.085
15893W        W88186  35.071   3.726   3.812
15894W        W88187  24.703  20.268   3.753
15895W        W88188  23.192  40.504   3.238
15896W        W88189  17.232   7.218  12.507
15897W        W88190   2.357  21.081  11.611
15898W        W88191  34.912  23.116   1.224
15899W        W88192  13.700  44.975  11.419
15900W        W88193  16.610  13.666   3.303
15901W        W88194  35.896  27.547  14.829
15902W        W88195  11.267  30.655  11.582
15903W        W88196  41.043  39.315  11.411
15904W        W88197  32.476  38.386   2.232
15905W        W88198  26.082   2.436   3.384
15906W        W88199   7.294  37.450   4.706
15907W        W88200  27.112   8.207  10.929
15908W        W88201  15.111   3.817  11.117
15909W        W88202   4.251  26.627  11.021
15910W        W88203  12.207   6.905  10.418
15911W        W88204  34.393  29.505  14.284
15912W        W88205  41.356  32.596   4.835
15913W        W88206  17.215  40.955  11.487
15914W        W88207  27.644  12.627  11.612
15915W        W88208  10.172   2.796   1.385
15916W        W88209  16.647   5.317   2.744
15917W        W88210  20.553   5.916   3.178
15918W        W88211  21.605  34.381  12.402
15919W        W88212  21.136   6.191  14.280
15920W        W88213   0.941  34.388   0.945
15921W        W88214  15.784  12.778   2.344
15922W        W88215  34.987  21.667   1.430
15923W        W88216  11.656  31.110  14.961
15924W        W88217  44.261  29.957   0.373
15925W        W88218  14.182  33.110   0.268
15926W        W88219  33.060   9.802   1.827
15927W        W88220  14.114  15.643  10.626
15928W        W88221   8.226  19.180   0.872
15929W        W88222  24.061  13.250   0.888
15930W        W88223  42.461  27.994   2.248
15931W        W88224   2.932  12.640   1.723
15932W        W88225  29.581  25.099  10.967
15933W        W88226  10.847  22.149  12.524
15934W        W88227  26.575  35.489   0.264
15935W        W88228  25.546  22.006   1.270
15936W        W88229  26.464  26.671  13.374
15937W        W88230  44.787  26.530  11.576
15938W        W88231   3.214   8.223  13.439
15939W        W88232   4.821  17.294  10.514
15940W        W88233  41.966   3.277  10.465
15941W        W88234   7.853  22.519   2.808
15942W        W88235  19.146  26.196  12.450
15943W        W88236  35.089   2.293  11.036
15944W        W88237  21.070  19.636  11.897
15945W        W88238  41.357   4.857  14.845
15946W        W88239  41.465  32.921  11.985
15947W        W88240  12.681  11.273   1.220
15948W        W88241  14.327  41.797  10.919
15949W        W88242  27.538  34.903   1.699
15950W        W88243  24.597  12.156   2.892
15951W        W88244  42.021   3.767  10.530
15952W        W88245  34.877   4.801   5.290
15953W        W88246  11.647  18.633  12.400
15954W        W88247  22.615  25.206  10.034
15955W        W88248  28.014  18.248  10.498
15956W        W88249  40.989  28.478  11.011
15957W        W88250  21.695   8.336  13.402
15958W        W88251   9.293  36.029  10.595
15959W        W88252  39.842  37.573   1.878
15960W        W88253  25.166  30.078  11.416
15961W        W88254   0.901  31.118  10.472
15962W        W88255   4.851  10.368  12.395
15963W        W88256  21.634  34.452  12.844
15964W        W88257  20.738  21.684   1.324
15965W        W88258  26.121  10.756  13.367
15966W        W88259  26.008   8.791   3.277
15967W        W88260  15.170  26.975  13.504
15968W        W88261  29.576  42.339  13.397
15969W        W88262   8.277   5.223  13.023
15970W        W88263   9.764  41.042   0.815
15971W        W88264  27.166  11.652  11.374
15972W        W88265  33.579  18.191   3.685
15973W        W88266   2.300  19.081   0.275
15974W        W88267  16.580  19.129  12.559
15975W        W88268  32.008  17.702  14.399
15976W        W88269  29.988  27.080   1.731
15977W        W88270  27.028  34.909  12.890
15978W        W88271   6.258  15.328   1.353
15979W        W88272   5.928   2.919   3.303
15980W        W88273   5.864   2.382   3.683
15981W        W88274  38.924   0.478   2.260
15982W        W88275  21.528  21.233   0.895
15983W        W88276  14.803  44.918  14.879
15984W        W88277  39.808  10.855   2.332
15985W        W88278   5.894  23.575   0.795
15986W        W88279  29.596  26.088   4.666
15987W        W88280  17.149   7.777  11.586
15988W        W88281  20.154  17.142   4.141
15989W        W88282  41.410  22.671  11.570
15990W        W88283  29.990  22.629   1.314
15991W        W88284  35.507  37.834  14.764
15992W        W88285  35.486   7.413   1.736
15993W        W88286  31.432  28.515   4.246
15994W        W88287  21.636   7.908  14.418
15995W        W88288  21.198  44.987  11.037
15996W        W88289  13.763   6.834   3.326
15997W        W88290  13.254  27.459   4.219
15998W        W88291  15.287  28.932  11.023
15999W        W88292  26.109  33.973  14.857
16000W        W88293  29.585   6.725   0.853
16001W        W88294  22.012   7.198  14.763
16002W        W88295  16.679   7.252  11.063
16003W        W88296   9.388  30.602  12.903
16004W        W88297   0.292  35.413   4.204
16005W        W88298  32.477  30.551   4.354
16006W        W88299  33.601  10.872   4.638
16007W        W88300   8.750   3.297   4.620
16008W        W88301   2.842  38.554  14.939
16009W        W88302   9.303  38.853  12.865
16010W        W88303  42.798  41.031  11.402
16011W        W88304  40.051  40.974   2.888
16012W        W88305  26.458  19.089  14.857
16013W        W88306  16.573  37.865   2.372
16014W        W88307   7.732  25.655  11.409
16015W        W88308  15.604  14.256   3.247
16016W        W88309  16.315  20.694   3.148
16017W        W88310   1.794  25.514   4.240
16018W        W88311  11.335  17.723  10.632
16019W        W88312  28.136   3.328   3.214
16020W        W88313   8.340  13.666  13.394
16021W        W88314  13.817  15.621   1.695
16022W        W88315   5.253  37.830  11.578
16023W        W88316   1.949  21.127  14.420
16024W        W88317   3.231  23.509   1.770
16025W        W88318  17.768   7.417  12.077
16026W        W88319   2.359  17.628   0.776
16027W        W88320   0.887  31.504   1.782
16028W        W88321   7.670   1.348  12.452
16029W        W88322   7.251  38.896   1.261
16030W        W88323  29.485   3.821  14.453
16031W        W88324  18.646  35.472  14.982
16032W        W88325  12.181   6.387  12.373
16033W        W88326  14.335  36.556   3.312
16034W        W88327  11.221  20.200   2.790
16035W        W88328  26.691   6.738   3.714
16036W        W88329  43.807  43.455  11.063
16037W        W88330  13.237   5.374   0.379
16038W        W88331  11.827  20.561  10.547
16039W        W88332   9.729  41.944   3.659
16040W        W88333   7.270  27.096  11.605
16041W        W88334  30.073  25.995   0.855
16042W        W88335  19.651  14.705   0.779
16043W        W88336  34.974  31.521   2.251
16044W        W88337  34.524   1.298  14.965
16045W        W88338   0.750  16.714  12.443
16046W        W88339  37.086  44.944   1.763
16047W        W88340   0.258  39.052  12.559
16048W        W88341  34.446  27.580  13.411
16049W        W88342  17.568  44.851   3.675
16050W        W88343  41.925  27.487  11.121
16051W        W88344  36.049  31.909  14.391
16052W        W88345  18.680   4.367  13.945
16053W        W88346  23.984  12.716   9.952
16054W        W88347  20.035  17.199  14.987
16055W        W88348   1.737  14.191  11.998
16056W        W88349  37.956   8.661  13.035
16057W        W88350  36.888  40.347  11.912
16058W        W88351   9.689   6.329  13.930
16059W        W88352  24.094  25.576  11.054
16060W        W88353  40.378  25.009   4.148
16061W        W88354  16.588  40.375  13.837
16062W        W88355  38.470  20.151   0.405
16063W        W88356   6.273  37.950   2.350
16064W        W88357  44.910   9.258   3.803
16065W        W88358  42.427  21.517  12.413
16066W        W88359   4.725  12.356  14.814
16067W        W88360  30.477  41.010   4.789
16068W        W88361   2.377  40.523   3.351
16069W        W88362  19.672  11.253   2.373
16070W        W88363  34.112  13.333  13.464
16071W        W88364  42.477  26.687  12.901
16072W        W88365  25.701   7.738  11.595
16073W        W88366  10.725  25.039   3.665
16074W        W88367  42.507   7.826  12.407
16075W        W88368  20.601  35.932   0.929
16076W        W88369   2.320   9.319   0.306
16077W        W88370   3.770   4.822  11.859
16078W        W88371   8.871   4.800   4.597
16079W        W88372  23.505   8.686   3.730
16080W        W88373  35.086  41.405  10.161
16081W        W88374  19.104  23.539  12.073
16082W        W88375  28.088  31.009  11.115
16083W        W88376  30.073  42.424  11.454
16084W        W88377  14.256   5.904   2.374
16085W        W88378  20.147  10.194  11.417
16086W        W88379  40.494  16.169   4.292
16087W        W88380   9.241   2.309   4.257
16088W        W88381  37.396   3.225   2.380
16089W        W88382  23.554  39.423   3.770
16090W        W88383  35.376  41.514  11.875
16091W        W88384   8.726  10.803   4.157
16092W        W88385   2.255  16.311  11.612
16093W        W88386  13.671  39.542  11.593
16094W        W88387  14.760  15.094  14.335
16095W        W88388  41.017  40.320   0.406
16096W        W88389  33.485  12.821  14.921
16097W        W88390  25.083  35.422   0.424
16098W        W88391  24.715  40.030  14.415
16099W        W88392   8.193  34.585   2.308
16100W        W88393  37.383  44.325   2.257
16101W        W88394  34.571   2.469   2.259
16102W        W88395  23.105  32.895   1.271
16103W        W88396  44.434  40.844   3.264
16104W        W88397  15.304  15.592   2.218
16105W        W88398  36.572  19.638   5.178
16106W        W88399  15.210  13.256  11.949
16107W        W88400  12.629  29.932   4.248
16108W        W88401  41.316  14.828  14.291
16109W        W88402  29.935   7.676   0.835
16110W        W88403  20.165  30.030  10.619
16111W        W88404  40.958  38.007  13.835
16112W        W88405  34.428   8.182  13.027
16113W        W88406  18.168   7.718  14.771
16114W        W88407  14.251   4.301   4.214
16115W        W88408  29.138  28.643  12.088
16116W        W88409  22.062  29.929   0.935
16117W        W88410  10.332  20.553   0.738
16118W        W88411  37.851  21.068  12.014
16119W        W88412  39.455  31.485   1.890
16120W        W88413  41.439  36.069  13.013
16121W        W88414  25.676  29.545  13.989
16122W        W88415  17.650  34.042   0.266
16123W        W88416  30.914  21.201   0.353
16124W        W88417  35.477  28.493  11.440
16125W        W88418  21.123  29.017   9.923
16126W        W88419  32.530  11.707   2.401
16127W        W88420   3.362  11.714   0.963
16128W        W88421  35.001  39.543  11.397
16129W        W88422  17.239  27.551  11.984
16130W        W88423   8.242  11.153  11.952
16131W        W88424  27.992   0.454   2.395
16132W        W88425  38.027  40.428   1.772
16133W        W88426   2.841  39.509  10.989
16134W        W88427   4.907   1.883  12.400
16135W        W88428  35.886  17.099  14.965
16136W        W88429  40.531  44.915   5.603
16137W        W88430  27.511  26.618   4.162
16138W        W88431   2.877  10.696  13.833
16139W        W88432  35.903  12.645   2.317
16140W        W88433  27.626  21.227   3.740
16141W        W88434  30.046   5.894  11.473
16142W        W88435  39.061  27.049  14.924
16143W        W88436  31.545   6.384  14.992
16144W        W88437  33.562  32.524  12.914
16145W        W88438  18.682   6.752  14.341
16146W        W88439  35.927  41.026   4.726
16147W        W88440   9.347  10.173  14.031
16148W        W88441   1.360  40.049   1.404
16149W        W88442  21.150  17.691   4.316
16150W        W88443  22.210  20.201   2.283
16151W        W88444  23.574  21.640   0.863
16152W        W88445  44.867  26.649   0.365
16153W        W88446  12.823  17.686  14.827
16154W        W88447   6.821  21.255   1.854
16155W        W88448   3.352  36.890   1.308
16156W        W88449  10.847   3.220  11.443
16157W        W88450  21.128  25.654  11.546
16158W        W88451  25.469  35.028   0.767
16159W        W88452   9.374  30.990  12.515
16160W        W88453  26.673   4.801  14.800
16161W        W88454   8.867  28.077   1.292
16162W        W88455  34.080  29.167  11.510
16163W        W88456   8.882  13.615  12.987
16164W        W88457   9.658  42.803  14.885
16165W        W88458  30.024  33.988  14.981
16166W        W88459  19.736  24.596  13.502
16167W        W88460  31.455  34.494   4.660
16168W        W88461  20.665  31.921  14.828
16169W        W88462   0.968  25.015   2.884
16170W        W88463   8.657  21.177   5.228
16171W        W88464  36.563  13.240   4.274
16172W        W88465  43.885  39.403  14.402
16173W        W88466  24.600   3.711  12.506
16174W        W88467   1.317  30.977   0.933
16175W        W88468  26.095  27.044   3.719
16176W        W88469  11.251  30.076  12.348
16177W        W88470   0.374  15.650  11.902
16178W        W88471  12.768  42.525   3.769
16179W        W88472  17.578  43.468   3.172
16180W        W88473  10.815  34.473   4.641
16181W        W88474  22.115   0.854  12.406
16182W        W88475  31.932  13.711   3.729
16183W        W88476  29.497  41.822   0.381
16184W        W88477  22.111   6.246   4.349
16185W        W88478   8.397  11.640   1.865
16186W        W88479  10.759  23.497  11.570
16187W        W88480  28.136  26.582  13.048
16188W        W88481  25.613   1.901   0.344
16189W        W88482   4.402  19.588   2.734
16190W        W88483  38.839  44.895   4.354
16191W        W88484  28.508  29.165   4.640
16192W        W88485   9.734   7.677  10.618
16193W        W88486  44.404  21.703   3.165
16194W        W88487  34.414   1.911  10.947
16195W        W88488   6.918  33.424   2.261
16196W        W88489  22.036  15.740  10.079
16197W        W88490  35.450  37.847   2.873
16198W        W88491  34.965  17.210  11.864
16199W        W88492  15.279   8.306  14.760
16200W        W88493  38.515  26.170   2.842
16201W        W88494  19.103  23.203  11.409
16202W        W88495  36.903  23.084  14.919
16203W        W88496   9.674  26.080   1.232
16204W        W88497  32.981  17.282   4.635
16205W        W88498   6.713  28.151  12.958
16206W        W88499  40.853  21.115  13.805
16207W        W88500  24.543   9.248   2.902
16208W        W88501   2.762  12.206   2.308
16209W        W88502  22.719  40.933  11.500
16210W        W88503  14.709  42.907   3.793
16211W        W88504  34.606   4.295  12.004
16212W        W88505  16.152  15.798  12.500
16213W        W88506  27.191  36.059  14.776
16214W        W88507  44.362   8.744   0.457
16215W        W88508  14.315  31.470  14.480
16216W        W88509  31.541  23.717   4.338
16217W        W88510  13.122  30.452  14.302
16218W        W88511  44.978   2.866  11.533
16219W        W88512  32.470  16.150   2.318
16220W        W88513   1.739  36.994  14.885
16221W        W88514  19.724  39.941   3.706
16222W        W88515  44.444  44.282   5.312
16223W        W88516  42.492  30.643   3.751
16224W        W88517  33.585   6.287   4.625
16225W        W88518  42.519   4.935  10.506
16226W        W88519  34.417  43.328  13.440
16227W        W88520  22.679  39.976   0.865
16228W        W88521  11.831  38.400   1.308
16229W        W88522  21.536  37.481   2.784
16230W        W88523  23.046  34.010   3.387
16231W        W88524   0.421  34.603   0.291
16232W        W88525  37.942  34.985  12.899
16233W        W88526  40.371  41.441   0.756
16234W        W88527  31.470  39.882   3.156
16235W        W88528   2.814  20.159  11.535
16236W        W88529  37.830  32.559  13.324
16237W        W88530   4.877  39.002   4.657
16238W        W88531  24.677  14.094   0.931
16239W        W88532  31.080  38.446   2.184
16240W        W88533  41.025   3.449  11.382
16241W        W88534  11.146  35.880   0.315
16242W        W88535  20.136  17.083   0.730
16243W        W88536  36.956   2.721  11.943
16244W        W88537  37.420   2.302  13.956
16245W        W88538  16.128  40.811   1.758
16246W        W88539   5.693  38.847  13.855
16247W        W88540  16.125  28.071  10.428
16248W        W88541   3.437   1.862   2.815
16249W        W88542  26.526   1.745  14.853
16250W        W88543   6.782  11.232   2.819
16251W        W88544  26.486  27.942   4.319
16252W        W88545  13.628  16.265   1.445
16253W        W88546  19.535  25.641   1.253
16254W        W88547  39.504  27.515  10.552
16255W        W88548  39.948  20.648  14.445
16256W        W88549   5.242  12.799   0.454
16257W        W88550  27.990  11.664   0.375
16258W        W88551  13.794  44.373   2.387
16259W        W88552  10.144  23.086   1.399
16260W        W88553  21.231  36.878  13.431
16261W        W88554  39.373   2.384  11.559
16262W        W88555  37.381  42.937   5.311
16263W        W88556  30.464  37.886   1.264
16264W        W88557  27.034  37.338  10.119
16265W        W88558  41.910   6.183  13.000
16266W        W88559   9.694  17.294   4.719
16267W        W88560   6.182   1.392  14.514
16268W        W88561  10.203  26.986  13.797
16269W        W88562  35.482  15.637   2.200
16270W        W88563  10.691  39.018   3.858
16271W        W88564  20.058  37.847   1.888
16272W        W88565  32.614   6.333   0.830
16273W        W88566   2.882  36.420  13.971
16274W        W88567  17.211  28.120   3.864
16275W        W88568  15.776   7.182  13.039
16276W        W88569  13.185  32.064  11.857
16277W        W88570  18.566  10.378  10.981
16278W        W88571  43.451   7.362   3.273
16279W        W88572  15.593  25.179  10.417
16280W        W88573   5.689  19.095  14.506
16281W        W88574   5.246   5.396  12.910
16282W        W88575  44.942   0.793   4.326
16283W        W88576  41.859  38.484   4.743
16284W        W88577   4.352  44.933  12.464
16285W        W88578  10.785  31.029   0.481
16286W        W88579  33.590  41.404   5.204
16287W        W88580   1.823  44.427   2.343
16288W        W88581  35.999  13.226   2.262
16289W        W88582  43.377  41.881   4.705
16290W        W88583  41.025  14.309   1.866
16291W        W88584  18.216  37.031  13.425
16292W        W88585  41.838  40.949   3.794
16293W        W88586  28.985  32.547  12.008
16294W        W88587  29.017   9.758  13.827
16295W        W88588  38.821  34.563   4.266
16296W        W88589   1.894  28.082  14.843
16297W        W88590  34.445  33.044   1.283
16298W        W88591  12.320  27.521   3.785
16299W        W88592  21.691  25.710   3.249
16300W        W88593  32.945  19.069  14.890
16301W        W88594  22.684   8.880  11.441
16302W        W88595  27.681  30.913  13.422
16303W        W88596  24.635  15.592   2.207
16304W        W88597  29.084  36.434   0.752
16305W        W88598  36.586  44.259  11.126
16306W        W88599  43.769   7.324  10.961
16307W        W88600  17.593  14.316   2.247
16308W        W88601  39.925   8.276  11.380
16309W        W88602  28.656  25.674  13.350
16310W        W88603  38.571  16.308  11.864
16311W        W88604   0.956   1.960  11.901
16312W        W88605  27.600   5.847   3.210
16313W        W88606  36.438  21.060  12.568
16314W        W88607   6.389  21.540   4.815
16315W        W88608  20.134  14.221   4.783
16316W        W88609  30.138  33.948  11.877
16317W        W88610  12.160  12.732  13.548
16318W        W88611   8.719  16.592   2.881
16319W        W88612  40.447  26.634  14.999
16320W        W88613  35.419  37.432   4.691
16321W        W88614   4.218  19.719   4.721
16322W        W88615  28.630  44.443   0.364
16323W        W88616  20.543   6.351  14.325
16324W        W88617  11.849  28.024   1.731
16325W        W88618  24.547  28.513   2.201
16326W        W88619  15.623  36.397   2.760
16327W        W88620  18.248  38.512   2.385
16328W        W88621   2.741  17.281   0.482
16329W        W88622  38.924  33.901  12.846
16330W        W88623   0.761  41.525   0.888
16331W        W88624  30.150   2.283  11.086
16332W        W88625  13.228  13.136  13.021
16333W        W88626  43.369  24.575  14.761
16334W        W88627  13.712   1.917   1.312
16335W        W88628  11.670  43.869   4.287
16336W        W88629  27.997  30.139  14.901
16337W        W88630  41.499  43.446   0.446
16338W        W88631  39.006  19.713   0.356
16339W        W88632   9.695   9.347   0.896
16340W        W88633  30.142   8.183  12.388
16341W        W88634   6.235   0.910   1.823
16342W        W88635   3.334  28.463  12.962
16343W        W88636   4.379  38.070   4.627
16344W        W88637  12.809  34.036   4.654
16345W        W88638   4.715  22.663   3.278
16346W        W88639   5.265  23.704   2.895
16347W        W88640   1.276  41.313  13.444
16348W        W88641  44.763  26.647   3.869
16349W        W88642  26.079   7.665   2.672
16350W        W88643  17.137   1.266  12.993
16351W        W88644  34.380  29.614  12.071
16352W        W88645  36.451  34.546   0.750
16353W        W88646  40.527  32.998  10.530
16354W        W88647  21.135  11.279   3.326
16355W        W88648  35.526  25.677  12.444
16356W        W88649  34.105  23.616   3.852
16357W        W88650  20.196  28.179   4.145
16358W        W88651  31.061  33.093   1.924
16359W        W88652   8.757   7.381  14.991
16360W        W88653  18.100  24.673   9.977
16361W        W88654  16.582   6.214   0.453
16362W        W88655  21.200  11.646  11.071
16363W        W88656  39.389  16.706   4.138
16364W        W88657  30.130   6.224  12.864
16365W        W88658  13.671   4.421   4.318
16366W        W88659  34.034  19.104  12.965
16367W        W88660   6.270  33.923  12.072
16368W        W88661  39.378  42.881   4.718
16369W        W88662  30.585  32.398  13.923
16370W        W88663   3.792  36.977   1.351
16371W        W88664  19.074   5.688  13.423
16372W        W88665  11.719  42.947  14.885
16373W        W88666  43.951  37.399  14.932
16374W        W88667  36.962  31.526   4.805
16375W        W88668  17.224  26.701  10.476
16376W        W88669  20.246  36.877  12.891
16377W        W88670  43.816   3.867  11.605
16378W        W88671  29.131   7.685  12.995
16379W        W88672  41.953  16.703   2.231
16380W        W88673  17.205   9.248   3.737
16381W        W88674  11.747  31.120   2.293
16382W        W88675  32.975  19.241   2.375
16383W        W88676  27.624  40.957  12.084
16384W        W88677  35.456  21.020   2.316
16385W        W88678  43.506  20.063  12.876
16386W        W88679   9.211  29.460   0.953
16387W        W88680  31.523   8.751  10.988
16388W        W88681  38.889  15.159   2.792
16389W        W88682   9.321  12.845   5.104
16390W        W88683   9.770  42.850  12.370
16391W        W88684  44.388  33.013  13.402
16392W        W88685  24.213  42.359  11.595
16393W        W88686  31.938  20.203   0.382
16394W        W88687  34.906  29.664  11.978
16395W        W88688   1.483   6.677   0.311
16396W        W88689  31.557  12.739   3.816
16397W        W88690  31.509   5.800   0.892
16398W        W88691  30.011  15.261   0.356
16399W        W88692   3.228  42.363   2.798
16400W        W88693  36.856  12.637   4.283
16401W        W88694  18.595  39.431   4.812
16402W        W88695  34.436  30.448   1.896
16403W        W88696  42.004  25.622   4.350
16404W        W88697  38.493  31.013   2.844
16405W        W88698  29.426  21.087   1.352
16406W        W88699   7.840   4.271   1.226
16407W        W88700  37.857  26.083   2.737
16408W        W88701   6.872   9.837   4.823
16409W        W88702  12.144   3.304  10.508
16410W        W88703  36.040  27.125   3.796
16411W        W88704  38.876   8.370  13.362
16412W        W88705  29.080  28.644  13.847
16413W        W88706  17.182  17.305   1.230
16414W        W88707  18.232   8.211   3.206
16415W        W88708  11.847  12.335   4.829
16416W        W88709   2.270  31.922   9.970
16417W        W88710  30.573  32.081  14.002
16418W        W88711   4.286  22.131   0.327
16419W        W88712  24.063  19.169   2.699
16420W        W88713  16.155  43.327   2.201
16421W        W88714  16.713  15.697  14.416
16422W        W88715  17.655  32.471  14.924
16423W        W88716  11.300  14.262  13.955
16424W        W88717  22.569  38.561   1.314
16425W        W88718  23.070  41.483   0.320
16426W        W88719   0.955  32.998  10.619
16427W        W88720  33.897   1.338  10.445
16428W        W88721  38.925   9.804  12.551
16429W        W88722  26.025   6.365   2.807
16430W        W88723  22.119  10.633  11.903
16431W        W88724  24.627   9.764  11.550
16432W        W88725   6.901  25.624   4.612
16433W        W88726  25.114   4.238   9.501
16434W        W88727  34.485  32.948  11.900
16435W        W88728  36.530  42.890   2.366
16436W        W88729  29.665  40.917  12.465
16437W        W88730  16.637  23.163  12.992
16438W        W88731  20.604  42.824  11.015
16439W        W88732  29.960  35.923  14.840
16440W        W88733  39.057  23.656   0.264
16441W        W88734  42.808  42.520  13.987
16442W        W88735  24.111  23.055   0.926
16443W        W88736  30.528  23.015   0.407
16444W        W88737  12.284  23.116   4.675
16445W        W88738  43.312  17.799  10.575
16446W        W88739  41.019   4.776   2.687
16447W        W88740   8.765  26.963  12.912
16448W        W88741  17.169  31.999   2.861
16449W        W88742  14.125   6.745  13.045
16450W        W88743  29.976  40.811   2.315
16451W        W88744  39.432  21.247   0.372
16452W        W88745  19.637  11.759  11.488
16453W        W88746  32.957  28.484  11.922
16454W        W88747  31.082   1.821   0.787
16455W        W88748  11.706  24.489   0.876
16456W        W88749  15.691  25.214  12.000
16457W        W88750  30.535  19.170  12.946
16458W        W88751   7.271  39.348  12.929
16459W        W88752  22.563  31.640  10.604
16460W        W88753  31.526  42.386   3.291
16461W        W88754  41.890  23.736  11.879
16462W        W88755   0.398   0.419   0.261
16463W        W88756  38.568  41.449   3.853
16464W        W88757   6.897   7.814   0.263
16465W        W88758  13.238  13.774   1.735
16466W        W88759  44.263  42.848   0.843
16467W        W88760  32.111   3.807   1.912
16468W        W88761  18.158  14.236  14.316
16469W        W88762  35.952   9.287   1.781
16470W        W88763  43.343  20.198   3.700
16471W        W88764   9.778   3.364   0.775
16472W        W88765  42.886  20.560   3.727
16473W        W88766  25.624   1.374  11.375
16474W        W88767  34.016  34.969  13.455
16475W        W88768  35.858  29.491   0.357
16476W        W88769   2.278  40.978  11.879
16477W        W88770  38.407  35.908  11.570
16478W        W88771  28.631  16.238  13.880
16479W        W88772  43.887  19.595  10.586
16480W        W88773  36.888  36.994  12.096
16481W        W88774  31.630  32.940   3.164
16482W        W88775  35.103  30.455   4.201
16483W        W88776  21.625  36.889   3.854
16484W        W88777  41.955  31.646  13.879
16485W        W88778  37.530  15.783   0.821
16486W        W88779  27.965  24.617   0.430
16487W        W88780   3.404   5.783  14.861
16488W        W88781  17.252  43.379   2.807
16489W        W88782  12.686   8.320  11.573
16490W        W88783  20.268  12.621   3.370
16491W        W88784  37.337  16.813   1.775
16492W        W88785   7.777  42.004  11.865
16493W        W88786  43.431  43.476   1.842
16494W        W88787  20.637  18.691  10.486
16495W        W88788  17.087   3.283   0.784
16496W        W88789  24.635  30.069  11.900
16497W        W88790  24.699  29.661   0.457
16498W        W88791  32.497  36.382   2.248
16499W        W88792  13.173  25.632  13.517
16500W        W88793  30.000   0.946  11.438
16501W        W88794  41.987  24.679  14.331
16502W        W88795  29.611  41.020  13.410
16503W        W88796  11.819  20.532  14.956
16504W        W88797   7.907   0.931  12.493
16505W        W88798  28.990  14.151  13.505
16506W        W88799  42.827  42.324   1.730
16507W        W88800   6.828  27.989   4.611
16508W        W88801  43.926  34.969   0.308
16509W        W88802  32.458  23.714  12.377
16510W        W88803   7.362   9.828   0.800
16511W        W88804   2.399   5.899  11.003
16512W        W88805  11.351  14.713   2.751
16513W        W88806   2.426  13.294  10.572
16514W        W88807  34.065  26.042   4.266
16515W        W88808  41.914   6.787   0.393
16516W        W88809  39.375  24.553   1.873
16517W        W88810   2.293  14.334  13.029
16518W        W88811  40.815  26.688   3.851
16519W        W88812  30.642  34.067  12.858
16520W        W88813   0.370  10.273  14.326
16521W        W88814   2.363   7.382  10.062
16522W        W88815  23.580  24.556  12.020
16523W        W88816  18.634  28.540   1.408
16524W        W88817  34.506  35.956   1.357
16525W        W88818  31.131  21.056  11.600
16526W        W88819   5.371  39.869   0.431
16527W        W88820  14.294  16.780   2.252
16528W        W88821  43.998  21.247  11.592
16529W        W88822   8.690   4.858  11.862
16530W        W88823  26.480  15.764   2.269
16531W        W88824  11.798  34.484   4.316
16532W        W88825  22.624  30.919  12.937
16533W        W88826   8.697  26.059   4.602
16534W        W88827  38.055  37.908   1.913
16535W        W88828  26.622   3.347  14.293
16536W        W88829  23.720  33.884  14.290
16537W        W88830   5.904   5.710  12.477
16538W        W88831  31.958  27.686  13.437
16539W        W88832  17.186  36.068   4.832
16540W        W88833   9.826   7.359  12.518
16541W        W88834  41.416  14.724   4.297
16542W        W88835  21.632  26.058  14.375
16543W        W88836  12.663  23.987   0.935
16544W        W88837  30.039  30.077  12.827
16545W        W88838  21.670  32.601   4.286
16546W        W88839  35.551  26.511  13.811
16547W        W88840  25.999  12.688  10.429
16548W        W88841   8.771  16.625   4.757
16549W        W88842  37.364  38.070  10.491
16550W        W88843  27.116  41.491   1.742
16551W        W88844  12.782  14.775   1.895
16552W        W88845  12.130  11.684  12.874
16553W        W88846  33.613  33.518   3.719
16554W        W88847  13.185  23.512   4.764
16555W        W88848   9.211   3.882  14.383
16556W        W88849  39.393  19.743   2.412
16557W        W88850  38.850  43.352   4.737
16558W        W88851  36.029  10.215  10.609
16559W        W88852  13.603  26.953   1.744
16560W        W88853  44.936  31.948   2.794
16561W        W88854  38.943  31.965   1.926
16562W        W88855  32.627  26.182   0.368
16563W        W88856  37.504   5.203  11.019
16564W        W88857   3.819   4.902   4.231
16565W        W88858  12.845  29.947  12.832
16566W        W88859  39.811  36.023  13.875
16567W        W88860  20.618  27.014  14.493
16568W        W88861  37.885   1.378  11.431
16569W        W88862  42.012  28.617  12.991
16570W        W88863  13.120  28.096   4.201
16571W        W88864  39.442  18.232   4.278
16572W        W88865  18.645  44.330   0.412
16573W        W88866   5.287   6.344   1.839
16574W        W88867  16.646  17.728   4.246
16575W        W88868  29.585  11.773   2.294
16576W        W88869  11.271   6.389   0.955
16577W        W88870  19.161   9.750  12.484
16578W        W88871  10.299  15.089  10.111
16579W        W88872  43.378   7.401  10.978
16580W        W88873   7.308  38.921   0.739
16581W        W88874  37.055  38.465  12.462
16582W        W88875  16.157  18.143   2.217
16583W        W88876   4.711  37.013  12.930
16584W        W88877   2.284  18.139  11.899
16585W        W88878   1.322  33.545  13.395
16586W        W88879  26.613  38.381   4.247
16587W        W88880  10.688  29.024   4.266
16588W        W88881  28.099   1.832   3.267
16589W        W88882  36.349  33.491   1.809
16590W        W88883   4.448   8.256  10.520
16591W        W88884  18.563   2.819  14.354
16592W        W88885   2.758  26.099   3.244
16593W        W88886  37.995  19.636   4.151
16594W        W88887  17.727  16.258   2.797
16595W        W88888  17.610  41.824  11.396
16596W        W88889  11.805  22.647   3.667
16597W        W88890  29.516   3.931   1.853
16598W        W88891  18.631  35.006   3.331
16599W        W88892  34.912  15.602   4.221
16600W        W88893  30.138   2.789   4.811
16601W        W88894  36.525  26.542  14.326
16602W        W88895  19.681  40.866   4.714
16603W        W88896  42.340  34.597   5.278
16604W        W88897  12.286  39.853  12.551
16605W        W88898   3.878  25.519   1.329
16606W        W88899  42.968  33.902  12.854
16607W        W88900  21.530   3.943  13.964
16608W        W88901   0.370   1.782   3.709
16609W        W88902  39.401  17.263  11.050
16610W        W88903   3.753  13.332  12.926
16611W        W88904   8.746   7.312  14.287
16612W        W88905  11.701  15.805   2.180
16613W        W88906  38.055  33.926   3.171
16614W        W88907  43.967  38.504  14.470
16615W        W88908  36.946  24.698   3.363
16616W        W88909   4.814  30.426  12.487
16617W        W88910  24.713   8.327  13.455
16618W        W88911  39.018   4.304  13.873
16619W        W88912  30.609  22.036  12.531
16620W        W88913  29.125  10.801  13.991
16621W        W88914  40.918  16.667   1.751
16622W        W88915  44.320  36.563   0.463
16623W        W88916  11.317   1.788   0.315
16624W        W88917  42.324  13.203   0.382
16625W        W88918  20.093   8.191   2.368
16626W        W88919  33.003   0.318   1.316
16627W        W88920  30.140  26.016  13.464
16628W        W88921  34.571  40.474  14.339
16629W        W88922  31.420  39.466  10.534
16630W        W88923  17.584  11.305  11.908
16631W        W88924  18.228  34.410   1.269
16632W        W88925  10.868  20.733   3.328
16633W        W88926  20.192   6.282  11.458
16634W        W88927   3.440  32.955   2.303
16635W        W88928  33.101   5.228  14.301
16636W        W88929  38.862  10.719   4.354
16637W        W88930   5.844  29.942  11.026
16638W        W88931  10.261  17.156   2.670
16639W        W88932  29.589  44.894  14.478
16640W        W88933  23.087  15.652  14.287
16641W        W88934  23.084  27.147   3.760
16642W        W88935  29.929  24.638   2.230
16643W        W88936  25.645   7.774   1.296
16644W        W88937  36.378  35.887   3.743
16645W        W88938   7.756  42.867  11.117
16646W        W88939   1.461  34.480   4.600
16647W        W88940  21.234  15.240   1.257
16648W        W88941  19.063  21.695   4.307
16649W        W88942  34.867   7.413   4.204
16650W        W88943  20.750   3.768  10.907
16651W        W88944  30.633  18.149   2.198
16652W        W88945  27.545  12.809  11.935
16653W        W88946   3.364  42.979  12.847
16654W        W88947  15.610  43.483   1.435
16655W        W88948  20.554   8.222  11.604
16656W        W88949  44.936   8.764  14.822
16657W        W88950   0.426  24.589   1.230
16658W        W88951  38.564  19.776  12.072
16659W        W88952  32.943  25.191  11.960
16660W        W88953  44.927  42.978   4.730
16661W        W88954  38.986  31.428  11.008
16662W        W88955  25.969  12.338  14.828
16663W        W88956  17.677  10.143  12.913
16664W        W88957   3.839  24.578  13.385
16665W        W88958  27.449  21.700   3.380
16666W        W88959  22.243  11.723   4.736
16667W        W88960  18.170  38.830   0.824
16668W        W88961  26.189  20.587   3.754
16669W        W88962   4.421  18.606  13.869
16670W        W88963  34.588  28.583  11.855
16671W        W88964  29.099  44.372   2.313
16672W        W88965  19.039   7.781   2.224
16673W        W88966  25.497   2.818   9.568
16674W        W88967  32.141  42.391   3.219
16675W        W88968  20.149  35.049  11.936
16676W        W88969   8.252   6.363  13.314
16677W        W88970  34.504  29.586   2.741
16678W        W88971  36.877  26.596  12.566
16679W        W88972  34.032  31.136  12.015
16680W        W88973  12.357  15.754  10.116
16681W        W88974  24.995   9.750   0.413
16682W        W88975  22.612   9.317   2.404
16683W        W88976  34.512   8.850   3.149
16684W        W88977  38.891  14.150   1.874
16685W        W88978  10.862  33.606   4.726
16686W        W88979  35.913  28.137  10.944
16687W        W88980  35.932   9.844   3.225
16688W        W88981  10.694  30.943  14.465
16689W        W88982  24.196  26.150   2.818
16690W        W88983  25.119  24.012  13.791
16691W        W88984   9.719  18.766  11.513
16692W        W88985  38.829  28.009   0.256
16693W        W88986  40.325  41.788   4.163
16694W        W88987   8.752   6.281   1.848
16695W        W88988   4.925  43.990  12.446
16696W        W88989  10.696   0.963  13.440
16697W        W88990  14.747  12.736  13.417
16698W        W88991   1.831  33.493   4.126
16699W        W88992   3.276  38.352   4.229
16700W        W88993  41.820  25.071  11.491
16701W        W88994  43.957   7.382   3.356
16702W        W88995  28.985  35.944  12.912
16703W        W88996  38.833   6.394  13.428
16704W        W88997   6.845  16.744  10.894
16705W        W88998  29.997   7.886   2.398
16706W        W88999  43.915  42.481   0.252
16707W        W89000   6.743  29.151  13.456
16708W        W89001  29.623  12.176   0.290
16709W        W89002  11.695   7.781   1.900
16710W        W89003  10.289  25.971  11.516
16711W        W89004  16.638   2.918   2.903
16712W        W89005  32.580  35.061  13.828
16713W        W89006  26.469  19.044   0.423
16714W        W89007  14.592  14.702  13.469
16715W        W89008  30.623  29.063   0.244
16716W        W89009  42.483  23.713  11.517
16717W        W89010  20.031  15.226  14.887
16718W        W89011   4.288  15.798  12.882
16719W        W89012  37.902  27.099  13.480
16720W        W89013  21.190  14.322  13.977
16721W        W89014  33.398   9.649  11.445
16722W        W89015  29.999   0.901  11.054
16723W        W89016   1.422  15.324  12.826
16724W        W89017   3.366  31.124   1.242
16725W        W89018   9.394  21.602   0.853
16726W        W89019  38.038  17.745  13.406
16727W        W89020  36.541  27.678   2.767
16728W        W89021  31.952  15.260   1.423
16729W        W89022  18.732  12.699  11.448
16730W        W89023  13.766  42.866   1.839
16731W        W89024  27.988  30.657  13.007
16732W        W89025  10.197  19.622  12.089
16733W        W89026   4.748  18.714   2.704
16734W        W89027  33.951  11.167   2.256
16735W        W89028  29.953  31.089   3.321
16736W        W89029   1.239  24.501  13.919
16737W        W89030  11.867  31.527   2.300
16738W        W89031  27.982  35.426  13.885
16739W        W89032  22.503   9.261   0.921
16740W        W89033  15.665  27.053  12.410
16741W        W89034  29.994  30.453  10.577
16742W        W89035   4.291   5.246   0.813
16743W        W89036  22.745   8.319   0.415
16744W        W89037  10.208   0.872   2.242
16745W        W89038  19.719  27.131   2.715
16746W        W89039  25.159  19.167   2.690
16747W        W89040  41.978  40.417   1.713
16748W        W89041  22.668  12.707  11.909
16749W        W89042  40.451   1.838  12.482
16750W        W89043  33.414  42.383   0.304
16751W        W89044  19.573  18.545  10.432
16752W        W89045  11.644  44.868  13.408
16753W        W89046  32.098  43.500   4.336
16754W        W89047  19.099  29.618  14.908
16755W        W89048  28.530   0.310   1.861
16756W        W89049  34.994  30.620   0.428
16757W        W89050  30.650  11.755   4.291
16758W        W89051  27.191  14.747   3.648
16759W        W89052  25.562  35.589   0.368
16760W        W89053  19.590  44.789  12.949
16761W        W89054  29.554   3.422   2.252
16762W        W89055  34.026  26.007   1.333
16763W        W89056  26.206  29.961  12.925
16764W        W89057  24.536  12.667   2.741
16765W        W89058  40.911   7.704   1.223
16766W        W89059  32.012  29.539  13.947
16767W        W89060  37.877  25.591  10.494
16768W        W89061   2.850  19.206   3.737
16769W        W89062  31.048  20.221   0.751
16770W        W89063  44.359  26.496  12.062
16771W        W89064  34.390   6.854   0.325
16772W        W89065  21.619  34.595   4.602
16773W        W89066  30.609  29.089  12.999
16774W        W89067  29.582   4.267  12.889
16775W        W89068  29.608  34.028   2.322
16776W        W89069  19.753  23.632   3.839
16777W        W89070  16.675   2.419   3.325
16778W        W89071  27.173  43.516  11.422
16779W        W89072  22.999  26.486  14.001
16780W        W89073  13.115  43.868   1.835
16781W        W89074   7.276  39.842   3.307
16782W        W89075  35.901  14.684  14.420
16783W        W89076   7.876  10.208  11.857
16784W        W89077   6.199   1.410  13.045
16785W        W89078  21.596  35.104  11.976
16786W        W89079   2.952  24.497   1.432
16787W        W89080   6.735   0.923  14.929
16788W        W89081  21.043  11.238   0.479
16789W        W89082  13.822  42.501  14.361
16790W        W89083  40.354  40.037  14.447
16791W        W89084   6.728  37.388   2.374
16792W        W89085  17.087   3.915  11.965
16793W        W89086   4.748   1.917  12.940
16794W        W89087  16.092   1.767   4.660
16795W        W89088  37.042  18.183   3.154
16796W        W89089  12.665  36.541   0.311
16797W        W89090  36.427  11.765  14.394
16798W        W89091  14.721  17.694  11.399
16799W        W89092   4.301  44.502  13.992
16800W        W89093  34.018  25.118  14.812
16801W        W89094  39.028   6.714   1.252
16802W        W89095  40.343  42.360  12.381
16803W        W89096   5.331  38.475  14.898
16804W        W89097   5.371  40.854  14.949
16805W        W89098   0.842  28.141  10.588
16806W        W89099  10.772  29.100   0.333
16807W        W89100  35.020  31.110   4.324
16808W        W89101  31.530  38.005  10.605
16809W        W89102   6.413  29.966   4.657
16810W        W89103  41.372   8.394   4.229
16811W        W89104   4.230  34.559  11.449
16812W        W89105  40.420   3.809   3.254
16813W        W89106   5.388  17.695  14.370
16814W        W89107  20.131  16.238  11.437
16815W        W89108   4.927   7.848  10.601
16816W        W89109  20.631   0.470  12.867
16817W        W89110  40.345  22.725   5.204
16818W        W89111  43.964  13.158   3.214
16819W        W89112  44.856  31.604  11.586
16820W        W89113   7.732  34.034   2.307
16821W        W89114   3.438   1.439   1.919
16822W        W89115  43.994  27.078   1.750
16823W        W89116  38.882   0.786  13.347
16824W        W89117  24.057  16.252  14.814
16825W        W89118   9.720  24.991   3.356
16826W        W89119   1.417  21.687   2.745
16827W        W89120  17.710  29.559  13.976
16828W        W89121   7.318  19.069  13.507
16829W        W89122  20.645   1.743   2.247
16830W        W89123  23.171  16.176  11.052
16831W        W89124  42.314  23.140   0.450
16832W        W89125  22.587  26.105  10.512
16833W        W89126  39.456  30.418   4.268
16834W        W89127  40.524  21.629   2.898
16835W        W89128  27.081   0.758  11.609
16836W        W89129  17.270  26.626   1.924
16837W        W89130   3.755  34.017   1.911
16838W        W89131  18.091  35.520  14.913
16839W        W89132   9.832  24.008   4.314
16840W        W89133  27.971  44.765  10.948
16841W        W89134  24.543  43.277  11.504
16842W        W89135  23.538  17.606   2.261
16843W        W89136  18.670  41.313   1.339
16844W        W89137  43.276  41.376   1.328
16845W        W89138  22.529  24.575  10.641
16846W        W89139  15.272   4.329   1.875
16847W        W89140  33.499  13.254   4.699
16848W        W89141  25.040  39.513  12.419
16849W        W89142  30.512  10.776   1.333
16850W        W89143   8.307  24.709  12.064
16851W        W89144  28.587  41.430   4.802
16852W        W89145  44.454  43.774   4.698
16853W        W89146  33.576  17.576  14.974
16854W        W89147  19.083  41.402   0.475
16855W        W89148  36.005  39.365  12.454
16856W        W89149  20.539  20.198  13.928
16857W        W89150  41.359   9.162  10.644
16858W        W89151   4.372   2.955   1.289
16859W        W89152  30.989  37.463   4.765
16860W        W89153  27.690  14.265   3.387
16861W        W89154   4.245  25.030   0.951
16862W        W89155  13.115  35.027   4.340
16863W        W89156   9.877  20.195  14.843
16864W        W89157   8.388  12.135  14.404
16865W        W89158   1.467  30.487   2.398
16866W        W89159  23.229  43.360   0.302
16867W        W89160  27.024  28.570  14.374
16868W        W89161  36.084  13.219   4.636
16869W        W89162  43.447  41.357  10.599
16870W        W89163  38.467   9.743   0.790
16871W        W89164   2.882  42.805  14.986
16872W        W89165  21.637  25.531   3.770
16873W        W89166  14.241  11.647   3.283
16874W        W89167  32.989  31.103  13.994
16875W        W89168  15.819  41.955   3.674
16876W        W89169  34.469  29.023  11.897
16877W        W89170   6.348  26.569  11.591
16878W        W89171  36.942  36.444  10.985
16879W        W89172   9.194  26.569   4.221
16880W        W89173  28.564  23.103  11.937
16881W        W89174  32.590  33.923  14.989
16882W        W89175  10.736  22.132  13.810
16883W        W89176   6.806  20.741  11.460
16884W        W89177  41.901  12.253   3.154
16885W        W89178  28.665  39.010  13.054
16886W        W89179  23.122  17.720  10.643
16887W        W89180  41.919  44.784   5.122
16888W        W89181   9.758  23.626  11.449
16889W        W89182  37.047  41.978  13.904
16890W        W89183  27.137  34.033  11.583
16891W        W89184   3.324  25.677   5.251
16892W        W89185  43.983  37.075   4.724
16893W        W89186   4.403  12.793   4.144
16894W        W89187  44.412  24.221  10.987
16895W        W89188   3.296  19.158  11.050
16896W        W89189  31.624  44.837   0.898
16897W        W89190   9.359   5.694  13.867
16898W        W89191   3.878   7.843   3.176
16899W        W89192  43.858  34.455  10.976
16900W        W89193  30.650  14.293   2.687
16901W        W89194  16.308   6.343   0.293
16902W        W89195  24.617  22.705   1.409
16903W        W89196  37.867  19.117   4.766
16904W        W89197  28.090  40.383  13.410
16905W        W89198  27.949   2.403  10.993
16906W        W89199  43.821   1.957   2.795
16907W        W89200  42.906  25.184   3.217
16908W        W89201   4.743  38.428   4.676
16909W        W89202  13.288  25.587   2.858
16910W        W89203  41.822  30.544  13.373
16911W        W89204  42.942  36.953  10.504
16912W        W89205  18.762  17.157   0.763
16913W        W89206  36.850  39.864   4.345
16914W        W89207   1.358  28.931   4.311
16915W        W89208  36.386  25.085  14.291
16916W        W89209   6.191   2.911  13.015
16917W        W89210  19.149  31.038  14.971
16918W        W89211  28.148  26.988  12.880
16919W        W89212   7.272  37.838  14.841
16920W        W89213  38.483   7.890   1.356
16921W        W89214  16.566  18.091   0.856
16922W        W89215   5.323  18.708   1.911
16923W        W89216   0.790  31.148  13.368
16924W        W89217   5.738  37.841   0.423
16925W        W89218   0.436  27.447   4.149
16926W        W89219  16.182  19.183   2.896
16927W        W89220  22.737   1.428  11.857
16928W        W89221  23.234  44.854  11.126
16929W        W89222  12.157  12.702  13.982
16930W        W89223  23.128  36.498  10.621
16931W        W89224  23.543  31.016  11.016
16932W        W89225  14.144   1.285  14.823
16933W        W89226  30.952   1.390  12.540
16934W        W89227  26.963   0.331  11.965
16935W        W89228  23.109  39.500  10.920
16936W        W89229  34.531  36.992   3.797
16937W        W89230  26.146   8.745   0.456
16938W        W89231   2.339  19.062   1.791
16939W        W89232   3.249  34.503   4.353
16940W        W89233  18.587  15.789   2.679
16941W        W89234  26.072  30.639   2.701
16942W        W89235  21.188  33.036   2.199
16943W        W89236  41.889  42.497  14.910
16944W        W89237  44.008  12.262  13.461
16945W        W89238  22.723  39.341  14.297
16946W        W89239  26.572   2.335   4.773
16947W        W89240   6.695  34.940   2.669
16948W        W89241  22.538  23.596   4.720
16949W        W89242  41.825   2.447   4.182
16950W        W89243   5.281   6.847  12.504
16951W        W89244  20.233   4.794  14.381
16952W        W89245  28.040  10.193  10.953
16953W        W89246  43.960  37.919   4.806
16954W        W89247  34.928   9.167   0.852
16955W        W89248   2.915  22.104   1.825
16956W        W89249  19.741  40.869   4.228
16957W        W89250  24.492  17.071   4.667
16958W        W89251  39.955  27.979  14.858
16959W        W89252  41.438  22.504   2.328
16960W        W89253  34.589  10.256   0.951
16961W        W89254   0.745  40.349  14.287
16962W        W89255  39.914   9.689  14.490
16963W        W89256   5.382  42.907   4.309
16964W        W89257  36.354  18.718   2.191
16965W        W89258  41.865  25.504  14.470
16966W        W89259  43.955  20.637   1.914
16967W        W89260  20.528  39.531  12.461
16968W        W89261  15.132  13.736  13.847
16969W        W89262  28.968  29.498  11.071
16970W        W89263  36.966  20.197   1.847
16971W        W89264  13.779  11.849   4.654
16972W        W89265  43.309   9.275  14.472
16973W        W89266  38.364  40.508  12.913
16974W        W89267  18.065  36.061  13.842
16975W        W89268  35.961  23.025  14.850
16976W        W89269   6.183  33.042   3.735
16977W        W89270   2.889  10.673   3.851
16978W        W89271  21.194   0.799   4.754
16979W        W89272  17.774  37.830  13.507
16980W        W89273   0.826  37.919  11.564
16981W        W89274  11.697  28.054   3.273
16982W        W89275  37.885  26.163  11.382
16983W        W89276   1.784   8.669  13.321
16984W        W89277  11.688  32.969  11.593
16985W        W89278   6.880   0.402   0.387
16986W        W89279  27.087   7.279  10.019
16987W        W89280  20.683   4.704  13.456
16988W        W89281  10.350  17.759   0.370
16989W        W89282  29.168  37.506  12.846
16990W        W89283  30.506  28.574  10.494
16991W        W89284  30.093   5.766  14.810
16992W        W89285  25.112  24.222   1.839
16993W        W89286   0.815   5.384  11.028
16994W        W89287  28.106  23.081  11.466
16995W        W89288  25.700  33.405   0.893
16996W        W89289  12.845  20.556  11.949
16997W        W89290   7.179  13.737  14.760
16998W        W89291  12.219   2.402  13.036
16999W        W89292  20.548  31.110   4.746
17000W        W89293   6.901   0.430   2.813
17001W        W89294  28.146  36.372   4.679
17002W        W89295  23.121  28.491   1.700
17003W        W89296  42.434  35.002   4.339
17004W        W89297  13.280  39.362   2.369
17005W        W89298  35.520  25.701  13.974
17006W        W89299  42.359  22.059   3.383
17007W        W89300   8.320  29.544   3.787
17008W        W89301   0.436   5.864   0.322
17009W        W89302  18.652   9.305  14.799
17010W        W89303  35.865  28.121  11.968
17011W        W89304  38.962   8.340   1.906
17012W        W89305  22.224  27.012   4.669
17013W        W89306  14.333  15.321  13.793
17014W        W89307   4.761  13.792  14.316
17015W        W89308  25.180   6.338  14.287
17016W        W89309  33.434  20.729  10.616
17017W        W89310   0.821  35.890   2.238
17018W        W89311  11.263  16.760   3.251
17019W        W89312  41.381  43.442   3.657
17020W        W89313   9.181  33.043   0.337
17021W        W89314  11.758  38.964  11.939
17022W        W89315   9.344  14.684   2.682
17023W        W89316   2.368  19.755   0.414
17024W        W89317  31.552   7.338  10.064
17025W        W89318  14.125  27.490   0.915
17026W        W89319  15.764  22.733  11.602
17027W        W89320  28.135  43.300   0.292
17028W        W89321  26.659  19.273  12.909
17029W        W89322  34.873  17.770   0.842
17030W        W89323  43.286  19.222   9.983
17031W        W89324  17.625  18.221  12.470
17032W        W89325  40.342  12.797  10.416
17033W        W89326  29.591  23.521   4.301
17034W        W89327   2.338  26.054  11.394
17035W        W89328  14.675   4.818  13.011
17036W        W89329  44.959  21.129  10.130
17037W        W89330   9.261  32.393   0.469
17038W        W89331  26.041  33.381   3.736
17039W        W89332  20.670  17.138  11.907
17040W        W89333  17.103  42.009  14.979
17041W        W89334   0.430  23.579  13.869
17042W        W89335  19.122  17.661   3.272
17043W        W89336  29.462  36.073  13.315
17044W        W89337  20.589  41.799  10.425
17045W        W89338  33.924  43.784   1.334
17046W        W89339  43.491  17.201   2.321
17047W        W89340  28.671   0.909  12.044
17048W        W89341  23.100  42.962  13.433
17049W        W89342  42.822  20.722  14.866
17050W        W89343  15.751  34.038   4.806
17051W        W89344  35.528  17.168   0.380
17052W        W89345   9.681   2.403   4.182
17053W        W89346  23.224   8.295   4.291
17054W        W89347  38.457  12.617   1.801
17055W        W89348  13.147   3.866   1.911
17056W        W89349  25.059   0.342  12.976
17057W        W89350  12.178   1.303   1.256
17058W        W89351   3.292  43.957  12.923
17059W        W89352  43.818  32.485   4.796
17060W        W89353   2.263  18.203   2.775
17061W        W89354   3.947   9.729   3.734
17062W        W89355  42.395   8.800   1.760
17063W        W89356  30.092  16.739  14.003
17064W        W89357  39.337  36.401  12.393
17065W        W89358  26.603   4.379   5.188
17066W        W89359  13.228  35.415  12.345
17067W        W89360  34.402  28.994   4.344
17068W        W89361  41.365  42.414   1.748
17069W        W89362  28.556  36.096   0.914
17070W        W89363  44.343   1.793   1.764
17071W        W89364  14.754  34.562   1.720
17072W        W89365   6.222  40.954  13.377
17073W        W89366  25.135   6.906   3.821
17074W        W89367  40.043  22.509   0.739
17075W        W89368  32.477  27.086  13.464
17076W        W89369  24.196  15.107   0.475
17077W        W89370  38.404  12.852  14.987
17078W        W89371  17.266  44.820   1.373
17079W        W89372  22.538   8.695  13.362
17080W        W89373  17.078  11.623  10.528
17081W        W89374  23.076  16.631   3.151
17082W        W89375   3.725  17.284  12.086
17083W        W89376   6.794  38.889  10.630
17084W        W89377   1.844  14.727   3.241
17085W        W89378  40.329  25.172   3.189
17086W        W89379  27.500  44.490  11.924
17087W        W89380  36.416  24.704  11.605
17088W        W89381   0.790   1.848   9.961
17089W        W89382  29.006  15.760   4.198
17090W        W89383  37.426   4.748   0.390
17091W        W89384  29.625  23.008  14.466
17092W        W89385  12.192  20.146   4.824
17093W        W89386   5.709   1.843  10.485
17094W        W89387   7.218  17.752   1.917
17095W        W89388  19.644  37.430   3.704
17096W        W89389   5.211  32.953   3.232
17097W        W89390  20.706  30.931   2.746
17098W        W89391  25.677  10.203   0.825
17099W        W89392   9.390   2.947  13.538
17100W        W89393   6.814  44.433  12.933
17101W        W89394  34.961  26.094   1.702
17102W        W89395  12.145  42.413  10.550
17103W        W89396  26.477   9.730   0.466
17104W        W89397  14.706  34.387   4.187
17105W        W89398  42.431   9.369  10.617
17106W        W89399  29.443  41.952   3.869
17107W        W89400  37.941   3.351  13.483
17108W        W89401  30.486   2.945   4.199
17109W        W89402  44.457  18.220  11.899
17110W        W89403  29.507  12.700   2.293
17111W        W89404  10.681  31.524   2.763
17112W        W89405  32.007  29.650   2.756
17113W        W89406  13.156  25.503  12.980
17114W        W89407  17.205  16.754   4.825
17115W        W89408  44.470   5.908   1.265
17116W        W89409   9.684   2.803  11.937
17117W        W89410   3.272   4.908  12.904
17118W        W89411  29.022  20.155   0.767
17119W        W89412  44.825  38.562   0.918
17120W        W89413  43.934  40.459   0.892
17121W        W89414  21.129  28.126  13.368
17122W        W89415  20.643  10.858   4.292
17123W        W89416   5.237  26.569   0.346
17124W        W89417   1.476   0.347  13.050
17125W        W89418  36.052  24.536   0.339
17126W        W89419  38.008   0.924  13.033
17127W        W89420  10.141  16.208  14.960
17128W        W89421   2.909  21.219   0.831
17129W        W89422  40.469   4.439  14.800
17130W        W89423  30.486  24.051   0.457
17131W        W89424  37.989   3.830  13.812
17132W        W89425   0.934  35.910  14.284
17133W        W89426  17.084  14.243  13.883
17134W        W89427  18.242  18.238   1.809
17135W        W89428  17.594  21.035   3.150
17136W        W89429  30.960  16.166   1.776
17137W        W89430  28.067  43.900  11.414
17138W        W89431  25.007  11.654  12.922
17139W        W89432   5.895  12.735  11.486
17140W        W89433  27.046  26.976   3.196
17141W        W89434  21.077  29.610   4.349
17142W        W89435  20.196  28.529  12.567
17143W        W89436  30.128  11.324  11.020
17144W        W89437   7.740  39.838   1.928
17145W        W89438  10.739  13.329   3.165
17146W        W89439   6.807  23.073   1.375
17147W        W89440  22.016  12.822   3.190
17148W        W89441  25.588  29.080  11.475
17149W        W89442  37.870  18.647  14.293
17150W        W89443   6.195  40.870   3.801
17151W        W89444  42.821  11.191   3.864
17152W        W89445  39.397  20.266   1.222
17153W        W89446  42.438  38.551  12.095
17154W        W89447  10.816   9.251  13.464
17155W        W89448  27.500   6.819   1.334
17156W        W89449   6.898  39.932  10.446
17157W        W89450  26.612  41.835  11.473
17158W        W89451  26.613   3.222  11.462
17159W        W89452  24.508   4.358   3.768
17160W        W89453  10.162  13.128  11.577
17161W        W89454  10.280  42.510  13.357
17162W        W89455  40.857  23.695   4.221
17163W        W89456  21.033  35.858  10.961
17164W        W89457  33.962   7.851   1.323
17165W        W89458  21.256  41.852   3.699
17166W        W89459  28.473   7.267  12.364
17167W        W89460   6.847  38.954   4.232
17168W        W89461  22.011  29.057  11.467
17169W        W89462   4.256  21.698  11.028
17170W        W89463  37.519  42.299  11.880
17171W        W89464   7.259  14.667  12.422
17172W        W89465  41.965  34.612  12.568
17173W        W89466  24.155  23.111   0.326
17174W        W89467   1.359  12.730  11.562
17175W        W89468   6.232  41.842  12.421
17176W        W89469  44.282  22.212  11.123
17177W        W89470  41.866  44.325  10.898
17178W        W89471  29.648  41.995   0.894
17179W        W89472   4.843  17.078  14.333
17180W        W89473  13.752  28.538   2.344
17181W        W89474  27.082  16.789  14.827
17182W        W89475  44.378  12.341   4.261
17183W        W89476  36.857  15.148  12.093
17184W        W89477  14.696   6.205  12.524
17185W        W89478   0.491   1.260   1.884
17186W        W89479  40.525  23.510   4.640
17187W        W89480  38.535   1.832   4.193
17188W        W89481   5.827  44.756   2.842
17189W        W89482  17.123  43.960   2.839
17190W        W89483  32.897  41.912  14.944
17191W        W89484  39.015  32.603  11.947
17192W        W89485  22.711  27.125   3.209
17193W        W89486  19.268  14.197  12.871
17194W        W89487   2.230   7.356   4.279
17195W        W89488  13.304  13.268   4.696
17196W        W89489  25.148  16.776  13.890
17197W        W89490  28.970   4.722   4.229
17198W        W89491   9.265  36.512   4.823
17199W        W89492   5.907   7.846   3.730
17200W        W89493  40.433  24.692   0.434
17201W        W89494   9.691  24.618   3.664
17202W        W89495  38.351  36.954  10.926
17203W        W89496  33.085  44.923  14.822
17204W        W89497  18.115  14.185  13.822
17205W        W89498  42.991  43.414  14.361
17206W        W89499   1.412   9.730   4.113
17207W        W89500  12.232   8.875  10.419
17208W        W89501   8.183  25.692  10.897
17209W        W89502  28.675  20.653   5.665
17210W        W89503  43.465  39.861  10.962
17211W        W89504  25.000   1.937  13.308
17212W        W89505  10.704  28.615  13.905
17213W        W89506  22.076  40.333   2.209
17214W        W89507   8.209  36.408  11.940
17215W        W89508   7.790   8.379   4.187
17216W        W89509  14.151  37.409   4.701
17217W        W89510  15.322  44.923  12.838
17218W        W89511  38.918  38.505   3.290
17219W        W89512  24.170   1.760  12.982
17220W        W89513  14.785  36.493  13.392
17221W        W89514  36.004  16.089  11.865
17222W        W89515  41.368  26.987  11.919
17223W        W89516  21.037  31.896   0.472
17224W        W89517   5.196  40.995  11.902
17225W        W89518  26.507  41.416   1.866
17226W        W89519  41.842  41.042  10.451
17227W        W89520  17.676  15.675   2.375
17228W        W89521  18.630  12.729  13.370
17229W        W89522  41.371  33.941  10.600
17230W        W89523  20.154  40.873   1.716
17231W        W89524  36.575   6.311  11.104
17232W        W89525  18.057   4.779   2.722
17233W        W89526  27.681  26.099  13.396
17234W        W89527  31.526  12.744  11.030
17235W        W89528  37.346  43.466   2.316
17236W        W89529  32.414  34.614  11.408
17237W        W89530  31.913   8.288  12.547
17238W        W89531   7.239  28.022   0.741
17239W        W89532  27.624  28.476   2.711
17240W        W89533   2.240  15.147   3.154
17241W        W89534  30.927  25.205   1.430
17242W        W89535  24.591  36.546   0.398
17243W        W89536   1.807  14.258   2.777
17244W        W89537  43.420  43.817   2.887
17245W        W89538  31.601  28.552   1.737
17246W        W89539  34.979  20.672   4.729
17247W        W89540   7.414  36.576   2.253
17248W        W89541   6.719  20.043  11.430
17249W        W89542  21.143   2.783  13.468
17250W        W89543  35.566  30.964   3.272
17251W        W89544  16.244  25.188  14.371
17252W        W89545  36.472   7.694   4.717
17253W        W89546  29.645  20.757  13.431
17254W        W89547  35.057  10.152  14.334
17255W        W89548   7.782  10.206  13.353
17256W        W89549  18.709  24.512   0.900
17257W        W89550  34.527  11.686  13.522
17258W        W89551  12.221   6.886  11.974
17259W        W89552  18.286  41.846   2.189
17260W        W89553   6.822   8.833   4.199
17261W        W89554   4.423   0.283   1.230
17262W        W89555  38.401  15.648  10.553
17263W        W89556   1.408  18.742   3.165
17264W        W89557  15.291  31.529   4.224
17265W        W89558  33.909  19.655  12.028
17266W        W89559   0.287   6.380  10.905
17267W        W89560  30.425   3.347   4.200
17268W        W89561  26.089  44.797  12.444
17269W        W89562  38.479  37.508  12.457
17270W        W89563  36.091  12.616   3.274
17271W        W89564  36.996  22.026  12.879
17272W        W89565   7.804  44.466   1.722
17273W        W89566   9.803  44.935   1.355
17274W        W89567  11.326  13.720   1.444
17275W        W89568  42.800  29.554  13.018
17276W        W89569  11.351  17.712  12.373
17277W        W89570  16.105   5.768   3.689
17278W        W89571   0.759  15.716   0.373
17279W        W89572  21.222  19.702   0.821
17280W        W89573  11.234  22.158   1.401
17281W        W89574   2.444  20.101   0.474
17282W        W89575   7.316  40.999   0.922
17283W        W89576  28.517  17.679   1.399
17284W        W89577  26.581   7.265   1.920
17285W        W89578  42.525  31.923  12.516
17286W        W89579  19.188  22.013   2.792
17287W        W89580  26.966  31.084  10.529
17288W        W89581  24.979  23.575   4.747
17289W        W89582  35.902  33.115   4.625
17290W        W89583  43.942  12.265   1.819
17291W        W89584  25.550  31.111   2.675
17292W        W89585  32.549   4.797   1.919
17293W        W89586  24.532  41.292   0.258
17294W        W89587  26.187  26.063   2.415
17295W        W89588  36.888  19.690  11.901
17296W        W89589  14.170  36.488  11.099
17297W        W89590  12.674  19.672  14.761
17298W        W89591  34.582  37.022   4.199
17299W        W89592  16.285   9.888   2.887
17300W        W89593  15.676   5.422   0.928
17301W        W89594  10.172   8.896   3.644
17302W        W89595  17.243  15.755  10.098
17303W        W89596  19.273  42.792   3.772
17304W        W89597  27.556  30.618  13.383
17305W        W89598   2.237  20.116   1.314
17306W        W89599  43.898  17.178  14.031
17307W        W89600  44.999  33.547   2.785
17308W        W89601  34.546  16.308   3.635
17309W        W89602  44.888  12.151   1.798
17310W        W89603  32.134  19.634   4.236
17311W        W89604  14.721  24.000  14.448
17312W        W89605  11.266  41.485  13.422
17313W        W89606   9.184  40.499   3.791
17314W        W89607  39.450  25.991  11.494
17315W        W89608  19.048  19.600   0.802
17316W        W89609  35.061  10.763   0.954
17317W        W89610  27.488  18.610   3.160
17318W        W89611  25.582  23.047  12.545
17319W        W89612  40.916   4.267  10.460
17320W        W89613  41.803   5.412   0.761
17321W        W89614  21.559  27.056   4.255
17322W        W89615  27.683  44.410  14.317
17323W        W89616   2.802  39.012  14.332
17324W        W89617  38.499  10.638  13.037
17325W        W89618  17.155  21.602  11.985
17326W        W89619  30.116  19.580   1.903
17327W        W89620  40.862  19.062   1.407
17328W        W89621  37.467  28.990   3.636
17329W        W89622  11.282   1.787   3.252
17330W        W89623  17.307  12.773  12.554
17331W        W89624  16.097   5.744  13.806
17332W        W89625  20.698   0.929   2.285
17333W        W89626  24.198  30.495  12.426
17334W        W89627   4.259  21.680  12.908
17335W        W89628   6.737  25.604   2.698
17336W        W89629  11.662  38.516  10.940
17337W        W89630   7.373   8.773   0.731
17338W        W89631   0.409  26.538  12.392
17339W        W89632  43.841  38.963  12.900
17340W        W89633  43.848  19.236   0.269
17341W        W89634   7.728  38.346   3.765
17342W        W89635  28.618  24.537  13.941
17343W        W89636  20.256   5.851  12.928
17344W        W89637  38.491  20.226  13.974
17345W        W89638  36.484  28.639   1.353
17346W        W89639  32.044  32.002   2.759
17347W        W89640   7.255  15.261  14.298
17348W        W89641  29.171  11.815  11.101
17349W        W89642   7.298   0.449   0.393
17350W        W89643  17.556   8.839  12.480
17351W        W89644  15.613   9.726   4.628
17352W        W89645  40.429  35.074   3.861
17353W        W89646  28.648  39.992  13.390
17354W        W89647   4.311  21.251   3.193
17355W        W89648   3.889  34.081  10.913
17356W        W89649  37.400   0.900  13.480
17357W        W89650   9.355  23.159  12.940
17358W        W89651  24.149  32.040  11.606
17359W        W89652  15.295  22.532  12.921
17360W        W89653  17.126  17.257   5.237
17361W        W89654   4.833   8.237  12.918
17362W        W89655  12.205   0.408  10.420
17363W        W89656  24.133  33.061  14.425
17364W        W89657   1.364  26.601   3.643
17365W        W89658   8.797   1.743   3.196
17366W        W89659   7.335  42.330  14.280
17367W        W89660  17.254  24.699   0.417
17368W        W89661  26.457  39.903  10.598
17369W        W89662  19.214  24.186  11.566
17370W        W89663   9.391   5.308   4.155
17371W        W89664  25.696  35.007   2.850
17372W        W89665  10.327  35.884  14.365
17373W        W89666  29.175   0.294   3.751
17374W        W89667  44.444  23.568   9.928
17375W        W89668  25.591  24.663  14.874
17376W        W89669  14.248  36.060   2.894
17377W        W89670  13.605   5.260  12.046
17378W        W89671  37.533   7.372   1.754
17379W        W89672  17.604  43.813  13.847
17380W        W89673  16.187  30.553  11.533
17381W        W89674  20.688  43.344   2.764
17382W        W89675  24.502  40.843  13.923
17383W        W89676   4.239   2.344   3.635
17384W        W89677   2.967  30.526   2.407
17385W        W89678  33.513  16.197   2.188
17386W        W89679   2.325  28.618   3.368
17387W        W89680  44.841   4.215   3.844
17388W        W89681  27.052  28.628  11.868
17389W        W89682  30.426  37.413   0.817
17390W        W89683  13.661   8.311  10.628
17391W        W89684  27.446  34.382   1.788
17392W        W89685  23.516  38.837  14.321
17393W        W89686  34.410  29.529  10.643
17394W        W89687  40.964  15.783   4.266
17395W        W89688   2.792  15.317  14.408
17396W        W89689  26.474  16.266  11.503
17397W        W89690  28.529  18.560   1.417
17398W        W89691  38.375   5.431   0.331
17399W        W89692  26.501  13.195   0.412
17400W        W89693  21.022  36.554   4.781
17401W        W89694  22.204  27.564   2.338
17402W        W89695   9.178   5.788  11.016
17403W        W89696  44.975  21.252  10.438
17404W        W89697   3.884  25.023   0.920
17405W        W89698   9.683  42.476  10.888
17406W        W89699   8.328   7.389   4.272
17407W        W89700  15.664  39.336  13.487
17408W        W89701  15.618  43.325   4.702
17409W        W89702  40.479  17.164  13.967
17410W        W89703  25.641   6.381  14.805
17411W        W89704   7.324  32.457  12.871
17412W        W89705  13.694  20.034   2.815
17413W        W89706  25.680   2.721   1.268
17414W        W89707  16.116  29.444  11.013
17415W        W89708  16.148  21.664   0.430
17416W        W89709   2.834  27.194  14.330
17417W        W89710   9.792   3.910   2.227
17418W        W89711  24.584  39.947  10.448
17419W        W89712  36.080  13.822  13.053
17420W        W89713  14.642   4.844   0.902
17421W        W89714  11.629  20.699  14.296
17422W        W89715  28.938  11.247  12.924
17423W        W89716   3.295  42.446   4.620
17424W        W89717  28.179  29.620  13.436
17425W        W89718   7.765  12.183   4.341
17426W        W89719   1.334  19.094   1.391
17427W        W89720  10.384  44.420   1.761
17428W        W89721   9.199  31.920   1.240
17429W        W89722  14.705  24.142  10.610
17430W        W89723   3.410  23.015   3.688
17431W        W89724  36.090  24.695  11.104
17432W        W89725  39.483   0.345  14.953
17433W        W89726  23.021  17.769  12.944
17434W        W89727  43.380   2.424  10.568
17435W        W89728  30.655  40.333  10.436
17436W        W89729  20.071  26.071  12.460
17437W        W89730  32.437  35.426  14.764
17438W        W89731  39.876  16.192  14.441
17439W        W89732   9.827  37.028  14.283
17440W        W89733  44.850   1.455   2.298
17441W        W89734  37.965  32.893   0.762
17442W        W89735  41.806  44.884   2.781
17443W        W89736   0.354  21.217  11.884
17444W        W89737  29.499  11.206   0.316
17445W        W89738   1.885  39.493  11.890
17446W        W89739  15.284  13.821  10.544
17447W        W89740  15.779  21.599   0.771
17448W        W89741  28.108  23.600   5.660
17449W        W89742  43.427  26.616  13.388
17450W        W89743  24.040   1.838   5.120
17451W        W89744  20.207  26.483  11.560
17452W        W89745  19.774  34.098   1.723
17453W        W89746   6.726  42.412   4.607
17454W        W89747  19.672  25.479   0.421
17455W        W89748  39.024  39.453   3.311
17456W        W89749  17.665  31.590   0.335
17457W        W89750   4.207   1.762   0.288
17458W        W89751  11.135   0.883   3.308
17459W        W89752  21.740  27.093   2.876
17460W        W89753  17.773  32.607   4.719
17461W        W89754  33.538   5.423   3.149
17462W        W89755  44.883  36.872  14.860
17463W        W89756  32.555   9.231   0.916
17464W        W89757  24.717   6.888  13.982
17465W        W89758  11.862   1.839   4.680
17466W        W89759  22.087  25.565  10.524
17467W        W89760  30.057  43.515   1.794
17468W        W89761  11.188   4.755  14.991
17469W        W89762  23.658  36.362  13.524
17470W        W89763  36.843  22.653   0.873
17471W        W89764   4.762  14.255   3.344
17472W        W89765  21.244  24.686   3.702
17473W        W89766  22.151  20.766  10.623
17474W        W89767  37.893  39.017   0.913
17475W        W89768  10.665  35.036   2.221
17476W        W89769   6.365  43.767  14.913
17477W        W89770   0.927  14.183  11.556
17478W        W89771  34.983  42.992   3.201
17479W        W89772  24.126  17.259   2.839
17480W        W89773  13.837  35.377  14.282
17481W        W89774  44.903  21.222   2.886
17482W        W89775  38.382  44.402  11.921
17483W        W89776   2.909   0.906  13.810
17484W        W89777  42.944  14.833   2.253
17485W        W89778  37.530  22.587  12.055
17486W        W89779  44.481   0.822   2.830
17487W        W89780  19.069   1.814  11.963
17488W        W89781  10.695   3.744  12.080
17489W        W89782   6.829   8.839  13.022
17490W        W89783  14.808  22.211   1.797
17491W        W89784  29.038  30.130  14.025
17492W        W89785  22.666  40.834  14.909
17493W        W89786  13.809   1.308  12.352
17494W        W89787  14.791   1.398   5.740
17495W        W89788  24.205  40.831   3.636
17496W        W89789  15.700  28.161   3.869
17497W        W89790  40.358  40.329  10.578
17498W        W89791   6.389  44.267   2.899
17499W        W89792  33.440  32.439  12.035
17500W        W89793  26.464   0.401   3.209
17501W        W89794   2.967  34.067  14.905
17502W        W89795  12.748  26.665   0.440
17503W        W89796  38.342  16.624   3.825
17504W        W89797  41.835  42.943   4.131
17505W        W89798  41.018   5.764   2.790
17506W        W89799  16.688  34.374   1.431
17507W        W89800  19.180  27.946   1.359
17508W        W89801   2.787  15.619   2.749
17509W        W89802  20.765   0.324   1.279
17510W        W89803  34.595  22.682  11.599
17511W        W89804   3.237  30.530   4.664
17512W        W89805  44.300  37.008   4.695
17513W        W89806  25.166  16.607  13.520
17514W        W89807   5.701  27.642  10.496
17515W        W89808  17.143   5.421  13.813
17516W        W89809  39.463  25.018  12.915
17517W        W89810  39.845  11.633  14.019
17518W        W89811  34.499  25.139  11.484
17519W        W89812  16.309  43.495   1.924
17520W        W89813  24.484  40.987  14.983
17521W        W89814  23.516   6.267   2.795
17522W        W89815  37.006   2.363   4.724
17523W        W89816  41.512  15.191  10.407
17524W        W89817  20.216  15.664   3.238
17525W        W89818   2.891  26.508  13.428
17526W        W89819  25.632  15.219  10.954
17527W        W89820  13.256  42.924   2.787
17528W        W89821   7.857   8.196   2.661
17529W        W89822  21.071  44.011  13.436
17530W        W89823  39.328   1.750   5.090
17531W        W89824   5.800  21.118   1.313
17532W        W89825  34.387  22.156   2.364
17533W        W89826   0.801  17.706  12.352
17534W        W89827  35.602  35.522   4.191
17535W        W89828  28.564  25.704  11.973
17536W        W89829  30.637   6.215   5.115
17537W        W89830   6.840   4.405  13.313
17538W        W89831  32.591  16.688  12.013
17539W        W89832  31.495   5.770  14.023
17540W        W89833  15.151  20.111  11.017
17541W        W89834  42.395  30.100   1.818
17542W        W89835  17.786  25.659   0.734
17543W        W89836  10.269  11.316   4.185
17544W        W89837  38.502   4.909  13.531
17545W        W89838  42.932  21.754   0.347
17546W        W89839  14.282   9.231   2.879
17547W        W89840   9.845   2.886  10.460
17548W        W89841   1.788   2.381   4.305
17549W        W89842  44.287  15.328   2.765
17550W        W89843  39.952   7.854  14.861
17551W        W89844   4.913  19.216  11.548
17552W        W89845  29.140  24.063   1.273
17553W        W89846  44.425  13.257  13.841
17554W        W89847  25.984  42.800   2.835
17555W        W89848  13.285  34.584  13.310
17556W        W89849   4.800  25.591  14.324
17557W        W89850  16.574   3.913   3.182
17558W        W89851  38.441  21.577  10.424
17559W        W89852  19.590  27.616  13.894
17560W        W89853   0.983  11.206  12.382
17561W        W89854   1.420  33.081  13.345
17562W        W89855  18.092  11.230   3.864
17563W        W89856   7.238  31.476  14.348
17564W        W89857  38.393  20.748   3.305
17565W        W89858  35.405  31.146  11.880
17566W        W89859  25.021  31.044   0.764
17567W        W89860  21.520  26.062  13.064
17568W        W89861   6.818  44.822  11.066
17569W        W89862   0.283  11.688  14.825
17570W        W89863  17.141  37.533  10.076
17571W        W89864   9.181  29.103   4.180
17572W        W89865  11.625   0.452   3.851
17573W        W89866  23.494  26.559   4.681
17574W        W89867  27.531  31.511  12.917
17575W        W89868  25.614   9.864   1.395
17576W        W89869  33.599   3.838  12.568
17577W        W89870  24.994  33.077   3.869
17578W        W89871  24.650  20.080   1.929
17579W        W89872  14.144  28.972  11.465
17580W        W89873  32.561  17.069  11.888
17581W        W89874  18.296  36.536  14.447
17582W        W89875  39.373  25.591  13.545
17583W        W89876  26.593  26.144   1.263
17584W        W89877  44.887  25.990   0.275
17585W        W89878  13.820  40.374  14.775
17586W        W89879   2.362  17.711   2.385
17587W        W89880   4.229  24.634  10.928
17588W        W89881  34.551  17.302  14.777
17589W        W89882  42.380  31.413   0.863
17590W        W89883  43.976  24.508   3.376
17591W        W89884  21.131  13.727   0.936
17592W        W89885  32.006  11.265  14.325
17593W        W89886  43.461  17.169   4.199
17594W        W89887   5.323  34.438   2.759
17595W        W89888  44.330  27.583   2.289
17596W        W89889   0.982  38.439   4.203
17597W        W89890   9.792   0.819  11.934
17598W        W89891  17.698   1.272  13.874
17599W        W89892  18.588  19.742  13.514
17600W        W89893   9.196  18.757  11.857
17601W        W89894   1.969  23.595  13.313
17602W        W89895  29.569  19.208  11.513
17603W        W89896  16.615   1.826   1.913
17604W        W89897  34.594  37.839  11.951
17605W        W89898  35.980   3.931  11.894
17606W        W89899   8.304  25.688  13.868
17607W        W89900   7.387  15.809  14.920
17608W        W89901  24.076   2.735   0.468
17609W        W89902   2.355  36.850  11.064
17610W        W89903  30.093  44.304   4.348
17611W        W89904  15.820  33.463  14.843
17612W        W89905   5.221   6.347   3.305
17613W        W89906   7.838  35.464   4.190
17614W        W89907  39.345  40.328  12.056
17615W        W89908  30.453  44.488  14.884
17616W        W89909  38.378   4.393   2.692
17617W        W89910  30.543  15.648  13.945
17618W        W89911  25.206   1.858   4.333
17619W        W89912  40.435  16.260   1.374
17620W        W89913  18.175  18.281   0.360
17621W        W89914  39.459  18.686  10.644
17622W        W89915   4.237   6.741   3.680
17623W        W89916  41.820  43.416  10.546
17624W        W89917  36.068  40.900  13.836
17625W        W89918  26.666   6.272   0.266
17626W        W89919  10.768  22.091   0.731
17627W        W89920  25.065  21.747  11.566
17628W        W89921   9.853   9.659  11.471
17629W        W89922  22.027  19.197  14.509
17630W        W89923  17.107  12.641   0.863
17631W        W89924   1.784  10.317  11.460
17632W        W89925  27.534  32.512   4.196
17633W        W89926  36.501   3.838   4.651
17634W        W89927  24.223   3.899  14.005
17635W        W89928  15.709  41.866   4.328
17636W        W89929  11.305  34.901  10.918
17637W        W89930  29.494  41.429  12.457
17638W        W89931  44.383   6.344   1.276
17639W        W89932  35.019  35.361  14.808
17640W        W89933   6.391  40.882  12.995
17641W        W89934  16.140  14.145   1.398
17642W        W89935   6.689  12.198  12.396
17643W        W89936  44.432  30.593  13.439
17644W        W89937   7.264   1.478  11.579
17645W        W89938  14.210  24.675   1.415
17646W        W89939  15.810   4.236  12.372
17647W        W89940   0.776  24.156   1.733
17648W        W89941  28.582  11.746  13.437
17649W        W89942  23.032  21.085   3.708
17650W        W89943  44.872  29.935  11.946
17651W        W89944  43.948  31.928   0.416
17652W        W89945  19.151  44.472   4.772
17653W        W89946  44.375  19.589  10.005
17654W        W89947  12.214   7.877   2.769
17655W        W89948  17.240  42.289   0.768
17656W        W89949  30.085   3.388   1.447
17657W        W89950   6.229   1.465  10.927
17658W        W89951  22.600  40.012  12.400
17659W        W89952  31.058   0.315  11.931
17660W        W89953  32.507  22.015   4.256
17661W        W89954  27.140  44.474  11.529
17662W        W89955  32.970  41.876   2.321
17663W        W89956  14.103   4.299   1.375
17664W        W89957   4.390  21.100   1.321
17665W        W89958   7.787  21.736  14.813
17666W        W89959  39.518  27.141  13.493
17667W        W89960  12.189  31.403   1.873
17668W        W89961  43.496   8.847   3.822
17669W        W89962  23.588  42.953   0.922
17670W        W89963  21.069  37.977  13.530
17671W        W89964  18.088   9.234   0.919
17672W        W89965  34.520  25.019   1.437
17673W        W89966  14.140  20.178   0.477
17674W        W89967  39.825  15.103   1.351
17675W        W89968  40.925   9.871  14.005
17676W        W89969  35.401  19.140   1.780
17677W        W89970  14.796  30.444  12.998
17678W        W89971  36.076  19.588   4.803
17679W        W89972   5.229  34.377   4.164
17680W        W89973  11.173  12.750  11.377
17681W        W89974  23.489   2.331  11.484
17682W        W89975   4.442  43.498  11.971
17683W        W89976  44.366  34.972   5.169
17684W        W89977   3.925  14.304  14.287
17685W        W89978  18.594  30.136  12.506
17686W        W89979  33.618  34.958   3.291
17687W        W89980   6.767  20.615  10.546
17688W        W89981  30.508  43.308   0.766
17689W        W89982  18.736  30.446   3.367
17690W        W89983  16.134  27.183   0.278
17691W        W89984  37.045  33.509   3.252
17692W        W89985  43.954  27.997  14.836
17693W        W89986  19.750  36.967  11.967
17694W        W89987  32.989   9.884   3.324
17695W        W89988  20.719   1.348   1.933
17696W        W89989  22.114  12.843  14.774
17697W        W89990  13.315  27.183  13.432
17698W        W89991  18.726  11.165   3.212
17699W        W89992  23.596  35.520  14.462
17700W        W89993  35.401  40.977  11.565
17701W        W89994   3.361  20.089  14.849
17702W        W89995  10.634  40.888   2.873
17703W        W89996  43.771  25.472   2.721
17704W        W89997  10.796  32.629  14.434
17705W        W89998   3.251  13.678  12.417
17706W        W89999  14.732  25.068  11.871
17707W        W90000  18.757   2.363   2.228
17708W        W90001  25.617  23.683   1.931
17709W        W90002   7.875  34.575   5.152
17710W        W90003  41.389  34.940  10.889
17711W        W90004  40.546  41.336   1.370
17712W        W90005  25.661  23.582  12.449
17713W        W90006  17.577  34.104  11.972
17714W        W90007   8.737  16.188   4.730
17715W        W90008  29.431  32.933  14.976
17716W        W90009  31.990  17.647  13.358
17717W        W90010   9.321  22.053   0.249
17718W        W90011  23.227   0.833  11.945
17719W        W90012  15.329  28.155  12.506
17720W        W90013   8.280  16.682   4.667
17721W        W90014  39.436  41.950   0.916
17722W        W90015   1.308  14.340  10.947
17723W        W90016  33.893  24.189   3.201
17724W        W90017  37.038  11.760   0.253
17725W        W90018  23.038  44.895   1.254
17726W        W90019  42.412  16.732   3.809
17727W        W90020  19.152  29.074   2.756
17728W        W90021  11.359  33.546  13.495
17729W        W90022  38.962  39.900  14.880
17730W        W90023   1.405  16.162  11.034
17731W        W90024   5.318   7.209   3.775
17732W        W90025  39.385   3.301  13.368
17733W        W90026  43.966  19.718  12.913
17734W        W90027  16.095  15.169  10.619
17735W        W90028  25.131  27.569  12.992
17736W        W90029  21.254  33.924   2.764
17737W        W90030  11.792  41.862   3.176
17738W        W90031  43.016  23.506  13.045
17739W        W90032  31.624  16.105   1.865
17740W        W90033  13.627  38.338   4.241
17741W        W90034   9.276   3.857   3.832
17742W        W90035  33.613  41.532  11.870
17743W        W90036  35.999  17.628   1.216
17744W        W90037  26.970  11.844  13.942
17745W        W90038  41.007  42.896   1.918
17746W        W90039  42.900  40.930  11.102
17747W        W90040  26.178  39.830   3.182
17748W        W90041  27.529  43.788   0.394
17749W        W90042  25.544   3.353  14.800
17750W        W90043  11.848   0.460   4.787
17751W        W90044   0.458   8.389  12.859
17752W        W90045  26.061   7.853  12.991
17753W        W90046  32.002  17.184   4.790
17754W        W90047  26.609  33.001  13.931
17755W        W90048  17.742  21.624  13.368
17756W        W90049  11.654   3.869  10.548
17757W        W90050  30.629  29.567  14.028
17758W        W90051  18.660  14.782  10.461
17759W        W90052   9.674  38.406   3.634
17760W        W90053  43.938  19.098   1.867
17761W        W90054  44.937  24.690  13.993
17762W        W90055   7.853  42.321   3.638
17763W        W90056  32.559  14.294  12.887
17764W        W90057  27.160  43.301   1.403
17765W        W90058   7.710  26.675   3.385
17766W        W90059  22.090  43.498  14.366
17767W        W90060  12.133  16.586  14.798
17768W        W90061  29.621  35.031   1.273
17769W        W90062  17.302  27.197   1.827
17770W        W90063  22.550  10.210   0.435
17771W        W90064  17.272  10.275   2.386
17772W        W90065  21.051  13.755   5.152
17773W        W90066  28.067  34.427   2.725
17774W        W90067  11.703   8.338   4.141
17775W        W90068  24.643  21.064   0.372
17776W        W90069  31.578  29.119   4.143
17777W        W90070   3.800  14.264  12.404
17778W        W90071   4.869  34.546   3.198
17779W        W90072  36.589   5.277   0.901
17780W        W90073   1.285  16.133  13.386
17781W        W90074  23.071  14.627  13.479
17782W        W90075  16.764  37.975  11.051
17783W        W90076   4.252   3.847   3.796
17784W        W90077   1.934  18.226  13.408
17785W        W90078   1.765  20.736   4.191
17786W        W90079   0.466   1.293  14.327
17787W        W90080  29.514  17.075  10.640
17788W        W90081  27.482   6.198  10.496
17789W        W90082  37.993  36.911  12.577
17790W        W90083  27.144   9.222  13.791
17791W        W90084  29.979   4.891  12.486
17792W        W90085  13.150   3.245  10.949
17793W        W90086  28.484  12.338   2.241
17794W        W90087   0.313  43.453   4.698
17795W        W90088   8.817  32.592   4.604
17796W        W90089  44.503   0.433   3.201
17797W        W90090  39.876  27.144   2.817
17798W        W90091  38.897  21.143   4.173
17799W        W90092   6.777  12.170  13.498
17800W        W90093  29.546  26.554  12.963
17801W        W90094  18.077  11.327   3.274
17802W        W90095  43.867  12.160  12.472
17803W        W90096  12.668   5.736  12.564
17804W        W90097   0.844  30.577  14.018
17805W        W90098   7.353  43.285   1.843
17806W        W90099  17.706   9.887  11.996
17807W        W90100   7.749  39.363   1.781
17808W        W90101  30.057  14.792  12.374
17809W        W90102   2.408  11.707  14.867
17810W        W90103  13.679   6.879   4.182
17811W        W90104  23.521  14.249   0.354
17812W        W90105  40.938  12.688  12.515
17813W        W90106  14.742   0.960   3.357
17814W        W90107  36.549  35.523  13.886
17815W        W90108  18.206  31.102   2.681
17816W        W90109  13.777  29.975  12.503
17817W        W90110  37.866  16.608   0.965
17818W        W90111   0.272  27.190  13.857
17819W        W90112  42.797   2.753  10.491
17820W        W90113  15.220   8.233   4.325
17821W        W90114   1.804  29.109  13.417
17822W        W90115   1.271  37.019  11.563
17823W        W90116   5.423  16.193   3.630
17824W        W90117  10.159  34.390  14.776
17825W        W90118  44.845  15.696   0.763
17826W        W90119  32.456  24.716  11.531
17827W        W90120  18.577  36.845   1.338
17828W        W90121   6.204  39.498  13.361
17829W        W90122   9.200   0.948  11.588
17830W        W90123  38.343  24.546  14.909
17831W        W90124  28.982  39.857   4.741
17832W        W90125  21.218  34.993  14.795
17833W        W90126  44.837  33.948   4.314
17834W        W90127  27.164  44.959  14.337
17835W        W90128  30.590  29.121  10.496
17836W        W90129  16.810  17.741   1.778
17837W        W90130  35.437  25.028   1.361
17838W        W90131  28.097   6.287   5.215
17839W        W90132  31.085  38.525  10.533
17840W        W90133   4.849  20.169   3.854
17841W        W90134   0.808  16.734  14.779
17842W        W90135  22.075  38.436  12.573
17843W        W90136  36.872  37.988   0.472
17844W        W90137  41.810  16.635   5.166
17845W        W90138  11.141  11.221   3.341
17846W        W90139   5.399  34.045  11.000
17847W        W90140  33.945  10.858   4.290
17848W        W90141  36.374  12.158  10.608
17849W        W90142  19.133  13.346  13.326
17850W        W90143  31.030   7.724   5.101
17851W        W90144   5.419  39.465  13.497
17852W        W90145  13.157   9.728  14.973
17853W        W90146   9.220  42.988   4.209
17854W        W90147  35.366  35.870  12.565
17855W        W90148  37.476  35.364  10.441
17856W        W90149  25.686  30.511  14.958
17857W        W90150  36.011   2.323   4.825
17858W        W90151  19.574  24.599   4.242
17859W        W90152  24.188   0.293   4.126
17860W        W90153   0.890  41.524   3.296
17861W        W90154   4.255  12.174   4.164
17862W        W90155   3.757  40.501  14.824
17863W        W90156  34.879  23.135   3.716
17864W        W90157  12.832   7.273   0.363
17865W        W90158   6.729  18.747  10.429
17866W        W90159  38.936  20.119   4.167
17867W        W90160  20.230  39.063  14.001
17868W        W90161  43.281  37.469   1.757
17869W        W90162  18.584  43.468  11.377
17870W        W90163  30.595   3.952  11.128
17871W        W90164  36.848   5.300  12.838
17872W        W90165   4.312  15.684   0.429
17873W        W90166  15.788  27.064  11.605
17874W        W90167  21.529  16.113   1.235
17875W        W90168  19.757   8.661  11.011
17876W        W90169   8.655   3.359   1.932
17877W        W90170  42.782  16.129   9.465
17878W        W90171  44.320   6.888  10.408
17879W        W90172  12.271  21.618  11.997
17880W        W90173  22.015  25.711   2.188
17881W        W90174  25.532  39.451   4.649
17882W        W90175   7.200  44.350  12.473
17883W        W90176   1.753  18.290   1.278
17884W        W90177  25.144  16.632  12.551
17885W        W90178  11.761  11.285  11.884
17886W        W90179   8.775  36.072   5.701
17887W        W90180  13.611  15.235  13.981
17888W        W90181  33.413  38.475  13.317
17889W        W90182  40.859  31.078  13.834
17890W        W90183   0.346  16.593   3.356
17891W        W90184  30.648  31.083  13.005
17892W        W90185  10.736  25.701   2.699
17893W        W90186   4.227  43.951   2.259
17894W        W90187  44.377  29.589   0.375
17895W        W90188  27.032  34.586   0.398
17896W        W90189  40.801  12.319  10.519
17897W        W90190  12.347  30.969   1.307
17898W        W90191  44.505   2.272   2.223
17899W        W90192  40.027  34.440   1.403
17900W        W90193   1.759  37.040  10.633
17901W        W90194  25.476  12.817  10.952
17902W        W90195   6.396   4.847   0.757
17903W        W90196  10.166  43.846   1.822
17904W        W90197  29.540  30.656  12.880
17905W        W90198   5.889  16.277  10.639
17906W        W90199  12.757   8.328   1.357
17907W        W90200  39.476  32.614  12.844
17908W        W90201  21.067  35.425   2.783
17909W        W90202  38.384  24.576  14.356
17910W        W90203  44.830  38.442  10.922
17911W        W90204   3.383  16.165  11.988
17912W        W90205  26.133  37.034  14.313
17913W        W90206  16.716  10.790   1.877
17914W        W90207  37.383  11.354   4.755
17915W        W90208  30.636  33.992  13.994
17916W        W90209   0.983  26.623   4.815
17917W        W90210  38.478  40.837   1.762
17918W        W90211  38.512  25.038  13.860
17919W        W90212  37.020  11.643  12.957
17920W        W90213  35.530  21.017   3.632
17921W        W90214  19.732  21.214   2.212
17922W        W90215   0.261  10.253   3.830
17923W        W90216  35.526   7.334  12.911
17924W        W90217   3.374  21.072  14.792
17925W        W90218  23.718  28.523   3.368
17926W        W90219  20.094  19.756  11.864
17927W        W90220  33.981  41.351  13.042
17928W        W90221  26.076  37.388  13.504
17929W        W90222  18.771  26.173   1.852
17930W        W90223  38.411  15.615  12.568
17931W        W90224  17.249   4.214   1.722
17932W        W90225  41.927  42.461   5.296
17933W        W90226  40.999  38.927   3.297
17934W        W90227   8.815   7.910  14.413
17935W        W90228  36.924  28.989  14.408
17936W        W90229   9.669   8.725   1.735
17937W        W90230  39.991  31.116  11.554
17938W        W90231  13.689  36.458   1.317
17939W        W90232  16.811   7.258  13.843
17940W        W90233  14.703  15.202  12.458
17941W        W90234  40.858  12.220   3.338
17942W        W90235  23.157  34.931   3.726
17943W        W90236  40.377  16.770  14.022
17944W        W90237  43.906  16.092   3.736
17945W        W90238  37.554   9.335  11.414
17946W        W90239   9.658  19.547   1.327
17947W        W90240  24.711   5.274  13.016
17948W        W90241   0.417  30.949   3.186
17949W        W90242  43.966  25.535  10.567
17950W        W90243  22.156  18.549   1.751
17951W        W90244  27.590  27.461   0.303
17952W        W90245  13.834   7.857   1.777
17953W        W90246   8.752  10.250  12.538
17954W        W90247  29.164  34.885  12.065
17955W        W90248   6.853  13.213   3.194
17956W        W90249  29.063   2.914  11.441
17957W        W90250  12.784  21.722   4.275
17958W        W90251   6.355  27.627   2.387
17959W        W90252  11.868  24.546  13.498
17960W        W90253  12.828  44.259  12.858
17961W        W90254  44.277   0.803   9.980
17962W        W90255  13.156   9.869  13.021
17963W        W90256  18.562  40.920   4.143
17964W        W90257  29.633  23.219  11.610
17965W        W90258  42.962  44.325  14.276
17966W        W90259  26.462  33.954   4.747
17967W        W90260   0.937  13.734  13.941
17968W        W90261  10.282  44.494   3.223
17969W        W90262  18.208  13.778   3.278
17970W        W90263  23.197  43.400   3.277
17971W        W90264  42.334  11.811  12.343
17972W        W90265  18.088   5.316  14.781
17973W        W90266   9.325  24.512  12.956
17974W        W90267  21.055  25.063   4.234
17975W        W90268  36.446  40.447   2.267
17976W        W90269  29.956  44.878   0.342
17977W        W90270  35.578   3.395  14.304
17978W        W90271   6.248  36.868  14.860
17979W        W90272  17.658  35.496   2.373
17980W        W90273  19.133   6.363  14.436
17981W        W90274   1.322  17.686   0.370
17982W        W90275   1.433  41.787  11.417
17983W        W90276  41.323  30.563   1.759
17984W        W90277  12.663  16.163  14.308
17985W        W90278   2.870  20.213  14.853
17986W        W90279  21.242   6.870  14.360
17987W        W90280   1.381  17.221  12.894
17988W        W90281   6.339  44.906   1.322
17989W        W90282  37.085  13.186  14.983
17990W        W90283  42.938  38.462  11.420
17991W        W90284   9.759   9.313  13.514
17992W        W90285   7.373  14.216  12.985
17993W        W90286  33.455  34.397   1.366
17994W        W90287  21.523   5.842   3.672
17995W        W90288  11.195  43.012   3.833
17996W        W90289  36.579  20.249   0.872
17997W        W90290  44.370   8.846  12.962
17998W        W90291  22.013  34.051  12.094
17999W        W90292  19.070   0.283  12.076
18000W        W90293  25.676  29.438   2.844
18001W        W90294  26.539  32.449   1.734
18002W        W90295  32.904  40.512  11.532
18003W        W90296  36.386  23.013   0.416
18004W        W90297  21.755  22.600   3.857
18005W        W90298  23.065  17.640  12.378
18006W        W90299  44.350  35.408   1.714
18007W        W90300   9.349  23.063   4.224
18008W        W90301  43.810   6.815  10.909
18009W        W90302  19.083  30.960  10.912
18010W        W90303  10.374  20.151   3.809
18011W        W90304  24.559  12.688   1.719
18012W        W90305  24.594  30.466   2.262
18013W        W90306  37.371  21.634   0.380
18014W        W90307  26.166   7.326   2.281
18015W        W90308  38.474  44.316  14.771
18016W        W90309  31.053  13.646  10.633
18017W        W90310  32.511  19.758  14.385
18018W        W90311  39.050  39.956  11.070
18019W        W90312   8.162  26.593   1.414
18020W        W90313   7.698  39.045  14.835
18021W        W90314  16.233  13.175  10.506
18022W        W90315  41.900  26.583  12.380
18023W        W90316  41.421  42.017  14.904
18024W        W90317  27.488  44.926  10.548
18025W        W90318  27.080  21.720  10.897
18026W        W90319  20.605  41.918   0.761
18027W        W90320  33.463  15.748  11.027
18028W        W90321  37.843  38.044  14.850
18029W        W90322  39.549  20.189   3.146
18030W        W90323   8.365   3.325  13.905
18031W        W90324  20.107  27.001   2.254
18032W        W90325  12.233   5.219   2.308
18033W        W90326   0.815   9.694   4.207
18034W        W90327  30.524  43.925  12.958
18035W        W90328   7.184   2.934   4.215
18036W        W90329  34.417   3.771   0.833
18037W        W90330  39.363   9.192   3.206
18038W        W90331  42.827  44.440   2.668
18039W        W90332  12.188  12.705  10.913
18040W        W90333   8.226  10.665  11.965
18041W        W90334  37.015  22.109  10.544
18042W        W90335  23.027  32.443   0.772
18043W        W90336  42.982  17.305  14.440
18044W        W90337  43.868  35.921   4.353
18045W        W90338  25.640  26.951  14.411
18046W        W90339  29.658  44.492  10.602
18047W        W90340   9.836  43.396   0.789
18048W        W90341  26.687   2.965   4.154
18049W        W90342  14.628  20.172  11.404
18050W        W90343  40.879  18.137   2.778
18051W        W90344  21.604  40.336  14.839
18052W        W90345  15.620  18.692   5.103
18053W        W90346  22.744  31.099   2.260
18054W        W90347  15.140  23.651  12.985
18055W        W90348  38.018   3.304  11.932
18056W        W90349  20.732  30.131   3.868
18057W        W90350  10.848  40.361  11.474
18058W        W90351  10.145  35.581  12.548
18059W        W90352  42.433   2.905  14.761
18060W        W90353  42.423  40.801  11.378
18061W        W90354   9.741  13.706   0.807
18062W        W90355  43.348  33.901   2.301
18063W        W90356  41.431  39.336  12.021
18064W        W90357   1.770  29.132  13.045
18065W        W90358  39.835  29.537  10.408
18066W        W90359  28.620  37.399  13.944
18067W        W90360   6.237  23.564  13.873
18068W        W90361  32.906  37.463   1.840
18069W        W90362  43.379  14.289  13.406
18070W        W90363  12.813   9.799   2.399
18071W        W90364  44.966  31.488  12.942
18072W        W90365  13.826  18.265   2.701
18073W        W90366   9.695   7.693  11.445
18074W        W90367  15.244   7.699   2.873
18075W        W90368  33.619  40.380  11.042
18076W        W90369   4.207  12.147  12.058
18077W        W90370   7.734  30.968  12.406
18078W        W90371   2.427  15.596  10.108
18079W        W90372  41.431  39.491   0.766
18080W        W90373   1.747  22.704  13.796
18081W        W90374   3.773  20.619  12.506
18082W        W90375  36.571   6.191   3.731
18083W        W90376  41.363   4.368  12.486
18084W        W90377  37.385  34.984   2.684
18085W        W90378  40.436  13.347   1.436
18086W        W90379   3.783  44.428  13.501
18087W        W90380  40.341  15.689  11.459
18088W        W90381  35.388  25.618   3.640
18089W        W90382  11.817  30.413  14.445
18090W        W90383  37.469  35.580  10.959
18091W        W90384  39.030  24.656   3.731
18092W        W90385  23.176   1.911   1.857
18093W        W90386  10.324  15.692   2.229
18094W        W90387   6.316  40.418   0.289
18095W        W90388   2.246   7.879  10.575
18096W        W90389   5.266  31.098   0.945
18097W        W90390   4.857  39.855  11.025
18098W        W90391  34.981   3.416   4.834
18099W        W90392  32.466  29.166  11.558
18100W        W90393  24.638  44.403  12.080
18101W        W90394  18.554  24.685  14.434
18102W        W90395   7.262  26.495  11.095
18103W        W90396   6.723  38.906   3.715
18104W        W90397  13.671  40.377   3.148
18105W        W90398   4.875  21.056  13.828
18106W        W90399  21.047  22.100   4.249
18107W        W90400  28.556   2.268  13.495
18108W        W90401  12.289  42.929  10.613
18109W        W90402  19.279  21.515  13.475
18110W        W90403  31.067  12.671   0.345
18111W        W90404  39.331  11.830  13.793
18112W        W90405   9.284  37.418   4.202
18113W        W90406   0.774  33.505  12.026
18114W        W90407  18.112  19.654   2.211
18115W        W90408  16.811  35.400  10.907
18116W        W90409  14.334  26.578   3.652
18117W        W90410  20.185  23.104   4.686
18118W        W90411  20.028  15.326   0.313
18119W        W90412  29.571  32.456   0.304
18120W        W90413  28.944  11.361   4.660
18121W        W90414  15.253  20.632  12.021
18122W        W90415  29.972  39.051   1.373
18123W        W90416  37.006  26.492   0.284
18124W        W90417   9.235  28.009  10.477
18125W        W90418  38.447  30.015  14.504
18126W        W90419  26.201  19.044  14.425
18127W        W90420   7.860  33.030  12.409
18128W        W90421  27.004  21.160   9.968
18129W        W90422  13.340   8.172  12.036
18130W        W90423  17.230  33.576  12.369
18131W        W90424  34.522  34.434   2.255
18132W        W90425  27.078  38.920   1.774
18133W        W90426   1.875  39.534  11.496
18134W        W90427  39.550  29.584  13.882
18135W        W90428  41.457   9.303  12.872
18136W        W90429  39.019  18.695  13.919
18137W        W90430  44.354  39.943  12.348
18138W        W90431  36.006  40.842  10.427
18139W        W90432  37.432  15.281   2.682
18140W        W90433   8.765  26.168   2.294
18141W        W90434  40.034   4.212  14.410
18142W        W90435  42.325  27.546   1.432
18143W        W90436  30.589  19.042  11.475
18144W        W90437   5.777  24.061  10.458
18145W        W90438  34.114  30.059   4.599
18146W        W90439  36.438  20.054   4.801
18147W        W90440  15.150  39.913   1.421
18148W        W90441   7.751  40.362   4.654
18149W        W90442   2.828  14.107  14.497
18150W        W90443  18.149  29.156   4.770
18151W        W90444   7.797  18.058   3.156
18152W        W90445   1.927  17.621  11.545
18153W        W90446  42.468  12.780   2.380
18154W        W90447  37.916  24.183   0.897
18155W        W90448  20.716  37.003   3.334
18156W        W90449  13.210  35.363  14.487
18157W        W90450  35.596  13.227   2.387
18158W        W90451  44.310  12.643  11.519
18159W        W90452  37.985  32.142  12.843
18160W        W90453  10.138  18.659   3.682
18161W        W90454  21.251  35.565  11.458
18162W        W90455  20.524  34.465   0.811
18163W        W90456  19.149  27.544   2.244
18164W        W90457  18.240   6.762   3.216
18165W        W90458  41.450  29.165  14.381
18166W        W90459  24.154  22.527  11.386
18167W        W90460  14.738   8.746  13.009
18168W        W90461  29.121  23.630  12.016
18169W        W90462   7.898  38.984  11.894
18170W        W90463  13.117  29.989  11.099
18171W        W90464  44.323   4.331   1.829
18172W        W90465  21.219  32.906   5.698
18173W        W90466  18.716   6.189   3.721
18174W        W90467   5.250  41.958   4.706
18175W        W90468  31.454   7.373   4.289
18176W        W90469  31.952  42.926  11.929
18177W        W90470  12.659   1.262  13.015
18178W        W90471   1.773  30.976   0.893
18179W        W90472  41.910   6.901  12.934
18180W        W90473  24.699  18.144  11.579
18181W        W90474  27.560  28.029   0.796
18182W        W90475  20.272  28.172  13.867
18183W        W90476  25.634  30.005   3.812
18184W        W90477   6.250  27.672   4.693
18185W        W90478  26.955   8.792   2.372
18186W        W90479  13.216  39.899  11.084
18187W        W90480  26.960  13.268   4.345
18188W        W90481  18.203  31.482   3.204
18189W        W90482  24.200   4.759  10.466
18190W        W90483  36.969  27.101  10.471
18191W        W90484  19.545  44.326   1.878
18192W        W90485   9.666   1.475  10.425
18193W        W90486  27.646  21.108  13.872
18194W        W90487  29.121   8.808   5.268
18195W        W90488   4.322   2.469  12.363
18196W        W90489  38.821  11.815   5.092
18197W        W90490  33.897   0.907  13.890
18198W        W90491   7.341  23.030   4.285
18199W        W90492   7.769  31.575  11.504
18200W        W90493  37.987  44.325   1.896
18201W        W90494  11.172  30.595   1.886
18202W        W90495  26.028  33.558  14.959
18203W        W90496   6.306  26.489  10.639
18204W        W90497  23.615  27.607   0.255
18205W        W90498  35.047  33.098  12.858
18206W        W90499  25.574  36.942  14.358
18207W        W90500  16.247   4.815   4.773
18208W        W90501   8.368  38.072   3.694
18209W        W90502  15.618  35.595   3.261
18210W        W90503  22.583  29.466  11.420
18211W        W90504  26.618  18.688   0.949
18212W        W90505  31.639  11.238  14.287
18213W        W90506  11.175   9.318  12.944
18214W        W90507  17.633  38.501   0.801
18215W        W90508  44.983  33.402  13.950
18216W        W90509  13.252  12.748   4.151
18217W        W90510  34.893   7.237  13.820
18218W        W90511  10.279  26.504   3.292
18219W        W90512  30.452  38.822   0.841
18220W        W90513  23.646   2.838   3.643
18221W        W90514  33.622   0.410  14.797
18222W        W90515  14.313  35.553   0.799
18223W        W90516  15.758  35.591   5.321
18224W        W90517   3.804  32.902   4.158
18225W        W90518  34.028  23.605  14.448
18226W        W90519  10.666  43.957  14.921
18227W        W90520  30.539  36.094   1.257
18228W        W90521   1.872  16.710   4.647
18229W        W90522   0.790  43.426  11.861
18230W        W90523  40.448  35.908   2.267
18231W        W90524   7.674  13.646   2.864
18232W        W90525  38.921   7.849  12.340
18233W        W90526  33.929  26.983   2.750
18234W        W90527   1.316  40.388   1.300
18235W        W90528  29.562   2.754   4.663
18236W        W90529  44.845  39.357   0.417
18237W        W90530   1.929  14.210   0.779
18238W        W90531   0.433   9.350   1.797
18239W        W90532  29.631   1.787   0.839
18240W        W90533  28.988  20.267  11.877
18241W        W90534  22.692  41.910   1.754
18242W        W90535  21.747   9.826   1.795
18243W        W90536  34.584  15.156   0.947
18244W        W90537   9.853  25.046  14.029
18245W        W90538   8.815  21.160  13.452
18246W        W90539   3.935  14.282   1.748
18247W        W90540  33.427  18.788   0.394
18248W        W90541  23.637  31.601   1.878
18249W        W90542  34.409   3.811   3.189
18250W        W90543   0.258  29.532   4.270
18251W        W90544  39.333   3.779  11.945
18252W        W90545  16.317  27.001  11.871
18253W        W90546   0.339  21.651   4.161
18254W        W90547  18.226  15.252   1.787
18255W        W90548  24.174  13.765   4.131
18256W        W90549  29.113   7.405   2.410
18257W        W90550  43.425  30.423  10.597
18258W        W90551  18.149  35.074  12.987
18259W        W90552  33.506  13.633  13.539
18260W        W90553  40.395   2.791  10.414
18261W        W90554  35.410  10.855  12.480
18262W        W90555  24.115  20.596  12.459
18263W        W90556  22.119  15.764  13.368
18264W        W90557  26.188  43.942  10.939
18265W        W90558  40.812  38.934  12.845
18266W        W90559  30.497  19.066  13.415
18267W        W90560  13.234  44.833  10.515
18268W        W90561  31.488  18.092  14.383
18269W        W90562  34.441  26.619  12.545
18270W        W90563  25.192  18.160   1.877
18271W        W90564  31.896  38.468  12.371
18272W        W90565  30.464  10.700   2.850
18273W        W90566  36.848  15.725   3.272
18274W        W90567  10.812  24.099   0.258
18275W        W90568  39.437  43.890  14.886
18276W        W90569  22.595   6.820   4.136
18277W        W90570  12.754  19.171   3.222
18278W        W90571   3.904  12.241   2.809
18279W        W90572  16.761  37.984  12.986
18280W        W90573  16.247  10.690   2.206
18281W        W90574  22.524   6.220  12.823
18282W        W90575   4.797  15.654   4.600
18283W        W90576  19.625  19.066   4.727
18284W        W90577  34.940  33.988   1.868
18285W        W90578   7.265  37.862  13.806
18286W        W90579   9.211  44.754   4.634
18287W        W90580   2.457  27.540   4.318
18288W        W90581  38.864  16.659  11.508
18289W        W90582  16.171  26.094   0.327
18290W        W90583  11.260   4.878   0.900
18291W        W90584  35.508  34.923  10.500
18292W        W90585   2.950   9.268  14.871
18293W        W90586  44.390  35.909  11.437
18294W        W90587   1.818   5.385   0.777
18295W        W90588   4.234   2.363  11.106
18296W        W90589  15.211  22.696   0.849
18297W        W90590   4.218  28.974  13.915
18298W        W90591  27.978  32.126   1.309
18299W        W90592  20.153  38.934   3.692
18300W        W90593  41.911  20.741   3.337
18301W        W90594   0.856  21.043   5.238
18302W        W90595  30.484  31.505  10.634
18303W        W90596  44.989   3.915   4.248
18304W        W90597  32.413  10.196   0.764
18305W        W90598  36.065  33.579  10.537
18306W        W90599  33.561   0.884   2.257
18307W        W90600  13.170  20.115  12.004
18308W        W90601  11.771  17.670  11.399
18309W        W90602  16.672  33.933  12.091
18310W        W90603  20.536   0.811   3.178
18311W        W90604  29.068   6.363   0.891
18312W        W90605   8.307  14.125   0.894
18313W        W90606  43.461  27.024   1.787
18314W        W90607  25.585  22.086   4.162
18315W        W90608  32.464  37.500  11.998
18316W        W90609  25.014  16.230  11.040
18317W        W90610   4.208  32.888   3.209
18318W        W90611   0.420  16.742  11.959
18319W        W90612  11.315  14.330   1.410
18320W        W90613  43.378  10.168   1.210
18321W        W90614  30.429   6.854   0.417
18322W        W90615  19.533   0.362   0.926
18323W        W90616  24.191  31.561  11.857
18324W        W90617  26.975  34.975   4.258
18325W        W90618   6.738   1.250   3.222
18326W        W90619  13.713  37.544  10.963
18327W        W90620   4.406  19.199   0.311
18328W        W90621   4.764  40.809  13.009
18329W        W90622  40.465  13.130  10.519
18330W        W90623  24.533  15.181   3.290
18331W        W90624  39.359  31.993  10.132
18332W        W90625  30.135  15.709   3.645
18333W        W90626   3.300  40.905  12.921
18334W        W90627  22.249  26.052   1.301
18335W        W90628  42.513  34.999   9.997
18336W        W90629  38.987  28.044   4.174
18337W        W90630   2.949  44.753   1.277
18338W        W90631   3.446  13.336   2.323
18339W        W90632  43.457   9.382   4.808
18340W        W90633  13.350  22.683   3.657
18341W        W90634   7.850  11.763   3.343
18342W        W90635  25.970  20.081   4.820
18343W        W90636  38.981  33.960  14.827
18344W        W90637  38.879  20.217   3.327
18345W        W90638  36.037  33.599  14.837
18346W        W90639   3.866  23.489  12.494
18347W        W90640  40.392  33.081   2.852
18348W        W90641  21.720  17.230   0.281
18349W        W90642   6.259  25.976   2.872
18350W        W90643  42.444  29.059  13.412
18351W        W90644  15.671  22.708   0.425
18352W        W90645   3.262  30.926  12.459
18353W        W90646  23.679  21.223   0.758
18354W        W90647  21.217  28.552  11.503
18355W        W90648  40.389  36.480   1.716
18356W        W90649  27.479  37.478   2.857
18357W        W90650  44.420  33.564   1.716
18358W        W90651  27.610  10.675  13.857
18359W        W90652  16.661  15.655  13.964
18360W        W90653  33.078  15.587   3.365
18361W        W90654   4.262   6.916   2.865
18362W        W90655   9.327  27.168  12.542
18363W        W90656  30.623   7.190  12.535
18364W        W90657  15.639  35.507   2.196
18365W        W90658   3.817  13.743   4.650
18366W        W90659   6.834  37.084   0.726
18367W        W90660   1.951  32.414   3.161
18368W        W90661  31.912  15.593   4.284
18369W        W90662   5.895  13.263   1.353
18370W        W90663  42.324  41.964  13.933
18371W        W90664   3.907   6.362   3.379
18372W        W90665  22.170   7.266  14.452
18373W        W90666  26.527  39.460  12.378
18374W        W90667  25.109  17.162  14.917
18375W        W90668  40.900  34.919  11.993
18376W        W90669  38.569  18.085  13.460
18377W        W90670  19.101   9.349  12.991
18378W        W90671  30.585  43.919   4.670
18379W        W90672  32.432  12.193   1.885
18380W        W90673  23.733  34.506   2.763
18381W        W90674  30.082  31.113   2.884
18382W        W90675  27.181  21.610   1.892
18383W        W90676  34.967  34.010  12.546
18384W        W90677  23.613  42.990   4.209
18385W        W90678  20.197  42.372  12.878
18386W        W90679   7.888  17.248  10.501
18387W        W90680  33.598   6.797  14.466
18388W        W90681   2.881  44.960  13.945
18389W        W90682  40.319  11.637   4.734
18390W        W90683  21.668  32.929  10.543
18391W        W90684  38.479   5.210   4.685
18392W        W90685  28.586  10.384   2.897
18393W        W90686  22.648  40.524   4.294
18394W        W90687  25.090   6.338   3.179
18395W        W90688  44.310  24.559  12.059
18396W        W90689  33.123  27.448   0.737
18397W        W90690  15.169  33.561  12.348
18398W        W90691   5.785  21.615   2.802
18399W        W90692  25.061  29.988  13.518
18400W        W90693  25.532  32.122   5.127
18401W        W90694  32.121   8.398   9.532
18402W        W90695  34.916  11.771   3.700
18403W        W90696  29.041   3.218  14.297
18404W        W90697  41.532   2.904   0.476
18405W        W90698  38.846  17.154  10.505
18406W        W90699   6.236  32.628   2.318
18407W        W90700  30.001  35.010  10.444
18408W        W90701  27.983  27.603  11.877
18409W        W90702  17.701  30.141   4.775
18410W        W90703  12.275  12.168   0.752
18411W        W90704  13.135  17.185   0.400
18412W        W90705   1.973  14.641   2.784
18413W        W90706  26.483   3.240  13.339
18414W        W90707  16.203   8.787  14.499
18415W        W90708  31.150   4.779   3.781
18416W        W90709  11.172   4.411  12.022
18417W        W90710  26.595  37.409   1.211
18418W        W90711  30.599  37.578  12.938
18419W        W90712   3.883  23.219  11.412
18420W        W90713  34.043  12.123  14.007
18421W        W90714   3.910  28.183  12.833
18422W        W90715   9.352   1.412   1.327
18423W        W90716  22.093  43.941   3.736
18424W        W90717   4.829   8.799   2.780
18425W        W90718  15.119  19.043   4.765
18426W        W90719   0.314  31.466  13.323
18427W        W90720  15.210  40.883   2.232
18428W        W90721   9.689  16.807  12.892
18429W        W90722  36.430  37.972  14.457
18430W        W90723  27.544  17.647  13.365
18431W        W90724  12.159  24.648  10.478
18432W        W90725   4.320  33.454  14.446
18433W        W90726   3.407  32.986   9.967
18434W        W90727   9.313  11.338   1.694
18435W        W90728  16.084  16.198  13.422
18436W        W90729  37.525  29.144  10.985
18437W        W90730   4.354   1.749  12.071
18438W        W90731  20.555   5.716   2.882
18439W        W90732  18.219   8.178   2.234
18440W        W90733  36.037  37.982  12.502
18441W        W90734   3.426   8.715   1.738
18442W        W90735  10.872   7.742   2.417
18443W        W90736  17.276  14.807   4.147
18444W        W90737  36.413  22.726   1.323
18445W        W90738   7.763  37.064  11.452
18446W        W90739  42.428   2.395   3.775
18447W        W90740  25.606  34.070   4.208
18448W        W90741  41.008  35.024  10.984
18449W        W90742  36.078  22.196   1.312
18450W        W90743  24.089  37.407   3.314
18451W        W90744  32.571  28.484  12.411
18452W        W90745   2.290  17.663  14.850
18453W        W90746  30.162  13.153  11.879
18454W        W90747  17.134  16.162   0.287
18455W        W90748  10.837  35.955  11.044
18456W        W90749  19.236  25.102   0.963
18457W        W90750   4.239  41.450  13.014
18458W        W90751  42.925   5.425   4.832
18459W        W90752   6.770  21.687  11.543
18460W        W90753  24.609  27.027   4.171
18461W        W90754  40.351   1.303  11.078
18462W        W90755  14.651  19.120  14.895
18463W        W90756  36.967  20.231  14.822
18464W        W90757  23.041  25.103  11.880
18465W        W90758  21.675  16.275  14.470
18466W        W90759  21.614   2.307  11.097
18467W        W90760   4.233  36.952   4.754
18468W        W90761   0.923   8.848   0.295
18469W        W90762   5.364  17.591   4.837
18470W        W90763  23.667   6.814   3.371
18471W        W90764  10.699  12.762  13.323
18472W        W90765  29.626   8.317  12.357
18473W        W90766  24.156  16.666   4.828
18474W        W90767  32.608  24.712  13.806
18475W        W90768  33.997  14.238   2.665
18476W        W90769  40.356  43.824  14.839
18477W        W90770  33.570  33.483  12.569
18478W        W90771  36.540  16.810  10.552
18479W        W90772  31.038  24.532   0.847
18480W        W90773   0.466  13.151  14.292
18481W        W90774  18.777  21.586  10.427
18482W        W90775   4.818  40.361  11.098
18483W        W90776  15.207  26.669   5.113
18484W        W90777  12.725   0.927   4.648
18485W        W90778  23.657  44.318  14.432
18486W        W90779  11.674  34.117   3.236
18487W        W90780  14.130  15.321  14.346
18488W        W90781  30.552   5.285  12.486
18489W        W90782   1.835  21.140   0.750
18490W        W90783  40.880  12.188  12.566
18491W        W90784   6.374  33.534   4.209
18492W        W90785   0.977  38.484  10.890
18493W        W90786  32.951   5.840  12.836
18494W        W90787   2.736  16.125  13.421
18495W        W90788  30.148  38.967  13.442
18496W        W90789  17.797  21.238   2.193
18497W        W90790  35.594  23.573   2.352
18498W        W90791  14.110   2.410   1.768
18499W        W90792  37.015  16.180  11.540
18500W        W90793  29.969  19.116   4.745
18501W        W90794  35.091  38.067   1.220
18502W        W90795  10.807  34.495   0.431
18503W        W90796  22.247  10.780   0.371
18504W        W90797  30.527  39.824   2.829
18505W        W90798  36.357   4.709  10.084
18506W        W90799   8.239  24.227   0.854
18507W        W90800   7.317  33.521  11.550
18508W        W90801  34.943  25.167   3.313
18509W        W90802  18.143  20.572  12.947
18510W        W90803  38.865   9.705  10.920
18511W        W90804  39.357   6.360   4.267
18512W        W90805   1.745  26.998   4.693
18513W        W90806  42.793  13.735  11.568
18514W        W90807  23.087  35.450  10.908
18515W        W90808  12.651  25.038   3.349
18516W        W90809  21.128   4.418   4.234
18517W        W90810  29.588  29.923  10.458
18518W        W90811  15.266   6.408   0.365
18519W        W90812  36.008  21.582   3.810
18520W        W90813  37.431  11.252   3.779
18521W        W90814  41.880   2.727  12.918
18522W        W90815  19.734  19.237   4.130
18523W        W90816  34.046   5.386   2.268
18524W        W90817  10.633  34.040   3.323
18525W        W90818  22.160  41.463  10.497
18526W        W90819   1.811  15.677  11.879
18527W        W90820  16.101   3.320  14.764
18528W        W90821  18.160  23.490  14.428
18529W        W90822  17.120  14.613   2.275
18530W        W90823  37.944  15.664  10.544
18531W        W90824  44.975  32.892  10.100
18532W        W90825  30.019  34.884   2.197
18533W        W90826   7.707  27.533  13.367
18534W        W90827   0.444  13.681   3.299
18535W        W90828  40.953  21.176   4.622
18536W        W90829  23.727  34.019  11.037
18537W        W90830  12.679  39.056  11.443
18538W        W90831  33.021   0.814   2.784
18539W        W90832  21.692  36.032  12.848
18540W        W90833  31.098  15.327   4.837
18541W        W90834  17.796   2.450  11.463
18542W        W90835  41.487  21.196  11.944
18543W        W90836   3.350  39.004  14.953
18544W        W90837  32.452  15.223  13.004
18545W        W90838  39.425  34.549  11.929
18546W        W90839   8.708  22.088  12.948
18547W        W90840  28.039  18.237  12.962
18548W        W90841  24.210  19.279  13.459
18549W        W90842   3.353  21.603  12.389
18550W        W90843  28.464  26.578   3.721
18551W        W90844  40.385   8.383   4.739
18552W        W90845  26.487  14.651  14.936
18553W        W90846  30.596  38.476   2.408
18554W        W90847  43.896   7.316   0.919
18555W        W90848  34.114  29.451   4.211
18556W        W90849  14.775   5.883   0.826
18557W        W90850   1.911  35.457  13.445
18558W        W90851  25.110  27.449  12.494
18559W        W90852  32.450   4.415   4.196
18560W        W90853  31.910   0.877   1.330
18561W        W90854  22.246  24.709   0.781
18562W        W90855  16.747   9.756  13.832
18563W        W90856  23.724  27.036   3.706
18564W        W90857   8.401  19.563  14.952
18565W        W90858  11.830   9.217   2.241
18566W        W90859  44.438  41.323   5.086
18567W        W90860  21.192  42.504   1.234
18568W        W90861  32.481  38.048  11.126
18569W        W90862   5.771  19.590   3.657
18570W        W90863  38.494   7.851  10.493
18571W        W90864   5.911  29.502   3.367
18572W        W90865  32.086  33.565  13.003
18573W        W90866  16.589   0.952  12.380
18574W        W90867  10.272  10.761   3.358
18575W        W90868  35.884  15.224   4.615
18576W        W90869  36.449   8.679   4.806
18577W        W90870  44.994  35.901   2.229
18578W        W90871  24.134  41.841   1.341
18579W        W90872   3.459   6.359  11.408
18580W        W90873  40.024   8.745   2.895
18581W        W90874   9.759  20.243  13.829
18582W        W90875  44.993  10.233  11.059
18583W        W90876  44.438  41.829  14.920
18584W        W90877  15.266  26.663   4.769
18585W        W90878  38.537  15.234  13.344
18586W        W90879   2.892  25.533  11.064
18587W        W90880  22.560   1.459  12.446
18588W        W90881  36.583   6.185  12.410
18589W        W90882   0.369  41.797  10.495
18590W        W90883  39.347  11.196  13.838
18591W        W90884  12.783  16.734  12.533
18592W        W90885   3.216  21.176   3.806
18593W        W90886  22.621  20.744   4.245
18594W        W90887  11.776  20.175  10.486
18595W        W90888   9.860   3.838   4.629
18596W        W90889  16.177  11.275   3.750
18597W        W90890  34.941   8.684   3.752
18598W        W90891  32.071  22.641  14.512
18599W        W90892  28.126  15.216   2.381
18600W        W90893  22.244   0.935   2.853
18601W        W90894  11.784  30.137   4.171
18602W        W90895  20.710  32.075   1.767
18603W        W90896  25.692  38.027  11.036
18604W        W90897   7.747   0.408  14.868
18605W        W90898  31.067  42.982   0.348
18606W        W90899  24.207   4.340  12.845
18607W        W90900   5.365  19.069  12.054
18608W        W90901  16.572  41.970   3.665
18609W        W90902  15.260  36.924  14.382
18610W        W90903   7.883  29.428   1.779
18611W        W90904  35.076  37.075   2.260
18612W        W90905  21.654  11.167   0.939
18613W        W90906   8.860  17.759  10.481
18614W        W90907   0.765  27.452  13.838
18615W        W90908  30.075   7.366   4.154
18616W        W90909  22.678   1.964  13.346
18617W        W90910  14.323   5.197  10.067
18618W        W90911   3.437  40.540  11.564
18619W        W90912   4.769  18.241   1.730
18620W        W90913   5.308  30.432  11.501
18621W        W90914   2.444  22.080   2.765
18622W        W90915  15.625  36.891   0.278
18623W        W90916   7.873  19.753   5.291
18624W        W90917  43.847  27.161   2.722
18625W        W90918  18.085  11.689   0.735
18626W        W90919  17.757  25.691  14.027
18627W        W90920   1.941   2.405  13.480
18628W        W90921  26.564  38.004  13.921
18629W        W90922  34.475  20.075  10.959
18630W        W90923  31.102  32.099   2.364
18631W        W90924  36.964  26.964   3.648
18632W        W90925  32.617  24.523  12.411
18633W        W90926  37.570   0.249   2.388
18634W        W90927   6.185  24.050   5.305
18635W        W90928  14.170   2.763  14.005
18636W        W90929   7.765  40.847  12.358
18637W        W90930  22.243  11.792  11.414
18638W        W90931  17.123  10.723   0.781
18639W        W90932  26.154   5.932   4.601
18640W        W90933   5.349  26.560  13.895
18641W        W90934  41.918   7.802  12.454
18642W        W90935  19.122   2.935  14.875
18643W        W90936  31.594  38.894   3.866
18644W        W90937  38.368  23.140   2.823
18645W        W90938  16.802  26.034  11.072
18646W        W90939  32.578   9.720   2.807
18647W        W90940   6.247   4.699   9.945
18648W        W90941  11.189  34.405   0.875
18649W        W90942   6.892  30.959  13.865
18650W        W90943  16.752  25.610   1.286
18651W        W90944  38.845  20.143   4.813
18652W        W90945   9.167  15.252   2.220
18653W        W90946  22.135  41.481  11.602
18654W        W90947  33.515  32.626   4.169
18655W        W90948  15.685  44.777   0.272
18656W        W90949  14.158  14.636   0.417
18657W        W90950  12.314  16.179  12.933
18658W        W90951  13.187  31.606  10.555
18659W        W90952  36.363  18.195   3.240
18660W        W90953   5.415   2.912   4.726
18661W        W90954  20.081  32.614   2.771
18662W        W90955  21.652  24.629   2.870
18663W        W90956  30.001  11.635  13.050
18664W        W90957  24.510  11.812  12.435
18665W        W90958  29.496  36.408   3.185
18666W        W90959  17.575  30.614   4.254
18667W        W90960  24.665  30.526   2.747
18668W        W90961  36.956  20.148  10.974
18669W        W90962   1.892  42.389   2.852
18670W        W90963  10.178  35.967   1.280
18671W        W90964  37.947  10.759   4.297
18672W        W90965   2.345   0.466  13.402
18673W        W90966  13.182   6.258   1.899
18674W        W90967  27.098  38.075  11.409
18675W        W90968  27.599   9.785   3.696
18676W        W90969  14.282   9.757  13.336
18677W        W90970  15.606  21.173  10.976
18678W        W90971  44.333  38.918  13.948
18679W        W90972  26.048  23.690  12.568
18680W        W90973  29.646  43.809   2.217
18681W        W90974   2.234  39.891   3.305
18682W        W90975  37.428  35.363   0.902
18683W        W90976  42.517  16.593  14.475
18684W        W90977  34.880  11.852   4.160
18685W        W90978   2.754   2.849   1.349
18686W        W90979   9.720  19.697  12.522
18687W        W90980  27.953  35.873  14.031
18688W        W90981   5.194  40.393  12.376
18689W        W90982  21.216  17.584   2.245
18690W        W90983  24.498  31.584  14.277
18691W        W90984  39.410  37.967   4.161
18692W        W90985  26.121  33.554   2.870
18693W        W90986  44.417   8.738   1.316
18694W        W90987   5.255  13.227  12.560
18695W        W90988   2.456  37.053   4.149
18696W        W90989  44.385   6.348   5.283
18697W        W90990  33.449  35.600  14.929
18698W        W90991  40.895   2.284  11.924
18699W        W90992  18.276  22.564   0.920
18700W        W90993  12.281  30.993  12.866
18701W        W90994  20.678  25.065   1.405
18702W        W90995  19.625  15.617   3.694
18703W        W90996  12.747  38.403  13.518
18704W        W90997   7.868  30.488  10.132
18705W        W90998  44.447   9.882  13.791
18706W        W90999  44.357  16.734   9.540
18707W        W91000  37.861  25.478  12.009
18708W        W91001  35.929  19.247   1.400
18709W        W91002  26.695  21.639   3.223
18710W        W91003   9.849  17.109   1.871
18711W        W91004  32.465   4.248   3.354
18712W        W91005  38.921  31.117  12.044
18713W        W91006   9.778  11.804   0.476
18714W        W91007  35.552  40.447   0.852
18715W        W91008  36.569  20.167  11.408
18716W        W91009   4.360  21.683   4.194
18717W        W91010  25.157   4.888  12.427
18718W        W91011   0.857  17.175   4.208
18719W        W91012  22.151  12.260   0.258
18720W        W91013   9.837  21.581  10.440
18721W        W91014   5.866   0.788   1.906
18722W        W91015   4.844   7.279  11.454
18723W        W91016  14.289  24.118   5.261
18724W        W91017  13.713  41.982   4.146
18725W        W91018   2.343  36.436  11.104
18726W        W91019  33.379  34.992   0.747
18727W        W91020  30.565  22.010   1.353
18728W        W91021   8.698  31.565   0.281
18729W        W91022   6.295   3.789   0.858
18730W        W91023  34.613  24.658  13.483
18731W        W91024  40.838  18.128  11.524
18732W        W91025  22.525  42.799   4.341
18733W        W91026  14.200  33.618   3.213
18734W        W91027  17.707  23.726  10.474
18735W        W91028  34.110  24.547   0.732
18736W        W91029  33.468   2.265  11.594
18737W        W91030   6.898  23.198   4.684
18738W        W91031   8.366  42.924  14.927
18739W        W91032  35.965  33.544   3.383
18740W        W91033  44.904  35.940   1.451
18741W        W91034   7.387  30.503   0.280
18742W        W91035  31.454  20.174  13.469
18743W        W91036  38.963  15.788   0.806
18744W        W91037  33.502  32.937   1.324
18745W        W91038  43.938  30.098   2.351
18746W        W91039  41.485  32.539   3.698
18747W        W91040  16.144  43.865   2.694
18748W        W91041  14.208  38.352  11.484
18749W        W91042  22.612  42.913  14.458
18750W        W91043  42.785  29.584  10.532
18751W        W91044  11.789   7.310   9.974
18752W        W91045  14.241  27.477   2.844
18753W        W91046  21.246  22.505  11.950
18754W        W91047  23.182  31.644   2.898
18755W        W91048  18.736  25.579  10.957
18756W        W91049  14.734  18.180   0.321
18757W        W91050   6.407   9.753  10.474
18758W        W91051  22.720   5.351   2.754
18759W        W91052   3.909   5.231  14.971
18760W        W91053  25.111  12.849   1.784
18761W        W91054  22.198  40.804  13.005
18762W        W91055  31.006   8.291  13.526
18763W        W91056  16.233  22.246  13.911
18764W        W91057   8.358  42.785  13.023
18765W        W91058  38.057  16.650  10.403
18766W        W91059  24.669  20.083   1.269
18767W        W91060  28.529   6.854  11.457
18768W        W91061  27.136   4.205  14.986
18769W        W91062  37.881  33.396  11.496
18770W        W91063  20.218  22.184   0.882
18771W        W91064   8.897  28.034  13.412
18772W        W91065  31.557  23.034  14.461
18773W        W91066  31.538  28.083  11.481
18774W        W91067  19.698   9.160   1.816
18775W        W91068  17.621  13.630   3.302
18776W        W91069   1.276  16.694  13.795
18777W        W91070   3.434   8.273  11.061
18778W        W91071  34.552  13.237   0.259
18779W        W91072  39.858   4.801  13.012
18780W        W91073  13.219  44.958  13.019
18781W        W91074  26.470  36.378  14.407
18782W        W91075   9.721  16.237  14.019
18783W        W91076  18.735  15.695   3.701
18784W        W91077   5.405   2.425   3.196
18785W        W91078  11.776  14.144  14.456
18786W        W91079  17.622  18.609   1.877
18787W        W91080   0.920  22.061   4.205
18788W        W91081  15.710  42.409  14.407
18789W        W91082  32.427  35.415  13.319
18790W        W91083   6.428  25.545   3.692
18791W        W91084  34.433   9.742   3.276
18792W        W91085   2.272   3.238   0.862
18793W        W91086   9.329  13.729   2.290
18794W        W91087  22.591  33.399   1.331
18795W        W91088  35.543  20.760   3.645
18796W        W91089  35.089   9.656   4.723
18797W        W91090  19.202  43.984   1.444
18798W        W91091  24.689  33.044  10.904
18799W        W91092  24.137  18.708  12.442
18800W        W91093  15.102   3.791  10.510
18801W        W91094  19.194  28.156  13.835
18802W        W91095   8.756   9.681   1.396
18803W        W91096  37.465   9.156  11.117
18804W        W91097  44.502  40.885   4.332
18805W        W91098  36.085  18.700   2.366
18806W        W91099  14.204  41.857  11.875
18807W        W91100  10.830   6.677  13.811
18808W        W91101  42.317  44.901   0.316
18809W        W91102  23.180  25.639  12.346
18810W        W91103  14.133  33.519   0.881
18811W        W91104  11.218  24.156   4.673
18812W        W91105  16.690  18.576  11.967
18813W        W91106  32.895  43.303  10.506
18814W        W91107  12.721  40.458   2.242
18815W        W91108  16.195  20.653   1.215
18816W        W91109  12.700  15.230  12.452
18817W        W91110  13.304  36.972   1.356
18818W        W91111  32.900  41.019   0.774
18819W        W91112  22.722  31.466   1.705
18820W        W91113   3.954  24.581  12.524
18821W        W91114  31.485   2.783   3.338
18822W        W91115  27.010  17.235   2.256
18823W        W91116  22.664  14.268  14.831
18824W        W91117  38.496  29.170  11.374
18825W        W91118  30.920  28.052  11.020
18826W        W91119  39.981   8.372  11.921
18827W        W91120   5.784  27.511   1.776
18828W        W91121   5.241   4.841  11.540
18829W        W91122  37.042  20.546   1.302
18830W        W91123  11.224  43.908  12.870
18831W        W91124   7.710  41.464  12.383
18832W        W91125  39.336   3.410  13.036
18833W        W91126  14.650   5.216  11.464
18834W        W91127   2.415  27.038  14.427
18835W        W91128  34.442  38.428  11.397
18836W        W91129  33.996   6.187   4.693
18837W        W91130  28.646  41.801  12.546
18838W        W91131  30.494  37.919   0.296
18839W        W91132  42.287  29.504   3.685
18840W        W91133   9.800  26.522  13.455
18841W        W91134   3.307   8.174  14.401
18842W        W91135  17.635  34.454  14.922
18843W        W91136   7.360  27.520  13.433
18844W        W91137   9.170  27.526   2.890
18845W        W91138   5.246  20.273  14.459
18846W        W91139  14.663  23.006   3.683
18847W        W91140  35.365  21.123  13.450
18848W        W91141   5.359  22.145  11.576
18849W        W91142   4.856  26.469  10.968
18850W        W91143  34.522  36.456   4.190
18851W        W91144  19.192   9.227   3.722
18852W        W91145  15.816   7.785   4.837
18853W        W91146  37.933  24.145  12.851
18854W        W91147  40.827  27.476  14.285
18855W        W91148  16.253   7.346   1.333
18856W        W91149  31.559   7.357   1.743
18857W        W91150  34.596  24.628   0.854
18858W        W91151  40.833   4.731   4.789
18859W        W91152  26.682  38.400  14.799
18860W        W91153  25.181   1.976   0.950
18861W        W91154  37.852  14.667  12.415
18862W        W91155  36.849   2.452   2.704
18863W        W91156   5.227   5.322   2.832
18864W        W91157  40.969  28.955   3.242
18865W        W91158  20.057  17.646   0.467
18866W        W91159  23.600  19.186  12.923
18867W        W91160  10.162  15.739   4.673
18868W        W91161  37.421  37.366   2.681
18869W        W91162  32.997  27.992  11.993
18870W        W91163  19.579  35.946  14.514
18871W        W91164  44.347  22.135  13.843
18872W        W91165  27.631  40.919  10.975
18873W        W91166  24.706  11.167  14.470
18874W        W91167  31.053   8.199   4.714
18875W        W91168  34.473  31.113   0.329
18876W        W91169  29.576  36.925   3.780
18877W        W91170  42.005  35.051   0.263
18878W        W91171  18.680  31.899  12.406
18879W        W91172  31.443  34.973  13.330
18880W        W91173  33.040   4.885   4.118
18881W        W91174   6.214  10.200   0.398
18882W        W91175  22.203  38.879   3.765
18883W        W91176  13.842  17.251  11.970
18884W        W91177  22.635  20.609  13.456
18885W        W91178   2.326  42.360   3.370
18886W        W91179   7.770  30.474  13.943
18887W        W91180  22.513  29.012  12.412
18888W        W91181  33.084  38.039   1.750
18889W        W91182  13.282  25.077  13.443
18890W        W91183  10.216  30.556   4.325
18891W        W91184   4.726   4.868   0.403
18892W        W91185  20.137   4.322  11.056
18893W        W91186  33.124  10.657  14.764
18894W        W91187   1.316  18.630  12.402
18895W        W91188   6.870  30.493  10.420
18896W        W91189  23.552  17.163  11.949
18897W        W91190   9.691  22.078   1.245
18898W        W91191  15.300  34.519  10.508
18899W        W91192  39.980  15.752   4.740
18900W        W91193  10.688   4.288   1.415
18901W        W91194   3.863   6.686   2.395
18902W        W91195  44.876  15.711  14.370
18903W        W91196  41.476  16.218  13.018
18904W        W91197  18.620  26.089   3.207
18905W        W91198  19.235   4.760   0.248
18906W        W91199  41.361  23.613   1.210
18907W        W91200  43.979   3.305  13.347
18908W        W91201   8.328  28.535   2.718
18909W        W91202  29.105   7.676   2.384
18910W        W91203  24.093  11.311  11.464
18911W        W91204  19.255  33.070   0.820
18912W        W91205  31.902  18.297   1.250
18913W        W91206  10.306  23.163   3.767
18914W        W91207  19.717  25.589   3.638
18915W        W91208   3.340   2.926  10.439
18916W        W91209   4.770  23.676   0.934
18917W        W91210  26.119   1.287  11.556
18918W        W91211  43.512  33.444  11.981
18919W        W91212  26.575  38.562  11.074
18920W        W91213  42.890  10.339  10.099
18921W        W91214  40.457  21.549  11.456
18922W        W91215  26.108  14.139   2.737
18923W        W91216  37.394  17.695  11.403
18924W        W91217  33.621  16.791   1.432
18925W        W91218  20.631  20.675   4.326
18926W        W91219   3.715  40.489   4.778
18927W        W91220  17.751  25.107   4.694
18928W        W91221   5.371  43.359   0.431
18929W        W91222  27.119  23.144  11.069
18930W        W91223  16.769  42.416   0.452
18931W        W91224  20.599  41.011  10.936
18932W        W91225  41.321  29.657   0.934
18933W        W91226  35.580   6.214   2.689
18934W        W91227   9.267  31.627   4.141
18935W        W91228   6.788  33.044  14.475
18936W        W91229  24.669   4.725   4.722
18937W        W91230   8.221  39.407  13.530
18938W        W91231  32.090  40.806  12.491
18939W        W91232  13.311   4.284   3.184
18940W        W91233  23.505  30.513   2.268
18941W        W91234   7.415   9.752   4.797
18942W        W91235  26.528  37.571   4.696
18943W        W91236  17.768  42.494   0.784
18944W        W91237  14.638  22.148   1.306
18945W        W91238  28.653  42.393  11.535
18946W        W91239  19.076  22.145  14.980
18947W        W91240  41.790   7.351   4.271
18948W        W91241  27.554  16.162  14.486
18949W        W91242  17.086   7.363   2.295
18950W        W91243   0.356  25.575  13.894
18951W        W91244  37.384  23.999   3.362
18952W        W91245   3.851  29.503   2.888
18953W        W91246   2.844  28.460  11.522
18954W        W91247  14.712  37.439  11.493
18955W        W91248  13.162  32.075   4.225
18956W        W91249  28.445  36.079  11.480
18957W        W91250   2.908  22.242   3.842
18958W        W91251  21.654  41.421   1.922
18959W        W91252   5.796  15.122  12.901
18960W        W91253  43.903  27.675   3.283
18961W        W91254   0.769  29.105  11.058
18962W        W91255  27.976  38.522  11.520
18963W        W91256  12.271   0.912   3.177
18964W        W91257  19.625   8.260  13.393
18965W        W91258  18.782  41.307   4.812
18966W        W91259  18.221  11.778   1.300
18967W        W91260  29.548  31.456  14.298
18968W        W91261  17.581  15.301  13.510
18969W        W91262  37.003   2.799  13.059
18970W        W91263  18.631  26.151   2.820
18971W        W91264  26.599  28.174  11.564
18972W        W91265   2.901  28.108  11.527
18973W        W91266  26.674  44.766   4.774
18974W        W91267  29.514  40.010   2.767
18975W        W91268  27.057  14.177  11.066
18976W        W91269   4.256  33.469   4.327
18977W        W91270  10.352  10.641  11.378
18978W        W91271  12.179  43.847  13.986
18979W        W91272  41.506   6.255  10.600
18980W        W91273  39.016  42.284  13.500
18981W        W91274   6.348  13.826  14.975
18982W        W91275   7.326  20.270   3.819
18983W        W91276  20.759  44.322  14.358
18984W        W91277  37.543  22.080   0.956
18985W        W91278  23.031  21.055  14.395
18986W        W91279   1.376   4.262   0.885
18987W        W91280  10.261  22.108  12.404
18988W        W91281  43.008  36.563   2.391
18989W        W91282  40.851  43.919  14.877
18990W        W91283  31.517  18.176  13.496
18991W        W91284  12.854  23.019  10.409
18992W        W91285  16.290  12.205   2.763
18993W        W91286  41.817  26.992   1.430
18994W        W91287  16.731  17.575  14.290
18995W        W91288  11.837   6.196  10.004
18996W        W91289  17.235  13.228   0.289
18997W        W91290  43.951  27.969  13.441
18998W        W91291   8.339  17.608  13.002
18999W        W91292  44.421   9.167  12.856
19000W        W91293  19.669  17.230   4.148
19001W        W91294  20.645  40.369   3.690
19002W        W91295  37.360  27.542   3.807
19003W        W91296  21.193  10.731  13.922
19004W        W91297  12.208   4.775   2.251
19005W        W91298   7.673   4.723  11.419
19006W        W91299  23.625  15.804   0.832
19007W        W91300   7.373  17.792  14.478
19008W        W91301  24.156   7.739   2.819
19009W        W91302  13.186  26.048  12.424
19010W        W91303  18.250  24.980  10.578
19011W        W91304  23.597  33.123  13.429
19012W        W91305  20.206  33.386  11.525
19013W        W91306  10.837  20.612  10.450
19014W        W91307  39.391  21.584  13.901
19015W        W91308   5.694  15.613  13.339
19016W        W91309   5.411   7.778   4.275
19017W        W91310   4.917  31.458  13.946
19018W        W91311   3.299  44.011   3.825
19019W        W91312  35.873  30.056   1.260
19020W        W91313  15.230   7.389  14.378
19021W        W91314  34.913   1.744   2.354
19022W        W91315  16.751  16.312  11.557
19023W        W91316   9.207  43.838  13.313
19024W        W91317  43.906  25.007   0.397
19025W        W91318  25.706  16.813  10.960
19026W        W91319  44.793  19.753  13.834
19027W        W91320  35.564  18.626   3.210
19028W        W91321  18.284  25.100   1.408
19029W        W91322  21.136  14.221   2.890
19030W        W91323  15.750  12.133   2.760
19031W        W91324   2.758  32.964  11.424
19032W        W91325  44.836  19.285   9.665
19033W        W91326  34.548   5.391   4.169
19034W        W91327  17.249  20.692  14.383
19035W        W91328  13.157  14.122   0.406
19036W        W91329  22.152  29.128   1.794
19037W        W91330   2.450  31.997   5.127
19038W        W91331  36.482   8.805   5.217
19039W        W91332  13.205   9.383  13.949
19040W        W91333  43.818  15.780  14.322
19041W        W91334  25.630   3.349   4.245
19042W        W91335  19.170  42.002  14.488
19043W        W91336  37.338  35.852  13.063
19044W        W91337  39.926   8.876   3.255
19045W        W91338  42.493  41.378  14.380
19046W        W91339  22.566  25.559   2.266
19047W        W91340  25.152  41.365  10.982
19048W        W91341  34.052  37.535   4.782
19049W        W91342  25.670   9.163   4.247
19050W        W91343  43.892  13.315   2.848
19051W        W91344  14.802   7.345   3.782
19052W        W91345  42.478  28.941   3.703
19053W        W91346  29.000  37.565   1.266
19054W        W91347  27.544  17.641   3.330
19055W        W91348  15.795  22.607  14.892
19056W        W91349  33.415  26.978   3.764
19057W        W91350  30.468  28.475   2.337
19058W        W91351   0.259   9.313   3.145
19059W        W91352  44.451  39.949  14.899
19060W        W91353  15.808   6.729   1.744
19061W        W91354  20.608  13.327   2.686
19062W        W91355  29.003  11.701   3.165
19063W        W91356  29.015  20.702   4.723
19064W        W91357  32.520  43.927   0.752
19065W        W91358  41.853  37.426  14.290
19066W        W91359  24.605  14.805  10.964
19067W        W91360  21.188  43.476   3.753
19068W        W91361  18.195  39.388   4.314
19069W        W91362  12.360  13.132  14.870
19070W        W91363  11.247  35.474  10.582
19071W        W91364  34.019  28.042  12.084
19072W        W91365  36.520   0.324  13.833
19073W        W91366  42.303  19.134   4.199
19074W        W91367  16.595   2.291   3.655
19075W        W91368  13.738  43.325  12.842
19076W        W91369  16.706  43.896   4.168
19077W        W91370  22.068  25.470   0.778
19078W        W91371   8.302  24.049  11.433
19079W        W91372  14.145   4.867   3.755
19080W        W91373  18.783  26.022  10.900
19081W        W91374  23.556   5.290  10.443
19082W        W91375   1.398  39.324   0.834
19083W        W91376  14.134   0.479   0.909
19084W        W91377  35.034  10.362  10.072
19085W        W91378  42.029   0.778  11.596
19086W        W91379  42.473  28.455  10.944
19087W        W91380  29.575   7.685   3.835
19088W        W91381   0.326  26.512  14.478
19089W        W91382  21.040  32.583   1.706
19090W        W91383  43.343  17.081   1.313
19091W        W91384  41.929  34.535   3.204
19092W        W91385   5.423  38.828   0.450
19093W        W91386  17.791  36.489   1.725
19094W        W91387  39.489  29.065   1.362
19095W        W91388  12.785   0.279   2.295
19096W        W91389  41.409  40.977  13.394
19097W        W91390  29.034  40.350   0.479
19098W        W91391   4.384  28.967  13.407
19099W        W91392  19.657   1.347   1.276
19100W        W91393  10.800  21.567  10.551
19101W        W91394   2.902  17.111  10.549
19102W        W91395   7.771  12.851   5.090
19103W        W91396  12.636  40.336  14.958
19104W        W91397  12.305  40.991   3.283
19105W        W91398  40.948  28.044  10.485
19106W        W91399  42.421   1.844   1.270
19107W        W91400  30.640  36.443  12.851
19108W        W91401   4.744  37.891   4.269
19109W        W91402  20.573  32.615   1.421
19110W        W91403  21.185   6.876   2.666
19111W        W91404  28.487  22.684  10.626
19112W        W91405  14.120  15.660   2.851
19113W        W91406  33.009  14.767  10.578
19114W        W91407  34.908  12.257  12.502
19115W        W91408   2.337   2.277  14.881
19116W        W91409  23.626  39.841  11.894
19117W        W91410  32.141  25.537   0.332
19118W        W91411  14.180  12.808   4.304
19119W        W91412  30.572  12.683   1.704
19120W        W91413  10.223  30.958   4.187
19121W        W91414  42.848  31.417  10.520
19122W        W91415  12.822  26.490  14.913
19123W        W91416  23.596   9.688   1.783
19124W        W91417  10.160  12.118   5.210
19125W        W91418   5.247   9.655   3.207
19126W        W91419  18.164  24.618   1.705
19127W        W91420  30.966  34.889  11.038
19128W        W91421  11.284   6.797  11.953
19129W        W91422  25.651  39.820  11.048
19130W        W91423  14.600   1.480   9.437
19131W        W91424  28.553  30.550  12.396
19132W        W91425  30.537  26.551   3.351
19133W        W91426  22.231  37.965   4.796
19134W        W91427   0.428  32.449  10.563
19135W        W91428  31.973  36.582  11.553
19136W        W91429  11.649  43.360   2.358
19137W        W91430  20.680  39.861   4.716
19138W        W91431  44.882  27.135  14.982
19139W        W91432  13.268  10.177  12.485
19140W        W91433   8.226  27.588   3.301
19141W        W91434  36.495  37.549   0.453
19142W        W91435  29.953  44.408  12.856
19143W        W91436  16.701  36.953  13.896
19144W        W91437  33.930  27.060   1.791
19145W        W91438   7.349  21.543   4.290
19146W        W91439  42.001  24.563  13.343
19147W        W91440  19.166  11.736  11.946
19148W        W91441  43.309   5.925  14.774
19149W        W91442  14.761  40.439   2.890
19150W        W91443  38.390  25.617  14.287
19151W        W91444  44.282  17.149   9.505
19152W        W91445   9.358  29.174   2.260
19153W        W91446  13.677  35.890   0.266
19154W        W91447   7.228   3.951  13.885
19155W        W91448  10.308   4.755  14.966
19156W        W91449  24.987  29.621   4.650
19157W        W91450  15.278  20.070   3.713
19158W        W91451  10.635  28.601   1.755
19159W        W91452  35.029  12.212   1.731
19160W        W91453   9.378  30.538   3.793
19161W        W91454  13.612  32.991  10.461
19162W        W91455  22.710   6.292   0.324
19163W        W91456  15.676  32.578   4.790
19164W        W91457  40.448  17.101   3.241
19165W        W91458  37.009  25.028  13.439
19166W        W91459  23.027   8.250  14.993
19167W        W91460   9.697  13.237  11.607
19168W        W91461  22.112   3.335   0.780
19169W        W91462  17.755  17.781  14.513
19170W        W91463   8.810  22.092   2.713
19171W        W91464  19.136  38.554   1.834
19172W        W91465  30.988  10.845  11.466
19173W        W91466   3.808  42.009   3.735
19174W        W91467   4.854  15.724   4.322
19175W        W91468  19.097  31.011   2.803
19176W        W91469  16.787  26.004  11.548
19177W        W91470  17.150  33.382  14.404
19178W        W91471   4.392  32.567  13.521
19179W        W91472  31.902  18.703  13.884
19180W        W91473  23.523  10.665   0.357
19181W        W91474  39.027   9.690   0.451
19182W        W91475  41.424  16.687  11.609
19183W        W91476   9.325  24.096   2.752
19184W        W91477  24.543  15.118  14.913
19185W        W91478  44.923  34.083  12.031
19186W        W91479   1.418  43.362   2.826
19187W        W91480   1.892   1.928  13.979
19188W        W91481  34.041  22.031   3.777
19189W        W91482  44.885  43.773  12.367
19190W        W91483  17.194  14.152  13.468
19191W        W91484  24.617  23.059   4.166
19192W        W91485  15.778   3.366  12.505
19193W        W91486  24.544  12.319  12.423
19194W        W91487   5.828  10.700  14.849
19195W        W91488  17.126  40.906  13.324
19196W        W91489  37.003   4.211  12.836
19197W        W91490  24.094   0.805  14.330
19198W        W91491   4.895  17.563   0.400
19199W        W91492  24.520   2.784   0.839
19200W        W91493  12.359   4.356   0.469
19201W        W91494   8.776  34.971  13.861
19202W        W91495  31.636   7.900   0.766
19203W        W91496  26.100  12.272   0.727
19204W        W91497  14.165  31.144   2.892
19205W        W91498   6.837   3.747   3.659
19206W        W91499   2.885   5.211  11.037
19207W        W91500  17.756  27.462   3.345
19208W        W91501  26.494  17.566   2.188
19209W        W91502   6.222   0.794  11.923
19210W        W91503   1.347  27.004  14.849
19211W        W91504  34.381  37.469  13.423
19212W        W91505  10.145   1.958   2.816
19213W        W91506  23.092  17.580   4.186
19214W        W91507  33.070  14.620  12.415
19215W        W91508  25.982  12.286   2.239
19216W        W91509  28.634  11.849   2.295
19217W        W91510   1.252   6.681  10.954
19218W        W91511  20.176   3.233  11.467
19219W        W91512  29.518   3.817  12.414
19220W        W91513  30.614  23.122  11.017
19221W        W91514  43.448  19.542  11.439
19222W        W91515  23.163   2.864   1.210
19223W        W91516  17.801  18.204  12.898
19224W        W91517  25.522  25.154   0.381
19225W        W91518  31.481  15.312  13.507
19226W        W91519  17.154   1.277  10.431
19227W        W91520  32.582  34.101   0.782
19228W        W91521   2.861  31.646   0.760
19229W        W91522  25.144  13.808   2.230
19230W        W91523  20.652  37.905   4.164
19231W        W91524  39.477  14.712  12.542
19232W        W91525   6.862  24.088  13.327
19233W        W91526  35.919  35.996   0.751
19234W        W91527  40.463   9.827  14.826
19235W        W91528   9.231  11.637   2.670
19236W        W91529   1.957  30.981   1.831
19237W        W91530   9.170  20.528  11.580
19238W        W91531  25.604   1.302   0.859
19239W        W91532  44.855   3.429   4.284
19240W        W91533   9.186  43.277  12.539
19241W        W91534  38.833   3.716  12.843
19242W        W91535   8.870  15.813  11.996
19243W        W91536   0.908  14.105   4.123
19244W        W91537  25.172  16.690  10.609
19245W        W91538  35.504  35.500  14.442
19246W        W91539   3.894  33.974  14.373
19247W        W91540   5.434   8.660   0.430
19248W        W91541  16.129   7.182   0.777
19249W        W91542  27.536  38.421   4.353
19250W        W91543  44.357   4.412  12.424
19251W        W91544  26.594   2.412   3.790
19252W        W91545   6.908  43.938  14.782
19253W        W91546  30.132  18.085   2.272
19254W        W91547  17.205  14.145  11.582
19255W        W91548  25.068  11.793   0.462
19256W        W91549  43.484  41.002   1.853
19257W        W91550  36.873  40.032  13.334
19258W        W91551   9.716  34.069  12.481
19259W        W91552  32.436   8.879   4.825
19260W        W91553  39.948   4.262   1.401
19261W        W91554  22.199  42.350   3.841
19262W        W91555  18.763  18.131  13.416
19263W        W91556  44.380   5.340   0.355
19264W        W91557   0.294  24.009   1.369
19265W        W91558  39.332   5.424   4.738
19266W        W91559  12.804   7.773  14.388
19267W        W91560   4.368  26.077  11.583
19268W        W91561   8.342  36.040  12.894
19269W        W91562   8.357  34.371   3.844
19270W        W91563   1.340   5.271   4.781
19271W        W91564   5.437  37.374  13.053
19272W        W91565  16.084  24.074  10.597
19273W        W91566  10.191   7.665  12.419
19274W        W91567  21.650  12.688  10.471
19275W        W91568  20.072  33.061  10.632
19276W        W91569  27.670  43.477  10.623
19277W        W91570   0.882  12.290  12.424
19278W        W91571  38.523  35.564  14.332
19279W        W91572  18.141  15.313   3.175
19280W        W91573   2.253   7.372  12.953
19281W        W91574  22.175  31.613   4.296
19282W        W91575  11.801  18.745   3.322
19283W        W91576  29.649  28.038   0.402
19284W        W91577   8.853  22.745  10.457
19285W        W91578   1.308   9.157  14.484
19286W        W91579  12.138  37.987   0.856
19287W        W91580  39.877   4.812   0.894
19288W        W91581  13.203  16.189  14.764
19289W        W91582  36.098  41.814  13.491
19290W        W91583  20.595  16.581  10.464
19291W        W91584  31.906  16.102   3.319
19292W        W91585   7.820  44.957   0.287
19293W        W91586  38.416  44.946  14.963
19294W        W91587  32.890  18.675   0.759
19295W        W91588   6.723  28.558  13.541
19296W        W91589   3.834  26.549  10.080
19297W        W91590  17.074  24.541  12.951
19298W        W91591  43.842  22.220  14.023
19299W        W91592  16.099  19.751   1.320
19300W        W91593   8.677  19.057   1.847
19301W        W91594   0.952  30.652  12.431
19302W        W91595  10.859  32.600   0.377
19303W        W91596  32.622  15.636  10.942
19304W        W91597   8.327  42.780  10.553
19305W        W91598   3.365   5.282  14.515
19306W        W91599  27.100  17.620  10.515
19307W        W91600  22.567  42.408  12.546
19308W        W91601  42.302  11.770  11.056
19309W        W91602  20.032   0.768  13.399
19310W        W91603  43.430  43.930   2.367
19311W        W91604  43.372  13.284  12.075
19312W        W91605  28.975  12.699  10.558
19313W        W91606  29.563  38.007  10.990
19314W        W91607  31.614  28.128  11.921
19315W        W91608   4.290  13.327  12.091
19316W        W91609  44.905  29.993  12.465
19317W        W91610   7.181  13.264   4.682
19318W        W91611  41.977   9.707  11.919
19319W        W91612  18.568  41.988   1.925
19320W        W91613  35.471  27.566  12.380
19321W        W91614  34.508  41.439  14.469
19322W        W91615   1.738  33.899   0.796
19323W        W91616  42.803  28.620  13.062
19324W        W91617  17.732  30.000   1.413
19325W        W91618  40.814  10.241  13.347
19326W        W91619  12.236  14.643   4.756
19327W        W91620  35.575  29.989  13.394
19328W        W91621  43.880   5.693  12.434
19329W        W91622  20.678  31.962   0.344
19330W        W91623  31.968   5.393   2.322
19331W        W91624   4.759  20.160  13.974
19332W        W91625   1.893  35.094   3.289
19333W        W91626  38.357  37.988  10.440
19334W        W91627  31.480  27.072   3.297
19335W        W91628  17.733  37.049   0.327
19336W        W91629  37.961   6.737  13.515
19337W        W91630  36.842  25.067   2.742
19338W        W91631  17.123  12.723   9.969
19339W        W91632  28.505   0.843  14.985
19340W        W91633  34.499  26.661  11.495
19341W        W91634  27.627   6.355   4.805
19342W        W91635  11.194  20.528  13.847
19343W        W91636  26.660  10.703   1.826
19344W        W91637  14.626   5.254   2.677
19345W        W91638  14.110  26.043  14.435
19346W        W91639  16.696  26.558  13.977
19347W        W91640  27.145  33.447   1.396
19348W        W91641  36.017   4.387   3.675
19349W        W91642   7.220  21.152  14.879
19350W        W91643  15.260  18.744  13.329
19351W        W91644  27.017  33.999   4.728
19352W        W91645   5.232  15.652  14.810
19353W        W91646  11.817  32.128   2.755
19354W        W91647  12.777   4.447   2.241
19355W        W91648   5.691  41.365  12.479
19356W        W91649  35.990  31.573  13.313
19357W        W91650  40.943   7.398  12.577
19358W        W91651  22.183  14.103  13.518
19359W        W91652  30.580   4.352   0.446
19360W        W91653   2.878  11.346   2.693
19361W        W91654  38.876   8.834   3.794
19362W        W91655  21.205  24.638  12.494
19363W        W91656   5.701  11.832   2.849
19364W        W91657  30.084  41.352  12.907
19365W        W91658  29.450  37.582   1.849
19366W        W91659  24.992   3.254  11.389
19367W        W91660   1.812  21.157   1.924
19368W        W91661  30.533  13.603   4.751
19369W        W91662  36.877   2.734   0.798
19370W        W91663  13.213  37.051  10.408
19371W        W91664   3.808  15.779   0.730
19372W        W91665  25.182  30.137  13.993
19373W        W91666  11.864  27.620   2.408
19374W        W91667  22.066  18.266   2.891
19375W        W91668  22.146  29.509   4.309
19376W        W91669  21.638  38.069   3.840
19377W        W91670  31.469   6.427   1.815
19378W        W91671  20.144  27.462   1.727
19379W        W91672   3.717   6.903   1.922
19380W        W91673  31.953  43.803   0.434
19381W        W91674  27.026  19.747   4.209
19382W        W91675   7.717   6.798  14.833
19383W        W91676  44.504  13.682  13.995
19384W        W91677  22.239   5.304  12.893
19385W        W91678   4.817   8.780   3.865
19386W        W91679  42.901  16.260  10.462
19387W        W91680  19.272  39.957  10.939
19388W        W91681  12.690  10.366   4.209
19389W        W91682  36.881   9.279  14.372
19390W        W91683  10.776  34.050   1.404
19391W        W91684  29.138  24.587   2.895
19392W        W91685  15.665  39.894  12.857
19393W        W91686   4.924  29.460   4.722
19394W        W91687  18.256  40.386  11.572
19395W        W91688  20.079  20.658   3.755
19396W        W91689  37.565   7.251  10.542
19397W        W91690  16.193  11.655   3.723
19398W        W91691   5.736  16.184  13.540
19399W        W91692  18.061  37.985   2.377
19400W        W91693  20.107  38.419  12.046
19401W        W91694   1.308  28.932  12.463
19402W        W91695  43.300  25.203   4.348
19403W        W91696  29.499   7.254   4.801
19404W        W91697  39.920  44.340   1.313
19405W        W91698   1.473   2.884   3.376
19406W        W91699  30.995  24.076   1.837
19407W        W91700  17.209  37.367   4.336
19408W        W91701   9.251  18.081   4.280
19409W        W91702  15.300   3.226  13.372
19410W        W91703  44.272  24.649   2.257
19411W        W91704  30.129  17.108  13.457
19412W        W91705   7.903  24.553   4.642
19413W        W91706   3.318  16.293  10.614
19414W        W91707  12.300  35.949   4.243
19415W        W91708  21.038  19.730   4.264
19416W        W91709  23.210  39.907  11.994
19417W        W91710  38.357  12.252  11.872
19418W        W91711  31.127  12.674   5.154
19419W        W91712  36.902  16.631   0.365
19420W        W91713  44.957   0.389  11.510
19421W        W91714  18.590   1.434  11.449
19422W        W91715  25.182  31.075  11.412
19423W        W91716  39.837  33.064  13.966
19424W        W91717  43.405  34.004   3.328
19425W        W91718  36.871  28.078  11.491
19426W        W91719  41.357  27.082  14.403
19427W        W91720  12.825  11.724  12.469
19428W        W91721  15.740  34.573  11.602
19429W        W91722  41.387  41.822   1.402
19430W        W91723  42.292  35.581   3.354
19431W        W91724  10.168   3.365  12.966
19432W        W91725   6.739   5.211   2.717
19433W        W91726  42.876  37.920  12.376
19434W        W91727  27.189  19.048   1.919
19435W        W91728   2.924  33.991   0.860
19436W        W91729  20.573  29.136   3.198
19437W        W91730  16.085  30.981   0.429
19438W        W91731  41.931   2.949   4.809
19439W        W91732  19.604   3.447   0.299
19440W        W91733   9.879  15.594   4.251
19441W        W91734  29.495   6.353   1.404
19442W        W91735   2.472  44.768   2.392
19443W        W91736  42.505   9.381  11.972
19444W        W91737   1.915  13.842   0.817
19445W        W91738  36.401  30.958  13.991
19446W        W91739   2.290  28.069   1.347
19447W        W91740   8.218  40.341  10.508
19448W        W91741  37.976  22.600   2.275
19449W        W91742  17.121  38.561  12.502
19450W        W91743  26.152  37.951  14.312
19451W        W91744  14.106   1.375   1.805
19452W        W91745  32.506  11.351   4.618
19453W        W91746  32.910  30.596   4.751
19454W        W91747   3.401  34.863  12.042
19455W        W91748  26.127  19.153  12.444
19456W        W91749  35.923   1.452  13.500
19457W        W91750   8.857  19.641  12.089
19458W        W91751  12.356   3.842   9.523
19459W        W91752  31.945  38.018   1.783
19460W        W91753  13.138  41.361   1.426
19461W        W91754  23.533  17.109   4.236
19462W        W91755   0.891  10.232  11.419
19463W        W91756   5.866   2.911  14.515
19464W        W91757  37.535  19.779   1.364
19465W        W91758  18.632  20.670   1.751
19466W        W91759  32.953   8.773  13.979
19467W        W91760  27.943  37.947  13.796
19468W        W91761  35.406  23.639   0.403
19469W        W91762  33.452   6.227  10.974
19470W        W91763  13.105  35.522  11.542
19471W        W91764   5.310  38.432   2.262
19472W        W91765  27.129  42.324   4.331
19473W        W91766  26.054  41.813   2.213
19474W        W91767   8.795  29.107  14.370
19475W        W91768  13.743  32.423  14.874
19476W        W91769  35.505  41.864  14.790
19477W        W91770  41.299  16.192  12.506
19478W        W91771  29.078  21.116   1.304
19479W        W91772  35.085   5.230  10.956
19480W        W91773   6.862  30.650   1.766
19481W        W91774  27.145  39.397   0.962
19482W        W91775  40.407  43.769  11.585
19483W        W91776  15.152  28.487   1.821
19484W        W91777  20.526   1.859  14.993
19485W        W91778  38.071   6.860   4.779
19486W        W91779  40.543  42.008  11.512
19487W        W91780   8.280   4.848   0.396
19488W        W91781   5.246  10.333  13.802
19489W        W91782   4.449  24.660   4.166
19490W        W91783  35.939  41.962  13.033
19491W        W91784  15.191   4.732  11.911
19492W        W91785   5.352   4.423  12.421
19493W        W91786  44.004   1.795   4.664
19494W        W91787  11.856  11.666  12.902
19495W        W91788  36.055  27.539  12.472
19496W        W91789  16.576  33.607   3.732
19497W        W91790  27.187  34.597  10.468
19498W        W91791  40.918  12.332  13.361
19499W        W91792   6.206  41.838   4.630
19500W        W91793  35.438  37.367   1.878
19501W        W91794   9.667   4.374   2.832
19502W        W91795  42.953  25.560  11.047
19503W        W91796  34.059   3.419  14.937
19504W        W91797   0.250  38.567   4.719
19505W        W91798  24.122   4.824   3.808
19506W        W91799   2.303   6.328  11.988
19507W        W91800  16.632  34.401  11.589
19508W        W91801  31.526  13.832  14.461
19509W        W91802  40.313  25.618   4.234
19510W        W91803   3.292  14.196   2.412
19511W        W91804   6.690  34.087  12.877
19512W        W91805   1.458  41.470  14.923
19513W        W91806  23.094  14.820   2.411
19514W        W91807  29.059  23.492  13.368
19515W        W91808   7.810  41.321   3.146
19516W        W91809   2.263  32.544  14.907
19517W        W91810  19.716   6.199  14.292
19518W        W91811  28.085  40.453  10.911
19519W        W91812  12.635  24.564  13.423
19520W        W91813  34.552  21.530  13.405
19521W        W91814   3.874   8.260   3.367
19522W        W91815  43.500  21.122   3.160
19523W        W91816  43.940  13.214  11.566
19524W        W91817  43.922  17.283   1.744
19525W        W91818  13.794  16.725   1.293
19526W        W91819  38.026  17.173  14.003
19527W        W91820   0.300  44.468   1.212
19528W        W91821  36.468  10.348   2.743
19529W        W91822  32.420  29.003  13.455
19530W        W91823  21.659   8.236  10.918
19531W        W91824  32.586  16.692   4.303
19532W        W91825   0.281  32.023   4.647
19533W        W91826  35.871   8.820  14.859
19534W        W91827  13.781  35.407   2.378
19535W        W91828  17.121  14.740  14.501
19536W        W91829  32.972  32.049  12.340
19537W        W91830  13.819  26.619  10.891
19538W        W91831  12.721  17.687  13.047
19539W        W91832  13.734  14.725  13.910
19540W        W91833   3.771   3.290  10.611
19541W        W91834  31.020  25.150  11.889
19542W        W91835   7.845  38.512  14.959
19543W        W91836  10.837  31.488   3.293
19544W        W91837   2.953  27.079   2.897
19545W        W91838  10.757  39.351  11.030
19546W        W91839   9.150  35.544   2.386
19547W        W91840  38.842   4.817   3.368
19548W        W91841  38.435  26.010   3.632
19549W        W91842  41.839  35.604   4.130
19550W        W91843  26.156  39.514   0.961
19551W        W91844  20.638  11.321  14.860
19552W        W91845  10.333  33.952   1.894
19553W        W91846  11.368  29.060   4.190
19554W        W91847  19.125   0.433  10.960
19555W        W91848  42.495  40.926   4.747
19556W        W91849  16.248  20.531  11.391
19557W        W91850  13.207  35.926  11.045
19558W        W91851  39.530  36.880   2.211
19559W        W91852  31.011  31.028  11.074
19560W        W91853  24.487  36.561  13.491
19561W        W91854  24.182   3.267  11.468
19562W        W91855  31.128  39.508   1.239
19563W        W91856  21.631  35.435  12.445
19564W        W91857  26.128  28.079   4.168
19565W        W91858  14.210  23.230   1.867
19566W        W91859   1.943  16.649   2.301
19567W        W91860   4.714  42.801  11.066
19568W        W91861   8.347  18.103  14.028
19569W        W91862  30.024  39.846   3.755
19570W        W91863   0.300  37.010   0.819
19571W        W91864  26.646  25.691   4.721
19572W        W91865  37.910  10.657  10.590
19573W        W91866  26.687  21.690  14.296
19574W        W91867  36.970  18.619  14.020
19575W        W91868   7.376  36.363   4.250
19576W        W91869   6.328  44.848   2.690
19577W        W91870  15.587  12.811   2.847
19578W        W91871  28.440  18.060  12.383
19579W        W91872  22.190   1.780  14.011
19580W        W91873  43.992   9.225  10.432
19581W        W91874  16.686  36.063  13.508
19582W        W91875  20.269  31.915   1.710
19583W        W91876  12.666  15.238  14.992
19584W        W91877  35.991  42.799   0.924
19585W        W91878  25.039  34.615   1.371
19586W        W91879   6.196  28.630   3.862
19587W        W91880  19.217  40.377   4.315
19588W        W91881   6.795  13.616  13.544
19589W        W91882  29.043   2.898   3.689
19590W        W91883   6.922   1.271   1.768
19591W        W91884   9.794  38.351   1.219
19592W        W91885  15.732   8.694  14.349
19593W        W91886  29.107   2.313  14.879
19594W        W91887  14.205  20.608   3.868
19595W        W91888   7.187  36.892   2.675
19596W        W91889  19.090  25.184  11.090
19597W        W91890  11.339  29.619   2.409
19598W        W91891  42.807   2.282  12.513
19599W        W91892  26.020  22.063  14.772
19600W        W91893  14.095   8.731   3.858
19601W        W91894  25.608   3.901   0.459
19602W        W91895  17.591  11.232   4.647
19603W        W91896  28.160  27.977  10.990
19604W        W91897  17.772  10.318  13.307
19605W        W91898  11.349  31.583  11.895
19606W        W91899  35.461   6.895  12.388
19607W        W91900  30.592  17.776  13.989
19608W        W91901  27.153  20.542   2.848
19609W        W91902  29.540  32.885   4.212
19610W        W91903  27.960  38.346  14.878
19611W        W91904  41.522  25.533   2.894
19612W        W91905  30.613  34.472   1.829
19613W        W91906  38.946  40.541   5.192
19614W        W91907   8.177  31.113   2.419
19615W        W91908  28.971  12.183   0.460
19616W        W91909  26.560  21.166  14.969
19617W        W91910  16.126  32.552  14.292
19618W        W91911  23.024  13.656  14.319
19619W        W91912  39.426  11.832  14.444
19620W        W91913  37.889   7.374  10.929
19621W        W91914  42.508  33.071   2.308
19622W        W91915  39.943  34.916  11.479
19623W        W91916  31.541  28.498  11.105
19624W        W91917  41.977  30.445   2.736
19625W        W91918  42.804   3.263   2.700
19626W        W91919  41.301  10.259  12.573
19627W        W91920  21.092   3.808   3.205
19628W        W91921  38.839   7.298  12.362
19629W        W91922  32.604  16.723   0.339
19630W        W91923   7.883   0.970   4.147
19631W        W91924  31.111  11.283   4.198
19632W        W91925   5.313   4.870   2.350
19633W        W91926  21.186  20.614   9.921
19634W        W91927  27.161   9.213  11.397
19635W        W91928  11.290   4.875  13.334
19636W        W91929   0.373  35.575  10.590
19637W        W91930  18.063  41.789  12.862
19638W        W91931  32.952  37.570  14.786
19639W        W91932  26.072  38.380   0.883
19640W        W91933   7.281  44.815   4.638
19641W        W91934   8.742  13.321  13.494
19642W        W91935  40.014  27.012  12.072
19643W        W91936  15.745  33.386   3.819
19644W        W91937  38.067  13.316   1.214
19645W        W91938  21.649  16.250  13.898
19646W        W91939  10.303  13.779   1.879
19647W        W91940  26.648  23.177   5.247
19648W        W91941   1.935   3.877  14.772
19649W        W91942   0.364   1.768  11.048
19650W        W91943  21.204   5.357   3.679
19651W        W91944  36.085  24.178  11.923
19652W        W91945  11.212   6.368  11.611
19653W        W91946  27.089  42.428  12.468
19654W        W91947  22.238  33.030  10.909
19655W        W91948  43.381  32.939  14.015
19656W        W91949  10.682  31.496  11.503
19657W        W91950  14.801  36.411  12.532
19658W        W91951  25.211  33.999   0.456
19659W        W91952  12.762  18.667  14.840
19660W        W91953   1.418  39.044   0.759
19661W        W91954  14.259  27.495   3.834
19662W        W91955  24.522  39.961   1.258
19663W        W91956   0.312  11.724   1.362
19664W        W91957   0.926  18.213   1.848
19665W        W91958  40.463  19.246   1.291
19666W        W91959  34.380  20.120   4.145
19667W        W91960  32.016  29.578   5.155
19668W        W91961  22.662  41.497  14.830
19669W        W91962  32.005   2.741   0.897
19670W        W91963  27.687  42.362  13.953
19671W        W91964  43.787  11.338  11.894
19672W        W91965  27.969  40.025   2.358
19673W        W91966  18.202  24.171   3.774
19674W        W91967  23.618  21.071   3.237
19675W        W91968  34.449  27.486  13.895
19676W        W91969  30.941  29.948  13.307
19677W        W91970  36.558  42.831   9.992
19678W        W91971  39.330  29.045   0.893
19679W        W91972  21.159  27.597   3.824
19680W        W91973   6.428  42.383  11.011
19681W        W91974  23.077   7.866   4.799
19682W        W91975  29.116   6.385  13.467
19683W        W91976   7.911  32.537  14.774
19684W        W91977  27.006  16.236  13.329
19685W        W91978   8.222  15.251   3.710
19686W        W91979  20.553  22.636  11.067
19687W        W91980  37.403  32.127   1.350
19688W        W91981  16.589  43.779   4.750
19689W        W91982  17.586  29.007   2.314
19690W        W91983  18.159  39.993   1.341
19691W        W91984  37.994  16.669   2.796
19692W        W91985   3.336  27.158  10.969
19693W        W91986  13.232   6.337   5.308
19694W        W91987  37.429  43.395  14.969
19695W        W91988  39.355  13.718  12.372
19696W        W91989  28.980   0.457   2.815
19697W        W91990  26.114  10.174  11.408
19698W        W91991  39.987  17.262   3.237
19699W        W91992  32.141  25.577   2.334
19700W        W91993  30.965  24.568  13.934
19701W        W91994  40.441   5.235  12.471
19702W        W91995  12.632   6.878  12.351
19703W        W91996  20.732  23.728  11.491
19704W        W91997  36.867  27.515   4.335
19705W        W91998  27.096   3.248   2.891
19706W        W91999  39.473  31.487  12.538
19707W        W92000  21.673   8.388  10.514
19708W        W92001  36.478   6.769   2.353
19709W        W92002  21.084  36.941   2.414
19710W        W92003  44.280  40.346   4.808
19711W        W92004  16.157  21.652  13.022
19712W        W92005  42.795  28.565  13.495
19713W        W92006  14.105  41.495   1.887
19714W        W92007  36.500  22.117   1.841
19715W        W92008  20.177  11.737   3.835
19716W        W92009  23.553  30.908   0.834
19717W        W92010   6.724  39.902  12.956
19718W        W92011  32.419  42.490   0.936
19719W        W92012   7.364  32.909   3.366
19720W        W92013   0.928  19.604   5.224
19721W        W92014  26.526  17.110   2.879
19722W        W92015   6.694  35.583   3.819
19723W        W92016   3.342   1.275   1.406
19724W        W92017  15.204  35.371  14.775
19725W        W92018  33.016  37.896   4.259
19726W        W92019  36.964  43.013  11.573
19727W        W92020   8.319   4.215  13.806
19728W        W92021  26.110  12.147  13.500
19729W        W92022  20.713  25.605   3.868
19730W        W92023  33.039  44.431   2.296
19731W        W92024  18.776  38.351  13.833
19732W        W92025  27.100  11.235  10.412
19733W        W92026   6.808   1.335   0.860
19734W        W92027  29.503   6.319  12.975
19735W        W92028  15.107  36.981   4.614
19736W        W92029   7.170  44.312   2.698
19737W        W92030  19.623  37.342   2.375
19738W        W92031  12.203  19.760  12.889
19739W        W92032  26.531   9.271  14.304
19740W        W92033  44.373  17.160  11.547
19741W        W92034   1.945  16.201  13.840
19742W        W92035  26.543   4.291  14.391
19743W        W92036  42.833  33.901   3.319
19744W        W92037  43.303   3.786   2.874
19745W        W92038  15.103  17.625   4.328
19746W        W92039  32.424  31.455   1.219
19747W        W92040  10.190  28.435  10.043
19748W        W92041  42.932  34.990  10.531
19749W        W92042   0.375  28.991  12.840
19750W        W92043  20.211   2.947  12.967
19751W        W92044  42.354  25.162   4.657
19752W        W92045  42.324  16.216  14.893
19753W        W92046  21.703   6.359   4.327
19754W        W92047  26.194  27.102  12.548
19755W        W92048  26.573  19.206   0.819
19756W        W92049  13.132   6.374  14.317
19757W        W92050   0.984  39.365   2.670
19758W        W92051  27.144  42.522   2.337
19759W        W92052  39.497  31.151  11.902
19760W        W92053  24.479   4.429   5.806
19761W        W92054  29.453  15.747   0.864
19762W        W92055   9.158  30.147  12.932
19763W        W92056  14.193   2.226  14.480
19764W        W92057   5.896  23.984   3.363
19765W        W92058   7.853   6.391  13.344
19766W        W92059  18.734   8.868  10.578
19767W        W92060  20.058  31.431  10.589
19768W        W92061  29.654  13.599   4.188
19769W        W92062  20.545   1.780  13.829
19770W        W92063   1.347  43.299  14.873
19771W        W92064  11.256  38.522  12.852
19772W        W92065  19.563  41.838   1.362
19773W        W92066  11.812   2.790  11.487
19774W        W92067  26.149   2.758   1.710
19775W        W92068  34.564  25.978  11.538
19776W        W92069  29.990  13.198  12.493
19777W        W92070   0.372  36.413  12.375
19778W        W92071  17.753  18.702   4.610
19779W        W92072  36.084  35.085   4.345
19780W        W92073  43.310   0.429  14.854
19781W        W92074   9.221  16.143   3.734
19782W        W92075  10.866   5.211   1.924
19783W        W92076  44.791  21.152  12.971
19784W        W92077   8.824   9.788   1.745
19785W        W92078  34.883   4.387  13.878
19786W        W92079   4.219  34.029  12.892
19787W        W92080  18.656  44.472  10.448
19788W        W92081  18.288  42.373  11.077
19789W        W92082  17.706  25.968   1.399
19790W        W92083   5.254   8.320  14.903
19791W        W92084  37.389   5.431   4.802
19792W        W92085  16.093  30.620   4.600
19793W        W92086   0.282  36.095   2.285
19794W        W92087  31.526   9.321   2.306
19795W        W92088   0.894  39.884   4.309
19796W        W92089   6.915  41.832   3.858
19797W        W92090  42.870  36.414  13.337
19798W        W92091  26.068  38.918   0.343
19799W        W92092  31.017  26.693  14.976
19800W        W92093  42.449  25.037   0.876
19801W        W92094  13.229  13.726  12.089
19802W        W92095  23.063  10.297   1.289
19803W        W92096  16.608  17.148  11.527
19804W        W92097  29.047  37.918  13.899
19805W        W92098  34.544   6.806   1.780
19806W        W92099  16.601  19.116   3.631
19807W        W92100  36.934  22.055   4.195
19808W        W92101  26.672  42.519  10.963
19809W        W92102  29.495  31.962   5.091
19810W        W92103   5.406  28.577   1.212
19811W        W92104  11.200  11.828  14.759
19812W        W92105  41.919   1.385  14.914
19813W        W92106  44.416   7.244   5.185
19814W        W92107  32.501   3.941   3.823
19815W        W92108  34.576   0.439   1.889
19816W        W92109  34.864  17.674  11.035
19817W        W92110  42.376  14.644  14.427
19818W        W92111   6.394  13.305  13.839
19819W        W92112  43.894  34.488  11.954
19820W        W92113  21.604  16.704  10.607
19821W        W92114  42.921  26.478   2.768
19822W        W92115  14.660  32.499  11.603
19823W        W92116  44.757  13.257  11.917
19824W        W92117  21.140  28.635  12.495
19825W        W92118  23.529  37.039   3.156
19826W        W92119  18.693  44.273   4.815
19827W        W92120  16.672  34.533  14.423
19828W        W92121  29.021   1.432   0.418
19829W        W92122  39.465  18.782   0.883
19830W        W92123  30.593  26.068   0.733
19831W        W92124  30.011  39.360  13.528
19832W        W92125  14.127   6.786  10.933
19833W        W92126  30.468  17.765  12.399
19834W        W92127  18.056  43.951  12.896
19835W        W92128  43.328  20.233   4.759
19836W        W92129  11.241   5.260  14.967
19837W        W92130   8.796  33.442   5.309
19838W        W92131  30.021  23.656   0.439
19839W        W92132  11.148   8.381  11.098
19840W        W92133  28.611  11.235   2.275
19841W        W92134  10.384  39.434  12.464
19842W        W92135   3.931  30.017  14.961
19843W        W92136  36.919  37.900  11.940
19844W        W92137   3.402   8.743   5.268
19845W        W92138  22.051  29.966   4.604
19846W        W92139  32.063  31.641   4.837
19847W        W92140  16.301  37.480  10.999
19848W        W92141  27.171  21.625   3.218
19849W        W92142  15.786  27.103  12.869
19850W        W92143  28.675  24.700  14.822
19851W        W92144  43.349  14.131   4.178
19852W        W92145  29.525  19.265   2.843
19853W        W92146  21.659   3.336  11.435
19854W        W92147  44.922  26.180  11.584
19855W        W92148  24.480  32.569  13.878
19856W        W92149  15.804   1.473   2.244
19857W        W92150  24.084  18.632   3.777
19858W        W92151  30.430   7.750   0.783
19859W        W92152  14.195  36.992  13.439
19860W        W92153  10.703  21.594   4.208
19861W        W92154  23.733  14.257  10.642
19862W        W92155   2.462  38.533   1.266
19863W        W92156  23.996  29.162  11.087
19864W        W92157  21.525  22.082   2.730
19865W        W92158  13.773  10.263  10.528
19866W        W92159  10.815  26.519  10.449
19867W        W92160  20.059  34.579  10.579
19868W        W92161  30.626  13.726  13.847
19869W        W92162  24.588  27.980  11.917
19870W        W92163  23.708  16.229   1.754
19871W        W92164  38.344  20.550   2.323
19872W        W92165   7.873  27.562   4.301
19873W        W92166  43.861  17.220  14.500
19874W        W92167  13.672  44.883  13.862
19875W        W92168  30.095  23.525   0.727
19876W        W92169   6.375  37.447   4.286
19877W        W92170  17.134  16.767  11.375
19878W        W92171  29.477   0.335  10.558
19879W        W92172  30.468  36.047   4.602
19880W        W92173  41.881  13.747   4.318
19881W        W92174  34.089  37.000  10.489
19882W        W92175  34.920  40.323  14.275
19883W        W92176  41.925  16.073   1.423
19884W        W92177  43.890  17.101   0.435
19885W        W92178  20.037   1.897   1.727
19886W        W92179  42.924  29.100  11.905
19887W        W92180  19.593  39.524  12.523
19888W        W92181  37.541  26.019  14.855
19889W        W92182  15.237  12.830   3.154
19890W        W92183  41.954  17.677  13.442
19891W        W92184  29.047  16.193  12.938
19892W        W92185   0.317  12.190  11.972
19893W        W92186  30.629  32.556   3.221
19894W        W92187  13.784  10.780   0.380
19895W        W92188  41.414  42.294  14.793
19896W        W92189  17.161   3.801   1.743
19897W        W92190   3.372  34.045   0.900
19898W        W92191   8.293  41.466  14.019
19899W        W92192  36.355  17.297   3.775
19900W        W92193  28.959  27.174  14.276
19901W        W92194  34.482  20.148  12.437
19902W        W92195  16.651  35.952  14.497
19903W        W92196  20.250  28.631   0.414
19904W        W92197   8.287  10.381  12.932
19905W        W92198  22.638  39.979   3.361
19906W        W92199  12.362  25.551  14.829
19907W        W92200  21.522  41.378   1.416
19908W        W92201  21.260  22.539   4.316
19909W        W92202  15.295  26.008  10.911
19910W        W92203  34.614  22.069  12.049
19911W        W92204  28.069  27.540   0.475
19912W        W92205  31.618  39.837   2.750
19913W        W92206  36.492  25.114   3.847
19914W        W92207  34.945  16.704   0.481
19915W        W92208  20.044  21.132  13.984
19916W        W92209  38.020  28.453   2.410
19917W        W92210   4.906  31.528   0.831
19918W        W92211  12.181  13.626  13.976
19919W        W92212   7.721   5.373  10.983
19920W        W92213  14.311  33.479  11.071
19921W        W92214  11.768  42.991  12.029
19922W        W92215  12.230  28.633   2.401
19923W        W92216  30.618  30.449   3.806
19924W        W92217  40.422  42.849   1.883
19925W        W92218  32.529  11.737   3.642
19926W        W92219  42.307   7.833   4.755
19927W        W92220   4.232  28.502   3.721
19928W        W92221  40.503  20.252  11.444
19929W        W92222  44.008  39.828   0.471
19930W        W92223   1.890  32.128   4.303
19931W        W92224  12.753   1.377  14.780
19932W        W92225  10.366   5.802  13.000
19933W        W92226   5.732  24.546   3.678
19934W        W92227  18.249  28.063  12.824
19935W        W92228  12.809  14.677  13.391
19936W        W92229  24.067  13.261   1.335
19937W        W92230  10.216   0.851  14.774
19938W        W92231   8.303   1.266   3.292
19939W        W92232  43.416  34.385  10.462
19940W        W92233  26.966  16.104  14.783
19941W        W92234  40.451  20.168  14.031
19942W        W92235  29.067   7.408   4.261
19943W        W92236  32.634  21.052   0.956
19944W        W92237   3.247  25.009  13.849
19945W        W92238  39.381  30.080   3.695
19946W        W92239   0.920  10.194   5.248
19947W        W92240  18.789  29.976  13.354
19948W        W92241  41.385  16.710   4.693
19949W        W92242  41.929   0.877   2.378
19950W        W92243  16.611  32.533  12.824
19951W        W92244  29.057   6.794  11.897
19952W        W92245  37.053  13.241  14.010
19953W        W92246  39.544  29.029  14.856
19954W        W92247   1.471  19.559  13.351
19955W        W92248  41.373  37.426  12.365
19956W        W92249   7.858  29.008  11.420
19957W        W92250  27.507  42.427   2.685
19958W        W92251   6.315  30.911   4.738
19959W        W92252  41.964   5.355   1.246
19960W        W92253  43.418  14.201   3.203
19961W        W92254   2.932  29.127   4.311
19962W        W92255  26.691  15.289  11.068
19963W        W92256  44.801   3.254   2.283
19964W        W92257  24.715  12.749  13.435
19965W        W92258  38.558   6.188   1.859
19966W        W92259  37.417  26.693   0.255
19967W        W92260  44.425  38.367   0.772
19968W        W92261  43.993  29.639  11.954
19969W        W92262   4.399   9.731   0.446
19970W        W92263   0.754  25.157   1.709
19971W        W92264  21.185  29.428  11.393
19972W        W92265  28.181  40.533  12.937
19973W        W92266  34.979   8.239   4.776
19974W        W92267  23.237  23.142   4.209
19975W        W92268  22.503   5.373  10.614
19976W        W92269  18.677  26.040  12.930
19977W        W92270  13.239  20.037  14.982
19978W        W92271   7.290   9.745   1.792
19979W        W92272  24.065  38.848  14.431
19980W        W92273   0.847  11.718  13.419
19981W        W92274  38.357  19.700  13.863
19982W        W92275  19.228  27.642   4.783
19983W        W92276  26.159  24.628  14.461
19984W        W92277  27.600  24.070   4.816
19985W        W92278  23.045  15.204  14.439
19986W        W92279   6.761  39.897   3.196
19987W        W92280   0.795  36.001   1.706
19988W        W92281  35.085  36.420   2.292
19989W        W92282  24.068   7.864  11.957
19990W        W92283  43.922  31.566  14.475
19991W        W92284   4.854  23.666   4.119
19992W        W92285  29.539   8.834   2.866
19993W        W92286  44.806  31.951  10.620
19994W        W92287  44.985  29.158  10.461
19995W        W92288  26.123  36.536   0.768
19996W        W92289  34.924   2.287  14.777
19997W        W92290  37.417  43.288   3.871
19998W        W92291  39.484  34.906  11.897
19999W        W92292   3.941   1.877  13.547
20000W        W92293  27.135   0.851  13.369
20001W        W92294  10.339  41.883  10.639
20002W        W92295  16.311  28.157   1.726
20003W        W92296  35.934   0.845  14.844
20004W        W92297  39.509  36.452   0.900
20005W        W92298   1.288   9.243   2.180
20006W        W92299  10.364  26.666   2.762
20007W        W92300  33.420  39.551   1.853
20008W        W92301   2.351  33.976  11.933
20009W        W92302  25.030  24.003   2.270
20010W        W92303  44.819  22.572   1.835
20011W        W92304  38.365  22.735  12.897
20012W        W92305  41.933   1.927   4.642
20013W        W92306  29.538  22.142  11.947
20014W        W92307  11.311  28.671  13.320
20015W        W92308  33.543  31.144   0.246
20016W        W92309  40.031  15.262   1.935
20017W        W92310  26.174   8.219   3.262
20018W        W92311  18.656  21.598   0.866
20019W        W92312  36.394  12.289   0.887
20020W        W92313  23.522  37.380   0.318
20021W        W92314  22.565  23.509   4.176
20022W        W92315   1.458  26.558   4.733
20023W        W92316  24.047  20.275   1.331
20024W        W92317   6.857  14.337   0.447
20025W        W92318  44.459   5.240   5.172
20026W        W92319  40.876  41.380  14.762
20027W        W92320   1.822  44.362  12.925
20028W        W92321  15.655  29.103   3.337
20029W        W92322  38.074  40.524   4.180
20030W        W92323  40.910  13.701  13.536
20031W        W92324  33.002  38.457   4.764
20032W        W92325   9.702  40.354   3.814
20033W        W92326  39.543  18.157   1.911
20034W        W92327   1.731  18.220  10.485
20035W        W92328  32.926  27.013  11.023
20036W        W92329  42.872   0.874   0.294
20037W        W92330  10.291   0.376  14.847
20038W        W92331  13.714  19.086   3.807
20039W        W92332   8.350   9.166  12.966
20040W        W92333   0.332  35.372  12.383
20041W        W92334  36.386   2.828   2.325
20042W        W92335  31.541  22.999  10.535
20043W        W92336  32.944  13.140   1.818
20044W        W92337   9.759  35.022  11.871
20045W        W92338   0.780   9.750  14.032
20046W        W92339  31.914  16.684  13.308
20047W        W92340  21.199  21.513   0.739
20048W        W92341  15.608   2.304  14.499
20049W        W92342  26.201  14.330   4.196
20050W        W92343   6.309  31.904   2.366
20051W        W92344  44.297  43.958   2.178
20052W        W92345  33.079  42.368  12.521
20053W        W92346  23.103  16.641   4.712
20054W        W92347   2.882   8.824   2.328
20055W        W92348   2.870   3.911   1.827
20056W        W92349   7.742  31.436  14.906
20057W        W92350  36.963  30.538  10.923
20058W        W92351  28.444  26.628   3.235
20059W        W92352   7.761  21.121  12.524
20060W        W92353  31.417  42.865  11.552
20061W        W92354  21.258  37.521  12.937
20062W        W92355  17.098   8.374  10.157
20063W        W92356   4.723  43.461  13.920
20064W        W92357  15.329  33.510  11.957
20065W        W92358  27.039  26.204   2.672
20066W        W92359  19.060  33.999  10.020
20067W        W92360  14.263  14.625   3.314
20068W        W92361  13.162  23.682   0.308
20069W        W92362  31.947  12.294  10.511
20070W        W92363  41.369   5.324  14.405
20071W        W92364  41.982  20.696   3.843
20072W        W92365   7.398  21.637   2.695
20073W        W92366  43.378  43.466   0.741
20074W        W92367  15.757   3.718   5.715
20075W        W92368  17.224  36.493  14.887
20076W        W92369  27.540   4.902  13.893
20077W        W92370  41.883  43.908  13.842
20078W        W92371  31.112  44.893  11.442
20079W        W92372   6.413  16.720   3.228
20080W        W92373  44.287  14.619  10.997
20081W        W92374  35.072  17.162  13.930
20082W        W92375  16.761  25.169   2.693
20083W        W92376  32.915   6.915  11.930
20084W        W92377  19.637  27.132   3.371
20085W        W92378   5.346  11.858   3.685
20086W        W92379   6.182  40.869  14.004
20087W        W92380  33.514  40.864   2.726
20088W        W92381  30.654  20.213   4.233
20089W        W92382  15.634  41.365  10.595
20090W        W92383   3.949   0.773  14.297
20091W        W92384   1.802  32.060  13.359
20092W        W92385   4.833   2.431  13.877
20093W        W92386  30.536  34.524  14.976
20094W        W92387  13.721  24.538  11.939
20095W        W92388  27.000  23.499  10.913
20096W        W92389  15.599  36.859  13.814
20097W        W92390  32.949  11.331   3.755
20098W        W92391  18.558  25.571  13.911
20099W        W92392  39.941   3.440  10.995
20100W        W92393  18.784  11.236  11.407
20101W        W92394  41.865  36.891   2.809
20102W        W92395  34.014  23.576  10.988
20103W        W92396   4.810   4.835  10.595
20104W        W92397  38.465  23.232  11.424
20105W        W92398  10.314  24.991  14.398
20106W        W92399  27.577  43.505   3.681
20107W        W92400  30.085  32.425  13.406
20108W        W92401  38.020  15.249   1.905
20109W        W92402  24.544  18.753  12.566
20110W        W92403  21.115  20.272   3.794
20111W        W92404  32.963  33.536   2.809
20112W        W92405  10.239  30.534  10.021
20113W        W92406   7.369   6.895  12.377
20114W        W92407   9.882  13.609  11.904
20115W        W92408   7.735  34.612   0.252
20116W        W92409   4.395  23.583   1.409
20117W        W92410  32.014  23.064   1.847
20118W        W92411  12.175   3.836  13.408
20119W        W92412  19.265   8.353  11.499
20120W        W92413  41.351   0.958   3.329
20121W        W92414  17.742  13.138   0.464
20122W        W92415  15.108  42.483  13.896
20123W        W92416  26.591  21.529   1.430
20124W        W92417  14.779  39.347  13.402
20125W        W92418  26.498  27.011   2.232
20126W        W92419  24.502  33.933  10.957
20127W        W92420   9.171   5.220  14.321
20128W        W92421  23.147  39.915  10.531
20129W        W92422   1.275  24.226  14.009
20130W        W92423  33.480  21.623   2.240
20131W        W92424  13.619   6.348  12.340
20132W        W92425  40.469  40.336  14.935
20133W        W92426  42.429  39.021   1.341
20134W        W92427  34.071   3.713   2.778
20135W        W92428   0.387  10.224   1.320
20136W        W92429   2.763  35.898  11.042
20137W        W92430   0.453  23.683   3.799
20138W        W92431   7.891   6.217  10.437
20139W        W92432  37.860  44.907  11.890
20140W        W92433  30.503   7.289   1.727
20141W        W92434  18.135  35.399   3.635
20142W        W92435  34.371  23.593  10.936
20143W        W92436  11.127  39.529   2.786
20144W        W92437  12.186  13.757   2.719
20145W        W92438   1.374  10.158   1.310
20146W        W92439  11.314  12.314   1.797
20147W        W92440  17.231  23.508   9.929
20148W        W92441   3.360  44.859  12.887
20149W        W92442  13.160  25.155  14.887
20150W        W92443  34.108  40.382  11.543
20151W        W92444  40.991  37.038   1.395
20152W        W92445  38.500  25.216   3.371
20153W        W92446  44.827  41.962   3.731
20154W        W92447  20.232  41.417  11.436
20155W        W92448  25.193  22.135   3.855
20156W        W92449   9.851  36.428   0.256
20157W        W92450  32.136  12.772  12.469
20158W        W92451  30.946  17.791  14.855
20159W        W92452  35.417   8.173   4.147
20160W        W92453  11.171  27.161   1.766
20161W        W92454  21.047   4.729   2.361
20162W        W92455  38.073  34.956  11.012
20163W        W92456  29.017  19.723   1.219
20164W        W92457  44.764  15.699   1.227
20165W        W92458  24.096  21.512  11.462
20166W        W92459  20.652  44.433   1.373
20167W        W92460  13.674  24.616   4.221
20168W        W92461  27.504  36.366  11.873
20169W        W92462  31.578  33.617   4.764
20170W        W92463   5.407   2.758   1.804
20171W        W92464  40.547   0.404  11.566
20172W        W92465  12.682  20.603   4.340
20173W        W92466   7.403  10.818  10.923
20174W        W92467  43.441   7.391   4.327
20175W        W92468  39.376  23.124  11.436
20176W        W92469   3.741  42.789   4.221
20177W        W92470   7.177   5.922   1.358
20178W        W92471   3.219  19.247   4.132
20179W        W92472  17.200  30.508  10.923
20180W        W92473  34.065  36.967  12.826
20181W        W92474  35.095  37.847   4.827
20182W        W92475  41.369   6.285  14.849
20183W        W92476  32.949  10.734   3.255
20184W        W92477  33.951  39.357  14.783
20185W        W92478  28.042  33.022   3.329
20186W        W92479  21.263  42.511   4.747
20187W        W92480   6.864  28.971  10.928
20188W        W92481  37.057  29.611  12.891
20189W        W92482   2.800  37.045  12.391
20190W        W92483   5.342  40.453   0.428
20191W        W92484  29.514  36.566   1.872
20192W        W92485  37.544   5.853  13.818
20193W        W92486  24.160  20.747   4.788
20194W        W92487   3.250  36.391  12.536
20195W        W92488  17.700  42.953  14.904
20196W        W92489  33.961  38.325  12.537
20197W        W92490  44.931  18.220   0.933
20198W        W92491   2.287  15.246  10.443
20199W        W92492  18.544  18.671  12.984
20200W        W92493  37.938   7.862   0.258
20201W        W92494  41.895  11.647  14.515
20202W        W92495  20.188  44.458   4.750
20203W        W92496  31.090  25.165   1.834
20204W        W92497  33.921   1.397   2.184
20205W        W92498   3.733  40.335  12.038
20206W        W92499   2.306   6.704  11.956
20207W        W92500  39.428   0.337   2.303
20208W        W92501  28.055  11.854   3.261
20209W        W92502  27.113  11.799   4.836
20210W        W92503  16.750   0.821   2.229
20211W        W92504   8.759  10.329   2.682
20212W        W92505  32.937  10.773  13.505
20213W        W92506  21.115  39.972  10.119
20214W        W92507  26.620  31.062   0.432
20215W        W92508   0.904  20.763   1.923
20216W        W92509  39.063  24.563  14.908
20217W        W92510  25.711  25.141   1.432
20218W        W92511  32.471  38.930   0.784
20219W        W92512  10.174  28.652   3.252
20220W        W92513  31.974  20.636   1.314
20221W        W92514  43.514  18.218   0.245
20222W        W92515   5.802   5.364  12.914
20223W        W92516  30.536  44.395  13.399
20224W        W92517  28.663  32.962   4.227
20225W        W92518  17.192   8.810   0.828
20226W        W92519   9.880  39.922   2.669
20227W        W92520  19.633  26.588   9.947
20228W        W92521  10.772   4.246   4.162
20229W        W92522  17.727   7.345  13.875
20230W        W92523   9.836   9.879   1.726
20231W        W92524  10.785  35.916  11.990
20232W        W92525  22.572   7.714   0.874
20233W        W92526   8.878  36.089  11.511
20234W        W92527  36.577  22.547   3.354
20235W        W92528  37.001  43.825   2.856
20236W        W92529  37.013  36.960   2.865
20237W        W92530  18.645  39.424  11.442
20238W        W92531  16.627  12.782  11.859
20239W        W92532  43.374  37.850   1.757
20240W        W92533  28.094  32.626   4.715
20241W        W92534  21.263  28.587   2.809
20242W        W92535  32.054  42.352  11.069
20243W        W92536  29.028  40.800  14.392
20244W        W92537   9.216  26.987   3.699
20245W        W92538  33.497  27.650  12.885
20246W        W92539  19.683   8.848   0.734
20247W        W92540   7.774  26.983   1.791
20248W        W92541  20.201  27.191   4.625
20249W        W92542  17.091  35.972   3.710
20250W        W92543   6.907   7.837  12.560
20251W        W92544  35.499  19.617   4.689
20252W        W92545  44.483  12.191  13.063
20253W        W92546  40.937   6.778  12.560
20254W        W92547  10.806  10.240  12.993
20255W        W92548  25.161  28.043   0.874
20256W        W92549  15.643  22.147   1.782
20257W        W92550  13.308   3.841   3.636
20258W        W92551  15.593  38.452  12.395
20259W        W92552  41.837  39.555   0.355
20260W        W92553  41.817   4.303  13.840
20261W        W92554  32.022  12.799   4.737
20262W        W92555  19.637  42.018  14.760
20263W        W92556  38.421  18.203   4.752
20264W        W92557  35.928  12.146  10.491
20265W        W92558   7.184  32.073   2.236
20266W        W92559  41.808  17.717  14.984
20267W        W92560  40.365  11.227  12.422
20268W        W92561  37.087   3.914   3.304
20269W        W92562  30.459  35.966  11.946
20270W        W92563  20.046   8.175  11.869
20271W        W92564  21.064  25.089  14.015
20272W        W92565  23.524   4.367   4.774
20273W        W92566  15.730  18.224  12.561
20274W        W92567  31.152  41.795   4.690
20275W        W92568   6.340  11.689   0.474
20276W        W92569  16.697  42.893   1.748
20277W        W92570  39.399  42.019  14.924
20278W        W92571  40.339  29.477   3.346
20279W        W92572  36.512   1.369  11.123
20280W        W92573  37.941  20.603   3.274
20281W        W92574  23.176   2.424  12.959
20282W        W92575  14.760  12.677  10.482
20283W        W92576  33.976  32.120   2.304
20284W        W92577  17.074  44.260   4.718
20285W        W92578  12.722  44.317   2.718
20286W        W92579   6.810  34.973   2.202
20287W        W92580  12.349   2.862  10.582
20288W        W92581  22.190  35.991  11.066
20289W        W92582  16.315   2.732   1.386
20290W        W92583  26.191  12.362   4.768
20291W        W92584  25.469   3.874   3.805
20292W        W92585  17.761  14.280  11.928
20293W        W92586  30.122  16.140  12.830
20294W        W92587  26.646  38.930   2.862
20295W        W92588   8.782  22.110  11.384
20296W        W92589  30.968  26.101  13.449
20297W        W92590   0.493  32.579  12.492
20298W        W92591  17.626   4.407  12.384
20299W        W92592   3.709  38.564  10.955
20300W        W92593  30.637  33.875  14.459
20301W        W92594   6.691  23.674  13.511
20302W        W92595  27.953  26.206  13.392
20303W        W92596  41.397  12.211  10.414
20304W        W92597  36.050  27.664  11.962
20305W        W92598  15.218   8.749  10.488
20306W        W92599  38.346   8.184   0.456
20307W        W92600  40.313  38.442   2.349
20308W        W92601   9.718   6.373   2.828
20309W        W92602  35.532  37.976   1.418
20310W        W92603  25.564  26.146   4.832
20311W        W92604  24.143  44.830  11.437
20312W        W92605  40.880  25.652  11.093
20313W        W92606  32.093  25.585  12.550
20314W        W92607   8.692  41.534   4.819
20315W        W92608  15.225  13.276   4.730
20316W        W92609   0.334   9.286  12.544
20317W        W92610  25.469   7.173   4.698
20318W        W92611  27.968  31.529   0.378
20319W        W92612  42.899  24.004  11.950
20320W        W92613  14.274   2.398   4.830
20321W        W92614  15.189  41.894   2.821
20322W        W92615  27.941   5.824   3.150
20323W        W92616   6.322  42.918   4.788
20324W        W92617   0.423   8.814  10.463
20325W        W92618  19.156   4.759   1.884
20326W        W92619  27.981   1.299   4.704
20327W        W92620   3.798  31.642  10.969
20328W        W92621  22.531   2.724   0.892
20329W        W92622  21.173   5.258   1.773
20330W        W92623  24.172  25.135   3.730
20331W        W92624  39.495  10.706   3.686
20332W        W92625  28.959  44.985  12.406
20333W        W92626  26.610  27.959  14.775
20334W        W92627  37.407  39.427  12.966
20335W        W92628  24.123  22.040   3.318
20336W        W92629  20.212  32.514  14.813
20337W        W92630  11.296  19.746  10.603
20338W        W92631  20.274   4.366  13.336
20339W        W92632  34.533  42.788   2.275
20340W        W92633  22.099  44.321   2.250
20341W        W92634  20.182  24.684  14.291
20342W        W92635  35.060  21.534  11.856
20343W        W92636  16.075  37.918   2.397
20344W        W92637   2.374  29.008  14.862
20345W        W92638  24.031  24.704  14.311
20346W        W92639  11.677   8.349  10.425
20347W        W92640  36.007   0.410   4.738
20348W        W92641  41.371  25.034  12.459
20349W        W92642  26.626  42.988   3.329
20350W        W92643  33.880  22.219   0.747
20351W        W92644  34.561  28.604   4.729
20352W        W92645  22.241  37.483   1.346
20353W        W92646  38.981  34.043  14.478
20354W        W92647  29.520  17.112  14.475
20355W        W92648   6.380  23.539  13.420
20356W        W92649  21.186  18.285  10.642
20357W        W92650  12.272  20.076   0.854
20358W        W92651  13.677  27.070  13.428
20359W        W92652  15.289  27.472   1.266
20360W        W92653  18.677  16.135  14.374
20361W        W92654  18.645  22.690   5.252
20362W        W92655  41.819  30.951  14.433
20363W        W92656  11.224   8.844   2.385
20364W        W92657  32.013  33.920   2.891
20365W        W92658  40.314  29.529  13.406
20366W        W92659   4.774  11.308   2.219
20367W        W92660  34.002   7.272  10.554
20368W        W92661  31.543   8.672   1.752
20369W        W92662  26.683  18.092  10.493
20370W        W92663   1.279   2.963  12.513
20371W        W92664  44.771  32.439  12.390
20372W        W92665   7.769  11.359  11.460
20373W        W92666  43.413  32.564   2.180
20374W        W92667  19.058  21.234  11.449
20375W        W92668  11.217  44.265   0.801
20376W        W92669   0.264  35.925   4.764
20377W        W92670  35.376  28.054   2.714
20378W        W92671  28.999  25.053  13.965
20379W        W92672  19.041  13.161   2.368
20380W        W92673  12.729  39.826  14.431
20381W        W92674   9.210  42.509  10.490
20382W        W92675  28.625  40.930   3.340
20383W        W92676  12.853  35.940  13.874
20384W        W92677  32.496  30.460  14.880
20385W        W92678  36.088  39.901  13.830
20386W        W92679  31.903  25.679  10.439
20387W        W92680  43.891   5.285   4.621
20388W        W92681  33.934   9.270  11.445
20389W        W92682  42.366  30.908   1.407
20390W        W92683  33.953  22.518   0.359
20391W        W92684  14.327  27.982  10.443
20392W        W92685   4.419  44.899  14.395
20393W        W92686   3.384  20.043   0.950
20394W        W92687  18.265  35.052  14.504
20395W        W92688  28.004  33.407   3.861
20396W        W92689  29.645  38.515   0.382
20397W        W92690  24.019   3.421   1.273
20398W        W92691  18.557  11.685  14.953
20399W        W92692  21.542  43.014   3.243
20400W        W92693  14.188  13.214   3.775
20401W        W92694  33.042  14.123  13.800
20402W        W92695   2.312   0.378   0.451
20403W        W92696  16.212   4.311  14.989
20404W        W92697  35.921  13.139   1.316
20405W        W92698  38.045  18.612  13.012
20406W        W92699   2.758  35.000  14.009
20407W        W92700  15.778  10.163  13.804
20408W        W92701  35.087   9.664   2.817
20409W        W92702  33.920  16.161   0.792
20410W        W92703  34.109   1.366   2.870
20411W        W92704  38.903  41.789  13.405
20412W        W92705  19.080  20.748   2.267
20413W        W92706  13.241  11.863  13.002
20414W        W92707  18.658  36.914  14.426
20415W        W92708  38.332   6.905   4.773
20416W        W92709  39.853  31.023   0.779
20417W        W92710  15.308  24.016   3.789
20418W        W92711  28.102  44.931  11.610
20419W        W92712  20.692  23.522   2.363
20420W        W92713  43.367   4.278   4.769
20421W        W92714  18.750  33.508  11.544
20422W        W92715  10.241  23.124  13.063
20423W        W92716  28.958   4.246   1.447
20424W        W92717  24.684   5.198   4.796
20425W        W92718  15.267  33.904  10.942
20426W        W92719  16.177   6.712  13.980
20427W        W92720  26.666   0.485  10.890
20428W        W92721  40.479  27.476   0.966
20429W        W92722  33.392   8.842   2.256
20430W        W92723  17.708  13.749  10.947
20431W        W92724  24.585  29.985  14.827
20432W        W92725  41.955  36.450  14.794
20433W        W92726  44.414  24.715   0.250
20434W        W92727  28.133  13.234  11.025
20435W        W92728  28.565  27.570   0.437
20436W        W92729  33.496  39.528   4.212
20437W        W92730  37.440   9.336  13.012
20438W        W92731  21.678   5.202  12.450
20439W        W92732  27.026  27.515  10.542
20440W        W92733  41.967  20.066  14.412
20441W        W92734  42.880   7.731  11.904
20442W        W92735  21.256  34.873   3.172
20443W        W92736  40.311  15.652   0.760
20444W        W92737  43.014   7.312   3.189
20445W        W92738  34.544  36.911  11.106
20446W        W92739   1.378  15.667   2.698
20447W        W92740  20.650   1.796  11.427
20448W        W92741  22.639  35.991   5.211
20449W        W92742  28.038   9.357  12.086
20450W        W92743  27.004   7.370  14.806
20451W        W92744  11.359   7.793   4.741
20452W        W92745  16.807  44.790  11.983
20453W        W92746  22.092  26.580  12.346
20454W        W92747   8.182  15.713  10.033
20455W        W92748   7.217  29.063   3.685
20456W        W92749  33.987  42.025   2.720
20457W        W92750  21.691  33.479  12.063
20458W        W92751   7.737  13.642  10.940
20459W        W92752  10.366   9.251  12.843
20460W        W92753   1.471  10.722   3.255
20461W        W92754  19.102  10.874  12.012
20462W        W92755  31.083  31.438  11.590
20463W        W92756   5.289  16.729  12.363
20464W        W92757  39.857  43.344  12.962
20465W        W92758   0.922  28.524   1.776
20466W        W92759  28.495  43.509   4.615
20467W        W92760  11.660  44.292   3.349
20468W        W92761  21.187  11.141   2.841
20469W        W92762  33.581  26.555   3.249
20470W        W92763  14.309  15.172  12.350
20471W        W92764   9.664  16.601   1.932
20472W        W92765  36.522  30.032   1.420
20473W        W92766   4.870  19.673  13.036
20474W        W92767  35.074  31.598  13.820
20475W        W92768  15.763  18.736   1.819
20476W        W92769  26.541  31.602  12.077
20477W        W92770  41.038  35.063  13.534
20478W        W92771  30.501  20.266   4.715
20479W        W92772  31.574  14.223   3.704
20480W        W92773  13.672  25.593   0.332
20481W        W92774   0.803  32.087   2.241
20482W        W92775  21.222  41.343   3.753
20483W        W92776  29.666  43.283   2.718
20484W        W92777  28.549  13.186   1.401
20485W        W92778  38.912  24.562  12.920
20486W        W92779   8.726  18.667   1.758
20487W        W92780  18.774  42.324   2.686
20488W        W92781  41.509  39.060   2.673
20489W        W92782  42.822  18.778   3.721
20490W        W92783  33.105  17.216  14.475
20491W        W92784   5.372   9.758   1.733
20492W        W92785  38.824  13.106   4.805
20493W        W92786  24.550  13.821   1.848
20494W        W92787  42.473   9.815  12.854
20495W        W92788  13.816  41.511   2.270
20496W        W92789  42.482  39.373   1.438
20497W        W92790  17.228   9.675   1.733
20498W        W92791   7.218  34.606  14.470
20499W        W92792  32.091   4.725   5.093
20500W        W92793  10.664  39.413   3.222
20501W        W92794  21.673   4.268   2.237
20502W        W92795   5.401   1.372   0.726
20503W        W92796  28.029   3.281  11.425
20504W        W92797  44.918  43.462   1.822
20505W        W92798   2.726  20.150  13.014
20506W        W92799  26.082  20.550   0.907
20507W        W92800  41.991  35.895   3.382
20508W        W92801  42.993  15.694  10.549
20509W        W92802  38.046  40.869   4.802
20510W        W92803  11.753  23.549  12.551
20511W        W92804  21.590  18.145   1.422
20512W        W92805  29.657   5.828  10.933
20513W        W92806  29.004   2.838  12.998
20514W        W92807   7.858  31.410  12.501
20515W        W92808  28.028  38.064  10.439
20516W        W92809  25.139  18.139   4.184
20517W        W92810  18.236  17.074  14.504
20518W        W92811  23.165   9.202   3.223
20519W        W92812  33.390  19.191  11.508
20520W        W92813  13.149  15.630   2.740
20521W        W92814   0.796  10.723   2.272
20522W        W92815  26.472   8.737  10.143
20523W        W92816  31.412  28.487  11.938
20524W        W92817   9.228  36.559   9.630
20525W        W92818  27.958  38.468   4.246
20526W        W92819  43.991  41.478   1.918
20527W        W92820   6.371   1.954   5.188
20528W        W92821  40.937  21.614   4.175
20529W        W92822  27.563   7.874   1.898
20530W        W92823  27.048  20.554  12.093
20531W        W92824  31.635  15.803  11.461
20532W        W92825  16.305  42.510  10.615
20533W        W92826  35.002  36.572   1.763
20534W        W92827  14.807   0.459   1.777
20535W        W92828  37.371  12.761   9.919
20536W        W92829  26.544  25.712  13.361
20537W        W92830   8.664  34.085  13.371
20538W        W92831  43.356  13.838  12.529
20539W        W92832  19.776  40.348   5.191
20540W        W92833  26.470  33.600  10.562
20541W        W92834  29.492  19.137  10.578
20542W        W92835  39.894  28.526   2.855
20543W        W92836  42.939  22.154   2.692
20544W        W92837  21.175  43.814   3.179
20545W        W92838  13.629  12.682  11.100
20546W        W92839  41.039  30.959  11.935
20547W        W92840  25.085   4.864   1.756
20548W        W92841   9.284   7.669  10.571
20549W        W92842  44.816  17.204  14.011
20550W        W92843  33.037  44.271  10.987
20551W        W92844  15.784  28.447   3.156
20552W        W92845   3.888  44.888   3.845
20553W        W92846  26.188  28.159  11.120
20554W        W92847  40.954   1.356   0.324
20555W        W92848  21.623  36.456   0.387
20556W        W92849  27.001  37.927   4.630
20557W        W92850  37.917  35.859  14.327
20558W        W92851  34.478  10.285   1.350
20559W        W92852  22.733  38.369  13.474
20560W        W92853  39.452  38.571  11.495
20561W        W92854  31.424  42.471  10.451
20562W        W92855  38.949  12.343  10.079
20563W        W92856  32.484  11.628  12.876
20564W        W92857  32.604   4.414  13.867
20565W        W92858  43.378  44.899  11.441
20566W        W92859  30.098   1.304  10.412
20567W        W92860  26.111   3.458   3.814
20568W        W92861  39.834  15.107   4.317
20569W        W92862  19.684  42.960  12.515
20570W        W92863  27.629  43.417  12.473
20571W        W92864   0.311  30.145  11.960
20572W        W92865   9.345   8.202  13.979
20573W        W92866  27.092  28.484  11.610
20574W        W92867  29.532  17.566   0.791
20575W        W92868  41.845  31.998   3.215
20576W        W92869  15.126  25.216  13.951
20577W        W92870   3.922  23.007  14.403
20578W        W92871   9.296  20.081   3.351
20579W        W92872  19.634  14.256   4.724
20580W        W92873  21.650   6.702   3.746
20581W        W92874  36.055  10.181   1.258
20582W        W92875  13.174  10.213   5.234
20583W        W92876  36.592  40.535  13.469
20584W        W92877  21.205  20.759  14.405
20585W        W92878  28.038  40.334   5.188
20586W        W92879  43.487  31.909  12.893
20587W        W92880  16.080  20.534   4.768
20588W        W92881  29.466   3.445  12.404
20589W        W92882  42.829  32.633  11.024
20590W        W92883  39.914  21.056  14.417
20591W        W92884  40.309  24.512   4.267
20592W        W92885  44.814  34.009  14.376
20593W        W92886  15.634  34.501   0.298
20594W        W92887  15.815  39.922  11.096
20595W        W92888   0.483  20.702   0.253
20596W        W92889  13.196  36.355  11.438
20597W        W92890  13.783  34.992  13.044
20598W        W92891  25.982   4.288   1.429
20599W        W92892  35.986  13.283  11.535
20600W        W92893  40.813  35.023   3.304
20601W        W92894  18.754  36.035   5.318
20602W        W92895   3.925  37.025  14.989
20603W        W92896   4.838  16.616   1.901
20604W        W92897  14.807  14.649  14.474
20605W        W92898  39.489  17.767   3.850
20606W        W92899  18.654  20.522  10.081
20607W        W92900  24.004  20.739  13.039
20608W        W92901  17.083  38.823  10.559
20609W        W92902  20.688  22.084  12.483
20610W        W92903  15.716  23.578   0.294
20611W        W92904  41.010  33.997  13.009
20612W        W92905  29.150  37.853  13.443
20613W        W92906  28.609  19.077   4.121
20614W        W92907  12.680  13.653   2.722
20615W        W92908  12.327  30.084  10.445
20616W        W92909  30.573  38.845  12.006
20617W        W92910  40.809  16.575   3.679
20618W        W92911  33.127  14.716   0.439
20619W        W92912  43.372  21.205  10.404
20620W        W92913  41.014  28.066   2.192
20621W        W92914   8.249   8.231  13.010
20622W        W92915  19.751  22.511   2.739
20623W        W92916   3.814  31.512   0.478
20624W        W92917  37.482   2.290  12.878
20625W        W92918  36.069   6.772  12.840
20626W        W92919   5.388  23.183   0.336
20627W        W92920   9.321  19.563   3.282
20628W        W92921  25.178  40.051   4.139
20629W        W92922   2.462  11.234   0.803
20630W        W92923  13.750  29.561  12.946
20631W        W92924  22.193  26.110   3.385
20632W        W92925   2.881   4.379  12.954
20633W        W92926  34.443  28.145  14.412
20634W        W92927  36.899  12.645  10.528
20635W        W92928  44.374  37.857   1.338
20636W        W92929  38.457  33.466   1.259
20637W        W92930  34.880  16.235   2.310
20638W        W92931  25.013   7.872  10.589
20639W        W92932   9.794  11.293  12.908
20640W        W92933  22.999  42.430  13.438
20641W        W92934   4.852   2.349  12.864
20642W        W92935  14.615  44.892   1.399
20643W        W92936  28.520   8.805   4.650
20644W        W92937  37.411  25.529   4.175
20645W        W92938  33.423  28.589   2.357
20646W        W92939  35.376  14.621  11.035
20647W        W92940  42.803  40.873   1.336
20648W        W92941  35.868  10.152   0.830
20649W        W92942  35.501   3.425   1.764
20650W        W92943   7.836   0.428  12.917
20651W        W92944   5.332  34.958  11.431
20652W        W92945  16.667  41.977   4.281
20653W        W92946   5.741  29.443   1.414
20654W        W92947  44.417  16.219   3.339
20655W        W92948  43.913  31.418   0.309
20656W        W92949  31.648   5.197  14.828
20657W        W92950  36.051   4.207   0.941
20658W        W92951  32.593  33.596  10.606
20659W        W92952   2.385  42.385  12.499
20660W        W92953  28.178   0.368  10.903
20661W        W92954  43.327  35.450  14.997
20662W        W92955  12.792   5.338   3.747
20663W        W92956   9.158   6.354   0.963
20664W        W92957  37.453   1.806  11.020
20665W        W92958  25.091   3.749  12.900
20666W        W92959  30.100  24.492   0.390
20667W        W92960  21.141  38.357  12.442
20668W        W92961  34.081  34.029   2.696
20669W        W92962  27.068  42.809  12.450
20670W        W92963   2.459   7.669   3.718
20671W        W92964  43.479  42.819  10.474
20672W        W92965  35.425  34.391  12.486
20673W        W92966  16.122   2.357  14.830
20674W        W92967  28.632  39.499  14.886
20675W        W92968  38.456  36.914  11.394
20676W        W92969   7.746   4.412   2.279
20677W        W92970  38.855  25.657   1.869
20678W        W92971  29.014  16.244  13.824
20679W        W92972   5.725  18.605  12.567
20680W        W92973  25.104  16.599   4.130
20681W        W92974  35.085  39.876   2.781
20682W        W92975  31.593  33.566   0.927
20683W        W92976  44.909  44.773   4.734
20684W        W92977  14.095  27.517  13.853
20685W        W92978   8.739  19.166   4.645
20686W        W92979  14.138  18.605  11.925
20687W        W92980  23.066  25.101   0.423
20688W        W92981  42.869  44.296  13.456
20689W        W92982   5.873  33.051  13.026
20690W        W92983  24.139  40.806  10.528
20691W        W92984   4.729  23.696   3.737
20692W        W92985  37.465  21.115  12.990
20693W        W92986  23.211   4.703   9.997
20694W        W92987  18.616   2.236   4.171
20695W        W92988   5.773  10.800  10.430
20696W        W92989  39.925  35.047   2.669
20697W        W92990  32.628  37.435   3.644
20698W        W92991   1.734  26.517  12.487
20699W        W92992  41.840  38.495   1.800
20700W        W92993  13.232  22.656  11.925
20701W        W92994  34.552  41.374  11.037
20702W        W92995  41.489  12.641  11.519
20703W        W92996  41.994   9.736   1.869
20704W        W92997  15.770  26.975  13.494
20705W        W92998  38.338  38.849   0.292
20706W        W92999   1.285  14.140   1.926
20707W        W93000  34.869  30.450   2.210
20708W        W93001  28.502  21.730   3.797
20709W        W93002  18.101  35.466  12.468
20710W        W93003  37.561  43.019   1.778
20711W        W93004  32.001  18.694  12.399
20712W        W93005  27.190  33.382   3.317
20713W        W93006  44.463  36.497  11.941
20714W        W93007  19.763  21.541   1.235
20715W        W93008   7.891  41.512   0.377
20716W        W93009  15.682  35.992   3.783
20717W        W93010   0.818   3.810  10.981
20718W        W93011   7.855  25.208  12.028
20719W        W93012  10.686  22.663   3.666
20720W        W93013  30.512  36.586   4.673
20721W        W93014  24.655  24.523  11.386
20722W        W93015  31.473  22.625  12.433
20723W        W93016  27.553  26.977   4.186
20724W        W93017  12.702  36.523   0.805
20725W        W93018  40.413   7.781   4.314
20726W        W93019   0.287  33.574  13.944
20727W        W93020  16.701  16.733   0.339
20728W        W93021  39.864  19.084  13.958
20729W        W93022  41.968  16.277   3.862
20730W        W93023  38.520  38.880  14.932
20731W        W93024  14.294  18.096   2.407
20732W        W93025  26.054   7.399  10.449
20733W        W93026  41.854  42.385   1.433
20734W        W93027  34.442  27.189  13.904
20735W        W93028  22.151  35.063  14.854
20736W        W93029  21.059   1.887   3.384
20737W        W93030   3.894  18.222   5.140
20738W        W93031  24.128  12.195   2.759
20739W        W93032  15.097  29.063   0.911
20740W        W93033  26.652  38.393  11.443
20741W        W93034  15.586  24.987  13.809
20742W        W93035   1.481  14.654   2.757
20743W        W93036  36.873   4.756  10.623
20744W        W93037  23.718  38.429   1.248
20745W        W93038  13.211  24.125   0.411
20746W        W93039   7.349  37.486  11.974
20747W        W93040  22.536  12.359   3.698
20748W        W93041  40.463  30.626   1.241
20749W        W93042  19.192   6.704   3.245
20750W        W93043  14.603  11.155  14.000
20751W        W93044  32.606  32.457   1.305
20752W        W93045  28.569  36.934  14.896
20753W        W93046  21.164  36.889   0.780
20754W        W93047  42.328   7.207  11.908
20755W        W93048  33.473   7.218  13.358
20756W        W93049   5.719   5.868   1.801
20757W        W93050  30.554   8.207  11.986
20758W        W93051  41.829   7.865  14.934
20759W        W93052   6.413  22.736   2.354
20760W        W93053  26.539   9.218   1.725
20761W        W93054  30.492  15.158  10.602
20762W        W93055  32.397  40.368   2.182
20763W        W93056   5.303  11.310   4.709
20764W        W93057  28.985  15.328   4.146
20765W        W93058  35.525  20.098   4.754
20766W        W93059  36.529  23.154  12.946
20767W        W93060  14.719  36.070  10.612
20768W        W93061  33.960  13.213   3.191
20769W        W93062  26.066   0.857   1.698
20770W        W93063  32.009  16.298   2.879
20771W        W93064   9.386  35.989  11.387
20772W        W93065  38.051   9.801   3.709
20773W        W93066  22.197  42.972  10.628
20774W        W93067  40.894   4.339  11.972
20775W        W93068  19.737  20.058   4.290
20776W        W93069   4.856  21.582   0.729
20777W        W93070  43.976   4.833   2.691
20778W        W93071  21.533  29.000  13.541
20779W        W93072  33.576  37.346  14.022
20780W        W93073  34.387  43.818   4.726
20781W        W93074  25.645  29.974  11.593
20782W        W93075  38.049   5.820   4.730
20783W        W93076  28.986  41.891  14.419
20784W        W93077  30.148  35.476  12.025
20785W        W93078  12.253  17.136  12.830
20786W        W93079  24.493  40.019  14.996
20787W        W93080   4.242   9.371   1.890
20788W        W93081  41.487   7.346  13.992
20789W        W93082  21.208  27.955   1.331
20790W        W93083  42.399   8.315  11.856
20791W        W93084   0.489   4.218   4.754
20792W        W93085   8.366   8.662   3.795
20793W        W93086  44.834   0.829   1.284
20794W        W93087  23.167  24.188  14.408
20795W        W93088  16.122  33.938   2.854
20796W        W93089  35.907  27.054   0.817
20797W        W93090  17.796  36.938  11.431
20798W        W93091  19.280   8.361   2.774
20799W        W93092  41.340  44.881  12.864
20800W        W93093  15.788  11.292  12.992
20801W        W93094  33.444   3.269   2.754
20802W        W93095  17.684  34.868  11.944
20803W        W93096   8.894  39.540   1.260
20804W        W93097   6.243  29.572   3.243
20805W        W93098   5.400  38.412   4.620
20806W        W93099  19.543  24.136  10.147
20807W        W93100   5.198  25.662  11.450
20808W        W93101  13.165  27.619  14.831
20809W        W93102  11.660  12.638   9.961
20810W        W93103  15.150  42.462   2.287
20811W        W93104  17.194  29.053   0.427
20812W        W93105  23.046  41.927  10.923
20813W        W93106  33.955  38.434  14.292
20814W        W93107   0.962  44.486  14.892
20815W        W93108   8.877   5.319   0.753
20816W        W93109  18.576   1.278   3.286
20817W        W93110  27.955  34.962   4.122
20818W        W93111   2.881   1.257  13.799
20819W        W93112  31.106  33.046  11.377
20820W        W93113  16.749   4.877   0.806
20821W        W93114  36.406  17.649   1.730
20822W        W93115  15.804  23.736  11.559
20823W        W93116  13.244  43.903   4.650
20824W        W93117  26.467  15.637   1.927
20825W        W93118  43.848  16.693   1.824
20826W        W93119  10.872  14.288   2.900
20827W        W93120  31.073  41.518  11.491
20828W        W93121  23.733  17.594   0.736
20829W        W93122  28.537  21.652  11.884
20830W        W93123  35.875   4.845   3.356
20831W        W93124  36.554  41.296  14.300
20832W        W93125  18.547  41.322   2.383
20833W        W93126   3.770  23.593   2.300
20834W        W93127   6.328  29.162   4.679
20835W        W93128  29.966   4.221   4.706
20836W        W93129  22.082  34.109   4.809
20837W        W93130  18.696  42.298   3.790
20838W        W93131  38.400  39.997  12.506
20839W        W93132   8.233   5.311   1.411
20840W        W93133  12.805  30.431  12.383
20841W        W93134  38.034   9.343   4.713
20842W        W93135  40.544  13.740   1.902
20843W        W93136  28.467  29.025  10.626
20844W        W93137  15.299   8.844   0.945
20845W        W93138  24.635  20.237  13.354
20846W        W93139  16.083  42.788  11.502
20847W        W93140  14.779   8.189  10.489
20848W        W93141  40.391   2.276   4.806
20849W        W93142  31.560  10.750   0.737
20850W        W93143  38.366  33.401   2.781
20851W        W93144   7.818  35.076  13.853
20852W        W93145  31.517  42.821   2.817
20853W        W93146  41.903  19.060   3.227
20854W        W93147  42.375  24.515   1.327
20855W        W93148  32.630   3.830  11.914
20856W        W93149  31.015  26.146   1.396
20857W        W93150  42.970  15.221   4.353
20858W        W93151  22.648  19.152  14.958
20859W        W93152  21.102  29.986  10.434
20860W        W93153  25.639  12.625   2.218
20861W        W93154  11.701   2.764  14.837
20862W        W93155  37.455  14.171   4.616
20863W        W93156   6.809  24.225   4.771
20864W        W93157  29.506  29.437   0.481
20865W        W93158  41.419   1.304  11.966
20866W        W93159  22.672  15.275  10.090
20867W        W93160  33.063   2.848   1.714
20868W        W93161  27.676  11.199  14.483
20869W        W93162  43.379  18.552  10.442
20870W        W93163  25.698  39.382  11.453
20871W        W93164  34.578  21.698  10.611
20872W        W93165  44.853  32.430   2.740
20873W        W93166   0.830  13.189   4.214
20874W        W93167  35.950  41.817  14.489
20875W        W93168   3.918  14.263   1.369
20876W        W93169  18.764   8.299   2.735
20877W        W93170  34.456  27.116  14.951
20878W        W93171  35.085   7.256   5.224
20879W        W93172  37.502  34.392   4.122
20880W        W93173   1.359  23.579  10.413
20881W        W93174  35.883  14.727  13.054
20882W        W93175  14.333  11.624  15.000
20883W        W93176  27.681   9.163  12.392
20884W        W93177  13.752  26.519   2.698
20885W        W93178  10.299  20.712   3.643
20886W        W93179  13.815  38.521   1.401
20887W        W93180  31.487   7.411   3.147
20888W        W93181  29.624  15.112   3.859
20889W        W93182  39.339   1.816  10.418
20890W        W93183   2.898  29.104   0.798
20891W        W93184   8.866  42.878  14.493
20892W        W93185  35.919   0.856   4.312
20893W        W93186  35.870  17.638  11.444
20894W        W93187  25.692   9.797   3.686
20895W        W93188  17.626  10.368   3.267
20896W        W93189  14.823  43.445  13.380
20897W        W93190  10.769  21.757  13.902
20898W        W93191  39.387  29.104  12.058
20899W        W93192  23.181  41.910   1.326
20900W        W93193   7.873   9.834  13.795
20901W        W93194   0.453  18.223  10.606
20902W        W93195  12.643  22.673   2.726
20903W        W93196  25.204  24.026  10.959
20904W        W93197  10.213  36.590  11.495
20905W        W93198   6.842  19.251  12.341
20906W        W93199  26.669  26.079  11.415
20907W        W93200  18.125  39.882  14.402
20908W        W93201   8.250  17.295  13.408
20909W        W93202  17.685  35.525  12.999
20910W        W93203  21.645  13.145   4.762
20911W        W93204  28.640  19.243   1.378
20912W        W93205  38.328  44.497   1.916
20913W        W93206  16.289  40.460   0.965
20914W        W93207   7.295  33.573   3.693
20915W        W93208  23.151  28.933  12.059
20916W        W93209  39.551  12.156   4.707
20917W        W93210  43.892  16.658   0.736
20918W        W93211  11.661  34.998  14.834
20919W        W93212  42.022  22.066   0.439
20920W        W93213  38.469   0.751   4.294
20921W        W93214  22.242  39.434  10.617
20922W        W93215  10.371  44.274  13.844
20923W        W93216  19.104   1.400  11.407
20924W        W93217   3.277   0.776  12.870
20925W        W93218  31.640  23.067   1.303
20926W        W93219   4.357  40.839  11.089
20927W        W93220  40.835  24.057   0.480
20928W        W93221  22.694  44.980   2.416
20929W        W93222  10.341   2.250   0.846
20930W        W93223  28.569  13.645  11.863
20931W        W93224  34.966  17.625  12.088
20932W        W93225   8.165  39.472  11.555
20933W        W93226  43.331  38.865   9.929
20934W        W93227  23.239  10.166  14.774
20935W        W93228  22.534   8.658   9.942
20936W        W93229   4.895  31.580   1.696
20937W        W93230   3.354   4.877   3.655
20938W        W93231   5.927  43.824   0.873
20939W        W93232   3.815  22.718  10.585
20940W        W93233  31.634  31.897   4.826
20941W        W93234  20.529  41.490   4.828
20942W        W93235  35.974  40.357   4.827
20943W        W93236  18.122  23.001  11.548
20944W        W93237  21.237  35.107   2.400
20945W        W93238  25.589  29.491  13.010
20946W        W93239  14.262  31.024   0.865
20947W        W93240  41.037  23.215   1.266
20948W        W93241  30.057  37.994   3.176
20949W        W93242  20.238  36.500  12.048
20950W        W93243  21.638  14.326  14.437
20951W        W93244   7.203   5.863   0.294
20952W        W93245  12.648  30.101   0.456
20953W        W93246  30.555  39.022   2.698
20954W        W93247   1.885  17.131  11.495
20955W        W93248  18.637   3.929   0.415
20956W        W93249  11.130  36.070   1.897
20957W        W93250   8.402  19.740  13.916
20958W        W93251  34.046  35.883   4.820
20959W        W93252  33.941   4.319   0.928
20960W        W93253  23.580  27.489  12.839
20961W        W93254  10.311  27.684  11.902
20962W        W93255  34.426  17.648  12.906
20963W        W93256  27.956   1.943   2.709
20964W        W93257  18.136  33.957  14.289
20965W        W93258  44.496   7.905  12.899
20966W        W93259   0.283  31.911  11.897
20967W        W93260  16.800  19.552  13.896
20968W        W93261  17.125   6.221   3.172
20969W        W93262   9.298  17.666  12.044
20970W        W93263  25.585  38.493  13.944
20971W        W93264  44.329   1.883  10.415
20972W        W93265  25.988   3.913  10.945
20973W        W93266  25.496  28.999   4.748
20974W        W93267  24.150  18.235   1.413
20975W        W93268  21.100  14.729  11.918
20976W        W93269   5.760  18.152   1.326
20977W        W93270  36.514  17.088   4.245
20978W        W93271   8.244  28.513   0.418
20979W        W93272  38.389  14.827   0.906
20980W        W93273   0.458  32.482   4.312
20981W        W93274  24.579  26.571   2.344
20982W        W93275  42.313  39.916  13.995
20983W        W93276   7.386   0.856  12.919
20984W        W93277  14.277  20.155   2.271
20985W        W93278  42.489  15.700   1.792
20986W        W93279  44.773  23.687   4.725
20987W        W93280   2.395  30.629   0.455
20988W        W93281  40.855  28.032  11.025
20989W        W93282  31.479  20.226   0.746
20990W        W93283   8.848  10.253   1.364
20991W        W93284  26.012  28.097  11.544
20992W        W93285  25.012  25.998   4.619
20993W        W93286  43.857  31.484  11.923
20994W        W93287  20.658  29.934   2.893
20995W        W93288  44.913  35.054  10.067
20996W        W93289  20.626  17.172   2.251
20997W        W93290  37.471  10.727  11.427
20998W        W93291   5.304  25.114   4.656
20999W        W93292  29.055  10.849  13.521
21000W        W93293   5.698  17.118   3.183
21001W        W93294  29.668   4.703   5.143
21002W        W93295   6.218  31.486  11.465
21003W        W93296  33.935  44.775   1.420
21004W        W93297  23.590  18.098   3.299
21005W        W93298  15.777  23.037  10.641
21006W        W93299  44.898  41.843  14.351
21007W        W93300  18.289   7.189   4.165
21008W        W93301  18.263  14.263   0.793
21009W        W93302  18.073  39.442  13.832
21010W        W93303  28.544  28.527   1.310
21011W        W93304  41.874  43.798  10.938
21012W        W93305  23.007  41.989  10.591
21013W        W93306  34.505   1.863   4.128
21014W        W93307  21.561  27.958  11.571
21015W        W93308  42.884  42.329  13.545
21016W        W93309  24.722  32.414   1.275
21017W        W93310  25.641  33.082   0.958
21018W        W93311  30.019  35.954  10.446
21019W        W93312  37.436  18.133   3.826
21020W        W93313  27.142  14.747   1.830
21021W        W93314  39.324  11.801  10.045
21022W        W93315   2.409  15.163   2.854
21023W        W93316  38.515   9.656  13.314
21024W        W93317  24.598  44.926  10.593
21025W        W93318  43.803  24.997   4.133
21026W        W93319  43.429  36.354  12.521
21027W        W93320  25.151  24.725  13.378
21028W        W93321  11.168  42.494  14.984
21029W        W93322   7.238  37.489   1.409
21030W        W93323   4.447   9.721  11.924
21031W        W93324  14.759  11.663  14.943
21032W        W93325  28.496  10.207  10.993
21033W        W93326  15.587  42.485   2.309
21034W        W93327   3.378  23.641   0.870
21035W        W93328   8.873  40.870  12.047
21036W        W93329  14.603  42.914  10.944
21037W        W93330  16.749  21.733   4.215
21038W        W93331  27.643  16.083  10.403
21039W        W93332  16.693  30.160   2.185
21040W        W93333  43.916  20.117   3.812
21041W        W93334  22.251  34.389  14.927
21042W        W93335  43.780   9.276  12.412
21043W        W93336  41.788  16.760   3.248
21044W        W93337  30.129  12.736   2.390
21045W        W93338   0.274  38.854   2.674
21046W        W93339  29.619  13.701   2.324
21047W        W93340   4.881   3.745  14.001
21048W        W93341   0.752   3.848   2.270
21049W        W93342   2.264  44.986  14.807
21050W        W93343  23.606  15.791  13.020
21051W        W93344  39.396  32.016  10.588
21052W        W93345  37.469   0.251   1.757
21053W        W93346  21.191   4.854   4.308
21054W        W93347  30.041  14.606  14.509
21055W        W93348  19.181  36.572   3.336
21056W        W93349  19.682  17.589  14.762
21057W        W93350  14.247  41.335  10.967
21058W        W93351  35.048  25.617   1.795
21059W        W93352  33.444  38.050   1.302
21060W        W93353   5.285   8.676   0.948
21061W        W93354  34.430  23.602   1.395
21062W        W93355  35.527   8.379  14.511
21063W        W93356  17.620   9.805  10.996
21064W        W93357   4.830  22.511  14.330
21065W        W93358  42.483  29.114   4.137
21066W        W93359  39.832  12.358   4.713
21067W        W93360   0.429  19.198   0.728
21068W        W93361  29.015  28.523   2.362
21069W        W93362  23.529  37.579  10.519
21070W        W93363  11.210  31.503   1.875
21071W        W93364  11.780  41.346  11.035
21072W        W93365  20.735  17.158  11.430
21073W        W93366  34.440  44.405  12.043
21074W        W93367   9.664   6.238  12.504
21075W        W93368  31.901  23.086  11.404
21076W        W93369  42.392  36.972   1.745
21077W        W93370   2.350   6.266   3.833
21078W        W93371  36.870  23.625   0.798
21079W        W93372  30.941  11.193  10.465
21080W        W93373   1.825   3.339  14.396
21081W        W93374  23.658  23.512   2.205
21082W        W93375   8.667   9.250   3.846
21083W        W93376  34.030  10.753  13.440
21084W        W93377  42.347   8.897   0.783
21085W        W93378  22.059  35.868   3.732
21086W        W93379  42.908  29.132  10.891
21087W        W93380  27.972  15.615   2.753
21088W        W93381   8.267  24.213   4.292
21089W        W93382  12.250  42.282   3.857
21090W        W93383  40.547   1.891   4.320
21091W        W93384  28.973   4.237  10.483
21092W        W93385  35.896   2.370  13.830
21093W        W93386   8.289   9.288  14.862
21094W        W93387  43.805   9.868  12.042
21095W        W93388  19.100  10.138   0.847
21096W        W93389  29.021   3.908  11.925
21097W        W93390  17.596   8.287  10.506
21098W        W93391  35.972  22.176   0.427
21099W        W93392  17.080  19.647   4.676
21100W        W93393  40.042  15.219  12.434
21101W        W93394  31.058   0.949   4.177
21102W        W93395  27.494  42.523   3.355
21103W        W93396  19.729  31.617   2.281
21104W        W93397  18.648  20.683   4.764
21105W        W93398  11.372  16.174  14.345
21106W        W93399   5.726  20.137   2.367
21107W        W93400  13.144  18.644  10.574
21108W        W93401  24.200  43.767  12.069
21109W        W93402  18.614  13.674   3.691
21110W        W93403  24.177  10.747  13.805
21111W        W93404   4.262  18.147  12.490
21112W        W93405  26.151  21.720  11.065
21113W        W93406  34.073  44.849   3.658
21114W        W93407  25.095  26.472   0.458
21115W        W93408  13.812  30.598  10.929
21116W        W93409  33.521  19.113  10.473
21117W        W93410  11.297  23.177  11.442
21118W        W93411  29.140  30.107   0.370
21119W        W93412  14.095  23.579  13.547
21120W        W93413   4.211  41.884   1.928
21121W        W93414  14.818  31.003  14.829
21122W        W93415  32.507  23.653   0.853
21123W        W93416  12.660  13.301   1.740
21124W        W93417  32.602  34.916  12.557
21125W        W93418  29.589  19.595   2.834
21126W        W93419  14.156  18.295   3.685
21127W        W93420   7.402  26.066  13.800
21128W        W93421  31.050  15.793   1.384
21129W        W93422  40.814  22.028   0.449
21130W        W93423   6.182   6.227   3.383
21131W        W93424   6.254  34.495  14.019
21132W        W93425  30.604  22.632  13.479
21133W        W93426  17.213   1.923   4.805
21134W        W93427   8.790  44.269  14.908
21135W        W93428  22.097  24.996   0.259
21136W        W93429  17.621  22.666  14.375
21137W        W93430  24.546   4.715  14.311
21138W        W93431  30.149  11.739  10.508
21139W        W93432   2.379  34.991  14.885
21140W        W93433  23.128  38.422  11.075
21141W        W93434  14.141  32.394  10.534
21142W        W93435  40.425  27.521   0.304
21143W        W93436  18.060  24.634   1.286
21144W        W93437  17.279  16.599  13.374
21145W        W93438  17.203  40.320   2.397
21146W        W93439  22.638   4.312   1.270
21147W        W93440  40.430   0.341  12.382
21148W        W93441  10.354   2.377  13.922
21149W        W93442   9.817   7.392   0.769
21150W        W93443  12.771  18.656   1.393
21151W        W93444  19.760  25.086  10.453
21152W        W93445  30.490  44.359  11.394
21153W        W93446  22.737  41.416  12.368
21154W        W93447  10.206  22.734  13.480
21155W        W93448  36.469  32.094   3.711
21156W        W93449  42.521  41.040   3.176
21157W        W93450  30.158  13.143  14.936
21158W        W93451  29.576  40.385   3.176
21159W        W93452  39.929  13.138  11.911
21160W        W93453  10.772  15.309  14.370
21161W        W93454  19.689  39.518   4.698
21162W        W93455  21.564  23.513   4.626
21163W        W93456   4.366   5.247   4.177
21164W        W93457   2.894  22.244  11.950
21165W        W93458  26.683  39.360   4.283
21166W        W93459  24.644  44.380   2.828
21167W        W93460   6.809  16.758   1.317
21168W        W93461  20.184   7.307  13.516
21169W        W93462  36.983  26.460  14.865
21170W        W93463  30.007  38.443   1.248
21171W        W93464  12.357   9.290  11.941
21172W        W93465  35.430  14.251   0.905
21173W        W93466   1.783  40.960   4.837
21174W        W93467  43.806  42.388   2.838
21175W        W93468  28.930  12.651   1.743
21176W        W93469   6.686  11.724  11.391
21177W        W93470   0.819   5.261  13.871
21178W        W93471  24.134  24.724   0.795
21179W        W93472  11.288   7.207   1.357
21180W        W93473  15.211   7.241  13.547
21181W        W93474  35.455  43.895  14.474
21182W        W93475  27.455  39.387   1.767
21183W        W93476  23.103   1.913  12.432
21184W        W93477  43.468  30.934   3.662
21185W        W93478  38.428  18.103  10.632
21186W        W93479  32.038  28.484  12.564
21187W        W93480  42.295  38.336  13.822
21188W        W93481  25.589   0.939   4.636
21189W        W93482  23.241  21.540   1.714
21190W        W93483  24.026  30.925   1.754
21191W        W93484   0.468  16.656  10.572
21192W        W93485  43.863  30.640   2.327
21193W        W93486  40.370  41.953   3.347
21194W        W93487   2.300  29.972   4.813
21195W        W93488   0.293  19.709  11.868
21196W        W93489  11.635  41.521   2.297
21197W        W93490  16.179   7.832  11.004
21198W        W93491  37.553   3.884  12.403
21199W        W93492  31.465  28.064  14.480
21200W        W93493  29.036  30.653   0.858
21201W        W93494  37.446  33.037  13.917
21202W        W93495  27.683  39.046  13.410
21203W        W93496   6.742  23.084  12.545
21204W        W93497   4.743  38.483   1.695
21205W        W93498  30.963  20.602   4.267
21206W        W93499  17.302  25.972   2.217
21207W        W93500  40.354  41.838   0.314
21208W        W93501  34.019  23.026  10.992
21209W        W93502  19.045  20.233   0.849
21210W        W93503  32.486  15.098  14.442
21211W        W93504   7.351  25.188   4.701
21212W        W93505  43.341  36.427   1.210
21213W        W93506  22.718   6.212   3.368
21214W        W93507  16.098  27.548   4.639
21215W        W93508  32.106  34.562  13.504
21216W        W93509  21.018  31.078  10.903
21217W        W93510   0.277  41.000  12.858
21218W        W93511  20.656  32.532  12.973
21219W        W93512  16.777  30.957  13.374
21220W        W93513   8.734  19.102   2.209
21221W        W93514  23.119   4.833   1.817
21222W        W93515  25.037  44.855  11.424
21223W        W93516  13.608  43.503  14.380
21224W        W93517  21.111  19.757  10.473
21225W        W93518  28.434  17.720  12.090
21226W        W93519  23.531   9.286  10.455
21227W        W93520  24.563  40.884   4.349
21228W        W93521  19.601  17.238  10.972
21229W        W93522   0.850  17.195  14.497
21230W        W93523  16.132  29.505   1.887
21231W        W93524  10.719  26.174   0.819
21232W        W93525  14.150  23.525   0.805
21233W        W93526  40.957  16.169   3.636
21234W        W93527  10.672  26.039  14.458
21235W        W93528  12.312  39.915   2.294
21236W        W93529   3.839  11.248   1.848
21237W        W93530  25.676  25.689   0.768
21238W        W93531  27.168  35.894   0.297
21239W        W93532  16.249   5.357  11.372
21240W        W93533  26.580  19.200  14.316
21241W        W93534   4.796  11.699  12.034
21242W        W93535   6.842  44.322  14.870
21243W        W93536  36.467  34.094  11.394
21244W        W93537  42.799  10.169  12.930
21245W        W93538  38.516   1.273   3.664
21246W        W93539  37.008  10.870   4.313
21247W        W93540   9.187  44.298   3.769
21248W        W93541  18.550  27.096  14.793
21249W        W93542  11.149  10.640   3.822
21250W        W93543   2.469  31.905   2.850
21251W        W93544  30.563  26.138   3.288
21252W        W93545  12.810  37.943  10.897
21253W        W93546  32.430   2.267  11.937
21254W        W93547   2.851  23.058  10.984
21255W        W93548  34.053  25.586  13.474
21256W        W93549   0.295  29.923   3.708
21257W        W93550   8.884   1.866   0.463
21258W        W93551  10.732  38.868   9.930
21259W        W93552  20.172  37.011  13.918
21260W        W93553  13.637   6.411  11.047
21261W        W93554  33.522  19.629   0.892
21262W        W93555   0.457   0.487   4.134
21263W        W93556   9.864  28.576  11.100
21264W        W93557  33.076   4.838  12.562
21265W        W93558  15.719  43.416   1.706
21266W        W93559   3.383  40.443  10.621
21267W        W93560  16.117   5.775   1.866
21268W        W93561   9.258   5.752  12.512
21269W        W93562   5.693  19.246   2.834
21270W        W93563  27.950  14.197   4.122
21271W        W93564  37.840   2.919  10.953
21272W        W93565  32.913  17.609  14.347
21273W        W93566  35.967   8.681  10.474
21274W        W93567   0.898  21.514   1.255
21275W        W93568   5.842   3.746  12.345
21276W        W93569   3.762  24.168  13.991
21277W        W93570  34.390  38.003   3.790
21278W        W93571  15.681   9.702  12.857
21279W        W93572  26.556   9.299   3.304
21280W        W93573   4.849   7.325  14.957
21281W        W93574  32.622  31.910   3.640
21282W        W93575   9.194  10.858   3.248
21283W        W93576  21.257  24.040  11.493
21284W        W93577  33.131  41.515   4.804
21285W        W93578  39.359  38.543   2.371
21286W        W93579  32.956  39.054   0.429
21287W        W93580  22.165  39.851   4.227
21288W        W93581   9.323  18.059  12.383
21289W        W93582  27.669   3.272  13.062
21290W        W93583   2.425   4.336  12.936
21291W        W93584  11.257  17.796   0.909
21292W        W93585  34.088  14.835  14.848
21293W        W93586  35.090  21.165  11.914
21294W        W93587  18.287   5.264   1.214
21295W        W93588  44.947  40.454  14.408
21296W        W93589  43.835  20.130  14.765
21297W        W93590  15.295  36.493  13.513
21298W        W93591  15.300  37.039  11.444
21299W        W93592  20.689   4.369  13.009
21300W        W93593  33.470  19.226   4.634
21301W        W93594   6.729  28.079  14.996
21302W        W93595  18.196   5.725  11.582
21303W        W93596   6.394   0.836  13.838
21304W        W93597  39.814  31.528  10.925
21305W        W93598  27.477   0.276   4.779
21306W        W93599   5.694  42.386  11.601
21307W        W93600  15.664  43.851   1.757
21308W        W93601  32.543  35.494   1.783
21309W        W93602   2.404   2.725   2.198
21310W        W93603  20.534  21.070  12.550
21311W        W93604  36.590   2.720   2.879
21312W        W93605  10.159  41.809  11.515
21313W        W93606  33.972  17.079   2.710
21314W        W93607  31.546  18.777   2.237
21315W        W93608  42.383  10.186   0.775
21316W        W93609  19.104   9.394   1.723
21317W        W93610  26.699   7.275  14.857
21318W        W93611  34.992   6.349  14.277
21319W        W93612  10.268   0.343  12.443
21320W        W93613  10.165  25.615   0.295
21321W        W93614  29.649  26.665   4.308
21322W        W93615  44.861  20.640   1.436
21323W        W93616  36.418  41.505   4.212
21324W        W93617  41.521  29.565   3.777
21325W        W93618  18.625  14.304  13.040
21326W        W93619   3.785  30.542  13.794
21327W        W93620  36.545  29.164  12.900
21328W        W93621  25.021  12.782  12.541
21329W        W93622  42.845  14.608   0.911
21330W        W93623   6.830   1.746   3.207
21331W        W93624  17.670   3.257   1.717
21332W        W93625  19.753  32.079  11.586
21333W        W93626  33.434  18.683   0.940
21334W        W93627  30.982  38.968   5.226
21335W        W93628   8.751  38.950   2.819
21336W        W93629  37.971  22.611  11.090
21337W        W93630  17.654  29.175   4.120
21338W        W93631  26.961  40.412  12.569
21339W        W93632  39.054  32.514  14.408
21340W        W93633   1.286  11.852   0.462
21341W        W93634  22.643  19.778   2.852
21342W        W93635   2.273  30.067  11.044
21343W        W93636  17.620  15.319   3.660
21344W        W93637  37.386  44.446   1.723
21345W        W93638  21.086  12.204  12.551
21346W        W93639  38.059   1.428   0.414
21347W        W93640  38.431  25.040   3.861
21348W        W93641  17.300   2.811  12.428
21349W        W93642  42.776  19.127   5.600
21350W        W93643  10.164   6.863  14.395
21351W        W93644   8.344  43.879  10.461
21352W        W93645   5.893  26.475  14.824
21353W        W93646   4.399  12.351   2.852
21354W        W93647   0.969  13.218  10.518
21355W        W93648  37.083   5.859  10.985
21356W        W93649   9.268   2.789  12.482
21357W        W93650  36.992  31.648  14.794
21358W        W93651  26.167   8.383  13.986
21359W        W93652  25.066  33.076  10.061
21360W        W93653  26.086  43.475   2.182
21361W        W93654  35.856   4.289  14.872
21362W        W93655  44.502  44.843  12.003
21363W        W93656  21.167  15.613  13.427
21364W        W93657  29.064  23.619   3.200
21365W        W93658   9.168  24.691   4.213
21366W        W93659  42.410  20.157   3.863
21367W        W93660  22.169   2.275  11.564
21368W        W93661  17.578  28.538   3.712
21369W        W93662  32.627  17.115   2.809
21370W        W93663  31.567  23.600  14.958
21371W        W93664   1.306   7.327   4.175
21372W        W93665  44.772  38.514  14.404
21373W        W93666  26.579  39.877  12.874
21374W        W93667  39.000  24.169   3.667
21375W        W93668  40.483   7.179  14.786
21376W        W93669  19.164  38.395  13.882
21377W        W93670  44.342  38.566   4.243
21378W        W93671  37.484   1.869   4.648
21379W        W93672  36.494  17.254  14.934
21380W        W93673  41.018  22.214  11.075
21381W        W93674  35.873  43.313   3.219
21382W        W93675  32.620  24.181   4.162
21383W        W93676  22.597   8.654   3.734
21384W        W93677  32.135   5.352  13.419
21385W        W93678  38.449   3.264  13.548
21386W        W93679  35.550  36.537  13.314
21387W        W93680   4.303   6.876   3.304
21388W        W93681  27.033   7.846   4.178
21389W        W93682  41.022  16.568   1.274
21390W        W93683  32.982  22.163   4.184
21391W        W93684  43.924  23.123   3.785
21392W        W93685  30.561  41.816   4.757
21393W        W93686  37.524  17.159  13.319
21394W        W93687  44.369  16.260  12.352
21395W        W93688  38.438   2.348  12.859
21396W        W93689   0.422  22.743   1.273
21397W        W93690  27.502  37.976   2.249
21398W        W93691  37.341  21.541   4.329
21399W        W93692  25.654   9.221   2.330
21400W        W93693  42.970  36.495   2.859
21401W        W93694  38.420  41.795   0.922
21402W        W93695  11.676   8.747   3.289
21403W        W93696  29.113  10.360  11.072
21404W        W93697  36.532  40.314   2.746
21405W        W93698  18.744  15.232   4.637
21406W        W93699   0.752   4.285   2.266
21407W        W93700   6.762   8.210   1.432
21408W        W93701  16.170  31.591   4.126
21409W        W93702  28.104  27.684  15.000
21410W        W93703  30.577  40.501   0.272
21411W        W93704  36.892  15.585  14.851
21412W        W93705  20.692  15.146   4.135
21413W        W93706  34.491  16.179   1.769
21414W        W93707  33.918  21.520  14.966
21415W        W93708   4.812  30.473  13.444
21416W        W93709  26.195  32.618  14.466
21417W        W93710  18.598  42.499   0.730
21418W        W93711  26.009  19.181  12.863
21419W        W93712  19.679  37.845  13.398
21420W        W93713  36.502  24.626  13.908
21421W        W93714  44.296  19.073  14.284
21422W        W93715  25.121   1.446   3.770
21423W        W93716  18.103  42.009  14.478
21424W        W93717   2.781  24.088  12.901
21425W        W93718   7.785  25.211   0.956
21426W        W93719  25.531  18.137  12.402
21427W        W93720  10.248  27.189   0.321
21428W        W93721  20.129  30.629   4.143
21429W        W93722  22.181   1.907  14.493
21430W        W93723  17.694  24.058   5.148
21431W        W93724  39.979  24.103  10.455
21432W        W93725   3.356  10.709  12.416
21433W        W93726  20.214  34.971   4.643
21434W        W93727  33.891  43.950  11.042
21435W        W93728   1.839  36.872   1.920
21436W        W93729   1.465  30.498   2.703
21437W        W93730  13.705  26.557  10.569
21438W        W93731   7.176  32.011   3.857
21439W        W93732  38.488  44.400   4.669
21440W        W93733   3.881   0.301  14.857
21441W        W93734  11.697  33.903  13.950
21442W        W93735  31.146  13.192  14.030
21443W        W93736  32.041  40.839  13.470
21444W        W93737  22.049  22.038  13.456
21445W        W93738  42.028  33.077   2.824
21446W        W93739  42.836  37.392   3.320
21447W        W93740  18.711  42.492  14.914
21448W        W93741  35.955  41.528   0.465
21449W        W93742   2.733  16.207   2.768
21450W        W93743  23.199  25.056   4.631
21451W        W93744  27.592  33.522  14.450
21452W        W93745  20.602  22.104   4.707
21453W        W93746  28.447  17.773   2.188
21454W        W93747  37.573  32.456   0.317
21455W        W93748   1.328  11.771   4.608
21456W        W93749  30.002  30.562   3.868
21457W        W93750  19.779  44.895   4.241
21458W        W93751  17.642  26.701   3.282
21459W        W93752  43.890  10.778  13.795
21460W        W93753  38.348  34.973   3.848
21461W        W93754  23.076  24.597  11.922
21462W        W93755  25.081  32.119  13.523
21463W        W93756  39.524  21.549   0.311
21464W        W93757   5.733  16.265  11.873
21465W        W93758   4.305   6.914  13.334
21466W        W93759  10.664  11.336  10.964
21467W        W93760  38.052   4.448  13.533
21468W        W93761  44.388  40.879  13.397
21469W        W93762   9.883  39.400   4.205
21470W        W93763  11.625   7.854  14.316
21471W        W93764  41.401   8.768  12.517
21472W        W93765   1.328  31.451   3.819
21473W        W93766  44.010  16.292   1.796
21474W        W93767  17.777  16.089  14.774
21475W        W93768  40.838   9.849   3.859
21476W        W93769  23.005  34.969  11.926
21477W        W93770  39.384  43.927   0.757
21478W        W93771   3.927  33.127   0.303
21479W        W93772   2.296  22.500  14.896
21480W        W93773   2.786  10.160  11.007
21481W        W93774  35.602  34.480   0.924
21482W        W93775  37.019  22.725   4.768
21483W        W93776   5.317  29.149   2.284
21484W        W93777  43.408  35.891  14.995
21485W        W93778   5.855   9.176   2.285
21486W        W93779  38.385   7.247  13.982
21487W        W93780  40.359  35.439   3.244
21488W        W93781  37.010  36.847   4.139
21489W        W93782  13.655   6.211   2.231
21490W        W93783   8.778  14.616   4.610
21491W        W93784  24.008   0.449   5.187
21492W        W93785  26.191  38.970   2.833
21493W        W93786   2.333   5.256  10.587
21494W        W93787  32.142   9.252   2.771
21495W        W93788  15.817  39.329   0.932
21496W        W93789   5.383  31.902  13.323
21497W        W93790   5.794  43.315  10.468
21498W        W93791  19.201  32.602  13.390
21499W        W93792  19.193   2.384   0.876
21500W        W93793  33.988  15.240   3.753
21501W        W93794  18.733  23.984   1.285
21502W        W93795   6.412  11.741  14.784
21503W        W93796  38.050  26.130  12.517
21504W        W93797  30.615  24.698   1.429
21505W        W93798  10.850  42.021  12.440
21506W        W93799  12.792  14.124   2.307
21507W        W93800  30.613  14.261   2.296
21508W        W93801  40.885  20.169   2.693
21509W        W93802  20.673  37.459   1.306
21510W        W93803  15.167  11.287  14.015
21511W        W93804  12.732   7.410   2.384
21512W        W93805  44.963   4.882  13.543
21513W        W93806   1.272  40.992  12.984
21514W        W93807   9.266  29.446   4.735
21515W        W93808  24.025  30.101   2.859
21516W        W93809  34.875  44.404  13.801
21517W        W93810  18.771  13.230   2.813
21518W        W93811   0.341   5.369   2.183
21519W        W93812  42.413  37.390   1.253
21520W        W93813  21.589  44.334  10.927
21521W        W93814   8.714  10.784  12.952
21522W        W93815  10.877   3.235   3.307
21523W        W93816  28.541  16.585  10.441
21524W        W93817   0.436  16.781  13.337
21525W        W93818  18.618   6.322  10.466
21526W        W93819  19.279  25.603   3.705
21527W        W93820   3.409  20.145  12.464
21528W        W93821  23.057   2.455  13.307
21529W        W93822  37.976  29.459   3.311
21530W        W93823  42.887   4.766  13.350
21531W        W93824  28.956   7.220  10.617
21532W        W93825  10.171  40.435   3.379
21533W        W93826  37.365  13.635   4.231
21534W        W93827  11.130  43.969   4.746
21535W        W93828  18.159  37.490  13.394
21536W        W93829  25.468  44.327  14.770
21537W        W93830  21.129  40.468  14.013
21538W        W93831  25.056  21.018  12.059
21539W        W93832   9.814  16.253   1.831
21540W        W93833  37.505   6.723  13.503
21541W        W93834  13.821  22.654  12.053
21542W        W93835   6.706  23.062  13.929
21543W        W93836  17.561   1.256  10.589
21544W        W93837  36.403  21.148   4.675
21545W        W93838  41.909  19.093   2.808
21546W        W93839  20.650  23.226   3.837
21547W        W93840  41.844  24.584  14.967
21548W        W93841  36.847  33.436  10.951
21549W        W93842   1.961   5.313  12.021
21550W        W93843  35.974   7.832  11.929
21551W        W93844  34.558  26.128   2.179
21552W        W93845  36.050  41.930  10.518
21553W        W93846  33.085   6.214  10.432
21554W        W93847   3.892  37.564   4.243
21555W        W93848   7.743  21.216   4.691
21556W        W93849  43.462  23.495  13.503
21557W        W93850  26.207   2.271  14.810
21558W        W93851  28.968  22.238   3.676
21559W        W93852  22.059   5.923  13.826
21560W        W93853  27.661   6.913  13.849
21561W        W93854   3.751  14.597   2.296
21562W        W93855  29.933  37.938   0.823
21563W        W93856   4.911  28.648   1.827
21564W        W93857  41.885  37.021  13.415
21565W        W93858  23.195  40.540   4.703
21566W        W93859   6.752  35.007   3.812
21567W        W93860  14.720  32.892   4.298
21568W        W93861  10.221  29.667  14.403
21569W        W93862  32.589  15.694  14.360
21570W        W93863   6.878  24.075   3.204
21571W        W93864  32.492  19.778  13.364
21572W        W93865   3.817   0.394   0.801
21573W        W93866  23.047  39.551   3.222
21574W        W93867  11.320  41.366   0.847
21575W        W93868  24.136  35.427  12.395
21576W        W93869  15.603  22.239   1.306
21577W        W93870  37.035   4.341  13.839
21578W        W93871  12.621   1.830   1.272
21579W        W93872  43.806  12.808   2.739
21580W        W93873  21.643  43.774   4.699
21581W        W93874  13.704  17.714  12.001
21582W        W93875  31.099   5.333  13.328
21583W        W93876  20.055  14.806   0.869
21584W        W93877   9.675   3.410  14.760
21585W        W93878  34.892  38.991   2.769
21586W        W93879  32.471  37.437  13.954
21587W        W93880   4.375  18.638  14.371
21588W        W93881  21.671  13.716  10.444
21589W        W93882  12.139  15.660   3.703
21590W        W93883  12.808  12.125   1.833
21591W        W93884  15.622  38.543   0.456
21592W        W93885  32.117  11.693   0.262
21593W        W93886   3.311   3.302  14.365
21594W        W93887  32.887  33.100   0.749
21595W        W93888  26.672  41.450   4.732
21596W        W93889  36.474  13.280  14.836
21597W        W93890  39.346  12.771  12.369
21598W        W93891  11.346  37.373  12.939
21599W        W93892  10.785   3.768  12.999
21600W        W93893  29.122  27.650   1.878
21601W        W93894  20.593   5.247   1.304
21602W        W93895   8.293  24.113  13.005
21603W        W93896   8.842  36.883   3.784
21604W        W93897  18.604  33.030   3.681
21605W        W93898  14.643   2.252   5.227
21606W        W93899  14.169  16.693   1.250
21607W        W93900  43.983   9.768   4.761
21608W        W93901  14.095   2.375  13.331
21609W        W93902   1.307  37.506   2.234
21610W        W93903  40.533   2.245  13.825
21611W        W93904  14.648  27.513   3.714
21612W        W93905  41.379  20.693   0.387
21613W        W93906  41.430   6.703  11.424
21614W        W93907   7.704  14.750   1.430
21615W        W93908  17.273  21.738  10.527
21616W        W93909  25.177  38.457   3.194
21617W        W93910  22.576  39.026   5.292
21618W        W93911   0.813  30.589   3.827
21619W        W93912  14.296  36.028   3.676
21620W        W93913   1.838  15.200   4.796
21621W        W93914  39.042   8.162   2.779
21622W        W93915   0.470  31.557  12.382
21623W        W93916  32.464  22.700  11.901
21624W        W93917   0.345  25.083  12.881
21625W        W93918  38.335  43.814  14.016
21626W        W93919  37.895  13.724  12.983
21627W        W93920  20.749  26.683  13.889
21628W        W93921  39.368  13.200  10.484
21629W        W93922  40.889  42.466  11.603
21630W        W93923   5.415  19.733   0.459
21631W        W93924  35.947  19.051   4.308
21632W        W93925  34.902  44.771  11.023
21633W        W93926   8.738  27.053   3.305
21634W        W93927   8.367  37.435   3.309
21635W        W93928  41.495   1.448   1.801
21636W        W93929  29.113  20.750  11.427
21637W        W93930   6.405  23.606   2.244
21638W        W93931  41.806  42.801  14.872
21639W        W93932  17.732  32.565   0.336
21640W        W93933  37.982  20.137  14.307
21641W        W93934  10.338  24.025   2.315
21642W        W93935  33.123  14.162  12.974
21643W        W93936   8.887  33.460  11.964
21644W        W93937  28.576  43.911  10.413
21645W        W93938  42.909  26.605   0.375
21646W        W93939   1.280   0.371  14.481
21647W        W93940  14.313   0.478  13.888
21648W        W93941  41.905   9.668  14.944
21649W        W93942  12.622  16.189   1.867
21650W        W93943   7.384  28.969  14.784
21651W        W93944  26.168   1.926  13.343
21652W        W93945  20.067  28.476  11.595
21653W        W93946  30.422  41.972   3.785
21654W        W93947   7.734   5.360  14.429
21655W        W93948  31.055  26.530  10.066
21656W        W93949  33.004  32.997   4.343
21657W        W93950  30.065  14.288   0.346
21658W        W93951   3.933  28.066   1.387
21659W        W93952  11.862   1.240   2.749
21660W        W93953   9.175  15.122  11.538
21661W        W93954  38.549  28.499  10.891
21662W        W93955   4.930  10.713   0.747
21663W        W93956  32.092  35.557  12.891
21664W        W93957  38.462  39.041   1.341
21665W        W93958  32.498   1.973  10.899
21666W        W93959   9.847  28.005  12.073
21667W        W93960  36.576  35.075  13.474
21668W        W93961  42.296  36.010   3.384
21669W        W93962  15.256   3.900   2.782
21670W        W93963  42.977  14.748  13.879
21671W        W93964  43.006  26.671   3.294
21672W        W93965  27.980  38.404   2.226
21673W        W93966  26.572  16.714   1.816
21674W        W93967  38.526   7.781   2.294
21675W        W93968  12.229  43.457   2.231
21676W        W93969  25.169  13.235   4.335
21677W        W93970  44.463   7.316   0.753
21678W        W93971  23.657  17.104  14.774
21679W        W93972   4.396  33.478   0.380
21680W        W93973  23.497  40.529  12.847
21681W        W93974   5.209  13.657  10.477
21682W        W93975   3.458  42.441  12.444
21683W        W93976  35.490   5.917  11.486
21684W        W93977   6.222  13.688  11.560
21685W        W93978  12.819  32.426  11.561
21686W        W93979  36.459  13.628  14.452
21687W        W93980   5.854  43.854  11.407
21688W        W93981  23.559   6.389  14.003
21689W        W93982  34.884  34.950   4.132
21690W        W93983  29.933   9.852   4.628
21691W        W93984  20.597  12.353   0.780
21692W        W93985   1.448  36.593   4.736
21693W        W93986  26.554  18.173  14.347
21694W        W93987  21.031  10.832   1.896
21695W        W93988  34.067  12.761   2.409
21696W        W93989  44.962  10.650  14.772
21697W        W93990  38.534  10.819  14.302
21698W        W93991  43.337   7.190  14.876
21699W        W93992  30.089  23.109  14.794
21700W        W93993  34.501  28.447   1.284
21701W        W93994   6.211  15.588  10.941
21702W        W93995   7.669  20.757  11.060
21703W        W93996  27.072  31.929   0.356
21704W        W93997  12.169  32.895  10.951
21705W        W93998  44.345   9.647  12.397
21706W        W93999  16.210   7.377  13.016
21707W        W94000  25.970  43.958  13.824
21708W        W94001  37.364  20.573   0.445
21709W        W94002  24.046  21.050   1.749
21710W        W94003  43.474   0.964   2.745
21711W        W94004  35.902  10.732   1.425
21712W        W94005   6.361  19.535   1.232
21713W        W94006  39.878  41.820   0.321
21714W        W94007   9.847  39.951   4.153
21715W        W94008  26.179  14.239   1.780
21716W        W94009  11.828  44.895   4.603
21717W        W94010  29.514   2.361   2.884
21718W        W94011  24.712   8.781   1.357
21719W        W94012  39.352  35.898   0.787
21720W        W94013  25.041  15.105  14.997
21721W        W94014   2.267  23.052   4.150
21722W        W94015  44.376  26.140  12.412
21723W        W94016  13.768  37.580  14.384
21724W        W94017  37.919  26.585   2.215
21725W        W94018  33.886  36.958  13.459
21726W        W94019  10.342  44.279   9.987
21727W        W94020   3.847  10.862  13.893
21728W        W94021   7.294  40.052   2.301
21729W        W94022  43.999  15.810   4.305
21730W        W94023   8.811  41.912   4.598
21731W        W94024  12.758   9.367   0.888
21732W        W94025  19.185  22.174   3.746
21733W        W94026  10.759  18.671  10.640
21734W        W94027  35.419  14.303   2.360
21735W        W94028  16.802  43.841   2.332
21736W        W94029  44.452  19.655  12.840
21737W        W94030  17.688  11.663   3.338
21738W        W94031  42.996   1.288  10.582
21739W        W94032  12.217  31.118  14.955
21740W        W94033  18.106  14.117  11.019
21741W        W94034   2.778   7.397  10.569
21742W        W94035  17.186  39.432  13.439
21743W        W94036  14.166   1.732  14.280
21744W        W94037  32.993  12.164   0.879
21745W        W94038   1.436  15.712  12.933
21746W        W94039  40.381  35.374  11.064
21747W        W94040  29.572   1.300  10.613
21748W        W94041  23.653  24.103  11.550
21749W        W94042  18.096   2.442  10.524
21750W        W94043  21.037  24.085  14.019
21751W        W94044  38.854  31.908  11.105
21752W        W94045  43.842  34.965  11.563
21753W        W94046  33.989  25.974  14.929
21754W        W94047   6.293  15.314  10.446
21755W        W94048  15.627  35.586  12.081
21756W        W94049  27.552  28.455  13.900
21757W        W94050  23.112  22.197  14.354
21758W        W94051  30.437  11.236   5.158
21759W        W94052  36.090   7.880   1.268
21760W        W94053  18.582  29.454   4.127
21761W        W94054  11.315  35.370   2.304
21762W        W94055  32.006   7.256  14.475
21763W        W94056  13.670  27.940   0.831
21764W        W94057  39.409  30.575   1.751
21765W        W94058  24.709  36.403  14.303
21766W        W94059  37.501   0.278  12.880
21767W        W94060  24.491  29.511   4.351
21768W        W94061  34.540  14.237   4.213
21769W        W94062  19.230  32.025   3.207
21770W        W94063  43.877  19.176  14.973
21771W        W94064  42.819  32.556   3.769
21772W        W94065  15.681  18.058   3.241
21773W        W94066  18.748  36.860  11.862
21774W        W94067  32.945   4.815  14.816
21775W        W94068  33.401  41.456  10.992
21776W        W94069   8.827  41.435  12.525
21777W        W94070  33.910  29.545  13.808
21778W        W94071   7.316   7.799   2.264
21779W        W94072  33.943  21.205  14.028
21780W        W94073  10.663  32.577  12.347
21781W        W94074  30.651  30.942  10.970
21782W        W94075  38.349  24.526  12.824
21783W        W94076  37.480  32.559   4.194
21784W        W94077   8.789   7.775  14.918
21785W        W94078  17.215  40.507   1.873
21786W        W94079  14.241  30.078   2.396
21787W        W94080  15.232  17.784  11.902
21788W        W94081   5.325  41.042  10.906
21789W        W94082  13.153  30.911   2.387
21790W        W94083  13.334  44.272   0.852
21791W        W94084  34.887   1.823  11.592
21792W        W94085  29.645  31.486   4.337
21793W        W94086   5.895  39.820   4.202
21794W        W94087  36.351  17.101   2.867
21795W        W94088  28.646  22.091  10.928
21796W        W94089   5.246  25.543   3.790
21797W        W94090  23.147   4.417   4.667
21798W        W94091  20.621  26.471  13.405
21799W        W94092   7.715  24.973  10.566
21800W        W94093  30.519   5.821   3.218
21801W        W94094   8.321  28.973   0.340
21802W        W94095  11.767  40.031   2.266
21803W        W94096  35.030  23.733  11.977
21804W        W94097   6.911  29.135  12.461
21805W        W94098   2.343  43.838   1.344
21806W        W94099  32.118  26.155  13.392
21807W        W94100  43.313  13.736  13.023
21808W        W94101   0.935  30.120  10.945
21809W        W94102  29.988  28.016   2.350
21810W        W94103  14.734  19.091   4.639
21811W        W94104  37.417   4.925  10.971
21812W        W94105   9.654  32.955   0.900
21813W        W94106  34.898  16.806  11.932
21814W        W94107   2.885  44.347  11.098
21815W        W94108  15.602  17.717  14.996
21816W        W94109  27.971   0.867  10.970
21817W        W94110  38.479  11.745  14.930
21818W        W94111  33.452  37.367  10.441
21819W        W94112   9.296  37.457   0.459
21820W        W94113   7.810  33.899   5.261
21821W        W94114  41.324   8.376   3.701
21822W        W94115  44.950  22.208   2.670
21823W        W94116  33.571  16.258  11.952
21824W        W94117  18.736  41.319   3.291
21825W        W94118  12.272   0.399  14.277
21826W        W94119  26.520  17.632   2.863
21827W        W94120  12.651  23.173  12.476
21828W        W94121  20.163  37.520   4.803
21829W        W94122  15.577   8.884   1.343
21830W        W94123  14.331  40.922  12.465
21831W        W94124  14.169   7.903   0.726
21832W        W94125  40.857  38.828  10.911
21833W        W94126  20.144  11.845   3.267
21834W        W94127  13.654  33.928  12.087
21835W        W94128  41.379  32.140  14.319
21836W        W94129  13.641  25.636  12.992
21837W        W94130  27.531  29.146  13.402
21838W        W94131   5.253  10.158  11.917
21839W        W94132  15.753   3.839  12.426
21840W        W94133   7.762  17.595   2.763
21841W        W94134  27.174  25.194  12.517
21842W        W94135  13.150  29.017  12.575
21843W        W94136  40.497  41.872   3.849
21844W        W94137  18.790  26.971  13.891
21845W        W94138  25.211  10.853   1.758
21846W        W94139   3.862   0.265   1.878
21847W        W94140   7.197  29.160   2.237
21848W        W94141  27.497  29.149   1.881
21849W        W94142   1.294  17.240  10.515
21850W        W94143   6.330  22.154   3.716
21851W        W94144   9.797   7.383  11.563
21852W        W94145  12.160  13.614  11.042
21853W        W94146   8.769   3.837   3.165
21854W        W94147  26.035  11.370  14.502
21855W        W94148  24.575  24.499   3.228
21856W        W94149  27.558  24.992   2.362
21857W        W94150  19.557  29.980  11.916
21858W        W94151  31.027  31.405  12.530
21859W        W94152   2.946  39.020   2.764
21860W        W94153  21.111  18.185  14.398
21861W        W94154   5.691  39.857   2.288
21862W        W94155  21.041   8.228  14.502
21863W        W94156  43.448  18.623   2.864
21864W        W94157   6.214  26.130  10.538
21865W        W94158   3.949  41.503   2.244
21866W        W94159  17.307   0.963   3.152
21867W        W94160  23.235   4.912   4.122
21868W        W94161  31.957  37.362   1.888
21869W        W94162  32.538   8.723   3.162
21870W        W94163  40.884  27.642   4.256
21871W        W94164  43.454   3.338   2.822
21872W        W94165   0.825  19.571   2.342
21873W        W94166   8.164  20.701  11.528
21874W        W94167   4.879  20.650   0.763
21875W        W94168  34.420  13.621  10.972
21876W        W94169  36.924  20.662   4.640
21877W        W94170  31.452   9.366  11.376
21878W        W94171  42.892  39.523   2.241
21879W        W94172  25.099  19.642  13.009
21880W        W94173  42.299  34.934   5.182
21881W        W94174  28.181   7.850   5.142
21882W        W94175  44.468  18.076  10.937
21883W        W94176  29.611  38.024  14.008
21884W        W94177   7.381  22.195  14.464
21885W        W94178   4.398  32.957  11.036
21886W        W94179  22.065  29.952   2.306
21887W        W94180  22.169   6.797   4.721
21888W        W94181   6.352  21.660  12.017
21889W        W94182   8.723  42.785   0.468
21890W        W94183  35.415  32.543  12.458
21891W        W94184  25.650  16.633  14.912
21892W        W94185  38.431  42.833   0.268
21893W        W94186   8.225   7.870  11.875
21894W        W94187   1.324   3.410   3.651
21895W        W94188  36.363  11.215   4.607
21896W        W94189   7.770   5.687  11.007
21897W        W94190  15.806  13.710  12.843
21898W        W94191   8.671  23.595  12.085
21899W        W94192  43.918  25.590   3.217
21900W        W94193  38.539   3.328  10.926
21901W        W94194  10.299  14.201   1.307
21902W        W94195  28.660  22.641  10.948
21903W        W94196  37.348   1.314  12.540
21904W        W94197  26.987  33.123  14.785
21905W        W94198   3.324  43.781   2.253
21906W        W94199  16.623  36.587  12.997
21907W        W94200   7.209  32.011   1.899
21908W        W94201   2.400  37.487  13.503
21909W        W94202  31.118  14.629   3.663
21910W        W94203  41.327  12.176   3.231
21911W        W94204   8.850  31.079   0.325
21912W        W94205   9.273  36.990  13.351
21913W        W94206   9.327  36.436  14.514
21914W        W94207  32.551  31.452   4.780
21915W        W94208  19.063   8.755   4.211
21916W        W94209  43.358  37.509   1.364
21917W        W94210  25.052  22.236   1.389
21918W        W94211  38.561  42.899  14.431
21919W        W94212  41.940  19.547   1.331
21920W        W94213  39.357  35.019   4.336
21921W        W94214   1.405   5.914   4.313
21922W        W94215   1.754   3.755   3.270
21923W        W94216  13.694  22.043  13.361
21924W        W94217  32.092  22.678  14.823
21925W        W94218  19.185  30.478  10.002
21926W        W94219   1.810  14.119   4.693
21927W        W94220  36.858  26.192  10.559
21928W        W94221  10.732  33.551   9.993
21929W        W94222  29.510   5.261  12.934
21930W        W94223  40.338  35.858  11.592
21931W        W94224   5.222  35.453   3.186
21932W        W94225  34.013  24.111   1.754
21933W        W94226   1.767  23.167   2.781
21934W        W94227  41.811  29.940  11.001
21935W        W94228  21.044  31.108  13.857
21936W        W94229  32.576  17.705   1.778
21937W        W94230  13.789  33.455   4.821
21938W        W94231  35.582  30.952   1.769
21939W        W94232  23.715  20.657   1.323
21940W        W94233  40.006  14.726   4.739
21941W        W94234  16.748  36.881  12.374
21942W        W94235  15.597  40.000   0.905
21943W        W94236  28.996   2.748   2.385
21944W        W94237   1.450  30.044   0.956
21945W        W94238  34.903   7.213  14.895
21946W        W94239   8.877   0.822   0.339
21947W        W94240  31.134  27.447   0.439
21948W        W94241  36.076  17.103  12.015
21949W        W94242   9.322  43.346  14.777
21950W        W94243  34.066  30.643   3.375
21951W        W94244  36.870  38.519   2.792
21952W        W94245  25.203  11.349  12.939
21953W        W94246   8.240  14.819   3.795
21954W        W94247  30.593   6.298   4.822
21955W        W94248  40.455  19.750   2.855
21956W        W94249  38.942  37.992   0.775
21957W        W94250   6.258  29.433  10.434
21958W        W94251  23.687  28.084   4.203
21959W        W94252  12.796  15.659  14.787
21960W        W94253  33.450  25.688  14.429
21961W        W94254  34.942  40.944   2.817
21962W        W94255  36.437  13.823   1.931
21963W        W94256  11.826  34.484   0.760
21964W        W94257  23.200   7.314  12.536
21965W        W94258  31.598  43.398   4.683
21966W        W94259  40.920  33.531   3.326
21967W        W94260   1.869  35.486   0.258
21968W        W94261  35.908   5.869   1.795
21969W        W94262  37.392  34.082  12.990
21970W        W94263  11.822  42.499   1.369
21971W        W94264  18.712  25.164   1.253
21972W        W94265  35.995  44.771   0.843
21973W        W94266  36.869   1.761  12.987
21974W        W94267   7.784  26.018  10.905
21975W        W94268  42.369  39.958   0.797
21976W        W94269  40.968  21.571   4.759
21977W        W94270  19.117  19.067  10.916
21978W        W94271  29.009  23.161   1.366
21979W        W94272   6.922  36.396   1.233
21980W        W94273  21.621  44.761  12.567
21981W        W94274  38.340  22.664   2.225
21982W        W94275  37.481   6.256   1.821
21983W        W94276   8.358  13.150  12.397
21984W        W94277  21.173   4.717  13.002
21985W        W94278  10.332   2.880   2.227
21986W        W94279   9.820  14.742   2.213
21987W        W94280  24.038  22.631   2.378
21988W        W94281  30.498  35.086  12.995
21989W        W94282  27.633  21.218  13.489
21990W        W94283  17.136   5.765   4.351
21991W        W94284   8.387  29.461   4.660
21992W        W94285  19.220  24.069   2.702
21993W        W94286  10.668   4.819   3.862
21994W        W94287  33.536   5.717  10.133
21995W        W94288  29.171   6.689   0.890
21996W        W94289  21.096   0.807  12.382
21997W        W94290   8.199  25.597   4.305
21998W        W94291  43.962   0.487  13.871
21999W        W94292  15.308  12.269  13.883
22000W        W94293   8.177  25.182   2.215
22001W        W94294  15.741   7.736   3.265
22002W        W94295  15.259  38.047  13.440
22003W        W94296   9.179   1.793  14.383
22004W        W94297  22.230  42.514  13.379
22005W        W94298  38.914  33.952   0.782
22006W        W94299  18.696  28.618  10.613
22007W        W94300  28.046  10.833   2.394
22008W        W94301  14.268  33.446   5.236
22009W        W94302  25.562  25.112   4.830
22010W        W94303  24.534   8.842   1.807
22011W        W94304  44.906  14.159  13.349
22012W        W94305  39.471  28.663  11.374
22013W        W94306   2.278  38.459  12.977
22014W        W94307  43.340  14.629   3.767
22015W        W94308   3.241  12.637  10.543
22016W        W94309  31.564  21.638  14.918
22017W        W94310  41.535  39.400  12.409
22018W        W94311  29.990  42.400  14.869
22019W        W94312  26.659  10.667   0.800
22020W        W94313  22.100  23.223  13.336
22021W        W94314  42.336  29.105  11.028
22022W        W94315   9.307   1.402   0.333
22023W        W94316  21.696  39.446   3.238
22024W        W94317  26.166  27.677   4.348
22025W        W94318  10.803  27.686   2.365
22026W        W94319  25.063  29.465   3.229
22027W        W94320  20.676  38.832   3.175
22028W        W94321  17.776  23.093  10.066
22029W        W94322  37.916  17.646   4.768
22030W        W94323  13.642  38.402  12.442
22031W        W94324  30.541  31.552  10.994
22032W        W94325  44.874  19.664   3.350
22033W        W94326   4.719   6.377   2.705
22034W        W94327  23.998  36.493  12.563
22035W        W94328   0.837  20.167   0.738
22036W        W94329  26.565  11.278  11.476
22037W        W94330  13.695   0.336   4.275
22038W        W94331  19.592  44.381  14.353
22039W        W94332  44.284  18.701  14.982
22040W        W94333  40.512  20.070   0.390
22041W        W94334   4.726  42.457   1.324
22042W        W94335  42.859  31.629   2.265
22043W        W94336   0.816  37.362  11.050
22044W        W94337  35.858  19.172  10.976
22045W        W94338  15.679  34.531   3.186
22046W        W94339   3.400  31.058   1.838
22047W        W94340  43.862  22.114   3.202
22048W        W94341  28.101  30.578  12.004
22049W        W94342  20.570  27.452  11.098
22050W        W94343  38.046  29.980  10.958
22051W        W94344  11.783  23.226   0.864
22052W        W94345   1.843  22.627   2.321
22053W        W94346  19.637  33.471   3.299
22054W        W94347  19.743  43.850   3.335
22055W        W94348  39.397  31.469  13.880
22056W        W94349  23.021  35.864  14.922
22057W        W94350   7.353  38.451  13.403
22058W        W94351  14.796   1.758   5.719
22059W        W94352   5.785  33.989  13.933
22060W        W94353   7.803  32.058   5.244
22061W        W94354  40.943  16.181   4.695
22062W        W94355  30.573   6.803  13.996
22063W        W94356   7.413  15.774  13.547
22064W        W94357  35.430  15.607   1.919
22065W        W94358  30.009  20.612   0.423
22066W        W94359  18.189  30.480   2.784
22067W        W94360  31.614  20.250  13.911
22068W        W94361  12.267  23.721   3.699
22069W        W94362  13.119  14.187   1.851
22070W        W94363  33.588  34.919  10.484
22071W        W94364  26.594  19.701   1.268
22072W        W94365   8.237   0.258  10.636
22073W        W94366   5.736  17.168  11.521
22074W        W94367  16.802  14.281   2.248
22075W        W94368  29.503   3.328  11.445
22076W        W94369  23.071   6.815  10.638
22077W        W94370  41.424   6.219   1.726
22078W        W94371   2.293  38.570  14.408
22079W        W94372  20.550   3.866  10.540
22080W        W94373   0.909  18.573  13.517
22081W        W94374  42.027  44.937  11.969
22082W        W94375   5.426  38.386  13.947
22083W        W94376  17.793  22.731   1.798
22084W        W94377   1.399  44.399  14.434
22085W        W94378  36.422  41.387  10.941
22086W        W94379   2.909  33.016   2.187
22087W        W94380  36.097  15.586  11.894
22088W        W94381  35.598  12.725   3.818
22089W        W94382  34.078  23.077  14.320
22090W        W94383  16.128  24.704   4.297
22091W        W94384   1.894  11.337  12.017
22092W        W94385  23.189  35.375  11.493
22093W        W94386   6.806  31.554  10.497
22094W        W94387   7.678   3.813  14.420
22095W        W94388   7.199  31.604  11.972
22096W        W94389  39.513  11.753   4.276
22097W        W94390   3.266  35.994   2.750
22098W        W94391  37.456  11.624  11.514
22099W        W94392  10.638   6.203  14.017
22100W        W94393  38.986  33.536  10.091
22101W        W94394  17.618  34.518   3.156
22102W        W94395  32.005  12.282  12.879
22103W        W94396  29.155  40.310   1.355
22104W        W94397  30.503  34.074  10.508
22105W        W94398   5.814  35.054   2.761
22106W        W94399  26.086  30.566   0.787
22107W        W94400  39.368  39.968   0.483
22108W        W94401   4.356  27.601   1.302
22109W        W94402  24.061  39.947   4.784
22110W        W94403  24.491  36.582  12.448
22111W        W94404  31.080  27.183  12.953
22112W        W94405  35.019  32.007  10.084
22113W        W94406  42.821  39.866  10.556
22114W        W94407  25.537  35.400   2.848
22115W        W94408  37.554  41.810   2.356
22116W        W94409  34.037  25.982  10.436
22117W        W94410  39.322  29.607  10.967
22118W        W94411  39.503  33.949  12.029
22119W        W94412   4.751  32.572   4.752
22120W        W94413   7.379   2.799   4.641
22121W        W94414   3.288  21.117   0.251
22122W        W94415  22.092  26.519   9.940
22123W        W94416  42.910  16.770  14.374
22124W        W94417  30.962  41.987   1.750
22125W        W94418  16.174  12.781  11.437
22126W        W94419  28.553  27.542  14.013
22127W        W94420  38.029  19.561   2.705
22128W        W94421  20.622  13.235   4.240
22129W        W94422   7.378  35.412   0.269
22130W        W94423  28.027  26.688   2.879
22131W        W94424  29.553  44.766   2.703
22132W        W94425   5.860  26.621   0.432
22133W        W94426  43.780   7.719  12.516
22134W        W94427  26.192  19.162   4.600
22135W        W94428   5.214  25.161  10.631
22136W        W94429  39.396  42.449   2.266
22137W        W94430  24.538  16.765  11.085
22138W        W94431  31.016  16.790  11.108
22139W        W94432  34.374  17.181   4.775
22140W        W94433  34.026  16.151   3.783
22141W        W94434  37.027  18.553  14.822
22142W        W94435   1.870  41.993  13.819
22143W        W94436   8.245  23.135  10.937
22144W        W94437  40.317  16.293  12.424
22145W        W94438  22.602   5.832   4.781
22146W        W94439  29.059  10.852  14.324
22147W        W94440  36.879  28.522   4.183
22148W        W94441  42.808  34.910  13.012
22149W        W94442  27.170  40.812  12.938
22150W        W94443  12.359  22.533  10.535
22151W        W94444  20.087  30.908   1.335
22152W        W94445  13.281  16.304   3.636
22153W        W94446  41.400   0.307  13.855
22154W        W94447   6.821   6.207   3.199
22155W        W94448  40.849   5.737  14.760
22156W        W94449  27.981  44.973   2.286
22157W        W94450  23.060  24.696   1.273
22158W        W94451  41.862  11.134   3.243
22159W        W94452  44.390   8.259  13.475
22160W        W94453  44.866  25.474  14.785
22161W        W94454  23.141  19.201   2.277
22162W        W94455  34.580  19.230   4.333
22163W        W94456  32.534  41.343   4.153
22164W        W94457  12.832  10.772  14.337
22165W        W94458  10.786  16.778  11.076
22166W        W94459   0.812  29.073   0.438
22167W        W94460  11.155  27.180  13.982
22168W        W94461  18.672  27.020   2.831
22169W        W94462  32.572  18.758   2.202
22170W        W94463  43.302  28.932  10.464
22171W        W94464  29.918  24.013  13.365
22172W        W94465   1.259  19.070   3.686
22173W        W94466  26.627  31.899   2.685
22174W        W94467   0.377  25.103   1.823
22175W        W94468  35.029  36.946   4.614
22176W        W94469  24.601  18.196   3.233
22177W        W94470  25.118  16.086   1.265
22178W        W94471   6.692  44.009  10.445
22179W        W94472   9.247  19.603   0.249
22180W        W94473  13.221  44.437  11.044
22181W        W94474  37.072  20.636   2.887
22182W        W94475   3.315  42.867  14.378
22183W        W94476  12.290  24.643  14.499
22184W        W94477  17.618  26.580  14.955
22185W        W94478   1.840   8.893  12.836
22186W        W94479  24.174  26.120   0.775
22187W        W94480  40.329  39.919   0.945
22188W        W94481  33.572  31.548   4.688
22189W        W94482  10.671  35.098   4.127
22190W        W94483  18.598  13.749  11.998
22191W        W94484  39.352  26.496  10.959
22192W        W94485  31.604  42.993  10.555
22193W        W94486  12.788  13.645   2.256
22194W        W94487  31.492  22.513  10.602
22195W        W94488  25.083  39.986  14.963
22196W        W94489  38.978  33.486  11.577
22197W        W94490  19.574  15.788  10.972
22198W        W94491  14.643  15.589  10.491
22199W        W94492   2.901  44.350  14.992
22200W        W94493  34.873   9.683  14.991
22201W        W94494  42.434  43.002  12.428
22202W        W94495  43.367  32.069  10.454
22203W        W94496  17.254  18.139  14.475
22204W        W94497   9.728   3.445  12.942
22205W        W94498  12.259  40.950   0.309
22206W        W94499  18.106  24.059  14.413
22207W        W94500  13.703   3.332   4.323
22208W        W94501  37.538  22.190   2.189
22209W        W94502  41.456  35.407   1.223
22210W        W94503  18.284   3.261   4.219
22211W        W94504   7.382  38.063  12.983
22212W        W94505  10.199  44.883   2.784
22213W        W94506  12.789  23.030  12.898
22214W        W94507  28.440  11.764  12.374
22215W        W94508  11.854  24.973   3.695
22216W        W94509  18.547  33.508   1.358
22217W        W94510  33.623  15.110   1.914
22218W        W94511  24.044  32.423   0.304
22219W        W94512  33.016  20.096  11.533
22220W        W94513  14.717  42.442  11.537
22221W        W94514  32.139  38.984  11.497
22222W        W94515  34.978  26.189   4.824
22223W        W94516  29.449   0.786   1.381
22224W        W94517  15.627   6.324   1.907
22225W        W94518  25.212  13.132   3.827
22226W        W94519   3.935   1.888   3.845
22227W        W94520  12.177  24.229   2.801
22228W        W94521  38.435  35.595  13.418
22229W        W94522  37.470  35.938  14.973
22230W        W94523  43.893  10.830   3.365
22231W        W94524  26.478  15.257  12.397
22232W        W94525  16.073  13.208   2.188
22233W        W94526   7.331  43.907  12.890
22234W        W94527  36.077  32.935   2.672
22235W        W94528  29.046   8.862  12.392
22236W        W94529  10.234   6.187   4.803
22237W        W94530  27.654   0.794  10.624
22238W        W94531  44.350  18.775   9.587
22239W        W94532  14.740   9.818  11.892
22240W        W94533  13.607  43.945   0.329
22241W        W94534  11.755  44.266  12.026
22242W        W94535  33.477  18.116  10.087
22243W        W94536   6.676  32.595   3.196
22244W        W94537  27.583  20.065   0.901
22245W        W94538  38.376  22.063  13.003
22246W        W94539   7.782   9.352   4.762
22247W        W94540  25.970   2.772  13.502
22248W        W94541  25.534  38.028  14.386
22249W        W94542  44.876  42.382   4.191
22250W        W94543  10.825  23.088   1.255
22251W        W94544  26.158  38.355  11.928
22252W        W94545  13.172  32.028  10.625
22253W        W94546   0.270  22.648   2.401
22254W        W94547   7.880  28.662   2.746
22255W        W94548  12.331  18.731   3.254
22256W        W94549  34.480  44.447  11.432
22257W        W94550  43.814  14.291  14.406
22258W        W94551  25.491   8.809  11.994
22259W        W94552  39.317   4.916   2.836
22260W        W94553  36.557  16.579   4.188
22261W        W94554  18.545   8.675   4.116
22262W        W94555  18.634  41.808  12.561
22263W        W94556  35.442  19.089   3.255
22264W        W94557  33.507  20.210  13.835
22265W        W94558  38.525  26.961   1.871
22266W        W94559  30.011  37.950  10.421
22267W        W94560  24.721  29.155  12.961
22268W        W94561  23.510  40.304  12.445
22269W        W94562  24.098  40.351  10.031
22270W        W94563   8.727   9.250  13.431
22271W        W94564  23.726   4.219   3.157
22272W        W94565  17.292  43.369  13.352
22273W        W94566   8.287   8.776   4.167
22274W        W94567  44.413  20.617   3.665
22275W        W94568  34.530  10.832  13.459
22276W        W94569  24.084  38.004  12.514
22277W        W94570   2.797  11.138  12.460
22278W        W94571  27.460  29.454   0.371
22279W        W94572   5.773  32.558   3.734
22280W        W94573  36.941  16.602  14.972
22281W        W94574  41.380   6.773   4.120
22282W        W94575  31.973   0.444   4.639
22283W        W94576  29.945  36.001   3.810
22284W        W94577  34.887   3.240   1.827
22285W        W94578  30.045  43.455  10.598
22286W        W94579  44.900  24.201  11.983
22287W        W94580  17.106  35.499  11.120
22288W        W94581  22.616   3.785   1.420
22289W        W94582  25.052  24.542  14.426
22290W        W94583  27.064  35.070   3.646
22291W        W94584   7.272  10.732  11.608
22292W        W94585   6.336  11.830   3.325
22293W        W94586  29.144  37.013   3.717
22294W        W94587   3.400  18.696   3.321
22295W        W94588  29.161  10.707   3.199
22296W        W94589  32.085  31.898   1.323
22297W        W94590   2.340  12.315  12.495
22298W        W94591  12.220  16.710  13.056
22299W        W94592  38.940  20.594  12.975
22300W        W94593  15.203  31.414  13.956
22301W        W94594  19.591   2.909  12.558
22302W        W94595  43.969  38.450   1.345
22303W        W94596  18.709  31.906  14.826
22304W        W94597  15.776  42.775   9.954
22305W        W94598   0.436  33.921   2.847
22306W        W94599  35.872  32.114  14.874
22307W        W94600  30.560  27.150  10.962
22308W        W94601  43.328   6.271  13.927
22309W        W94602  44.981  43.487  14.031
22310W        W94603   3.751  18.054   1.812
22311W        W94604  25.691  22.542   4.737
22312W        W94605  15.592  38.424  14.468
22313W        W94606   6.827  16.637  11.551
22314W        W94607  40.449   1.242  12.449
22315W        W94608  21.076  34.502   9.929
22316W        W94609  37.971   2.918   4.194
22317W        W94610  14.644  18.254  10.602
22318W        W94611  38.921  37.576  12.396
22319W        W94612  26.162  16.681   0.320
22320W        W94613   2.348  30.504   1.763
22321W        W94614  21.603  13.730  11.877
22322W        W94615  33.578  11.222  13.796
22323W        W94616   3.350  32.525  12.477
22324W        W94617   4.782  41.859  12.492
22325W        W94618  31.065   5.852  12.077
22326W        W94619  32.036  33.511  10.639
22327W        W94620   2.868  14.213  11.988
22328W        W94621  32.943  36.526  13.465
22329W        W94622  42.391  10.283  11.922
22330W        W94623   4.833  11.780  12.439
22331W        W94624   8.289   2.883  14.921
22332W        W94625  37.078  14.664  12.547
22333W        W94626  23.071   3.828   3.370
22334W        W94627  34.901  19.603   5.195
22335W        W94628  25.481  11.299   1.361
22336W        W94629  37.071  37.562   1.910
22337W        W94630  41.032  34.883   4.298
22338W        W94631  35.516   4.238   1.920
22339W        W94632  38.902  25.031   5.089
22340W        W94633  19.545   7.709   4.797
22341W        W94634  23.026   6.209  11.085
22342W        W94635   4.792  25.658   4.124
22343W        W94636  43.316   0.311   1.759
22344W        W94637   6.849  10.656   2.823
22345W        W94638  30.043  10.337   5.130
22346W        W94639  17.248  40.484   0.383
22347W        W94640  31.406  27.034  13.425
22348W        W94641   2.283  26.165  13.894
22349W        W94642  18.720  12.734   4.148
22350W        W94643  39.900   0.276  12.032
22351W        W94644   3.299  27.579  13.436
22352W        W94645  22.107  43.297  14.885
22353W        W94646  16.648  40.934   3.154
22354W        W94647   5.895   4.825   1.403
22355W        W94648  33.119  41.014   2.854
22356W        W94649   4.794   8.859   1.723
22357W        W94650   0.358   4.333  13.547
22358W        W94651  39.416  41.314  13.885
22359W        W94652  14.171  16.131   4.837
22360W        W94653  37.967  17.236   0.434
22361W        W94654   7.857  27.986   5.166
22362W        W94655   4.208  30.620   4.732
22363W        W94656  42.812  14.624   5.156
22364W        W94657  15.706  34.491   1.437
22365W        W94658  22.153  21.560   1.248
22366W        W94659  10.877  30.116  10.947
22367W        W94660  23.009  31.072   3.790
22368W        W94661  17.171   2.363  10.509
22369W        W94662  16.223  11.303  11.074
22370W        W94663  31.095  22.105   3.765
22371W        W94664   0.288  10.735  10.602
22372W        W94665  22.548  11.190  11.037
22373W        W94666   0.397  16.303  13.865
22374W        W94667   2.825  20.617  14.846
22375W        W94668  32.524  38.075   2.743
22376W        W94669  24.687  26.570   5.135
22377W        W94670   9.643  40.322   4.180
22378W        W94671  33.450  28.460  12.886
22379W        W94672  18.780  17.574  13.477
22380W        W94673   0.256  32.024  14.463
22381W        W94674  23.730  10.688  13.867
22382W        W94675   9.785   3.872   0.963
22383W        W94676  18.200   3.271   0.916
22384W        W94677  31.585  40.909   2.265
22385W        W94678   8.755   3.284   1.357
22386W        W94679  34.945   3.358  11.101
22387W        W94680  23.501  13.793  13.474
22388W        W94681  33.566   6.188  10.492
22389W        W94682  17.103  29.584  10.984
22390W        W94683  12.353  24.134  12.063
22391W        W94684  38.387  42.813   4.711
22392W        W94685  32.568  25.640   2.721
22393W        W94686   2.964  28.956  10.529
22394W        W94687  18.568  12.167   4.838
22395W        W94688  13.788  21.255  12.969
22396W        W94689  17.764  11.865   4.131
22397W        W94690  30.158  14.211  11.079
22398W        W94691  27.472  32.395  10.590
22399W        W94692  34.028   9.341   3.271
22400W        W94693  38.468  36.085  13.349
22401W        W94694  39.515  15.227   0.801
22402W        W94695   8.782  11.695  11.893
22403W        W94696  30.569   0.361   3.739
22404W        W94697   4.337  20.093   4.307
22405W        W94698  14.774  18.200  13.856
22406W        W94699  43.327   3.918  13.417
22407W        W94700  22.149  16.629  11.495
22408W        W94701  24.175   5.852   0.743
22409W        W94702  22.637   4.235   2.773
22410W        W94703   8.736  44.935  12.829
22411W        W94704  40.444  28.494   1.807
22412W        W94705  10.354   1.762  13.477
22413W        W94706  34.470  24.563  14.460
22414W        W94707  26.183   4.918   2.897
22415W        W94708  37.524   2.228   4.291
22416W        W94709  44.993  15.201  13.824
22417W        W94710  25.058  11.774   0.932
22418W        W94711  41.903  31.940  11.026
22419W        W94712   7.671   8.315  13.429
22420W        W94713  30.545   5.211  13.861
22421W        W94714   0.888  43.330  12.394
22422W        W94715  39.923  33.877   4.771
22423W        W94716   8.229   1.732  10.620
22424W        W94717  16.715  33.083  14.485
22425W        W94718   9.226  36.472  12.372
22426W        W94719  26.999  30.045  14.795
22427W        W94720  15.777  33.544   4.222
22428W        W94721  36.505   7.884   3.765
22429W        W94722  44.445  10.807   0.310
22430W        W94723  34.894   8.182  12.358
22431W        W94724   4.241  12.362   2.310
22432W        W94725  39.046  29.941   0.782
22433W        W94726  27.149  25.613  13.908
22434W        W94727  32.942  42.322  12.928
22435W        W94728  13.202  26.628   0.849
22436W        W94729  43.479  24.018   1.743
22437W        W94730  28.647  18.209  11.097
22438W        W94731  44.381  41.880  11.603
22439W        W94732  41.375  29.050   4.802
22440W        W94733  11.688  40.503  10.956
22441W        W94734  14.207  44.401  14.850
22442W        W94735  35.559   5.259   1.717
22443W        W94736   2.817  18.270   4.307
22444W        W94737   1.348  40.494   3.745
22445W        W94738   1.732  16.708  11.015
22446W        W94739  11.290  42.836   1.861
22447W        W94740   1.795   8.343   3.778
22448W        W94741  17.599   6.721  13.322
22449W        W94742   1.840  17.061  10.980
22450W        W94743  14.185  39.342  12.415
22451W        W94744   2.839  22.705   1.838
22452W        W94745  42.873   8.758   2.251
22453W        W94746  36.899   9.741   0.432
22454W        W94747  44.287  40.885   1.701
22455W        W94748  11.179  12.789   3.870
22456W        W94749   1.895  15.690  14.436
22457W        W94750   5.384  39.323   0.797
22458W        W94751  10.870  22.661  12.477
22459W        W94752   9.777  28.173   0.822
22460W        W94753  16.611  18.558  12.870
22461W        W94754  30.982  35.576   4.702
22462W        W94755  39.978  31.418   1.407
22463W        W94756   7.839  15.118   3.639
22464W        W94757  20.639  35.534  14.423
22465W        W94758  10.347   7.288   2.188
22466W        W94759   8.285  13.165   1.271
22467W        W94760   3.430   6.199   1.389
22468W        W94761  25.603  26.175   0.254
22469W        W94762   0.330   0.302   2.223
22470W        W94763  31.554   7.710   1.706
22471W        W94764  25.496  27.542  10.499
22472W        W94765  26.610  33.588   3.839
22473W        W94766   5.412  16.232   4.186
22474W        W94767  10.304  36.862  14.824
22475W        W94768  33.465  11.777  10.576
22476W        W94769  34.011   0.266  14.906
22477W        W94770  31.437   6.901   2.406
22478W        W94771   7.328  15.775  11.091
22479W        W94772   8.701   2.900   1.812
22480W        W94773  10.164   1.824   9.988
22481W        W94774  27.066  39.551  12.434
22482W        W94775   4.839  17.180   1.401
22483W        W94776  32.568  21.581   2.902
22484W        W94777   2.366   4.825  12.927
22485W        W94778  32.118  38.976  11.879
22486W        W94779  40.954  27.977   4.754
22487W        W94780  23.202   8.803  10.641
22488W        W94781  42.019  41.931   4.251
22489W        W94782  39.869  14.106   2.353
22490W        W94783   3.724  39.316   4.704
22491W        W94784   8.339  31.478  12.840
22492W        W94785  27.620  25.042   1.774
22493W        W94786  30.065  31.007  14.802
22494W        W94787  33.467   4.914   5.106
22495W        W94788  16.658   9.286  14.496
22496W        W94789  14.730  13.279   4.154
22497W        W94790  41.792  42.963  14.427
22498W        W94791   9.817  30.480   4.672
22499W        W94792   6.882  29.506  13.364
22500W        W94793  44.921  18.221   0.341
22501W        W94794   9.317   3.827   3.196
22502W        W94795  25.117  27.687  10.978
22503W        W94796  41.347  22.161   0.766
22504W        W94797   4.442  40.531   0.281
22505W        W94798  11.192  30.911  13.399
22506W        W94799  28.975   3.873   0.730
22507W        W94800  39.437  23.048  10.992
22508W        W94801  34.897   7.687  12.879
22509W        W94802  36.026  34.085  14.880
22510W        W94803  27.500  25.076  13.013
22511W        W94804  42.289   9.851  13.496
22512W        W94805   7.759  12.801   4.349
22513W        W94806  26.503   0.855   1.877
22514W        W94807   0.800  37.876   2.262
22515W        W94808  40.420   0.311   0.415
22516W        W94809   2.952  24.998   3.871
22517W        W94810  15.233  27.651   3.722
22518W        W94811  28.445   1.835   0.293
22519W        W94812  13.728   9.371   2.201
22520W        W94813  27.062   2.901   2.784
22521W        W94814  38.856   8.655   2.279
22522W        W94815   0.353  24.518  11.582
22523W        W94816  13.347  29.570   2.860
22524W        W94817  15.731  20.169   2.694
22525W        W94818  24.533  28.959  14.396
22526W        W94819  14.816  20.699  14.945
22527W        W94820  22.010  27.029   2.182
22528W        W94821   1.864  38.404   0.856
22529W        W94822  27.675  23.607  12.552
22530W        W94823   5.906  17.107  10.474
22531W        W94824  40.314   1.408  14.015
22532W        W94825  18.181  16.092   3.699
22533W        W94826  29.487  43.469   0.769
22534W        W94827  33.544  23.607   3.189
22535W        W94828  13.256  37.422   3.845
22536W        W94829   0.336   7.784  13.815
22537W        W94830  35.560  33.560   3.680
22538W        W94831  37.338   3.754   2.269
22539W        W94832   5.840  38.070  13.484
22540W        W94833  33.604  39.344  11.914
22541W        W94834  15.227  35.521  12.062
22542W        W94835  20.068  37.510   2.389
22543W        W94836   9.171  10.833  13.824
22544W        W94837  16.164  37.383  10.571
22545W        W94838  24.537  23.148   1.824
22546W        W94839  28.143  18.128   4.331
22547W        W94840  26.020   5.805   3.226
22548W        W94841  37.438  21.593   4.665
22549W        W94842  39.330  42.939   0.965
22550W        W94843  28.544   8.254   4.130
22551W        W94844   7.803  13.808  10.600
22552W        W94845  44.978  41.017  11.387
22553W        W94846  32.125  12.245   4.256
22554W        W94847  38.482  17.567   1.727
22555W        W94848  13.327  29.964   3.374
22556W        W94849  44.790  20.676   3.303
22557W        W94850  15.124   2.929  12.398
22558W        W94851   6.911  21.136  14.323
22559W        W94852  39.002  29.654   3.170
22560W        W94853   5.798  35.466   2.838
22561W        W94854  28.134  43.386  11.060
22562W        W94855  41.885  16.605  13.547
22563W        W94856  14.230  23.101  12.574
22564W        W94857  20.595   2.462   3.751
22565W        W94858   6.815  36.884  11.024
22566W        W94859  10.669  29.128  11.400
22567W        W94860  27.061  17.588   0.756
22568W        W94861  22.701  25.512  12.529
22569W        W94862  11.200  12.183   0.472
22570W        W94863   6.752  18.680   2.846
22571W        W94864  25.577  28.526  12.477
22572W        W94865  19.607   0.260  12.472
22573W        W94866  26.625  35.010   5.170
22574W        W94867  11.164  37.560  12.570
22575W        W94868  43.923  14.786  13.915
22576W        W94869  36.045  44.885  10.589
22577W        W94870  13.197  36.012  11.884
22578W        W94871  36.990   0.986   0.257
22579W        W94872  10.712  28.020  12.056
22580W        W94873  22.136  36.984  14.808
22581W        W94874   2.326  42.917  13.954
22582W        W94875  40.437  34.052   2.239
22583W        W94876  41.504   3.333  10.414
22584W        W94877  42.380  21.025   1.794
22585W        W94878   4.303  42.897  10.937
22586W        W94879  27.487  12.312  10.574
22587W        W94880  30.414   4.743  12.964
22588W        W94881  38.975  17.172   2.201
22589W        W94882  18.196  28.013   4.621
22590W        W94883  44.295   5.319  11.519
22591W        W94884  21.242  29.119   4.705
22592W        W94885  27.001  33.401   2.835
22593W        W94886   9.286   5.817  14.984
22594W        W94887  20.268   4.392  14.893
22595W        W94888  27.613   8.883  11.482
22596W        W94889  10.308   7.891   0.273
22597W        W94890  29.460  37.903   3.208
22598W        W94891  42.367   5.411   2.414
22599W        W94892  41.883  16.658  12.534
22600W        W94893  12.655   8.316  12.470
22601W        W94894  42.324  17.143  12.362
22602W        W94895  16.167  18.585   4.760
22603W        W94896   4.763  41.393  11.408
22604W        W94897  16.177   7.667  12.362
22605W        W94898  36.562  40.993   0.733
22606W        W94899  15.241   9.769  14.762
22607W        W94900  21.653  17.574  14.023
22608W        W94901  44.412  23.726  13.037
22609W        W94902  36.472   3.254   0.480
22610W        W94903  16.078  43.283  12.405
22611W        W94904  17.272  10.304  10.498
22612W        W94905  29.611  43.918  12.545
22613W        W94906  42.797  38.883  14.825
22614W        W94907  11.809  28.942   2.248
22615W        W94908   8.860  21.730  12.085
22616W        W94909  15.696   3.805  13.361
22617W        W94910  11.713  18.131   1.449
22618W        W94911  35.858  15.309   2.235
22619W        W94912  44.432  10.229  14.280
22620W        W94913  25.103  18.627  10.430
22621W        W94914  12.309  17.686  14.869
22622W        W94915  40.453  10.253  13.978
22623W        W94916  38.341  39.968  13.534
22624W        W94917  27.194  29.967  11.566
22625W        W94918   6.721  29.670  13.056
22626W        W94919  44.854  40.382   0.962
22627W        W94920  29.936  24.085   3.832
22628W        W94921  35.017  32.588  14.898
22629W        W94922  38.988  26.175  11.997
22630W        W94923  23.589  29.959  12.853
22631W        W94924   7.875  38.823  11.610
22632W        W94925  33.600  25.007  11.941
22633W        W94926  22.056  24.229   0.755
22634W        W94927  21.181   3.297   0.367
22635W        W94928  10.236   5.909  11.098
22636W        W94929  11.152   9.198   4.165
22637W        W94930   3.373  16.806   2.366
22638W        W94931   3.868   7.714  10.925
22639W        W94932   3.401  24.567  11.005
22640W        W94933  37.408  10.677  11.047
22641W        W94934  44.003  13.185  12.057
22642W        W94935   9.286  12.704  14.958
22643W        W94936  30.967  32.447  13.908
22644W        W94937  10.715   7.273   4.747
22645W        W94938  42.896  39.922  13.492
22646W        W94939  11.172  44.259   1.859
22647W        W94940   2.230  20.206   0.855
22648W        W94941  31.604  25.689   1.301
22649W        W94942  31.962  32.391   1.904
22650W        W94943  35.979   8.216   4.274
22651W        W94944  28.141  16.145   0.392
22652W        W94945  25.101   9.747   3.663
22653W        W94946  44.872  35.357   2.741
22654W        W94947  35.401  36.536  12.888
22655W        W94948   5.707   1.776  11.575
22656W        W94949  40.477   6.297  13.400
22657W        W94950  34.008  44.945  14.425
22658W        W94951  23.121  23.049  10.616
22659W        W94952  23.734   5.734  10.915
22660W        W94953  37.023  14.267  11.949
22661W        W94954  22.232  26.508   1.797
22662W        W94955   4.267   4.262  14.891
22663W        W94956   3.892  37.335  13.927
22664W        W94957  14.188  33.116   3.248
22665W        W94958  12.361  12.305   3.838
22666W        W94959  40.491  18.259   3.368
22667W        W94960  14.787  20.763   3.785
22668W        W94961  19.085  31.523   5.209
22669W        W94962  29.455  38.402   3.635
22670W        W94963  29.142   6.728  11.530
22671W        W94964  42.340   3.377  11.930
22672W        W94965  10.635  20.743   0.287
22673W        W94966   1.322   2.466  10.615
22674W        W94967   7.387  10.148   2.239
22675W        W94968   9.252  38.384   0.753
22676W        W94969  19.699  32.431   5.322
22677W        W94970  12.242  39.858  14.304
22678W        W94971  23.124  29.158  14.404
22679W        W94972   8.244  24.698   4.636
22680W        W94973  40.033  10.662  12.913
22681W        W94974  34.934  24.165  10.953
22682W        W94975  43.996  36.890   5.085
22683W        W94976  33.985  12.121  14.492
22684W        W94977  18.106  20.696  14.793
22685W        W94978  27.586  11.338  11.039
22686W        W94979  27.964  33.592   2.211
22687W        W94980  20.561  40.318  13.058
22688W        W94981  18.662  41.446  14.006
22689W        W94982  12.614  14.748  12.913
22690W        W94983  41.400  37.998  11.529
22691W        W94984  14.243   1.860  13.019
22692W        W94985  40.366  37.355  10.565
22693W        W94986  44.362  10.146  10.902
22694W        W94987   7.213   8.330  10.476
22695W        W94988  42.906   5.696  12.094
22696W        W94989  40.027  43.792  10.569
22697W        W94990  44.282  21.065  12.845
22698W        W94991  22.050  28.660  13.354
22699W        W94992  22.501   9.685  12.383
22700W        W94993   9.697  16.284   0.256
22701W        W94994  21.026  44.771   2.378
22702W        W94995  27.057  18.064   2.882
22703W        W94996  42.469  43.282  10.120
22704W        W94997  41.452  22.237  10.999
22705W        W94998  35.049  32.124   3.344
22706W        W94999   8.892  32.432  14.855
22707W        W95000  30.474  23.027  12.533
22708W        W95001  31.086  39.029  14.883
22709W        W95002   2.281  17.683  13.999
22710W        W95003  42.335  43.341  14.965
22711W        W95004  11.305  37.563  11.065
22712W        W95005  35.569  26.121   0.941
22713W        W95006  12.655  34.570  13.920
22714W        W95007  18.170  38.491   1.778
22715W        W95008   7.785  37.378  13.467
22716W        W95009  16.285  15.293   1.777
22717W        W95010  26.538  22.744   3.724
22718W        W95011  19.050  42.997   0.863
22719W        W95012  39.484   1.787  11.468
22720W        W95013   1.971  25.478  13.374
22721W        W95014  15.616   5.905   1.398
22722W        W95015  41.433  11.828   3.145
22723W        W95016  21.182  35.550   3.213
22724W        W95017  35.380  11.847   4.338
22725W        W95018  30.134  20.154   3.868
22726W        W95019   4.804  41.496  12.023
22727W        W95020  35.420  32.537   0.308
22728W        W95021   1.959  14.792   1.265
22729W        W95022  43.496  41.872  12.553
22730W        W95023  15.181  14.711  14.864
22731W        W95024   3.461   1.448   4.800
22732W        W95025  43.827  31.413   3.386
22733W        W95026  37.043  18.676   2.223
22734W        W95027   6.402   7.222   0.903
22735W        W95028  41.491  13.811  12.560
22736W        W95029   3.367  29.146  12.510
22737W        W95030  19.158  15.291   1.339
22738W        W95031   9.369   8.787   2.815
22739W        W95032   0.812  38.344   0.266
22740W        W95033  31.607  23.197   1.777
22741W        W95034  10.362  15.200  12.052
22742W        W95035  25.641  29.994   1.396
22743W        W95036   4.772   3.945  11.857
22744W        W95037  43.968  32.433  11.114
22745W        W95038  20.254  44.468   0.849
22746W        W95039   6.204  43.794   4.617
22747W        W95040  17.065  23.673   3.250
22748W        W95041  20.586  13.261   4.598
22749W        W95042  28.126  13.828   4.330
22750W        W95043   5.850  33.099  11.591
22751W        W95044  41.813  33.960  13.900
22752W        W95045   7.687  32.426   3.832
22753W        W95046  34.935  19.276  10.936
22754W        W95047  15.138  21.044   3.279
22755W        W95048  37.420  24.555  12.013
22756W        W95049   3.294  24.533   1.359
22757W        W95050  23.999  23.192  13.324
22758W        W95051   1.840  34.877  14.899
22759W        W95052  39.839  33.496  12.046
22760W        W95053  39.827  27.505   1.433
22761W        W95054  17.778   2.958   3.349
22762W        W95055  43.310  18.566  10.908
22763W        W95056  25.982  33.103   1.386
22764W        W95057  17.623   5.825   0.885
22765W        W95058   0.370  36.440  14.441
22766W        W95059  33.421  21.581   1.219
22767W        W95060  32.114  39.051   0.815
22768W        W95061  45.000   9.847   4.163
22769W        W95062   7.666   4.383  10.562
22770W        W95063  16.712  35.515   4.269
22771W        W95064  30.624  41.405   1.219
22772W        W95065  33.471  22.508   1.725
22773W        W95066  15.169  29.970  13.030
22774W        W95067  19.256  28.132  12.831
22775W        W95068  40.458  10.738  10.493
22776W        W95069   1.772  12.790  13.527
22777W        W95070  42.813   3.358   4.263
22778W        W95071  44.450  19.588  11.564
22779W        W95072   9.648  42.024   1.440
22780W        W95073  26.104  44.859   3.156
22781W        W95074  26.647   3.804   3.703
22782W        W95075  20.168  21.259   2.719
22783W        W95076  21.074   9.674   4.633
22784W        W95077  24.130  23.017  13.808
22785W        W95078  28.578  18.284   0.731
22786W        W95079  18.213  13.327  10.473
22787W        W95080  23.169  22.583   0.860
22788W        W95081  44.962  24.682   3.837
22789W        W95082  14.286  17.179   4.695
22790W        W95083   0.977  25.627  12.067
22791W        W95084  43.495   6.871  14.911
22792W        W95085  21.691  37.505   3.221
22793W        W95086  28.134   9.343   3.280
22794W        W95087  12.247  44.994  13.468
22795W        W95088  22.021  10.326   9.945
22796W        W95089  20.687  29.143  11.905
22797W        W95090  26.021  25.023   2.348
22798W        W95091  17.172  22.018   3.216
22799W        W95092   5.359  28.557  12.967
22800W        W95093  26.042  41.831   1.721
22801W        W95094   8.335   4.744   4.251
22802W        W95095   1.248  30.973   4.727
22803W        W95096  43.443  22.528   4.748
22804W        W95097  33.620  36.065  13.546
22805W        W95098  11.763   5.763   3.191
22806W        W95099   1.432   7.337   2.308
22807W        W95100  30.478  43.958   4.226
22808W        W95101  13.738   4.713  10.617
22809W        W95102  42.454  42.453  13.521
22810W        W95103  23.062  41.013  14.858
22811W        W95104  20.720  32.912  13.497
22812W        W95105   0.271  43.857   0.913
22813W        W95106  19.710   8.353   0.325
22814W        W95107  31.626   8.870   2.661
22815W        W95108  10.358   5.691   5.103
22816W        W95109   9.698   1.350   1.290
22817W        W95110   4.832   5.918  10.091
22818W        W95111   9.855  32.142  11.513
22819W        W95112  18.683  20.167   3.749
22820W        W95113  17.148   3.935   4.835
22821W        W95114  42.379   0.395  11.397
22822W        W95115  30.489   1.480  14.378
22823W        W95116   6.818  32.081   1.364
22824W        W95117  20.600  36.883  12.970
22825W        W95118  14.697   9.719  13.495
22826W        W95119   0.460  15.329  11.950
22827W        W95120  30.034  22.042   0.901
22828W        W95121  28.605   5.363   0.749
22829W        W95122  37.872  29.652  10.898
22830W        W95123  28.518   7.762  12.386
22831W        W95124  35.490   8.751   3.754
22832W        W95125  24.118   2.337   2.417
22833W        W95126  37.904  17.249  12.038
22834W        W95127   6.868  25.096   2.406
22835W        W95128  37.582   8.309   0.398
22836W        W95129  15.775   3.359  11.563
22837W        W95130  28.958  33.464   3.194
22838W        W95131   1.942  30.475   2.699
22839W        W95132  28.019  18.066   1.742
22840W        W95133  37.972  43.300  12.409
22841W        W95134  11.727  16.587   2.852
22842W        W95135  22.017  17.718  12.549
22843W        W95136  31.944  26.151  14.479
22844W        W95137   4.440   7.699  11.374
22845W        W95138  32.941  22.611   2.896
22846W        W95139  29.007  34.487  11.024
22847W        W95140  28.052  44.960   3.363
22848W        W95141  22.537  44.758  13.512
22849W        W95142   8.848  24.998   4.641
22850W        W95143  11.791  27.148  13.825
22851W        W95144  32.969   1.850   3.854
22852W        W95145  18.575  21.098   0.865
22853W        W95146  44.349   1.410  12.946
22854W        W95147   9.284  41.342  14.979
22855W        W95148  12.295  24.662  11.969
22856W        W95149   6.824  27.066  13.039
22857W        W95150   8.687  30.998  14.408
22858W        W95151  19.237  11.369   4.608
22859W        W95152  13.143  33.043   4.228
22860W        W95153  33.547   4.346   3.189
22861W        W95154  21.097  30.506   2.795
22862W        W95155  37.029  44.474   3.711
22863W        W95156  16.685  38.570   4.773
22864W        W95157  10.213   5.352  11.469
22865W        W95158  40.917   0.423  12.463
22866W        W95159   1.748  33.993  14.473
22867W        W95160  38.855  40.391   1.439
22868W        W95161   1.255  35.047   4.231
22869W        W95162  29.918  25.489   3.263
22870W        W95163  18.750  21.219  14.960
22871W        W95164  19.181  16.221  13.405
22872W        W95165  40.906  39.987   0.946
22873W        W95166  35.985  39.877   3.256
22874W        W95167   7.712  41.885  10.414
22875W        W95168   4.891  32.027  11.038
22876W        W95169  16.086  40.850   2.781
22877W        W95170   3.447   2.829   4.599
22878W        W95171  10.731  22.566  10.559
22879W        W95172  21.113  34.612   2.836
22880W        W95173   2.439  33.109   1.779
22881W        W95174  41.911  33.396  10.498
22882W        W95175  14.165   6.689   0.264
22883W        W95176  24.588  38.407   4.230
22884W        W95177  29.063   9.644   0.324
22885W        W95178  15.233   3.731  14.778
22886W        W95179  40.495  20.651   1.709
22887W        W95180  32.903  24.577   0.295
22888W        W95181  39.420   0.417   3.309
22889W        W95182   7.851   3.382  14.948
22890W        W95183  43.873  39.464  11.592
22891W        W95184  13.809   3.287  13.899
22892W        W95185  37.359  40.861  12.580
22893W        W95186  19.730  24.566   0.321
22894W        W95187  27.128   4.836  11.994
22895W        W95188  39.344  13.180  11.932
22896W        W95189  34.615  19.044   1.255
22897W        W95190  26.516  43.789   3.218
22898W        W95191   8.239  28.597  12.436
22899W        W95192   1.442  20.055   0.816
22900W        W95193  18.208  14.787   3.358
22901W        W95194  11.668  28.660   1.367
22902W        W95195   7.368  11.314   4.672
22903W        W95196  27.648  35.585  10.627
22904W        W95197  27.095  16.089   1.282
22905W        W95198  18.102   9.738  11.379
22906W        W95199  34.574  37.890  13.023
22907W        W95200  27.621  37.926   0.798
22908W        W95201  10.161  38.513  14.385
22909W        W95202  26.564   9.302  13.933
22910W        W95203  27.470   4.871  10.931
22911W        W95204   1.254  24.222   2.883
22912W        W95205  16.091   1.835   5.173
22913W        W95206  13.218  20.222   3.309
22914W        W95207  29.585  13.783  10.996
22915W        W95208  27.108  41.871  14.018
22916W        W95209  15.711  42.857   3.371
22917W        W95210  37.453  21.706   1.913
22918W        W95211  39.984  25.636  13.863
22919W        W95212  33.503  22.719   0.434
22920W        W95213  10.657   5.354  11.512
22921W        W95214   5.923  34.090   5.290
22922W        W95215   2.242  25.491   3.729
22923W        W95216  40.974   8.362   0.334
22924W        W95217   5.887   0.307  10.452
22925W        W95218  40.983  38.424   4.257
22926W        W95219  10.365  38.403   3.354
22927W        W95220  38.437  29.458  12.854
22928W        W95221  11.791  25.637  14.774
22929W        W95222   6.814  28.098   2.773
22930W        W95223  32.025  14.763   1.784
22931W        W95224  27.673  11.763  10.511
22932W        W95225  26.475  30.049   0.246
22933W        W95226  15.593  28.050  14.964
22934W        W95227  31.449  24.112  10.620
22935W        W95228   0.816  18.164   3.639
22936W        W95229  26.015  42.458   1.258
22937W        W95230  38.420  31.524   0.402
22938W        W95231   0.743  32.604   0.954
22939W        W95232  11.864  24.037   1.388
22940W        W95233   7.700  24.644  12.580
22941W        W95234   4.358  30.492  12.345
22942W        W95235  27.061  14.750   0.349
22943W        W95236  14.317  43.405  14.345
22944W        W95237  28.150  17.107  11.608
22945W        W95238  24.081  44.940   2.190
22946W        W95239  29.029   5.689  11.560
22947W        W95240  40.963  26.666   0.412
22948W        W95241  18.579  27.518  11.953
22949W        W95242  24.205  31.100   2.678
22950W        W95243  20.709  43.393  11.375
22951W        W95244  41.945  34.908  13.356
22952W        W95245  12.631  37.514  14.776
22953W        W95246  15.601  10.221  10.893
22954W        W95247   9.253  19.230   2.696
22955W        W95248  16.246  27.959   2.812
22956W        W95249  44.411  23.063  14.968
22957W        W95250  16.122  23.724  13.930
22958W        W95251  42.410   8.343   1.325
22959W        W95252  24.531   4.929  11.598
22960W        W95253  23.001   5.429   1.870
22961W        W95254   6.382  10.172   3.331
22962W        W95255   1.965  11.639  10.947
22963W        W95256  27.183  40.931  11.533
22964W        W95257   7.400   2.771  12.364
22965W        W95258  38.348  14.316  11.942
22966W        W95259  29.033  34.443   2.391
22967W        W95260   7.221  34.473  12.374
22968W        W95261  15.725  44.774  13.024
22969W        W95262   4.312  42.884   1.400
22970W        W95263   1.342  35.931   4.136
22971W        W95264   2.941  29.598  14.436
22972W        W95265  15.106  22.557   1.765
22973W        W95266  23.183   1.783   0.396
22974W        W95267  10.694   0.486  13.048
22975W        W95268  33.036  44.358  13.435
22976W        W95269  40.855  42.991  11.038
22977W        W95270   1.313   7.228  11.379
22978W        W95271   1.743  29.938   2.825
22979W        W95272  32.094  11.708  11.461
22980W        W95273  37.884  38.943  11.008
22981W        W95274  22.624  24.217  10.489
22982W        W95275  10.826  27.955  12.920
22983W        W95276   6.723   6.884  11.375
22984W        W95277   3.937  22.020  13.012
22985W        W95278  16.176  28.476   1.407
22986W        W95279  21.040  24.724  10.629
22987W        W95280  25.536  25.642   2.208
22988W        W95281  28.441   0.402  11.109
22989W        W95282  32.902   2.283   2.315
22990W        W95283  26.142   4.307  12.485
22991W        W95284   1.782  35.979  10.920
22992W        W95285   2.378   4.898   0.903
22993W        W95286  32.499   6.839  13.937
22994W        W95287  17.247  27.448  12.940
22995W        W95288  43.936  42.899   3.636
22996W        W95289  36.545  21.633   1.893
22997W        W95290  33.921  27.645   3.783
22998W        W95291  33.114  12.308  12.912
22999W        W95292  38.980   1.855   4.737
23000W        W95293  12.669  36.515  12.445
23001W        W95294  15.766   0.443   5.272
23002W        W95295  29.124  31.446  14.399
23003W        W95296  23.650   6.771  13.475
23004W        W95297  14.197  38.963   4.250
23005W        W95298  24.601  30.462  14.017
23006W        W95299  40.395   9.263   2.792
23007W        W95300  18.781  44.840  12.400
23008W        W95301   2.284  17.138  13.951
23009W        W95302   9.661  37.444  10.977
23010W        W95303  21.033  31.959  14.778
23011W        W95304  42.447  24.720   0.408
23012W        W95305  35.563  39.530   1.709
23013W        W95306   4.308  38.437  11.884
23014W        W95307  24.573   4.385  10.523
23015W        W95308   3.936   6.413   0.348
23016W        W95309  42.348  39.826   1.755
23017W        W95310  43.772   0.330   5.129
23018W        W95311  26.495  22.152   4.807
23019W        W95312  28.941  26.666  13.874
23020W        W95313   4.387  37.442  13.862
23021W        W95314   7.170  28.506  14.932
23022W        W95315  12.250   8.318  14.822
23023W        W95316  31.534   9.811   4.235
23024W        W95317  30.621  26.475   2.304
23025W        W95318  37.946  43.806  13.434
23026W        W95319   8.741   5.850   2.716
23027W        W95320  38.941  35.566   3.680
23028W        W95321  23.225  25.708   1.356
23029W        W95322  33.904  39.941  10.985
23030W        W95323  42.318  30.562  10.484
23031W        W95324  27.652  22.159   3.649
23032W        W95325  10.344   6.763  10.114
23033W        W95326  25.543  29.436   0.740
23034W        W95327  37.087  16.645   4.163
23035W        W95328  15.582  21.205  13.795
23036W        W95329  16.740  24.679  14.406
23037W        W95330   0.762  31.938   4.262
23038W        W95331  10.742  34.587  14.841
23039W        W95332  26.171  42.000  12.941
23040W        W95333  28.151   0.319   0.912
23041W        W95334  19.219  17.219  10.628
23042W        W95335   3.449  24.522  12.569
23043W        W95336   3.405  42.023   3.384
23044W        W95337  16.220  39.888   2.211
23045W        W95338  38.493  37.908  13.929
23046W        W95339  41.520  26.053   2.757
23047W        W95340  42.952  23.190  13.364
23048W        W95341   6.730  17.133   0.772
23049W        W95342  20.578  21.743   3.192
23050W        W95343  43.795  44.326   1.799
23051W        W95344  16.238   8.727  12.960
23052W        W95345  41.021  27.450   3.232
23053W        W95346  12.300  16.226   1.753
23054W        W95347   4.767  20.215  13.420
23055W        W95348  21.150  34.551   1.795
23056W        W95349  32.438  41.496   5.160
23057W        W95350  15.791  25.711   4.630
23058W        W95351  28.947  16.625   2.822
23059W        W95352   0.903   7.683   4.250
23060W        W95353  22.689  31.024  11.490
23061W        W95354   6.329   0.783   2.736
23062W        W95355   7.400  22.227  12.935
23063W        W95356  40.398   3.410   1.714
23064W        W95357  11.744  42.377   1.858
23065W        W95358  35.939  34.456   0.800
23066W        W95359   9.275   6.797   4.222
23067W        W95360  20.189  27.602   3.845
23068W        W95361   3.872  15.099   0.318
23069W        W95362  18.224  13.350   4.645
23070W        W95363  31.093  20.619  14.965
23071W        W95364  31.054   2.832  11.928
23072W        W95365  22.658  23.031  13.035
23073W        W95366  25.561   6.793  12.559
23074W        W95367  12.801   3.833   3.705
23075W        W95368  10.237   8.297  11.500
23076W        W95369  24.673  39.887   0.245
23077W        W95370   8.244  18.183   1.218
23078W        W95371   3.931   0.872  11.995
23079W        W95372  42.990   6.362   1.237
23080W        W95373  40.016  19.731   3.367
23081W        W95374  17.236  13.604   3.808
23082W        W95375  39.063   7.854  12.941
23083W        W95376  37.081  15.115   4.687
23084W        W95377  27.644  21.736  10.068
23085W        W95378  37.941   0.393   2.702
23086W        W95379  10.365   6.309  11.874
23087W        W95380  41.788  18.748   4.688
23088W        W95381  38.373  17.621  12.830
23089W        W95382  30.558  13.131  14.764
23090W        W95383  25.079  25.656  11.435
23091W        W95384  18.595  35.879  10.021
23092W        W95385  44.331  39.323  13.041
23093W        W95386  17.099   5.700  10.465
23094W        W95387  26.179   8.192  14.862
23095W        W95388   4.238  26.056   2.310
23096W        W95389  30.443  28.656  12.351
23097W        W95390  10.787   4.698  12.995
23098W        W95391  10.705  43.308  11.450
23099W        W95392  40.894  28.529  14.985
23100W        W95393  16.672   2.814   4.193
23101W        W95394  19.199  12.693   0.945
23102W        W95395  41.852  29.505  10.903
23103W        W95396  36.851   8.291   2.312
23104W        W95397   2.952  43.386   4.743
23105W        W95398  19.101  17.711  13.370
23106W        W95399  39.863  24.537   3.320
23107W        W95400  14.321  19.716  13.981
23108W        W95401  16.279   3.791   5.219
23109W        W95402  19.644   6.274   0.271
23110W        W95403   4.701   5.902  10.533
23111W        W95404  25.530  12.323   4.303
23112W        W95405   9.321  43.459   3.231
23113W        W95406  16.105   3.934  11.950
23114W        W95407  12.120  18.763  14.340
23115W        W95408  11.811  10.282   0.364
23116W        W95409  15.141  25.637   2.687
23117W        W95410  27.178  34.561   4.302
23118W        W95411   1.269   3.387   0.303
23119W        W95412  30.470  28.568   2.670
23120W        W95413   1.854   8.688   4.196
23121W        W95414  44.440  32.888  11.898
23122W        W95415  24.031  35.936   2.815
23123W        W95416   1.771  29.934   0.291
23124W        W95417  28.496   0.384  13.487
23125W        W95418   2.874   9.740  13.989
23126W        W95419  38.479  12.781   4.638
23127W        W95420  35.921  14.221   0.457
23128W        W95421  30.980  13.796   1.731
23129W        W95422  26.959  39.519  10.576
23130W        W95423  40.541  21.229   3.285
23131W        W95424   7.383  10.873   0.299
23132W        W95425  32.045  38.952  14.791
23133W        W95426   9.203  19.184  11.035
23134W        W95427   2.845  29.062  14.762
23135W        W95428   8.887  37.862   4.755
23136W        W95429  25.512  43.470   0.475
23137W        W95430   5.830  43.306   2.736
23138W        W95431  44.931   5.911   1.401
23139W        W95432  34.480   0.371   2.878
23140W        W95433  18.773   2.337   1.922
23141W        W95434  29.558   9.391   4.188
23142W        W95435  34.872  37.900  11.593
23143W        W95436   5.867  10.840   1.366
23144W        W95437  40.491  38.490   1.825
23145W        W95438   9.208  33.100   4.815
23146W        W95439  36.393  14.144   9.928
23147W        W95440  18.225  21.248   3.194
23148W        W95441  12.190  29.650   3.299
23149W        W95442  20.767   4.383  11.053
23150W        W95443  26.149  39.009  13.437
23151W        W95444   6.313  37.901   3.840
23152W        W95445  36.079  18.126   2.205
23153W        W95446  37.527  18.085  10.534
23154W        W95447  27.156   8.794  11.441
23155W        W95448   9.205  42.293  12.375
23156W        W95449   1.260  23.062   1.767
23157W        W95450  38.071   7.294  13.957
23158W        W95451  20.233  25.704  13.983
23159W        W95452  43.451  19.554   4.623
23160W        W95453  31.153  36.061  14.360
23161W        W95454  43.832  43.485  10.416
23162W        W95455  19.130   6.793  11.480
23163W        W95456  36.936  40.969  11.601
23164W        W95457  30.077   5.828   1.236
23165W        W95458   7.800  42.428  10.992
23166W        W95459  25.076   3.941  12.432
23167W        W95460  25.540  26.143   2.873
23168W        W95461  44.814  43.821  10.445
23169W        W95462  24.204  39.388  12.929
23170W        W95463   0.904  28.118   0.476
23171W        W95464  11.808  37.083   2.742
23172W        W95465  11.803  14.799   4.291
23173W        W95466  28.094  14.593   1.282
23174W        W95467  37.895   5.780  14.015
23175W        W95468  40.407   5.369   3.686
23176W        W95469  26.539  37.914   1.832
23177W        W95470   7.747  10.736  11.388
23178W        W95471  33.538   1.971   4.167
23179W        W95472  17.201  13.704   2.404
23180W        W95473  34.608  36.506  10.592
23181W        W95474  31.063  25.611   4.140
23182W        W95475  16.753   9.739   4.291
23183W        W95476   5.391  37.945  13.029
23184W        W95477  29.055  30.602   0.258
23185W        W95478  39.051   7.719   0.830
23186W        W95479  29.918  41.794  14.886
23187W        W95480  44.859   6.289   0.775
23188W        W95481   4.722  29.987   3.219
23189W        W95482  33.615  23.025   5.108
23190W        W95483  30.569  13.183  12.092
23191W        W95484  40.880  39.899  12.511
23192W        W95485  19.181  44.475   1.898
23193W        W95486  24.078  14.141   1.432
23194W        W95487  36.482  27.994  12.351
23195W        W95488  33.010  16.281   0.369
23196W        W95489  23.690  25.585   2.300
23197W        W95490  39.033   0.441  11.520
23198W        W95491   5.814  10.837  14.493
23199W        W95492  27.686   1.972   3.654
23200W        W95493  25.710  12.629  10.617
23201W        W95494  42.399   5.866   2.264
23202W        W95495  31.025  39.974   0.250
23203W        W95496  44.465  41.355  12.932
23204W        W95497  42.364  42.993   0.944
23205W        W95498  17.129   6.859   1.397
23206W        W95499   1.926  26.113  13.792
23207W        W95500  26.047  37.085  11.994
23208W        W95501  28.607  28.468  12.552
23209W        W95502  16.638   8.201  14.392
23210W        W95503   2.396  36.458   0.884
23211W        W95504  22.714   8.831   1.792
23212W        W95505   8.343  19.561  10.632
23213W        W95506  26.602   5.835   3.163
23214W        W95507  30.964  20.139  12.847
23215W        W95508  23.217  31.096   4.755
23216W        W95509  24.044   4.882   1.804
23217W        W95510  32.487  32.545   0.409
23218W        W95511  13.612  19.685   3.754
23219W        W95512  11.817   8.837   4.271
23220W        W95513  15.794  18.118  10.936
23221W        W95514  36.481  13.801   1.210
23222W        W95515  24.082  17.600  11.891
23223W        W95516  25.683  22.996  14.970
23224W        W95517  32.021  42.982  13.821
23225W        W95518  23.545  41.396   3.839
23226W        W95519   0.958  33.602  10.140
23227W        W95520  23.238  23.626   4.230
23228W        W95521  29.667  11.832  14.844
23229W        W95522  30.654  12.164  13.426
23230W        W95523   1.237  19.671  10.892
23231W        W95524   0.331  30.997   0.941
23232W        W95525  31.619   5.334  11.968
23233W        W95526  42.873  36.941   4.759
23234W        W95527  29.157  13.242  10.513
23235W        W95528  27.967  12.711  12.064
23236W        W95529  16.659  34.037   1.806
23237W        W95530  17.741   1.454  11.513
23238W        W95531   7.746  27.552   1.772
23239W        W95532  37.051  23.160  12.555
23240W        W95533   1.774  42.922   0.401
23241W        W95534  11.144  36.521  13.861
23242W        W95535  36.934  14.782   3.387
23243W        W95536  39.486  40.347  10.494
23244W        W95537  36.063  38.379  10.429
23245W        W95538   6.771  23.623  10.560
23246W        W95539  24.009   3.345  12.352
23247W        W95540  22.155  35.502  11.904
23248W        W95541  10.707   6.373   0.947
23249W        W95542  35.028  23.214  14.294
23250W        W95543   0.401  43.508   0.870
23251W        W95544  39.944  34.551  12.410
23252W        W95545  44.887  11.220   2.790
23253W        W95546  14.206  43.439   4.297
23254W        W95547   3.244  29.943  12.949
23255W        W95548  33.512  32.586  11.612
23256W        W95549  34.379  38.465  13.357
23257W        W95550  22.517  15.617  14.758
23258W        W95551  41.972  26.533  12.032
23259W        W95552  32.581  30.566  12.000
23260W        W95553  39.001   4.731  11.054
23261W        W95554  24.630  41.789  10.470
23262W        W95555  11.172  44.992   4.318
23263W        W95556  31.593  24.590   0.285
23264W        W95557   7.299   1.376   0.840
23265W        W95558  38.008  21.240  14.780
23266W        W95559   4.802   1.461  13.907
23267W        W95560  29.638  21.020  13.952
23268W        W95561  41.319  31.476  14.414
23269W        W95562  19.189  44.867  14.833
23270W        W95563  17.576  43.901   4.703
23271W        W95564   0.780   9.693   2.317
23272W        W95565  19.577  10.701   1.833
23273W        W95566  22.153  11.180   3.736
23274W        W95567   3.755  33.606  10.582
23275W        W95568  33.580  11.147   9.967
23276W        W95569  31.083  29.533  10.956
23277W        W95570  14.216  39.547   4.227
23278W        W95571  36.065  11.774   0.728
23279W        W95572   4.311  13.253   4.701
23280W        W95573  35.946  19.548   1.323
23281W        W95574  30.423   1.827  12.050
23282W        W95575  17.275  34.578   0.294
23283W        W95576  12.261  39.504   0.302
23284W        W95577   5.242  23.571  12.841
23285W        W95578  35.859  30.651   1.335
23286W        W95579   5.388  28.663   0.250
23287W        W95580   0.376  12.806  13.422
23288W        W95581  28.632  34.566   0.315
23289W        W95582  17.143   0.964   2.410
23290W        W95583   5.388   0.855   1.404
23291W        W95584  22.531  31.644  12.382
23292W        W95585   6.293   9.189   0.908
23293W        W95586   9.835   6.855  13.908
23294W        W95587  15.587  27.454  11.414
23295W        W95588   2.743  19.681  12.091
23296W        W95589  15.699  43.828   0.739
23297W        W95590  30.522  43.513   4.781
23298W        W95591  28.160   1.874   5.146
23299W        W95592  41.514  15.791  11.054
23300W        W95593  29.030  21.138   0.787
23301W        W95594  38.065  17.734  12.054
23302W        W95595  30.958  11.639  14.802
23303W        W95596  42.869   2.311   4.231
23304W        W95597  22.737  13.773   3.289
23305W        W95598  21.161  21.105  14.281
23306W        W95599  16.109  17.305   2.209
23307W        W95600  29.440  34.585  13.021
23308W        W95601   8.230   6.691   0.765
23309W        W95602  19.087  28.673  10.935
23310W        W95603   7.809  36.926   3.685
23311W        W95604   4.928  21.698  14.887
23312W        W95605  15.100  37.930   0.312
23313W        W95606   2.883  14.622   1.385
23314W        W95607  12.737   4.341  12.359
23315W        W95608  10.330   5.265  10.477
23316W        W95609  15.751   0.808  13.316
23317W        W95610   9.178  39.406  12.572
23318W        W95611  20.540  38.025   2.348
23319W        W95612   9.708   6.276  10.425
23320W        W95613  27.645  22.532  12.975
23321W        W95614   8.341  31.431   0.369
23322W        W95615  41.030  30.433  13.809
23323W        W95616   8.888  39.460   2.292
23324W        W95617  11.688  22.624  11.999
23325W        W95618  14.814  32.994   2.789
23326W        W95619  42.018  35.993  13.826
23327W        W95620  27.604  27.059  10.460
23328W        W95621  35.074  32.469  11.492
23329W        W95622   1.337  26.619  12.526
23330W        W95623  11.833  14.311   3.841
23331W        W95624  13.676  42.877  14.372
23332W        W95625  36.457  37.846  13.361
23333W        W95626  26.550   8.841  12.944
23334W        W95627   5.253  30.978   1.364
23335W        W95628  14.294  27.161  12.362
23336W        W95629  18.236  26.642   0.908
23337W        W95630  29.645  25.978   3.785
23338W        W95631  24.087  39.041   1.376
23339W        W95632   1.326  29.495  11.106
23340W        W95633   9.768  43.361  11.929
23341W        W95634   3.400  34.542  12.510
23342W        W95635  26.659   7.812   4.653
23343W        W95636  33.432   0.813   1.266
23344W        W95637  13.726  39.533   0.324
23345W        W95638  39.324  40.803   3.355
23346W        W95639  32.422   2.289  13.333
23347W        W95640  18.767  17.713   0.331
23348W        W95641  18.573  38.402  13.480
23349W        W95642   9.781  20.055  13.320
23350W        W95643  23.021  42.291  14.764
23351W        W95644  40.018  18.068  12.415
23352W        W95645  33.586  43.368  14.849
23353W        W95646  44.438  30.549   1.786
23354W        W95647  16.216   6.868  12.884
23355W        W95648   4.929  31.981  13.891
23356W        W95649  43.480  25.116   3.844
23357W        W95650  43.832  14.830  10.611
23358W        W95651   5.927  29.426  13.807
23359W        W95652  10.315  27.550   4.286
23360W        W95653  16.237  22.671  11.914
23361W        W95654  37.999  25.634   3.305
23362W        W95655   8.770  39.408   0.387
23363W        W95656   9.748  13.794  14.919
23364W        W95657  29.579  30.547  13.459
23365W        W95658  39.981  36.418   3.729
23366W        W95659  25.644  41.442  11.952
23367W        W95660  29.122  29.498  11.380
23368W        W95661  31.609  15.623   2.881
23369W        W95662  27.132  14.290   1.215
23370W        W95663  11.862  20.597   1.286
23371W        W95664  20.096   5.750  13.458
23372W        W95665  17.305  26.106  10.566
23373W        W95666  34.531  26.494  13.025
23374W        W95667   9.151   5.411  12.026
23375W        W95668  20.586  14.816  13.479
23376W        W95669  17.777   6.286   2.251
23377W        W95670  17.305  35.416  12.524
23378W        W95671   1.482  13.666   1.215
23379W        W95672  23.228  22.227   4.188
23380W        W95673  37.526  39.875  10.404
23381W        W95674  14.167   0.801   2.897
23382W        W95675   4.307  12.152   3.722
23383W        W95676  28.939  32.562   1.441
23384W        W95677  27.582  15.223   1.898
23385W        W95678   3.728  35.901  12.427
23386W        W95679  44.309   1.426   0.834
23387W        W95680  44.764  16.614  11.102
23388W        W95681  24.145   7.866  11.035
23389W        W95682  23.648   2.963   4.838
23390W        W95683   4.389  11.180  11.061
23391W        W95684   1.840  10.717   1.359
23392W        W95685  14.751   6.757   4.830
23393W        W95686  29.019  40.408   2.229
23394W        W95687  41.927  40.925   2.722
23395W        W95688  25.619  19.108   1.299
23396W        W95689   8.314  38.333  11.032
23397W        W95690   7.673  44.996  11.025
23398W        W95691  19.539  31.906  13.507
23399W        W95692  14.096  34.973   2.832
23400W        W95693  44.467  25.014   4.790
23401W        W95694  33.620   7.877   3.736
23402W        W95695  20.708   9.668  14.503
23403W        W95696  25.559   6.729   0.474
23404W        W95697  40.048  34.565  14.022
23405W        W95698  41.384  26.182   3.864
23406W        W95699  10.244  34.384   2.718
23407W        W95700  11.768  37.053  12.927
23408W        W95701  42.500  23.061   1.385
23409W        W95702   9.268  19.679  10.607
23410W        W95703  27.588  34.467  12.444
23411W        W95704  12.216  29.943   2.299
23412W        W95705  29.628  38.009  13.028
23413W        W95706  35.074  34.454  11.096
23414W        W95707   5.203  31.932  14.961
23415W        W95708  19.199  43.771  11.474
23416W        W95709  40.871  37.064  14.374
23417W        W95710  18.224  28.501  14.828
23418W        W95711   9.846  32.113  12.934
23419W        W95712   0.275  41.968   0.384
23420W        W95713  32.903  24.491  14.294
23421W        W95714  20.623  26.487   1.839
23422W        W95715  23.116  29.467  14.804
23423W        W95716  39.393  28.090   4.623
23424W        W95717  39.460  14.827   3.301
23425W        W95718  14.109  38.938   2.363
23426W        W95719  44.329  27.663  11.055
23427W        W95720  19.281  34.110  13.371
23428W        W95721  30.014  39.051   2.862
23429W        W95722  11.299   5.338   2.783
23430W        W95723  43.305  40.385  10.439
23431W        W95724  42.963  13.186   4.269
23432W        W95725   7.852  23.715   2.680
23433W        W95726   7.722  33.410  12.473
23434W        W95727  17.756  36.030  10.923
23435W        W95728  36.060  40.935  14.500
23436W        W95729  12.640   4.375   1.824
23437W        W95730   6.731  41.994  11.475
23438W        W95731  14.791  22.134  13.386
23439W        W95732  27.591  32.637   0.886
23440W        W95733   6.858  10.220   2.377
23441W        W95734  21.548  17.076  13.024
23442W        W95735  22.215  35.888  11.402
23443W        W95736  39.832  16.081   3.811
23444W        W95737  36.538  20.685   1.346
23445W        W95738   1.380   5.783   4.612
23446W        W95739  26.058   9.374   0.366
23447W        W95740  10.711  17.628   2.771
23448W        W95741  19.556  19.658  10.476
23449W        W95742  11.207  19.096  14.375
23450W        W95743   6.807   3.709   2.324
23451W        W95744   4.214  44.801   4.196
23452W        W95745  10.283  32.531   2.799
23453W        W95746  16.229  11.204  12.055
23454W        W95747  16.222   4.439   9.973
23455W        W95748   4.869  31.932   2.241
23456W        W95749  14.596  30.456   4.683
23457W        W95750   3.715  26.146  10.420
23458W        W95751  30.156  30.512   2.700
23459W        W95752  35.391  37.356  10.929
23460W        W95753  17.760   4.872   3.841
23461W        W95754  33.116  42.964  13.999
23462W        W95755  21.230  10.870  14.983
23463W        W95756  44.362  28.613  14.432
23464W        W95757  28.016  39.353  12.549
23465W        W95758  42.338  40.852  13.380
23466W        W95759  28.027   3.255   9.955
23467W        W95760   0.829  24.478  13.993
23468W        W95761  42.315  37.902   2.725
23469W        W95762  26.542  43.897   0.879
23470W        W95763  42.922  35.084  13.397
23471W        W95764   7.738   5.807   0.339
23472W        W95765  25.570  34.560   0.762
23473W        W95766  35.439  26.976   4.180
23474W        W95767  25.554   5.830  11.982
23475W        W95768  30.044  41.371  14.002
23476W        W95769  20.625  19.207   3.255
23477W        W95770  36.906  28.595  14.369
23478W        W95771  13.787   8.301   4.821
23479W        W95772  35.861   2.878   2.240
23480W        W95773   9.250   2.442   2.259
23481W        W95774   2.448  20.109  11.096
23482W        W95775   7.763  44.430  12.960
23483W        W95776  30.917   8.658  13.880
23484W        W95777  12.697  15.230  11.464
23485W        W95778  10.678  19.083  14.423
23486W        W95779  18.554  32.396   4.776
23487W        W95780  28.458  13.287   2.318
23488W        W95781  10.148  15.666  14.350
23489W        W95782  30.606  22.161  10.910
23490W        W95783  17.793  25.034  11.576
23491W        W95784  43.404  40.947   1.314
23492W        W95785  17.695  28.622   2.900
23493W        W95786  31.922  34.456   0.398
23494W        W95787  14.141  21.197   2.810
23495W        W95788  11.233  30.595  14.512
23496W        W95789  22.626  37.869  11.594
23497W        W95790  21.729   6.858  13.516
23498W        W95791  24.013  36.427   1.357
23499W        W95792  37.473  16.614   1.241
23500W        W95793  28.037  14.690   1.899
23501W        W95794   8.743  28.492  11.939
23502W        W95795  38.515   2.340   2.713
23503W        W95796  28.014   0.871   9.956
23504W        W95797   2.365   5.381   4.240
23505W        W95798  33.010  33.472  13.959
23506W        W95799  10.715  32.964  14.321
23507W        W95800  26.601   1.260  14.420
23508W        W95801  30.456  25.067  14.408
23509W        W95802  29.073   6.693  13.941
23510W        W95803  32.111  37.514   3.851
23511W        W95804  26.015   4.351   2.670
23512W        W95805  37.511   9.665   4.125
23513W        W95806  34.425  26.158   1.249
23514W        W95807  29.067  31.926   1.933
23515W        W95808  27.490  24.714  11.070
23516W        W95809  35.381  29.112   0.459
23517W        W95810  29.636  36.571  14.371
23518W        W95811  16.657   2.450   2.736
23519W        W95812  25.168  37.906   2.809
23520W        W95813  23.495  42.331  11.946
23521W        W95814  41.016   4.744   1.234
23522W        W95815   6.272  32.531   1.781
23523W        W95816   1.303  19.116   4.773
23524W        W95817  19.086  26.664  12.028
23525W        W95818  33.380  32.925  10.532
23526W        W95819  30.158   7.300   0.837
23527W        W95820  36.564  42.399   2.839
23528W        W95821   8.897   3.396   0.830
23529W        W95822   8.311  44.398   3.715
23530W        W95823  16.270  35.046  11.054
23531W        W95824  20.056  37.000   3.687
23532W        W95825  39.511   0.840  11.129
23533W        W95826  22.206  17.289  14.431
23534W        W95827   5.331  38.877   0.815
23535W        W95828  16.573  22.092  14.759
23536W        W95829  21.110  24.036  11.944
23537W        W95830  30.969   2.750   3.266
23538W        W95831  37.853   6.697  14.763
23539W        W95832  17.632  26.648   0.452
23540W        W95833  25.572  22.218  13.898
23541W        W95834  36.360   6.779   2.741
23542W        W95835   7.792  37.396  13.808
23543W        W95836   8.383  11.754   3.302
23544W        W95837  26.155  33.484   4.183
23545W        W95838  40.370  26.973  12.005
23546W        W95839  42.498  29.961   3.238
23547W        W95840  26.502  14.303  12.341
23548W        W95841  38.394  13.256   1.268
23549W        W95842  30.153   5.756  12.355
23550W        W95843  19.224  27.674   2.774
23551W        W95844   7.758  15.111   2.283
23552W        W95845  16.265  29.130  10.896
23553W        W95846  23.631  40.541  13.547
23554W        W95847  28.996  21.129  14.810
23555W        W95848  26.158  10.734   0.352
23556W        W95849  17.591  17.677   0.948
23557W        W95850   0.840  35.485  10.035
23558W        W95851   0.303   3.779   1.747
23559W        W95852  35.051  17.155   4.118
23560W        W95853  13.728  15.636  10.470
23561W        W95854   0.288  14.130   2.383
23562W        W95855   6.829  44.964   4.183
23563W        W95856  15.140  20.045   1.823
23564W        W95857  13.626  43.481   2.805
23565W        W95858  40.944  15.087   1.932
23566W        W95859  15.200   0.346  12.422
23567W        W95860  39.334  10.732  13.390
23568W        W95861  36.843  18.085  11.929
23569W        W95862  16.299   9.321   3.273
23570W        W95863  44.950   2.365   1.733
23571W        W95864   2.965  35.414   3.309
23572W        W95865  22.685  31.098   4.653
23573W        W95866  19.679  28.578   0.961
23574W        W95867   4.391  14.786  11.524
23575W        W95868  43.903  21.701   4.790
23576W        W95869  28.978  42.527  10.409
23577W        W95870   2.869  22.106  13.412
23578W        W95871   6.810   0.277   3.729
23579W        W95872  29.612   8.700  12.580
23580W        W95873  24.484   5.283  11.416
23581W        W95874  14.260  35.447  11.965
23582W        W95875  44.988   8.837  10.450
23583W        W95876  26.617  21.601   4.323
23584W        W95877  13.687  31.627   1.875
23585W        W95878   7.394  28.973   4.250
23586W        W95879   9.211  43.001  10.029
23587W        W95880  31.606  35.461   1.809
23588W        W95881  22.104  13.205  14.868
23589W        W95882   9.269  29.659   4.171
23590W        W95883  41.865  22.119   4.732
23591W        W95884  22.195  26.631   0.358
23592W        W95885   2.294  21.597  14.847
23593W        W95886   7.797   9.673  12.446
23594W        W95887  20.154  39.029  12.491
23595W        W95888  28.048  17.704  14.776
23596W        W95889  26.599   3.764   0.912
23597W        W95890  25.050   8.739   4.352
23598W        W95891  42.380  30.540  14.485
23599W        W95892   5.330  35.966  12.403
23600W        W95893  16.198  41.364  12.999
23601W        W95894  29.117   8.379  13.425
23602W        W95895  17.293  29.433   1.373
23603W        W95896  22.609  41.504   2.352
23604W        W95897  38.469  20.245  14.760
23605W        W95898  43.766  30.584   0.428
23606W        W95899  17.301  40.837  12.343
23607W        W95900   3.863  13.688  13.530
23608W        W95901   2.356  41.812   2.250
23609W        W95902  26.538   8.201  13.396
23610W        W95903  17.244  15.744  14.809
23611W        W95904  26.661   7.721  10.906
23612W        W95905  28.637  19.242   1.917
23613W        W95906  11.370  26.569  11.082
23614W        W95907  17.585  40.343   2.291
23615W        W95908  17.589  41.011  12.350
23616W        W95909  43.313  43.999  11.575
23617W        W95910  38.943   9.153   3.354
23618W        W95911   8.849  43.346  11.048
23619W        W95912   2.919   4.215  12.343
23620W        W95913  19.695  17.622  10.600
23621W        W95914  15.606  18.555   0.839
23622W        W95915  31.632   4.359  11.107
23623W        W95916  38.966  40.318   0.319
23624W        W95917  39.555  37.923  12.001
23625W        W95918  37.580  22.624   2.283
23626W        W95919  34.010  40.020   4.220
23627W        W95920  20.620  32.032  13.993
23628W        W95921  13.682  23.986   2.803
23629W        W95922  15.610  36.426   1.715
23630W        W95923   0.403  31.066   2.821
23631W        W95924  29.540  12.259   3.680
23632W        W95925  42.483  12.265  12.059
23633W        W95926   0.816   9.365  11.083
23634W        W95927  15.319  43.286  14.424
23635W        W95928  29.144  30.533   1.271
23636W        W95929  21.626  34.909   3.825
23637W        W95930  12.727   7.234  10.561
23638W        W95931  10.769  39.939   1.300
23639W        W95932  15.131  13.145  12.391
23640W        W95933   9.150  41.897  13.470
23641W        W95934   0.290  17.653   1.756
23642W        W95935  17.077  43.962  11.597
23643W        W95936   9.296  43.948   2.875
23644W        W95937  12.831  14.339   0.919
23645W        W95938   8.820  27.077   0.329
23646W        W95939   0.310   2.360   3.712
23647W        W95940  27.657   6.890  11.571
23648W        W95941  20.179   3.781  11.127
23649W        W95942   9.782  33.943   4.231
23650W        W95943  39.015   5.247  11.089
23651W        W95944  33.904  26.691   0.950
23652W        W95945  25.485  40.446  14.921
23653W        W95946  40.351  34.467  11.856
23654W        W95947  44.917   8.195   1.721
23655W        W95948  10.247  19.739  11.002
23656W        W95949   7.235  18.649   4.211
23657W        W95950  38.897  17.633   0.848
23658W        W95951  12.189   3.873   4.735
23659W        W95952  41.949  23.656  10.479
23660W        W95953  36.925  31.991  14.788
23661W        W95954  41.403  24.073  12.858
23662W        W95955   0.371  42.482   0.334
23663W        W95956  29.923  30.521   1.374
23664W        W95957  29.621  18.108  14.853
23665W        W95958  15.212   2.962   4.180
23666W        W95959  21.609  18.741   2.696
23667W        W95960  35.363  21.704  13.384
23668W        W95961   0.336  38.536   3.301
23669W        W95962   2.958  29.605   1.356
23670W        W95963  36.067  12.637  13.933
23671W        W95964  30.631  27.058   0.439
23672W        W95965  44.325  33.992   5.708
23673W        W95966  35.955  26.008   4.216
23674W        W95967  30.519   8.740  11.969
23675W        W95968   1.828  25.669  14.380
23676W        W95969  36.586  15.727   4.322
23677W        W95970  42.483  13.119   3.749
23678W        W95971   2.443  23.003   2.246
23679W        W95972  41.437  40.812   2.303
23680W        W95973  40.034  16.644   2.853
23681W        W95974  33.422  35.891  12.899
23682W        W95975  40.506  19.673  10.531
23683W        W95976  31.611  26.598  12.410
23684W        W95977  37.866  25.709   1.859
23685W        W95978  23.191  44.935   1.768
23686W        W95979  34.973   5.856  12.054
23687W        W95980  20.180  12.630   9.966
23688W        W95981   2.457  32.090  11.983
23689W        W95982  42.515  28.068  14.796
23690W        W95983  38.025  40.332  12.507
23691W        W95984   1.978   1.822   2.681
23692W        W95985   3.870  30.979  11.952
23693W        W95986   0.885  32.082  12.059
23694W        W95987  27.470  10.309   3.199
23695W        W95988  14.641   2.917  14.882
23696W        W95989  30.039   1.912  12.981
23697W        W95990  10.281  39.926   4.324
23698W        W95991   6.807  39.060  11.495
23699W        W95992  37.043  31.591   2.269
23700W        W95993   9.650  16.605   2.661
23701W        W95994  38.471   8.836   1.239
23702W        W95995  10.270  16.588  13.008
23703W        W95996   5.899  36.559   4.295
23704W        W95997  35.480  13.256  10.631
23705W        W95998  20.751  28.057   4.345
23706W        W95999   1.261   9.377   3.653
23707W        W96000  20.059  14.217   0.272
23708W        W96001  36.384  24.646   1.854
23709W        W96002  30.561  26.597   2.885
23710W        W96003   7.341  22.653   1.395
23711W        W96004  12.698  19.670  11.933
23712W        W96005  11.177  30.025  14.919
23713W        W96006  43.389  34.580   1.845
23714W        W96007  28.679  29.030   3.307
23715W        W96008  35.974   1.858  14.859
23716W        W96009  31.090   5.226   1.408
23717W        W96010  33.115  41.875   2.776
23718W        W96011  26.540   0.348   4.621
23719W        W96012  31.034   1.864   0.252
23720W        W96013  34.975  43.455   0.341
23721W        W96014   8.683   9.149   5.255
23722W        W96015  44.759   6.325  11.881
23723W        W96016   4.910  27.185  13.008
23724W        W96017  18.190  18.079  12.366
23725W        W96018   7.295  17.620  12.559
23726W        W96019  21.236  12.805   3.632
23727W        W96020  30.146   3.712  12.871
23728W        W96021   4.302  36.038   4.766
23729W        W96022  25.510  40.503   4.334
23730W        W96023  21.194   8.307  11.098
23731W        W96024  12.790  40.932   1.784
23732W        W96025   7.313  28.174   0.415
23733W        W96026  40.989  26.134  11.472
23734W        W96027   8.879  26.192  14.018
23735W        W96028  21.058  35.870   3.283
23736W        W96029  27.107   6.396   4.607
23737W        W96030  14.759  11.152   1.325
23738W        W96031  38.381  10.783  12.485
23739W        W96032  23.670   3.347   4.185
23740W        W96033   7.340  12.151  14.851
23741W        W96034  23.021  14.744  11.431
23742W        W96035  29.101  15.776   3.157
23743W        W96036  38.852  23.204  13.960
23744W        W96037  42.487  41.932  14.459
23745W        W96038  18.668   0.353   1.735
23746W        W96039  30.651   7.200   0.441
23747W        W96040  35.370  19.173  12.487
23748W        W96041  31.548   7.859  10.623
23749W        W96042  27.452  41.839  10.500
23750W        W96043  36.421  32.138  13.952
23751W        W96044  19.721  33.388  14.924
23752W        W96045   5.438  41.975  11.880
23753W        W96046  37.937  44.799   0.440
23754W        W96047  31.510  40.425  13.059
23755W        W96048  40.495  33.964   3.358
23756W        W96049  37.883  20.590  14.868
23757W        W96050  29.461  36.099   4.354
23758W        W96051  16.102  37.068   1.720
23759W        W96052  30.579  12.685   2.833
23760W        W96053   4.415  44.938  14.926
23761W        W96054  12.356  14.649  12.840
23762W        W96055  12.701  26.062  14.276
23763W        W96056  26.554  22.741   3.232
23764W        W96057  29.106  41.429   4.802
23765W        W96058  42.027   3.794  11.569
23766W        W96059  25.011  38.419  12.943
23767W        W96060  30.416   1.909   2.232
23768W        W96061  23.673  38.066   3.195
23769W        W96062  12.120  20.072  14.512
23770W        W96063   8.341  41.395   0.385
23771W        W96064   6.184  43.278  14.902
23772W        W96065  39.404  16.183   0.744
23773W        W96066  27.630   3.279  11.922
23774W        W96067  35.397  11.152   3.276
23775W        W96068  11.293  16.317  11.101
23776W        W96069  13.687  41.423  12.029
23777W        W96070   8.760  10.343   5.254
23778W        W96071  24.080  29.637  10.445
23779W        W96072  36.974  13.635  13.504
23780W        W96073  10.144  28.967   4.216
23781W        W96074  33.004  23.100   0.312
23782W        W96075  44.334  27.121  14.507
23783W        W96076  16.203  12.305  12.390
23784W        W96077  22.556  16.647  10.967
23785W        W96078   9.820  30.639  10.505
23786W        W96079  37.533  31.550   2.220
23787W        W96080  16.625   9.205   1.711
23788W        W96081  17.144   6.344   0.944
23789W        W96082  13.351  19.110   3.355
23790W        W96083  31.138  16.162  14.930
23791W        W96084  26.178  36.993  11.547
23792W        W96085  22.543  40.304   2.301
23793W        W96086  36.492   3.415   4.345
23794W        W96087  37.982  42.029  14.967
23795W        W96088  11.671  11.320  13.486
23796W        W96089  37.466  25.175  14.422
23797W        W96090   1.840  35.532   2.835
23798W        W96091  34.119  14.175   0.880
23799W        W96092  30.589   8.714   1.431
23800W        W96093  24.139  30.043   2.390
23801W        W96094  20.624   3.397   3.278
23802W        W96095  38.925  23.163  14.297
23803W        W96096   6.237   9.648   1.333
23804W        W96097  30.116  42.992   4.149
23805W        W96098  23.642  30.988  11.892
23806W        W96099  38.875  36.081   4.744
23807W        W96100  10.149   0.987   1.212
23808W        W96101  30.153  13.620  11.907
23809W        W96102  23.613  34.877   2.369
23810W        W96103  17.591  18.159   0.453
23811W        W96104  12.711  25.154   0.921
23812W        W96105  43.440  44.411   0.304
23813W        W96106  13.112   5.695  10.062
23814W        W96107   7.259  11.287   3.149
23815W        W96108  33.401  11.750  12.401
23816W        W96109  25.707  32.026  14.410
23817W        W96110   5.406   1.931   3.715
23818W        W96111  32.444  22.738  12.478
23819W        W96112  17.111  34.105  12.344
23820W        W96113  10.694   3.865   4.290
23821W        W96114   7.343  22.731   0.797
23822W        W96115   8.793  32.110  13.323
23823W        W96116  21.534   6.762   4.211
23824W        W96117   7.665   8.402  10.945
23825W        W96118   0.822  44.326  12.918
23826W        W96119  25.598  36.995  14.012
23827W        W96120   2.900  13.292  12.548
23828W        W96121  39.883  41.350   1.301
23829W        W96122   9.201   3.409   5.207
23830W        W96123  33.426  28.122   3.862
23831W        W96124  15.327  35.081  11.396
23832W        W96125  21.133  41.348   2.740
23833W        W96126  38.463  11.845   4.738
23834W        W96127  36.543  10.158  12.475
23835W        W96128  36.354  31.094   0.928
23836W        W96129  34.563  39.530   3.789
23837W        W96130  44.499  21.138   0.367
23838W        W96131  11.332  15.670   4.812
23839W        W96132   5.360  43.438   4.163
23840W        W96133  39.394  33.609   4.140
23841W        W96134  34.953   1.767  11.085
23842W        W96135  20.625  12.742  11.067
23843W        W96136  39.847   8.166  12.410
23844W        W96137  21.200   5.725   2.822
23845W        W96138  16.599  29.136  13.474
23846W        W96139  19.688  38.566  11.903
23847W        W96140  21.611  41.976  10.893
23848W        W96141  28.015   2.226   3.177
23849W        W96142  23.671   5.259   1.317
23850W        W96143  16.694  35.476   1.803
23851W        W96144  17.221   0.772   4.629
23852W        W96145   3.274  24.037  14.959
23853W        W96146  25.473   8.656   3.376
23854W        W96147   8.850   6.744   2.357
23855W        W96148   5.891  19.082   0.251
23856W        W96149  23.527  27.042   1.795
23857W        W96150  10.705  17.613  13.012
23858W        W96151  23.229  31.450  14.431
23859W        W96152  15.248  38.486  14.822
23860W        W96153  35.076   1.919  14.838
23861W        W96154  15.723   9.233   2.756
23862W        W96155  15.695  17.624   0.454
23863W        W96156  16.213  13.326  14.317
23864W        W96157  42.417   8.347   0.469
23865W        W96158  31.929  37.980   4.309
23866W        W96159  35.419  21.105   2.733
23867W        W96160  18.255   5.314  13.060
23868W        W96161  10.734   6.914   4.685
23869W        W96162  11.137  44.351   3.682
23870W        W96163   6.268  40.020  14.789
23871W        W96164   0.457  17.225  11.541
23872W        W96165  22.690   2.833   9.948
23873W        W96166  32.603  32.891  12.008
23874W        W96167  10.784  42.782  14.960
23875W        W96168  17.709  19.688  14.989
23876W        W96169  41.507  43.895   0.291
23877W        W96170  26.629   4.306   0.332
23878W        W96171  36.941   1.446  10.937
23879W        W96172  44.935  35.604  11.063
23880W        W96173  43.463   3.438   0.405
23881W        W96174   6.694  15.207   4.659
23882W        W96175   0.477  17.157   0.344
23883W        W96176  39.325  22.683   1.880
23884W        W96177  14.199  42.803  13.357
23885W        W96178   5.294  17.712  11.512
23886W        W96179  28.554  16.296  14.295
23887W        W96180  41.319  43.923  12.357
23888W        W96181  16.209  22.681   9.959
23889W        W96182  43.801  39.016  13.917
23890W        W96183  38.496  22.217   2.819
23891W        W96184  30.131   8.342   5.767
23892W        W96185  31.906   7.700   2.265
23893W        W96186  13.713   4.406   1.306
23894W        W96187  26.661  38.873   1.266
23895W        W96188  43.850   5.360  11.482
23896W        W96189  42.896  26.987  14.892
23897W        W96190  12.180  44.433   1.744
23898W        W96191   4.904  32.954  13.035
23899W        W96192   3.718  36.926   3.842
23900W        W96193   3.244  27.122  10.618
23901W        W96194  22.072  13.770   1.259
23902W        W96195   0.393  34.027   0.860
23903W        W96196   6.754   9.174  13.855
23904W        W96197  31.604   4.424   2.332
23905W        W96198  18.109  13.657  13.853
23906W        W96199  39.962  43.870   0.344
23907W        W96200  30.636  29.486   1.370
23908W        W96201  27.468  39.379  10.640
23909W        W96202  33.044  18.656   0.481
23910W        W96203   7.255  43.488  10.908
23911W        W96204   1.903  11.327   4.818
23912W        W96205  25.018  34.606  12.436
23913W        W96206  18.129  11.675  13.041
23914W        W96207  29.541  30.431   4.754
23915W        W96208  41.788  21.136  13.028
23916W        W96209  15.763  41.515  13.307
23917W        W96210  37.021  44.802   1.253
23918W        W96211  43.426   0.382  10.506
23919W        W96212   2.813  23.115   4.177
23920W        W96213   8.166  42.360  11.612
23921W        W96214  37.574   0.341   0.435
23922W        W96215  17.640  21.519  11.003
23923W        W96216  21.741  41.389  13.448
23924W        W96217   2.346  17.784   4.704
23925W        W96218  44.961  44.385  10.503
23926W        W96219   8.839  42.425   1.832
23927W        W96220  39.011  13.791  11.437
23928W        W96221  37.918  21.210   3.714
23929W        W96222  41.300  42.950  12.920
23930W        W96223  19.158  18.211  10.498
23931W        W96224  13.141  12.155  10.622
23932W        W96225  27.587   7.685   0.300
23933W        W96226   5.914  27.642  10.947
23934W        W96227  29.991  36.355   1.694
23935W        W96228   5.309  23.552  11.523
23936W        W96229   7.685  32.920  14.838
23937W        W96230  28.587  23.506  14.794
23938W        W96231  38.913  37.848  10.453
23939W        W96232  36.437  16.700  13.818
23940W        W96233   9.852  41.879   2.797
23941W        W96234  34.048   7.734  14.365
23942W        W96235   9.335  35.447   5.086
23943W        W96236  24.567   3.841   1.237
23944W        W96237  42.852  26.040  13.839
23945W        W96238  37.862   7.678  11.964
23946W        W96239  44.985   8.165   3.804
23947W        W96240  15.131  27.154  14.903
23948W        W96241  15.731   1.239   4.668
23949W        W96242  11.164  30.567   0.452
23950W        W96243   9.867  42.410   4.710
23951W        W96244   8.891  33.421  14.305
23952W        W96245   8.796   3.713  13.441
23953W        W96246  22.189  23.148   1.226
23954W        W96247  36.563  32.930   1.860
23955W        W96248  44.460   6.265  14.445
23956W        W96249  31.040  25.652  12.995
23957W        W96250   6.397  44.287   4.808
23958W        W96251  14.176  31.906  10.484
23959W        W96252  33.948   1.837   0.799
23960W        W96253  11.675  18.270   3.753
23961W        W96254  19.229  12.185   2.773
23962W        W96255   3.842  20.709   2.275
23963W        W96256  31.930  25.597  11.401
23964W        W96257  40.009   6.696   4.249
23965W        W96258  21.039  21.678  12.069
23966W        W96259   7.733   3.268   4.598
23967W        W96260  34.109  35.381  12.033
23968W        W96261  22.166  35.596  12.372
23969W        W96262  19.235  15.712   4.718
23970W        W96263  11.174  38.506  14.295
23971W        W96264   6.912  20.257   4.801
23972W        W96265  44.937  31.565   4.322
23973W        W96266   1.450  25.066  10.500
23974W        W96267   0.363  20.524  12.456
23975W        W96268   4.812   2.372   3.827
23976W        W96269  35.480   0.838  10.624
23977W        W96270  39.061  36.992  11.561
23978W        W96271   6.358  31.918  11.440
23979W        W96272  44.276   2.394   4.627
23980W        W96273   9.695   7.726  14.511
23981W        W96274  25.140  24.668  14.786
23982W        W96275  31.623  42.907   2.184
23983W        W96276   8.779  41.468  13.400
23984W        W96277   5.841  18.178  13.535
23985W        W96278  29.608  28.554   2.313
23986W        W96279  39.997  12.635   2.217
23987W        W96280  32.411  37.008  14.404
23988W        W96281  24.617   1.477   2.236
23989W        W96282  11.652  36.012  13.455
23990W        W96283  39.410  40.531  10.052
23991W        W96284  37.959  35.543   1.854
23992W        W96285  15.092  41.860   1.804
23993W        W96286  38.395   1.823   1.250
23994W        W96287  22.194  11.236   4.601
23995W        W96288  22.738  18.092   1.847
23996W        W96289  28.125  23.652  13.006
23997W        W96290  40.956  35.938  12.086
23998W        W96291  24.073   4.267   9.579
23999W        W96292  17.585   8.333  12.568
24000W        W96293  40.042  33.495  11.097
24001W        W96294   1.879  33.610  14.440
24002W        W96295   2.861  27.659  12.039
24003W        W96296   4.442  36.864  13.802
24004W        W96297  43.471  34.474   0.839
24005W        W96298  24.106  28.543  13.529
24006W        W96299  31.434   1.921  11.906
24007W        W96300  14.671  40.904  13.339
24008W        W96301   8.179  13.241  14.370
24009W        W96302  37.358  27.581   2.672
24010W        W96303  35.955  16.104   0.395
24011W        W96304  41.925   8.199   2.383
24012W        W96305  13.815  22.032   4.734
24013W        W96306   6.266  22.151  11.474
24014W        W96307  28.476   3.893  14.911
24015W        W96308  11.652   9.760   1.346
24016W        W96309  22.602  31.033   9.955
24017W        W96310  36.432  26.112  13.376
24018W        W96311  32.945  25.979  12.885
24019W        W96312  23.098  25.029   0.940
24020W        W96313   0.948  15.317   0.828
24021W        W96314  10.722  20.601  11.092
24022W        W96315  22.633  40.830   3.165
24023W        W96316  14.211   4.212  10.034
24024W        W96317  38.020  40.493  11.596
24025W        W96318  24.666  18.599  13.042
24026W        W96319  21.531  20.252   4.263
24027W        W96320   6.199  25.217   5.277
24028W        W96321  21.718  36.567   2.882
24029W        W96322  33.077  19.641  11.534
24030W        W96323  23.995   1.848   4.236
24031W        W96324   7.385   5.275  12.399
24032W        W96325  15.659  41.376  14.760
24033W        W96326  19.109  16.674  10.625
24034W        W96327  34.483  33.002  12.868
24035W        W96328  26.153  38.965   1.853
24036W        W96329  19.762  40.356  14.366
24037W        W96330  31.067  31.072   0.859
24038W        W96331  10.723  43.881   1.217
24039W        W96332  19.561  26.999   0.905
24040W        W96333  23.668   4.232   5.213
24041W        W96334  25.535  36.871   3.183
24042W        W96335  40.048  12.718  14.812
24043W        W96336  28.594   5.845  12.035
24044W        W96337  30.132  42.433   3.383
24045W        W96338  15.183  31.969   2.374
24046W        W96339   2.286  21.081   2.715
24047W        W96340  38.346  22.706   4.247
24048W        W96341   3.261  40.351  12.841
24049W        W96342  39.907   7.874  14.429
24050W        W96343  35.854  12.756  10.537
24051W        W96344  16.678  26.178   4.808
24052W        W96345  35.543  21.198   0.348
24053W        W96346  41.339  39.823   3.280
24054W        W96347  13.190   7.850   2.882
24055W        W96348  21.074  43.865   1.449
24056W        W96349  18.732  10.646   0.888
24057W        W96350  22.590   6.385   1.797
24058W        W96351  12.845  13.350   2.393
24059W        W96352  31.407  22.510   0.307
24060W        W96353   4.267  12.202   4.652
24061W        W96354  40.426  17.264  12.564
24062W        W96355  22.519  42.478   4.279
24063W        W96356  17.241  23.104  13.824
24064W        W96357   0.777   4.717  12.068
24065W        W96358  20.275   5.363   1.766
24066W        W96359  26.501   9.883  12.992
24067W        W96360   4.275  37.433  12.563
24068W        W96361  29.167   0.848  10.597
24069W        W96362  43.326  33.502  14.341
24070W        W96363   2.881  26.510  13.800
24071W        W96364  21.519   7.718   4.620
24072W        W96365  28.052  17.112   2.888
24073W        W96366  14.189  18.667  13.840
24074W        W96367   2.443  13.304  11.103
24075W        W96368  41.802  40.338  11.982
24076W        W96369  30.449   2.457  14.950
24077W        W96370  37.460   2.240  12.439
24078W        W96371  19.154   2.468   3.172
24079W        W96372  42.343  15.658   2.840
24080W        W96373  17.184   4.933   2.711
24081W        W96374  33.066  38.971  12.952
24082W        W96375   4.319   1.902   3.318
24083W        W96376   7.902   6.803  11.494
24084W        W96377  12.827  32.424  12.443
24085W        W96378  12.191  35.462  11.597
24086W        W96379  43.288  42.924   4.233
24087W        W96380  25.650  13.268   3.282
24088W        W96381   7.299  40.464   2.401
24089W        W96382  39.860   1.742  10.501
24090W        W96383  24.090  41.382   1.698
24091W        W96384  38.941  32.393   0.943
24092W        W96385  10.794   5.245   4.305
24093W        W96386  42.365  16.173  10.506
24094W        W96387  14.218   0.980  10.474
24095W        W96388  27.632  12.232   1.264
24096W        W96389  11.692  20.667  13.493
24097W        W96390   7.718   3.759  13.363
24098W        W96391   9.834   8.389  11.416
24099W        W96392   1.797  21.211  13.955
24100W        W96393  34.018   9.209   1.907
24101W        W96394  43.321  35.893   5.768
24102W        W96395  20.621  36.033   4.260
24103W        W96396  22.082   4.346   3.835
24104W        W96397  21.213  36.097  10.066
24105W        W96398  26.132   9.211  14.838
24106W        W96399  42.478  40.419   0.390
24107W        W96400  21.698  32.990  12.568
24108W        W96401  40.016  28.135   0.415
24109W        W96402  41.347  12.813   0.480
24110W        W96403  34.462  19.778  11.584
24111W        W96404  21.596   7.177  12.571
24112W        W96405  15.686  36.394   3.861
24113W        W96406  30.474  41.529   4.235
24114W        W96407  35.936  17.294  10.568
24115W        W96408  40.498   6.364  11.484
24116W        W96409   9.664  18.786   4.285
24117W        W96410  44.343  12.737   1.412
24118W        W96411  11.297  17.280  12.016
24119W        W96412  34.606  43.394  10.640
24120W        W96413   1.843   7.814  10.434
24121W        W96414  30.620  10.191  11.493
24122W        W96415  23.495   8.376   3.831
24123W        W96416   0.395  23.202  14.985
24124W        W96417  26.591  24.047   3.748
24125W        W96418  31.116   4.380  13.414
24126W        W96419  22.086  33.625  12.018
24127W        W96420  19.634  44.339  12.994
24128W        W96421  25.113  42.512   3.653
24129W        W96422  22.739  32.969  11.905
24130W        W96423   9.270   5.370   4.682
24131W        W96424  39.490  33.580   2.859
24132W        W96425  30.565   6.209  13.417
24133W        W96426  23.167  29.619   1.914
24134W        W96427  40.041   5.224   4.699
24135W        W96428   4.246   1.950   1.703
24136W        W96429   0.321  40.008  13.840
24137W        W96430   4.871   6.872  13.821
24138W        W96431  41.033  19.628   1.377
24139W        W96432  39.548  16.162   4.353
24140W        W96433   7.797  42.443   4.253
24141W        W96434  17.158  31.907   1.393
24142W        W96435  11.730   0.415   2.826
24143W        W96436  17.277  35.866   3.192
24144W        W96437  34.936  28.626  11.473
24145W        W96438  23.558  20.157  13.899
24146W        W96439  35.448   3.931  11.097
24147W        W96440  37.068  32.580  14.300
24148W        W96441  25.484  30.530  12.358
24149W        W96442  15.637   0.294  14.467
24150W        W96443  27.116  30.105   4.277
24151W        W96444  22.717  33.026  13.379
24152W        W96445   8.877  17.793   4.198
24153W        W96446  25.121  17.557  14.884
24154W        W96447   1.837  20.675   4.607
24155W        W96448   5.341   4.842   1.235
24156W        W96449  42.915  42.946  10.503
24157W        W96450  10.740  34.972   3.806
24158W        W96451   5.193  38.521   3.184
24159W        W96452   6.183  38.426  10.548
24160W        W96453   7.363   2.769  14.026
24161W        W96454   0.357  41.440   2.811
24162W        W96455  43.803   7.792   1.843
24163W        W96456  33.877  18.583   4.259
24164W        W96457  11.659  32.130   4.639
24165W        W96458  33.132  16.801  11.956
24166W        W96459  14.285  20.549   2.388
24167W        W96460   1.913  28.067   4.813
24168W        W96461  43.984  14.592   0.818
24169W        W96462  31.406  17.611  13.884
24170W        W96463  25.082  11.184  12.503
24171W        W96464  36.544  39.391   1.815
24172W        W96465  11.231  27.054  13.384
24173W        W96466   7.751  41.453  11.390
24174W        W96467  20.087  32.048  12.959
24175W        W96468  35.072   0.252  10.066
24176W        W96469   6.794  43.769  11.927
24177W        W96470  15.210  12.744   0.319
24178W        W96471   7.313   9.245   4.113
24179W        W96472  26.487  18.070   0.790
24180W        W96473   1.826  15.216  13.925
24181W        W96474  40.936  36.075  10.561
24182W        W96475  19.579  38.354   4.265
24183W        W96476   0.759  28.980   3.717
24184W        W96477  18.679  22.700   1.286
24185W        W96478  27.553  14.275  10.427
24186W        W96479   7.696  11.339   0.407
24187W        W96480  33.897  17.078  13.451
24188W        W96481  25.079   9.879  13.352
24189W        W96482  40.835  11.675  12.461
24190W        W96483  35.464  20.050  13.027
24191W        W96484  20.152  17.149   2.799
24192W        W96485  42.315  41.905   2.302
24193W        W96486  21.208  39.975  12.947
24194W        W96487  34.886  22.516   3.321
24195W        W96488   6.201  38.058   0.342
24196W        W96489  11.188  32.630  14.028
24197W        W96490  14.277  39.378  11.103
24198W        W96491  21.585  40.435   2.887
24199W        W96492  20.767   5.756   1.320
24200W        W96493  28.167  28.161  12.369
24201W        W96494  31.114  13.245   4.812
24202W        W96495  27.491   4.213  14.977
24203W        W96496  21.251  42.421   0.901
24204W        W96497  26.553  22.520   1.350
24205W        W96498   0.821   4.734   5.229
24206W        W96499  20.640  43.862   3.673
24207W        W96500  15.657   4.890   4.638
24208W        W96501  43.939  11.708  10.920
24209W        W96502  36.363   1.239   1.352
24210W        W96503  42.896  39.390  13.878
24211W        W96504  28.090  11.354   4.827
24212W        W96505  42.403   1.321   5.220
24213W        W96506  31.474  25.090  10.510
24214W        W96507  32.478  15.799   1.211
24215W        W96508  27.141   6.268  10.573
24216W        W96509   5.219  25.116  14.511
24217W        W96510  26.620   5.919  14.484
24218W        W96511  19.758   9.349  12.967
24219W        W96512  36.029  20.699  12.055
24220W        W96513  31.046  34.943  13.353
24221W        W96514  24.225  33.405  10.921
24222W        W96515  39.986  39.330  14.001
24223W        W96516  19.259  13.306   0.853
24224W        W96517  27.997  41.351   2.782
24225W        W96518  23.048   8.279   4.828
24226W        W96519  19.213  16.306   2.224
24227W        W96520  31.403  32.056   0.355
24228W        W96521  23.733  24.104  13.818
24229W        W96522   0.814  15.253   0.379
24230W        W96523   4.337  37.074   1.760
24231W        W96524  34.894  43.289  13.981
24232W        W96525  33.017  35.958  11.509
24233W        W96526   5.361  16.649   1.432
24234W        W96527   6.810  21.127   2.893
24235W        W96528   1.252  39.899   0.475
24236W        W96529   5.354  12.281  10.578
24237W        W96530  27.113  15.729   4.192
24238W        W96531  16.701  44.367   3.744
24239W        W96532   5.230  13.151   1.269
24240W        W96533   2.252  10.832   1.855
24241W        W96534  15.641   7.899  13.029
24242W        W96535  31.428   7.233  13.311
24243W        W96536  38.903  37.832   3.165
24244W        W96537   4.290  29.540  10.552
24245W        W96538   3.790  30.470  10.489
24246W        W96539  31.592   6.750   4.600
24247W        W96540   4.354   9.317   4.623
24248W        W96541  35.512   2.428  13.527
24249W        W96542  37.512  37.850  11.114
24250W        W96543  24.005  15.108   0.771
24251W        W96544  44.909  42.497  13.050
24252W        W96545  14.186   3.341   0.841
24253W        W96546  41.416  12.746  10.519
24254W        W96547  23.047  43.022  11.469
24255W        W96548   7.738  43.406   0.769
24256W        W96549   8.184  25.673  12.873
24257W        W96550  32.949  19.119   4.622
24258W        W96551  28.085   6.315  12.414
24259W        W96552  12.224  40.375  13.355
24260W        W96553  38.006  43.823  12.563
24261W        W96554  32.618  13.300   4.761
24262W        W96555  35.988   6.235   4.349
24263W        W96556  41.396   4.323   0.277
24264W        W96557   8.168  28.574  13.942
24265W        W96558  14.768  26.955  14.310
24266W        W96559  27.521  37.010  10.911
24267W        W96560  38.938  11.240  14.986
24268W        W96561  40.893   0.940   1.319
24269W        W96562   0.936  32.071   3.269
24270W        W96563  14.599  23.662  14.899
24271W        W96564  26.127  33.078  14.845
24272W        W96565  24.975   7.809   4.654
24273W        W96566  38.456  11.258   4.707
24274W        W96567  14.667  31.040  11.888
24275W        W96568  12.155  18.201  14.891
24276W        W96569  19.076  44.853  13.495
24277W        W96570  29.500  40.934  14.304
24278W        W96571  32.885   2.412  13.874
24279W        W96572  28.955  22.135   1.832
24280W        W96573  11.207  20.161  13.544
24281W        W96574  20.074  36.969   2.676
24282W        W96575  30.605  31.514   0.890
24283W        W96576   4.373  10.143  12.492
24284W        W96577  19.683  35.032   5.085
24285W        W96578   8.878  40.424  11.098
24286W        W96579   1.374  10.206  10.962
24287W        W96580  40.479   7.312   2.821
24288W        W96581  22.198  26.699   2.277
24289W        W96582   3.776   4.308   3.754
24290W        W96583  36.391   7.806  13.791
24291W        W96584  42.896   9.811   0.463
24292W        W96585   4.930   2.812   4.354
24293W        W96586   1.961   0.776   1.427
24294W        W96587  38.867   0.429  13.428
24295W        W96588  37.947  10.286  13.969
24296W        W96589  33.018  21.048  12.452
24297W        W96590  14.168  34.571  12.919
24298W        W96591   8.264  21.110  10.918
24299W        W96592  39.409  42.299  10.420
24300W        W96593  41.995   5.909   1.230
24301W        W96594   1.302  18.693   2.362
24302W        W96595  22.583  36.012   9.956
24303W        W96596   6.415  11.760  11.555
24304W        W96597  16.249  31.125   2.822
24305W        W96598  39.935  19.273  14.439
24306W        W96599  23.018  42.863  10.908
24307W        W96600  41.457  26.460  14.334
24308W        W96601  21.590  25.621   2.186
24309W        W96602  29.034  26.580   3.214
24310W        W96603  18.641  22.159   4.137
24311W        W96604  21.047  18.125  14.876
24312W        W96605   8.658  11.653   3.717
24313W        W96606   3.216  35.386  14.380
24314W        W96607  41.535  18.223  10.986
24315W        W96608  34.412  36.842   3.163
24316W        W96609  39.508  11.181  14.773
24317W        W96610  17.679  38.953  10.571
24318W        W96611  41.367  24.014   3.687
24319W        W96612   4.757   7.812   0.783
24320W        W96613  17.607  43.355  10.436
24321W        W96614  35.494  37.013  11.096
24322W        W96615   6.368  17.784   9.988
24323W        W96616  34.479  28.112   3.765
24324W        W96617  16.113  25.044  10.934
24325W        W96618  25.584  26.462   2.314
24326W        W96619   1.419  18.570  14.512
24327W        W96620  37.408  20.719   4.684
24328W        W96621  39.835  11.804  13.338
24329W        W96622  28.020   4.408   0.803
24330W        W96623  41.856  38.881   2.755
24331W        W96624   2.286   0.949   4.689
24332W        W96625  14.197  13.164   1.887
24333W        W96626  24.536   0.452   4.292
24334W        W96627  12.362  38.349   3.795
24335W        W96628  32.424  37.072   2.866
24336W        W96629  11.864  17.669  11.950
24337W        W96630  27.563  22.177   0.455
24338W        W96631  15.250  13.766   1.311
24339W        W96632  41.920  38.846   0.857
24340W        W96633  40.025  30.610  13.965
24341W        W96634  39.963  31.911   0.476
24342W        W96635  39.869  31.519  12.556
24343W        W96636  34.870  15.249  13.890
24344W        W96637  15.121  36.841  13.008
24345W        W96638  35.382  29.169  12.443
24346W        W96639  14.187   5.788  10.404
24347W        W96640  35.955   7.768  11.546
24348W        W96641  13.795  12.361   4.726
24349W        W96642   3.799  22.007   0.813
24350W        W96643   5.378   7.250  12.920
24351W        W96644   1.255  35.358  13.506
24352W        W96645  40.997  36.498   4.764
24353W        W96646   5.270  23.654  12.351
24354W        W96647  27.087  11.763   3.837
24355W        W96648  41.886   1.795  12.090
24356W        W96649  35.371  33.587   0.881
24357W        W96650  37.044  36.951  12.577
24358W        W96651   0.957  44.276   1.719
24359W        W96652  22.734  14.203   0.821
24360W        W96653  40.849  40.357   2.236
24361W        W96654  23.169  21.036   0.468
24362W        W96655  21.753  32.510   2.222
24363W        W96656   1.752  23.100  12.421
24364W        W96657  25.102  12.654   4.217
24365W        W96658   6.326  40.870   2.192
24366W        W96659  37.510  11.839   3.230
24367W        W96660  15.622  30.976   1.915
24368W        W96661  26.156  18.755   1.880
24369W        W96662  20.669  34.440  14.779
24370W        W96663  19.724  28.598   3.339
24371W        W96664  14.753  40.360  10.970
24372W        W96665  15.622   9.789  11.459
24373W        W96666   7.698   7.826  13.466
24374W        W96667  41.339  18.157  14.365
24375W        W96668   2.308   5.415   2.266
24376W        W96669  42.961  26.520  14.773
24377W        W96670  21.209  38.856  10.982
24378W        W96671   9.856  41.821   0.925
24379W        W96672   9.819   2.385   2.693
24380W        W96673  29.646  30.554   0.310
24381W        W96674  13.157  23.667   1.829
24382W        W96675  26.068  38.951  14.492
24383W        W96676  24.019  30.530   0.904
24384W        W96677  41.982   2.253   2.713
24385W        W96678  23.573   2.352   5.620
24386W        W96679  33.063   5.743  14.788
24387W        W96680  23.097  31.923   0.813
24388W        W96681  13.216   2.464  13.538
24389W        W96682   8.662  44.756   2.219
24390W        W96683  38.924  29.046  13.945
24391W        W96684  28.967  12.289   4.781
24392W        W96685  25.983   0.985   3.669
24393W        W96686   1.423  42.788   0.791
24394W        W96687  42.525  25.062   2.306
24395W        W96688  12.290   5.732   2.717
24396W        W96689  11.707  38.950  13.043
24397W        W96690  26.123  10.361  10.415
24398W        W96691  14.622   4.262   3.690
24399W        W96692  36.507  31.527   1.223
24400W        W96693  43.993  41.384   0.787
24401W        W96694  24.023  27.679  13.808
24402W        W96695   5.807  27.977  12.978
24403W        W96696  35.976  42.980   2.365
24404W        W96697  24.055  43.334  10.495
24405W        W96698  27.954  17.604  13.385
24406W        W96699  33.404  10.371   3.212
24407W        W96700  19.118  33.454  12.436
24408W        W96701   0.908  12.831  14.793
24409W        W96702  33.590  31.533  14.455
24410W        W96703   4.208  26.062   1.419
24411W        W96704   4.374  39.424   1.402
24412W        W96705  40.475  24.039  14.904
24413W        W96706  15.294  10.160   4.750
24414W        W96707  17.565  40.024   2.690
24415W        W96708  39.004   7.305  13.810
24416W        W96709  19.780  16.634  13.796
24417W        W96710  37.858  17.208   4.800
24418W        W96711   3.796  26.471   1.410
24419W        W96712  23.108  19.674  14.316
24420W        W96713  16.642  32.524  11.990
24421W        W96714   2.945  44.989   1.926
24422W        W96715  26.616   2.888  13.878
24423W        W96716  30.631   1.807  11.558
24424W        W96717  15.191   0.904   2.682
24425W        W96718  37.450  41.371  13.513
24426W        W96719   4.329   6.843  12.452
24427W        W96720  44.479   7.215  12.545
24428W        W96721  15.618  39.909  10.550
24429W        W96722  35.566   2.451  11.059
24430W        W96723  28.080   3.955  13.819
24431W        W96724  19.649  18.751   2.899
24432W        W96725  39.886   1.361   3.705
24433W        W96726  31.401  40.816   0.942
24434W        W96727  36.427  20.104  12.397
24435W        W96728  34.488  34.553   1.715
24436W        W96729  12.658  44.435   4.780
24437W        W96730  32.050  33.526  13.916
24438W        W96731   3.325  21.064  14.022
24439W        W96732  29.446  17.122  13.454
24440W        W96733  28.622  27.665   3.796
24441W        W96734  32.483  42.474  13.058
24442W        W96735  29.134  32.120  14.414
24443W        W96736   5.327  33.940   4.262
24444W        W96737  38.902  27.452  10.938
24445W        W96738  37.395  26.499   0.941
24446W        W96739  35.969  29.022  13.941
24447W        W96740  23.015  31.939  10.494
24448W        W96741   6.879  42.473   4.139
24449W        W96742   5.281  18.187   1.422
24450W        W96743  21.648  14.222   0.798
24451W        W96744   5.253  37.062  11.054
24452W        W96745  32.546  43.337  11.469
24453W        W96746   6.744  19.214   3.377
24454W        W96747  27.617  13.833   0.857
24455W        W96748  16.223  30.543   5.125
24456W        W96749  36.353  22.737   3.830
24457W        W96750  14.596  24.082  11.527
24458W        W96751  10.705  27.048   1.713
24459W        W96752   3.771  34.003  12.487
24460W        W96753  42.493  22.162  10.645
24461W        W96754  39.869   1.442   0.795
24462W        W96755  29.993  17.750  13.807
24463W        W96756  10.743  14.684   3.211
24464W        W96757  30.066  27.633   3.756
24465W        W96758  38.543  23.147  11.052
24466W        W96759  22.567  35.895   2.328
24467W        W96760  33.592  26.989   0.288
24468W        W96761   4.729  33.443  11.533
24469W        W96762   7.774   6.192   0.814
24470W        W96763  11.850  21.634  14.797
24471W        W96764  25.541  17.234  11.906
24472W        W96765  37.950   8.836   3.344
24473W        W96766   9.320  20.060   1.304
24474W        W96767   6.239  16.163   4.772
24475W        W96768  10.848  10.716  11.416
24476W        W96769  37.496  15.785  11.490
24477W        W96770   2.853  25.470   3.277
24478W        W96771   3.926   9.214   3.302
24479W        W96772  23.148  22.052   1.312
24480W        W96773   0.850   5.352   3.231
24481W        W96774   5.837  16.315  14.985
24482W        W96775  37.538  10.280  10.596
24483W        W96776  30.450  35.509  10.515
24484W        W96777  14.290  11.824  12.547
24485W        W96778  13.648   3.278   3.649
24486W        W96779  42.326  13.154   0.884
24487W        W96780  41.886  14.242  14.371
24488W        W96781  33.976  28.975  12.855
24489W        W96782  22.134  23.176   0.895
24490W        W96783  12.268  41.517  11.905
24491W        W96784  25.535  32.934  12.000
24492W        W96785  18.219  35.852   0.733
24493W        W96786   2.369   9.786  14.365
24494W        W96787   1.247  29.611   3.686
24495W        W96788  25.571  33.088   2.761
24496W        W96789   3.367  31.515  12.844
24497W        W96790  11.279  36.559   4.661
24498W        W96791  32.614  31.983  11.508
24499W        W96792   1.369  26.113   4.771
24500W        W96793  32.468  41.001   0.293
24501W        W96794  27.125  21.032   3.261
24502W        W96795  14.810  44.281   4.130
24503W        W96796   8.685   5.882  12.069
24504W        W96797   6.681  29.072   0.888
24505W        W96798   6.680  38.923  13.487
24506W        W96799  12.644  37.528   3.159
24507W        W96800  30.091  22.197  14.370
24508W        W96801  20.165  27.637   3.370
24509W        W96802  22.102  34.958  13.952
24510W        W96803  34.984  38.388  12.954
24511W        W96804   7.290  29.498  10.552
24512W        W96805  20.555  43.800  12.477
24513W        W96806   2.773   8.403   0.383
24514W        W96807   7.289  15.188   3.368
24515W        W96808  43.897   9.770   1.371
24516W        W96809  38.043   4.705   0.747
24517W        W96810  20.533  43.378  10.422
24518W        W96811  39.486  33.466   1.433
24519W        W96812  39.852  36.011   0.815
24520W        W96813  14.795  40.916   3.812
24521W        W96814  39.323  30.481  14.953
24522W        W96815  16.690  35.976  12.013
24523W        W96816  24.620   5.741   0.772
24524W        W96817  25.468  30.910  14.512
24525W        W96818  26.141  41.010   4.782
24526W        W96819  27.634  22.575  13.965
24527W        W96820   3.791  31.488  12.987
24528W        W96821  13.279  33.076   2.366
24529W        W96822  31.542  11.342   4.831
24530W        W96823  11.218   8.760  10.991
24531W        W96824  22.677  37.417  14.770
24532W        W96825  16.120   3.294   5.257
24533W        W96826   7.900  43.398   4.128
24534W        W96827   7.836  29.467   0.261
24535W        W96828  34.916  32.909  12.000
24536W        W96829  38.952  39.448  13.503
24537W        W96830  37.505  26.697   4.775
24538W        W96831   8.335  26.627  11.916
24539W        W96832  17.605  30.067  13.032
24540W        W96833  10.800  12.245  11.420
24541W        W96834  10.653   9.846  14.811
24542W        W96835  28.145   9.795  11.916
24543W        W96836  17.741  42.331  11.509
24544W        W96837  35.495  39.430   1.264
24545W        W96838  38.479   2.726   4.824
24546W        W96839  17.177  24.167  12.028
24547W        W96840  31.564  15.265   2.839
24548W        W96841   5.333  37.527  14.332
24549W        W96842  27.019  27.581  11.425
24550W        W96843  37.471  29.039  13.885
24551W        W96844  34.384  43.808  13.941
24552W        W96845  16.264  21.062  12.542
24553W        W96846  23.547   3.288   2.692
24554W        W96847  31.433  28.075   4.622
24555W        W96848  31.545   5.804   4.177
24556W        W96849   9.158  29.498   3.700
24557W        W96850  13.702  14.684   0.293
24558W        W96851  10.867  10.241   2.179
24559W        W96852  19.630  20.722  14.912
24560W        W96853  19.700   4.417   4.289
24561W        W96854  19.271  12.278   4.318
24562W        W96855  14.335   4.340  10.919
24563W        W96856  24.199  42.302   0.847
24564W        W96857  34.886  12.739  14.960
24565W        W96858  30.522  32.948  12.925
24566W        W96859  20.534   3.896   0.779
24567W        W96860   9.844  36.005  11.885
24568W        W96861   0.370  40.311   0.467
24569W        W96862  41.336   7.219   4.784
24570W        W96863  14.208  11.187   3.266
24571W        W96864  35.534  40.929  14.964
24572W        W96865  43.473   9.688  13.511
24573W        W96866  23.225  31.995   2.821
24574W        W96867  35.543  38.394  12.462
24575W        W96868  14.174  15.766   3.283
24576W        W96869  40.494  27.095   1.860
24577W        W96870   3.839  21.518  10.960
24578W        W96871  27.030  21.256  10.987
24579W        W96872  13.292  14.636  11.990
24580W        W96873  18.678  16.700  13.365
24581W        W96874   7.793  19.659   2.257
24582W        W96875  32.013  29.555   1.240
24583W        W96876  22.559  29.562  11.993
24584W        W96877  42.780   4.754  14.968
24585W        W96878  12.853  37.563   0.401
24586W        W96879  10.674  41.392  12.437
24587W        W96880  11.182  31.017   0.275
24588W        W96881  42.498   4.797  14.922
24589W        W96882  18.719  11.323   0.812
24590W        W96883  28.613  42.466   0.425
24591W        W96884  31.587  11.305  12.092
24592W        W96885  37.880  41.403  10.926
24593W        W96886   5.284  30.030  13.989
24594W        W96887  40.426  12.811   0.808
24595W        W96888  13.217  24.045  13.433
24596W        W96889  16.590  20.537   4.825
24597W        W96890  33.423  34.903  14.401
24598W        W96891  12.792  26.201   0.763
24599W        W96892  15.244  17.241  13.806
24600W        W96893  18.260  32.454  12.097
24601W        W96894  11.327  16.741  14.960
24602W        W96895  29.574  22.504  12.407
24603W        W96896   1.341  38.335   0.243
24604W        W96897  20.605  25.707   2.879
24605W        W96898  11.262  16.270   0.888
24606W        W96899   2.364  11.816   5.093
24607W        W96900  22.057   9.875  11.886
24608W        W96901   8.216   4.787  14.814
24609W        W96902  20.563  22.530   2.288
24610W        W96903  31.507   9.333  10.902
24611W        W96904  26.028  41.818  12.468
24612W        W96905  43.836  40.531   3.251
24613W        W96906  26.068   3.319   0.360
24614W        W96907   5.205  27.508   0.891
24615W        W96908   2.248   3.228  13.901
24616W        W96909  11.204  29.172  11.409
24617W        W96910  14.650   3.824  10.524
24618W        W96911  27.560  41.458  10.905
24619W        W96912  14.110  18.076  12.351
24620W        W96913  43.963  14.761  11.522
24621W        W96914   9.654  16.804  12.420
24622W        W96915  34.562  43.410   0.407
24623W        W96916  20.073  36.984  10.530
24624W        W96917   2.375  34.017   2.182
24625W        W96918  27.197  10.836   2.233
24626W        W96919   0.761  27.445  12.456
24627W        W96920   8.769  31.567  11.871
24628W        W96921  42.968  31.932  10.435
24629W        W96922   8.847   0.766  12.996
24630W        W96923  37.464  14.306  12.877
24631W        W96924  25.662  41.838  12.890
24632W        W96925   7.343  14.176  13.901
24633W        W96926  26.132  26.669  12.357
24634W        W96927  24.120  12.615  14.489
24635W        W96928  18.575  20.760  14.912
24636W        W96929  32.475  11.256   2.268
24637W        W96930  10.347  36.049  13.319
24638W        W96931   1.934  36.454   3.248
24639W        W96932  42.923  39.041  12.933
24640W        W96933  22.103  16.631  13.391
24641W        W96934  14.199   7.189  12.840
24642W        W96935  31.603  16.081   4.173
24643W        W96936  32.059   8.770  14.029
24644W        W96937  16.602   7.677  13.893
24645W        W96938  42.980  44.501   0.939
24646W        W96939  29.970  35.021  11.496
24647W        W96940  27.499  25.703   4.786
24648W        W96941  42.931  18.756  12.381
24649W        W96942  15.583  42.468  13.834
24650W        W96943  32.012  43.812  14.366
24651W        W96944  38.552  19.535  12.354
24652W        W96945  13.146  25.525   3.253
24653W        W96946  43.857   8.276  14.371
24654W        W96947  44.961  41.035   2.215
24655W        W96948  38.514  25.125   2.900
24656W        W96949  30.013  18.263   0.837
24657W        W96950  39.461  29.637   0.310
24658W        W96951   7.863  33.057   9.625
24659W        W96952  44.384  30.626  11.918
24660W        W96953  28.503  11.715   1.711
24661W        W96954  12.117  13.737   4.140
24662W        W96955  42.918  24.679  14.427
24663W        W96956   9.781  30.939   0.297
24664W        W96957   3.432   5.221   0.737
24665W        W96958  30.995  16.238   4.624
24666W        W96959   6.381  17.142  14.842
24667W        W96960  44.913  43.781   3.261
24668W        W96961  42.897   5.719  11.032
24669W        W96962   5.402  13.827   4.669
24670W        W96963  10.286   6.793   0.950
24671W        W96964  33.880  36.043   2.269
24672W        W96965  44.350  44.339   3.672
24673W        W96966   0.288  37.966  14.275
24674W        W96967   2.372   9.865   1.820
24675W        W96968  41.532  32.444  13.882
24676W        W96969  18.273  34.116  12.568
24677W        W96970   4.732   7.675  14.296
24678W        W96971  28.958  26.112   2.277
24679W        W96972  16.635  14.217  12.360
24680W        W96973  15.695  26.636  11.510
24681W        W96974   3.871   7.175  12.946
24682W        W96975  31.104   7.408   4.188
24683W        W96976  12.795   1.827   0.371
24684W        W96977  33.626   6.694   4.298
24685W        W96978   8.303   3.429  12.408
24686W        W96979   7.382  12.681   4.126
24687W        W96980  16.803  30.535   1.825
24688W        W96981   3.827   4.376   0.937
24689W        W96982   8.724  36.507  10.557
24690W        W96983  14.661  40.052  13.920
24691W        W96984  23.146   2.427   4.643
24692W        W96985   2.237   5.431  13.542
24693W        W96986  17.732  43.796   0.374
24694W        W96987  43.316  19.072  10.489
24695W        W96988   1.350  38.539  11.385
24696W        W96989  20.711  29.506  13.830
24697W        W96990   0.867  10.245  10.900
24698W        W96991   8.316  40.031  11.876
24699W        W96992  35.998  24.611   4.352
24700W        W96993   1.285  23.039   2.239
24701W        W96994  15.130  44.358   0.337
24702W        W96995  38.067  23.167   1.274
24703W        W96996  28.635   0.805   4.201
24704W        W96997  18.292  21.543   3.778
24705W        W96998  24.653   5.203  10.138
24706W        W96999  36.971  19.274  10.586
24707W        W97000  12.333   4.304   3.268
24708W        W97001  40.340  35.097   1.277
24709W        W97002  33.481  31.620  12.095
24710W        W97003   4.391  42.811  13.826
24711W        W97004  30.452  38.544  13.870
24712W        W97005  31.454  42.384  14.387
24713W        W97006  25.700   3.741  13.981
24714W        W97007  41.324  11.714   2.216
24715W        W97008  23.007  11.237   1.275
24716W        W97009  35.870  36.925  14.945
24717W        W97010  44.299  24.195   2.895
24718W        W97011   8.738  32.010  11.126
24719W        W97012  36.425  44.417  11.499
24720W        W97013  40.895  36.349  14.990
24721W        W97014  28.657   2.781   4.756
24722W        W97015  13.213  37.901   3.811
24723W        W97016  29.649  20.744   3.376
24724W        W97017  21.683  11.754  13.955
24725W        W97018   8.760  11.313   4.280
24726W        W97019   8.753  35.564   5.262
24727W        W97020   2.452  34.039   1.911
24728W        W97021  21.634  43.475  10.498
24729W        W97022  28.127  34.059  13.463
24730W        W97023  20.752  12.741  12.862
24731W        W97024   0.777   5.772   0.795
24732W        W97025  17.765  18.629   2.728
24733W        W97026  27.162  15.169  13.041
24734W        W97027  13.713   5.348  12.874
24735W        W97028  24.199  17.258  13.390
24736W        W97029  30.126  24.693   1.728
24737W        W97030  41.952   2.939  13.543
24738W        W97031   5.736  22.581  14.439
24739W        W97032  19.265  36.507  13.013
24740W        W97033   9.652  26.559  13.964
24741W        W97034  24.068   0.444   3.779
24742W        W97035  33.061  20.228  13.945
24743W        W97036  42.401   2.757   3.814
24744W        W97037  43.967   6.307   2.288
24745W        W97038  33.487  37.886  13.973
24746W        W97039  21.228  23.141  12.863
24747W        W97040  14.643  21.698  14.434
24748W        W97041   9.691   6.866   0.855
24749W        W97042   6.846   1.451  12.051
24750W        W97043  13.747  17.702  13.309
24751W        W97044  39.518  20.739   0.741
24752W        W97045  41.479  19.598  14.797
24753W        W97046  37.336   6.832   4.828
24754W        W97047  39.026  44.765  12.067
24755W        W97048  24.114  36.052   1.326
24756W        W97049  24.025  17.286   1.750
24757W        W97050  43.415   2.261   0.354
24758W        W97051   1.755  10.189  14.454
24759W        W97052   5.401  38.878   3.262
24760W        W97053  26.644  27.662   3.291
24761W        W97054  44.376   3.952   1.407
24762W        W97055   5.770  41.404   0.433
24763W        W97056  41.792  27.975   0.879
24764W        W97057  14.196  36.912  12.383
24765W        W97058   7.414  23.235  10.585
24766W        W97059   6.235   2.244   1.447
24767W        W97060  19.039  44.808  12.535
24768W        W97061  12.665  31.410   3.215
24769W        W97062  37.840  16.150   3.708
24770W        W97063   5.280  37.475   3.255
24771W        W97064   5.875   8.875   0.382
24772W        W97065  25.553   4.399  11.494
24773W        W97066  27.551  42.902   2.759
24774W        W97067   9.388  23.173   2.765
24775W        W97068   6.763  10.657  11.457
24776W        W97069   8.752  33.533   1.364
24777W        W97070  36.891  32.084  14.487
24778W        W97071   0.852  16.617  11.973
24779W        W97072  37.460  42.421   3.189
24780W        W97073  36.359  42.987  14.937
24781W        W97074  17.687  16.119  10.577
24782W        W97075  36.092  34.924   4.690
24783W        W97076  40.035   9.671  11.394
24784W        W97077   3.777  28.019   1.860
24785W        W97078  41.015   9.834   2.260
24786W        W97079   6.862   5.398  13.927
24787W        W97080  34.882  16.151   2.737
24788W        W97081  44.981   1.268  10.495
24789W        W97082  12.761  15.231  11.111
24790W        W97083  40.972   2.405   0.335
24791W        W97084  35.914  12.254   0.825
24792W        W97085   5.753  36.534  12.927
24793W        W97086  43.473  18.748   2.336
24794W        W97087  21.535  14.338   2.347
24795W        W97088  24.564   2.908  12.546
24796W        W97089   5.839  34.057   1.760
24797W        W97090  23.183  23.171  13.353
24798W        W97091  31.090  20.263  12.373
24799W        W97092  22.108  25.985   0.923
24800W        W97093  15.267  42.890  11.029
24801W        W97094   1.260  38.544   1.330
24802W        W97095  26.605  39.495   2.803
24803W        W97096  15.150   0.444   4.798
24804W        W97097  17.171  19.727   2.262
24805W        W97098  26.621  44.906  10.423
24806W        W97099  11.848  36.509  11.481
24807W        W97100  37.077  21.097  14.469
24808W        W97101   1.794   9.655   2.839
24809W        W97102  26.056   1.483  11.050
24810W        W97103  38.442   6.689   2.696
24811W        W97104   8.709   9.678  12.347
24812W        W97105  23.689  32.619  13.518
24813W        W97106  39.023  43.322   2.822
24814W        W97107   4.221  38.969   2.818
24815W        W97108  33.977   3.778   4.737
24816W        W97109  26.506  24.525   4.654
24817W        W97110  31.024  12.357   2.786
24818W        W97111   4.893  37.926  14.456
24819W        W97112   0.388  25.089   4.314
24820W        W97113   5.344  19.538  14.778
24821W        W97114  32.082  41.453   2.720
24822W        W97115   7.274   4.319   2.395
24823W        W97116  10.170   6.250   0.326
24824W        W97117  10.343  10.277  10.614
24825W        W97118  22.239  29.027   3.767
24826W        W97119  37.492  28.951   4.322
24827W        W97120   0.814   0.872  13.020
24828W        W97121  23.003  39.819   1.233
24829W        W97122  13.661  24.041  13.944
24830W        W97123  13.638  34.467   0.413
24831W        W97124  37.849  13.198   0.404
24832W        W97125   6.895  17.589  14.828
24833W        W97126   4.713   6.848   0.852
24834W        W97127  13.779  35.051   0.948
24835W        W97128  19.639   0.914   1.335
24836W        W97129  44.470   3.750   4.709
24837W        W97130  39.413  19.087  12.495
24838W        W97131  30.585   6.421  12.846
24839W        W97132  38.995   5.781   4.643
24840W        W97133  36.540  38.820  10.122
24841W        W97134  24.158   3.281   3.860
24842W        W97135  24.025  17.197  14.017
24843W        W97136  18.132  17.064   3.738
24844W        W97137  21.755  40.490   2.226
24845W        W97138   4.937  40.447  13.470
24846W        W97139  12.281  28.452   3.337
24847W        W97140  23.546  36.514   3.815
24848W        W97141  23.020  11.218   3.807
24849W        W97142   8.289  43.345   2.416
24850W        W97143  13.151  35.604   4.325
24851W        W97144  28.159   2.882   1.401
24852W        W97145  17.209  42.912  11.589
24853W        W97146  14.164   1.290   5.198
24854W        W97147  27.014  36.550  14.783
24855W        W97148  30.436  16.593  12.968
24856W        W97149  42.898  41.323   1.766
24857W        W97150   6.257  39.515   3.148
24858W        W97151  26.576  16.640  10.487
24859W        W97152  29.947  30.955   4.635
24860W        W97153  39.018  44.786  10.579
24861W        W97154  12.289  15.644  14.837
24862W        W97155  35.938  31.593   2.220
24863W        W97156  43.963  40.454   4.664
24864W        W97157  32.923  16.223   4.639
24865W        W97158  12.288  12.177  10.621
24866W        W97159   6.760   8.242  10.409
24867W        W97160  13.222   4.734  12.400
24868W        W97161  16.098  23.047  11.528
24869W        W97162  13.771  35.974   4.793
24870W        W97163  10.304  32.407   4.323
24871W        W97164  23.622   8.267  10.549
24872W        W97165  37.367  24.714  13.454
24873W        W97166  38.839   5.897  13.351
24874W        W97167  11.850  25.053  13.870
24875W        W97168   0.396  35.481   3.170
24876W        W97169  23.622  13.224   4.801
24877W        W97170  32.139  19.137   0.323
24878W        W97171  12.360  41.406   2.253
24879W        W97172  19.646   1.766  10.622
24880W        W97173   3.343   6.760   0.891
24881W        W97174   0.354  13.255   3.660
24882W        W97175   7.224  21.743   0.794
24883W        W97176  26.700  24.490   2.202
24884W        W97177  22.732  44.441   0.939
24885W        W97178  19.147  34.516  13.390
24886W        W97179  27.945   0.811   4.125
24887W        W97180  31.476  37.863  13.826
24888W        W97181  24.675  22.631   2.731
24889W        W97182   4.854   0.360  13.401
24890W        W97183  21.645  32.895   0.246
24891W        W97184  42.480  13.200   1.776
24892W        W97185  33.040  27.984   1.227
24893W        W97186  42.790  38.481   0.289
24894W        W97187  14.289   3.900  10.414
24895W        W97188   8.209   8.806  13.511
24896W        W97189  12.835  43.378   4.833
24897W        W97190   1.336  39.880   4.814
24898W        W97191   4.351   2.402  14.821
24899W        W97192  34.513  22.511   1.318
24900W        W97193  23.222  14.332   3.662
24901W        W97194  31.569   1.386   3.263
24902W        W97195  28.030  33.068   4.600
24903W        W97196  32.425  30.558   3.841
24904W        W97197  42.293   9.830   3.338
24905W        W97198  32.921  23.596  13.346
24906W        W97199   6.254   3.716   4.725
24907W        W97200  17.759  26.540   4.760
24908W        W97201  23.132  27.945   0.393
24909W        W97202  35.027   2.438  12.970
24910W        W97203   0.865  29.637   2.846
24911W        W97204  29.459  10.361  14.999
24912W        W97205  25.584  44.878  13.426
24913W        W97206  36.059  41.940   4.827
24914W        W97207  17.688  41.470  14.779
24915W        W97208  36.382  36.421   3.654
24916W        W97209  40.866  17.757  14.781
24917W        W97210   0.970  42.344  10.967
24918W        W97211  40.508  18.576   3.339
24919W        W97212  39.919   4.245   2.664
24920W        W97213  38.369  11.136  14.801
24921W        W97214  12.851  43.954   3.801
24922W        W97215  31.921  29.941  13.963
24923W        W97216  38.064  35.051  14.361
24924W        W97217  37.342  33.487   4.608
24925W        W97218  24.083   5.378  12.981
24926W        W97219  32.091   7.276   3.800
24927W        W97220  11.788  44.832  11.442
24928W        W97221  21.156  27.081   4.773
24929W        W97222  31.470   1.331   1.294
24930W        W97223  31.414   8.363   5.130
24931W        W97224  34.545  25.125  14.809
24932W        W97225  23.724  23.695  14.476
24933W        W97226  43.479  11.314   4.667
24934W        W97227  24.574   6.395  13.025
24935W        W97228  16.105  36.931  11.470
24936W        W97229  38.563   8.191   1.820
24937W        W97230  10.799  33.063  11.484
24938W        W97231  10.698  31.955  11.487
24939W        W97232  43.877  35.597  14.888
24940W        W97233  39.443   4.718   1.245
24941W        W97234  23.100  20.655  14.295
24942W        W97235   6.321  26.969  11.456
24943W        W97236  42.889  23.625  11.030
24944W        W97237  31.481  16.107  10.474
24945W        W97238  44.338  14.320  12.085
24946W        W97239  15.701  29.960  13.536
24947W        W97240  36.534   3.789  14.887
24948W        W97241  34.977  27.607   2.865
24949W        W97242  18.745  36.079  13.058
24950W        W97243  42.524  44.833   3.263
24951W        W97244  20.242  38.049   3.360
24952W        W97245  44.314  19.218   3.836
24953W        W97246   3.835  24.628   0.772
24954W        W97247  28.008   1.744  10.407
24955W        W97248  17.252  16.161   4.609
24956W        W97249  24.500   7.804   3.640
24957W        W97250  33.004   8.696  10.993
24958W        W97251  41.031   5.824   4.261
24959W        W97252  27.954  16.695   1.780
24960W        W97253   2.857  39.967   0.877
24961W        W97254   0.957  27.169   3.308
24962W        W97255  43.937  10.840  12.954
24963W        W97256  12.198  23.507   0.923
24964W        W97257  14.618  24.032   2.725
24965W        W97258  21.227  33.930  14.816
24966W        W97259   9.696  16.165   2.418
24967W        W97260   5.360  18.068  11.932
24968W        W97261   3.272   6.692   1.883
24969W        W97262  38.511   8.261  12.065
24970W        W97263  26.581   8.196   2.207
24971W        W97264  22.649  27.189  11.986
24972W        W97265   3.861   4.755  11.445
24973W        W97266  28.133  22.565   2.374
24974W        W97267  27.133  15.788   1.268
24975W        W97268   1.365  18.184  11.008
24976W        W97269  13.204  16.104  10.510
24977W        W97270  16.726  35.572  11.399
24978W        W97271  10.313  36.406  12.868
24979W        W97272  18.201  32.473  14.288
24980W        W97273  25.670  33.546  12.546
24981W        W97274  16.189  42.339  14.917
24982W        W97275  15.129  20.585   4.167
24983W        W97276  39.549  40.535  14.990
24984W        W97277  14.799   3.377  12.926
24985W        W97278  43.358  29.967  14.819
24986W        W97279   5.304   3.333   4.204
24987W        W97280   6.402  40.433  10.438
24988W        W97281  25.645  40.370  12.065
24989W        W97282   7.706  20.227  11.117
24990W        W97283  24.164  17.788   2.732
24991W        W97284  42.367   0.811   2.827
24992W        W97285  18.550  35.381   0.772
24993W        W97286  10.809  28.654  14.431
24994W        W97287   5.358  16.704   4.722
24995W        W97288  17.244  20.223   4.173
24996W        W97289  20.234  30.076  12.035
24997W        W97290  32.927  10.239   2.375
24998W        W97291   6.779   7.379   1.447
24999W        W97292  26.047  31.505  12.027
25000W        W97293  21.169   5.215   3.266
25001W        W97294  20.055  16.693  11.020
25002W        W97295  38.872  29.164  14.891
25003W        W97296  36.518   4.415  14.331
25004W        W97297  14.175  41.793   3.147
25005W        W97298  40.053  30.478  11.479
25006W        W97299  12.734  29.628  11.097
25007W        W97300  29.934  43.288  13.063
25008W        W97301   7.371  28.677  12.380
25009W        W97302  27.078  22.658   2.328
25010W        W97303  16.243   4.228   9.500
25011W        W97304  22.640   9.702   3.833
25012W        W97305  31.108  11.728  13.893
25013W        W97306  33.946  13.347  10.417
25014W        W97307   0.388   9.366  13.407
25015W        W97308  26.488  26.690   3.791
25016W        W97309  14.337   7.785   5.130
25017W        W97310  38.040  17.180   0.857
25018W        W97311  30.450  39.904   4.334
25019W        W97312  29.037  41.497   1.242
25020W        W97313   3.416  34.970   0.923
25021W        W97314  24.497   1.371   4.304
25022W        W97315  28.452  17.631  10.426
25023W        W97316  32.142  44.372  10.102
25024W        W97317  14.232  13.618   3.746
25025W        W97318  17.603  23.684   9.586
25026W        W97319  12.240  43.886   3.660
25027W        W97320   4.921  33.091   1.928
25028W        W97321  20.181  40.910   2.359
25029W        W97322  21.227  24.053  13.318
25030W        W97323  10.239  37.497   3.751
25031W        W97324  41.855  12.789  13.474
25032W        W97325  31.057   7.187   0.250
25033W        W97326  20.688  19.733   0.310
25034W        W97327  26.078   4.921   2.265
25035W        W97328   1.761  36.029   2.823
25036W        W97329  21.130  21.586  13.548
25037W        W97330   7.873  12.615  12.950
25038W        W97331  41.028  30.994  10.943
25039W        W97332  14.166  28.575   3.865
25040W        W97333  18.547  30.513  10.045
25041W        W97334  22.503  24.671  13.511
25042W        W97335  19.195  12.210   4.767
25043W        W97336   9.183  11.716   4.165
25044W        W97337  24.646  30.438  12.958
25045W        W97338  42.507  35.081  13.928
25046W        W97339  11.206  29.934  14.445
25047W        W97340  24.170  24.647  14.984
25048W        W97341  22.558   2.862  13.990
25049W        W97342   3.350   5.832  12.366
25050W        W97343  39.995  22.107  13.546
25051W        W97344  27.561   7.795  13.911
25052W        W97345  11.679  26.008  10.434
25053W        W97346  24.090   7.215   0.824
25054W        W97347   2.921  35.452  14.463
25055W        W97348  39.326  22.516  12.512
25056W        W97349  15.607  12.738  13.965
25057W        W97350  25.139  19.213  12.358
25058W        W97351  18.741   9.753   3.700
25059W        W97352  26.973  25.533   0.836
25060W        W97353   4.858   1.821  14.031
25061W        W97354  11.656   2.764   4.705
25062W        W97355  43.474  41.818  10.905
25063W        W97356   8.729  41.949   0.886
25064W        W97357   3.260   0.461   4.644
25065W        W97358  35.597  33.587  12.490
25066W        W97359   1.298   4.296  11.604
25067W        W97360  35.388  43.854   2.216
25068W        W97361  36.592   2.378  11.550
25069W        W97362  29.670  32.916   1.359
25070W        W97363  21.207   7.903   3.742
25071W        W97364   8.222  22.535  13.035
25072W        W97365  18.630  19.721  13.851
25073W        W97366  13.138  34.550   0.892
25074W        W97367  38.385  38.852  10.113
25075W        W97368  20.536  29.477  14.339
25076W        W97369  29.603  44.409   2.370
25077W        W97370   3.430   4.944   0.481
25078W        W97371  19.135  27.519  12.933
25079W        W97372  24.109  11.224  14.882
25080W        W97373  10.230  43.485   1.802
25081W        W97374  31.921  12.288  14.448
25082W        W97375  18.697   1.976  14.783
25083W        W97376   8.336  24.006  11.890
25084W        W97377  28.005  18.149   0.439
25085W        W97378  19.685  12.347   4.233
25086W        W97379  12.748  30.540   0.380
25087W        W97380  11.129  23.010  14.428
25088W        W97381  13.755  30.517   3.171
25089W        W97382  10.791  29.030  14.451
25090W        W97383  28.148  24.981  13.352
25091W        W97384  23.033   3.719   2.742
25092W        W97385  29.504  16.123  12.966
25093W        W97386   3.442   5.694  13.473
25094W        W97387   6.807  44.972   4.819
25095W        W97388   3.303   4.408   0.349
25096W        W97389  10.164  38.506   2.209
25097W        W97390  23.707  28.989  10.994
25098W        W97391   5.354   8.764  10.440
25099W        W97392  25.211   0.754  11.046
25100W        W97393  38.993  20.051   1.820
25101W        W97394  20.561  19.216   2.380
25102W        W97395   9.312  22.034  13.983
25103W        W97396  36.867  35.549   0.333
25104W        W97397  19.577  13.833  12.963
25105W        W97398   7.850  30.497   1.873
25106W        W97399  36.359  32.630   2.185
25107W        W97400   7.277  24.001   2.397
25108W        W97401  20.692   0.765   1.765
25109W        W97402  25.034  23.549   2.182
25110W        W97403  16.639  31.618  14.008
25111W        W97404  26.467  29.441   1.706
25112W        W97405  16.677   2.312  14.861
25113W        W97406   6.808  32.076  11.965
25114W        W97407  22.547  13.163   1.259
25115W        W97408  32.120  44.809   1.741
25116W        W97409  44.293  31.098  12.870
25117W        W97410   5.371   0.898  11.440
25118W        W97411   1.278  38.972  11.017
25119W        W97412   7.766  23.542  11.375
25120W        W97413  39.531  17.679   0.948
25121W        W97414  40.476  30.480  11.960
25122W        W97415  34.428  10.185  13.020
25123W        W97416  24.208   1.263   0.784
25124W        W97417  41.895   0.477  14.840
25125W        W97418  16.609  22.693  14.459
25126W        W97419   7.830  29.443  13.335
25127W        W97420  39.417  28.025  14.449
25128W        W97421  15.795  11.202  10.014
25129W        W97422  23.514   1.772  12.456
25130W        W97423  10.651  25.635   4.692
25131W        W97424  44.281  10.209   2.716
25132W        W97425  15.191  25.634  12.404
25133W        W97426   8.734   0.411  10.531
25134W        W97427  24.029  37.037   1.745
25135W        W97428  13.323  14.224  11.006
25136W        W97429  16.574  41.944  10.421
25137W        W97430  33.396   8.251  11.043
25138W        W97431  25.109   5.742   0.753
25139W        W97432  41.966  30.070   1.351
25140W        W97433  13.227  39.499   1.820
25141W        W97434  17.081   2.846  13.980
25142W        W97435  15.677  18.106   4.734
25143W        W97436  25.993  10.219   3.768
25144W        W97437   8.189  16.177   0.261
25145W        W97438  27.178  38.460   3.667
25146W        W97439  16.761  22.168   5.680
25147W        W97440  27.460  42.018  11.869
25148W        W97441  44.265  37.544   0.906
25149W        W97442   2.275  35.386  12.963
25150W        W97443  31.000  43.301   3.765
25151W        W97444  40.036  25.970   3.243
25152W        W97445  21.187  18.730   2.833
25153W        W97446  43.270  26.556  14.398
25154W        W97447  32.616  34.583   0.303
25155W        W97448  32.931  12.644  12.459
25156W        W97449  10.742   0.466  14.797
25157W        W97450  41.444  25.081  14.424
25158W        W97451  44.870  19.583   1.913
25159W        W97452  26.465  25.049  13.345
25160W        W97453   0.971   6.710  11.932
25161W        W97454   6.378   7.787   4.818
25162W        W97455  44.362  33.015   2.313
25163W        W97456  22.162   3.354   3.744
25164W        W97457   3.923   7.378   3.251
25165W        W97458  41.303  32.886   3.745
25166W        W97459  39.029   7.901  14.906
25167W        W97460  19.555  17.111  10.409
25168W        W97461  18.670  38.880  10.124
25169W        W97462  25.101   4.886  12.914
25170W        W97463  10.296  23.107  14.299
25171W        W97464  33.987  18.760   4.670
25172W        W97465  12.188   6.900   3.345
25173W        W97466   5.688  29.431   0.827
25174W        W97467  33.100   9.694  11.947
25175W        W97468  30.498  42.328  13.848
25176W        W97469  31.502  17.248   0.399
25177W        W97470  39.035  38.834   2.795
25178W        W97471  29.054   4.746  13.531
25179W        W97472  26.495  24.597  14.433
25180W        W97473   7.320  18.295   0.928
25181W        W97474  29.511   6.711   4.823
25182W        W97475   6.727  13.693   3.383
25183W        W97476  36.470  42.310  14.432
25184W        W97477  11.706  30.513  14.928
25185W        W97478  42.449  39.458   0.249
25186W        W97479  43.914  25.576   0.823
25187W        W97480  10.241  21.178  12.507
25188W        W97481  33.444  22.083   1.855
25189W        W97482  14.799   7.285  11.512
25190W        W97483  42.811  19.746  11.010
25191W        W97484  42.857  35.598   1.819
25192W        W97485  38.545  40.490   1.761
25193W        W97486  40.397  33.489   2.733
25194W        W97487  38.367  24.173   4.151
25195W        W97488  26.659  37.492  13.340
25196W        W97489   6.861  36.418   3.817
25197W        W97490   8.229  41.003   2.731
25198W        W97491  21.196  20.063   1.407
25199W        W97492  34.376  22.645   1.748
25200W        W97493  13.335  33.450  13.929
25201W        W97494  41.925  17.235  14.352
25202W        W97495  40.534   9.716  13.462
25203W        W97496  12.126  30.575  12.414
25204W        W97497  20.763  22.168  11.101
25205W        W97498  15.238  18.159  10.960
25206W        W97499  41.944  22.628  12.575
25207W        W97500  43.458   6.351   2.201
25208W        W97501  25.657  33.897  14.512
25209W        W97502  12.734   0.431  14.982
25210W        W97503   5.351  38.556  12.456
25211W        W97504  24.635   1.309   3.228
25212W        W97505  33.549   3.305   3.385
25213W        W97506  17.627  17.080  11.937
25214W        W97507  37.075  28.945   3.767
25215W        W97508   7.911   4.805  10.586
25216W        W97509  43.341  33.923   4.749
25217W        W97510  39.023  30.972   3.690
25218W        W97511   4.717  30.044   2.386
25219W        W97512  37.832  37.435   0.397
25220W        W97513  33.945  24.201  10.461
25221W        W97514  32.456  44.988  14.399
25222W        W97515   0.747  21.581   0.353
25223W        W97516   2.395  17.791   1.743
25224W        W97517  22.113  18.089   4.744
25225W        W97518  18.265   6.182   1.735
25226W        W97519  43.938  23.002   4.233
25227W        W97520  10.660  38.431  14.282
25228W        W97521  43.269  35.948  11.564
25229W        W97522  21.711   4.291  10.620
25230W        W97523  22.533  17.256  10.085
25231W        W97524  39.927   9.859   0.757
25232W        W97525  38.414   1.406  13.350
25233W        W97526  23.024   3.304   0.299
25234W        W97527   0.457   4.333   2.201
25235W        W97528  37.904   7.242   0.841
25236W        W97529  43.489  36.956  14.335
25237W        W97530   4.913   3.919   3.238
25238W        W97531  40.052  22.503   2.237
25239W        W97532  40.038  27.141  10.519
25240W        W97533  40.390   3.254   2.273
25241W        W97534  15.302  12.249  11.406
25242W        W97535  43.009  30.018  11.440
25243W        W97536  38.560  41.363  11.448
25244W        W97537  25.526  31.098  14.994
25245W        W97538   8.167   2.750  10.894
25246W        W97539  26.550   3.460  13.929
25247W        W97540  15.234  14.669  14.333
25248W        W97541  22.517   7.815  10.597
25249W        W97542  15.601  21.043   0.315
25250W        W97543   8.248  15.612   3.173
25251W        W97544  34.935   7.854  14.514
25252W        W97545  42.901  42.890  13.867
25253W        W97546  37.462  14.277  11.876
25254W        W97547  18.558  19.159   0.482
25255W        W97548  38.949  37.505   4.211
25256W        W97549  30.489  27.943  14.774
25257W        W97550   9.723  10.835   2.264
25258W        W97551  31.060  19.712   3.713
25259W        W97552  42.970  31.146  13.393
25260W        W97553  21.125  20.653   1.358
25261W        W97554   6.716  26.093   2.769
25262W        W97555   3.853   0.781   3.284
25263W        W97556   3.823  17.077  13.963
25264W        W97557  12.833  44.371  11.403
25265W        W97558  35.934   4.726  11.867
25266W        W97559  29.525  12.718   4.279
25267W        W97560  12.626  42.383   3.190
25268W        W97561  15.773  22.191   2.197
25269W        W97562  16.753  43.964  12.403
25270W        W97563  22.621   2.757   1.303
25271W        W97564  33.877  41.428  11.403
25272W        W97565  23.005  24.988  11.585
25273W        W97566   2.850  33.444  12.577
25274W        W97567   9.280  41.881  12.397
25275W        W97568  42.372  24.716   4.824
25276W        W97569  18.590  40.308  10.473
25277W        W97570   4.720   3.234   5.119
25278W        W97571  17.752   9.371   0.445
25279W        W97572  26.596  22.018   1.351
25280W        W97573  41.821  20.067   4.775
25281W        W97574  32.432  28.166  14.279
25282W        W97575  15.660  44.493  10.592
25283W        W97576  23.670  23.674  14.896
25284W        W97577   3.322  20.673   1.288
25285W        W97578  31.107  37.834   1.717
25286W        W97579  44.355  10.694   3.193
25287W        W97580  28.477  31.983   4.155
25288W        W97581  41.354  20.607  11.033
25289W        W97582   0.432  37.464  14.824
25290W        W97583  24.505  18.575  13.368
25291W        W97584  42.994  43.474   4.260
25292W        W97585   8.369  33.480   1.891
25293W        W97586   5.790  42.863  14.338
25294W        W97587  37.039  13.774   1.809
25295W        W97588  23.614  17.607  12.953
25296W        W97589  14.829  34.409   2.691
25297W        W97590  27.663  24.101  12.009
25298W        W97591   4.259  39.515  14.409
25299W        W97592   8.748  10.229  13.970
25300W        W97593   0.970  15.606   4.316
25301W        W97594   2.923  11.791  11.971
25302W        W97595  37.940  20.065   4.709
25303W        W97596  21.533   0.314  12.350
25304W        W97597  36.580   9.243   2.389
25305W        W97598  14.749  33.590   3.718
25306W        W97599  21.088  30.462   3.325
25307W        W97600  39.812  34.463  11.061
25308W        W97601   9.287  26.068   2.705
25309W        W97602   6.842   1.251  10.515
25310W        W97603   4.815  22.007  12.576
25311W        W97604  15.743  31.961   2.261
25312W        W97605  22.009  43.389   3.264
25313W        W97606  29.972  24.220  13.056
25314W        W97607  44.913  32.552   0.377
25315W        W97608  13.174   0.320  10.958
25316W        W97609  12.730  40.025  14.923
25317W        W97610  44.978  41.904  11.442
25318W        W97611   4.384   3.269   0.926
25319W        W97612  29.053   4.295   1.898
25320W        W97613  41.813  38.397  10.439
25321W        W97614  22.500  44.872   1.862
25322W        W97615  19.286  34.593  14.380
25323W        W97616  43.286  27.094  14.782
25324W        W97617  32.527   9.183   5.731
25325W        W97618   4.883   7.832  11.515
25326W        W97619   7.277  30.458  14.294
25327W        W97620  16.197  36.389  11.904
25328W        W97621  23.715  30.569   3.688
25329W        W97622  15.096  13.833   2.380
25330W        W97623  35.987  26.694  14.904
25331W        W97624  16.593  16.576  13.356
25332W        W97625  17.214  31.036   1.301
25333W        W97626  41.333  28.074   4.296
25334W        W97627   6.793   6.404  11.117
25335W        W97628   1.300  36.580   1.310
25336W        W97629   5.870  28.952  12.827
25337W        W97630  26.014  44.442   0.854
25338W        W97631  44.830  36.979  10.992
25339W        W97632  39.976   2.439  13.839
25340W        W97633  28.528   1.406  13.331
25341W        W97634   5.862  44.803  12.056
25342W        W97635   8.681  40.886   0.770
25343W        W97636   1.977  17.585   0.416
25344W        W97637  22.643   4.787  11.594
25345W        W97638  21.658  30.468  10.458
25346W        W97639  21.590   9.183   2.773
25347W        W97640  15.244  14.592   1.894
25348W        W97641  30.514  31.923  14.936
25349W        W97642  16.312  42.895  13.325
25350W        W97643  15.101  25.556   0.426
25351W        W97644  20.251  39.400   4.156
25352W        W97645  27.003  26.554  14.836
25353W        W97646  23.506   5.874  14.967
25354W        W97647  14.183  33.573  11.938
25355W        W97648  29.496  35.878  14.868
25356W        W97649  41.499  29.987   3.739
25357W        W97650   1.376   6.695  14.963
25358W        W97651  29.490  15.602  14.397
25359W        W97652  22.065  28.583  12.949
25360W        W97653  11.740  21.187  10.960
25361W        W97654  26.050  10.212  10.921
25362W        W97655  40.536   8.222   0.904
25363W        W97656  35.910  33.443   2.842
25364W        W97657  28.534   4.264   0.726
25365W        W97658  18.172  39.819   4.284
25366W        W97659  27.550  27.583   2.821
25367W        W97660  10.319  22.555   0.906
25368W        W97661   2.801  17.611  11.890
25369W        W97662  43.314  17.154   1.798
25370W        W97663  25.965  13.655   1.804
25371W        W97664  24.620  29.988  12.933
25372W        W97665  41.356  18.548   2.402
25373W        W97666  37.436   9.771   0.279
25374W        W97667  29.587  17.781   0.449
25375W        W97668  26.989  34.912  13.982
25376W        W97669  42.801  43.422   9.994
25377W        W97670  25.030  44.936  14.386
25378W        W97671  28.028  37.920   1.809
25379W        W97672  41.838  33.438  14.349
25380W        W97673  32.401  21.032   9.982
25381W        W97674  35.895  12.698   3.763
25382W        W97675  14.332  29.999   2.854
25383W        W97676   6.822   6.313   2.831
25384W        W97677  31.583  14.600   0.376
25385W        W97678   7.339   2.398   2.731
25386W        W97679   3.336   2.941   4.165
25387W        W97680   0.284  41.470  11.111
25388W        W97681  14.127  30.937  11.069
25389W        W97682  19.051   6.195   4.827
25390W        W97683  31.477  10.342   0.934
25391W        W97684  27.118  13.211  14.856
25392W        W97685  20.143   1.290   0.443
25393W        W97686  21.119  44.819   3.386
25394W        W97687  19.709  38.443  13.996
25395W        W97688   8.201  22.586   1.731
25396W        W97689  44.921   8.817   2.248
25397W        W97690  40.514  11.755   2.775
25398W        W97691  39.893  30.950   3.173
25399W        W97692  13.236  29.648   1.829
25400W        W97693  18.669  34.944  14.310
25401W        W97694  17.201  28.521  11.118
25402W        W97695   7.721  27.538   1.444
25403W        W97696  43.918  34.484   3.820
25404W        W97697  43.355  19.209   1.844
25405W        W97698   3.832  26.131  11.566
25406W        W97699   0.788  25.100  14.360
25407W        W97700  29.484  40.489   0.779
25408W        W97701  10.331  44.800   3.849
25409W        W97702   8.348   3.892  10.967
25410W        W97703  38.003  38.904   9.922
25411W        W97704  27.016  16.655  12.892
25412W        W97705  24.067  13.128  13.938
25413W        W97706   6.721   9.712  12.465
25414W        W97707  34.397   8.689   0.733
25415W        W97708  12.309  12.340   3.274
25416W        W97709  24.212  12.816   0.368
25417W        W97710  26.183  44.935  13.445
25418W        W97711  37.393  10.138   0.341
25419W        W97712  33.113   5.920  13.877
25420W        W97713   2.295  11.301   1.833
25421W        W97714  34.888  29.519  10.073
25422W        W97715  17.673  21.704  14.988
25423W        W97716  39.378   3.884   0.345
25424W        W97717   0.751  34.021   4.338
25425W        W97718   4.233   9.881  12.450
25426W        W97719  28.532  11.779  12.027
25427W        W97720  31.971  18.157   4.724
25428W        W97721  15.765  13.147  10.624
25429W        W97722  36.989   4.244   3.633
25430W        W97723   6.369  16.315   2.663
25431W        W97724   2.464  13.777  10.987
25432W        W97725  39.987  38.405  13.804
25433W        W97726   2.856  13.180   4.661
25434W        W97727  12.158  35.598   4.681
25435W        W97728  23.531  12.344  13.837
25436W        W97729  23.030   4.443   3.197
25437W        W97730  20.629  10.212  12.002
25438W        W97731   3.759  26.145  11.050
25439W        W97732  41.967  22.192   4.211
25440W        W97733  41.372   3.937  13.050
25441W        W97734   2.764   0.986  11.407
25442W        W97735  27.629  20.649  13.392
25443W        W97736   0.872  24.199   5.235
25444W        W97737  43.317   9.178  11.600
25445W        W97738  13.345  11.697   5.091
25446W        W97739  27.965   1.956   2.211
25447W        W97740   9.875   7.350  12.966
25448W        W97741  43.317  40.027  14.008
25449W        W97742  28.028  22.131   0.919
25450W        W97743   9.325   4.272  13.048
25451W        W97744  17.252   4.793   3.353
25452W        W97745  24.486  14.209   2.707
25453W        W97746  37.976   1.786  13.857
25454W        W97747  30.072  12.610   0.772
25455W        W97748  30.421  31.054  13.417
25456W        W97749   2.377  23.235   4.741
25457W        W97750  42.884   0.262  11.855
25458W        W97751  19.552   6.677  14.355
25459W        W97752   2.853  34.567   2.778
25460W        W97753  34.391  20.561   0.434
25461W        W97754  40.836  34.528   4.807
25462W        W97755  42.887  33.483  14.915
25463W        W97756   0.338  25.143  11.403
25464W        W97757  34.115  24.693   2.682
25465W        W97758   9.759  12.333  10.495
25466W        W97759  13.306  36.414   3.741
25467W        W97760  43.339   8.356   1.354
25468W        W97761  17.172   1.333  13.378
25469W        W97762  22.132  36.512  11.008
25470W        W97763  16.620  16.748   2.230
25471W        W97764  42.499  30.581  13.453
25472W        W97765  43.464  14.161   3.739
25473W        W97766  40.808  12.833   3.675
25474W        W97767  13.685  35.494   1.270
25475W        W97768  28.466  36.442   4.304
25476W        W97769  16.094  31.635   0.450
25477W        W97770  41.511   4.348  11.991
25478W        W97771  16.567   6.736   1.708
25479W        W97772   5.917  38.403  10.981
25480W        W97773  29.447  28.537  14.759
25481W        W97774  24.124   9.711   4.186
25482W        W97775  12.261  22.733  14.005
25483W        W97776  27.689  38.886   3.762
25484W        W97777  29.972   5.284   3.818
25485W        W97778  29.589   6.900  13.795
25486W        W97779  30.046  23.666   2.184
25487W        W97780  43.939  14.105   1.863
25488W        W97781  42.935  38.504   4.699
25489W        W97782   7.761  15.228   4.197
25490W        W97783   3.370  15.710  10.147
25491W        W97784  27.032  42.031  10.637
25492W        W97785   6.901   3.256  14.424
25493W        W97786   8.883  18.197  10.057
25494W        W97787   4.250  20.068   2.800
25495W        W97788  14.739  14.740  13.964
25496W        W97789  24.038  21.162  12.545
25497W        W97790  29.987  22.593  12.829
25498W        W97791  39.855   2.751  11.009
25499W        W97792  20.134  39.464  12.836
25500W        W97793  38.059  10.711   3.761
25501W        W97794   1.404   7.390  11.880
25502W        W97795  15.727  40.817  13.006
25503W        W97796  24.487  35.395   2.189
25504W        W97797   0.816  37.433   1.284
25505W        W97798  37.345   6.841  11.574
25506W        W97799  11.735  32.630  10.887
25507W        W97800  13.720  39.410  14.362
25508W        W97801  39.017  13.125   1.775
25509W        W97802   6.887  30.956   0.754
25510W        W97803   1.255  11.227   2.256
25511W        W97804  30.557  42.791  12.847
25512W        W97805  26.684  14.743   0.805
25513W        W97806  23.141  11.779  14.324
25514W        W97807   6.688  32.969   0.874
25515W        W97808  23.022  29.600   4.733
25516W        W97809  33.468  24.714   4.312
25517W        W97810  34.939  38.490   2.230
25518W        W97811  44.817  12.804   3.206
25519W        W97812  23.609  30.487  11.419
25520W        W97813  10.375  40.054  14.992
25521W        W97814  34.402   0.859   2.698
25522W        W97815  28.144  35.096  12.966
25523W        W97816  21.708  30.005  10.994
25524W        W97817   0.834  16.228  10.405
25525W        W97818  41.310  37.047   0.292
25526W        W97819  26.043   9.228   1.433
25527W        W97820   6.426  36.580  13.384
25528W        W97821   4.875  42.806   2.248
25529W        W97822  39.531  44.418   1.739
25530W        W97823  15.310  29.446   2.741
25531W        W97824  32.007  27.110   3.710
25532W        W97825   8.213  37.411   0.896
25533W        W97826  17.276   7.761  10.964
25534W        W97827  15.731   7.764  10.485
25535W        W97828  36.961   5.865  10.458
25536W        W97829  18.221  12.154  12.555
25537W        W97830   4.410  13.783  11.510
25538W        W97831  29.036   6.272   2.369
25539W        W97832  18.204  21.202   2.777
25540W        W97833  21.552  19.693   3.189
25541W        W97834  30.622  10.765   4.343
25542W        W97835  27.954  14.597  14.440
25543W        W97836  13.784  19.186   2.797
25544W        W97837  20.634  39.534   2.419
25545W        W97838   5.404  36.376   1.770
25546W        W97839  18.690  20.148  13.492
25547W        W97840   2.385   1.237   2.269
25548W        W97841  16.753  11.131   0.851
25549W        W97842  33.395  41.935   4.728
25550W        W97843   9.183  10.383  11.115
25551W        W97844  38.530  18.668   1.808
25552W        W97845  22.608  41.954  10.424
25553W        W97846  24.666  36.587  14.948
25554W        W97847  42.807   0.431  12.938
25555W        W97848  16.212  23.193   3.260
25556W        W97849  25.496  27.183  10.598
25557W        W97850  17.591  42.400   3.788
25558W        W97851   2.882  22.638  12.089
25559W        W97852   1.929  24.040  13.337
25560W        W97853  40.022  36.386   0.398
25561W        W97854  22.534  12.770  13.980
25562W        W97855  19.752  21.085   3.682
25563W        W97856  30.582  37.873  14.417
25564W        W97857  19.060  19.186   0.955
25565W        W97858   2.458  20.666   2.393
25566W        W97859  24.564   5.827   0.284
25567W        W97860  16.101   1.803  14.379
25568W        W97861  10.638  40.902  10.484
25569W        W97862   4.884   0.287   2.269
25570W        W97863  31.010   2.927  10.408
25571W        W97864  32.428   1.799   2.735
25572W        W97865  26.485  12.747  10.619
25573W        W97866   2.357  11.663  10.545
25574W        W97867  24.693   6.906  11.536
25575W        W97868  21.687   2.246  10.518
25576W        W97869  21.065  25.964  13.336
25577W        W97870   4.789  13.641   1.342
25578W        W97871  41.501  41.933   3.370
25579W        W97872  16.259  25.186  13.532
25580W        W97873  19.093   3.439  13.360
25581W        W97874  38.440  18.707  12.510
25582W        W97875  10.696  15.769   5.201
25583W        W97876   8.167  32.085  14.503
25584W        W97877   7.413  14.178   3.360
25585W        W97878  41.383  27.489  12.528
25586W        W97879  27.519   8.365  13.488
25587W        W97880   5.302  18.702   2.260
25588W        W97881   6.832   5.742  13.817
25589W        W97882   7.715  36.550   4.704
25590W        W97883  24.556  26.641  11.010
25591W        W97884   9.842   9.735   2.687
25592W        W97885  21.156   6.731  12.577
25593W        W97886  21.686   9.185  10.615
25594W        W97887  43.783  27.136  11.966
25595W        W97888  22.500  37.526   4.716
25596W        W97889  35.387  35.569   0.339
25597W        W97890  41.417  31.976   1.905
25598W        W97891  12.796   5.816  12.968
25599W        W97892   9.296  35.884   5.236
25600W        W97893  11.692  15.142   0.299
25601W        W97894  38.829  35.545  14.818
25602W        W97895   1.331   0.481   2.786
25603W        W97896  26.089  31.116  13.008
25604W        W97897   3.887  43.804  13.057
25605W        W97898  25.119   2.729   0.836
25606W        W97899  38.385   9.294   3.669
25607W        W97900  10.652  32.428  11.049
25608W        W97901  41.982  33.081  14.495
25609W        W97902  24.602  14.198   2.229
25610W        W97903  22.729  35.420  13.036
25611W        W97904  25.669  44.819   2.671
25612W        W97905  24.992   2.384   0.922
25613W        W97906  20.039   2.965   1.323
25614W        W97907   8.244  38.866  11.522
25615W        W97908  19.780  26.079  10.973
25616W        W97909   5.849  21.666   2.256
25617W        W97910  28.667  16.618   1.735
25618W        W97911  38.069  19.697   0.410
25619W        W97912  25.689  26.682  10.103
25620W        W97913  42.956  37.880   4.821
25621W        W97914  35.534  37.450   0.786
25622W        W97915  25.109  14.115  14.291
25623W        W97916  40.879  37.890   1.719
25624W        W97917  27.108   3.901   3.734
25625W        W97918  13.221   0.488   4.764
25626W        W97919  14.252  33.475   1.850
25627W        W97920  43.306  42.940  13.862
25628W        W97921   7.690  20.127  12.381
25629W        W97922   4.247   2.858  11.609
25630W        W97923  14.181  13.618   4.681
25631W        W97924  34.074  44.957  11.427
25632W        W97925  22.040  11.771   4.115
25633W        W97926  26.175   3.277   1.789
25634W        W97927  16.633  28.606  14.325
25635W        W97928  10.776  16.674   3.669
25636W        W97929  26.510  29.425   1.388
25637W        W97930  40.411  10.737  14.393
25638W        W97931  12.715  22.014  13.942
25639W        W97932  43.430  12.211  11.994
25640W        W97933  31.915   4.816  12.391
25641W        W97934  43.010  20.269  13.385
25642W        W97935  35.491  38.367  11.594
25643W        W97936   3.256   9.233   2.821
25644W        W97937   2.404  15.154  14.427
25645W        W97938  27.548  29.596  14.508
25646W        W97939  13.690  19.586   1.728
25647W        W97940  38.014  37.382  12.963
25648W        W97941   8.175  41.939   4.787
25649W        W97942  15.152  26.033  12.873
25650W        W97943  33.511  28.113   1.823
25651W        W97944  28.072   8.278  13.019
25652W        W97945  24.496   4.430  12.423
25653W        W97946  36.397  20.245  14.851
25654W        W97947  21.643   7.365  12.910
25655W        W97948  29.438  40.928   2.223
25656W        W97949  25.036  19.057  14.460
25657W        W97950   8.284  29.613   0.812
25658W        W97951  44.300  22.086  12.563
25659W        W97952  31.091  30.461   3.282
25660W        W97953  21.121  31.039  12.983
25661W        W97954  25.056  14.214  14.002
25662W        W97955  32.399  41.538  13.805
25663W        W97956  20.178  17.218   3.841
25664W        W97957   1.344  27.149   0.482
25665W        W97958  37.041  30.492   0.353
25666W        W97959   4.843  41.904   0.244
25667W        W97960   5.898  28.639   2.690
25668W        W97961  19.698  15.780   4.135
25669W        W97962  35.053  13.659  14.312
25670W        W97963  31.049  40.975  13.367
25671W        W97964   0.298  28.543   1.412
25672W        W97965  20.203  24.977   3.808
25673W        W97966  35.914  36.898  11.469
25674W        W97967  30.568  11.370  14.999
25675W        W97968  20.137  20.676  11.537
25676W        W97969  35.014  39.523   4.164
25677W        W97970   6.283  22.030   2.240
25678W        W97971  41.010  17.109   4.152
25679W        W97972   6.718  21.076  11.543
25680W        W97973   2.410  33.436  13.348
25681W        W97974  42.317   7.284   0.348
25682W        W97975  29.613   7.314   1.920
25683W        W97976  16.136  36.949  10.930
25684W        W97977  14.761  22.645   3.721
25685W        W97978   3.366  17.159  12.910
25686W        W97979  21.176   2.940   0.733
25687W        W97980   7.798  35.858  10.100
25688W        W97981  30.423  38.054  12.906
25689W        W97982   4.740  13.171  10.514
25690W        W97983  27.566  43.342  14.302
25691W        W97984  25.675  29.424  11.516
25692W        W97985  29.564  21.258  14.950
25693W        W97986  39.940  36.859  11.892
25694W        W97987  15.325  31.605  11.414
25695W        W97988  13.736   4.294  12.833
25696W        W97989  34.603  22.604   3.243
25697W        W97990   6.737  34.590  11.914
25698W        W97991  32.576  43.337  13.034
25699W        W97992  26.023  25.563   1.763
25700W        W97993  43.791   4.408   2.730
25701W        W97994  30.077  23.069  11.047
25702W        W97995  30.620  19.124  12.461
25703W        W97996  11.345  34.082   1.377
25704W        W97997  30.587  34.470   2.178
25705W        W97998  37.417  10.383   2.671
25706W        W97999  18.281  38.511   3.766
25707W        W98000  34.987   9.715   0.350
25708W        W98001   3.258  20.732   4.333
25709W        W98002  39.492  29.103   2.182
25710W        W98003  25.614   0.952   3.171
25711W        W98004  24.693  41.041   3.295
25712W        W98005  15.774  24.039  14.468
25713W        W98006  30.160  18.754   0.851
25714W        W98007  32.136  24.140   5.306
25715W        W98008  11.243   1.898  14.897
25716W        W98009  33.054  44.358   3.378
25717W        W98010   4.353  41.948  14.352
25718W        W98011  32.952  27.561  14.380
25719W        W98012  31.913  10.699  12.386
25720W        W98013  22.669   9.356   4.309
25721W        W98014  34.864   1.279  11.049
25722W        W98015  27.182  12.235   0.328
25723W        W98016  12.250  31.095   4.172
25724W        W98017   7.814  40.335  12.069
25725W        W98018   6.319  36.529  11.397
25726W        W98019  19.070   0.346   4.747
25727W        W98020   0.768  15.234  10.539
25728W        W98021  12.744  16.803  14.792
25729W        W98022  10.817  31.448   1.777
25730W        W98023   8.817  34.495  13.453
25731W        W98024  19.740  34.046   5.317
25732W        W98025   4.828  26.976  14.951
25733W        W98026  10.710  37.447   2.863
25734W        W98027   6.882  31.405   1.238
25735W        W98028  18.604   1.935   9.945
25736W        W98029   4.422  28.066  11.892
25737W        W98030  22.513   6.788  12.857
25738W        W98031  33.979  44.855   1.838
25739W        W98032  34.408  34.448  14.780
25740W        W98033  27.068  18.592   1.384
25741W        W98034  38.843  31.591  11.490
25742W        W98035  14.212  44.389  14.331
25743W        W98036  29.548   2.323  11.878
25744W        W98037  25.013  18.613  12.540
25745W        W98038  36.423   9.786  14.014
25746W        W98039   6.270  23.187   0.371
25747W        W98040   3.712  27.661  13.372
25748W        W98041  18.676  34.062   1.324
25749W        W98042  38.903  21.557   3.723
25750W        W98043  13.621   1.259  14.332
25751W        W98044  36.069   4.943   1.866
25752W        W98045  32.897  42.392   1.236
25753W        W98046  43.434  32.620  12.001
25754W        W98047   1.830  10.343   2.703
25755W        W98048  13.842  14.730  12.367
25756W        W98049   1.397  19.134   4.349
25757W        W98050  39.921   2.736   0.831
25758W        W98051  41.041  12.719  10.953
25759W        W98052  34.373   2.446  13.828
25760W        W98053  15.299  38.555   2.737
25761W        W98054   6.693   5.894   1.885
25762W        W98055  28.132  43.320   3.694
25763W        W98056   4.371   8.801  14.887
25764W        W98057  34.042   0.800   4.733
25765W        W98058  33.484   9.859  13.350
25766W        W98059  11.783  10.756  14.343
25767W        W98060   2.734  29.108   2.207
25768W        W98061  39.046  21.202   0.788
25769W        W98062  31.414   6.805   0.473
25770W        W98063  12.741  42.965  12.494
25771W        W98064  35.940   8.224   2.326
25772W        W98065  30.415  18.212   2.775
25773W        W98066  28.659   2.780   2.306
25774W        W98067   9.704   5.827  13.426
25775W        W98068  17.643  36.886  14.858
25776W        W98069  33.942  20.662  11.983
25777W        W98070   0.808  23.508  13.319
25778W        W98071  30.925  32.424  12.018
25779W        W98072  10.805  14.684  11.916
25780W        W98073  21.143  27.651   1.287
25781W        W98074  16.238  23.207  11.960
25782W        W98075  13.331  31.138  12.828
25783W        W98076  42.284  27.542   4.734
25784W        W98077  25.031  38.465   4.739
25785W        W98078  35.953  39.999   1.734
25786W        W98079  14.687   2.280  14.984
25787W        W98080  20.725  29.488   0.806
25788W        W98081  15.314  39.062   2.726
25789W        W98082  22.541  34.383  12.368
25790W        W98083  34.606  19.257  13.940
25791W        W98084  18.679  34.961  13.454
25792W        W98085  34.966  12.759   1.365
25793W        W98086  28.942  37.506   3.254
25794W        W98087   4.427  40.804   4.619
25795W        W98088  11.637  13.723   0.749
25796W        W98089  34.020  25.965  12.460
25797W        W98090  27.084  28.484   1.306
25798W        W98091  23.645  17.575  14.924
25799W        W98092  28.461  10.793   0.292
25800W        W98093  33.047  23.187   4.838
25801W        W98094  38.409  21.154  13.041
25802W        W98095  26.115   6.802  14.388
25803W        W98096   7.765  13.171  11.898
25804W        W98097   6.376  17.189   3.225
25805W        W98098  11.133  40.004  13.906
25806W        W98099  18.252  41.462  13.442
25807W        W98100  33.463  10.782   9.935
25808W        W98101  33.427  14.164   5.272
25809W        W98102   2.328  34.996  14.375
25810W        W98103  18.657   0.451  14.804
25811W        W98104  18.608  17.143  12.078
25812W        W98105   5.730  44.904  14.960
25813W        W98106  30.958  29.975   2.335
25814W        W98107  18.767   1.815  12.922
25815W        W98108  24.991  34.487  10.531
25816W        W98109  38.834  37.416  12.063
25817W        W98110   9.840   2.828  13.894
25818W        W98111  12.652  20.031   2.668
25819W        W98112   9.653   1.914  13.854
25820W        W98113  11.202  25.130   4.739
25821W        W98114   5.195  32.106   1.349
25822W        W98115  41.966  18.092  10.434
25823W        W98116  40.038  11.177   1.315
25824W        W98117   8.669   4.439  13.448
25825W        W98118  31.127  43.832  13.001
25826W        W98119  39.373  37.574  13.800
25827W        W98120  11.842  43.507  10.415
25828W        W98121  41.892  34.922  13.958
25829W        W98122  33.587  16.272   3.786
25830W        W98123   8.890  10.254  14.471
25831W        W98124  30.007  12.257   0.935
25832W        W98125  36.082  19.203  13.017
25833W        W98126  25.208  38.039   2.370
25834W        W98127  25.152  32.397   0.339
25835W        W98128   4.447   9.309  13.435
25836W        W98129  35.495   1.846   0.854
25837W        W98130  33.560  35.591  10.440
25838W        W98131  31.505   2.427  14.296
25839W        W98132  24.645  23.524   0.863
25840W        W98133   9.281  33.455  12.995
25841W        W98134  25.494  29.987  14.378
25842W        W98135  38.464  18.587  14.800
25843W        W98136  10.872   4.856   0.775
25844W        W98137  19.105  22.538   3.731
25845W        W98138   4.768  24.128  12.951
25846W        W98139   1.925  28.934   2.363
25847W        W98140  27.683  24.591  10.499
25848W        W98141  42.339  20.750   0.351
25849W        W98142  35.104  15.594   3.182
25850W        W98143   6.787  42.394  13.849
25851W        W98144  44.895  18.079   9.450
25852W        W98145  35.921  33.119   2.318
25853W        W98146  42.945   9.729   1.746
25854W        W98147  11.659  34.059   2.286
25855W        W98148  37.930  41.917   4.773
25856W        W98149  31.613  41.375  14.329
25857W        W98150  19.769  16.213   2.800
25858W        W98151  15.224  23.650  12.027
25859W        W98152  23.659  39.956   0.957
25860W        W98153  44.907  38.006  14.407
25861W        W98154  42.002  18.219  13.868
25862W        W98155   4.219  17.253   4.343
25863W        W98156  21.226  39.438   1.319
25864W        W98157  17.603  27.100  10.414
25865W        W98158  33.383  23.595  11.019
25866W        W98159   6.736  11.622  10.631
25867W        W98160  44.411  18.176   3.262
25868W        W98161  41.947  13.138  11.129
25869W        W98162  23.180   0.982  11.576
25870W        W98163  11.730  19.080  13.368
25871W        W98164  24.634  20.609  12.516
25872W        W98165   1.258  14.679   1.803
25873W        W98166   6.804   2.737   4.206
25874W        W98167  39.453  21.656  10.893
25875W        W98168  17.642  16.292   0.271
25876W        W98169  43.801  30.518   3.198
25877W        W98170  39.059  32.566  13.359
25878W        W98171   5.861  12.128  12.364
25879W        W98172   2.383   3.242   4.190
25880W        W98173   9.648   9.213  11.520
25881W        W98174  30.437  28.135   3.338
25882W        W98175   4.427  43.919   4.818
25883W        W98176  41.481  27.105  10.486
25884W        W98177  28.646   4.332   3.751
25885W        W98178   4.287  17.138  13.397
25886W        W98179  26.049   9.355   0.919
25887W        W98180  22.240  34.091   2.853
25888W        W98181  20.745  13.240   0.474
25889W        W98182  29.440  35.061   0.263
25890W        W98183  16.204  40.309  14.371
25891W        W98184  44.298  21.552   1.386
25892W        W98185  20.523  33.464   3.304
25893W        W98186  37.493  21.067   0.907
25894W        W98187  30.598   2.753  12.854
25895W        W98188  44.269  31.521  14.468
25896W        W98189  15.251   2.806   1.228
25897W        W98190   4.349  29.525  11.919
25898W        W98191   8.255  36.095  11.045
25899W        W98192  12.240  10.219   4.802
25900W        W98193  34.896   5.344   3.802
25901W        W98194  23.185   0.859   3.261
25902W        W98195  28.043   3.301   3.849
25903W        W98196  30.562  36.489   0.919
25904W        W98197   4.720   7.876   3.635
25905W        W98198   3.865  16.247  12.366
25906W        W98199  31.586  38.074  14.440
25907W        W98200  41.362  29.528   4.747
25908W        W98201  40.951  16.316   3.335
25909W        W98202  34.055  44.426  11.398
25910W        W98203  35.046  13.145   4.838
25911W        W98204  27.990  17.279  13.537
25912W        W98205  43.791  15.706  13.974
25913W        W98206  40.452  35.863  12.046
25914W        W98207  44.941   5.776   3.758
25915W        W98208   1.885  42.346  12.461
25916W        W98209  32.954  24.000  12.868
25917W        W98210  24.097  27.535   2.705
25918W        W98211  20.613  13.351  12.425
25919W        W98212  15.798  31.515  10.633
25920W        W98213  22.557  16.798  13.380
25921W        W98214  41.913  34.568  13.938
25922W        W98215   6.781  42.431  12.022
25923W        W98216  28.154  13.120  10.604
25924W        W98217  27.090  36.526   3.220
25925W        W98218  42.390   5.694  14.847
25926W        W98219   0.251  10.365   2.304
25927W        W98220  18.601  23.646   1.762
25928W        W98221  17.305  41.370  11.602
25929W        W98222  14.678  25.110   3.355
25930W        W98223  10.645  37.883   2.382
25931W        W98224  13.259  26.631  11.582
25932W        W98225   7.347   7.403  12.960
25933W        W98226  12.145  22.629  13.454
25934W        W98227  12.299  40.985  13.806
25935W        W98228  39.373  25.469   0.940
25936W        W98229  31.510  41.844   0.941
25937W        W98230  33.894  34.024   0.817
25938W        W98231  40.394  35.915  14.354
25939W        W98232  15.601  22.736   0.780
25940W        W98233   1.857   0.377   4.263
25941W        W98234  35.946  22.111  13.891
25942W        W98235  32.939  36.902   1.364
25943W        W98236  35.465  36.996  10.545
25944W        W98237  23.017  11.688  13.356
25945W        W98238   6.384  21.235  11.549
25946W        W98239  38.404  44.379  12.927
25947W        W98240  23.058  11.316   1.776
25948W        W98241  36.533  38.933   0.398
25949W        W98242  44.436   2.724   1.416
25950W        W98243  32.113  13.837  11.866
25951W        W98244  33.063  34.972   1.810
25952W        W98245  11.831  41.333   1.815
25953W        W98246  40.837   5.248   2.307
25954W        W98247  21.537  14.770  13.384
25955W        W98248  15.231  21.629   1.428
25956W        W98249  34.384  44.010   2.220
25957W        W98250  11.360  11.757   1.240
25958W        W98251  34.458  28.471   1.835
25959W        W98252   1.433   1.814   3.381
25960W        W98253   6.244  42.845   9.993
25961W        W98254  37.351  11.686   0.299
25962W        W98255  39.822  24.107  11.599
25963W        W98256  10.369  25.984   4.128
25964W        W98257  38.522  35.481  11.960
25965W        W98258  12.741  12.789   3.359
25966W        W98259  17.167  16.176  13.006
25967W        W98260  19.241  11.215   2.342
25968W        W98261  29.065  38.822   2.833
25969W        W98262  23.077  31.103  12.513
25970W        W98263   5.401  42.025  14.868
25971W        W98264  10.319  43.346   4.252
25972W        W98265   4.700   9.749   1.386
25973W        W98266  13.844  37.974   0.279
25974W        W98267   5.751  11.315   4.749
25975W        W98268   5.714  18.222   3.752
25976W        W98269   0.745  19.277   4.719
25977W        W98270   5.857  43.968  13.435
25978W        W98271  21.559  40.413   4.710
25979W        W98272   2.308  29.660  11.915
25980W        W98273  21.192   9.236  12.347
25981W        W98274   0.262   8.706  12.837
25982W        W98275   4.294   6.224   2.281
25983W        W98276  13.127   5.202   2.687
25984W        W98277  37.065  34.964  11.992
25985W        W98278  20.632  31.965   3.348
25986W        W98279  25.507  29.592   5.248
25987W        W98280  17.600  32.987  12.986
25988W        W98281  25.691  29.075   4.225
25989W        W98282  43.340  30.569   1.757
25990W        W98283  24.195  36.470  10.621
25991W        W98284  35.852  31.489   2.807
25992W        W98285   8.796  14.163   4.179
25993W        W98286  34.473  39.995   4.222
25994W        W98287  16.600  30.071  11.570
25995W        W98288  15.105   9.815   1.711
25996W        W98289  28.522  24.582  11.088
25997W        W98290  16.172  23.146  12.873
25998W        W98291  22.072   5.214   2.716
25999W        W98292  10.238  18.547  14.780
26000W        W98293  40.345  21.540  12.019
26001W        W98294  33.471  24.211  14.470
26002W        W98295  23.193  20.163  13.841
26003W        W98296  13.321  19.712  14.991
26004W        W98297  41.027  39.538   0.390
26005W        W98298   3.780  32.991   0.854
26006W        W98299  44.000  41.907   2.821
26007W        W98300   2.759   3.402   2.738
26008W        W98301  18.597  11.732  12.484
26009W        W98302  33.405  21.167   0.357
26010W        W98303   8.847   3.369   3.762
26011W        W98304  27.032  11.180  12.905
26012W        W98305  13.661  13.282  12.439
26013W        W98306  32.011  32.093   5.088
26014W        W98307  38.993  38.920   5.085
26015W        W98308  16.285  34.434  11.074
26016W        W98309   1.285   8.344  11.958
26017W        W98310  43.910  24.196  13.539
26018W        W98311  25.612   4.425   4.713
26019W        W98312  43.879   8.248   1.234
26020W        W98313  44.429   4.884  11.913
26021W        W98314   7.844  15.168   3.386
26022W        W98315  36.472  40.944  10.968
26023W        W98316  29.426  13.660  12.575
26024W        W98317  12.332  15.191   2.284
26025W        W98318  23.166   0.765  12.895
26026W        W98319  42.493  43.314   9.630
26027W        W98320  38.969   6.764  12.386
26028W        W98321   5.204   7.912   4.698
26029W        W98322   4.935  10.703  14.309
26030W        W98323  44.946  26.146  10.416
26031W        W98324  42.973  17.659  11.935
26032W        W98325  20.732  27.450   3.652
26033W        W98326  11.854   1.250   0.314
26034W        W98327  41.973   2.951   2.777
26035W        W98328  10.691  32.015   0.783
26036W        W98329  43.413  34.520  14.768
26037W        W98330   5.232  37.985   3.351
26038W        W98331  17.756  15.182  10.909
26039W        W98332  24.544  15.731  12.020
26040W        W98333  40.971  32.088   1.213
26041W        W98334  10.190  36.061   4.704
26042W        W98335  27.612   7.898   2.875
26043W        W98336  28.463  35.970  14.869
26044W        W98337  43.507   0.254   1.247
26045W        W98338  24.581  25.501  11.900
26046W        W98339   5.220  38.442   2.740
26047W        W98340  10.146  36.994   4.318
26048W        W98341  29.923  28.467  14.514
26049W        W98342   6.183   1.298  13.882
26050W        W98343  15.094   7.272  10.630
26051W        W98344  11.676  15.770  10.965
26052W        W98345  39.521   3.829  10.914
26053W        W98346  37.985  41.966   1.911
26054W        W98347  13.721  14.098  10.591
26055W        W98348   8.176  22.684  11.450
26056W        W98349   4.326  19.608  10.602
26057W        W98350   6.401  11.201  12.374
26058W        W98351  17.665  34.998   1.899
26059W        W98352  17.668  27.055   4.348
26060W        W98353  18.262  21.701   2.902
26061W        W98354  44.369  24.649   3.693
26062W        W98355  43.508  40.479  14.770
26063W        W98356  41.421  14.597   3.805
26064W        W98357  16.704   3.251   4.764
26065W        W98358   2.393  40.801  15.000
26066W        W98359  16.608  23.722   4.201
26067W        W98360  32.555   7.732   4.633
26068W        W98361   6.793  19.268  14.999
26069W        W98362  43.394  27.631   3.258
26070W        W98363  40.333  26.699   5.250
26071W        W98364  10.329  35.445  11.498
26072W        W98365  34.475  40.020   1.854
26073W        W98366   8.286   2.862   2.697
26074W        W98367   3.400  16.718   1.933
26075W        W98368  36.093  20.652  13.387
26076W        W98369  19.217  30.934   1.378
26077W        W98370  25.199  23.164   1.767
26078W        W98371  23.536  22.051  13.334
26079W        W98372  25.599  27.462   3.763
26080W        W98373   5.277  20.256  12.516
26081W        W98374  29.942   4.719  10.631
26082W        W98375  18.158  31.945   3.375
26083W        W98376  26.609  18.135  13.442
26084W        W98377  36.940  20.639   2.312
26085W        W98378  14.169  23.643  14.831
26086W        W98379  10.710  35.522  11.507
26087W        W98380  14.615  41.869  13.872
26088W        W98381  25.671  23.698   2.888
26089W        W98382  32.499  26.492  10.126
26090W        W98383  26.196  19.165   2.817
26091W        W98384  34.535   2.260   1.376
26092W        W98385  31.621  20.139  14.342
26093W        W98386  26.552  30.528   3.714
26094W        W98387   3.831  25.030   3.733
26095W        W98388  41.344  23.187  13.854
26096W        W98389  35.391  36.885   1.818
26097W        W98390   4.208  14.708   2.187
26098W        W98391  29.530  13.107  13.991
26099W        W98392   5.266  40.416   2.729
26100W        W98393   9.333   8.307   3.314
26101W        W98394   1.793  33.919  10.891
26102W        W98395   9.650  21.195   4.802
26103W        W98396  18.739  29.577   9.925
26104W        W98397   8.191  27.464   1.378
26105W        W98398  13.347  27.627   0.455
26106W        W98399   5.807   5.418  14.471
26107W        W98400   2.832  35.442  12.031
26108W        W98401   9.877  36.864   3.723
26109W        W98402  16.094   6.382  10.076
26110W        W98403  38.918   2.943   4.336
26111W        W98404   3.409   7.760  13.402
26112W        W98405  31.638  38.990  11.512
26113W        W98406  43.349  30.018  13.932
26114W        W98407   1.909  16.153   0.351
26115W        W98408   9.698  17.276  10.957
26116W        W98409  34.092  26.149  13.468
26117W        W98410  39.934  14.138   2.686
26118W        W98411  27.057  34.034  13.799
26119W        W98412  21.232  44.907  10.594
26120W        W98413  24.177  24.035  14.986
26121W        W98414  16.626  11.179  13.945
26122W        W98415   2.950  44.390   2.185
26123W        W98416  24.547  25.192   2.665
26124W        W98417  10.836  31.111  12.089
26125W        W98418  28.562   7.353   2.753
26126W        W98419  10.832  29.025   3.641
26127W        W98420  25.976  40.926   4.142
26128W        W98421  17.279  37.025   3.764
26129W        W98422  26.523  19.161  14.026
26130W        W98423  16.089  10.214  11.529
26131W        W98424  13.711  11.843   0.953
26132W        W98425  12.768  32.620  14.464
26133W        W98426  14.824  23.208  13.832
26134W        W98427   7.265  25.670  14.341
26135W        W98428  38.484  38.569  10.981
26136W        W98429   3.880  20.595   1.404
26137W        W98430  36.584  18.723   1.780
26138W        W98431  33.411  18.731  10.921
26139W        W98432  42.328  17.595   0.321
26140W        W98433  36.092  19.136   4.651
26141W        W98434  40.330  42.868   3.673
26142W        W98435   3.761  41.808  11.861
26143W        W98436   9.393  19.152  11.962
26144W        W98437   2.322  15.114  12.057
26145W        W98438  12.328   4.328  13.957
26146W        W98439   9.837  34.970  12.378
26147W        W98440  14.832  20.214  10.977
26148W        W98441  27.962   2.262   4.163
26149W        W98442  41.972  35.945   3.646
26150W        W98443  44.757   8.225  11.955
26151W        W98444  36.460  42.922  13.819
26152W        W98445  22.725  11.237  11.563
26153W        W98446   0.417  39.358  14.510
26154W        W98447   5.925  34.528   5.282
26155W        W98448  22.550  20.522  10.535
26156W        W98449  24.115   0.961  13.835
26157W        W98450  15.185   7.800  13.822
26158W        W98451   1.382  25.027   4.811
26159W        W98452  12.230  30.456   2.795
26160W        W98453  20.032  24.107  14.315
26161W        W98454   9.738   3.743  14.783
26162W        W98455  18.678  33.598   1.737
26163W        W98456  35.502  17.631   1.732
26164W        W98457   0.387  15.286   4.132
26165W        W98458  14.710  38.978  11.432
26166W        W98459  23.242  27.168  14.368
26167W        W98460  41.908   8.849  13.332
26168W        W98461  27.657  38.561  14.881
26169W        W98462  40.834  10.763  14.957
26170W        W98463   5.362  22.035   3.853
26171W        W98464  39.872  28.183  12.825
26172W        W98465  38.560   6.699  13.061
26173W        W98466  20.053   4.289  11.920
26174W        W98467   4.207  34.908   0.299
26175W        W98468   9.367   7.667   0.428
26176W        W98469  12.350  37.441   1.746
26177W        W98470  13.275  24.028  10.997
26178W        W98471   2.747   8.694  13.016
26179W        W98472  27.473  25.036  12.040
26180W        W98473  13.799  15.177  12.943
26181W        W98474  42.354   5.804   3.351
26182W        W98475  41.972  15.263   0.298
26183W        W98476  24.154  36.483   1.774
26184W        W98477   7.810   0.472   4.201
26185W        W98478  17.596   6.904  10.452
26186W        W98479  36.457   4.932   2.198
26187W        W98480  30.980   9.187   2.338
26188W        W98481  38.049  35.585   3.150
26189W        W98482  43.403   7.197  10.563
26190W        W98483   6.262  26.182  12.351
26191W        W98484  29.539  24.631   2.763
26192W        W98485  43.981  38.472  13.424
26193W        W98486  41.394  44.766   0.295
26194W        W98487   0.342  38.407  13.031
26195W        W98488  23.154  16.186   1.355
26196W        W98489  14.830  30.920   0.888
26197W        W98490  37.902  30.430   4.646
26198W        W98491  13.149  20.709  10.636
26199W        W98492   3.255   8.165   1.250
26200W        W98493  28.566   9.282   2.826
26201W        W98494   5.698  41.508  14.827
26202W        W98495  17.167  17.258   0.292
26203W        W98496  12.186   8.175   2.383
26204W        W98497  32.560  23.555   4.802
26205W        W98498  26.123  10.805   1.348
26206W        W98499  18.050  36.912   3.758
26207W        W98500  31.929   9.299   4.781
26208W        W98501  27.050  25.016  12.008
26209W        W98502  30.001  40.005   4.709
26210W        W98503   0.785  30.996  11.567
26211W        W98504  17.710  27.144  11.401
26212W        W98505  30.603  23.530   1.788
26213W        W98506  13.239  18.671  11.484
26214W        W98507  11.364   0.311  13.861
26215W        W98508  39.352   4.827   2.273
26216W        W98509  26.001  21.730  12.507
26217W        W98510  33.109  42.509  11.091
26218W        W98511   3.781  24.578  10.610
26219W        W98512  17.084  24.695   3.678
26220W        W98513  36.394  35.441   0.472
26221W        W98514  26.510   9.765   3.266
26222W        W98515   1.367  24.173  11.079
26223W        W98516  13.132  21.639   2.820
26224W        W98517  32.596  38.842  10.922
26225W        W98518  25.098  44.333   3.849
26226W        W98519   4.884  37.870  14.937
26227W        W98520  41.862  31.448  11.939
26228W        W98521  33.429  37.335   0.871
26229W        W98522   2.240  14.237  14.306
26230W        W98523   1.316   6.848   4.247
26231W        W98524  30.471  17.605  14.800
26232W        W98525  34.038  38.997  13.509
26233W        W98526  13.264  38.904   0.354
26234W        W98527  17.584  37.830   3.361
26235W        W98528  17.202  11.648  13.395
26236W        W98529  21.722  19.104   4.334
26237W        W98530  11.348  13.131   1.806
26238W        W98531  31.554  11.846  13.982
26239W        W98532  25.559  32.414   4.604
26240W        W98533  17.569  31.067   2.381
26241W        W98534  19.745  41.365  11.970
26242W        W98535  15.660  38.013  11.070
26243W        W98536  40.003  29.616   3.332
26244W        W98537   2.472  14.780  14.995
26245W        W98538  40.043  24.027   2.862
26246W        W98539  40.974  10.663   1.437
26247W        W98540   1.739  11.862   4.194
26248W        W98541  40.331  11.844   5.235
26249W        W98542  18.244  36.371   1.365
26250W        W98543  16.263  20.236   4.604
26251W        W98544  11.708  43.514  14.913
26252W        W98545  26.995  15.177   3.221
26253W        W98546  19.102  12.656  13.546
26254W        W98547  17.713  43.278   2.249
26255W        W98548  23.018   2.243  11.911
26256W        W98549  11.224   0.918  12.832
26257W        W98550  40.539  21.562  14.448
26258W        W98551  42.820  10.686   1.751
26259W        W98552   7.332  14.333   2.397
26260W        W98553  26.973  15.804   1.880
26261W        W98554  43.783  33.888  12.964
26262W        W98555  14.283  22.036  12.433
26263W        W98556   0.249  43.885   3.713
26264W        W98557  30.452   3.315  12.344
26265W        W98558   2.472  18.597   4.288
26266W        W98559  44.798  14.766  13.941
26267W        W98560  37.854  40.462  11.992
26268W        W98561  40.304  18.720   3.844
26269W        W98562  19.221  43.998  10.509
26270W        W98563   6.693  21.065  12.477
26271W        W98564  20.263   7.822  12.357
26272W        W98565  31.573   2.917   0.825
26273W        W98566   1.971  11.136  11.055
26274W        W98567  16.111  12.333   2.211
26275W        W98568  24.531  25.050  14.440
26276W        W98569  23.683  17.281   2.865
26277W        W98570  25.206   0.410  14.287
26278W        W98571  12.695   9.677  10.584
26279W        W98572  34.986   0.979   1.301
26280W        W98573  12.626   8.722  12.081
26281W        W98574   8.725  18.210  11.024
26282W        W98575  10.677   9.806   3.791
26283W        W98576  35.093   4.855   0.433
26284W        W98577   6.874  22.511   4.279
26285W        W98578  23.731  21.700   2.291
26286W        W98579   9.886   8.733  13.823
26287W        W98580  16.571  36.975   0.249
26288W        W98581   4.329  37.909  11.927
26289W        W98582  26.680   7.335   0.736
26290W        W98583  18.618  10.795   4.624
26291W        W98584   2.803  36.505  10.448
26292W        W98585  29.649  42.522   4.837
26293W        W98586   2.234  35.456  10.409
26294W        W98587  19.774  26.480  11.021
26295W        W98588  28.670  15.702  11.093
26296W        W98589  28.640   5.436  10.454
26297W        W98590   3.950   4.807  12.424
26298W        W98591  27.619  43.768  13.044
26299W        W98592  37.938  17.557  12.518
26300W        W98593  36.542  34.600  12.418
26301W        W98594  38.835  35.063  12.029
26302W        W98595  43.349   3.817  12.847
26303W        W98596  43.818  40.360   4.165
26304W        W98597  24.999  26.687   1.775
26305W        W98598   7.305  25.028   3.809
26306W        W98599  44.504  11.191   3.225
26307W        W98600  31.932  39.477  13.801
26308W        W98601  36.410  30.522  13.454
26309W        W98602  34.390  15.683  13.445
26310W        W98603   3.924   9.191   0.378
26311W        W98604  22.673   4.705   2.245
26312W        W98605  33.955  25.661   3.650
26313W        W98606  31.022  42.520   3.197
26314W        W98607  40.347  19.197   3.741
26315W        W98608   7.764  23.084   3.687
26316W        W98609  13.780   7.834  12.938
26317W        W98610   3.440  34.026  14.410
26318W        W98611  22.196  28.054   3.233
26319W        W98612  17.596  37.850   2.839
26320W        W98613  22.080  14.726  14.763
26321W        W98614  12.631  40.488   3.299
26322W        W98615  22.195  33.046   1.701
26323W        W98616  29.160  15.235   1.887
26324W        W98617  25.526  29.431   3.178
26325W        W98618  41.796  15.673   5.319
26326W        W98619  14.108  11.849  11.397
26327W        W98620   4.810   7.217   0.785
26328W        W98621  26.065   9.888  10.911
26329W        W98622  16.235  35.862  14.460
26330W        W98623  24.601  11.284   3.629
26331W        W98624  20.687   1.266  12.016
26332W        W98625  36.899  23.191  13.846
26333W        W98626   5.887  11.787  14.292
26334W        W98627  28.540  25.144  13.956
26335W        W98628  21.035  32.620   1.426
26336W        W98629  18.289   1.965  11.394
26337W        W98630  25.142  15.618  14.979
26338W        W98631  14.665  17.798   0.298
26339W        W98632  30.941  13.170   4.348
26340W        W98633  43.943  26.506  10.486
26341W        W98634   1.430  15.636  11.110
26342W        W98635  38.382  12.732   3.847
26343W        W98636  24.225   9.382   3.687
26344W        W98637  11.260  21.566  13.878
26345W        W98638  17.641  38.832   1.214
26346W        W98639  15.775  16.275  10.987
26347W        W98640  25.501  10.265   4.132
26348W        W98641  38.001  15.803  11.011
26349W        W98642  31.058  10.875   0.833
26350W        W98643   2.720  10.165   2.767
26351W        W98644   2.232   2.433   1.281
26352W        W98645  28.152  16.733  10.622
26353W        W98646  38.853   3.914   4.619
26354W        W98647  44.839   7.207  14.401
26355W        W98648  26.533   9.723  14.287
26356W        W98649  39.835  27.627  10.556
26357W        W98650   6.190  31.968   0.783
26358W        W98651  40.303  38.478  11.381
26359W        W98652  22.238   6.211  11.887
26360W        W98653  16.772  38.339  12.022
26361W        W98654  18.741  29.939  14.863
26362W        W98655  27.637  18.712  13.440
26363W        W98656  22.736  44.455  10.500
26364W        W98657  43.776  31.111   1.816
26365W        W98658  41.851   2.308   4.833
26366W        W98659  21.644  33.996   2.234
26367W        W98660  22.169  38.907   4.641
26368W        W98661   6.898  10.149  11.889
26369W        W98662  16.288   0.257  13.879
26370W        W98663  28.116  37.876   4.680
26371W        W98664   3.890  10.862  12.534
26372W        W98665  33.431  30.641  13.906
26373W        W98666  10.690  23.533   3.362
26374W        W98667  34.573   5.233  10.550
26375W        W98668   1.459  44.786  12.027
26376W        W98669   9.796  23.039   0.412
26377W        W98670  35.913  21.171   0.470
26378W        W98671  19.227  16.705  12.570
26379W        W98672  42.873   0.413   4.764
26380W        W98673  44.860  21.749  10.896
26381W        W98674  40.357  15.317   4.797
26382W        W98675   3.404  18.163  10.639
26383W        W98676   4.721  37.019   3.353
26384W        W98677  10.168  30.991  12.358
26385W        W98678   4.846  17.087   0.371
26386W        W98679  41.802  41.923   3.267
26387W        W98680  17.205  43.768  11.993
26388W        W98681  44.419  13.734  12.079
26389W        W98682  28.595   3.803   2.373
26390W        W98683  39.427  22.248  14.948
26391W        W98684   5.325  43.307   1.758
26392W        W98685  19.649  33.056  10.910
26393W        W98686  43.272  29.124  14.977
26394W        W98687  23.504  27.970   2.355
26395W        W98688   9.690  19.649   4.827
26396W        W98689  27.499  28.606   1.220
26397W        W98690   7.758  20.255  14.280
26398W        W98691  32.501  30.013  13.415
26399W        W98692  39.974  28.626   4.811
26400W        W98693  37.833  37.904   0.387
26401W        W98694   6.350   7.356   3.360
26402W        W98695  17.182  18.716   0.401
26403W        W98696  12.673  33.476  11.934
26404W        W98697  22.529  37.563   2.741
26405W        W98698  14.687  22.707  13.390
26406W        W98699  23.495  18.284  14.279
26407W        W98700   0.455  12.833   4.597
26408W        W98701   1.413  26.040   0.844
26409W        W98702  34.564  32.928   4.717
26410W        W98703  37.992  44.269   2.201
26411W        W98704  37.433  31.109   5.268
26412W        W98705  35.077   8.813   3.155
26413W        W98706  18.745  21.123   1.385
26414W        W98707  11.804  23.168  10.053
26415W        W98708   6.242   8.885  12.921
26416W        W98709  31.118  23.010   2.784
26417W        W98710  29.130  14.781  13.387
26418W        W98711  29.560  39.405   3.852
26419W        W98712  21.142  43.366  12.394
26420W        W98713  41.801  42.332  13.486
26421W        W98714  25.653   1.815   4.664
26422W        W98715  21.034  25.984   4.781
26423W        W98716  22.662  19.700  12.043
26424W        W98717  41.016  16.309   0.940
26425W        W98718  15.323   6.392  14.031
26426W        W98719  30.145  23.556   1.931
26427W        W98720  27.974  19.073  14.928
26428W        W98721  43.371  35.917   3.162
26429W        W98722  42.333   0.758  14.417
26430W        W98723   3.279  20.200   1.283
26431W        W98724  29.965  22.704  11.930
26432W        W98725  38.040  27.610   3.843
26433W        W98726  29.469  38.485   2.380
26434W        W98727  32.891  38.329   3.170
26435W        W98728  43.786  14.128   3.250
26436W        W98729  19.272   5.374  14.364
26437W        W98730  24.601  40.897   1.365
26438W        W98731  19.206  28.471  12.350
26439W        W98732  41.888  14.257  10.409
26440W        W98733  20.729   4.307   0.464
26441W        W98734  10.367  18.723  11.083
26442W        W98735   4.866  17.297  11.405
26443W        W98736  12.318  18.788   3.870
26444W        W98737  11.319  29.484   4.691
26445W        W98738  44.920  24.075   4.205
26446W        W98739  22.202  18.600   2.679
26447W        W98740  37.941  33.509   0.304
26448W        W98741  25.572  15.790  11.484
26449W        W98742  34.582  26.499  12.031
26450W        W98743   8.229   0.293  10.944
26451W        W98744  25.677  28.572   1.789
26452W        W98745  34.937  11.165  11.121
26453W        W98746  29.971  27.176   0.314
26454W        W98747  41.445  25.553  13.496
26455W        W98748  40.834   0.367   0.303
26456W        W98749  12.261  34.490  11.092
26457W        W98750  40.938  24.154   4.250
26458W        W98751   8.805  31.640  10.946
26459W        W98752   7.667  19.220  11.589
26460W        W98753  33.909  11.755   2.370
26461W        W98754  31.429   7.385   1.381
26462W        W98755  28.126  21.048  14.445
26463W        W98756   9.672  24.045  12.404
26464W        W98757  37.544  36.868   4.638
26465W        W98758  35.428  20.732  12.869
26466W        W98759  21.177  19.694  14.306
26467W        W98760  10.765  15.135   3.736
26468W        W98761  42.302  23.204   0.962
26469W        W98762  25.119  21.603  13.473
26470W        W98763  41.321  13.162   2.792
26471W        W98764  33.976  22.707  11.376
26472W        W98765  33.083   9.354   4.752
26473W        W98766  43.910   1.941   3.845
26474W        W98767  40.546   9.727   2.186
26475W        W98768   1.932  15.139  14.385
26476W        W98769  29.065  41.485  13.863
26477W        W98770   2.858  42.951   2.315
26478W        W98771  44.287  18.684  12.926
26479W        W98772  28.128   2.913   1.706
26480W        W98773  15.305   1.396   3.168
26481W        W98774   2.744  32.908  12.470
26482W        W98775   6.190  13.765   2.381
26483W        W98776  36.024  44.949  11.445
26484W        W98777  36.873   8.180  12.478
26485W        W98778  27.129   4.729  13.978
26486W        W98779  11.209   2.880   2.741
26487W        W98780  26.059  43.427  14.903
26488W        W98781  22.614  35.048   2.753
26489W        W98782  25.478  28.611  14.830
26490W        W98783  36.463  41.882   1.711
26491W        W98784  31.430   1.832  13.360
26492W        W98785  13.742  33.535   1.214
26493W        W98786  25.084   0.819   4.659
26494W        W98787   7.366  14.143   2.837
26495W        W98788  27.045  12.852   1.392
26496W        W98789  23.568  14.706   1.379
26497W        W98790  11.676  17.251  13.428
26498W        W98791  26.523   2.961   2.780
26499W        W98792  16.605   6.715   4.338
26500W        W98793  12.228  15.125   3.817
26501W        W98794  41.446  42.378  13.500
26502W        W98795  18.069   6.723  14.908
26503W        W98796  39.821   2.433  14.281
26504W        W98797  34.103  27.490   1.229
26505W        W98798  39.539  43.326  14.466
26506W        W98799  43.481  30.067   3.736
26507W        W98800  34.399  41.359   4.174
26508W        W98801  38.494  17.753   2.262
26509W        W98802   4.707  21.262   0.874
26510W        W98803  14.787  43.775   1.742
26511W        W98804  14.155  39.370   3.860
26512W        W98805  43.884  12.661  12.964
26513W        W98806  11.640  14.666   3.681
26514W        W98807  27.057  43.769  12.451
26515W        W98808  15.812  31.909   0.316
26516W        W98809  21.058  37.999   4.764
26517W        W98810  28.054  34.459   4.697
26518W        W98811  14.715  40.834   4.789
26519W        W98812  20.527  26.576  13.013
26520W        W98813  29.102  43.002   4.729
26521W        W98814  13.715   2.362   4.251
26522W        W98815  13.329  36.984  11.460
26523W        W98816  24.222  37.484   5.103
26524W        W98817  14.297  17.573   0.787
26525W        W98818  22.643   3.352   0.883
26526W        W98819  41.459  23.697  14.448
26527W        W98820   2.749  43.353   2.293
26528W        W98821   3.433  10.175  14.289
26529W        W98822   6.681  11.664   0.413
26530W        W98823  12.172  23.094   4.281
26531W        W98824  40.383  13.703   3.751
26532W        W98825  17.197  24.026  14.002
26533W        W98826   6.355   4.395  14.021
26534W        W98827  31.617  11.233  11.601
26535W        W98828  39.537  41.323  10.991
26536W        W98829  29.587  37.422  13.497
26537W        W98830  42.920  28.034   0.380
26538W        W98831  39.837  26.996   4.264
26539W        W98832   2.835  44.816   2.820
26540W        W98833  15.824  12.161   2.204
26541W        W98834  22.511  26.689  12.542
26542W        W98835  41.382  37.996  14.363
26543W        W98836  39.966  34.489   2.209
26544W        W98837  15.145  37.492   4.222
26545W        W98838   5.390  29.507  10.968
26546W        W98839  26.951  27.563  11.104
26547W        W98840  32.005  14.148  14.796
26548W        W98841  35.018  36.058  10.602
26549W        W98842   3.927  25.599   0.896
26550W        W98843  25.176  21.229  11.392
26551W        W98844  34.990  11.711  10.544
26552W        W98845  34.546   8.752  12.917
26553W        W98846   4.226   0.328  11.875
26554W        W98847  10.138  17.299   5.124
26555W        W98848  37.456  22.582   1.735
26556W        W98849  43.511  22.086  13.956
26557W        W98850  38.871  32.021  14.484
26558W        W98851  37.535  35.005  10.469
26559W        W98852   6.315  41.919   3.246
26560W        W98853  30.070  21.248   4.250
26561W        W98854  28.544  13.204   0.310
26562W        W98855  17.592   4.328  14.980
26563W        W98856  35.388  37.082   3.858
26564W        W98857  18.125  28.004   0.447
26565W        W98858  24.228  20.055  12.463
26566W        W98859  19.051   1.385   2.771
26567W        W98860  37.862   8.331  13.839
26568W        W98861  35.387  34.890   3.637
26569W        W98862  24.171  13.601   3.330
26570W        W98863  32.036   8.862  14.357
26571W        W98864  18.234  13.785  11.542
26572W        W98865   2.946  28.164  12.579
26573W        W98866  25.153  29.613  10.980
26574W        W98867  17.197  26.187  11.462
26575W        W98868   0.359  15.622  12.870
26576W        W98869   8.364  22.200   1.449
26577W        W98870  24.617  35.021  12.956
26578W        W98871  39.444  29.970   0.852
26579W        W98872   6.217  20.572  10.108
26580W        W98873  34.384  37.957   0.751
26581W        W98874   1.287  28.563   2.233
26582W        W98875   1.352  23.129  12.547
26583W        W98876  43.816  20.085  14.471
26584W        W98877  29.989  44.873  11.040
26585W        W98878  12.242   9.742   3.353
26586W        W98879   9.703  41.512  11.468
26587W        W98880  17.283  25.648   3.684
26588W        W98881  24.488  40.440  11.415
26589W        W98882  18.230  25.632  12.874
26590W        W98883  34.913  16.736   1.868
26591W        W98884  14.774   7.355  10.642
26592W        W98885  39.004  33.982   0.471
26593W        W98886  15.238  34.866  14.433
26594W        W98887   0.977   2.959   0.815
26595W        W98888  10.314   8.221  12.825
26596W        W98889  40.470  12.182  12.085
26597W        W98890  21.068   1.480  11.983
26598W        W98891  28.673  11.152   2.896
26599W        W98892  12.670   7.826   1.429
26600W        W98893  15.285  11.845   2.313
26601W        W98894  35.999  10.163   4.294
26602W        W98895  17.208  36.527  14.513
26603W        W98896  32.450   1.945   0.426
26604W        W98897  25.037   8.892  12.456
26605W        W98898   4.703  15.603   1.276
26606W        W98899  19.691  26.659   1.220
26607W        W98900  20.118  42.918   4.665
26608W        W98901  31.031   3.771   4.630
26609W        W98902   3.874   4.388  14.873
26610W        W98903  40.467   4.802  13.379
26611W        W98904  34.982  17.196  11.071
26612W        W98905   8.395  42.291   2.334
26613W        W98906  40.804  12.721   0.912
26614W        W98907  25.160  17.649   1.275
26615W        W98908  40.315  17.125   4.257
26616W        W98909  43.932  41.010   3.244
26617W        W98910  31.099  40.512  13.433
26618W        W98911  18.645  37.934   0.406
26619W        W98912  36.924  13.272  11.937
26620W        W98913  28.594  22.088   0.444
26621W        W98914   7.693   7.846  13.020
26622W        W98915  18.206  27.681  11.565
26623W        W98916  16.761  43.439   1.307
26624W        W98917  24.198   9.848   0.379
26625W        W98918   6.390  42.330   0.434
26626W        W98919   1.391  15.313   0.411
26627W        W98920  17.656  11.767   0.313
26628W        W98921   9.691  20.156   1.345
26629W        W98922  29.483  35.109  14.924
26630W        W98923   0.418  36.963  13.038
26631W        W98924  24.150   1.300  10.457
26632W        W98925  10.334  20.574   3.297
26633W        W98926  20.160  24.194  13.350
26634W        W98927  22.567  22.131  13.431
26635W        W98928  22.505  26.526  13.405
26636W        W98929  12.217  25.030  13.853
26637W        W98930   9.710  30.058  10.422
26638W        W98931   0.843  24.643   3.840
26639W        W98932  14.763  16.316  12.378
26640W        W98933  28.564  37.848  14.278
26641W        W98934  27.941  24.060  10.061
26642W        W98935  43.832  13.810  13.059
26643W        W98936   6.324   6.265   1.850
26644W        W98937  39.497   4.704  12.482
26645W        W98938  35.576  22.550   0.309
26646W        W98939  12.619   2.755   1.835
26647W        W98940  43.436  30.035  11.014
26648W        W98941  24.016  43.421  12.406
26649W        W98942  43.822  10.798  14.498
26650W        W98943  31.560   1.240   1.712
26651W        W98944   8.690  32.403  14.451
26652W        W98945  33.089  29.068  13.343
26653W        W98946  23.652   3.451   1.808
26654W        W98947   7.306   2.456   3.743
26655W        W98948  37.476  13.338   2.784
26656W        W98949  26.978  25.963  14.898
26657W        W98950   0.335   7.355  12.474
26658W        W98951   0.754  21.722   3.361
26659W        W98952  43.473  13.713  10.507
26660W        W98953  26.490  31.088  13.918
26661W        W98954  37.446  32.454  11.559
26662W        W98955  10.327  32.516   1.709
26663W        W98956  19.619  28.501   3.756
26664W        W98957  11.314   7.747   3.780
26665W        W98958  12.152  26.157   3.790
26666W        W98959  28.930  26.196   1.854
26667W        W98960   0.429  39.531  14.955
26668W        W98961   4.942  19.689  13.421
26669W        W98962  30.475   3.918   0.950
26670W        W98963   0.794  39.906   2.796
26671W        W98964  25.150   3.785  10.506
26672W        W98965   8.344  41.294  11.871
26673W        W98966  35.601  33.397   1.871
26674W        W98967  37.860  38.058  10.918
26675W        W98968   2.842  13.158  13.840
26676W        W98969  40.811   9.727   4.722
26677W        W98970  36.940  39.967  12.941
26678W        W98971  41.386  38.550   1.935
26679W        W98972  28.117  14.185  13.427
26680W        W98973  41.880  24.161  13.309
26681W        W98974   5.732   4.886  12.476
26682W        W98975  28.581   2.895   2.791
26683W        W98976   2.457  11.287  13.890
26684W        W98977  30.538  16.715   4.770
26685W        W98978  31.430   3.861   2.190
26686W        W98979  23.705   1.350  13.361
26687W        W98980   0.361  36.443  10.989
26688W        W98981   8.237   0.814  13.054
26689W        W98982   8.328  33.514  12.407
26690W        W98983  17.662  42.847   4.300
26691W        W98984  28.611   1.801  12.920
26692W        W98985  37.510  36.554  11.512
26693W        W98986  33.119   7.698   3.835
26694W        W98987  33.553  14.109   2.674
26695W        W98988  11.372  35.923  12.528
26696W        W98989  12.221  18.663  10.568
26697W        W98990  27.631  33.044   3.810
26698W        W98991  28.136   4.793  11.024
26699W        W98992   7.782   4.850   4.728
26700W        W98993   3.403  43.374   1.755
26701W        W98994  22.112   4.206  10.592
26702W        W98995  42.029  18.273   0.765
26703W        W98996  34.396   4.243  13.041
26704W        W98997  18.696  20.123  11.900
26705W        W98998  40.936  19.285   2.723
26706W        W98999  26.027  16.686  11.957
26707W        W99000  38.444  19.108  12.845
26708W        W99001   7.382   7.213   1.306
26709W        W99002  36.377  30.014   4.707
26710W        W99003  20.708  18.257  10.594
26711W        W99004  40.986  41.991   0.317
26712W        W99005  23.712   9.667   1.212
26713W        W99006  17.604  20.040  10.986
26714W        W99007   5.763  19.269   1.443
26715W        W99008  38.986   8.840   0.412
26716W        W99009  23.693  13.225   0.366
26717W        W99010  41.383  32.052  11.932
26718W        W99011  40.005  36.851   2.672
26719W        W99012  35.415  24.029   3.651
26720W        W99013  11.261  14.103   3.738
26721W        W99014  35.576   7.191   0.744
26722W        W99015  24.615  40.464  13.934
26723W        W99016  34.036  14.336   2.307
26724W        W99017  21.646  19.636   2.308
26725W        W99018  25.993  10.267  13.395
26726W        W99019  36.407  24.153  12.044
26727W        W99020  17.075   5.214  14.338
26728W        W99021  21.600  41.332  14.987
26729W        W99022  16.582  31.408  12.030
26730W        W99023  24.134  10.288   3.170
26731W        W99024  26.139  29.451  12.919
26732W        W99025   1.762  34.946  10.561
26733W        W99026  40.992  43.332   1.270
26734W        W99027  32.069  44.862   0.317
26735W        W99028  27.634  36.989   1.850
26736W        W99029   6.268  44.775  11.125
26737W        W99030   4.312  30.655   2.836
26738W        W99031  26.493  34.890  11.526
26739W        W99032  22.557  15.140   3.837
26740W        W99033  32.931  15.707  14.010
26741W        W99034  34.543   6.680   4.803
26742W        W99035  18.290  35.423  14.286
26743W        W99036  34.000  34.429  11.106
26744W        W99037  10.749   6.230   4.639
26745W        W99038   5.707  11.212   3.740
26746W        W99039  41.531  38.953   0.726
26747W        W99040  10.746   6.820  13.404
26748W        W99041  44.783   6.706   1.394
26749W        W99042  34.465  39.515  11.411
26750W        W99043  38.845  32.046   4.297
26751W        W99044  21.574  23.076  11.547
26752W        W99045  41.501   5.254  13.810
26753W        W99046   1.946  38.976  12.415
26754W        W99047  40.535  27.007   3.762
26755W        W99048  29.633  15.183   4.822
26756W        W99049  42.970  28.063  13.986
26757W        W99050  33.416  38.016  11.980
26758W        W99051  31.610  18.170   0.867
26759W        W99052   0.459   2.906   0.793
26760W        W99053  33.953  26.980  14.783
26761W        W99054   8.243  13.821  14.391
26762W        W99055  30.446  36.385   1.717
26763W        W99056  38.993  44.779   0.749
26764W        W99057  15.800   0.867   1.352
26765W        W99058   5.382  33.931   0.373
26766W        W99059   0.977  18.248  10.544
26767W        W99060   4.855   4.282   1.934
26768W        W99061  36.568   5.719   1.290
26769W        W99062   9.805  19.083   0.873
26770W        W99063   2.325   3.268  10.977
26771W        W99064  25.991  27.157  11.899
26772W        W99065   5.744   1.949   1.921
26773W        W99066  33.060  37.982   4.751
26774W        W99067  19.627   0.285  14.307
26775W        W99068  41.983  16.147   3.187
26776W        W99069  33.466   8.225  11.933
26777W        W99070   9.332  14.229  13.806
26778W        W99071  25.190  43.991  12.434
26779W        W99072  14.333  18.260   0.733
26780W        W99073  20.133   8.221   1.241
26781W        W99074  43.878  42.968   0.441
26782W        W99075   9.773  44.002  13.378
26783W        W99076  42.829  10.664   0.387
26784W        W99077  12.671  11.310   2.840
26785W        W99078  43.838   9.173  13.524
26786W        W99079  34.934   6.896   0.307
26787W        W99080  21.163  40.850   4.836
26788W        W99081  16.120  22.521   0.398
26789W        W99082   3.802  43.997  11.915
26790W        W99083  25.496  22.247  14.334
26791W        W99084  26.628  22.190  12.392
26792W        W99085   2.878  39.914  14.823
26793W        W99086  44.841   4.901   3.853
26794W        W99087  34.914  22.686   4.601
26795W        W99088  30.608  16.670  14.032
26796W        W99089   1.414  39.440  13.808
26797W        W99090  24.715  21.149  14.321
26798W        W99091  12.856  42.985   0.468
26799W        W99092  40.862  43.461   4.631
26800W        W99093  15.322  34.921   4.115
26801W        W99094   3.383  33.985   3.673
26802W        W99095   3.743  35.997   1.795
26803W        W99096  23.540  41.852   3.169
26804W        W99097  42.019  17.143   0.454
26805W        W99098  21.201  16.740  12.943
26806W        W99099  30.150  41.382  12.398
26807W        W99100  30.045   1.392   4.754
26808W        W99101   7.336  25.690   3.223
26809W        W99102  15.117  27.050   3.727
26810W        W99103   8.171  21.152  12.482
26811W        W99104  20.737  23.200  10.931
26812W        W99105  42.281   5.385  14.456
26813W        W99106  29.449  11.183  10.447
26814W        W99107  40.831  31.606  13.492
26815W        W99108  23.624   2.808   2.335
26816W        W99109  10.192  22.060  13.988
26817W        W99110  18.605  12.216   3.292
26818W        W99111  37.084  23.152   4.224
26819W        W99112  23.236  10.745   1.889
26820W        W99113   3.239  14.747  14.949
26821W        W99114  13.664  15.735  10.888
26822W        W99115   1.903  27.446   2.220
26823W        W99116  40.329  12.356  12.975
26824W        W99117   4.703  17.152   3.192
26825W        W99118  13.221  19.542   1.339
26826W        W99119   0.762   1.880   4.316
26827W        W99120   6.866  26.701   1.707
26828W        W99121  23.998   1.327  10.926
26829W        W99122  10.222  23.127   3.327
26830W        W99123  40.036  14.267   0.813
26831W        W99124   6.329  34.591   1.290
26832W        W99125  20.040   7.674   1.276
26833W        W99126  39.348   3.870   4.784
26834W        W99127  43.983   1.441  13.481
26835W        W99128  29.034  34.481  11.973
26836W        W99129  14.273  26.515   3.280
26837W        W99130   2.951  30.652   0.359
26838W        W99131  37.499  42.851  11.376
26839W        W99132  36.014  42.427  14.021
26840W        W99133  10.730  35.034   1.327
26841W        W99134  18.086  29.526   3.147
26842W        W99135  39.336  22.737  10.616
26843W        W99136  36.913  39.921   1.759
26844W        W99137  36.998  23.634   0.445
26845W        W99138   3.390  30.418   3.345
26846W        W99139  34.047  11.687   4.289
26847W        W99140   8.724  26.002  10.504
26848W        W99141  44.287  31.047   4.196
26849W        W99142  11.334  42.338   0.874
26850W        W99143  28.458  18.250  10.457
26851W        W99144   3.306  29.449  12.465
26852W        W99145  14.743  23.093  10.971
26853W        W99146  32.619  35.532  10.470
26854W        W99147  41.455  38.889  12.995
26855W        W99148  12.189  17.785   4.242
26856W        W99149   7.312   3.860   0.308
26857W        W99150  10.715  41.301   2.340
26858W        W99151  30.032  19.776  12.921
26859W        W99152  16.311  27.527   2.840
26860W        W99153   3.859   0.747  10.622
26861W        W99154  36.462  36.515   1.328
26862W        W99155  30.428  15.705   3.811
26863W        W99156   1.954  22.637  10.423
26864W        W99157  36.984  31.430   3.757
26865W        W99158  10.157  16.185  11.397
26866W        W99159  12.237  27.041   3.686
26867W        W99160  44.439  26.646   2.774
26868W        W99161  34.526  24.561   2.220
26869W        W99162  11.290  26.655   1.797
26870W        W99163   7.249  15.135  11.973
26871W        W99164   1.299   4.207   4.343
26872W        W99165  23.584  27.632  14.994
26873W        W99166  44.828  35.433   1.880
26874W        W99167  39.357   7.874   2.868
26875W        W99168  31.047  12.330  12.999
26876W        W99169  32.077  36.004  11.112
26877W        W99170   6.350  34.946   1.247
26878W        W99171   3.954  27.621   1.873
26879W        W99172   1.428  40.464   4.137
26880W        W99173  34.375  36.427   1.351
26881W        W99174  32.575  24.190  11.508
26882W        W99175  14.329  42.377   0.338
26883W        W99176  19.064  36.098   4.702
26884W        W99177   4.235  36.359  11.540
26885W        W99178  27.110  34.506   3.357
26886W        W99179  10.683  24.137  11.596
26887W        W99180   0.491  32.607   2.769
26888W        W99181  20.212   9.376   3.833
26889W        W99182  10.162  18.755  11.446
26890W        W99183  22.131  34.513  13.905
26891W        W99184  14.132  14.720  11.400
26892W        W99185  44.481  37.453  11.539
26893W        W99186  24.532  26.468  13.878
26894W        W99187  42.966   1.842  14.297
26895W        W99188  42.466   4.424   2.402
26896W        W99189  31.107  18.077   2.369
26897W        W99190  24.087  26.701   0.850
26898W        W99191  11.752   8.729   1.799
26899W        W99192  41.956  39.977  11.097
26900W        W99193  26.056  34.470   2.902
26901W        W99194   0.812  30.973   1.217
26902W        W99195  42.936  26.174   3.304
26903W        W99196   6.679  26.972  12.024
26904W        W99197  36.862  35.042   4.220
26905W        W99198  36.857  36.988  13.904
26906W        W99199  24.603   9.732   3.218
26907W        W99200   7.802   4.288   0.815
26908W        W99201  36.409   0.937  13.335
26909W        W99202  32.392  12.799   3.857
26910W        W99203  36.550  14.793   0.949
26911W        W99204  35.594  25.665  11.516
26912W        W99205  11.656  34.973   0.882
26913W        W99206  12.707  18.787  12.417
26914W        W99207  24.594  35.553   4.641
26915W        W99208   6.917  36.050  12.985
26916W        W99209   0.780  23.647  11.464
26917W        W99210  27.503  21.517   4.138
26918W        W99211   8.836  16.175   3.386
26919W        W99212  10.196  18.267  11.384
26920W        W99213  37.839  12.144   0.737
26921W        W99214  28.560  31.631   4.810
26922W        W99215   0.359  33.477  14.364
26923W        W99216  37.029   7.171   2.283
26924W        W99217  34.523  23.598   2.259
26925W        W99218  37.433   3.423  11.571
26926W        W99219  17.560  38.486   1.842
26927W        W99220  17.666  31.052   3.321
26928W        W99221  11.254   7.346  13.500
26929W        W99222  18.286  32.032   4.244
26930W        W99223  39.510  18.649  13.419
26931W        W99224  28.504  40.952  12.951
26932W        W99225  25.526   7.343   3.734
26933W        W99226  25.127  27.975  12.522
26934W        W99227   4.241  28.631   1.232
26935W        W99228  24.056  36.550   2.235
26936W        W99229  41.995  29.175   2.258
26937W        W99230   2.840  41.873   3.274
26938W        W99231  19.663  26.586  12.913
26939W        W99232  41.884  40.007  11.384
26940W        W99233  27.965  20.258   0.966
26941W        W99234  33.485  16.217  13.822
26942W        W99235  41.417  26.155  14.759
26943W        W99236  37.833  23.659  12.838
26944W        W99237  17.763  18.774   1.375
26945W        W99238   0.248  41.813  13.992
26946W        W99239  34.518   6.285  13.826
26947W        W99240  40.985   5.373  11.983
26948W        W99241   5.439  40.826  13.937
26949W        W99242  23.120  22.501   0.347
26950W        W99243   3.902   3.220  13.535
26951W        W99244  33.920  11.699   1.697
26952W        W99245   3.780  37.532   0.938
26953W        W99246  38.946  18.649  12.827
26954W        W99247  30.565   1.739  10.448
26955W        W99248   7.725  13.230  13.391
26956W        W99249  10.194  32.601  14.403
26957W        W99250  12.635  30.514   4.637
26958W        W99251  23.171  20.549   3.200
26959W        W99252  27.669  12.779   0.940
26960W        W99253  29.090  40.370   4.230
26961W        W99254   3.732  17.162  13.380
26962W        W99255  42.837  20.222  14.834
26963W        W99256  28.956  15.313   2.889
26964W        W99257   9.238  31.606  12.860
26965W        W99258  38.474  38.043   0.350
26966W        W99259  24.679   6.374  14.908
26967W        W99260  16.169  36.854  14.769
26968W        W99261  38.041   5.709   2.311
26969W        W99262  25.962   4.381  11.876
26970W        W99263  22.031   7.305   3.682
26971W        W99264  13.689  15.767   0.788
26972W        W99265  26.995  32.953   3.719
26973W        W99266   6.363  22.698   0.752
26974W        W99267  18.070  34.090   5.637
26975W        W99268  16.152  41.920   4.153
26976W        W99269  42.321  24.194   4.147
26977W        W99270   7.676   3.222  14.455
26978W        W99271  44.456  11.127   1.776
26979W        W99272  34.914  20.551   2.289
26980W        W99273  24.141  36.588  14.838
26981W        W99274  12.786  44.284  14.776
26982W        W99275  39.430  40.405  13.312
26983W        W99276  31.530  20.642  12.991
26984W        W99277  44.919  40.918  14.944
26985W        W99278   1.312  13.199  11.961
26986W        W99279  44.337   7.828   2.382
26987W        W99280  43.513   7.681   3.666
26988W        W99281   7.245   3.949   0.773
26989W        W99282   5.706   1.454  14.505
26990W        W99283  37.488  42.929   0.908
26991W        W99284  29.034  20.670  13.031
26992W        W99285  14.108  43.011   1.384
26993W        W99286  41.315  34.498   2.372
26994W        W99287  15.689  33.888   0.774
26995W        W99288  16.129  29.979  14.492
26996W        W99289  30.100  23.603  11.530
26997W        W99290  35.013   1.480   3.296
26998W        W99291  25.647  28.510  13.793
26999W        W99292  39.030  18.573   4.805
27000W        W99293  39.396  23.536   4.814
27001W        W99294   5.381  15.586  12.526
27002W        W99295  26.486  10.852  11.977
27003W        W99296  10.209  39.968  11.912
27004W        W99297  42.850  44.347  14.921
27005W        W99298   1.423  29.635  12.064
27006W        W99299  21.570  14.787  10.463
27007W        W99300   5.770  23.135   3.173
27008W        W99301  22.133  22.103  10.417
27009W        W99302  27.589  26.123   1.302
27010W        W99303  33.553  24.604   4.680
27011W        W99304  21.636  30.551   2.384
27012W        W99305  18.552   1.771   1.928
27013W        W99306  16.807  20.166   3.653
27014W        W99307  43.899  24.225   2.401
27015W        W99308   7.260  34.893  12.340
27016W        W99309  34.021  15.611   2.689
27017W        W99310  26.484  29.065  10.430
27018W        W99311  28.984  18.178  12.341
27019W        W99312  15.232  35.013  12.064
27020W        W99313  30.447  41.973   2.207
27021W        W99314  22.070  16.268  10.638
27022W        W99315  41.419  36.351   0.409
27023W        W99316  22.681   2.470   5.147
27024W        W99317  40.828  15.814  11.117
27025W        W99318   6.890  10.728  14.953
27026W        W99319   0.290  42.388  13.513
27027W        W99320  15.259  34.880   0.274
27028W        W99321  24.148  15.618  10.010
27029W        W99322  39.033  10.197  14.969
27030W        W99323  20.668  32.891   3.149
27031W        W99324   6.684   6.729   1.869
27032W        W99325   2.828  19.263   4.658
27033W        W99326  41.867   0.935  14.411
27034W        W99327  10.230  44.974  14.320
27035W        W99328  26.075  32.130  12.528
27036W        W99329  16.276  44.968  12.855
27037W        W99330  26.612  26.570   5.175
27038W        W99331  16.812  22.161   4.821
27039W        W99332  30.496   0.837  12.937
27040W        W99333  34.099  12.637  13.868
27041W        W99334  36.349  16.319  10.929
27042W        W99335  14.751  28.508  12.913
27043W        W99336  35.067  38.963   3.809
27044W        W99337  38.463  19.048  14.919
27045W        W99338  31.117  41.848  14.320
27046W        W99339  16.197  25.122   3.851
27047W        W99340  13.746   3.762   4.609
27048W        W99341  43.863  32.982  12.844
27049W        W99342  10.814  27.141  13.446
27050W        W99343  25.649  24.184   2.279
27051W        W99344  42.787  18.125  13.983
27052W        W99345  35.550   9.245   0.946
27053W        W99346   4.804  23.051   3.186
27054W        W99347  25.528  15.116  11.856
27055W        W99348  21.095  12.181   4.352
27056W        W99349  18.751  30.486  12.891
27057W        W99350  33.411   6.415  13.051
27058W        W99351  40.839  29.491  14.474
27059W        W99352   3.844  24.614   1.334
27060W        W99353  41.840   1.413  12.828
27061W        W99354   1.335  43.938   3.812
27062W        W99355  27.567  17.712   2.684
27063W        W99356  33.004  25.030   2.701
27064W        W99357  14.239   0.486   2.858
27065W        W99358  33.907  40.307   3.743
27066W        W99359  35.390   8.780  13.469
27067W        W99360  27.018  26.614  13.845
27068W        W99361  32.610   3.335  12.829
27069W        W99362  27.592   6.334  10.981
27070W        W99363   2.439  17.299   1.713
27071W        W99364  36.898  21.128  13.968
27072W        W99365  13.802  13.694   1.226
27073W        W99366   0.914   6.899  12.580
27074W        W99367   0.958  34.985   2.879
27075W        W99368   7.871  41.882  12.936
27076W        W99369  17.191  29.128   2.225
27077W        W99370  27.144  21.229   0.781
27078W        W99371  34.510   4.791  11.459
27079W        W99372  17.606  20.081  13.949
27080W        W99373  21.206  30.456  13.431
27081W        W99374  15.149   4.371   4.225
27082W        W99375   8.266  16.291  14.956
27083W        W99376  42.409  34.396   2.197
27084W        W99377  44.848  21.183   4.690
27085W        W99378  16.095   5.874   1.322
27086W        W99379  10.745  27.464   2.771
27087W        W99380  17.174   9.275  14.026
27088W        W99381   1.765  26.594  13.381
27089W        W99382  40.548  19.202  13.913
27090W        W99383  17.197   6.365   0.360
27091W        W99384  24.553  18.643  10.978
27092W        W99385  29.079   5.817   3.800
27093W        W99386   0.894  27.059   3.630
27094W        W99387  10.229  11.315  13.403
27095W        W99388  43.999  27.514  11.045
27096W        W99389   4.329   2.789  13.810
27097W        W99390  26.643   9.301   0.305
27098W        W99391  10.823  21.178   2.843
27099W        W99392  24.219  29.095   5.271
27100W        W99393   1.460  31.032   3.362
27101W        W99394  11.219  20.762  10.937
27102W        W99395   8.187  38.406   4.223
27103W        W99396   9.307  17.122  13.447
27104W        W99397  36.536  43.392   2.362
27105W        W99398  27.154  16.678  13.372
27106W        W99399  22.708   7.677  13.321
27107W        W99400  34.370  32.134  13.522
27108W        W99401  26.997   7.308  12.842
27109W        W99402   1.250   6.914   1.250
27110W        W99403   2.380  37.073  13.545
27111W        W99404  23.519  36.855  14.846
27112W        W99405  11.226  32.439   4.684
27113W        W99406  31.435  19.541  13.328
27114W        W99407  19.777  42.351  11.493
27115W        W99408   1.907  15.273  12.081
27116W        W99409  12.705  21.577   2.838
27117W        W99410  30.069  26.038   3.308
27118W        W99411   9.256  20.229  12.936
27119W        W99412  19.536  43.516  14.818
27120W        W99413  14.121  42.385  14.418
27121W        W99414  20.083   6.774  12.961
27122W        W99415   1.935  27.198   4.121
27123W        W99416  10.775  40.840  14.345
27124W        W99417   1.343  42.980   4.745
27125W        W99418  34.023  17.183   0.431
27126W        W99419  11.845  33.424   3.649
27127W        W99420  24.686  44.962  12.858
27128W        W99421   2.786  20.205  11.924
27129W        W99422  39.978  29.081   0.272
27130W        W99423  43.768  30.068   1.340
27131W        W99424  24.074  29.956  11.484
27132W        W99425  17.200  22.520   9.460
27133W        W99426   9.327  41.319   3.854
27134W        W99427  16.090  26.604  10.974
27135W        W99428  33.417  42.312   3.722
27136W        W99429  12.359   3.372  13.947
27137W        W99430   0.391  10.174  13.812
27138W        W99431   2.806   4.803  12.012
27139W        W99432  27.514  35.532  14.867
27140W        W99433  22.562  30.444  12.010
27141W        W99434   1.292  11.329  10.984
27142W        W99435  29.593  29.164  14.360
27143W        W99436  32.979   4.912   1.818
27144W        W99437  23.127  38.967   4.752
27145W        W99438  21.754  34.972   4.826
27146W        W99439  35.001  31.518  12.524
27147W        W99440  11.808  36.905   1.429
27148W        W99441  24.100  10.312  12.075
27149W        W99442  40.375  20.618   4.645
27150W        W99443   2.787  30.969   4.746
27151W        W99444   0.483   0.430  11.857
27152W        W99445  30.123  42.980   1.373
27153W        W99446  33.390   7.679   5.197
27154W        W99447  19.225   2.257   4.612
27155W        W99448  31.956  23.548   1.431
27156W        W99449  30.014  18.271   2.682
27157W        W99450  10.678  11.334   1.359
27158W        W99451  24.586  17.608   2.272
27159W        W99452  14.674  39.999  12.373
27160W        W99453  13.685   3.347   0.778
27161W        W99454  14.707  15.228   0.739
27162W        W99455  36.411  10.862   0.426
27163W        W99456   3.414   3.389   2.325
27164W        W99457  28.150  21.673  14.814
27165W        W99458   7.176   8.899   5.216
27166W        W99459   9.171   0.426  10.912
27167W        W99460  28.474  15.811   2.675
27168W        W99461  30.466  30.467   1.386
27169W        W99462   8.780   6.195   2.876
27170W        W99463  32.432  36.928  11.561
27171W        W99464  37.416  13.673   0.254
27172W        W99465  23.614   4.729   3.695
27173W        W99466  30.013  16.074  10.978
27174W        W99467  33.958  43.314  14.319
27175W        W99468  16.692   3.880  12.507
27176W        W99469  34.952  39.956   0.272
27177W        W99470  21.029   7.808  13.532
27178W        W99471  31.501  14.753   4.669
27179W        W99472  32.032  31.546  13.425
27180W        W99473  34.954  27.562   0.461
27181W        W99474  27.001  32.621  14.029
27182W        W99475  41.822  19.609  13.805
27183W        W99476  19.121  10.283   3.654
27184W        W99477  35.534  36.550  14.455
27185W        W99478  28.441  29.615   0.909
27186W        W99479  16.642  40.427   1.429
27187W        W99480  28.139   1.340  12.490
27188W        W99481  25.515  37.442  13.546
27189W        W99482  17.614  29.543  14.917
27190W        W99483   7.727  14.720  13.512
27191W        W99484  28.088  30.930   2.283
27192W        W99485   9.878  15.769  13.342
27193W        W99486   6.870  29.936  13.425
27194W        W99487   7.827   1.386   1.746
27195W        W99488  17.746  35.445  14.824
27196W        W99489  34.014  21.158  13.548
27197W        W99490  29.058   2.315   3.320
27198W        W99491  27.126  25.542   2.818
27199W        W99492   3.221  36.590  14.421
27200W        W99493  23.111   9.871  11.404
27201W        W99494  41.536  26.170  12.481
27202W        W99495  21.697  27.542  14.973
27203W        W99496   1.962   0.345  12.995
27204W        W99497  34.478  44.799   4.167
27205W        W99498  29.164   7.685   2.882
27206W        W99499  27.014  40.499  14.787
27207W        W99500  20.044  22.218  12.860
27208W        W99501  22.042  42.923   2.720
27209W        W99502  23.538  22.134   2.664
27210W        W99503  25.070   0.945   1.888
27211W        W99504  11.665  10.276  11.519
27212W        W99505  41.827   6.383  14.407
27213W        W99506  36.873  42.451   1.849
27214W        W99507   6.785  32.003   9.993
27215W        W99508  44.483  43.878  10.630
27216W        W99509  11.341  11.364  12.496
27217W        W99510   1.289  16.617  12.065
27218W        W99511  35.867  26.692   2.750
27219W        W99512   7.236   7.828  13.332
27220W        W99513  34.934  22.549  13.980
27221W        W99514  11.292  30.996  12.054
27222W        W99515  23.051  12.617   2.892
27223W        W99516  33.621  41.876  10.901
27224W        W99517  22.649  27.453  10.542
27225W        W99518  44.287  43.375  13.875
27226W        W99519  18.753  17.280  13.883
27227W        W99520  34.904   3.901   4.315
27228W        W99521  24.535   4.306  13.457
27229W        W99522  20.746  43.440  12.878
27230W        W99523  27.152   9.838   2.666
27231W        W99524   5.868  22.176  11.546
27232W        W99525  18.268  11.155   1.421
27233W        W99526  33.625  30.146  12.375
27234W        W99527  13.692   3.777  11.538
27235W        W99528   8.270   3.430  14.856
27236W        W99529  27.189   0.336   2.795
27237W        W99530  17.290  36.426   2.196
27238W        W99531  13.254  40.054   0.284
27239W        W99532  33.980  25.645   0.479
27240W        W99533  36.092  17.208  14.396
27241W        W99534   6.359  18.783  13.060
27242W        W99535  32.925   9.156   3.832
27243W        W99536  27.482   9.706   0.791
27244W        W99537   6.712  31.931   5.113
27245W        W99538  37.845  30.000  13.028
27246W        W99539  18.629  38.460   2.332
27247W        W99540  37.929  34.939   3.302
27248W        W99541  30.135  24.051   0.340
27249W        W99542  18.192  23.634   2.418
27250W        W99543   2.409  12.852  10.962
27251W        W99544  22.539  16.584   3.650
27252W        W99545   1.264  22.146   0.919
27253W        W99546  20.686  35.887  14.391
27254W        W99547  44.859  22.663   0.473
27255W        W99548   6.224  28.583   0.757
27256W        W99549  24.015  22.704  10.018
27257W        W99550  32.078  37.411  13.538
27258W        W99551  35.905  12.787  13.420
27259W        W99552  28.579  15.313   3.269
27260W        W99553   4.707  21.244   5.302
27261W        W99554  13.333   2.911  12.520
27262W        W99555  32.434  40.352  13.474
27263W        W99556  36.075  16.295  13.344
27264W        W99557  39.005  13.128   2.881
27265W        W99558  26.193  20.229  12.063
27266W        W99559  34.974  41.997   1.225
27267W        W99560  15.317  40.842   4.309
27268W        W99561  22.550  33.504   5.292
27269W        W99562  17.582   8.263  14.288
27270W        W99563  12.145  28.593   0.870
27271W        W99564  40.930  18.716  12.522
27272W        W99565  13.130  18.614   4.203
27273W        W99566  23.727  13.327   4.300
27274W        W99567  18.102   5.382   4.251
27275W        W99568  25.997  42.023   4.347
27276W        W99569   5.848  42.836  12.462
27277W        W99570  29.001  42.873   2.893
27278W        W99571   8.383   6.375   3.663
27279W        W99572  32.446   3.796   4.734
27280W        W99573  20.582   9.762  13.345
27281W        W99574   9.777  12.642   2.345
27282W        W99575  18.560  11.776  11.040
27283W        W99576  26.142   7.179  14.294
27284W        W99577  41.838  12.194   1.864
27285W        W99578  39.811   4.782   3.810
27286W        W99579  28.507   1.860   2.721
27287W        W99580  21.629  23.696  11.922
27288W        W99581   8.296   2.933  12.429
27289W        W99582   6.865  42.295   1.302
27290W        W99583   3.760   5.330  12.360
27291W        W99584  18.588  26.549   1.757
27292W        W99585  15.234   9.343   1.261
27293W        W99586   3.868  21.113   2.260
27294W        W99587  13.260  33.105  14.889
27295W        W99588  39.343  10.347  13.832
27296W        W99589  27.189  32.468   2.729
27297W        W99590  43.423  27.453   2.343
27298W        W99591  43.454   3.739  11.451
27299W        W99592  37.486  36.514   3.768
27300W        W99593  11.238  40.454   4.215
27301W        W99594  32.013  35.046   0.466
27302W        W99595  10.352  10.337   0.345
27303W        W99596  37.984  41.403  12.023
27304W        W99597  19.685  15.782   2.264
27305W        W99598  13.243  31.586  13.977
27306W        W99599  40.453   5.722   0.327
27307W        W99600  12.707   4.251  10.424
27308W        W99601  25.045  40.913   1.859
27309W        W99602  12.790   4.724  14.950
27310W        W99603  31.994  43.321   0.804
27311W        W99604  17.781  17.567   4.281
27312W        W99605  27.972   8.892   5.217
27313W        W99606   6.790  23.665   1.793
27314W        W99607  10.195  20.198   0.882
27315W        W99608  36.484  29.965   2.355
27316W        W99609  37.032   8.717  13.410
27317W        W99610  41.013  17.086   2.361
27318W        W99611   6.339   9.703  13.528
27319W        W99612  18.093  14.759   2.677
27320W        W99613  36.387  40.840  14.476
27321W        W99614  27.539  10.670  12.971
27322W        W99615  24.657   9.362   4.314
27323W        W99616  39.364  32.450  11.893
27324W        W99617  25.972  17.305  10.452
27325W        W99618  23.072  43.390  10.490
27326W        W99619  11.145  22.212  14.955
27327W        W99620  15.194  19.711  13.467
27328W        W99621  21.135  37.492  13.330
27329W        W99622  23.531  23.041   4.340
27330W        W99623  14.241  40.988  11.083
27331W        W99624   2.290   8.677  14.852
27332W        W99625  17.684  33.487   0.851
27333W        W99626   3.385  24.989  11.501
27334W        W99627  34.028  28.632   0.967
27335W        W99628  34.110   2.309   4.283
27336W        W99629  22.073  40.433  11.582
27337W        W99630  21.603  21.526  13.806
27338W        W99631  35.029   0.817  14.307
27339W        W99632  44.270   9.644  11.506
27340W        W99633  28.095  24.215  13.308
27341W        W99634  40.525  44.980   0.906
27342W        W99635   5.860   0.780  11.389
27343W        W99636  41.860  19.710   1.806
27344W        W99637  33.555  35.583  11.602
27345W        W99638  32.434  15.136  11.422
27346W        W99639   2.835  34.531   0.436
27347W        W99640  32.003  40.494   5.092
27348W        W99641  37.518  32.424   4.688
27349W        W99642  29.946   2.456  12.026
27350W        W99643  24.997  43.393  10.560
27351W        W99644  34.408  29.019  14.370
27352W        W99645  26.162  17.278   3.703
27353W        W99646  13.761  43.859  10.527
27354W        W99647   3.868  28.546  10.605
27355W        W99648  39.005  43.882  11.052
27356W        W99649  26.091  17.730   2.411
27357W        W99650  43.813  10.138   4.808
27358W        W99651  33.613  20.590  11.499
27359W        W99652  35.889  37.082   2.400
27360W        W99653  22.588  44.495   1.347
27361W        W99654  16.096  11.348   3.314
27362W        W99655  42.471  41.528  10.611
27363W        W99656   1.483  15.680   0.416
27364W        W99657  36.048   7.393  13.380
27365W        W99658  19.170  43.296   2.752
27366W        W99659   2.844  36.421   2.753
27367W        W99660  22.095  20.149  12.359
27368W        W99661  37.537  19.644  12.848
27369W        W99662  22.648  13.296  11.925
27370W        W99663  16.606  37.914   4.796
27371W        W99664   1.830   6.262  10.613
27372W        W99665  27.518  21.615  14.771
27373W        W99666  29.541  12.298   1.268
27374W        W99667   4.928  33.507  13.375
27375W        W99668  40.881  22.569   1.820
27376W        W99669  21.703   9.395   4.225
27377W        W99670   9.726   5.394  10.602
27378W        W99671   0.749  35.935   5.120
27379W        W99672  20.728  14.197   0.291
27380W        W99673  41.509  36.090  13.875
27381W        W99674  20.117   4.720   1.743
27382W        W99675  21.677  19.124   2.675
27383W        W99676   0.468   2.358   4.656
27384W        W99677   9.336  42.374  11.940
27385W        W99678  33.098  21.757   4.772
27386W        W99679  20.181  25.678   0.759
27387W        W99680  22.578  29.941   3.860
27388W        W99681  11.203   6.859   1.241
27389W        W99682   2.813  29.076  14.030
27390W        W99683  26.978   4.750  14.393
27391W        W99684  43.909  11.766   1.212
27392W        W99685  27.557  21.064   4.344
27393W        W99686  12.828   4.251   3.681
27394W        W99687  13.304  30.997   2.676
27395W        W99688  21.249  30.959   3.357
27396W        W99689   6.412   2.950  14.390
27397W        W99690  19.731  34.474   0.476
27398W        W99691   1.798  18.087  11.411
27399W        W99692  34.393   7.335  12.407
27400W        W99693   7.816  23.202   3.158
27401W        W99694  29.440  32.135  14.462
27402W        W99695  21.749  33.447  11.011
27403W        W99696  21.218  34.549  13.052
27404W        W99697  42.834  31.015   1.254
27405W        W99698  31.634  21.044  13.409
27406W        W99699  25.064  22.684   0.259
27407W        W99700   2.434   9.239   4.297
27408W        W99701  40.842   5.381   4.353
27409W        W99702  43.971  10.810  12.492
27410W        W99703   8.875  40.889   1.415
27411W        W99704   3.817   8.164  12.014
27412W        W99705  31.036  23.657   4.834
27413W        W99706  22.741  37.050   3.199
27414W        W99707   9.871  29.483   4.128
27415W        W99708  33.034  25.494  14.380
27416W        W99709  25.082  11.746   1.388
27417W        W99710  40.854   0.966  14.423
27418W        W99711   5.373  43.407  12.033
27419W        W99712  23.066  23.581   1.328
27420W        W99713  44.010  43.485   2.755
27421W        W99714  37.348   3.313   1.811
27422W        W99715   9.264   6.217  14.388
27423W        W99716  42.925   8.301  12.077
27424W        W99717  21.523  10.300  11.070
27425W        W99718  37.489  11.319  14.324
27426W        W99719   3.255   4.410  14.369
27427W        W99720   2.452  21.143  13.437
27428W        W99721  29.527  15.218  11.073
27429W        W99722  29.026  21.604  14.851
27430W        W99723  25.468  27.160  11.605
27431W        W99724  10.803   5.842  14.390
27432W        W99725  24.208  38.401   3.684
27433W        W99726  36.453   1.368  10.419
27434W        W99727   3.372  34.065   0.441
27435W        W99728  18.663   7.276   1.386
27436W        W99729  12.334  33.507  13.398
27437W        W99730  10.801  15.605  12.572
27438W        W99731   7.787   4.710   0.308
27439W        W99732  29.617  37.987   0.767
27440W        W99733  28.632  34.512   4.761
27441W        W99734  37.340   1.975   3.195
27442W        W99735  30.046  18.699  13.026
27443W        W99736   5.851  36.048  12.434
27444W        W99737  43.916  18.591  14.994
27445W        W99738  44.306  31.943   3.813
27446W        W99739  25.029  29.446   2.896
27447W        W99740  20.083  36.097   4.259
27448W        W99741  26.175   1.921   4.781
27449W        W99742  30.426   8.173   9.508
27450W        W99743  12.687   2.776   1.417
27451W        W99744  41.942   0.882  10.152
27452W        W99745   0.286  21.543  12.552
27453W        W99746  40.510   0.313  14.010
27454W        W99747  33.502  15.646   1.785
27455W        W99748  23.197  37.845   1.752
27456W        W99749  41.891   0.833  10.522
27457W        W99750  10.739  29.472  12.894
27458W        W99751  34.459  24.203   1.400
27459W        W99752  32.043  24.564  13.888
27460W        W99753  21.600   3.840  10.598
27461W        W99754  16.257  11.141  13.333
27462W        W99755   6.876  36.096   3.164
27463W        W99756  41.838  23.700   5.293
27464W        W99757  18.128  30.944  10.149
27465W        W99758  43.306  16.291   2.863
27466W        W99759  35.915  12.645  14.917
27467W        W99760  36.405  15.203   1.765
27468W        W99761  40.437  24.566  11.377
27469W        W99762  30.488  33.937  14.846
27470W        W99763  20.043  17.680   1.220
27471W        W99764  44.454  32.520   1.268
27472W        W99765  38.540  26.478  14.397
27473W        W99766  23.047  13.121  11.087
27474W        W99767  10.321  23.057   0.331
27475W        W99768  13.236  18.750   0.923
27476W        W99769  13.135  14.173  12.476
27477W        W99770  10.854  42.333   3.712
27478W        W99771  38.960  20.131  13.894
27479W        W99772  13.333  22.250  10.439
27480W        W99773  40.352  15.220  14.399
27481W        W99774  34.873  28.592   0.792
27482W        W99775   1.842   6.834   0.846
27483W        W99776  30.150   3.258   3.376
27484W        W99777  36.048  20.651  13.917
27485W        W99778   0.889  36.050   1.332
27486W        W99779  25.539  39.541   2.893
27487W        W99780  35.971  34.437  12.002
27488W        W99781  14.818  21.141  10.087
27489W        W99782  31.510  25.112   0.260
27490W        W99783  38.914   8.741   5.309
27491W        W99784  43.823  36.372  12.900
27492W        W99785   6.867   6.279  13.442
27493W        W99786   0.321  10.778   4.315
27494W        W99787   6.297  38.485  12.830
27495W        W99788  25.999   6.330   3.654
27496W        W99789  42.527   0.862  14.789
27497W        W99790  10.770   9.754   0.250
27498W        W99791   1.865   5.720  14.924
27499W        W99792  38.877  31.124  13.838
27500W        W99793  38.538  22.056  11.474
27501W        W99794  23.079   7.194  11.945
27502W        W99795  43.982   8.743  13.375
27503W        W99796  13.261  19.631  14.451
27504W        W99797   3.232  41.312  11.066
27505W        W99798  19.605  44.867  14.824
27506W        W99799   8.876  42.293  10.972
27507W        W99800   0.801  19.680  11.422
27508W        W99801  32.072  41.306  12.095
27509W        W99802  33.574  13.179  12.490
27510W        W99803   0.776   2.883  11.073
27511W        W99804  39.862  39.899  10.612
27512W        W99805  27.061  19.180  14.482
27513W        W99806  35.452  26.995   3.687
27514W        W99807  20.264  30.914  11.112
27515W        W99808  19.665  34.884  11.899
27516W        W99809   9.390  38.568   1.695
27517W        W99810  22.247  38.427  14.003
27518W        W99811  40.954  44.914   3.325
27519W        W99812  24.049  26.666   3.783
27520W        W99813  20.049  27.035   0.390
27521W        W99814  35.574  29.066  10.554
27522W        W99815   5.827  36.903  12.908
27523W        W99816  39.846  42.342   2.350
27524W        W99817  19.188  35.011  12.495
27525W        W99818  18.642  16.778   1.720
27526W        W99819   9.716  26.004  11.465
27527W        W99820   2.880  14.696   3.832
27528W        W99821  33.994   9.357  14.428
27529W        W99822  36.949  24.583  10.918
27530W        W99823  22.687  21.626  11.591
27531W        W99824   0.755  23.190  11.546
27532W        W99825  38.436  23.639  10.596
27533W        W99826  31.408  44.384  14.945
27534W        W99827  18.166  17.660   3.753
27535W        W99828  35.098  24.987   0.273
27536W        W99829  36.994   7.208  12.453
27537W        W99830  14.276  12.711  13.839
27538W        W99831  24.707   9.305  11.885
27539W        W99832   1.318  30.948  11.083
27540W        W99833  41.355  43.908  12.835
27541W        W99834  21.223  33.957   0.251
27542W        W99835  28.969  15.248  11.891
27543W        W99836  20.053  36.377  14.822
27544W        W99837  20.181  10.642  13.912
27545W        W99838  37.058  41.911   3.777
27546W        W99839  44.941  38.837   3.336
27547W        W99840  24.553  16.590  11.873
27548W        W99841   4.781   2.256  11.971
27549W        W99842  36.373  11.285  14.950
27550W        W99843  21.592   7.754   0.326
27551W        W99844  44.766  44.825  11.554
27552W        W99845  39.413  21.138  11.034
27553W        W99846  25.601  21.594   0.784
27554W        W99847   7.667   9.774  14.773
27555W        W99848  21.607  20.041  12.494
27556W        W99849  34.052  30.439  10.467
27557W        W99850  38.388  10.762   2.288
27558W        W99851  20.761  10.634  12.403
27559W        W99852   5.840  38.917  14.789
27560W        W99853   8.360  16.126  11.456
27561W        W99854  43.826  18.219   2.800
27562W        W99855   5.705  42.415   4.719
27563W        W99856   6.366  13.123   0.856
27564W        W99857  19.583   9.264  13.477
27565W        W99858  19.119  26.205   4.627
27566W        W99859   8.830  29.036  11.552
27567W        W99860  43.296  33.095   3.816
27568W        W99861  43.812  11.180   2.324
27569W        W99862   0.938  16.076   3.829
27570W        W99863  42.899  38.903   1.717
27571W        W99864  12.120  24.112  13.430
27572W        W99865  36.875  27.159  13.452
27573W        W99866  13.608  16.091  13.352
27574W        W99867   6.275   3.222   9.998
27575W        W99868   7.377  17.667   0.395
27576W        W99869  15.690  16.119  10.502
27577W        W99870  23.640  38.563  14.017
27578W        W99871   7.690  37.453   3.283
27579W        W99872   3.451  29.524   4.709
27580W        W99873  11.347   2.376   4.294
27581W        W99874  19.181  11.175  10.944
27582W        W99875  44.379  37.846  13.027
27583W        W99876   4.815   3.867  13.309
27584W        W99877   2.417  31.130  14.486
27585W        W99878  26.144  23.613  13.045
27586W        W99879  37.956  40.519   4.656
27587W        W99880  18.050  42.841  10.458
27588W        W99881  27.658  36.461  14.009
27589W        W99882  13.701   8.659  12.871
27590W        W99883  38.338  43.313  14.758
27591W        W99884   3.733  34.558   1.834
27592W        W99885  22.048  41.812  10.617
27593W        W99886  16.201   5.918  13.321
27594W        W99887  24.491   9.240  11.419
27595W        W99888   2.787  19.689  14.815
27596W        W99889  28.588  23.186  10.554
27597W        W99890  42.908  21.177  12.056
27598W        W99891  29.588  38.932  10.977
27599W        W99892  10.783  13.777  13.014
27600W        W99893  37.835  15.770   4.293
27601W        W99894  20.711  31.560   2.800
27602W        W99895  42.982  29.600   3.233
27603W        W99896  40.833   0.320  10.416
27604W        W99897  32.462  17.102  11.381
27605W        W99898  22.101  41.497   3.259
27606W        W99899  22.624  12.253  11.498
27607W        W99900  33.532  21.563  14.869
27608W        W99901  22.558  21.717  13.537
27609W        W99902   5.332  42.343   3.219
27610W        W99903  21.109  16.747  14.353
27611W        W99904  11.219  13.738  11.062
27612W        W99905  11.140   5.907   1.423
27613W        W99906   4.352  30.480  13.376
27614W        W99907  20.265   5.746  12.050
27615W        W99908  22.683  10.767  14.412
27616W        W99909  24.034  31.445   3.809
27617W        W99910   6.765  40.524  14.913
27618W        W99911  43.275   7.897   2.748
27619W        W99912  34.990   7.351   2.236
27620W        W99913   1.239  32.894   0.787
27621W        W99914  12.762  13.819  13.907
27622W        W99915   3.868  14.708  14.367
27623W        W99916  38.496  39.407  11.904
27624W        W99917  23.184  29.100   0.430
27625W        W99918  43.363   0.953  14.910
27626W        W99919  14.101  38.471  12.390
27627W        W99920  39.432  35.400   3.709
27628W        W99921  35.063  24.590   3.148
27629W        W99922  35.895  15.182   0.792
27630W        W99923  42.951   6.708  11.427
27631W        W99924  10.860  14.795  13.003
27632W        W99925  35.528  15.106  13.039
27633W        W99926  10.225  25.472   2.399
27634W        W99927  44.767  42.996  14.375
27635W        W99928  12.217  23.988   4.600
27636W        W99929  42.869  32.058  14.459
27637W        W99930  44.971  11.320   3.270
27638W        W99931   8.873   0.876  13.512
27639W        W99932  16.760  14.129   3.719
27640W        W99933  42.029  39.039  11.530
27641W        W99934  30.094  20.688   0.807
27642W        W99935   9.329   0.320  13.423
27643W        W99936  39.493  43.868  11.902
27644W        W99937  10.357   2.312  13.334
27645W        W99938   9.729  16.782   3.332
27646W        W99939  19.631   7.673   4.165
27647W        W99940   8.354   7.848   2.203
27648W        W99941  41.788  36.555   1.296
27649W        W99942  26.982  42.936  14.452
27650W        W99943  14.828  20.056  12.408
27651W        W99944   4.286  41.523   1.792
27652W        W99945  15.327  12.652   2.314
27653W        W99946  18.079  32.559  11.121
27654W        W99947  20.266  29.556  12.981
27655W        W99948   5.394  41.299  12.045
27656W        W99949   6.268   3.435   3.267
27657W        W99950  31.949   9.746   5.172
27658W        W99951  40.506   8.400  10.444
27659W        W99952  11.766  36.574   0.334
27660W        W99953  31.034  28.623   1.263
27661W        W99954   9.301  14.815  10.932
27662W        W99955  31.533  10.356  13.812
27663W        W99956  11.253  27.655   0.368
27664W        W99957  25.149   1.777   9.660
27665W        W99958  27.000   3.882   1.753
27666W        W99959  43.324   7.807   0.900
27667W        W99960  42.451  13.304  12.946
27668W        W99961   3.412   2.874   0.907
27669W        W99962  28.487  32.126  11.469
27670W        W99963  32.056   7.700   3.842
27671W        W99964  25.971  13.674   2.837
27672W        W99965  29.086  32.119  11.874
27673W        W99966  33.061  26.058  12.544
27674W        W99967  19.261  42.446  13.921
27675W        W99968  40.038  29.076  12.341
27676W        W99969  10.349  35.536  12.009
27677W        W99970  21.512  36.853   4.826
27678W        W99971   9.160  12.165  11.958
27679W        W99972  33.581   3.278   2.199
27680W        W99973  43.861  13.720  13.316
27681W        W99974   1.790  44.444  12.023
27682W        W99975  40.438  11.706  12.935
27683W        W99976   0.812   9.282   2.348
27684W        W99977   7.187   7.679  13.999
27685W        W99978   7.346  36.961  14.455
27686W        W99979  41.958  11.219   0.344
27687W        W99980  24.135   4.773  13.390
27688W        W99981  25.999  15.179  13.351
27689W        W99982  41.879  43.929  12.510
27690W        W99983  39.317  42.882  12.864
27691W        W99984  26.621  19.194   2.240
27692W        W99985   6.244  21.576   2.676
27693W        W99986  15.178  30.591  14.468
27694W        W99987   0.438  36.487   3.762
27695W        W99988  21.225  14.318   2.391
27696W        W99989  14.321  28.115  14.456
27697W        W99990  27.192  36.425   0.408
27698W        W99991   3.299  37.056  12.050
27699W        W99992  25.171  34.489   4.313
27700W        W99993  20.681  34.895   3.662
27701W        W99994  38.404   2.355   4.787
27702W        W99995  35.388  11.662  11.387
27703W        W99996  22.718  10.167  10.072
27704W        W99997  27.494  10.824   2.699
27705W        W99998  15.690  15.087  12.945
27706W        W99999  29.476  12.802   1.305
27707W        W    0  25.110  28.503   3.207
27708W        W    1  26.591  16.581  13.352
27709W        W    2  39.013  40.351   0.828
27710W        W    3  10.138  38.062  10.441
27711W        W    4  39.879   7.748   0.386
27712W        W    5  37.861  23.089  12.049
27713W        W    6  42.442  39.990   3.658
27714W        W    7  17.585  44.326  11.066
27715W        W    8  26.505  25.567   2.845
27716W        W    9  41.975  36.061   1.712
27717W        W   10  38.045  32.100  13.385
27718W        W   11  14.286  34.064   3.252
27719W        W   12  22.039   6.700   0.337
27720W        W   13  25.681  14.799   0.419
27721W        W   14  10.660  14.123  14.456
27722W        W   15   9.261   7.882   0.794
27723W        W   16   1.896  10.368  10.981
27724W        W   17  18.690   9.758   3.145
27725W        W   18  24.084  21.638  15.000
27726W        W   19   5.237  28.611  11.867
27727W        W   20  27.485  15.730  14.462
27728W        W   21  29.654  28.983  14.862
27729W        W   22  44.411  10.157   2.263
27730W        W   23   7.736  24.521  14.362
27731W        W   24  30.022  25.674   2.697
27732W        W   25  27.136  38.014   2.387
27733W        W   26  32.585   8.237   5.139
27734W        W   27   1.956   4.321   1.398
27735W        W   28  42.877  34.483  13.429
27736W        W   29  15.136  43.810   0.481
27737W        W   30   2.725  16.658   2.239
27738W        W   31  31.989  26.972  11.925
27739W        W   32   7.378  28.621  12.913
27740W        W   33  38.034  27.994  13.315
27741W        W   34  25.570   6.801  12.047
27742W        W   35  19.170  15.226   3.858
27743W        W   36  16.611  43.999  11.957
27744W        W   37  16.646  43.799  13.515
27745W        W   38  10.180  10.682   4.248
27746W        W   39  19.771  23.241   4.659
27747W        W   40  11.639   6.365  10.587
27748W        W   41  43.406  35.955   9.449
27749W        W   42  35.453  33.932  11.483
27750W        W   43  31.631  33.024   0.411
27751W        W   44  40.413  28.935  11.938
27752W        W   45  26.520  37.863   3.265
27753W        W   46   8.753  41.530   0.434
27754W        W   47  37.966  28.650   0.736
27755W        W   48  15.621  37.865  11.965
27756W        W   49  34.535   3.440  14.310
27757W        W   50  16.203   2.796   4.773
27758W        W   51  19.271   3.918  11.918
27759W        W   52   6.904   7.816   0.936
27760W        W   53   2.324   8.794   0.731
27761W        W   54  40.961  16.266  10.568
27762W        W   55  28.023  13.108  13.450
27763W        W   56  32.578  43.898   0.339
27764W        W   57   7.213  32.490   1.339
27765W        W   58  23.064   4.207   1.227
27766W        W   59  18.725  31.996   0.260
27767W        W   60  37.986   4.253  11.978
27768W        W   61  43.775  26.196  14.351
27769W        W   62  28.653  41.930   0.782
27770W        W   63  36.982  18.745   3.762
27771W        W   64  33.039  34.084   0.767
27772W        W   65   8.278  37.930   0.326
27773W        W   66  19.145  27.616   3.317
27774W        W   67  20.226  33.453  13.452
27775W        W   68  20.231  40.045  14.436
27776W        W   69   9.165  33.517   1.777
27777W        W   70  27.188   5.270   2.754
27778W        W   71  33.899  42.949  12.380
27779W        W   72  30.416   9.883  10.601
27780W        W   73  26.988   4.293   1.766
27781W        W   74  16.751  12.141   3.677
27782W        W   75  24.172  43.876  11.465
27783W        W   76   8.758  44.458   5.112
27784W        W   77  29.077  13.617  13.029
27785W        W   78  43.347   2.323   2.844
27786W        W   79  30.004   8.387   1.298
27787W        W   80  34.116  21.123   1.405
27788W        W   81   6.886  41.035  13.526
27789W        W   82   5.199  13.844   0.286
27790W        W   83   0.958  13.663   1.706
27791W        W   84  25.004  41.881   4.799
27792W        W   85  30.426   4.219   2.678
27793W        W   86  24.502  44.984  11.391
27794W        W   87  19.120  40.449  10.548
27795W        W   88  10.692  43.956  12.375
27796W        W   89   1.263   8.725   0.242
27797W        W   90  36.578  40.980  13.381
27798W        W   91  42.924   0.766   2.787
27799W        W   92  30.010  14.762  12.831
27800W        W   93   7.840  35.955   5.094
27801W        W   94  10.849   7.297   1.340
27802W        W   95   2.871  16.235  12.532
27803W        W   96   2.311  30.151   2.353
27804W        W   97  15.604  27.644  10.982
27805W        W   98  26.572   1.316  13.988
27806W        W   99  23.671   2.343   9.953
27807W        W  100  16.304   2.764   9.649
27808W        W  101  38.073  33.918   2.217
27809W        W  102  25.574  13.759  11.944
27810W        W  103  21.517  17.302   2.386
27811W        W  104  36.489  23.549  10.115
27812W        W  105   4.296  34.479  14.817
27813W        W  106  31.579  33.050   4.193
27814W        W  107  20.540   0.775  11.457
27815W        W  108  31.063   7.725   1.248
27816W        W  109  20.763  17.578  14.399
27817W        W  110  13.747   6.281   1.790
27818W        W  111   2.410  42.935   2.824
27819W        W  112   1.474  36.474   2.312
27820W        W  113  23.021  30.956  10.445
27821W        W  114  26.959  14.662   0.800
27822W        W  115  21.185  27.462  10.538
27823W        W  116  27.539  30.010  14.849
27824W        W  117   5.389   5.246  14.288
27825W        W  118  11.729  17.280  10.520
27826W        W  119  13.704  30.136   1.756
27827W        W  120   3.940  16.311   0.370
27828W        W  121  40.872  29.455   3.822
27829W        W  122   8.302  42.327  10.926
27830W        W  123  38.949  44.344  10.915
27831W        W  124   6.698  33.957  12.425
27832W        W  125  11.187  33.381  11.887
27833W        W  126  28.123  39.829  10.494
27834W        W  127   0.320  23.510  11.965
27835W        W  128  35.466  29.043  11.125
27836W        W  129  12.241  31.959   1.865
27837W        W  130  31.564  30.004  10.552
27838W        W  131   9.301  24.597  14.858
27839W        W  132  11.789  23.604   9.970
27840W        W  133  21.097  19.717  10.891
27841W        W  134  20.735  43.475   4.622
27842W        W  135   5.688  41.015   3.172
27843W        W  136  10.683  36.891  10.993
27844W        W  137  20.727   5.426  10.927
27845W        W  138  34.020   8.329   4.742
27846W        W  139  17.110  27.140   2.740
27847W        W  140  37.410  36.030   2.718
27848W        W  141  24.105  28.639   3.746
27849W        W  142  17.212   1.878  11.915
27850W        W  143   3.301   1.399  10.555
27851W        W  144  12.282  41.520  11.003
27852W        W  145   0.826  26.633  12.458
27853W        W  146  21.156  41.415   0.817
27854W        W  147   8.823  27.120  11.949
27855W        W  148  43.819  36.439  11.925
27856W        W  149  43.318  42.443  12.940
27857W        W  150  14.636  36.969   1.428
27858W        W  151  20.162  15.673  13.820
27859W        W  152  25.180   0.843  14.475
27860W        W  153  31.505   5.924  14.312
27861W        W  154  14.136  28.974  11.053
27862W        W  155  42.492   2.248  13.393
27863W        W  156  28.963   3.710   1.308
27864W        W  157  14.594  36.039   4.729
27865W        W  158  20.082  33.017   4.750
27866W        W  159  29.003   1.421   3.854
27867W        W  160  29.596   5.213  12.526
27868W        W  161   1.763  33.399  12.570
27869W        W  162  44.428  19.216   4.721
27870W        W  163  12.304  11.702  10.537
27871W        W  164  15.641   3.431   5.093
27872W        W  165  32.945  36.934  13.540
27873W        W  166   6.340  41.844  10.470
27874W        W  167  33.942  36.030  10.484
27875W        W  168   2.241   4.333  11.928
27876W        W  169  32.009  40.440   3.688
27877W        W  170   1.815  44.295   3.754
27878W        W  171  29.625  11.783   1.212
27879W        W  172  37.029  15.310  13.041
27880W        W  173  44.349   9.828   4.670
27881W        W  174  27.022  15.155   4.719
27882W        W  175  40.318  30.576  12.825
27883W        W  176  33.425  26.569  14.950
27884W        W  177  16.576  32.458  12.396
27885W        W  178   9.180  29.440   2.278
27886W        W  179   9.690  39.028   2.768
27887W        W  180  37.989  39.973   4.152
27888W        W  181   4.217  31.574   2.873
27889W        W  182  20.597  18.103   1.775
27890W        W  183  31.566  25.085  14.012
27891W        W  184  39.050  39.511   2.707
27892W        W  185  17.281  15.296   3.803
27893W        W  186  12.314  35.033  12.513
27894W        W  187  34.414  30.974  11.974
27895W        W  188   8.839  11.172   1.741
27896W        W  189   6.321  26.645   2.193
27897W        W  190  35.480  24.045  14.958
27898W        W  191  36.528  34.877  11.978
27899W        W  192  33.488  23.213   0.858
27900W        W  193  37.064   0.814   2.401
27901W        W  194  21.103  14.692   3.691
27902W        W  195  37.420  44.353   4.598
27903W        W  196  30.481  29.923  13.310
27904W        W  197  24.205  26.001  11.955
27905W        W  198   1.853  40.004  13.938
27906W        W  199  10.190  10.812  14.340
27907W        W  200  28.675   6.304  11.056
27908W        W  201   0.362  34.488  12.902
27909W        W  202  37.987  40.993  12.564
27910W        W  203  40.507  14.808   1.341
27911W        W  204  35.020  12.281  11.588
27912W        W  205  32.474  17.139  13.838
27913W        W  206  43.893   3.872  14.383
27914W        W  207  40.822   2.849  13.822
27915W        W  208   5.778  17.291   2.310
27916W        W  209  14.748  34.019  12.889
27917W        W  210  31.057  19.607   3.159
27918W        W  211   7.295  20.661  13.814
27919W        W  212  44.892  12.305  14.511
27920W        W  213   9.818   3.444   4.754
27921W        W  214  11.226  36.481  13.505
27922W        W  215  43.899  29.093   2.804
27923W        W  216  19.650  27.125   1.414
27924W        W  217  23.582  35.040  12.008
27925W        W  218   1.345  23.045  14.790
27926W        W  219  13.194  42.289   0.727
27927W        W  220  19.553   6.322   3.363
27928W        W  221  25.031  25.559   0.369
27929W        W  222  18.103   1.271   1.413
27930W        W  223  12.276  10.703  12.916
27931W        W  224  43.475   0.747  13.344
27932W        W  225  44.461  38.068  11.048
27933W        W  226  40.831  42.339   1.264
27934W        W  227  29.616  17.249  11.081
27935W        W  228   4.288  28.579   1.864
27936W        W  229  16.805  23.728  14.278
27937W        W  230  11.193   0.349   2.355
27938W        W  231  12.690   5.831   4.201
27939W        W  232   7.800  43.813   2.381
27940W        W  233  27.448  26.110  12.477
27941W        W  234  35.399  17.283   3.265
27942W        W  235   8.280  32.479   2.387
27943W        W  236  20.096  16.650  11.390
27944W        W  237  34.573  28.111  12.091
27945W        W  238  41.307  19.082  10.504
27946W        W  239  32.598  40.531   2.834
27947W        W  240   9.745  17.769   1.352
27948W        W  241  29.042  40.831  12.873
27949W        W  242  31.120  36.394   3.796
27950W        W  243  18.202   7.323   1.801
27951W        W  244  18.778  21.528   2.826
27952W        W  245  39.418  19.270  10.975
27953W        W  246   3.451  23.038   4.126
27954W        W  247  43.328  11.293   0.848
27955W        W  248  12.267  41.504  12.524
27956W        W  249   0.271  44.898  11.528
27957W        W  250   9.731  30.538  14.425
27958W        W  251  42.805  30.422  12.092
27959W        W  252  21.242  23.600  11.021
27960W        W  253  34.506   9.760   3.768
27961W        W  254  13.243  37.513  13.418
27962W        W  255  30.915  34.523   1.422
27963W        W  256   6.242   3.408   2.275
27964W        W  257  43.343  21.149   1.778
27965W        W  258   9.729  21.747   1.927
27966W        W  259  24.177  14.195   3.174
27967W        W  260   0.445   1.338  10.631
27968W        W  261  38.981  14.661   4.717
27969W        W  262  40.515  14.245  13.466
27970W        W  263  18.141  32.904   1.870
27971W        W  264  19.142  31.011   9.484
27972W        W  265  41.374  21.558   0.271
27973W        W  266  11.303   3.357   0.866
27974W        W  267  23.735  17.591  10.969
27975W        W  268  27.148  32.918  10.414
27976W        W  269  12.170  27.571  13.038
27977W        W  270  26.611  10.220   4.329
27978W        W  271  44.434  23.586  11.452
27979W        W  272  43.903  12.814  12.473
27980W        W  273  37.528  33.606  13.793
27981W        W  274  20.726  43.480   1.294
27982W        W  275  24.991  39.483  13.356
27983W        W  276   1.752  33.086   1.346
27984W        W  277   8.313  38.408   1.806
27985W        W  278  10.834  11.310  14.361
27986W        W  279  32.888  39.965  11.006
27987W        W  280  44.847  21.028   0.885
27988W        W  281   1.912   3.750   4.307
27989W        W  282  41.834  36.863   4.645
27990W        W  283   6.284   8.740   3.284
27991W        W  284   4.704   2.836  13.411
27992W        W  285  25.682   2.785  12.579
27993W        W  286   5.871  34.938  13.055
27994W        W  287  16.080  12.782   0.325
27995W        W  288   4.297  29.947  14.367
27996W        W  289  25.628  32.892   3.729
27997W        W  290   2.413  30.973   2.220
27998W        W  291  28.506  25.161   4.136
27999W        W  292   0.304   0.982  10.512
28000W        W  293  32.927   5.704   1.787
28001W        W  294  20.152  41.537   3.641
28002W        W  295  30.952   8.181   1.760
28003W        W  296  37.067   1.769   1.868
28004W        W  297  40.849   4.935  12.998
28005W        W  298  29.667   8.781   0.814
28006W        W  299  13.842  41.967  13.893
28007W        W  300  21.699  41.957   1.401
28008W        W  301   4.301  16.585  14.879
28009W        W  302  38.995  42.362  11.073
28010W        W  303  25.095   8.793  10.632
28011W        W  304  10.722   0.910   1.886
28012W        W  305  41.362  11.708  13.350
28013W        W  306  15.677  42.840   3.827
28014W        W  307  30.937  42.480   1.215
28015W        W  308   2.429  22.115  13.985
28016W        W  309  39.541   8.787  14.897
28017W        W  310   3.403  44.361  10.588
28018W        W  311  24.498   1.292   3.664
28019W        W  312  29.582  15.191  13.064
28020W        W  313  43.880  33.881   4.329
28021W        W  314   2.732  32.468  12.500
28022W        W  315  29.959  15.106   2.391
28023W        W  316  27.646  15.617  13.469
28024W        W  317  18.210  38.836   2.352
28025W        W  318  26.613  24.525   2.889
28026W        W  319  25.665  12.162   0.862
28027W        W  320   5.322  27.079  11.092
28028W        W  321  25.196  21.101   2.766
28029W        W  322  41.510  23.126  11.576
28030W        W  323   6.397  19.710   4.151
28031W        W  324  37.982  34.595  11.935
28032W        W  325   2.761  39.951   2.903
28033W        W  326  17.605  31.497  10.926
28034W        W  327   8.685   6.288  11.395
28035W        W  328  33.503  44.372   2.888
28036W        W  329   4.907  30.955   0.730
28037W        W  330  38.427  44.990   1.321
28038W        W  331   5.709  12.240   1.745
28039W        W  332  11.716  11.306  12.967
28040W        W  333  20.605  39.455  13.018
28041W        W  334   3.425  22.057  14.804
28042W        W  335   0.440  35.908  12.532
28043W        W  336  17.087  33.449  11.474
28044W        W  337  23.525  18.275  11.437
28045W        W  338   2.928  39.441  10.411
28046W        W  339  25.203  40.970   1.388
28047W        W  340  44.345   6.427  11.418
28048W        W  341  44.286   8.238   1.349
28049W        W  342  35.508  41.037   3.164
28050W        W  343  35.853  20.606   2.200
28051W        W  344  27.045   4.391   3.789
28052W        W  345   6.922  40.387  11.053
28053W        W  346  40.534   8.204   3.300
28054W        W  347  29.090   1.317  13.999
28055W        W  348   5.747  33.078  10.567
28056W        W  349   2.911  24.167   0.405
28057W        W  350  25.554  14.228  12.035
28058W        W  351  31.643  28.163   2.802
28059W        W  352  22.696   5.694  14.422
28060W        W  353  31.450  41.811   0.350
28061W        W  354  21.109  41.998   1.765
28062W        W  355   3.741  17.153   2.348
28063W        W  356  26.667  40.352   3.157
28064W        W  357   0.980  31.929  10.618
28065W        W  358  42.777  31.016   5.322
28066W        W  359  33.544  13.121  13.885
28067W        W  360  27.659  29.054   2.308
28068W        W  361  25.508  42.848  13.954
28069W        W  362  27.995  30.060  13.510
28070W        W  363  10.255  37.032   4.820
28071W        W  364  12.151   6.782   2.351
28072W        W  365   7.256  35.857  12.401
28073W        W  366  14.761  40.480  13.036
28074W        W  367  43.285  30.978  14.299
28075W        W  368  16.240   2.904  14.856
28076W        W  369  38.847  11.768   1.219
28077W        W  370   5.373  44.828  12.008
28078W        W  371  19.055  13.260   0.476
28079W        W  372  15.153  39.543   0.387
28080W        W  373  28.047  30.944   4.207
28081W        W  374  35.893  26.493   0.404
28082W        W  375  33.412  39.857  14.288
28083W        W  376  18.110   3.408  12.972
28084W        W  377  13.620  38.419   3.260
28085W        W  378  39.858  23.699   4.309
28086W        W  379   4.334  34.484  13.461
28087W        W  380  23.008   1.891   3.266
28088W        W  381  14.683   4.770   3.713
28089W        W  382  10.317  43.907   3.319
28090W        W  383  32.142  27.056   2.836
28091W        W  384  10.224  19.713  14.832
28092W        W  385  32.969  16.758  14.399
28093W        W  386  15.251  41.006   0.841
28094W        W  387  44.818   9.677   0.807
28095W        W  388  44.984  33.443   3.298
28096W        W  389  26.055  13.269  12.535
28097W        W  390  29.070  43.902  10.907
28098W        W  391  11.667  33.928   1.355
28099W        W  392  19.186  36.007   2.762
28100W        W  393  17.797  37.348  14.314
28101W        W  394   0.429   8.223   0.775
28102W        W  395  18.721  44.390  14.327
28103W        W  396  20.564   0.489  10.909
28104W        W  397  30.431  20.523  12.083
28105W        W  398  24.205  32.550  12.905
28106W        W  399   9.228  37.920  11.408
28107W        W  400   6.414   9.273   3.652
28108W        W  401  16.750   4.330   0.801
28109W        W  402  20.714  42.375   1.717
28110W        W  403  24.492  29.130   1.213
28111W        W  404  31.053  11.338  11.121
28112W        W  405  32.950  27.136  10.633
28113W        W  406  34.614  21.736   0.426
28114W        W  407  44.961  10.640   4.258
28115W        W  408  30.427  17.070   1.839
28116W        W  409  28.935  42.029   0.353
28117W        W  410  33.571  26.678  12.014
28118W        W  411  42.387  24.682  11.425
28119W        W  412  22.648  33.388  13.355
28120W        W  413  29.489  33.895   1.709
28121W        W  414  38.424   0.364   1.250
28122W        W  415  22.059  27.551   1.345
28123W        W  416  21.195  42.466   0.480
28124W        W  417   9.764   5.860   3.154
28125W        W  418  21.241  40.857  10.916
28126W        W  419  39.475  34.080   2.265
28127W        W  420  11.696  27.632  11.426
28128W        W  421  19.637  42.523   2.718
28129W        W  422   5.738  23.169   2.321
28130W        W  423   1.932  31.443   1.770
28131W        W  424  33.069  18.725  14.505
28132W        W  425   0.312  12.272   0.885
28133W        W  426  29.952  17.744  10.931
28134W        W  427  43.343  25.590   3.324
28135W        W  428  33.040  28.595   1.320
28136W        W  429  44.430   4.250  11.910
28137W        W  430  17.275  42.325  11.119
28138W        W  431  38.507   0.471  14.923
28139W        W  432  18.245  44.492  11.605
28140W        W  433  11.353  25.215   4.292
28141W        W  434  18.220  11.202   4.688
28142W        W  435  34.962  35.102   1.371
28143W        W  436  10.700  22.135   1.426
28144W        W  437  22.221  21.068   2.251
28145W        W  438  37.083  25.573  12.845
28146W        W  439  12.777  43.445   2.854
28147W        W  440  44.264  26.172  14.411
28148W        W  441  29.171  13.638   0.914
28149W        W  442  44.851  18.105  13.417
28150W        W  443  11.868  18.612  11.553
28151W        W  444  25.674  23.654   2.251
28152W        W  445  39.322  17.630  14.943
28153W        W  446  29.573  28.462   1.916
28154W        W  447  10.782  25.073  10.463
28155W        W  448  31.568  17.729   2.903
28156W        W  449   7.295   0.272  11.419
28157W        W  450  34.883   4.319  12.883
28158W        W  451  22.230  22.245   1.264
28159W        W  452  31.147  23.022  12.438
28160W        W  453  18.554  10.800  10.609
28161W        W  454  25.181  23.603   3.314
28162W        W  455  11.651  31.476  12.023
28163W        W  456  26.000  41.496  14.852
28164W        W  457  36.450  12.631   1.228
28165W        W  458  44.431  28.938  11.073
28166W        W  459   0.298  20.735   0.839
28167W        W  460  38.432  16.612  14.479
28168W        W  461  30.423  23.557   3.292
28169W        W  462  34.024  14.823  11.469
28170W        W  463  14.147  15.646  13.885
28171W        W  464  14.701  21.188   2.202
28172W        W  465  25.077   4.722   1.403
28173W        W  466   5.890  11.743  10.546
28174W        W  467  32.487   5.234  10.489
28175W        W  468   3.931  26.046   4.138
28176W        W  469  40.970  44.880  12.026
28177W        W  470  21.146  27.564  11.445
28178W        W  471  17.568  40.437   3.314
28179W        W  472  39.413  33.934  14.296
28180W        W  473  12.770  19.202   2.816
28181W        W  474   9.285  26.586   2.249
28182W        W  475   2.384  35.108  10.638
28183W        W  476  21.513  15.144  12.090
28184W        W  477  34.082  12.698  13.036
28185W        W  478  36.383  19.225  10.948
28186W        W  479  37.400  39.929  11.862
28187W        W  480  18.252   6.800  11.084
28188W        W  481  15.694  41.838  14.850
28189W        W  482  12.156  12.265  11.900
28190W        W  483  24.170   3.867  11.887
28191W        W  484  28.934  31.140  11.503
28192W        W  485  19.220  17.581   2.693
28193W        W  486   3.934  18.101  11.872
28194W        W  487   9.688  19.078  10.545
28195W        W  488  26.999  35.097  11.102
28196W        W  489   3.239  22.622   4.797
28197W        W  490  29.619  24.618   0.364
28198W        W  491  38.020   1.904  14.828
28199W        W  492  19.254  39.401   4.130
28200W        W  493  33.023  41.447   0.764
28201W        W  494  25.619  13.768   2.329
28202W        W  495  39.397  14.248   0.913
28203W        W  496  29.074  38.004  12.980
28204W        W  497  31.446  19.620   0.377
28205W        W  498  37.911   7.909  13.808
28206W        W  499  19.253   1.802   3.686
28207W        W  500  34.868   3.747  13.044
28208W        W  501  43.873  25.590  11.988
28209W        W  502  33.128   3.239   4.151
28210W        W  503  35.591  36.035   0.816
28211W        W  504  37.339   2.743   2.389
28212W        W  505  31.430  18.680  13.429
28213W        W  506  36.080  41.793  11.937
28214W        W  507   8.340  41.982  10.594
28215W        W  508  33.969  12.116  11.037
28216W        W  509  35.599  33.027  12.571
28217W        W  510  33.880  35.374  12.532
28218W        W  511  10.221  16.260  11.911
28219W        W  512  30.649  11.624   3.220
28220W        W  513  40.804  43.925   3.703
28221W        W  514  22.037   8.301  13.413
28222W        W  515  28.653  29.008   2.209
28223W        W  516  10.844   0.880   3.261
28224W        W  517   1.889  42.457   0.304
28225W        W  518  40.834  31.610   2.808
28226W        W  519  21.672  12.735  12.388
28227W        W  520  34.371  23.522   0.941
28228W        W  521  34.401  38.825  13.823
28229W        W  522  20.163  37.434  12.555
28230W        W  523   7.257  19.758  13.798
28231W        W  524   0.274  16.664   4.831
28232W        W  525  15.131  10.809  13.415
28233W        W  526  24.042   5.417   0.877
28234W        W  527   7.740  17.087   1.323
28235W        W  528  37.572   7.211   1.294
28236W        W  529  36.358  42.434   3.243
28237W        W  530  28.628  42.807   2.363
28238W        W  531  42.963  28.126  11.053
28239W        W  532   1.770  28.030   2.867
28240W        W  533  30.149  18.673  11.953
28241W        W  534  12.212   3.339  13.055
28242W        W  535  24.657   1.907   2.229
28243W        W  536  39.465  22.600   4.128
28244W        W  537  30.500  22.089   4.256
28245W        W  538  36.841  33.017  10.471
28246W        W  539  23.987  18.161   4.613
28247W        W  540  31.048   6.427  14.826
28248W        W  541  15.790  16.140   4.140
28249W        W  542  42.524   6.703   4.310
28250W        W  543  36.094  20.185  13.818
28251W        W  544  29.044  34.586   2.884
28252W        W  545  35.539  18.092  10.920
28253W        W  546   2.286  29.599  13.332
28254W        W  547   5.693   0.901  10.436
28255W        W  548   1.958  37.387   4.352
28256W        W  549  38.325  12.662   2.222
28257W        W  550  32.419  29.596   4.294
28258W        W  551  16.147  44.883   4.822
28259W        W  552   8.770  16.162   1.312
28260W        W  553  27.973  19.653   5.305
28261W        W  554   8.682  43.902   1.362
28262W        W  555  25.654   9.167  14.413
28263W        W  556  12.619  21.224  13.509
28264W        W  557  12.666  38.003   2.745
28265W        W  558  24.128  25.071   1.383
28266W        W  559   5.251  44.888  14.768
28267W        W  560  25.678   1.940  13.546
28268W        W  561  23.571  37.046   0.426
28269W        W  562  21.064  37.450  11.952
28270W        W  563  22.119  38.371   0.292
28271W        W  564   6.333  19.684  10.563
28272W        W  565  36.941  13.113  10.574
28273W        W  566  14.340  31.086  13.911
28274W        W  567  36.583  44.493  12.040
28275W        W  568   8.887  11.319  11.603
28276W        W  569  14.317  16.641  11.043
28277W        W  570  25.067  35.403  13.452
28278W        W  571  43.790  21.171  12.515
28279W        W  572  36.877   3.774   0.906
28280W        W  573  28.444  43.012  12.097
28281W        W  574  37.500   6.806  11.090
28282W        W  575   8.345  32.893   9.558
28283W        W  576  37.050  32.569   1.812
28284W        W  577  21.256   6.908   1.902
28285W        W  578  11.688  24.980  11.582
28286W        W  579  12.318   5.865   3.211
28287W        W  580   7.365  38.021  10.911
28288W        W  581  12.307  18.194   0.449
28289W        W  582  30.937  33.434   4.114
28290W        W  583  10.747  42.965  11.106
28291W        W  584  11.837  13.674   3.250
28292W        W  585  40.525  12.671   3.252
28293W        W  586   6.707   3.358   0.384
28294W        W  587  40.011  44.806   0.339
28295W        W  588  39.414  41.811   1.221
28296W        W  589  40.910  35.600  14.355
28297W        W  590   6.363  31.597  13.953
28298W        W  591  11.173  16.148   1.740
28299W        W  592   6.849  22.054   1.234
28300W        W  593  26.671   5.702  11.000
28301W        W  594  40.434  11.264   3.733
28302W        W  595  38.027  28.978  14.507
28303W        W  596  11.318  29.640   0.384
28304W        W  597  15.321  28.443  11.933
28305W        W  598  31.982  43.489   1.295
28306W        W  599  22.732  22.091   3.746
28307W        W  600  40.309  43.938   5.172
28308W        W  601  16.261  13.109   4.597
28309W        W  602  26.069  20.574  10.418
28310W        W  603  19.077  30.416  13.496
28311W        W  604  14.703  33.998   4.766
28312W        W  605  15.265  15.136  10.540
28313W        W  606  13.621   8.302   1.864
28314W        W  607  39.537  26.107   1.382
28315W        W  608  27.992   0.759   1.878
28316W        W  609  27.526  16.134  11.474
28317W        W  610  17.105   2.259  13.504
28318W        W  611  37.977  32.621   2.852
28319W        W  612   6.368  37.979   3.216
28320W        W  613  38.960  42.962   1.399
28321W        W  614  27.055   9.191   2.193
28322W        W  615   4.772  31.583  11.080
28323W        W  616   3.316  28.517   0.382
28324W        W  617  40.948  13.188   1.881
28325W        W  618  36.501  33.000   2.758
28326W        W  619  39.040  38.525  13.973
28327W        W  620  15.291   2.293   5.697
28328W        W  621  22.628  14.253   2.236
28329W        W  622  33.900   1.780  13.959
28330W        W  623   4.232  24.201  11.392
28331W        W  624  37.415  31.150  12.556
28332W        W  625  21.677  35.518  13.383
28333W        W  626  10.753  15.784  11.946
28334W        W  627  39.397  34.970   1.718
28335W        W  628  23.226  32.111   1.241
28336W        W  629  41.307  24.000   4.731
28337W        W  630  43.895  12.201  10.480
28338W        W  631  30.996   9.209   2.699
28339W        W  632  33.955  42.797  14.945
28340W        W  633  33.534  22.687  13.949
28341W        W  634   9.339  28.592   1.903
28342W        W  635  16.237  12.638   4.737
28343W        W  636  16.188  41.357   2.781
28344W        W  637  21.107   8.876  13.496
28345W        W  638   3.228  28.939   2.196
28346W        W  639  13.677  37.839  13.960
28347W        W  640  19.087  16.697  14.968
28348W        W  641   3.278   7.400  12.942
28349W        W  642  24.986  18.221  14.930
28350W        W  643   5.780  35.927  13.401
28351W        W  644  21.616  16.642  13.979
28352W        W  645   3.926  14.612   2.880
28353W        W  646  15.293  18.117   0.859
28354W        W  647   9.866   4.909  10.520
28355W        W  648  34.432  27.519   1.893
28356W        W  649  15.604  33.038  12.080
28357W        W  650  40.009  43.481  13.938
28358W        W  651  40.919  27.008   0.749
28359W        W  652  22.674   2.420  11.409
28360W        W  653  25.133  42.396   3.166
28361W        W  654  12.143  21.245  11.511
28362W        W  655  20.218   0.332   3.846
28363W        W  656  23.663   2.832   0.443
28364W        W  657   2.435  22.668  12.537
28365W        W  658   1.937  33.041  13.933
28366W        W  659  28.490  33.563   0.967
28367W        W  660  12.756   7.243  12.981
28368W        W  661  21.061  40.511   4.820
28369W        W  662  31.997  25.106  11.070
28370W        W  663  36.901   3.912   4.275
28371W        W  664  10.266  19.747   1.782
28372W        W  665  10.756  27.648   0.463
28373W        W  666  36.580  30.957   2.726
28374W        W  667  14.619  21.716  14.765
28375W        W  668  37.930   9.213  13.335
28376W        W  669   3.840  35.861   5.309
28377W        W  670  18.763   8.280   0.897
28378W        W  671   6.239  20.108  14.797
28379W        W  672  11.273   0.367  14.391
28380W        W  673  31.567  30.487  12.917
28381W        W  674   4.228  16.318   3.332
28382W        W  675  32.425  43.289  10.416
28383W        W  676  37.500  26.501  14.895
28384W        W  677  40.374  26.498   3.643
28385W        W  678  35.602  25.113  12.898
28386W        W  679  22.637  31.618   2.398
28387W        W  680  29.159  20.184   2.678
28388W        W  681  12.841  43.814   2.661
28389W        W  682  27.051  29.006  11.451
28390W        W  683  13.349  25.087   1.339
28391W        W  684  38.531  18.165   2.737
28392W        W  685  42.922  27.604   3.199
28393W        W  686  20.541  36.531   4.720
28394W        W  687   2.935  12.210  10.997
28395W        W  688   1.477  41.845   0.343
28396W        W  689   9.353  42.432   0.472
28397W        W  690  34.412   0.314  14.936
28398W        W  691   5.224   8.270   3.645
28399W        W  692   2.798  17.291  12.933
28400W        W  693  25.044   1.929   2.338
28401W        W  694  14.745   8.878  14.336
28402W        W  695  18.776  36.039  14.894
28403W        W  696   9.706  31.018   0.771
28404W        W  697  28.162  27.039   4.721
28405W        W  698  26.990  21.664  11.446
28406W        W  699  26.996  43.781  10.414
28407W        W  700   5.892  43.998  14.470
28408W        W  701   2.429  17.302  10.952
28409W        W  702   0.307  11.342   4.647
28410W        W  703  35.454  18.789  13.418
28411W        W  704  14.740  10.648   0.859
28412W        W  705  13.636  15.265   3.698
28413W        W  706  26.572  31.563   0.456
28414W        W  707  36.433  43.787  12.073
28415W        W  708  20.041  17.241  10.614
28416W        W  709  22.177  41.970   3.719
28417W        W  710  14.611  28.979   3.714
28418W        W  711  23.603   0.417   1.848
28419W        W  712  22.553  26.589   4.812
28420W        W  713  21.540  39.953   1.385
28421W        W  714  22.151   0.410  13.311
28422W        W  715  29.125   9.868   2.692
28423W        W  716  29.502   8.804   1.746
28424W        W  717  42.009  22.717  13.015
28425W        W  718  24.529   6.189   1.713
28426W        W  719  28.137   1.240  10.040
28427W        W  720  40.996  27.056   3.373
28428W        W  721  28.071  28.048   4.597
28429W        W  722  16.752  37.831   0.932
28430W        W  723   7.892  11.669   0.316
28431W        W  724  22.249   4.429  11.045
28432W        W  725  23.047  15.586   2.710
28433W        W  726   4.356  11.213  10.492
28434W        W  727   1.831  32.905   2.839
28435W        W  728  44.464  44.919  10.054
28436W        W  729  28.018  21.213  11.387
28437W        W  730  33.086  23.192  13.332
28438W        W  731  27.582  16.776  11.517
28439W        W  732   3.389  27.171  11.946
28440W        W  733  20.129  15.776  14.373
28441W        W  734  11.141   3.437  12.987
28442W        W  735  12.628   9.781  14.006
28443W        W  736   6.717  43.814   1.906
28444W        W  737  28.495   5.747   4.326
28445W        W  738  18.775   8.804  12.418
28446W        W  739  25.529  21.158   2.668
28447W        W  740  25.206  22.220   0.787
28448W        W  741  28.123  42.879  11.384
28449W        W  742  32.933  20.687   3.360
28450W        W  743   3.875   6.354  13.927
28451W        W  744  25.701  12.350  12.459
28452W        W  745  36.844  22.006   1.903
28453W        W  746  37.434  26.677   9.949
28454W        W  747   9.240  34.056  13.988
28455W        W  748  13.277   5.864   1.217
28456W        W  749  28.149   9.687  11.406
28457W        W  750  17.715  16.215  12.861
28458W        W  751  14.823  27.129   0.336
28459W        W  752  16.690   0.976   3.356
28460W        W  753   2.892   2.253   1.771
28461W        W  754  37.376   4.294  14.308
28462W        W  755  43.913  20.136  12.033
28463W        W  756   6.848  24.698  14.011
28464W        W  757  20.170   7.790  14.995
28465W        W  758  10.313  43.987  14.348
28466W        W  759  43.272  40.351   2.363
28467W        W  760  29.430  41.848  14.321
28468W        W  761  30.641   8.791  13.018
28469W        W  762  44.918  36.900  10.424
28470W        W  763  21.598  37.987   4.823
28471W        W  764  36.841   9.818   3.746
28472W        W  765   9.719  14.277  13.316
28473W        W  766   4.236  20.203  14.297
28474W        W  767  19.654  28.605   2.672
28475W        W  768  21.191  36.410   3.147
28476W        W  769  19.102  24.644  12.084
28477W        W  770   2.966   2.960   1.727
28478W        W  771  19.615  11.310  11.861
28479W        W  772  31.005  20.713  13.043
28480W        W  773  41.957   0.819   5.802
28481W        W  774   3.870   0.346  10.620
28482W        W  775   6.771   4.274   2.410
28483W        W  776  20.573  26.545  14.862
28484W        W  777  41.329  19.582  12.450
28485W        W  778  37.975  38.848  10.453
28486W        W  779   0.912  39.909  13.367
28487W        W  780  11.677   5.818  12.463
28488W        W  781  32.492  12.814   0.958
28489W        W  782   1.440  44.870   4.597
28490W        W  783  25.522  14.289   5.172
28491W        W  784  32.976   8.247   2.265
28492W        W  785  34.406  26.108  11.991
28493W        W  786  32.916  44.818  13.937
28494W        W  787   6.199  28.520  10.630
28495W        W  788  30.562  40.816   2.417
28496W        W  789  16.152  14.280   2.701
28497W        W  790   5.318   5.369   1.869
28498W        W  791  33.004  22.220   1.860
28499W        W  792  39.350  26.038  12.504
28500W        W  793   0.925  18.549   0.306
28501W        W  794  41.878  15.671  11.448
28502W        W  795   5.235  40.432  14.937
28503W        W  796   2.753   0.484  10.947
28504W        W  797  34.901   5.206  12.069
28505W        W  798  27.066   1.864   0.915
28506W        W  799  40.458  24.630  13.515
28507W        W  800   9.172  25.082   3.871
28508W        W  801  25.638  25.617  14.960
28509W        W  802  43.296  32.065  13.854
28510W        W  803  13.193  15.254   3.846
28511W        W  804  42.855  40.941   2.755
28512W        W  805   4.825  22.087   1.813
28513W        W  806   1.901   5.709   2.215
28514W        W  807   8.860  19.558  12.549
28515W        W  808  25.962   8.267   0.737
28516W        W  809  39.833  24.022  12.027
28517W        W  810   9.784  43.451   4.247
28518W        W  811   1.317  36.478  10.600
28519W        W  812  29.509   3.936  11.039
28520W        W  813   1.269   2.962  13.313
28521W        W  814  31.410  29.436   4.232
28522W        W  815   0.956  10.690  14.355
28523W        W  816  28.502  29.079   4.296
28524W        W  817  43.808  18.108   1.846
28525W        W  818  36.492   9.824  10.988
28526W        W  819  33.055  25.500   2.677
28527W        W  820   7.696  20.192   3.833
28528W        W  821  10.792  40.947  14.939
28529W        W  822   5.858  38.428  12.347
28530W        W  823   4.382  37.442   3.758
28531W        W  824  12.158  41.963  10.408
28532W        W  825  17.063  39.470  14.925
28533W        W  826  30.083  40.405   3.862
28534W        W  827   2.443  14.661   2.413
28535W        W  828  25.622  14.320   4.685
28536W        W  829  11.282  21.638   4.263
28537W        W  830  18.722  37.517  12.563
28538W        W  831   6.374   6.309   3.720
28539W        W  832  10.704   4.715  14.901
28540W        W  833  38.371   1.400   4.788
28541W        W  834  18.268   6.845   0.861
28542W        W  835  26.558   8.277  13.862
28543W        W  836  33.437   8.311  11.404
28544W        W  837  32.901  35.521  14.786
28545W        W  838  16.683  14.831  10.624
28546W        W  839  12.180  35.880  12.475
28547W        W  840  35.425  39.949   1.714
28548W        W  841   6.234  35.964   3.313
28549W        W  842  10.633  24.222  13.049
28550W        W  843  31.945  16.707  14.947
28551W        W  844  30.037  27.194   1.218
28552W        W  845  44.802   7.336  14.820
28553W        W  846  33.615  41.993   2.716
28554W        W  847  14.781  27.493  13.945
28555W        W  848  20.737  21.247  13.377
28556W        W  849  22.187  29.645   2.896
28557W        W  850  33.521   4.414   4.235
28558W        W  851  17.283  39.945   0.876
28559W        W  852  15.589   9.726  13.821
28560W        W  853  28.489   1.320   0.891
28561W        W  854  12.691  35.991   1.802
28562W        W  855  31.623  30.075   2.793
28563W        W  856   7.360  14.316   0.730
28564W        W  857  12.726   2.944  13.399
28565W        W  858  28.571   9.844  14.318
28566W        W  859  20.168  24.189   4.200
28567W        W  860  21.669  39.926   4.313
28568W        W  861  41.333   5.861   3.811
28569W        W  862  17.782  28.083  12.032
28570W        W  863   4.885  31.908  11.589
28571W        W  864  37.532  10.379   0.966
28572W        W  865  32.948   1.265   0.298
28573W        W  866  35.076  35.092   0.939
28574W        W  867  30.012  13.308   2.347
28575W        W  868  33.472  39.543   2.375
28576W        W  869  40.500  30.920  14.820
28577W        W  870  29.534  39.473   2.895
28578W        W  871  15.643   2.455   2.329
28579W        W  872   4.278  21.069   5.203
28580W        W  873  19.166  15.192  13.988
28581W        W  874  36.502  37.893  10.439
28582W        W  875  38.999   0.911   3.629
28583W        W  876  15.217  36.014   4.772
28584W        W  877  20.084  35.882   1.362
28585W        W  878  44.776  40.851   1.795
28586W        W  879  37.424  41.901  13.945
28587W        W  880   4.899  22.617   0.343
28588W        W  881  33.995   7.296  14.921
28589W        W  882  31.076  25.511   2.410
28590W        W  883  21.048  32.903   0.246
28591W        W  884  30.474  12.623  14.837
28592W        W  885  36.593   8.690   9.957
28593W        W  886  22.574  11.681   2.889
28594W        W  887   2.379  39.980  14.303
28595W        W  888  44.413  33.410  10.573
28596W        W  889  16.280   3.851   9.622
28597W        W  890  44.760  10.703  11.078
28598W        W  891  32.469   1.296   4.273
28599W        W  892  33.541  38.996   1.387
28600W        W  893  25.700  25.712   1.284
28601W        W  894  17.636  22.112   4.640
28602W        W  895  27.945  28.654  11.085
28603W        W  896  12.223  10.670   2.234
28604W        W  897  29.018  23.020   4.712
28605W        W  898   2.804  16.297  10.485
28606W        W  899  18.782  35.402   4.709
28607W        W  900  41.476  34.442   1.425
28608W        W  901  21.023  13.803  11.407
28609W        W  902  32.502  41.504  14.860
28610W        W  903  34.923  16.691  10.578
28611W        W  904  10.259  43.272  13.320
28612W        W  905  23.005  20.744   4.753
28613W        W  906  31.138  42.410  14.922
28614W        W  907  32.963  43.816  14.761
28615W        W  908  29.988  35.489   2.821
28616W        W  909  20.112  13.207   4.262
28617W        W  910   2.436  40.806  12.340
28618W        W  911  24.588  35.007  10.918
28619W        W  912   1.391  28.970   3.831
28620W        W  913  35.983  30.616  13.416
28621W        W  914  40.389  16.571   2.190
28622W        W  915  16.607  26.562  12.862
28623W        W  916   3.889  34.075  12.979
28624W        W  917  41.416  39.966  14.513
28625W        W  918   3.764   2.829  11.480
28626W        W  919  12.650  23.074   2.801
28627W        W  920  24.221  23.517  14.336
28628W        W  921  42.469  30.031  10.952
28629W        W  922  12.130  36.062   0.242
28630W        W  923  25.046  38.407  12.454
28631W        W  924  42.965  13.290   1.778
28632W        W  925  18.110  39.899  10.455
28633W        W  926  21.679  18.126   2.380
28634W        W  927  17.305  16.110  12.477
28635W        W  928  17.204  34.905  11.599
28636W        W  929   5.228  42.475  10.613
28637W        W  930  36.015  11.243  14.900
28638W        W  931  17.782  22.203   3.234
28639W        W  932   5.744  27.959   3.787
28640W        W  933  15.800  10.188  10.083
28641W        W  934  10.847  22.184  12.975
28642W        W  935  18.216  30.064   3.650
28643W        W  936  13.294  31.440  13.520
28644W        W  937  31.037  35.431   3.333
28645W        W  938  25.082  25.965   4.121
28646W        W  939   4.812  37.379  10.611
28647W        W  940  36.022  44.333   3.222
28648W        W  941   1.421  10.358   0.954
28649W        W  942  24.124  30.540  13.015
28650W        W  943   6.822  21.204  12.851
28651W        W  944  44.447  40.499   3.835
28652W        W  945  17.720  16.148   4.134
28653W        W  946  38.933  19.084   3.681
28654W        W  947  41.337   4.887   0.458
28655W        W  948  25.544  22.714   1.388
28656W        W  949   1.435  43.953  14.394
28657W        W  950  25.184  28.956   0.751
28658W        W  951  36.021   6.375  12.500
28659W        W  952  27.162  31.962   1.797
28660W        W  953  19.673  39.989  12.520
28661W        W  954  41.798  18.179  13.325
28662W        W  955  37.540  17.711  10.442
28663W        W  956  22.718  44.407   2.280
28664W        W  957  17.223  10.869  10.440
28665W        W  958  34.397  14.101  13.504
28666W        W  959  17.272   2.470   2.254
28667W        W  960  41.810  10.373  14.340
28668W        W  961  35.551  12.212  11.871
28669W        W  962  21.102  38.440  10.602
28670W        W  963   4.252  40.799  13.814
28671W        W  964  20.211  37.989  12.909
28672W        W  965   0.842  23.653   3.332
28673W        W  966   0.927   6.752  11.094
28674W        W  967  23.593  23.039   2.362
28675W        W  968  13.634  12.839  13.375
28676W        W  969   4.743  20.536   2.188
28677W        W  970  23.591  40.837   4.228
28678W        W  971   8.389  29.054  14.298
28679W        W  972  27.466  40.543   3.297
28680W        W  973  34.995  44.318   4.307
28681W        W  974  15.764  33.419   3.262
28682W        W  975   2.242  30.016   0.386
28683W        W  976   5.767  20.543   0.445
28684W        W  977  31.601  31.932  12.088
28685W        W  978  38.882  31.505   1.818
28686W        W  979  41.430  30.965   1.752
28687W        W  980  33.465   1.295  12.349
28688W        W  981  20.124  13.821   2.228
28689W        W  982  20.197  43.340  13.839
28690W        W  983  33.990  27.512   3.222
28691W        W  984  22.059  20.765  12.386
28692W        W  985  38.544  33.605   3.853
28693W        W  986  35.422  29.584   4.218
28694W        W  987   1.760  30.578   3.646
28695W        W  988  14.136   4.312   5.142
28696W        W  989  35.360   4.851   0.243
28697W        W  990  37.833  30.535   2.730
28698W        W  991  17.799  15.240  12.535
28699W        W  992  26.072  26.073  13.387
28700W        W  993  17.225  41.359   2.417
28701W        W  994  21.546  13.135  13.404
28702W        W  995   9.269  22.663  12.557
28703W        W  996  11.752  29.968   4.761
28704W        W  997   9.831  22.009   2.255
28705W        W  998  38.547  16.155  13.370
28706W        W  999  26.504  30.558  12.992
28707W        W 1000  25.572  41.356   0.789
28708W        W 1001  16.084  21.719   4.813
28709W        W 1002  37.384  12.762   3.753
28710W        W 1003  41.328  29.465  14.903
28711W        W 1004   9.271  41.880   1.415
28712W        W 1005  27.467  39.937   4.133
28713W        W 1006  13.604  36.031  12.920
28714W        W 1007  11.752  15.615   4.256
28715W        W 1008   5.751  14.715   4.641
28716W        W 1009  38.408  35.037  13.454
28717W        W 1010  29.469  20.573  14.017
28718W        W 1011  29.542  40.927  11.915
28719W        W 1012  42.029  16.613   1.414
28720W        W 1013   1.911  13.281   1.830
28721W        W 1014  43.832  19.251  10.906
28722W        W 1015  30.501  32.598  14.882
28723W        W 1016   4.808  29.074   4.734
28724W        W 1017  33.425  30.156   3.839
28725W        W 1018  36.044  29.124   4.780
28726W        W 1019  43.279   3.282  10.984
28727W        W 1020  35.003  36.430   3.769
28728W        W 1021  33.895  31.040  11.501
28729W        W 1022  44.959  19.676  13.393
28730W        W 1023   9.890  34.424  11.500
28731W        W 1024  36.081   1.249  14.941
28732W        W 1025   9.854  24.191   4.717
28733W        W 1026  12.727  44.868   4.689
28734W        W 1027  29.968  43.938   0.301
28735W        W 1028  43.287  23.189   3.346
28736W        W 1029  37.857   5.696   2.820
28737W        W 1030  14.161   5.877  11.026
28738W        W 1031  37.905  35.073   2.190
28739W        W 1032  40.044  30.007  12.018
28740W        W 1033  39.375  31.092  12.825
28741W        W 1034  19.693  39.357   4.327
28742W        W 1035  16.652  29.926  11.859
28743W        W 1036   5.317  33.113  12.085
28744W        W 1037   4.242  31.427  13.447
28745W        W 1038  28.678   5.687   3.279
28746W        W 1039  18.068  26.696  14.821
28747W        W 1040  35.894   5.206   4.613
28748W        W 1041  43.940  16.649   1.417
28749W        W 1042   3.759  43.394  10.581
28750W        W 1043  44.474   5.778   2.846
28751W        W 1044  34.547  30.141   0.752
28752W        W 1045  24.540   4.271  11.496
28753W        W 1046  12.723  37.538  13.405
28754W        W 1047  34.420   7.193  14.488
28755W        W 1048  28.589   7.351  10.997
28756W        W 1049  22.154   6.764   4.242
28757W        W 1050   4.407  44.366   2.756
28758W        W 1051  37.949   7.844  14.900
28759W        W 1052  35.495  16.663   2.298
28760W        W 1053  16.256   2.424  10.499
28761W        W 1054  33.413  16.741  10.959
28762W        W 1055  41.347  28.974   3.824
28763W        W 1056  15.279  14.785   0.412
28764W        W 1057  34.379  29.434   1.295
28765W        W 1058  11.779  13.231   0.872
28766W        W 1059  14.640  18.158  12.515
28767W        W 1060   8.205  17.248  12.007
28768W        W 1061   0.754   9.292   3.223
28769W        W 1062  21.060   8.289  14.884
28770W        W 1063  42.404   2.856   1.784
28771W        W 1064  25.131  36.556  14.449
28772W        W 1065  20.141  15.711  11.865
28773W        W 1066   2.886  27.540  11.085
28774W        W 1067  32.392  38.425  12.831
28775W        W 1068  14.754  30.147  11.540
28776W        W 1069  14.293  30.498  13.881
28777W        W 1070  31.508  41.404   1.210
28778W        W 1071  38.862   7.831   1.276
28779W        W 1072  23.578  12.680  12.852
28780W        W 1073   1.440   6.403  14.416
28781W        W 1074  29.987  15.716  11.935
28782W        W 1075  27.007  33.412  12.416
28783W        W 1076  43.437  40.041   3.871
28784W        W 1077  36.566  19.633   0.913
28785W        W 1078  33.526  28.062  14.282
28786W        W 1079  29.471  37.360   4.734
28787W        W 1080  20.157   0.445   4.288
28788W        W 1081   9.384  27.487  12.420
28789W        W 1082  11.337  17.148   1.211
28790W        W 1083   7.234  11.630   0.414
28791W        W 1084  36.097  42.365   0.292
28792W        W 1085  30.583  15.190   4.626
28793W        W 1086  29.546  19.688   1.922
28794W        W 1087  33.463  43.398  10.490
28795W        W 1088   7.383  28.151   1.347
28796W        W 1089  11.814  10.360   2.365
28797W        W 1090  28.476  38.042  12.399
28798W        W 1091  30.109  14.697   3.189
28799W        W 1092  44.766  40.809  13.415
28800W        W 1093  20.611  14.604  13.888
28801W        W 1094  16.170  32.434  12.855
28802W        W 1095  32.925  22.505  14.510
28803W        W 1096  27.004  14.339  11.404
28804W        W 1097  11.273  28.667   2.370
28805W        W 1098  17.641  38.854   3.367
28806W        W 1099  23.672  28.502   1.232
28807W        W 1100  12.356   0.812  11.388
28808W        W 1101  30.929  18.076  11.070
28809W        W 1102  10.314  24.103   5.284
28810W        W 1103  25.033  13.621  12.923
28811W        W 1104  11.789  25.685   0.801
28812W        W 1105   9.322  27.042  11.909
28813W        W 1106  39.893   0.353   4.608
28814W        W 1107  30.053  13.260   1.403
28815W        W 1108  42.861  30.472  10.453
28816W        W 1109  32.047   6.805   3.829
28817W        W 1110  16.254  21.214  10.523
28818W        W 1111   9.209  15.672  11.974
28819W        W 1112  42.381  17.257   1.328
28820W        W 1113  15.683   5.795   1.738
28821W        W 1114  38.881  16.136  10.947
28822W        W 1115  41.536  40.366   3.318
28823W        W 1116  28.596   8.315  13.918
28824W        W 1117  28.052  36.495   0.399
28825W        W 1118  43.910  10.667   2.782
28826W        W 1119  16.237   3.235  11.451
28827W        W 1120  36.012  30.646  13.053
28828W        W 1121  40.810  34.962   4.603
28829W        W 1122  21.058  11.208   1.757
28830W        W 1123  37.962  44.940   4.196
28831W        W 1124   2.884  35.006   3.332
28832W        W 1125   9.831   9.201  14.830
28833W        W 1126  32.599   5.853   4.693
28834W        W 1127  36.959  21.572  12.953
28835W        W 1128  42.382  25.965   1.429
28836W        W 1129   6.306  14.724   1.384
28837W        W 1130  25.122  39.951  13.397
28838W        W 1131  10.718  29.936   2.775
28839W        W 1132  17.765  28.514   1.288
28840W        W 1133  24.675  38.067  14.445
28841W        W 1134  36.520  40.012   0.422
28842W        W 1135  27.484  11.791  11.384
28843W        W 1136  36.498  29.593  13.538
28844W        W 1137   0.456  15.684  14.345
28845W        W 1138  30.535   6.908  14.785
28846W        W 1139  31.997  32.505  11.388
28847W        W 1140  35.042  13.125  13.356
28848W        W 1141  19.722  19.053   2.715
28849W        W 1142  31.898  26.482   3.268
28850W        W 1143   7.787  41.323   4.655
28851W        W 1144  11.240   2.959  14.420
28852W        W 1145  22.558  40.339  13.348
28853W        W 1146  32.917  39.431  14.507
28854W        W 1147  26.492  31.969   3.757
28855W        W 1148  41.394  42.001   4.168
28856W        W 1149  38.477  32.100  14.295
28857W        W 1150  28.628  26.987   3.792
28858W        W 1151  14.180  38.955  11.967
28859W        W 1152  18.645   0.926   0.810
28860W        W 1153  18.222  41.332  13.960
28861W        W 1154  20.073  24.065   4.775
28862W        W 1155  23.082  18.126  13.885
28863W        W 1156   7.773  40.323   3.669
28864W        W 1157   4.232  14.337   4.318
28865W        W 1158  27.094  31.423  14.005
28866W        W 1159   5.377  23.592   4.755
28867W        W 1160  43.925  37.022   3.205
28868W        W 1161   0.810  35.039   0.300
28869W        W 1162  25.596  39.358   0.380
28870W        W 1163  11.170  18.776   0.804
28871W        W 1164   3.389  14.718  14.506
28872W        W 1165  44.286   2.360   0.852
28873W        W 1166  35.970   8.232  12.510
28874W        W 1167  29.458  10.285   1.918
28875W        W 1168  12.770  12.165   1.268
28876W        W 1169  31.141  44.878   1.413
28877W        W 1170  10.834   6.195   9.972
28878W        W 1171  25.137  43.381  13.882
28879W        W 1172  43.808  38.064  14.026
28880W        W 1173  38.455  16.309   3.638
28881W        W 1174   2.728  17.067   4.277
28882W        W 1175  25.664  20.675  10.594
28883W        W 1176   2.842   7.870  12.381
28884W        W 1177  18.297  24.019   4.633
28885W        W 1178  13.723  19.230  12.036
28886W        W 1179   3.394  14.814  10.610
28887W        W 1180  12.289  31.639  12.064
28888W        W 1181  15.281   3.803  13.439
28889W        W 1182  21.083  38.031  12.342
28890W        W 1183  26.168  44.762   1.396
28891W        W 1184  12.806  20.709  10.638
28892W        W 1185   7.807  34.553   0.882
28893W        W 1186  17.593   2.452   2.285
28894W        W 1187   3.920  22.610   3.651
28895W        W 1188  42.358  43.368   3.275
28896W        W 1189  17.282   5.861  13.334
28897W        W 1190  38.495  23.632   1.411
28898W        W 1191  30.572  15.232   1.344
28899W        W 1192  16.109  36.841  13.961
28900W        W 1193   6.847  13.613   4.278
28901W        W 1194  18.642  35.518  12.444
28902W        W 1195  35.602  32.508   4.205
28903W        W 1196  13.634  37.450  12.964
28904W        W 1197   6.208  33.483  10.430
28905W        W 1198  37.080   8.771  11.870
28906W        W 1199  22.078  33.970  11.386
28907W        W 1200  15.175  15.272   4.660
28908W        W 1201  13.258  18.082   5.247
28909W        W 1202  26.041  12.724   1.244
28910W        W 1203  21.656   8.725  10.533
28911W        W 1204  43.414  25.061  11.996
28912W        W 1205  44.793  41.353  10.483
28913W        W 1206  33.486   5.392   0.842
28914W        W 1207  35.947   9.884  12.923
28915W        W 1208  37.964  40.037   1.857
28916W        W 1209  40.011   5.928   0.335
28917W        W 1210  26.117  20.046  11.075
28918W        W 1211  23.575  32.484  10.599
28919W        W 1212  35.973  33.944   3.153
28920W        W 1213   5.865  43.477  13.827
28921W        W 1214   3.377   7.788   0.258
28922W        W 1215   6.723  10.714  13.043
28923W        W 1216  25.690  27.521  12.458
28924W        W 1217  42.288  11.221   0.440
28925W        W 1218  32.057  32.617  11.876
28926W        W 1219  43.443  13.288   0.351
28927W        W 1220  34.028  28.057  14.453
28928W        W 1221   6.251  12.710  12.428
28929W        W 1222  40.379  15.578   2.308
28930W        W 1223  22.205  26.529  10.606
28931W        W 1224   7.236  26.954   0.919
28932W        W 1225  21.673  19.087  12.071
28933W        W 1226  38.442   6.884   0.337
28934W        W 1227  13.680  40.881   3.183
28935W        W 1228  24.174   9.387  13.860
28936W        W 1229  41.375  14.770   2.845
28937W        W 1230  17.259  25.069  11.876
28938W        W 1231  32.140  28.441   0.340
28939W        W 1232  34.506   8.271  14.315
28940W        W 1233  24.088   6.904  14.987
28941W        W 1234  17.091  16.286  14.877
28942W        W 1235  19.645   1.269  14.294
28943W        W 1236  44.958  20.154  11.488
28944W        W 1237  32.896  22.655   4.607
28945W        W 1238  40.477  11.324   1.852
28946W        W 1239  40.043  28.638   0.813
28947W        W 1240  18.112  18.112   4.114
28948W        W 1241  26.594   6.215   0.909
28949W        W 1242  13.790  10.375  14.859
28950W        W 1243  34.067  41.949   0.278
28951W        W 1244  31.136   5.341  14.397
28952W        W 1245  15.746  26.500   2.397
28953W        W 1246   9.726  23.053   3.301
28954W        W 1247   5.802  19.536  11.992
28955W        W 1248  34.594  33.951   3.800
28956W        W 1249  21.656  12.227  11.001
28957W        W 1250  32.012   6.372   5.191
28958W        W 1251  18.743   2.804   4.770
28959W        W 1252  22.635  41.795   2.277
28960W        W 1253  29.027  34.916  13.036
28961W        W 1254   6.304  39.534   0.773
28962W        W 1255   0.861   9.179   3.781
28963W        W 1256  10.697  10.304  12.581
28964W        W 1257  30.617  20.706   4.782
28965W        W 1258  27.682   2.747  11.061
28966W        W 1259  11.180   9.234   2.807
28967W        W 1260   3.925  21.705   1.810
28968W        W 1261  10.172  20.052   3.376
28969W        W 1262  20.648  44.282  12.054
28970W        W 1263   9.687  13.290  12.401
28971W        W 1264  15.173  26.460   2.242
28972W        W 1265   8.328  36.419  10.591
28973W        W 1266  10.269   1.757  14.792
28974W        W 1267  44.381  16.181   3.825
28975W        W 1268  33.072  17.221   1.256
28976W        W 1269  20.552  41.486   3.644
28977W        W 1270  27.061   8.250  12.843
28978W        W 1271   8.708  32.592  11.918
28979W        W 1272  20.568   8.887   4.597
28980W        W 1273  34.918   0.251   1.710
28981W        W 1274  41.806  14.103  10.028
28982W        W 1275  36.511   7.408   4.633
28983W        W 1276   6.905   2.333   4.793
28984W        W 1277  29.633   6.715   1.730
28985W        W 1278  35.574  33.555   4.342
28986W        W 1279  41.872  11.708  13.494
28987W        W 1280  16.233   8.205  11.909
28988W        W 1281  25.103   1.397  12.484
28989W        W 1282  44.347  35.896   5.711
28990W        W 1283  38.878  24.064  11.092
28991W        W 1284  19.162  23.990  14.311
28992W        W 1285  37.057  27.646  11.895
28993W        W 1286   3.842  34.086   1.273
28994W        W 1287   6.393  38.465  14.876
28995W        W 1288  20.037  18.221  12.403
28996W        W 1289  24.599  36.047  14.893
28997W        W 1290  32.462  13.189   4.270
28998W        W 1291  36.576  25.704  11.565
28999W        W 1292   4.336  17.756  14.933
29000W        W 1293  18.125   4.701  10.606
29001W        W 1294  23.148  21.211   5.285
29002W        W 1295  27.534  36.090  10.942
29003W        W 1296  16.247   9.254  10.575
29004W        W 1297  39.505  31.152   0.381
29005W        W 1298   3.305  17.655  10.573
29006W        W 1299  34.462  10.183  12.005
29007W        W 1300  38.330  34.580  11.489
29008W        W 1301  33.104  16.218   3.806
29009W        W 1302  38.946  33.396   1.309
29010W        W 1303   6.289  42.482   1.222
29011W        W 1304  10.769  39.345   1.308
29012W        W 1305   3.390   3.342   3.670
29013W        W 1306  12.736  43.812   2.195
29014W        W 1307  44.453  23.597   3.666
29015W        W 1308  28.152  25.015  14.502
29016W        W 1309  29.133  13.731   1.370
29017W        W 1310  17.158  10.338   1.843
29018W        W 1311   9.167  38.852  11.045
29019W        W 1312   0.409  35.064   4.688
29020W        W 1313  18.647  17.197  10.047
29021W        W 1314  22.040  28.629  14.968
29022W        W 1315  16.791  34.026  14.862
29023W        W 1316  31.925   6.755  10.972
29024W        W 1317  40.417  30.446  14.908
29025W        W 1318  44.443  39.046   2.271
29026W        W 1319   6.694   4.300  11.599
29027W        W 1320  42.337  24.113  12.981
29028W        W 1321   1.891  12.792  12.514
29029W        W 1322   8.232  29.953  13.440
29030W        W 1323  21.590  28.031  10.416
29031W        W 1324   5.829  13.747   0.838
29032W        W 1325  25.554   6.705  10.471
29033W        W 1326  29.116  23.531   2.861
29034W        W 1327  34.909   2.801  14.945
29035W        W 1328   4.747  43.425   3.343
29036W        W 1329  32.569  27.531  10.959
29037W        W 1330   2.769  26.621  14.376
29038W        W 1331  29.450  37.570  14.992
29039W        W 1332   7.856   5.807  12.916
29040W        W 1333  16.255   1.774   1.302
29041W        W 1334  15.223  43.916   1.252
29042W        W 1335  43.328  44.860  13.943
29043W        W 1336  10.712  25.058   2.735
29044W        W 1337  43.317  29.667   2.302
29045W        W 1338  10.263  26.005   0.956
29046W        W 1339  31.904  39.530  13.537
29047W        W 1340  23.026  38.064   2.887
29048W        W 1341  17.760  38.820  10.931
29049W        W 1342  33.921   1.450  10.978
29050W        W 1343  10.138  22.030   0.404
29051W        W 1344   5.371  43.968   0.855
29052W        W 1345  22.680  10.855  12.864
29053W        W 1346  10.846  27.003   4.272
29054W        W 1347  12.713  29.500  13.020
29055W        W 1348  39.475  15.584   1.262
29056W        W 1349   3.295  36.938  13.363
29057W        W 1350  20.604  36.986  11.856
29058W        W 1351   7.731  28.187  10.434
29059W        W 1352   9.863   7.266  13.855
29060W        W 1353  26.169  12.819  11.017
29061W        W 1354  25.501  27.097  13.421
29062W        W 1355  34.527  33.977   1.405
29063W        W 1356  10.154  37.341   0.886
29064W        W 1357  44.771  25.549  10.554
29065W        W 1358  20.106  20.600   0.280
29066W        W 1359  43.871  15.207  13.802
29067W        W 1360   3.437  13.246  12.360
29068W        W 1361   0.440  44.314  14.002
29069W        W 1362  42.965  28.562  11.005
29070W        W 1363  10.177  43.889   0.389
29071W        W 1364   4.769   4.766   4.197
29072W        W 1365  41.968   6.855   1.363
29073W        W 1366  13.157  18.752  10.989
29074W        W 1367  42.986  38.973   4.207
29075W        W 1368  42.492  13.344  10.527
29076W        W 1369  24.215  38.502  11.053
29077W        W 1370  10.796  22.044   4.252
29078W        W 1371  20.559   7.223   1.788
29079W        W 1372  28.952  16.713  12.978
29080W        W 1373   0.936  12.318  14.800
29081W        W 1374  42.026  22.548   0.321
29082W        W 1375  33.603   0.814   4.797
29083W        W 1376  11.684  40.871  14.015
29084W        W 1377  13.691  13.309   3.728
29085W        W 1378  29.651   0.344  12.841
29086W        W 1379  28.482  20.129   3.720
29087W        W 1380  38.001   1.470  12.845
29088W        W 1381  18.196  11.341  11.417
29089W        W 1382  42.919  40.427  14.977
29090W        W 1383   3.312   5.884  13.887
29091W        W 1384   1.445  12.271  14.998
29092W        W 1385  33.043  11.779  13.943
29093W        W 1386  25.703  31.055  12.514
29094W        W 1387  15.266  24.103   2.697
29095W        W 1388  26.540  36.536   4.190
29096W        W 1389  24.616  11.775  13.861
29097W        W 1390  30.519  26.063  13.419
29098W        W 1391  12.830  32.419   1.910
29099W        W 1392  37.377  17.219   3.369
29100W        W 1393   1.956  26.200   3.694
29101W        W 1394  29.064  33.469  13.333
29102W        W 1395   2.391  24.008  13.365
29103W        W 1396  42.527   1.375  11.117
29104W        W 1397  21.511  11.639  10.968
29105W        W 1398   0.299  20.133   0.757
29106W        W 1399  26.128  28.537   4.278
29107W        W 1400  13.733  35.603   0.945
29108W        W 1401  23.173  42.814   1.795
29109W        W 1402  21.533  37.972  13.405
29110W        W 1403  40.366  28.936  11.088
29111W        W 1404  13.342  26.615   1.317
29112W        W 1405   3.897  34.370  12.389
29113W        W 1406  26.491  14.168  12.967
29114W        W 1407  35.933  42.985  13.338
29115W        W 1408  26.174  26.533   3.859
29116W        W 1409  21.564   0.830   0.891
29117W        W 1410  36.003  36.568   3.722
29118W        W 1411  37.472  41.948   1.360
29119W        W 1412  18.060  25.547  13.812
29120W        W 1413  11.297  13.206  14.904
29121W        W 1414  19.644   6.301   3.717
29122W        W 1415  38.937  13.710  13.935
29123W        W 1416   4.321   7.741   1.781
29124W        W 1417  11.729   3.242   0.826
29125W        W 1418  40.466  17.097  10.975
29126W        W 1419   2.233   0.337   2.253
29127W        W 1420  24.140  34.018  11.059
29128W        W 1421  39.543  34.039   1.810
29129W        W 1422   3.330   6.226   2.798
29130W        W 1423  42.866  41.430  11.011
29131W        W 1424   9.352  23.240   0.305
29132W        W 1425  19.699  19.639   0.877
29133W        W 1426  44.471  20.156  14.957
29134W        W 1427  31.573   4.700   1.714
29135W        W 1428  32.939  11.129   4.764
29136W        W 1429  11.361  12.187  11.371
29137W        W 1430  35.985  37.875  14.296
29138W        W 1431  43.782  44.417  10.611
29139W        W 1432  10.852  22.010  10.598
29140W        W 1433  19.626  27.452   2.833
29141W        W 1434  18.227  36.538  10.589
29142W        W 1435  27.623  30.913   1.897
29143W        W 1436  24.094  24.493   4.220
29144W        W 1437  16.219  15.170  13.808
29145W        W 1438  14.168  14.298  12.460
29146W        W 1439  41.934  36.525  10.558
29147W        W 1440  33.045   0.968   0.300
29148W        W 1441  23.728  25.672  12.502
29149W        W 1442   9.854  21.081  11.457
29150W        W 1443  11.152  37.948   3.324
29151W        W 1444  20.534  19.117   4.325
29152W        W 1445   2.811  18.137   4.782
29153W        W 1446  37.435  13.228  11.117
29154W        W 1447  32.001  22.065   4.727
29155W        W 1448  43.437   8.307  12.823
29156W        W 1449  25.197   6.849   2.886
29157W        W 1450  39.064  39.871   2.417
29158W        W 1451   9.300  29.667  12.885
29159W        W 1452   2.748  36.098  11.530
29160W        W 1453  13.128  43.385  12.928
29161W        W 1454   7.374  23.155  13.327
29162W        W 1455  38.903  37.406  13.849
29163W        W 1456   0.449  40.935   1.906
29164W        W 1457  20.604  44.831  13.384
29165W        W 1458  33.127  41.991  13.356
29166W        W 1459  18.778  42.920  10.018
29167W        W 1460   5.696   3.900  13.059
29168W        W 1461  11.830  11.685   4.330
29169W        W 1462  22.724  24.017   2.886
29170W        W 1463  16.593  40.468  10.928
29171W        W 1464  20.270  12.652   1.324
29172W        W 1465   6.363   6.351  12.834
29173W        W 1466  33.951  14.656   0.903
29174W        W 1467  20.140  36.457   1.242
29175W        W 1468  18.606  41.373   2.779
29176W        W 1469  38.015  13.790   3.358
29177W        W 1470   0.813  28.997  11.498
29178W        W 1471  31.568  21.027  12.014
29179W        W 1472  26.058  16.288   4.263
29180W        W 1473   7.753  42.008  14.792
29181W        W 1474  18.610  41.956  13.910
29182W        W 1475  39.954  33.887   3.829
29183W        W 1476  30.635  29.485  14.945
29184W        W 1477   2.297  15.736  14.507
29185W        W 1478   3.395   3.714  14.401
29186W        W 1479  20.554  40.012  11.462
29187W        W 1480   4.941   0.364   0.963
29188W        W 1481  29.963  30.478  14.822
29189W        W 1482  32.068   3.917   0.784
29190W        W 1483  17.074  10.293  12.954
29191W        W 1484  22.613   5.773   1.266
29192W        W 1485  40.305  32.996  11.541
29193W        W 1486   5.915  21.030   1.794
29194W        W 1487  20.236  40.411  11.094
29195W        W 1488  10.326  14.145  10.026
29196W        W 1489  39.519  44.943   4.689
29197W        W 1490  43.366  40.314   4.807
29198W        W 1491  10.286  40.913   4.708
29199W        W 1492   4.412  32.457  10.906
29200W        W 1493   1.747  30.914  14.473
29201W        W 1494  25.560  40.884   1.428
29202W        W 1495  38.433  28.091  13.041
29203W        W 1496  37.978  31.056  12.421
29204W        W 1497  36.462   3.457   2.186
29205W        W 1498  27.656  10.838  10.906
29206W        W 1499   9.316  39.350   4.233
29207W        W 1500  15.203  40.405  12.485
29208W        W 1501  35.046   8.339  11.518
29209W        W 1502  13.846  10.810  13.307
29210W        W 1503  41.376  20.167   0.324
29211W        W 1504  42.011  15.217   3.200
29212W        W 1505  42.023  34.466   4.183
29213W        W 1506  24.521  31.534   4.801
29214W        W 1507  35.548  44.475   2.750
29215W        W 1508  22.181  31.956  12.408
29216W        W 1509  25.699  34.611  13.049
29217W        W 1510  38.886  26.643   3.361
29218W        W 1511   8.229  26.542  13.024
29219W        W 1512  36.026  11.829   1.337
29220W        W 1513  39.948  16.630  11.122
29221W        W 1514   1.820  34.948   0.909
29222W        W 1515   4.323  27.107  13.462
29223W        W 1516   8.324   7.822  14.968
29224W        W 1517  13.145   2.247   3.696
29225W        W 1518  29.128  42.354   3.363
29226W        W 1519  25.038  42.418   2.383
29227W        W 1520  41.940  41.942   4.657
29228W        W 1521  37.864   7.378  10.559
29229W        W 1522  32.936   4.727   3.844
29230W        W 1523  13.653   1.790  10.519
29231W        W 1524  40.048  38.004  11.431
29232W        W 1525  21.552  20.167   2.902
29233W        W 1526  32.052  40.868   2.712
29234W        W 1527   8.210  42.388   4.763
29235W        W 1528  20.248  43.406  11.023
29236W        W 1529  22.544  43.991   0.965
29237W        W 1530  37.080  32.988  13.021
29238W        W 1531  35.058  11.665   1.742
29239W        W 1532   3.385  20.546  13.350
29240W        W 1533   0.809  32.131  13.528
29241W        W 1534  33.503  25.561   3.261
29242W        W 1535   2.894  24.045   4.656
29243W        W 1536  12.299  14.682   3.800
29244W        W 1537  26.490  24.632  13.844
29245W        W 1538  36.456   4.716  12.906
29246W        W 1539  14.157  28.444   2.238
29247W        W 1540  24.226  27.953  12.009
29248W        W 1541  30.052  39.938  14.840
29249W        W 1542  23.010  38.339  10.426
29250W        W 1543  35.544  12.325  14.456
29251W        W 1544  30.134  25.655  12.073
29252W        W 1545  12.725  28.080  14.978
29253W        W 1546  44.370  17.210  13.826
29254W        W 1547  21.687   8.838  14.380
29255W        W 1548   1.792   0.250   2.716
29256W        W 1549   8.323  37.079   0.438
29257W        W 1550  33.040  34.555  10.929
29258W        W 1551  15.817  33.106   1.243
29259W        W 1552  22.600  11.161  14.312
29260W        W 1553   3.716  15.239   3.797
29261W        W 1554  14.595  20.595  13.817
29262W        W 1555  19.722   6.790   3.864
29263W        W 1556  35.024  28.548  13.913
29264W        W 1557  38.013  10.641  10.902
29265W        W 1558  19.707  40.427   2.752
29266W        W 1559  32.968  26.459  13.512
29267W        W 1560  42.788   3.352   0.300
29268W        W 1561  19.194  30.982  10.081
29269W        W 1562  11.344  35.459   1.725
29270W        W 1563  20.113  17.117   2.251
29271W        W 1564  31.589   6.383   4.241
29272W        W 1565  17.728   8.713  14.025
29273W        W 1566  21.260  14.134  14.771
29274W        W 1567  29.154  28.647   4.113
29275W        W 1568  11.838   9.729  11.388
29276W        W 1569  15.271   0.762  12.355
29277W        W 1570   5.328   8.198  13.519
29278W        W 1571   7.294  29.654   1.249
29279W        W 1572  19.567  34.916  12.522
29280W        W 1573  28.645  30.502   1.855
29281W        W 1574  21.066  42.836   3.230
29282W        W 1575  32.519  31.584   0.888
29283W        W 1576  12.744  36.443  10.906
29284W        W 1577  10.775  13.146  10.927
29285W        W 1578   5.909  41.805  10.601
29286W        W 1579  31.972  20.536  10.529
29287W        W 1580  20.617   1.292   4.821
29288W        W 1581   9.313  10.354   4.308
29289W        W 1582  22.138  41.926  12.483
29290W        W 1583  14.257  24.987   2.194
29291W        W 1584  38.999   3.358   4.664
29292W        W 1585  36.869  43.461   4.291
29293W        W 1586  32.124   3.440  14.959
29294W        W 1587  43.329   3.868   0.882
29295W        W 1588  43.945  43.469   1.829
29296W        W 1589  29.638  23.649  14.887
29297W        W 1590  34.115  31.460  10.445
29298W        W 1591  29.082  13.318  13.412
29299W        W 1592   5.817   9.696  11.032
29300W        W 1593   6.233  27.508   1.289
29301W        W 1594   7.843  12.629   2.301
29302W        W 1595  35.475  29.434   3.311
29303W        W 1596  44.463  15.277  12.015
29304W        W 1597  25.586   5.761   1.289
29305W        W 1598  32.555   4.440  10.446
29306W        W 1599  18.618  22.089   9.977
29307W        W 1600  37.993   3.268   4.664
29308W        W 1601  21.594  39.389   0.735
29309W        W 1602  23.678  42.331  12.364
29310W        W 1603  33.547  21.150   3.383
29311W        W 1604  43.798  11.693  12.837
29312W        W 1605  44.866  31.930   4.826
29313W        W 1606   2.296  34.083  10.467
29314W        W 1607  39.510  35.359   3.236
29315W        W 1608  17.290  15.169   4.673
29316W        W 1609  19.646  23.619   1.883
29317W        W 1610  36.531  43.484   3.828
29318W        W 1611  34.100   1.741  11.089
29319W        W 1612   4.302   9.317   3.244
29320W        W 1613  33.602   7.680  10.899
29321W        W 1614  34.067  20.271  12.385
29322W        W 1615   7.335  17.645  14.916
29323W        W 1616  44.331  25.128   1.268
29324W        W 1617  40.798  11.840   1.914
29325W        W 1618  29.038   2.270  14.475
29326W        W 1619  12.287  25.477  13.310
29327W        W 1620   1.294  42.367   3.824
29328W        W 1621  39.439  26.560  14.343
29329W        W 1622  16.778  15.227   0.808
29330W        W 1623   1.732   5.277  11.389
29331W        W 1624  43.273  42.447  14.915
29332W        W 1625  38.885  40.993  11.476
29333W        W 1626  18.717  21.220   0.364
29334W        W 1627  15.164  24.048  12.988
29335W        W 1628   0.461  14.327   2.902
29336W        W 1629  32.957  16.307   2.363
29337W        W 1630   9.729   1.445  14.448
29338W        W 1631  28.055  24.505  12.015
29339W        W 1632  27.618  36.538   1.852
29340W        W 1633  12.729  12.667  14.360
29341W        W 1634  40.440  44.992   1.872
29342W        W 1635  24.133  22.169   1.299
29343W        W 1636  25.058  10.202   2.760
29344W        W 1637  24.670  26.578  10.068
29345W        W 1638  42.291  33.992   3.295
29346W        W 1639   6.235  43.363   0.904
29347W        W 1640  18.228  34.994  14.855
29348W        W 1641  25.482  12.243  12.081
29349W        W 1642  26.969  44.819  13.479
29350W        W 1643  38.477  34.039  10.404
29351W        W 1644  14.142  29.639  12.417
29352W        W 1645   8.687  10.841   1.435
29353W        W 1646  17.712  32.477  12.857
29354W        W 1647  20.591   6.783   2.321
29355W        W 1648   8.327  41.021   2.195
29356W        W 1649   6.384  37.929   1.435
29357W        W 1650  44.333  39.473   3.237
29358W        W 1651  26.066  16.208  14.876
29359W        W 1652  26.530   7.276  12.976
29360W        W 1653   6.823  40.512   4.624
29361W        W 1654   2.279   4.706   1.775
29362W        W 1655  18.152  35.949   2.833
29363W        W 1656  29.091  12.236   1.357
29364W        W 1657  42.866  18.601   0.258
29365W        W 1658  26.692  39.939  13.462
29366W        W 1659  21.648  17.299   4.342
29367W        W 1660  31.951  27.991  14.810
29368W        W 1661  26.607  29.645   4.243
29369W        W 1662  42.400  11.207   1.751
29370W        W 1663   6.780  18.709   3.220
29371W        W 1664  16.583  24.204   3.766
29372W        W 1665   5.687  15.612   1.820
29373W        W 1666  30.635   1.315  13.368
29374W        W 1667   7.773  11.720   1.818
29375W        W 1668   9.248  33.130   0.811
29376W        W 1669  16.766  15.794   2.352
29377W        W 1670   1.394   5.351  10.904
29378W        W 1671  17.180  24.031  13.308
29379W        W 1672  25.678  20.537   4.203
29380W        W 1673   6.733  30.965   3.154
29381W        W 1674  10.303  28.461  10.593
29382W        W 1675  31.971  23.180   4.187
29383W        W 1676  18.216  22.998   5.666
29384W        W 1677  36.863  18.075  14.379
29385W        W 1678   8.745  35.858  12.837
29386W        W 1679   1.885   4.727  13.399
29387W        W 1680  38.852   3.227  11.433
29388W        W 1681   0.854  42.963   1.223
29389W        W 1682  36.876  10.286  14.424
29390W        W 1683  44.883  39.546  13.817
29391W        W 1684  14.244  12.776  10.629
29392W        W 1685  14.183   0.310   3.333
29393W        W 1686  12.613  23.099   3.183
29394W        W 1687  12.142  14.731   1.402
29395W        W 1688  33.026  26.684  10.985
29396W        W 1689   9.226  13.661  10.930
29397W        W 1690  43.331  41.337  12.920
29398W        W 1691   4.350  17.666  12.469
29399W        W 1692  24.062  27.126   2.182
29400W        W 1693  38.009  25.011   3.328
29401W        W 1694  10.206  38.984  12.859
29402W        W 1695  14.329   3.756  11.030
29403W        W 1696  28.175  25.061  12.001
29404W        W 1697  16.184   4.766  11.520
29405W        W 1698   8.266  14.741  10.492
29406W        W 1699  41.946  20.138  14.007
29407W        W 1700   7.713  39.902  10.911
29408W        W 1701  32.937  40.508   2.795
29409W        W 1702  21.158  44.433  13.806
29410W        W 1703   3.440  34.001  12.571
29411W        W 1704  13.292  39.438  12.025
29412W        W 1705   3.418   0.762   4.821
29413W        W 1706  44.005  22.603  13.045
29414W        W 1707  20.118  41.422   2.370
29415W        W 1708  35.889  42.506   0.937
29416W        W 1709  16.744  28.148  12.988
29417W        W 1710  13.606  12.178  13.419
29418W        W 1711   8.704  24.561  14.322
29419W        W 1712  10.243  27.686   2.684
29420W        W 1713  27.050  19.632  12.518
29421W        W 1714   3.779  20.663  14.459
29422W        W 1715   2.289  26.671   3.772
29423W        W 1716  44.495  39.462  10.527
29424W        W 1717  31.505  43.850   2.213
29425W        W 1718  33.530  19.733  14.438
29426W        W 1719   9.283  11.164   0.733
29427W        W 1720  33.460  40.828  13.875
29428W        W 1721  42.412  25.489  13.863
29429W        W 1722  16.270  42.514   1.286
29430W        W 1723  30.927  36.550   0.941
29431W        W 1724  25.586  23.177  12.936
29432W        W 1725  13.702  38.021  14.420
29433W        W 1726  24.151  39.847  12.828
29434W        W 1727  19.150   6.374  13.048
29435W        W 1728  42.483  28.655  13.312
29436W        W 1729   0.403  30.641  11.385
29437W        W 1730  32.418  16.633   0.925
29438W        W 1731   7.373  21.674   3.646
29439W        W 1732  12.350  23.579  10.625
29440W        W 1733  24.496  30.102  13.364
29441W        W 1734  20.749  17.148  13.953
29442W        W 1735   5.841  25.583  14.407
29443W        W 1736   8.238  37.531  12.914
29444W        W 1737  35.437   0.267   3.309
29445W        W 1738  18.634  35.509   1.704
29446W        W 1739  39.546  21.211  14.795
29447W        W 1740  34.572  35.981  11.947
29448W        W 1741   0.751  32.566  12.037
29449W        W 1742   7.858  24.516  11.858
29450W        W 1743  15.130   9.196   0.406
29451W        W 1744  43.861   6.314  11.923
29452W        W 1745   4.879  16.675   2.209
29453W        W 1746  26.567  11.171   1.917
29454W        W 1747  19.210  34.013  12.422
29455W        W 1748  22.573  31.965   5.293
29456W        W 1749  15.225  36.551  14.350
29457W        W 1750  39.964  21.168  13.410
29458W        W 1751  34.922  37.465  14.363
29459W        W 1752  23.491  37.432  14.869
29460W        W 1753  35.561  10.343   4.737
29461W        W 1754  40.833   9.305   0.268
29462W        W 1755  21.134  37.556   3.706
29463W        W 1756   2.310   1.942   2.776
29464W        W 1757  31.413  34.462   2.710
29465W        W 1758  30.916  34.376   3.284
29466W        W 1759  26.698  38.012   1.224
29467W        W 1760  15.589   0.810   4.192
29468W        W 1761  22.074  26.075   0.393
29469W        W 1762  36.052  17.180   0.749
29470W        W 1763  20.102  35.382  12.550
29471W        W 1764   0.429  30.469   0.904
29472W        W 1765  29.624  26.990   1.819
29473W        W 1766  33.916  38.038  14.890
29474W        W 1767   0.323  21.134   3.844
29475W        W 1768  14.645  25.120   4.276
29476W        W 1769  40.493  34.572  13.962
29477W        W 1770  24.149  33.535   0.766
29478W        W 1771  31.525  41.891  10.539
29479W        W 1772  25.106  14.718   4.673
29480W        W 1773   6.335  23.572  14.488
29481W        W 1774  20.593   3.933  11.876
29482W        W 1775  41.941   3.435  14.996
29483W        W 1776  10.342  23.548  14.439
29484W        W 1777  23.691  26.500   0.436
29485W        W 1778  17.694  32.499   1.221
29486W        W 1779  31.110  38.395  12.420
29487W        W 1780  31.498   7.835  12.906
29488W        W 1781  40.457  29.995  10.606
29489W        W 1782   9.203  12.329  13.489
29490W        W 1783   4.371  13.800  10.645
29491W        W 1784   4.750  22.515   4.274
29492W        W 1785  21.108   9.667   4.230
29493W        W 1786  16.613  13.148  12.056
29494W        W 1787  44.956   9.683  10.449
29495W        W 1788  25.970  25.189   3.850
29496W        W 1789  27.986  20.031  12.514
29497W        W 1790  18.773  24.532   4.714
29498W        W 1791   1.272   4.363  12.062
29499W        W 1792  10.878  39.966   3.657
29500W        W 1793  40.456   6.268  14.804
29501W        W 1794  27.945  16.299  11.395
29502W        W 1795  15.661   9.783  12.407
29503W        W 1796  40.911   2.959   4.264
29504W        W 1797  17.566  27.512  14.843
29505W        W 1798  21.099   6.405   2.254
29506W        W 1799  43.785   6.337   3.194
29507W        W 1800  40.957  14.104  13.966
29508W        W 1801  15.099  13.691  14.336
29509W        W 1802   8.750   0.330   3.305
29510W        W 1803   0.762  30.932  14.013
29511W        W 1804  23.185  16.618  13.402
29512W        W 1805   3.305  22.172  12.563
29513W        W 1806  21.606   2.768  13.508
29514W        W 1807   6.365  24.703   4.340
29515W        W 1808  22.667  29.477   3.370
29516W        W 1809  40.962  10.186   0.872
29517W        W 1810   3.793   0.751  13.528
29518W        W 1811  28.551  10.857   4.321
29519W        W 1812  35.013  22.071   4.637
29520W        W 1813  33.436  39.416  10.510
29521W        W 1814  20.263   0.979   3.331
29522W        W 1815  32.606   3.413  14.911
29523W        W 1816  27.089  41.924   0.375
29524W        W 1817  43.294  32.993  14.377
29525W        W 1818  11.646  20.682   3.700
29526W        W 1819  29.045  26.109  11.459
29527W        W 1820   6.742   2.780  13.850
29528W        W 1821  34.443  44.757  14.315
29529W        W 1822  27.132  30.542  12.967
29530W        W 1823  31.481  11.324  10.086
29531W        W 1824  21.568  40.520   0.468
29532W        W 1825  43.894   5.756   0.397
29533W        W 1826   4.319  36.095   4.188
29534W        W 1827  12.851  32.397   0.819
29535W        W 1828  18.752   8.810   0.456
29536W        W 1829   1.755  10.362   0.876
29537W        W 1830  30.072  28.001  10.480
29538W        W 1831  24.495  35.091  11.862
29539W        W 1832  30.614  33.440   3.373
29540W        W 1833  13.171  35.497  12.908
29541W        W 1834  20.702  40.844   1.721
29542W        W 1835  37.021  36.870  12.824
29543W        W 1836  42.284  18.174   1.435
29544W        W 1837  27.181  25.488   3.317
29545W        W 1838   2.738   0.373   1.898
29546W        W 1839  44.868  15.588   2.689
29547W        W 1840  15.789  18.658   2.356
29548W        W 1841  40.025  31.113  10.936
29549W        W 1842  11.712  23.578  13.522
29550W        W 1843  42.492  44.351  13.934
29551W        W 1844   4.878   6.297   2.338
29552W        W 1845   4.226  37.943   2.266
29553W        W 1846  34.902  28.474   3.355
29554W        W 1847  14.658  43.396   4.162
29555W        W 1848  36.452  43.952   2.845
29556W        W 1849   2.360  36.991   0.743
29557W        W 1850  20.109  12.817  12.573
29558W        W 1851  15.715  25.704  11.371
29559W        W 1852  43.822   0.971  14.002
29560W        W 1853   8.296  29.574  14.398
29561W        W 1854   1.963  37.078  14.470
29562W        W 1855  20.606  11.817   1.355
29563W        W 1856  12.286   4.846   3.855
29564W        W 1857  11.370   9.349   0.759
29565W        W 1858  34.866  25.616  13.480
29566W        W 1859   6.268  33.508  11.493
29567W        W 1860  37.355   2.734  11.529
29568W        W 1861  12.273  14.798  14.763
29569W        W 1862   6.685  25.066  12.367
29570W        W 1863  18.651  35.981  11.582
29571W        W 1864  30.132   2.767  13.382
29572W        W 1865  32.471   2.793  13.419
29573W        W 1866  38.048  27.109  11.933
29574W        W 1867  17.784  18.657   0.821
29575W        W 1868  21.526  18.787   4.662
29576W        W 1869  31.929  25.693   4.196
29577W        W 1870  42.963  36.467   5.172
29578W        W 1871  28.110  23.989   3.803
29579W        W 1872  40.309   2.439   2.254
29580W        W 1873   9.805  37.943  11.378
29581W        W 1874  12.267  37.916   1.290
29582W        W 1875  28.118  19.738  13.369
29583W        W 1876  29.166  28.131  11.390
29584W        W 1877   3.782   3.371   4.707
29585W        W 1878  40.951  26.994   2.413
29586W        W 1879  22.066  24.094   1.844
29587W        W 1880   1.774  18.167   0.963
29588W        W 1881  28.524  38.962   4.782
29589W        W 1882   4.741   0.937   1.280
29590W        W 1883  10.158  37.948  12.886
29591W        W 1884  42.785   9.173  12.907
29592W        W 1885  13.284  27.058   4.665
29593W        W 1886  18.656  33.617  13.893
29594W        W 1887  27.052  23.161   4.598
29595W        W 1888  35.864  35.370   1.820
29596W        W 1889  25.124  15.293  12.898
29597W        W 1890  41.398   1.256  14.447
29598W        W 1891   7.263  12.264  11.957
29599W        W 1892  36.907  12.623   3.314
29600W        W 1893   3.822   5.293   3.788
29601W        W 1894  37.056  20.742  11.051
29602W        W 1895  40.369   6.346  11.040
29603W        W 1896  26.051  10.211   1.318
29604W        W 1897  39.900  35.106  14.858
29605W        W 1898  24.059  29.129   0.298
29606W        W 1899  33.001  10.342  11.408
29607W        W 1900  17.085  33.021  10.472
29608W        W 1901  33.011  21.177  14.829
29609W        W 1902  23.077   2.921   2.316
29610W        W 1903  38.036  22.155   2.900
29611W        W 1904   4.722  17.579  12.930
29612W        W 1905  16.081  26.985   2.870
29613W        W 1906  37.050  36.099  12.836
29614W        W 1907  44.900  20.575   3.734
29615W        W 1908  30.505  27.666  13.985
29616W        W 1909  17.106  21.142   0.848
29617W        W 1910   5.239  39.336   4.663
29618W        W 1911   9.315  34.010   2.886
29619W        W 1912  17.173   0.424  10.916
29620W        W 1913  44.927  13.142   2.389
29621W        W 1914  28.978  34.466   3.236
29622W        W 1915  32.984  33.593  14.936
29623W        W 1916  15.106  21.753  12.070
29624W        W 1917  42.365  19.220  10.412
29625W        W 1918  14.154  39.531  12.901
29626W        W 1919  12.263  18.128  12.872
29627W        W 1920  24.146  17.223  11.582
29628W        W 1921  40.950   2.734  14.475
29629W        W 1922  36.986   3.747   4.663
29630W        W 1923   0.805  26.092   4.726
29631W        W 1924  38.983   2.736   4.805
29632W        W 1925  31.904   5.353  14.488
29633W        W 1926  10.283   8.700  12.426
29634W        W 1927  18.228  44.905  14.331
29635W        W 1928   8.745  19.071   0.751
29636W        W 1929  23.166   9.859  14.917
29637W        W 1930  17.113  29.957   1.423
29638W        W 1931  15.183  35.479   4.345
29639W        W 1932   1.919  31.583  12.827
29640W        W 1933  42.374  42.799   4.726
29641W        W 1934  35.869   8.769  11.410
29642W        W 1935  42.029   6.702   4.602
29643W        W 1936  29.171  20.269   0.405
29644W        W 1937  13.756   9.304  12.912
29645W        W 1938  18.600  44.288  11.999
29646W        W 1939   1.446  17.159   2.404
29647W        W 1940  14.828   0.965   0.856
29648W        W 1941   1.362  19.088  11.402
29649W        W 1942  13.611  40.503  13.385
29650W        W 1943  33.095  38.888   4.145
29651W        W 1944  17.752  22.024  13.819
29652W        W 1945  36.994  17.160   4.768
29653W        W 1946   5.386  17.296  13.901
29654W        W 1947  14.677   8.306   0.384
29655W        W 1948   8.834  31.917   2.224
29656W        W 1949  23.690  31.584   4.181
29657W        W 1950  30.591  30.155   2.900
29658W        W 1951   4.245  13.799   4.669
29659W        W 1952   8.224  31.580  13.465
29660W        W 1953  12.360  44.917   0.826
29661W        W 1954  24.018  30.595  11.999
29662W        W 1955  42.803  19.555  12.893
29663W        W 1956   6.240  25.061  10.554
29664W        W 1957  23.078  26.616   3.350
29665W        W 1958   9.726  24.601  12.916
29666W        W 1959  41.299  14.253   3.327
29667W        W 1960  27.001  15.640   0.931
29668W        W 1961  26.955   0.921   1.336
29669W        W 1962  22.159  10.868   2.708
29670W        W 1963  42.340  14.716   3.675
29671W        W 1964  36.459  39.407   4.337
29672W        W 1965  32.448   1.938   4.653
29673W        W 1966  17.062   6.734   4.684
29674W        W 1967  11.652   0.384   4.310
29675W        W 1968  34.490  21.116   2.404
29676W        W 1969  27.106  35.939  10.438
29677W        W 1970  26.460  39.841  10.125
29678W        W 1971  35.413  23.086   3.835
29679W        W 1972  20.149  44.935   1.806
29680W        W 1973   3.226  29.109  12.879
29681W        W 1974  28.102  42.002  11.982
29682W        W 1975  31.438   9.168   4.230
29683W        W 1976  10.338  10.141   3.784
29684W        W 1977  16.783  30.569  13.926
29685W        W 1978  34.902  16.142  10.961
29686W        W 1979   8.686  29.101   0.345
29687W        W 1980  20.610   2.737  12.515
29688W        W 1981   5.310  22.146   2.397
29689W        W 1982  18.087  32.435   5.286
29690W        W 1983  42.852  36.858  14.355
29691W        W 1984  13.703  32.484   1.796
29692W        W 1985  13.262  41.336   5.209
29693W        W 1986  20.122  30.926   0.862
29694W        W 1987  40.506  29.147   0.861
29695W        W 1988  20.166  22.030   4.650
29696W        W 1989   7.685  12.636   0.879
29697W        W 1990  41.422  30.591  10.568
29698W        W 1991  38.004  41.427  11.401
29699W        W 1992  43.850  16.097  12.997
29700W        W 1993  17.567  36.984  11.113
29701W        W 1994  44.467  32.591  12.829
29702W        W 1995  13.163   3.292   4.223
29703W        W 1996  24.229  33.080  11.551
29704W        W 1997  26.486  14.219  11.860
29705W        W 1998  13.825  42.966   0.965
29706W        W 1999  22.160  11.867  14.462
29707W        W 2000  32.484   0.909  10.946
29708W        W 2001  22.652   0.265  13.046
29709W        W 2002   7.690  16.609  11.055
29710W        W 2003  36.389   6.744  10.423
29711W        W 2004  24.078   2.827   4.133
29712W        W 2005  21.200  31.979   1.372
29713W        W 2006  24.999  30.550  12.073
29714W        W 2007  34.571  17.772   2.834
29715W        W 2008  23.168  18.066   4.286
29716W        W 2009   0.869   6.424  10.542
29717W        W 2010  34.425   5.861   3.749
29718W        W 2011  27.031  22.154  11.023
29719W        W 2012  24.214  34.932   4.176
29720W        W 2013   3.810  16.216   1.781
29721W        W 2014  38.505  28.442  11.612
29722W        W 2015  10.140  18.202   1.797
29723W        W 2016  42.984   9.336  11.468
29724W        W 2017   4.739  40.906   2.679
29725W        W 2018  16.307   0.363   2.277
29726W        W 2019  38.047  41.901  12.499
29727W        W 2020  39.927  21.572   4.202
29728W        W 2021  10.777  36.354  11.108
29729W        W 2022  24.113  19.264   2.283
29730W        W 2023  25.550  25.203  11.070
29731W        W 2024  19.278  17.064  13.540
29732W        W 2025  24.129  41.394   2.415
29733W        W 2026   7.683  15.670  13.387
29734W        W 2027  32.450  42.865   0.389
29735W        W 2028  33.590  25.516  10.949
29736W        W 2029   9.730  14.629  13.429
29737W        W 2030  13.278   5.399  11.422
29738W        W 2031   6.372  35.104   3.320
29739W        W 2032  19.190   8.170   3.770
29740W        W 2033  10.308  24.547  14.284
29741W        W 2034  30.011  42.399   2.256
29742W        W 2035  38.367  31.014  12.824
29743W        W 2036   9.853   3.362  12.032
29744W        W 2037  25.217  36.987   0.383
29745W        W 2038  10.807  44.303  10.428
29746W        W 2039  15.230  40.440   1.722
29747W        W 2040   6.345   9.285  13.831
29748W        W 2041  17.737  32.404  10.984
29749W        W 2042   6.323  24.623   1.261
29750W        W 2043   2.448  22.096   4.648
29751W        W 2044   7.698  28.447  10.940
29752W        W 2045  22.696  29.981   4.726
29753W        W 2046  38.987  37.969  12.444
29754W        W 2047  35.527  36.999  12.993
29755W        W 2048   4.337  42.320  14.278
29756W        W 2049  24.089  27.169  10.631
29757W        W 2050  35.581  35.109  14.871
29758W        W 2051  13.699   8.176  14.949
29759W        W 2052   4.226  42.880  12.498
29760W        W 2053  23.606  21.022  12.478
29761W        W 2054  19.634   9.768   1.321
29762W        W 2055  23.492   0.365   2.289
29763W        W 2056   7.793  39.460   0.359
29764W        W 2057   2.909  41.399   4.721
29765W        W 2058   0.874   1.453   1.787
29766W        W 2059   7.788  29.554   4.143
29767W        W 2060  28.060   6.207  13.867
29768W        W 2061  13.231  30.623  13.507
29769W        W 2062  13.106  11.244   4.197
29770W        W 2063   3.407  18.758   1.387
29771W        W 2064  20.692  20.116   0.389
29772W        W 2065  15.196  15.723  12.442
29773W        W 2066  35.051   8.359  11.077
29774W        W 2067  15.213  10.314   2.247
29775W        W 2068  40.924  18.101   4.260
29776W        W 2069  15.721  26.068   0.954
29777W        W 2070   5.292  28.673   4.134
29778W        W 2071  25.197   7.408   1.432
29779W        W 2072  14.591  14.781   2.385
29780W        W 2073  30.974  28.155   5.133
29781W        W 2074  30.477  16.656   0.815
29782W        W 2075  20.765   6.220  13.349
29783W        W 2076   8.252  35.054  12.029
29784W        W 2077  42.354   5.363  11.063
29785W        W 2078  28.044   2.924   2.783
29786W        W 2079  13.239  35.078   1.924
29787W        W 2080  31.011  42.798  11.056
29788W        W 2081  30.144  18.631   2.796
29789W        W 2082  14.283  36.848  10.915
29790W        W 2083  25.573   9.323  12.533
29791W        W 2084  44.890  25.998  13.844
29792W        W 2085  23.007  27.049  11.086
29793W        W 2086   4.424  25.530   1.933
29794W        W 2087   4.273  38.377   2.300
29795W        W 2088   5.863   8.383   3.867
29796W        W 2089  17.655  27.970  14.019
29797W        W 2090   5.752  27.173   1.394
29798W        W 2091  38.517  34.409   0.354
29799W        W 2092   4.870  44.369   3.865
29800W        W 2093   1.939  25.595  11.904
29801W        W 2094  29.464  39.970  11.541
29802W        W 2095  27.947  16.091   1.758
29803W        W 2096  34.873  17.647   1.402
29804W        W 2097  33.918   5.324  12.991
29805W        W 2098  44.364  29.655  13.986
29806W        W 2099  32.914  21.123  12.979
29807W        W 2100  14.668  22.148  12.992
29808W        W 2101  12.794   7.867   0.956
29809W        W 2102  22.200   9.326  13.976
29810W        W 2103   0.462   4.841   1.430
29811W        W 2104  23.581  40.345   4.336
29812W        W 2105  18.090   2.737  14.866
29813W        W 2106  12.353  20.694  10.598
29814W        W 2107  36.435  15.820   1.914
29815W        W 2108   2.237  38.509  14.899
29816W        W 2109   6.186  35.503   0.302
29817W        W 2110  36.882  38.441  11.936
29818W        W 2111  32.013  35.429   0.743
29819W        W 2112  12.790  39.963  13.323
29820W        W 2113  40.009  31.958  13.363
29821W        W 2114  25.178   8.799   3.805
29822W        W 2115  20.659  42.475   2.874
29823W        W 2116   0.962   1.465   0.753
29824W        W 2117  30.098  15.232  14.815
29825W        W 2118   4.768  21.186  11.902
29826W        W 2119   4.357  10.854   4.612
29827W        W 2120  30.001  36.420   4.143
29828W        W 2121  24.534  24.216  12.448
29829W        W 2122  43.863  17.752  10.909
29830W        W 2123  32.965  40.459   4.309
29831W        W 2124  33.935  40.438   2.891
29832W        W 2125   3.755  33.586   0.253
29833W        W 2126  23.543  15.716  11.968
29834W        W 2127  15.326  13.308   2.215
29835W        W 2128  18.160  42.884   3.334
29836W        W 2129  10.263   4.943   4.665
29837W        W 2130  40.951  33.908   1.239
29838W        W 2131  32.400  23.037  12.928
29839W        W 2132  36.082  31.497  10.909
29840W        W 2133  37.492  34.874  11.602
29841W        W 2134   7.359  27.064  14.924
29842W        W 2135   3.220   6.788   2.761
29843W        W 2136  21.120  34.015   3.764
29844W        W 2137  15.710  38.991   5.159
29845W        W 2138   3.347  34.019   3.174
29846W        W 2139   7.685  27.529   2.190
29847W        W 2140  30.501  41.931   1.365
29848W        W 2141  27.016  24.673   2.893
29849W        W 2142  11.373  24.991   2.224
29850W        W 2143  44.470  20.162   1.378
29851W        W 2144  31.011  12.187  10.634
29852W        W 2145  28.567  43.906  11.084
29853W        W 2146   6.299  27.992   0.247
29854W        W 2147   1.754   7.177   1.893
29855W        W 2148   7.262  29.008   0.321
29856W        W 2149   9.272   4.822   0.839
29857W        W 2150  32.113  40.845  11.509
29858W        W 2151   1.745   3.423  12.513
29859W        W 2152  44.941  28.550   4.741
29860W        W 2153  17.694   2.290  10.900
29861W        W 2154  16.240   6.259  11.011
29862W        W 2155  17.585   5.334   1.361
29863W        W 2156   6.801  42.445   2.185
29864W        W 2157  38.514   9.177   4.280
29865W        W 2158  27.551  30.567   4.335
29866W        W 2159  27.670  15.767   0.732
29867W        W 2160   2.825  19.221   1.740
29868W        W 2161   0.756   5.865  11.064
29869W        W 2162  41.040  10.221  12.923
29870W        W 2163  21.092  38.027   2.832
29871W        W 2164  26.027   6.262   1.718
29872W        W 2165  30.484   8.162   2.269
29873W        W 2166  23.671  39.956  11.551
29874W        W 2167  33.908  34.408  11.466
29875W        W 2168   1.938  24.659   0.873
29876W        W 2169  22.667  15.170  13.994
29877W        W 2170   5.819   7.332   4.185
29878W        W 2171   8.740  17.645   1.703
29879W        W 2172  22.202   9.280  14.915
29880W        W 2173  17.694  24.182   3.865
29881W        W 2174  12.187  16.684   4.267
29882W        W 2175  39.513   5.319  11.598
29883W        W 2176  37.934   0.938   3.212
29884W        W 2177  13.777   4.222   9.511
29885W        W 2178  30.428  20.692   1.783
29886W        W 2179  10.384  43.861  14.833
29887W        W 2180  10.241  17.615   2.864
29888W        W 2181  10.790  10.688  11.055
29889W        W 2182   2.359  35.489   0.855
29890W        W 2183  25.140  13.729  11.518
29891W        W 2184  19.544   2.929   0.380
29892W        W 2185   0.835  13.707  13.524
29893W        W 2186  35.053   1.820  12.841
29894W        W 2187  28.186  11.806  13.032
29895W        W 2188  34.927  37.455   2.284
29896W        W 2189  13.770  37.833  13.391
29897W        W 2190  10.825   1.255  13.810
29898W        W 2191  40.425  11.865   3.664
29899W        W 2192  32.613  33.452  13.402
29900W        W 2193  42.834  43.842  14.799
29901W        W 2194  14.333  22.547   4.779
29902W        W 2195  42.486  17.244   5.579
29903W        W 2196  26.703   5.289  14.809
29904W        W 2197  31.012   0.852   3.221
29905W        W 2198   5.752  26.649  13.862
29906W        W 2199   5.757  17.220   0.762
29907W        W 2200  15.642  25.512  10.504
29908W        W 2201  19.167   8.209   4.184
29909W        W 2202   4.213  12.763  10.906
29910W        W 2203  15.265  35.531   3.710
29911W        W 2204  10.877  20.034   1.830
29912W        W 2205   9.745  24.074  14.386
29913W        W 2206  43.020  39.889   3.186
29914W        W 2207  25.678  38.935   1.317
29915W        W 2208  44.454  35.428   3.178
29916W        W 2209  33.093  35.098  12.372
29917W        W 2210  41.852  29.954   3.712
29918W        W 2211   0.953  28.555  13.958
29919W        W 2212  30.534   0.781  13.823
29920W        W 2213  29.106  37.364  13.421
29921W        W 2214  35.442   2.950  13.386
29922W        W 2215  41.995  19.609   0.453
29923W        W 2216   6.846  24.122  10.986
29924W        W 2217  29.545  43.341   3.860
29925W        W 2218  38.476   7.297   2.240
29926W        W 2219  18.742  18.139  11.441
29927W        W 2220   5.720   0.755  12.339
29928W        W 2221   0.897  41.044   3.359
29929W        W 2222  42.022  22.085  10.462
29930W        W 2223  33.936  13.618  12.097
29931W        W 2224  37.542  20.128  13.903
29932W        W 2225  17.588  13.233  13.364
29933W        W 2226   4.293  28.614   0.883
29934W        W 2227   5.847  15.204  12.511
29935W        W 2228  16.204  22.102   4.207
29936W        W 2229  27.678  35.426  12.485
29937W        W 2230  20.180  17.260  12.351
29938W        W 2231   8.257   5.907   3.184
29939W        W 2232  28.025  26.664   0.954
29940W        W 2233   9.182  31.450  14.333
29941W        W 2234  40.915   3.373   3.168
29942W        W 2235  26.193  18.573   4.222
29943W        W 2236  35.562  40.863   0.825
29944W        W 2237  19.185   5.728  12.870
29945W        W 2238  12.725   2.248   5.119
29946W        W 2239   2.851  40.306  13.490
29947W        W 2240  43.367   7.687   1.723
29948W        W 2241  19.535  10.177  11.086
29949W        W 2242   5.402  25.712  10.930
29950W        W 2243  19.616  25.567   2.295
29951W        W 2244   7.386   4.415   1.859
29952W        W 2245  23.999  29.171  10.044
29953W        W 2246   3.351   6.738   2.241
29954W        W 2247  31.046   7.688  12.445
29955W        W 2248  24.628   7.402  11.023
29956W        W 2249  18.608   5.244   0.450
29957W        W 2250  43.989  20.687   1.322
29958W        W 2251  16.667  29.607   2.223
29959W        W 2252  26.974  38.023  12.051
29960W        W 2253  18.782  34.511   0.414
29961W        W 2254  32.500   8.867   5.163
29962W        W 2255  20.543  32.489  11.882
29963W        W 2256  21.212  24.501   5.229
29964W        W 2257   8.794  36.865  10.592
29965W        W 2258   8.798   8.722   2.338
29966W        W 2259  19.231  13.766   4.720
29967W        W 2260  12.797  29.430  13.516
29968W        W 2261  26.595   7.828  13.424
29969W        W 2262  21.533  34.017  14.423
29970W        W 2263  34.464   0.469   4.685
29971W        W 2264  14.659   2.359   3.762
29972W        W 2265   1.421  44.859  12.473
29973W        W 2266   3.449   1.861  14.408
29974W        W 2267  41.335  24.119   1.310
29975W        W 2268  38.505  26.480  12.506
29976W        W 2269  19.051  20.726  11.089
29977W        W 2270  39.455  17.697   1.850
29978W        W 2271  22.144   6.416   2.310
29979W        W 2272  12.840  32.929  12.859
29980W        W 2273   7.683  33.623   4.712
29981W        W 2274  43.774  43.764  11.401
29982W        W 2275  44.348  33.054   5.172
29983W        W 2276   4.420  22.631  13.463
29984W        W 2277   7.693  39.549  12.347
29985W        W 2278  18.663  23.082   2.768
29986W        W 2279  30.441  16.273  14.801
29987W        W 2280  12.851   1.748   4.695
29988W        W 2281  30.139  32.482  12.396
29989W        W 2282  34.079  20.185   1.899
29990W        W 2283  15.325   9.671  13.432
29991W        W 2284   7.790  20.261   2.691
29992W        W 2285  39.006  25.634  10.533
29993W        W 2286  29.030  16.116   1.254
29994W        W 2287  39.033   6.272  14.298
29995W        W 2288  20.601   4.766   1.278
29996W        W 2289   2.742   3.248   0.890
29997W        W 2290  29.998   5.733   0.390
29998W        W 2291   6.237   7.844  14.348
29999W        W 2292   1.843  29.033   0.863
30000W        W 2293  37.346   0.791   1.712
30001W        W 2294  41.509  19.129  14.315
30002W        W 2295   1.276  19.248  14.851
30003W        W 2296   9.660  31.593   4.671
30004W        W 2297  44.431  10.313  11.891
30005W        W 2298   1.851  41.946   3.293
30006W        W 2299  30.127  29.091   2.345
30007W        W 2300  35.068  14.255   1.811
30008W        W 2301  40.372  32.580   3.832
30009W        W 2302  11.350  16.736  10.586
30010W        W 2303  44.884  29.539   3.678
30011W        W 2304  17.705  21.045  11.936
30012W        W 2305  30.060  17.663   4.351
30013W        W 2306  29.459  21.693  12.028
30014W        W 2307  17.089  38.441   3.783
30015W        W 2308   2.243  17.192  12.896
30016W        W 2309  21.644  15.783   0.931
30017W        W 2310   3.760  18.571   4.658
30018W        W 2311  18.726  11.341   4.746
30019W        W 2312   6.403   8.252   1.830
30020W        W 2313  17.302  34.513   3.303
30021W        W 2314   1.870   7.275  11.020
30022W        W 2315  28.461  23.572  11.438
30023W        W 2316   1.267  29.136  12.970
30024W        W 2317  41.538   2.387   4.617
30025W        W 2318  36.008  29.492  14.952
30026W        W 2319  20.683  27.181   2.816
30027W        W 2320  33.961   9.694  12.094
30028W        W 2321  24.176  44.501   3.298
30029W        W 2322   3.412  30.985  13.925
30030W        W 2323   7.803   6.399   3.380
30031W        W 2324  17.149  20.028  14.461
30032W        W 2325  27.142  29.993  11.954
30033W        W 2326   4.783  44.909   4.800
30034W        W 2327  30.579  27.636   4.120
30035W        W 2328  38.378  36.925  13.842
30036W        W 2329  23.232  43.765   1.435
30037W        W 2330  32.112  13.704   2.793
30038W        W 2331  24.597  43.890  12.431
30039W        W 2332  37.066   0.851   1.855
30040W        W 2333  17.150  14.212   0.855
30041W        W 2334   5.286  19.605   3.326
30042W        W 2335  16.647  34.918   1.829
30043W        W 2336  19.111  11.180   1.393
30044W        W 2337   8.848  31.149  10.941
30045W        W 2338   6.373  34.485   0.766
30046W        W 2339   4.796   5.315   0.932
30047W        W 2340   1.847   2.429  10.572
30048W        W 2341  16.190  38.886   3.737
30049W        W 2342   0.426  17.257  12.044
30050W        W 2343  17.115  29.996  12.493
30051W        W 2344  29.992  12.687   0.263
30052W        W 2345  43.359  44.902   3.342
30053W        W 2346  25.575  22.686  14.442
30054W        W 2347   8.365  18.235   0.936
30055W        W 2348  20.267  39.352  10.580
30056W        W 2349   2.366  29.144  11.104
30057W        W 2350  29.042   8.810  13.001
30058W        W 2351  42.791  33.003  10.470
30059W        W 2352  11.319  10.678  12.001
30060W        W 2353  16.661  22.055   3.863
30061W        W 2354  23.109  31.646  13.885
30062W        W 2355  35.942  11.195   3.277
30063W        W 2356  41.318  42.793   2.818
30064W        W 2357  32.049   9.800  13.475
30065W        W 2358   6.850  34.975  12.445
30066W        W 2359  17.700   2.297  14.391
30067W        W 2360   1.785   5.822  12.856
30068W        W 2361   7.702  18.549  13.357
30069W        W 2362  17.075  26.033   1.311
30070W        W 2363  34.882  30.046  14.382
30071W        W 2364  43.376   1.873   5.262
30072W        W 2365  34.967  17.201   5.092
30073W        W 2366  33.124  39.945   0.378
30074W        W 2367  23.498  44.979   0.367
30075W        W 2368  23.697  42.939   3.246
30076W        W 2369   3.326  29.434  14.794
30077W        W 2370   2.777   6.747  10.497
30078W        W 2371  19.554  43.922  11.087
30079W        W 2372  42.961  32.423   4.348
30080W        W 2373   0.346  33.055   3.232
30081W        W 2374   3.290  11.737  14.988
30082W        W 2375   4.805   3.303   4.724
30083W        W 2376  10.382  14.697   4.760
30084W        W 2377  29.528  22.552   2.673
30085W        W 2378  36.901  44.833   0.387
30086W        W 2379   6.204  42.824  10.969
30087W        W 2380  28.472  23.604   4.787
30088W        W 2381  36.052  43.514  12.484
30089W        W 2382  26.177  11.761  12.066
30090W        W 2383  18.111  29.657  12.974
30091W        W 2384  30.590  18.080  11.554
30092W        W 2385  22.016  25.610  14.981
30093W        W 2386  37.571  26.059  11.006
30094W        W 2387   9.274  25.615  13.471
30095W        W 2388   9.185  38.000   2.234
30096W        W 2389  36.966  30.956  14.787
30097W        W 2390   1.955   5.793  14.453
30098W        W 2391   0.863  21.211  14.888
30099W        W 2392   9.230  21.056  12.470
30100W        W 2393  42.335  20.078   2.738
30101W        W 2394  17.244  27.454  14.474
30102W        W 2395   0.322  16.713   4.139
30103W        W 2396  22.522  43.380   1.695
30104W        W 2397   4.374  39.465  11.391
30105W        W 2398   9.668  18.631   2.184
30106W        W 2399   8.667   7.696  10.605
30107W        W 2400  14.709   0.909  12.018
30108W        W 2401  13.809  23.054  12.030
30109W        W 2402  32.475  24.592   4.620
30110W        W 2403  30.641  17.269  10.975
30111W        W 2404  31.063  33.554  13.492
30112W        W 2405   6.737   0.466   4.132
30113W        W 2406  15.207  19.628  12.389
30114W        W 2407   9.197  16.740  11.479
30115W        W 2408   7.703   9.154  11.080
30116W        W 2409  23.493  25.617   0.753
30117W        W 2410  34.887  22.053  13.888
30118W        W 2411  15.297   3.731  12.860
30119W        W 2412  12.760  42.778  14.828
30120W        W 2413  23.078  40.887  10.513
30121W        W 2414  39.810  36.850  11.122
30122W        W 2415  24.032   2.452   2.762
30123W        W 2416  44.824  44.353   3.648
30124W        W 2417  17.189   0.952   1.901
30125W        W 2418   4.699  27.473  13.343
30126W        W 2419  41.798  14.806   2.884
30127W        W 2420   7.249  28.647  14.443
30128W        W 2421   5.325  32.973  14.815
30129W        W 2422  39.480  28.515  10.462
30130W        W 2423  41.519  31.415   1.445
30131W        W 2424  20.547   8.298   1.381
30132W        W 2425  31.491  13.148  14.763
30133W        W 2426  31.437  31.084  10.623
30134W        W 2427  12.634  36.427  13.043
30135W        W 2428  26.575  25.979   0.267
30136W        W 2429  22.615   6.725  10.617
30137W        W 2430  16.212  32.020  14.406
30138W        W 2431  18.716  17.156   2.683
30139W        W 2432  40.965  28.466   3.219
30140W        W 2433  27.627  19.734   1.367
30141W        W 2434  29.127  39.918  13.538
30142W        W 2435  12.188  40.422   1.791
30143W        W 2436   0.429  44.362  13.509
30144W        W 2437   0.346  21.640  14.469
30145W        W 2438  22.141   3.257   1.275
30146W        W 2439  31.070  36.389  14.771
30147W        W 2440  22.539  21.074  13.021
30148W        W 2441   5.206  21.060   4.615
30149W        W 2442  31.501   4.936   1.350
30150W        W 2443  37.914  29.057   3.729
30151W        W 2444  28.011  41.383  10.042
30152W        W 2445   6.806  30.083  11.974
30153W        W 2446   3.735   5.876   3.732
30154W        W 2447  42.793  19.113   5.231
30155W        W 2448  43.479  14.625  11.424
30156W        W 2449  28.653  36.917   0.853
30157W        W 2450  28.659  34.495   3.713
30158W        W 2451  18.279  26.004  11.064
30159W        W 2452  41.301  31.507   2.662
30160W        W 2453  24.651  10.682   4.815
30161W        W 2454  31.079  34.038  11.611
30162W        W 2455   4.757   8.359  14.797
30163W        W 2456  26.492  38.911   0.368
30164W        W 2457  38.479  43.425  13.953
30165W        W 2458  33.624   5.716  12.009
30166W        W 2459   4.767  32.566   3.672
30167W        W 2460  16.316  20.626  14.975
30168W        W 2461   0.325   5.848   2.760
30169W        W 2462  14.309  27.959  14.860
30170W        W 2463  42.445  28.666  12.359
30171W        W 2464  31.592  42.991  12.844
30172W        W 2465   4.764  13.346  11.385
30173W        W 2466  27.529  27.087  11.081
30174W        W 2467  40.012   6.392   0.852
30175W        W 2468  23.081  29.939  12.981
30176W        W 2469  16.727  34.974  12.556
30177W        W 2470  34.533  37.399  10.442
30178W        W 2471   5.216   3.402  12.945
30179W        W 2472  40.402  41.407  10.464
30180W        W 2473  23.605   9.214   2.299
30181W        W 2474  19.695  32.973  12.571
30182W        W 2475  18.256  14.200   1.384
30183W        W 2476  25.140   0.389   4.276
30184W        W 2477  22.731  30.127  12.850
30185W        W 2478  36.011  24.186   4.164
30186W        W 2479   1.396   5.724   1.787
30187W        W 2480  30.148  29.099  11.952
30188W        W 2481  19.752  41.447   1.317
30189W        W 2482  36.568   2.432  14.934
30190W        W 2483  14.333  23.586   4.817
30191W        W 2484  21.525  25.642   4.333
30192W        W 2485  16.717  11.756   2.324
30193W        W 2486   3.369   3.828   1.833
30194W        W 2487  38.054  10.232   1.356
30195W        W 2488  29.636  36.516  13.363
30196W        W 2489  22.073   2.256  13.847
30197W        W 2490  33.477  41.020  12.546
30198W        W 2491  42.930  34.904   1.695
30199W        W 2492  43.933  38.525   3.651
30200W        W 2493  12.744  37.086  14.875
30201W        W 2494  29.001  13.649  13.829
30202W        W 2495  11.236  26.073  12.861
30203W        W 2496  38.546  20.120   1.733
30204W        W 2497  11.154   5.910  12.939
30205W        W 2498  24.129  17.232  12.896
30206W        W 2499  36.993  32.569  10.977
30207W        W 2500   9.280  44.757   1.855
30208W        W 2501   1.952  44.304  14.436
30209W        W 2502  30.573  26.093  12.862
30210W        W 2503  20.061  29.956   3.379
30211W        W 2504  27.636   4.344   3.820
30212W        W 2505   9.325  29.087  10.988
30213W        W 2506  39.526  31.140  12.455
30214W        W 2507   4.721  16.766   0.346
30215W        W 2508  36.450  27.543   4.215
30216W        W 2509  43.964  36.469  10.075
30217W        W 2510  32.021   1.759   1.245
30218W        W 2511  34.398  34.537  10.921
30219W        W 2512  16.296  39.383   0.842
30220W        W 2513  29.137  41.494   2.752
30221W        W 2514  24.086  41.916   4.789
30222W        W 2515  15.686   1.968   2.702
30223W        W 2516  37.944   5.703   3.811
30224W        W 2517  17.194   4.262  11.557
30225W        W 2518  16.139  16.726   3.315
30226W        W 2519   0.874  28.981   4.659
30227W        W 2520  15.618  43.338   2.400
30228W        W 2521  42.493  32.122   3.871
30229W        W 2522  35.588   2.443   1.885
30230W        W 2523  29.577  40.885   0.421
30231W        W 2524  40.005  37.895  14.834
30232W        W 2525  32.002  35.906   1.912
30233W        W 2526  11.183  21.737   0.298
30234W        W 2527  17.149  25.120   4.159
30235W        W 2528  10.341  15.657  11.956
30236W        W 2529  20.044  27.620  13.547
30237W        W 2530  11.367  15.146  10.992
30238W        W 2531  30.963  36.591   1.259
30239W        W 2532  23.621  19.541  14.455
30240W        W 2533   8.670  26.179  14.791
30241W        W 2534  21.075  23.111   1.838
30242W        W 2535  43.299   8.779   4.201
30243W        W 2536  28.637  23.016   4.732
30244W        W 2537  14.631  21.247   0.245
30245W        W 2538  29.622  13.290   4.765
30246W        W 2539  26.955  17.129  10.512
30247W        W 2540   4.410  37.059   0.482
30248W        W 2541  15.613  20.247   2.283
30249W        W 2542  14.119  22.500   2.295
30250W        W 2543   5.692  40.990   1.864
30251W        W 2544  44.492  29.987  10.019
30252W        W 2545  25.040  40.408  11.377
30253W        W 2546  18.627  26.652   0.925
30254W        W 2547  14.822   8.752   1.343
30255W        W 2548   0.261  33.877  13.328
30256W        W 2549  13.311   7.203  13.535
30257W        W 2550  15.774  44.918  14.988
30258W        W 2551  26.985  24.091   3.156
30259W        W 2552  28.561  27.177   1.409
30260W        W 2553   4.362  37.047  11.522
30261W        W 2554   1.891  21.057   5.272
30262W        W 2555  40.437  11.630   1.703
30263W        W 2556  16.123  16.683  10.536
30264W        W 2557  13.293   7.249   3.732
30265W        W 2558   8.202  31.942   1.420
30266W        W 2559   8.334  21.226  11.516
30267W        W 2560  43.357  17.305  10.982
30268W        W 2561   9.666   1.325  14.857
30269W        W 2562  13.683  32.407  11.884
30270W        W 2563  29.168  24.192   2.878
30271W        W 2564  35.558   5.345  11.028
30272W        W 2565  43.498  42.950  13.349
30273W        W 2566  22.027   2.418  14.900
30274W        W 2567   4.387  32.445   2.212
30275W        W 2568  15.803  22.733  11.123
30276W        W 2569   3.221  28.578  14.371
30277W        W 2570  11.147  15.149   3.826
30278W        W 2571  17.783  43.464  13.875
30279W        W 2572  34.482  35.920  13.350
30280W        W 2573  44.918  37.934  11.411
30281W        W 2574  44.453  40.469   4.200
30282W        W 2575  35.991   8.288   0.845
30283W        W 2576  34.486  22.663   2.207
30284W        W 2577  39.393  15.226   1.747
30285W        W 2578  42.794  39.919  12.341
30286W        W 2579   6.193  14.262   2.265
30287W        W 2580   7.400  18.781   4.618
30288W        W 2581   5.749   2.933   0.865
30289W        W 2582  16.598  17.244   4.202
30290W        W 2583   5.360  40.916   1.425
30291W        W 2584  28.472  14.188   0.449
30292W        W 2585  16.751  37.552   3.364
30293W        W 2586  10.792  35.922   4.167
30294W        W 2587   8.217   3.735  14.948
30295W        W 2588  15.328  26.499   0.774
30296W        W 2589   0.788  15.177   2.204
30297W        W 2590   5.344   1.771  10.964
30298W        W 2591   7.837   5.299  11.532
30299W        W 2592  33.978  33.064  13.883
30300W        W 2593  32.464  16.582  11.510
30301W        W 2594  18.165  16.100  13.367
30302W        W 2595  10.637   9.237  10.941
30303W        W 2596  21.518  16.088   3.215
30304W        W 2597   4.941   4.293   0.339
30305W        W 2598  24.192  20.658   4.317
30306W        W 2599  28.939  11.298   0.271
30307W        W 2600  11.758  38.512   1.827
30308W        W 2601  24.659  10.240  12.020
30309W        W 2602   6.330  15.319   3.848
30310W        W 2603  16.228  44.881  13.355
30311W        W 2604  31.490  31.079  12.409
30312W        W 2605  12.826  18.234   0.801
30313W        W 2606   4.742  32.465  10.426
30314W        W 2607  39.847  17.142   0.378
30315W        W 2608  24.221  18.161  10.525
30316W        W 2609   8.279   0.317   3.800
30317W        W 2610  24.075  16.746   0.288
30318W        W 2611  22.180  22.721  14.832
30319W        W 2612   0.750  26.554   3.638
30320W        W 2613  43.900  33.984   2.181
30321W        W 2614  32.929  23.240  14.981
30322W        W 2615  41.331   4.787   2.693
30323W        W 2616  12.143  43.444  14.816
30324W        W 2617  33.877  20.038  13.425
30325W        W 2618  29.641  44.263  13.375
30326W        W 2619  17.630   9.866  12.535
30327W        W 2620   6.241   1.357  12.380
30328W        W 2621  33.404  43.496   2.346
30329W        W 2622  18.594   8.247   1.703
30330W        W 2623   9.772   7.371  14.898
30331W        W 2624   3.731  19.254   2.712
30332W        W 2625  30.953   1.278  13.481
30333W        W 2626  33.935   3.237   4.636
30334W        W 2627  39.956  27.159  11.473
30335W        W 2628  42.524  35.478   5.300
30336W        W 2629  27.098   5.690   2.751
30337W        W 2630  39.910  16.730   4.686
30338W        W 2631  24.215  18.595   1.450
30339W        W 2632  22.030  20.129  11.079
30340W        W 2633  25.217  33.931   2.850
30341W        W 2634  40.883  18.789   4.642
30342W        W 2635  26.461  35.069  12.927
30343W        W 2636  11.189  19.619  14.030
30344W        W 2637   8.171  21.633   4.191
30345W        W 2638  22.162  17.582  14.887
30346W        W 2639  16.216  14.231   3.857
30347W        W 2640  23.083  22.178   2.719
30348W        W 2641  42.306  20.716   2.234
30349W        W 2642   4.713  22.611   0.832
30350W        W 2643   9.648  14.783   3.263
30351W        W 2644  11.861  34.071  12.524
30352W        W 2645   9.751  17.215  14.831
30353W        W 2646   6.703  36.585   4.774
30354W        W 2647  24.201  33.998  14.515
30355W        W 2648  15.282   7.384  13.053
30356W        W 2649  22.532  10.323  12.883
30357W        W 2650  23.565  19.683   0.815
30358W        W 2651   3.734  18.692   2.870
30359W        W 2652  42.828   5.398   3.743
30360W        W 2653  26.958  10.773  14.426
30361W        W 2654   7.726  39.515   2.232
30362W        W 2655  32.397   6.740   3.704
30363W        W 2656  21.718  25.521   0.922
30364W        W 2657  24.197   1.323   1.904
30365W        W 2658  40.893  37.353  11.548
30366W        W 2659   5.388   3.923  11.999
30367W        W 2660   4.739  29.648  14.997
30368W        W 2661  42.878  15.647   0.845
30369W        W 2662  22.225   0.293  12.521
30370W        W 2663  44.925   9.837   3.225
30371W        W 2664  30.158  27.622  14.967
30372W        W 2665   3.816  41.984   3.279
30373W        W 2666  11.655  42.414  13.442
30374W        W 2667  41.007  43.325   0.480
30375W        W 2668   7.321  26.599   5.096
30376W        W 2669   8.316  29.437  12.430
30377W        W 2670  44.504  37.434   5.169
30378W        W 2671  34.586  28.670   4.246
30379W        W 2672   1.831   7.785   2.259
30380W        W 2673  34.889  32.533   1.277
30381W        W 2674  29.162  40.386  13.381
30382W        W 2675  20.060   1.824   3.303
30383W        W 2676  37.060  29.446   4.753
30384W        W 2677  14.830  31.031   3.220
30385W        W 2678   3.424  30.014   4.130
30386W        W 2679   1.413  35.907  11.907
30387W        W 2680  13.268   9.821  14.367
30388W        W 2681   1.446  34.465  10.516
30389W        W 2682  32.437  18.711   2.699
30390W        W 2683   5.281  14.285   2.403
30391W        W 2684  27.143  20.760   2.289
30392W        W 2685  18.789  13.670  11.585
30393W        W 2686  33.080  12.768   2.312
30394W        W 2687  13.841  19.625  14.472
30395W        W 2688   7.807  31.457  11.068
30396W        W 2689  26.159  31.419   4.236
30397W        W 2690  27.498  13.654   4.307
30398W        W 2691   5.370   1.364   2.332
30399W        W 2692   2.469   1.464  14.930
30400W        W 2693  10.251  14.124   1.858
30401W        W 2694  31.611  40.930  13.994
30402W        W 2695   1.953   3.296   1.219
30403W        W 2696  11.727  10.847  12.564
30404W        W 2697   0.340  22.039   2.767
30405W        W 2698  39.814  29.596  11.414
30406W        W 2699  43.288   2.854  14.365
30407W        W 2700  22.736  24.713   2.669
30408W        W 2701   2.735  21.574  14.387
30409W        W 2702  42.330  28.079   4.322
30410W        W 2703  42.922  42.777  12.025
30411W        W 2704  28.072  23.727  10.626
30412W        W 2705  44.350  28.525   1.752
30413W        W 2706  18.169  27.579   3.386
30414W        W 2707  15.109  31.577   3.863
30415W        W 2708  33.898  43.993  13.352
30416W        W 2709   6.248   6.359   2.687
30417W        W 2710  21.081  31.488   2.278
30418W        W 2711   7.261  36.403   5.097
30419W        W 2712   2.848  40.358   0.743
30420W        W 2713  14.782  19.078  13.898
30421W        W 2714  24.077   7.212   3.302
30422W        W 2715  28.992  10.281  14.281
30423W        W 2716  41.842  41.016  12.536
30424W        W 2717   1.456  43.807   0.388
30425W        W 2718  44.768   1.922  14.835
30426W        W 2719  11.798  15.710  13.881
30427W        W 2720  14.794  31.543  10.945
30428W        W 2721  21.574  28.490  10.993
30429W        W 2722   9.781  14.762   0.938
30430W        W 2723   3.292   4.281  12.032
30431W        W 2724  37.024  40.493   3.772
30432W        W 2725   8.388  44.271   2.783
30433W        W 2726   3.716  31.604  14.420
30434W        W 2727   2.737  30.456   1.872
30435W        W 2728  42.028  26.079   3.669
30436W        W 2729   1.900  18.112  13.990
30437W        W 2730  31.630  35.409   4.799
30438W        W 2731  21.084  16.595   4.744
30439W        W 2732  35.049   0.366   1.427
30440W        W 2733   1.907  25.078   3.788
30441W        W 2734  17.664  37.061  14.502
30442W        W 2735   8.867   1.430  13.827
30443W        W 2736  17.760  43.437  11.918
30444W        W 2737  22.034  27.515  12.993
30445W        W 2738  38.565  36.496   0.320
30446W        W 2739  25.095  41.514  12.088
30447W        W 2740  18.785   2.299  12.963
30448W        W 2741  33.974  23.724  13.380
30449W        W 2742  16.315   9.863  10.619
30450W        W 2743   3.777  39.481   1.917
30451W        W 2744  12.742  36.971   0.775
30452W        W 2745  12.237   3.780  10.466
30453W        W 2746  44.447  16.083   0.470
30454W        W 2747  29.623   4.742  11.999
30455W        W 2748  27.598  26.115   1.889
30456W        W 2749  29.631   7.381  10.005
30457W        W 2750  38.979  42.344  12.577
30458W        W 2751  30.571  36.481  10.453
30459W        W 2752  15.091  32.560   0.263
30460W        W 2753  40.538  42.417  13.960
30461W        W 2754  23.997  30.032  12.436
30462W        W 2755  12.237  41.948   3.367
30463W        W 2756  32.455   3.762  14.012
30464W        W 2757  32.459  27.166   3.834
30465W        W 2758  23.662  35.093   1.245
30466W        W 2759  37.378  28.538   1.875
30467W        W 2760   5.813  34.982  14.432
30468W        W 2761  37.358  15.711   1.252
30469W        W 2762   0.833  32.102  12.354
30470W        W 2763   4.716   8.334  13.348
30471W        W 2764  13.695  18.618   4.782
30472W        W 2765   2.957   9.787  11.533
30473W        W 2766  42.941  16.795   1.865
30474W        W 2767  42.847  26.203  14.316
30475W        W 2768   2.251  41.995  12.417
30476W        W 2769  43.936  15.638   2.709
30477W        W 2770  10.663  31.521  14.939
30478W        W 2771  39.001  12.180  11.961
30479W        W 2772  38.043  26.016   4.774
30480W        W 2773  40.340  16.171   1.801
30481W        W 2774  37.077  11.693  13.326
30482W        W 2775  25.505  14.107   3.278
30483W        W 2776  12.196   5.432  14.850
30484W        W 2777  44.297  34.515  14.414
30485W        W 2778  22.648  25.150   3.700
30486W        W 2779  34.568  19.601  12.410
30487W        W 2780  30.569  22.623  11.564
30488W        W 2781  11.691  29.018  10.094
30489W        W 2782  29.126  17.133  13.050
30490W        W 2783   6.226  23.730   4.618
30491W        W 2784   0.948  28.563   3.358
30492W        W 2785  13.160  10.839   3.804
30493W        W 2786  14.640  35.008   0.899
30494W        W 2787  29.158  40.449  14.292
30495W        W 2788  18.610   3.391   4.138
30496W        W 2789  33.500  15.276  13.519
30497W        W 2790  25.714   1.780  13.809
30498W        W 2791  30.068   0.755  10.422
30499W        W 2792  16.312   7.248  13.814
30500W        W 2793  17.243  13.149   1.863
30501W        W 2794  42.801  25.519  13.404
30502W        W 2795  34.964  10.179  13.854
30503W        W 2796  26.208  37.363   2.364
30504W        W 2797  10.714   2.861   3.242
30505W        W 2798  27.556  12.248  14.955
30506W        W 2799  17.198  17.752   0.327
30507W        W 2800   3.720  19.100  12.508
30508W        W 2801  33.120  31.564   3.670
30509W        W 2802  17.563  37.574   4.747
30510W        W 2803  30.016  41.883  11.418
30511W        W 2804   2.725   0.414   3.342
30512W        W 2805   2.872  42.842  11.433
30513W        W 2806  26.080  43.285  10.524
30514W        W 2807  33.094   0.379  14.507
30515W        W 2808   1.323  26.650   0.476
30516W        W 2809  11.731  26.637   3.377
30517W        W 2810  44.802  31.549   2.822
30518W        W 2811  32.983  13.748   4.207
30519W        W 2812  27.177   2.399  11.477
30520W        W 2813  22.699   1.825   2.872
30521W        W 2814  32.536  18.580   0.354
30522W        W 2815  17.689  22.629   1.248
30523W        W 2816  31.961  31.647   3.788
30524W        W 2817   8.770  30.546   1.244
30525W        W 2818  10.370  15.311  10.896
30526W        W 2819  35.572   9.383   3.343
30527W        W 2820  39.852  20.669   0.742
30528W        W 2821  15.150  39.929   1.920
30529W        W 2822  14.728   0.411  13.940
30530W        W 2823  20.727  35.383   3.305
30531W        W 2824  12.692   6.268  10.620
30532W        W 2825  24.017  26.119   0.315
30533W        W 2826  25.091  15.720   2.901
30534W        W 2827   7.245  34.400  10.477
30535W        W 2828  44.881  13.144  14.841
30536W        W 2829  36.912  26.067  14.798
30537W        W 2830  40.996  15.641   5.093
30538W        W 2831  34.055  22.536  13.390
30539W        W 2832  17.269  29.945  13.507
30540W        W 2833  38.984  42.368   5.245
30541W        W 2834  41.003   0.825  11.007
30542W        W 2835   8.770  40.368  14.478
30543W        W 2836  29.445  41.938   1.794
30544W        W 2837  12.269  24.709   3.791
30545W        W 2838  38.068  32.572   2.190
30546W        W 2839  12.620  10.244  10.933
30547W        W 2840  11.323  44.964   2.875
30548W        W 2841   0.896  24.106  13.377
30549W        W 2842   9.875  11.628  11.465
30550W        W 2843  44.443  33.911   1.420
30551W        W 2844   3.275  18.598  11.098
30552W        W 2845  27.955  27.169   5.124
30553W        W 2846  42.875   3.732  12.884
30554W        W 2847  39.896  26.570  10.992
30555W        W 2848  41.039  15.288  12.993
30556W        W 2849   4.943  39.030   0.730
30557W        W 2850  15.678  21.159   1.726
30558W        W 2851  23.036   1.945   2.342
30559W        W 2852  36.577  44.865  12.511
30560W        W 2853  10.662  21.216  12.884
30561W        W 2854  32.412   7.875   3.268
30562W        W 2855  37.503   2.463   0.383
30563W        W 2856  21.665   6.373   3.306
30564W        W 2857  14.110   0.771  13.323
30565W        W 2858  44.336  17.097   2.722
30566W        W 2859  10.160  29.064  14.800
30567W        W 2860  17.303  14.108   1.787
30568W        W 2861  15.213  27.541   0.359
30569W        W 2862  10.229  27.124   4.810
30570W        W 2863   8.238  13.651  11.386
30571W        W 2864  36.843  14.820   4.710
30572W        W 2865   8.705  26.015  11.083
30573W        W 2866  23.676  16.097   2.380
30574W        W 2867  41.509  18.666   5.198
30575W        W 2868  37.540  23.495  14.286
30576W        W 2869  11.152  21.697   3.687
30577W        W 2870  14.812  33.094  11.595
30578W        W 2871  35.003  40.487  11.545
30579W        W 2872  20.697  36.569   1.758
30580W        W 2873  36.445   1.771   2.707
30581W        W 2874  20.191  44.964   4.637
30582W        W 2875  23.675  39.037   3.731
30583W        W 2876  44.377  27.994  10.092
30584W        W 2877  34.108  11.727  13.815
30585W        W 2878  24.183   6.785   2.783
30586W        W 2879  15.118  40.306  12.050
30587W        W 2880  12.126  25.211  11.929
30588W        W 2881  14.284  28.120   2.830
30589W        W 2882   8.657  38.852   1.833
30590W        W 2883  28.048   2.871  14.939
30591W        W 2884  37.081  19.567   3.679
30592W        W 2885  21.591  16.232   0.951
30593W        W 2886  18.282  14.129   2.676
30594W        W 2887  21.558  11.297   2.267
30595W        W 2888   6.414   7.324  14.990
30596W        W 2889  26.570  41.499  11.955
30597W        W 2890  36.084  37.353   3.704
30598W        W 2891  44.401   2.939  10.411
30599W        W 2892  12.170  15.714   0.397
30600W        W 2893  27.130  39.861   0.404
30601W        W 2894  16.134  14.656  11.951
30602W        W 2895   3.309   5.750   2.235
30603W        W 2896  40.387  42.864  13.308
30604W        W 2897  12.199   1.935   3.297
30605W        W 2898  26.052  37.006   1.422
30606W        W 2899  25.995   7.883  14.495
30607W        W 2900  19.738  15.171   0.312
30608W        W 2901  23.657   8.665  11.920
30609W        W 2902  31.987  13.274  13.793
30610W        W 2903  18.246  12.120   3.790
30611W        W 2904  29.664  27.524   4.725
30612W        W 2905  31.069  35.077   4.186
30613W        W 2906  10.172   1.868   4.329
30614W        W 2907  28.150   7.360   4.227
30615W        W 2908   1.458  29.493  12.371
30616W        W 2909  21.148  28.651   0.920
30617W        W 2910  27.999  26.134   1.755
30618W        W 2911  27.659  43.346  10.914
30619W        W 2912  24.479  19.097   3.175
30620W        W 2913  36.461  21.116   0.265
30621W        W 2914   3.401   1.799   4.249
30622W        W 2915  17.772  40.836  13.805
30623W        W 2916   9.760  28.078  14.411
30624W        W 2917  42.849  16.811   9.494
30625W        W 2918   9.359  43.368   3.661
30626W        W 2919  28.060  19.066   3.354
30627W        W 2920   7.855   4.220   1.904
30628W        W 2921  41.888  24.221   4.717
30629W        W 2922  41.537  22.029  14.460
30630W        W 2923  39.356  13.606   0.824
30631W        W 2924   6.865  29.494  10.548
30632W        W 2925  20.551  21.636  12.495
30633W        W 2926  37.940   1.841   1.901
30634W        W 2927  14.763  14.191   1.278
30635W        W 2928  25.698  41.993  12.049
30636W        W 2929  36.465   6.292  11.929
30637W        W 2930  27.690  15.208   4.785
30638W        W 2931  17.176  15.774  11.592
30639W        W 2932  25.686  34.595  14.797
30640W        W 2933  36.469  15.784  11.486
30641W        W 2934   4.873  26.168  13.521
30642W        W 2935   7.184   6.750   4.733
30643W        W 2936  14.762  35.866  14.927
30644W        W 2937  13.659  24.650  14.337
30645W        W 2938  33.031  30.592  12.370
30646W        W 2939   3.266   9.150   0.912
30647W        W 2940  18.189  37.366  13.925
30648W        W 2941   1.846   6.422  14.839
30649W        W 2942  27.951  37.845  11.128
30650W        W 2943  39.532  23.172  13.512
30651W        W 2944  31.077  17.119   1.346
30652W        W 2945   0.825  16.762   1.916
30653W        W 2946  24.188   8.695  10.420
30654W        W 2947  28.569  39.830  14.303
30655W        W 2948  24.153  23.651   4.833
30656W        W 2949  36.510   7.403  11.510
30657W        W 2950   7.332  10.688  14.342
30658W        W 2951   7.244  25.566   4.805
30659W        W 2952  16.778  22.729   3.734
30660W        W 2953  34.420   2.256  12.999
30661W        W 2954  14.308   6.879   4.825
30662W        W 2955  11.226  25.041  13.512
30663W        W 2956  33.060  20.080   3.218
30664W        W 2957   4.819  13.241  12.411
30665W        W 2958  16.216  37.934   0.892
30666W        W 2959  18.716  27.944   0.353
30667W        W 2960  15.278   7.858  14.918
30668W        W 2961  36.035  18.168  11.863
30669W        W 2962  44.312  30.017  13.507
30670W        W 2963  37.983  29.460  14.031
30671W        W 2964  33.971  20.160   3.309
30672W        W 2965  23.052  36.851  11.464
30673W        W 2966  27.980  34.952  13.417
30674W        W 2967  22.502  26.682   2.311
30675W        W 2968  42.524   1.383   4.733
30676W        W 2969  37.917  16.256   0.847
30677W        W 2970  16.813  42.335  11.079
30678W        W 2971   6.394  41.438   2.414
30679W        W 2972  30.066  36.924   0.772
30680W        W 2973  29.634  16.591   1.813
30681W        W 2974  30.130   2.299  14.972
30682W        W 2975   6.213  25.118   3.253
30683W        W 2976  19.713  16.229  10.482
30684W        W 2977  18.206  18.150  10.454
30685W        W 2978  13.786   7.858   4.618
30686W        W 2979  36.366   5.819   2.739
30687W        W 2980   8.890   0.835  10.604
30688W        W 2981  24.092  40.994  14.887
30689W        W 2982  20.116  23.998   0.749
30690W        W 2983  41.033  41.847   1.721
30691W        W 2984  40.870   3.233  10.925
30692W        W 2985  11.326  15.610   4.327
30693W        W 2986   8.871  14.095  10.606
30694W        W 2987  44.320  34.866   3.788
30695W        W 2988  28.472  34.598  13.382
30696W        W 2989   3.838  43.919   4.191
30697W        W 2990  40.412  31.605  12.568
30698W        W 2991  43.490  36.534  14.806
30699W        W 2992  31.018  39.391  13.812
30700W        W 2993  27.054  25.599  12.923
30701W        W 2994  14.684   9.356   1.411
30702W        W 2995  33.062  25.591  13.453
30703W        W 2996   2.723  12.672  13.996
30704W        W 2997  16.204  13.132   3.234
30705W        W 2998   7.272   8.822   3.819
30706W        W 2999  21.050  42.816  12.833
30707W        W 3000   8.161  36.560   4.752
30708W        W 3001   8.867   5.405  10.430
30709W        W 3002  23.719  12.303   4.600
30710W        W 3003   3.811  11.763   0.901
30711W        W 3004  27.641  23.552   2.851
30712W        W 3005  13.307   6.730   3.224
30713W        W 3006  28.988   4.213  12.016
30714W        W 3007  38.498  34.441   4.729
30715W        W 3008  39.477  22.628   2.878
30716W        W 3009  31.622  23.171   0.309
30717W        W 3010  20.698  18.654   0.430
30718W        W 3011  10.352  22.160  13.482
30719W        W 3012  18.788  42.984  14.401
30720W        W 3013  35.428   9.356   0.469
30721W        W 3014  27.099  23.013  14.012
30722W        W 3015  11.237  28.933   1.408
30723W        W 3016  18.142  43.511   0.935
30724W        W 3017  28.178  32.488  12.485
30725W        W 3018  11.692   2.772   0.921
30726W        W 3019  40.822  36.971   4.805
30727W        W 3020  11.735  22.133   3.313
30728W        W 3021   8.871  31.599   1.895
30729W        W 3022  29.430   4.830  13.009
30730W        W 3023  16.193   8.787   2.294
30731W        W 3024  18.051   1.917  12.085
30732W        W 3025  15.794  31.999   4.727
30733W        W 3026  38.969  31.910   3.381
30734W        W 3027  33.104  41.455   1.240
30735W        W 3028  18.699  25.052  11.887
30736W        W 3029   5.402  32.618  10.459
30737W        W 3030  23.691  26.975   3.251
30738W        W 3031   0.930  26.964  11.463
30739W        W 3032  15.702  22.540  12.069
30740W        W 3033  42.808  29.149   0.912
30741W        W 3034  17.128  25.634   0.363
30742W        W 3035  43.022  32.898  12.918
30743W        W 3036  38.399  13.177  13.326
30744W        W 3037   1.961   5.346   1.865
30745W        W 3038  35.581  38.498   3.267
30746W        W 3039  21.161  29.621  12.954
30747W        W 3040   0.924  25.047  10.985
30748W        W 3041  26.119   6.233  13.029
30749W        W 3042  37.537  26.198   0.315
30750W        W 3043  36.589  33.123   1.350
30751W        W 3044   2.330  19.612   5.286
30752W        W 3045  42.375  19.673  13.391
30753W        W 3046  10.656  35.909  13.406
30754W        W 3047  34.013   6.836  13.324
30755W        W 3048   6.324  30.494   5.119
30756W        W 3049  28.454  35.073   0.283
30757W        W 3050  12.352  17.243   3.299
30758W        W 3051  37.388  31.521  13.826
30759W        W 3052   7.268  31.410   3.220
30760W        W 3053  33.503   7.911   0.835
30761W        W 3054  14.202  40.432  12.340
30762W        W 3055  11.226  36.934  13.815
30763W        W 3056  19.647   7.326   4.796
30764W        W 3057  44.378  16.686   4.246
30765W        W 3058  26.168   6.220  11.110
30766W        W 3059  12.166  43.812   1.871
30767W        W 3060  36.058  24.505  11.456
30768W        W 3061  15.597  22.145  12.535
30769W        W 3062   7.719  29.082  10.901
30770W        W 3063   5.431  24.586  12.561
30771W        W 3064  40.992  42.895  13.062
30772W        W 3065   7.227  36.357   0.941
30773W        W 3066  39.814   8.699  10.607
30774W        W 3067  39.454  27.477   2.671
30775W        W 3068  26.136  41.815  14.804
30776W        W 3069  28.976  43.386   1.934
30777W        W 3070  18.162  13.260  14.920
30778W        W 3071  23.072  42.866   3.290
30779W        W 3072  27.947  32.125  11.860
30780W        W 3073  40.834  36.029  13.942
30781W        W 3074   5.229  39.948   0.878
30782W        W 3075   0.488  34.466  11.867
30783W        W 3076   1.320   1.801   2.312
30784W        W 3077  42.931  23.157  10.524
30785W        W 3078  42.017  21.123  12.087
30786W        W 3079   2.407  39.823   2.282
30787W        W 3080  22.219   5.775  11.906
30788W        W 3081   3.855   2.407   2.243
30789W        W 3082  30.950  17.130   2.724
30790W        W 3083  14.259  29.510  11.035
30791W        W 3084   4.361  13.650   3.230
30792W        W 3085  14.633  29.015   0.840
30793W        W 3086  37.869  15.673  14.414
30794W        W 3087  24.132   0.874   0.320
30795W        W 3088  36.505  36.914  13.841
30796W        W 3089  10.750  28.095  13.333
30797W        W 3090  19.042  44.448  13.849
30798W        W 3091  19.601  15.136  10.614
30799W        W 3092  25.536  21.175   4.235
30800W        W 3093  31.959  26.194  12.996
30801W        W 3094  33.496  14.644   3.827
30802W        W 3095  32.605   1.279  12.069
30803W        W 3096   7.733  21.161  14.323
30804W        W 3097   5.280  28.678  11.464
30805W        W 3098  23.103  20.569   3.787
30806W        W 3099  38.059  11.726   3.781
30807W        W 3100  38.891  30.963   3.158
30808W        W 3101  32.501   9.785  10.053
30809W        W 3102   0.399  38.014   3.250
30810W        W 3103  41.818   7.771  10.989
30811W        W 3104  28.967   5.933   3.314
30812W        W 3105  35.005   5.872   3.287
30813W        W 3106  22.611  28.063  11.583
30814W        W 3107  14.331   2.227  11.936
30815W        W 3108  38.337  23.595   3.742
30816W        W 3109   8.376   6.411   1.212
30817W        W 3110  13.713  10.267   3.342
30818W        W 3111  38.427  39.417  12.356
30819W        W 3112  23.003   8.689  12.928
30820W        W 3113  44.444   0.323  13.476
30821W        W 3114  42.852   8.672   4.156
30822W        W 3115  33.981   7.377   1.378
30823W        W 3116  33.919  43.340  11.412
30824W        W 3117  38.908  16.751   4.740
30825W        W 3118  23.613  43.394  12.840
30826W        W 3119   1.417  13.812  14.393
30827W        W 3120  40.436  43.364   2.870
30828W        W 3121  18.781  17.605   3.305
30829W        W 3122  11.792  15.214  12.431
30830W        W 3123  40.004  12.265  13.027
30831W        W 3124  25.972  22.633   3.321
30832W        W 3125  22.576  37.836   3.196
30833W        W 3126  20.116  41.507   0.827
30834W        W 3127  16.676  29.496   1.848
30835W        W 3128  37.014  28.148  13.321
30836W        W 3129  39.844   2.736  13.422
30837W        W 3130  29.612  24.565   3.218
30838W        W 3131  29.011  12.215  11.907
30839W        W 3132  35.943  15.689  11.433
30840W        W 3133   3.717  16.290   0.764
30841W        W 3134  38.503   8.385   4.350
30842W        W 3135  35.448  22.684   3.793
30843W        W 3136   9.309  32.583   4.643
30844W        W 3137   7.416  19.770   1.339
30845W        W 3138  18.636  12.318   2.278
30846W        W 3139  17.302  31.949  13.025
30847W        W 3140  26.026  36.542   4.120
30848W        W 3141  39.013  14.774   4.277
30849W        W 3142  17.790  39.021  13.452
30850W        W 3143   0.329  30.508   0.339
30851W        W 3144  34.428  19.260  12.345
30852W        W 3145  42.438   0.291  12.824
30853W        W 3146  18.245  32.398   5.673
30854W        W 3147  14.829  16.160   4.796
30855W        W 3148  25.490  32.453  12.932
30856W        W 3149  13.128  19.089  12.513
30857W        W 3150  44.891  31.903   1.416
30858W        W 3151  26.057  21.640  11.496
30859W        W 3152  40.049  15.622  13.525
30860W        W 3153  31.079   2.432   2.809
30861W        W 3154  31.145  11.820  10.511
30862W        W 3155  27.525  12.315   2.805
30863W        W 3156  22.509  16.087  12.446
30864W        W 3157  35.518  14.321   2.671
30865W        W 3158  10.273  15.262   4.135
30866W        W 3159  38.418  23.146  11.872
30867W        W 3160  28.109  29.471   4.193
30868W        W 3161  33.915   2.788   0.262
30869W        W 3162  31.117   5.332   4.352
30870W        W 3163   0.348   2.720  12.346
30871W        W 3164   0.889  21.237  11.031
30872W        W 3165  40.940   5.924   0.850
30873W        W 3166  38.553  11.681  14.378
30874W        W 3167  40.437  30.034   4.248
30875W        W 3168  38.569   0.380  13.495
30876W        W 3169  38.060  36.508   0.413
30877W        W 3170  21.195  38.530  11.980
30878W        W 3171  35.384  42.916  12.429
30879W        W 3172  43.375  33.092  14.859
30880W        W 3173  37.347  24.670  12.424
30881W        W 3174  23.729  38.838   0.367
30882W        W 3175   7.417   9.888  12.459
30883W        W 3176  21.068  14.664   1.814
30884W        W 3177  42.490   8.331   1.847
30885W        W 3178  18.780  32.981  10.515
30886W        W 3179  13.724  44.283   2.820
30887W        W 3180   8.174  31.408   0.777
30888W        W 3181  12.233  29.591  12.358
30889W        W 3182  34.497  28.479  10.527
30890W        W 3183  36.958  33.476   2.750
30891W        W 3184   0.473  13.724   2.398
30892W        W 3185  42.467  28.580   1.344
30893W        W 3186  41.990  28.170  14.413
30894W        W 3187  27.611  23.006  11.444
30895W        W 3188   4.205  37.559  12.934
30896W        W 3189  39.948  12.245  11.541
30897W        W 3190  37.470   5.422  12.006
30898W        W 3191  16.766   3.808   1.927
30899W        W 3192   2.961  43.862   4.135
30900W        W 3193  42.911  21.694   3.796
30901W        W 3194  24.175  19.155  14.375
30902W        W 3195  15.685  42.400  14.772
30903W        W 3196   6.890   9.835  13.400
30904W        W 3197  11.242   6.765   4.350
30905W        W 3198  16.681  38.991   4.210
30906W        W 3199  14.803  38.965  13.880
30907W        W 3200  26.578  32.441   2.316
30908W        W 3201  35.527  13.827   3.293
30909W        W 3202  31.507  25.678   2.798
30910W        W 3203  25.043  23.202   4.157
30911W        W 3204  40.006   1.805  14.789
30912W        W 3205  18.261  31.460   5.203
30913W        W 3206  26.991  32.436   4.696
30914W        W 3207  33.593  29.144  11.382
30915W        W 3208  41.996   1.448   4.280
30916W        W 3209  43.469  30.517  10.944
30917W        W 3210  13.828  13.160   0.824
30918W        W 3211  21.142  21.024   5.250
30919W        W 3212  10.220  28.134  13.943
30920W        W 3213   5.758   7.357   3.799
30921W        W 3214   5.759  27.617   1.348
30922W        W 3215  18.668  28.565   0.796
30923W        W 3216  44.881  17.798   9.941
30924W        W 3217   1.376  31.096  12.981
30925W        W 3218  42.867  23.615  14.430
30926W        W 3219   8.283  12.764   2.339
30927W        W 3220   4.856  35.882   0.774
30928W        W 3221   5.699  16.271   2.281
30929W        W 3222  14.130  40.856   3.202
30930W        W 3223  24.677   2.841  14.427
30931W        W 3224  13.693  23.530   1.828
30932W        W 3225  30.440  17.604   0.856
30933W        W 3226  30.494  35.983   0.262
30934W        W 3227  25.683  25.654   2.803
30935W        W 3228  15.632  23.667   2.236
30936W        W 3229  30.060  40.395  10.449
30937W        W 3230  34.949  23.077   2.717
30938W        W 3231  38.327  40.996  13.920
30939W        W 3232  33.462  15.786   0.352
30940W        W 3233   7.778  42.782   3.681
30941W        W 3234  11.355   5.322   0.472
30942W        W 3235  44.865  16.694   1.843
30943W        W 3236  26.615  20.143  11.552
30944W        W 3237  14.818   6.766  12.522
30945W        W 3238  17.210  19.640   0.911
30946W        W 3239  27.131  41.438  14.367
30947W        W 3240  32.393   0.353   3.724
30948W        W 3241   7.887  30.484   0.760
30949W        W 3242  25.048   1.416  13.335
30950W        W 3243  40.879  22.104  10.443
30951W        W 3244   9.220   4.358   4.280
30952W        W 3245  15.287  20.559   2.396
30953W        W 3246  28.976  11.260   1.443
30954W        W 3247  16.682   8.901   1.808
30955W        W 3248  30.563  16.586   3.195
30956W        W 3249  16.576   1.465  12.078
30957W        W 3250   8.890  16.723  10.569
30958W        W 3251  17.077   1.788  10.099
30959W        W 3252   4.411  14.185  12.343
30960W        W 3253   4.705  23.213  12.884
30961W        W 3254  43.822  42.343   1.296
30962W        W 3255   8.323  21.540  14.939
30963W        W 3256  29.592  31.514   1.348
30964W        W 3257  16.792   9.662   0.271
30965W        W 3258   6.344   4.362  11.035
30966W        W 3259  43.842  18.643   5.801
30967W        W 3260   4.880  27.576  11.453
30968W        W 3261  16.592  35.536  12.526
30969W        W 3262  11.223  35.569   1.230
30970W        W 3263  14.263  20.646   1.729
30971W        W 3264  13.770  19.622  13.871
30972W        W 3265  15.109   9.792   2.684
30973W        W 3266   4.809  29.936  10.067
30974W        W 3267  38.936  15.656  10.899
30975W        W 3268  38.049  14.120   1.858
30976W        W 3269  42.952  36.071   2.371
30977W        W 3270  24.096  11.747  14.896
30978W        W 3271  24.579  14.644  12.953
30979W        W 3272   7.348  44.505   1.370
30980W        W 3273   4.284  30.965  13.914
30981W        W 3274  44.291  39.969  11.447
30982W        W 3275  42.789  15.748  13.854
30983W        W 3276  34.003  18.664   3.771
30984W        W 3277  14.293  17.769  14.882
30985W        W 3278  34.991   5.371   4.624
30986W        W 3279   5.330  15.814   1.725
30987W        W 3280  41.910  22.728   0.877
30988W        W 3281  40.451   1.483  11.507
30989W        W 3282  37.078  31.068   2.748
30990W        W 3283  33.051  35.104  14.912
30991W        W 3284   9.385  26.562  13.885
30992W        W 3285  39.366  23.152   2.749
30993W        W 3286  40.020   1.959  13.810
30994W        W 3287  39.347  29.091  10.416
30995W        W 3288  10.268  41.475   4.696
30996W        W 3289  43.505  18.064  14.878
30997W        W 3290  18.084  14.735   0.868
30998W        W 3291  42.468   0.447   3.333
30999W        W 3292  24.654  43.847  12.861
31000W        W 3293  25.219  25.986   2.263
31001W        W 3294  27.115  20.057   1.815
31002W        W 3295   5.371  20.622   0.870
31003W        W 3296  29.924  12.333   3.374
31004W        W 3297   9.373  27.967  14.445
31005W        W 3298  12.793  30.469  13.545
31006W        W 3299  37.509   8.296   3.687
31007W        W 3300  29.166  44.330  14.382
31008W        W 3301  23.622  28.665   2.385
31009W        W 3302  22.164   0.787  14.278
31010W        W 3303  33.469  39.408  11.021
31011W        W 3304  20.057  25.695  14.471
31012W        W 3305  39.882  24.501   1.406
31013W        W 3306  16.155   2.399   2.304
31014W        W 3307  42.368  40.935   0.443
31015W        W 3308  39.945   6.843   4.670
31016W        W 3309  31.599   4.916   0.395
31017W        W 3310   4.735  43.917   2.862
31018W        W 3311  18.576  27.156   1.706
31019W        W 3312   5.823  36.001   4.284
31020W        W 3313   6.234  14.700   0.314
31021W        W 3314  10.355   9.209   2.208
31022W        W 3315  33.132  12.730   3.819
31023W        W 3316   2.376   0.851  12.925
31024W        W 3317  35.485  41.527  14.306
31025W        W 3318  11.657   0.789   4.159
31026W        W 3319  27.042  30.954   1.358
31027W        W 3320  20.178  26.992  13.940
31028W        W 3321  25.551  26.189  14.864
31029W        W 3322  28.621  31.608   3.704
31030W        W 3323  30.075   7.850   4.713
31031W        W 3324  12.332  12.162  14.870
31032W        W 3325  11.827  27.525  13.505
31033W        W 3326  38.884  41.039   1.935
31034W        W 3327  24.646  25.138  10.468
31035W        W 3328  36.434  20.171   0.395
31036W        W 3329   0.850  31.412  13.956
31037W        W 3330  10.823  19.235   4.269
31038W        W 3331   6.787  26.170  14.325
31039W        W 3332   7.353  15.750  11.568
31040W        W 3333  38.381  32.142   3.656
31041W        W 3334   0.907  42.973  14.980
31042W        W 3335  25.086  21.112   4.693
31043W        W 3336  30.508  34.956  14.878
31044W        W 3337  20.121   3.226  11.075
31045W        W 3338   0.943  28.043  12.548
31046W        W 3339  31.589  16.132  12.401
31047W        W 3340   1.966  42.924  13.940
31048W        W 3341  18.707  26.487   3.358
31049W        W 3342  20.083  30.017   2.885
31050W        W 3343  25.069  39.440   2.721
31051W        W 3344   4.774   7.322   4.234
31052W        W 3345  16.124  44.886   2.701
31053W        W 3346   7.216  24.986   1.835
31054W        W 3347  15.793  31.107   3.373
31055W        W 3348   1.240  40.887  12.404
31056W        W 3349  12.817  31.963   3.276
31057W        W 3350   2.345   2.415  13.928
31058W        W 3351  44.449   4.839   3.233
31059W        W 3352  12.796  44.969   2.245
31060W        W 3353  21.151  21.661   4.241
31061W        W 3354  20.212  42.348  12.351
31062W        W 3355  11.371  35.500  12.047
31063W        W 3356  42.852  35.015  13.811
31064W        W 3357  38.865  32.067   1.299
31065W        W 3358   7.288  27.456  11.012
31066W        W 3359  29.172  38.861  11.445
31067W        W 3360  31.438  41.824   4.217
31068W        W 3361  18.665   0.419   3.812
31069W        W 3362  30.053  34.485   2.289
31070W        W 3363  43.292   4.743  11.942
31071W        W 3364  34.441  25.129  10.412
31072W        W 3365  11.292  21.212  11.440
31073W        W 3366  10.382  32.398  10.521
31074W        W 3367  24.184  34.445   1.435
31075W        W 3368  29.938  33.980   1.243
31076W        W 3369  37.482   2.400  14.399
31077W        W 3370  17.625  32.448  12.071
31078W        W 3371  13.240   7.891   4.692
31079W        W 3372  39.348   7.724   3.861
31080W        W 3373   5.847  24.050   2.244
31081W        W 3374  26.660  22.520  11.581
31082W        W 3375  35.525  25.148  12.512
31083W        W 3376  16.094   9.833  14.901
31084W        W 3377  40.548   3.238  11.542
31085W        W 3378   7.284  18.715  11.395
31086W        W 3379  30.632   2.395  11.510
31087W        W 3380   7.278   8.197   4.123
31088W        W 3381  33.130  17.623   4.164
31089W        W 3382  31.031  39.354  14.379
31090W        W 3383  25.478  31.052   2.242
31091W        W 3384  36.914  39.829  10.922
31092W        W 3385  38.457  14.636   1.832
31093W        W 3386  20.756  40.051   1.838
31094W        W 3387  24.079  42.829  14.426
31095W        W 3388  32.586  20.211  12.898
31096W        W 3389   5.373  32.955  10.639
31097W        W 3390  15.182  27.647  11.474
31098W        W 3391  16.117  36.052  12.976
31099W        W 3392  33.128   7.238   0.460
31100W        W 3393  33.520  16.110  10.566
31101W        W 3394  21.696  44.497   0.247
31102W        W 3395  44.372   3.265  13.326
31103W        W 3396  42.883  19.146  14.813
31104W        W 3397  26.501  16.614  14.023
31105W        W 3398  18.608  30.078   0.891
31106W        W 3399   6.408  14.098  10.601
31107W        W 3400  30.099  21.184   5.221
31108W        W 3401  42.317   5.811   0.913
31109W        W 3402   9.182  13.818   1.284
31110W        W 3403  14.759   0.938   2.803
31111W        W 3404  36.056  34.963   0.931
31112W        W 3405  36.954  29.101   1.919
31113W        W 3406  23.026   5.857  12.528
31114W        W 3407  42.897  44.283  13.850
31115W        W 3408  21.053  40.447  13.522
31116W        W 3409  33.093   0.320   4.630
31117W        W 3410  21.146  10.178  13.960
31118W        W 3411  30.076  43.447   3.222
31119W        W 3412  22.555  37.518  12.053
31120W        W 3413  33.016  14.727  13.023
31121W        W 3414  31.052  19.693  13.316
31122W        W 3415  21.059   2.433  14.377
31123W        W 3416   7.872  16.267   2.850
31124W        W 3417   0.904  39.533  11.931
31125W        W 3418   8.690  34.435  14.878
31126W        W 3419  37.396  43.457  11.385
31127W        W 3420  36.966  29.634  10.531
31128W        W 3421  21.585  26.184   1.929
31129W        W 3422   1.862  40.934  14.893
31130W        W 3423  23.590  22.142   1.930
31131W        W 3424  10.689  23.984   0.802
31132W        W 3425  41.443  39.995   4.659
31133W        W 3426   0.396  28.614  10.532
31134W        W 3427  13.110  11.641   0.808
31135W        W 3428   6.293  25.598   4.689
31136W        W 3429  21.603  27.620  12.386
31137W        W 3430  25.081  32.945   0.279
31138W        W 3431  38.062  21.703  12.864
31139W        W 3432   1.842  25.645   0.328
31140W        W 3433  24.090  39.329  11.508
31141W        W 3434   6.830  14.762  13.452
31142W        W 3435  17.145  23.055  10.504
31143W        W 3436  31.012  34.456  11.585
31144W        W 3437  16.573  28.005  13.422
31145W        W 3438  23.514   7.344  13.860
31146W        W 3439  10.333  35.502  14.412
31147W        W 3440   0.758   2.442  10.467
31148W        W 3441  11.754  25.208  10.510
31149W        W 3442  18.571  31.414  11.586
31150W        W 3443  41.017  44.411  13.951
31151W        W 3444   9.168  15.104  12.409
31152W        W 3445  18.064  34.112  14.844
31153W        W 3446  36.924  28.171   2.195
31154W        W 3447  43.354  15.756   1.419
31155W        W 3448   0.816  33.499   2.687
31156W        W 3449   8.346  40.888   3.818
31157W        W 3450  16.251   2.244  11.496
31158W        W 3451  41.922   3.364   3.236
31159W        W 3452  41.315  12.157   0.947
31160W        W 3453  12.775  22.640   5.155
31161W        W 3454  14.245  40.334   1.248
31162W        W 3455  40.037  10.810   3.300
31163W        W 3456   2.872  17.632  11.513
31164W        W 3457  39.863  10.245  13.832
31165W        W 3458   0.871  34.611  10.422
31166W        W 3459  28.567  14.796  13.487
31167W        W 3460   0.412  34.938   4.294
31168W        W 3461   8.194  13.295   2.777
31169W        W 3462   7.360   9.339  14.794
31170W        W 3463  23.064  16.761  10.579
31171W        W 3464  22.170  19.770   0.325
31172W        W 3465  15.158  13.668  11.441
31173W        W 3466  28.033  22.506  13.413
31174W        W 3467  29.961   8.182   5.218
31175W        W 3468  40.932  21.553   1.312
31176W        W 3469  44.984  11.190  13.484
31177W        W 3470  29.565  33.128  13.823
31178W        W 3471  43.440   6.326   3.835
31179W        W 3472  32.996  10.360   1.807
31180W        W 3473  41.799  19.752   0.733
31181W        W 3474  44.848  32.962   0.256
31182W        W 3475   5.866  24.008   0.770
31183W        W 3476  23.101  12.318  11.410
31184W        W 3477  14.824  37.083   4.142
31185W        W 3478   4.802  26.628  11.499
31186W        W 3479  42.003   5.864  12.941
31187W        W 3480  32.505   3.802   0.270
31188W        W 3481  14.656  39.473  13.934
31189W        W 3482  22.598  28.552  13.337
31190W        W 3483  20.275  34.432   0.782
31191W        W 3484  30.021   6.841   0.886
31192W        W 3485  10.752   6.377  14.410
31193W        W 3486  35.872   5.763   4.280
31194W        W 3487  18.578  29.456   2.261
31195W        W 3488   2.275  35.495  11.553
31196W        W 3489  11.788  21.695  11.580
31197W        W 3490  36.503  39.541  12.560
31198W        W 3491  22.632  29.931  11.886
31199W        W 3492  18.198  18.618  11.025
31200W        W 3493  14.729  26.650  10.535
31201W        W 3494  42.808  21.742  11.372
31202W        W 3495   1.906  43.929  13.919
31203W        W 3496  38.017  20.083  13.030
31204W        W 3497  41.885   0.338   5.585
31205W        W 3498  35.377   5.742   4.824
31206W        W 3499  23.013   0.785   0.932
31207W        W 3500   0.396  34.076  12.424
31208W        W 3501  15.724   1.361  13.357
31209W        W 3502  42.837  31.485  10.903
31210W        W 3503   4.222  11.727  12.565
31211W        W 3504  39.439   1.749  11.905
31212W        W 3505  41.404   5.809   3.387
31213W        W 3506   0.873  33.622   0.892
31214W        W 3507  27.971  11.836   4.132
31215W        W 3508  25.500  13.818  11.055
31216W        W 3509  20.101  22.723   4.809
31217W        W 3510  35.359   8.717  11.440
31218W        W 3511  36.501  12.325   4.285
31219W        W 3512   9.351  33.000  12.066
31220W        W 3513  12.131  18.205   1.796
31221W        W 3514  14.635  11.836   3.355
31222W        W 3515   3.254  36.379  10.471
31223W        W 3516  13.789   0.846  11.006
31224W        W 3517   5.308  27.646   2.353
31225W        W 3518  13.241  14.120  13.364
31226W        W 3519  34.083  31.081   0.431
31227W        W 3520  25.475  15.238   4.806
31228W        W 3521  16.722  22.133  14.508
31229W        W 3522  27.998  36.879  13.874
31230W        W 3523  12.806  43.366  12.543
31231W        W 3524  43.292  32.099   0.869
31232W        W 3525  23.657  44.792  13.921
31233W        W 3526   3.407  30.116   1.254
31234W        W 3527  24.228  32.443  11.386
31235W        W 3528   8.806  42.866   1.446
31236W        W 3529  10.798  33.580  13.454
31237W        W 3530  38.936  40.932   2.257
31238W        W 3531  43.778   3.219  12.987
31239W        W 3532  38.065  32.470   1.242
31240W        W 3533  14.760   0.307   3.154
31241W        W 3534  29.141  34.577  12.568
31242W        W 3535   1.914  18.296   3.659
31243W        W 3536  24.660  17.598   1.302
31244W        W 3537   6.812  34.010  13.468
31245W        W 3538  35.455  42.833  12.078
31246W        W 3539  19.122  30.644   2.779
31247W        W 3540   6.258  36.494   4.334
31248W        W 3541  25.606  40.874   2.862
31249W        W 3542  14.119  17.296  10.510
31250W        W 3543  41.862  18.220   4.133
31251W        W 3544  25.037   9.221  14.515
31252W        W 3545  10.238  23.119  10.924
31253W        W 3546  28.543  37.558   1.229
31254W        W 3547  14.774  36.009  14.299
31255W        W 3548  15.681   7.742  10.936
31256W        W 3549  16.568   0.386  10.582
31257W        W 3550  12.133  29.426  11.914
31258W        W 3551  14.786  15.151   1.810
31259W        W 3552  28.000  16.130   1.235
31260W        W 3553  13.793   9.673   3.240
31261W        W 3554  36.385  18.614   3.343
31262W        W 3555  22.536  13.295  13.833
31263W        W 3556   5.691   6.904  11.460
31264W        W 3557  30.153   8.255  13.793
31265W        W 3558  34.541  41.857  10.410
31266W        W 3559  29.476  24.033   0.271
31267W        W 3560   2.309  43.357   4.791
31268W        W 3561  23.711  36.098   4.667
31269W        W 3562  41.313  27.194  12.917
31270W        W 3563  27.686  10.849  11.384
31271W        W 3564   4.812   8.782   5.131
31272W        W 3565  17.783  35.435   0.394
31273W        W 3566  19.697  24.004  11.462
31274W        W 3567   7.202   5.315  13.324
31275W        W 3568  39.886  11.323   3.833
31276W        W 3569  12.268  10.785   0.382
31277W        W 3570  18.728  32.439  10.447
31278W        W 3571   8.347  36.869   2.325
31279W        W 3572  43.999   4.881  13.429
31280W        W 3573   3.350  40.980  11.462
31281W        W 3574  19.628  41.036  10.891
31282W        W 3575  19.235   2.265  14.886
31283W        W 3576  18.725  42.993   4.197
31284W        W 3577   4.252  39.325   4.794
31285W        W 3578  11.753  13.330  14.507
31286W        W 3579  44.983  27.556  14.762
31287W        W 3580  12.165  34.416  11.582
31288W        W 3581   5.321   2.792  12.552
31289W        W 3582  19.265  24.219  12.932
31290W        W 3583  25.647  24.197  10.990
31291W        W 3584   1.750  34.566   2.332
31292W        W 3585   1.431  34.114   3.236
31293W        W 3586   6.306   4.421   1.401
31294W        W 3587  31.060  38.547  10.941
31295W        W 3588  16.078  41.378  10.450
31296W        W 3589   3.856  30.119   1.256
31297W        W 3590   1.435  34.982   2.816
31298W        W 3591   1.430   6.419  13.997
31299W        W 3592   9.362   2.283  10.910
31300W        W 3593   9.312  10.352   0.804
31301W        W 3594  17.170   1.752   1.244
31302W        W 3595  41.463  17.761  11.373
31303W        W 3596   5.361  25.111  12.473
31304W        W 3597  14.203  36.517  10.478
31305W        W 3598  29.167   0.932   2.809
31306W        W 3599  36.490   8.738  11.111
31307W        W 3600   9.798  31.055   1.742
31308W        W 3601  21.513   8.779   1.282
31309W        W 3602  38.372   3.731  13.512
31310W        W 3603   4.827  18.248   4.616
31311W        W 3604   7.720  15.288  13.523
31312W        W 3605  12.294  35.414  11.028
31313W        W 3606  26.703  14.597   2.227
31314W        W 3607  18.552   3.246  14.430
31315W        W 3608  34.472  19.208   3.863
31316W        W 3609  17.657  33.592  14.414
31317W        W 3610  44.783   1.415  13.374
31318W        W 3611  12.214  19.607  10.524
31319W        W 3612   5.759  24.674  12.513
31320W        W 3613   3.306  40.855  13.413
31321W        W 3614   3.816  34.456  11.453
31322W        W 3615  37.029  25.083   3.260
31323W        W 3616   2.341  43.335   4.114
31324W        W 3617   0.345  10.183  12.570
31325W        W 3618  40.352   1.746   2.757
31326W        W 3619  32.973  29.073  14.371
31327W        W 3620   5.881  26.166  13.899
31328W        W 3621  43.460  23.090  11.896
31329W        W 3622   6.376   2.940  10.417
31330W        W 3623  21.164  33.051   4.819
31331W        W 3624  43.957   5.317  10.514
31332W        W 3625  27.163   1.792   0.453
31333W        W 3626   0.313  11.169  11.454
31334W        W 3627  34.887   7.907  10.471
31335W        W 3628   6.873  22.651  13.430
31336W        W 3629  20.716  34.541   4.155
31337W        W 3630  26.184  15.823   2.893
31338W        W 3631  26.064   7.402   2.878
31339W        W 3632   4.245  13.238  14.292
31340W        W 3633  18.153   2.461  11.505
31341W        W 3634  24.505  36.888  11.112
31342W        W 3635  41.827   0.888  10.957
31343W        W 3636  20.602   5.730  12.555
31344W        W 3637  22.523  41.329  12.999
31345W        W 3638  15.305  17.656  14.902
31346W        W 3639   3.434   5.815  12.044
31347W        W 3640  10.315  39.926  12.928
31348W        W 3641  31.583  21.676  12.392
31349W        W 3642   4.412  31.475   2.349
31350W        W 3643  40.933  11.805   4.786
31351W        W 3644  33.006  26.179   1.400
31352W        W 3645   5.194  23.163   1.746
31353W        W 3646   8.214  12.617   0.877
31354W        W 3647  25.505  20.583  11.966
31355W        W 3648  36.961  38.568   1.448
31356W        W 3649  40.495  27.179  13.013
31357W        W 3650  17.723   6.851  12.048
31358W        W 3651  37.959  19.700   3.369
31359W        W 3652  14.235  40.978  11.607
31360W        W 3653   8.355  42.880   4.156
31361W        W 3654  32.982  40.487   3.318
31362W        W 3655   4.391  20.667   2.783
31363W        W 3656  28.478  18.588   2.332
31364W        W 3657  43.271  21.146  10.084
31365W        W 3658  27.530  34.415  14.764
31366W        W 3659  42.439  20.070   4.665
31367W        W 3660   9.836   4.778   1.874
31368W        W 3661  22.698   1.241   2.790
31369W        W 3662  21.732  27.155  13.805
31370W        W 3663   1.915   5.934   3.279
31371W        W 3664  29.009  36.989  13.340
31372W        W 3665   5.713  11.155  14.922
31373W        W 3666  23.491  20.680   4.261
31374W        W 3667  16.096   3.879  11.010
31375W        W 3668   3.765  18.717  12.091
31376W        W 3669   1.786  21.203   2.872
31377W        W 3670  14.730  24.192  12.426
31378W        W 3671  12.764  10.872  12.906
31379W        W 3672  14.597  41.802   0.931
31380W        W 3673   0.950   3.862   1.935
31381W        W 3674  39.001  39.819  10.556
31382W        W 3675  12.785  35.056   4.341
31383W        W 3676  30.102  27.195   3.215
31384W        W 3677   8.854  27.956   2.341
31385W        W 3678  41.037  31.411  14.006
31386W        W 3679  23.489  39.012  11.897
31387W        W 3680  29.542   2.818  14.450
31388W        W 3681  31.132  40.374   0.325
31389W        W 3682  41.436  35.430  14.379
31390W        W 3683  39.977  37.370  11.075
31391W        W 3684  28.457   7.709   0.740
31392W        W 3685  29.550  42.444   0.259
31393W        W 3686  31.410   1.841   0.801
31394W        W 3687  23.061  43.816  10.961
31395W        W 3688  21.207  20.197  11.998
31396W        W 3689   6.333  24.716   4.716
31397W        W 3690  29.518  17.680  11.897
31398W        W 3691  42.845  15.253  14.924
31399W        W 3692  29.987  26.191  14.774
31400W        W 3693   1.901  35.424   1.361
31401W        W 3694  10.234   8.283   2.694
31402W        W 3695  35.929  41.810  13.942
31403W        W 3696   3.226  23.179   0.743
31404W        W 3697  43.905  17.127   9.987
31405W        W 3698  22.130   4.871   1.241
31406W        W 3699  42.526  29.067   2.820
31407W        W 3700  12.323  34.566   3.369
31408W        W 3701  31.547  24.568   2.695
31409W        W 3702   7.406  40.949  14.924
31410W        W 3703  24.692  23.668  10.892
31411W        W 3704  14.099  16.711  12.437
31412W        W 3705   7.367  42.975   5.285
31413W        W 3706  33.899  34.531   3.707
31414W        W 3707  30.981  42.398   1.696
31415W        W 3708  40.856  14.636  13.480
31416W        W 3709   0.801  37.914  12.986
31417W        W 3710   6.677  34.920   1.228
31418W        W 3711  15.230  37.562   2.849
31419W        W 3712  22.518  16.591   1.928
31420W        W 3713  21.651  19.193  14.408
31421W        W 3714  28.618  17.716  14.407
31422W        W 3715  36.544  38.017  13.980
31423W        W 3716  12.825  21.232   3.310
31424W        W 3717  14.767  13.801   1.720
31425W        W 3718  11.293   3.942  12.440
31426W        W 3719  32.960  39.986   3.797
31427W        W 3720  21.074  11.279  11.045
31428W        W 3721  42.344  12.629   1.423
31429W        W 3722  42.336  16.605  12.454
31430W        W 3723  21.522  29.540  12.034
31431W        W 3724  14.655  27.622  12.891
31432W        W 3725  13.838  12.241  12.901
31433W        W 3726   9.881  30.445   3.219
31434W        W 3727   9.845  15.636   9.921
31435W        W 3728  11.213  26.178   4.819
31436W        W 3729  34.412  18.218   1.767
31437W        W 3730   4.205  33.412   3.147
31438W        W 3731  35.857  42.429  10.933
31439W        W 3732  25.651  16.792   2.688
31440W        W 3733   0.349  38.405  11.919
31441W        W 3734  17.123  23.004   0.953
31442W        W 3735  34.559  21.088   4.809
31443W        W 3736  22.664   7.278   5.196
31444W        W 3737   8.398  17.696  13.994
31445W        W 3738   7.812  27.975  14.955
31446W        W 3739  14.121  30.489  14.501
31447W        W 3740   2.329   6.313  10.502
31448W        W 3741  28.644  12.644   1.353
31449W        W 3742   2.728  12.771   4.648
31450W        W 3743  30.659  19.675  13.014
31451W        W 3744  44.376  32.888   0.376
31452W        W 3745   3.378  44.461   3.756
31453W        W 3746   5.420  39.885  12.823
31454W        W 3747  22.659  24.012   1.450
31455W        W 3748   4.776  13.229  14.914
31456W        W 3749  17.175  38.050   1.317
31457W        W 3750  22.729  19.112  12.401
31458W        W 3751   4.927  12.272  14.421
31459W        W 3752   1.339  20.711   4.705
31460W        W 3753   8.172  15.228  10.420
31461W        W 3754  40.028   3.218   2.291
31462W        W 3755   2.339  34.944  13.934
31463W        W 3756  40.930  11.283   2.295
31464W        W 3757   7.887  31.937  10.938
31465W        W 3758  31.145  14.781  14.023
31466W        W 3759  10.321  10.810  12.982
31467W        W 3760  24.721   1.392   0.448
31468W        W 3761  26.499  17.639  11.060
31469W        W 3762   0.909  11.827  10.471
31470W        W 3763  34.513  42.996   1.700
31471W        W 3764  11.864  40.501   1.848
31472W        W 3765  17.722  26.565   1.903
31473W        W 3766  41.487  31.581   2.392
31474W        W 3767  23.174  28.543  10.429
31475W        W 3768  26.481  44.851  11.974
31476W        W 3769   8.856  16.718   1.934
31477W        W 3770  13.324   3.384  12.924
31478W        W 3771  23.563  41.349  11.523
31479W        W 3772  32.492  16.187   4.304
31480W        W 3773  15.749  26.703   3.223
31481W        W 3774  13.711  22.575   1.276
31482W        W 3775   4.318  11.136   4.812
31483W        W 3776   4.780  37.958   3.358
31484W        W 3777  33.904  28.613   3.338
31485W        W 3778  19.204  27.072   3.337
31486W        W 3779  36.977  13.767  11.581
31487W        W 3780  33.975  42.337   0.913
31488W        W 3781  17.800  10.773   0.899
31489W        W 3782  10.662  29.152  14.938
31490W        W 3783  21.070  43.515   1.353
31491W        W 3784  22.110  32.139  12.077
31492W        W 3785  23.501   0.904   3.657
31493W        W 3786  23.216   8.767   3.186
31494W        W 3787  22.230  25.650  11.526
31495W        W 3788  14.792   7.884   2.759
31496W        W 3789  40.345  36.463  12.992
31497W        W 3790  35.992  26.026  13.330
31498W        W 3791  16.692  20.608   3.743
31499W        W 3792  23.037  11.689   3.855
31500W        W 3793  15.695  15.783  11.599
31501W        W 3794  10.196  21.642  14.308
31502W        W 3795  14.614   5.426  11.939
31503W        W 3796   2.922  21.137   4.663
31504W        W 3797  20.145  13.262   1.722
31505W        W 3798   3.278  39.036   3.368
31506W        W 3799  16.757  16.601   3.343
31507W        W 3800  18.596  14.790  11.946
31508W        W 3801   6.684  28.995   2.690
31509W        W 3802  40.358  18.695   2.852
31510W        W 3803   8.761  11.709   1.786
31511W        W 3804  25.700  19.114   3.779
31512W        W 3805  16.240  17.266   2.698
31513W        W 3806  44.390  42.017   3.805
31514W        W 3807  11.791  36.503   0.860
31515W        W 3808  32.409  32.127   0.940
31516W        W 3809  42.443  24.080   0.435
31517W        W 3810  31.464  22.662  13.330
31518W        W 3811   3.252  12.211   2.370
31519W        W 3812  17.139  42.477  11.983
31520W        W 3813  43.790  17.633   2.329
31521W        W 3814  24.110  33.479  11.430
31522W        W 3815  29.035  42.392  14.346
31523W        W 3816   9.158  17.248   0.878
31524W        W 3817   7.704  24.615   0.882
31525W        W 3818   2.397   0.839  12.513
31526W        W 3819  31.041  36.567   3.196
31527W        W 3820  30.940  19.727   4.240
31528W        W 3821  42.346  42.310  11.923
31529W        W 3822   4.888  34.466  10.575
31530W        W 3823   4.701  25.048  13.999
31531W        W 3824  34.614   6.365   3.844
31532W        W 3825  10.325  21.097  10.413
31533W        W 3826  31.568   4.765  12.030
31534W        W 3827  24.582  14.674   0.391
31535W        W 3828  31.526  44.008   1.404
31536W        W 3829  43.898   3.709   2.330
31537W        W 3830  10.246  18.545  10.005
31538W        W 3831   0.820   9.647   3.773
31539W        W 3832  41.299  18.266  12.431
31540W        W 3833  44.917  15.096   3.167
31541W        W 3834  39.328  35.434  13.499
31542W        W 3835  29.050  10.175   0.866
31543W        W 3836  36.985  44.496   1.708
31544W        W 3837   4.361  41.976   4.286
31545W        W 3838  35.977  40.871   2.353
31546W        W 3839  31.641  13.111   2.718
31547W        W 3840   4.836  31.126  13.374
31548W        W 3841  24.051   4.288   5.626
31549W        W 3842  12.270  23.126  12.838
31550W        W 3843   7.359   9.791   1.234
31551W        W 3844  43.823  27.008  11.578
31552W        W 3845   1.376   1.940   3.828
31553W        W 3846   5.229  14.645   3.237
31554W        W 3847   6.339  23.650   0.941
31555W        W 3848   0.774  13.837  10.990
31556W        W 3849  42.972  28.070   5.211
31557W        W 3850  18.080  21.179  13.965
31558W        W 3851  16.790  18.229   1.829
31559W        W 3852  24.483   0.792   4.813
31560W        W 3853   6.390  21.070   3.774
31561W        W 3854  27.542  37.413  13.333
31562W        W 3855  11.631  18.747  10.074
31563W        W 3856  10.636   4.867   4.293
31564W        W 3857  25.639   8.255   0.873
31565W        W 3858  41.354  19.643   0.897
31566W        W 3859  11.199  20.631  10.530
31567W        W 3860   1.398  27.169   1.824
31568W        W 3861   1.932  20.151   0.775
31569W        W 3862  34.937  14.302  11.606
31570W        W 3863  15.687   9.348   4.696
31571W        W 3864  39.837   5.221  10.409
31572W        W 3865  16.681   4.238  13.469
31573W        W 3866  44.759  18.645   2.863
31574W        W 3867  33.436  26.628  14.358
31575W        W 3868  40.406  25.671   1.402
31576W        W 3869  14.625  38.012   2.331
31577W        W 3870   6.331  35.535  10.637
31578W        W 3871  21.116  40.881  12.978
31579W        W 3872  31.954   5.221  11.472
31580W        W 3873  17.598   0.285   4.731
31581W        W 3874  39.977  20.654   2.402
31582W        W 3875  32.508  43.850   2.756
31583W        W 3876  40.043   1.300  11.508
31584W        W 3877   3.319  40.995   1.413
31585W        W 3878  42.944  18.093  14.489
31586W        W 3879  44.302  17.795   0.319
31587W        W 3880  20.759   5.699   4.292
31588W        W 3881  22.587  14.710  12.037
31589W        W 3882  31.598  14.199   0.380
31590W        W 3883  16.072  10.266  12.528
31591W        W 3884   2.840  36.081  13.332
31592W        W 3885  44.973  23.719   4.307
31593W        W 3886  37.488  10.209  10.971
31594W        W 3887  22.655  16.663   1.330
31595W        W 3888  20.275  30.513   5.300
31596W        W 3889   5.774  26.139   1.228
31597W        W 3890  34.887  34.424   4.277
31598W        W 3891   8.305  33.591   4.756
31599W        W 3892  44.348   6.323  12.878
31600W        W 3893  38.046   1.830  12.073
31601W        W 3894  35.084  17.559  12.348
31602W        W 3895   1.839  21.059  11.574
31603W        W 3896  30.033  18.201   0.387
31604W        W 3897   8.391  24.636  13.421
31605W        W 3898  34.042  33.614   3.311
31606W        W 3899  37.908  11.289  13.944
31607W        W 3900  36.034  26.976  13.791
31608W        W 3901   6.762   2.356   3.646
31609W        W 3902  38.536  29.592  11.908
31610W        W 3903  38.832  36.476   0.934
31611W        W 3904   2.266  17.207   3.378
31612W        W 3905   4.817  19.596  12.480
31613W        W 3906   5.396  44.358  12.957
31614W        W 3907  32.010  41.961  13.371
31615W        W 3908  22.652  32.020  11.879
31616W        W 3909  31.428  15.245  11.909
31617W        W 3910  41.988  15.603   0.449
31618W        W 3911  13.159  31.615  11.432
31619W        W 3912  25.198  13.162   4.689
31620W        W 3913  32.953  27.064   2.352
31621W        W 3914  22.081  13.150  13.003
31622W        W 3915   8.803  33.487  11.477
31623W        W 3916  37.013  30.915   4.328
31624W        W 3917   9.717  19.651  11.995
31625W        W 3918  36.453  11.685   3.198
31626W        W 3919   8.221  16.268  12.966
31627W        W 3920   0.277  20.731   4.652
31628W        W 3921  39.900  34.589   0.245
31629W        W 3922  43.356  38.330  13.798
31630W        W 3923  24.520  39.997   0.741
31631W        W 3924  11.266  23.589  14.316
31632W        W 3925  19.118  19.747  14.291
31633W        W 3926  27.958  33.927   3.330
31634W        W 3927  11.243   7.402  13.939
31635W        W 3928  29.087   3.453  13.845
31636W        W 3929   2.941  20.069   2.178
31637W        W 3930   0.423   1.927   4.130
31638W        W 3931  22.747  10.179  13.831
31639W        W 3932  38.933  42.362   4.246
31640W        W 3933  13.661  29.477  12.463
31641W        W 3934  22.143  23.511   4.737
31642W        W 3935  18.655  17.173   0.270
31643W        W 3936  30.134  29.561  12.953
31644W        W 3937  22.128  14.768  13.913
31645W        W 3938  38.042  42.835   3.342
31646W        W 3939   4.793   1.977   2.342
31647W        W 3940   6.696  11.672  13.856
31648W        W 3941  28.544  31.903  12.027
31649W        W 3942  16.139   1.909  10.906
31650W        W 3943  18.232  35.982   0.341
31651W        W 3944  33.440  32.102   2.268
31652W        W 3945  29.501  39.413  10.937
31653W        W 3946  11.655  37.885  14.841
31654W        W 3947  15.163  20.612   1.334
31655W        W 3948  44.264   1.436  14.972
31656W        W 3949  44.316  21.638  12.054
31657W        W 3950   2.938  39.944   0.410
31658W        W 3951  34.895   0.753  13.028
31659W        W 3952  32.923  37.359  11.891
31660W        W 3953  16.673  19.223  14.804
31661W        W 3954   9.754  41.036  11.573
31662W        W 3955  42.289  25.162  12.477
31663W        W 3956   2.849  31.074   1.862
31664W        W 3957   4.746   6.320  14.313
31665W        W 3958  41.893   2.894   3.298
31666W        W 3959  11.331  40.828  12.016
31667W        W 3960  37.937  16.297  11.553
31668W        W 3961   2.231  17.117   1.225
31669W        W 3962  20.037  12.782  14.795
31670W        W 3963  15.205  10.819   2.183
31671W        W 3964   7.398   3.331  10.915
31672W        W 3965  28.090  32.031   3.361
31673W        W 3966  32.892  32.591   0.277
31674W        W 3967  42.838  16.687  12.021
31675W        W 3968  37.421   6.228  13.010
31676W        W 3969  30.659  27.545   2.808
31677W        W 3970  28.165  25.597   1.451
31678W        W 3971  34.109   4.907   3.377
31679W        W 3972  20.767  41.322  12.425
31680W        W 3973   8.203  42.938   0.861
31681W        W 3974  22.230  35.577  10.427
31682W        W 3975  21.682  40.316   3.268
31683W        W 3976  13.783   8.670   1.874
31684W        W 3977   2.921  40.973  14.994
31685W        W 3978  29.430  24.103  10.052
31686W        W 3979  15.093   9.188  13.357
31687W        W 3980   6.728  37.889   3.802
31688W        W 3981  35.873  25.592  11.983
31689W        W 3982  10.255  32.952  14.375
31690W        W 3983  37.984  40.819   0.853
31691W        W 3984  44.285   8.348  12.508
31692W        W 3985  33.590  40.054  10.129
31693W        W 3986  15.218  39.965   0.407
31694W        W 3987  17.127  44.501  12.058
31695W        W 3988  38.452   5.222   1.407
31696W        W 3989  15.783  36.451  10.951
31697W        W 3990  10.690  29.155   4.701
31698W        W 3991  23.628  16.662   3.731
31699W        W 3992  37.898  40.960   2.811
31700W        W 3993  44.988   5.910   0.731
31701W        W 3994  40.424   6.679   4.688
31702W        W 3995  13.223  19.576   2.808
31703W        W 3996  39.986  13.142  11.401
31704W        W 3997   0.435  32.095   3.176
31705W        W 3998  26.208  33.116   0.788
31706W        W 3999  13.706  17.083  13.037
31707W        W 4000   1.849  39.446   4.745
31708W        W 4001  17.226  42.286   0.423
31709W        W 4002  22.561  35.108   3.657
31710W        W 4003  14.143   0.834   4.754
31711W        W 4004  39.986  12.761  12.058
31712W        W 4005  32.113  23.176   2.891
31713W        W 4006  17.146  14.607   0.917
31714W        W 4007  14.216  17.087   2.878
31715W        W 4008   3.716  37.523   1.920
31716W        W 4009  25.525  19.218   0.750
31717W        W 4010  12.193  25.689   3.203
31718W        W 4011   2.944  14.180   4.623
31719W        W 4012  40.801   3.339   4.334
31720W        W 4013  11.665  22.204   0.264
31721W        W 4014   8.790  24.154  12.490
31722W        W 4015   3.929   0.966  10.126
31723W        W 4016  41.475  15.705  13.528
31724W        W 4017   9.685  15.231  14.839
31725W        W 4018  33.086  22.123  13.362
31726W        W 4019  10.246   1.901   4.721
31727W        W 4020   8.886  39.004   3.159
31728W        W 4021  17.175  17.252  13.868
31729W        W 4022   2.326   7.672  14.343
31730W        W 4023   0.302  42.824   1.748
31731W        W 4024   2.885  30.443  12.367
31732W        W 4025   8.702  42.904   0.810
31733W        W 4026  19.728  33.915   0.731
31734W        W 4027  17.118  30.107  11.503
31735W        W 4028   2.761   1.883  12.440
31736W        W 4029  30.015   8.878  12.490
31737W        W 4030  34.041  35.964  11.003
31738W        W 4031   5.306  17.798   3.177
31739W        W 4032  39.321  33.000  14.959
31740W        W 4033  15.268  34.912   3.846
31741W        W 4034   0.983  29.534   3.382
31742W        W 4035   1.310  11.721  12.916
31743W        W 4036   5.839   2.846  12.357
31744W        W 4037  42.843  26.559   1.912
31745W        W 4038  30.086   1.278   3.787
31746W        W 4039  39.037  31.044   1.742
31747W        W 4040  12.805   6.296   3.754
31748W        W 4041  26.053  30.543  11.968
31749W        W 4042  37.983  11.747   3.321
31750W        W 4043   4.423  11.246  14.344
31751W        W 4044  10.872  37.450   4.699
31752W        W 4045  42.967  39.413   1.398
31753W        W 4046  24.661  27.957   2.242
31754W        W 4047  12.667  28.993   4.294
31755W        W 4048   4.379  29.020   3.816
31756W        W 4049  40.546  18.592   0.901
31757W        W 4050  12.836  14.794  13.797
31758W        W 4051  33.434  37.560  12.852
31759W        W 4052   8.882  26.624  12.559
31760W        W 4053  21.547  24.644   3.684
31761W        W 4054  29.039  27.638  10.992
31762W        W 4055   1.308  21.742  10.554
31763W        W 4056  23.504   6.707   4.685
31764W        W 4057   7.289  27.942   2.275
31765W        W 4058   2.369   0.879   3.283
31766W        W 4059  41.296  39.063  10.892
31767W        W 4060  21.183  43.494   0.459
31768W        W 4061  16.091   3.355   3.818
31769W        W 4062  41.316   0.473  10.539
31770W        W 4063  15.669   0.394  13.945
31771W        W 4064   8.292  34.031  14.503
31772W        W 4065  31.023  43.425  13.329
31773W        W 4066  19.769   1.792  12.356
31774W        W 4067  33.446  42.022   0.881
31775W        W 4068   9.666  27.113   3.322
31776W        W 4069  15.674  39.903  10.052
31777W        W 4070  40.854  26.492   1.450
31778W        W 4071  22.029  24.207   2.336
31779W        W 4072  15.239  23.726  10.991
31780W        W 4073  18.269  37.336   4.650
31781W        W 4074  26.189   3.255  13.942
31782W        W 4075   2.267  26.628  13.002
31783W        W 4076  36.439  16.805   0.749
31784W        W 4077  33.027  37.363   2.241
31785W        W 4078   9.369  35.860  12.446
31786W        W 4079   3.747   8.799  13.845
31787W        W 4080  42.995  12.308   3.772
31788W        W 4081   9.359  23.188  10.588
31789W        W 4082  43.498   5.905  11.878
31790W        W 4083   6.830  42.882   4.621
31791W        W 4084  20.252   9.265  11.075
31792W        W 4085  35.071   0.976  11.972
31793W        W 4086  18.168  19.539   3.161
31794W        W 4087   0.372  36.397   5.741
31795W        W 4088  16.662  13.829  12.373
31796W        W 4089  30.421  43.009   1.297
31797W        W 4090  36.546  29.956   2.893
31798W        W 4091  36.977  35.109   4.706
31799W        W 4092  27.476   5.891   3.862
31800W        W 4093  22.706  18.193  11.955
31801W        W 4094  30.933  37.880  13.338
31802W        W 4095  28.987  35.452  10.473
31803W        W 4096  21.644   7.874   4.123
31804W        W 4097  31.418  41.315   2.855
31805W        W 4098  37.006  44.954  14.798
31806W        W 4099  37.549  21.121  12.065
31807W        W 4100  22.249   5.310   2.247
31808W        W 4101  30.545  32.968  10.546
31809W        W 4102   3.358  18.136  12.476
31810W        W 4103   2.807  28.126   4.308
31811W        W 4104  43.878  40.987  10.461
31812W        W 4105  33.074  26.471  11.420
31813W        W 4106  14.644  38.919  10.020
31814W        W 4107  29.511  39.949   4.148
31815W        W 4108  14.745   5.725  12.423
31816W        W 4109   5.218   3.853   1.775
31817W        W 4110  12.342  17.125   2.265
31818W        W 4111   0.416  28.538  14.010
31819W        W 4112  43.426  18.668  13.336
31820W        W 4113  38.497  40.928  11.112
31821W        W 4114  12.310   3.796   9.921
31822W        W 4115  27.137  11.804   0.891
31823W        W 4116  43.007  16.601   4.243
31824W        W 4117  38.456  44.753  13.019
31825W        W 4118   9.728   0.853  10.957
31826W        W 4119  31.003   5.780  11.588
31827W        W 4120  16.150  19.140   4.179
31828W        W 4121  24.213  24.997  12.979
31829W        W 4122  30.042  14.153  13.884
31830W        W 4123  44.864  42.928   2.275
31831W        W 4124  18.243  33.019  11.863
31832W        W 4125  24.167   4.758  14.776
31833W        W 4126   6.249  21.260   1.700
31834W        W 4127  35.471  35.503   0.846
31835W        W 4128  18.136   4.388  13.465
31836W        W 4129  15.739  28.578   0.447
31837W        W 4130  39.508  44.278  14.456
31838W        W 4131   9.168  38.431  14.440
31839W        W 4132   0.452  27.007   4.829
31840W        W 4133   2.773   4.382   3.183
31841W        W 4134  25.665   2.844   0.311
31842W        W 4135   3.912  39.034  12.530
31843W        W 4136  39.927   3.332  12.066
31844W        W 4137  34.559  31.596   1.219
31845W        W 4138  17.652  11.289  14.494
31846W        W 4139  29.004  31.481   2.895
31847W        W 4140   0.481  12.361   3.154
31848W        W 4141   2.756  19.728  11.543
31849W        W 4142  32.956   6.910   1.717
31850W        W 4143  29.100  40.481   1.772
31851W        W 4144  18.555   4.842  10.052
31852W        W 4145  34.070  19.227  11.464
31853W        W 4146   6.720  15.258  10.617
31854W        W 4147  26.460  28.120  12.436
31855W        W 4148  21.729  42.396   1.821
31856W        W 4149  19.077  14.668   4.826
31857W        W 4150   3.312  31.923  13.431
31858W        W 4151  35.434  14.726   1.271
31859W        W 4152  44.795  36.876   4.734
31860W        W 4153  39.491  25.570  14.963
31861W        W 4154  20.612  44.954   1.782
31862W        W 4155  33.530  33.474   0.457
31863W        W 4156   0.875  44.957   4.336
31864W        W 4157   9.298  36.036   3.188
31865W        W 4158  17.652  37.056   0.889
31866W        W 4159  39.017   5.845   1.917
31867W        W 4160  25.072  24.144   5.139
31868W        W 4161  17.783   0.403   1.733
31869W        W 4162  42.450   4.851   2.355
31870W        W 4163  14.834  28.092   4.705
31871W        W 4164   0.781  40.304  13.353
31872W        W 4165  10.848  29.427  12.031
31873W        W 4166  10.853   7.759   2.803
31874W        W 4167  38.338  41.851   4.294
31875W        W 4168  31.593  21.160  10.599
31876W        W 4169   2.810  33.122  13.376
31877W        W 4170  15.157   7.229  12.430
31878W        W 4171  25.472  11.846   3.871
31879W        W 4172  36.095   7.677  14.473
31880W        W 4173  28.057  23.998  12.524
31881W        W 4174  39.878  13.730   4.788
31882W        W 4175  22.044  19.778  10.466
31883W        W 4176  32.457  26.013  12.507
31884W        W 4177  40.489  43.474  10.629
31885W        W 4178  25.211  25.105  13.000
31886W        W 4179   1.860  39.483   3.222
31887W        W 4180  14.141  44.793   2.211
31888W        W 4181  15.142  25.510  14.484
31889W        W 4182  37.573  16.793   4.277
31890W        W 4183  27.061  42.833  13.884
31891W        W 4184  27.172  36.062   3.800
31892W        W 4185   8.898  11.791   2.680
31893W        W 4186  17.079   0.951   5.150
31894W        W 4187  36.007  38.836   5.308
31895W        W 4188   2.793  30.097  11.972
31896W        W 4189  24.671   7.705  12.490
31897W        W 4190  22.602  24.228   3.860
31898W        W 4191  29.993  31.426   4.276
31899W        W 4192   9.341  27.448  10.580
31900W        W 4193   6.694  21.243   2.278
31901W        W 4194  35.936   4.396   2.735
31902W        W 4195   8.714   9.210   0.920
31903W        W 4196   1.308  28.538   1.412
31904W        W 4197  38.962  19.680  13.922
31905W        W 4198  24.482  19.106  14.399
31906W        W 4199  42.833  27.462  14.508
31907W        W 4200  14.261  22.119   4.724
31908W        W 4201  14.130  22.577   1.832
31909W        W 4202  24.208  34.493   0.838
31910W        W 4203   3.766  20.257   3.828
31911W        W 4204  10.855  42.834   2.338
31912W        W 4205  31.939  32.034   3.359
31913W        W 4206  29.538   7.226  10.441
31914W        W 4207  29.976  33.082  13.529
31915W        W 4208  44.995  11.709   4.778
31916W        W 4209  27.534  20.163   1.882
31917W        W 4210  14.824  27.966  14.387
31918W        W 4211  14.328  40.924  13.400
31919W        W 4212  21.205  44.396  11.568
31920W        W 4213  38.849  12.690  12.935
31921W        W 4214   9.756  44.369   4.133
31922W        W 4215  16.184   5.369   4.264
31923W        W 4216   7.318   9.842   4.240
31924W        W 4217  24.066  16.132   2.809
31925W        W 4218  10.171  35.568   3.741
31926W        W 4219  23.622  15.306  10.993
31927W        W 4220  41.847  18.161  12.479
31928W        W 4221  42.833  32.943  12.090
31929W        W 4222  11.249  44.770   4.712
31930W        W 4223  42.845  27.558  11.887
31931W        W 4224  38.029   2.449   0.938
31932W        W 4225   3.394  40.533   1.309
31933W        W 4226  43.282  22.653   2.702
31934W        W 4227  16.253   8.220  13.889
31935W        W 4228  34.506   8.816   3.836
31936W        W 4229  16.191  43.772  14.767
31937W        W 4230  41.439  12.224   4.280
31938W        W 4231  25.703   2.911  13.343
31939W        W 4232  42.777  40.859   0.929
31940W        W 4233  23.521  25.030  12.050
31941W        W 4234  39.331  15.768   2.711
31942W        W 4235  17.116  32.893   3.257
31943W        W 4236  21.208  10.304   2.768
31944W        W 4237   2.798   7.710   2.890
31945W        W 4238  39.979  12.627  14.473
31946W        W 4239  26.067  31.972   1.444
31947W        W 4240  40.816  35.079  14.855
31948W        W 4241  20.147  12.190  11.955
31949W        W 4242  34.099  13.822   0.473
31950W        W 4243  11.219  41.296   2.715
31951W        W 4244   4.896   7.333   4.766
31952W        W 4245   0.932  19.212   1.781
31953W        W 4246  25.552  17.163   0.394
31954W        W 4247  27.973  37.582  10.063
31955W        W 4248  28.557   1.357  12.442
31956W        W 4249  32.456  40.544  14.352
31957W        W 4250  34.592  22.527   2.801
31958W        W 4251   1.759  38.968  10.994
31959W        W 4252  40.986  25.639  13.946
31960W        W 4253   3.367  26.566   3.638
31961W        W 4254  34.372  40.827   0.835
31962W        W 4255  42.403   3.867   3.752
31963W        W 4256   0.251  13.637   0.350
31964W        W 4257   6.251  12.130  12.861
31965W        W 4258  22.554  31.458  14.970
31966W        W 4259  16.262   0.345   3.328
31967W        W 4260  11.169  25.548  11.392
31968W        W 4261   0.876  27.041   1.338
31969W        W 4262  34.444   7.839   4.624
31970W        W 4263  39.479  15.616   4.165
31971W        W 4264  19.594  36.563  13.949
31972W        W 4265  41.368  28.061  12.887
31973W        W 4266  12.344  36.414  12.365
31974W        W 4267  11.754   9.748  12.410
31975W        W 4268  14.812  38.838   1.329
31976W        W 4269  26.566   4.356   3.311
31977W        W 4270   0.879   3.424   4.730
31978W        W 4271  41.884  26.012  12.404
31979W        W 4272  19.133   1.326  13.909
31980W        W 4273  37.970  37.848  11.518
31981W        W 4274  16.611  43.379   1.711
31982W        W 4275  13.741  34.075  10.473
31983W        W 4276  18.288  37.014  14.821
31984W        W 4277  36.456  43.497  11.033
31985W        W 4278  27.561  42.893   4.621
31986W        W 4279   1.382   0.812  10.463
31987W        W 4280  17.691  37.865  13.848
31988W        W 4281  10.691   7.830  12.343
31989W        W 4282  11.720   0.277   1.934
31990W        W 4283  11.827  36.347  11.938
31991W        W 4284  33.429  18.196  13.401
31992W        W 4285   4.875  33.071   3.695
31993W        W 4286  32.559   1.245  14.991
31994W        W 4287   4.234  40.305   4.714
31995W        W 4288  24.722   5.689   3.187
31996W        W 4289  31.014  29.581   0.944
31997W        W 4290   8.887  42.415  13.800
31998W        W 4291  38.951  44.959  14.281
31999W        W 4292  30.573   9.312   2.387
32000W        W 4293  21.071  36.879  11.423
32001W        W 4294   4.877  43.908   0.307
32002W        W 4295  26.515  42.504  12.833
32003W        W 4296  40.881   9.775   3.299
32004W        W 4297  27.600  28.169  10.450
32005W        W 4298  11.768   0.963  12.369
32006W        W 4299   3.461  15.624   4.317
32007W        W 4300   2.374   9.327  13.364
32008W        W 4301  26.526  29.135  11.438
32009W        W 4302  19.284   0.857   3.630
32010W        W 4303  11.135  31.631  12.832
32011W        W 4304  10.298  36.499  11.059
32012W        W 4305  42.845  11.766   0.442
32013W        W 4306  29.580  24.688   1.711
32014W        W 4307  11.659  41.313  13.047
32015W        W 4308  24.064  33.046   0.340
32016W        W 4309  17.245  21.126  11.966
32017W        W 4310   6.852  22.735  11.592
32018W        W 4311  38.476  18.188   0.347
32019W        W 4312  37.023  31.951   4.202
32020W        W 4313  37.015   6.753  13.917
32021W        W 4314  32.544  35.581   3.202
32022W        W 4315  23.206  30.161   4.649
32023W        W 4316  29.631   0.819   0.929
32024W        W 4317  25.148  26.993   0.433
32025W        W 4318   7.414  26.699  10.541
32026W        W 4319  37.941  44.413  13.489
32027W        W 4320  38.967  34.501  14.289
32028W        W 4321  19.165  23.036  13.379
32029W        W 4322  14.800  31.426   4.825
32030W        W 4323  37.036  23.014   4.750
32031W        W 4324  26.483  19.189   2.714
32032W        W 4325   7.275  32.018  11.880
32033W        W 4326  24.161  18.188   1.882
32034W        W 4327  12.161  18.219   2.302
32035W        W 4328   0.910   8.804   4.789
32036W        W 4329  21.568  15.807  10.906
32037W        W 4330   4.383  19.278  13.930
32038W        W 4331  24.497  34.039   0.777
32039W        W 4332  40.468  36.954   0.767
32040W        W 4333  15.643   9.232  13.919
32041W        W 4334  33.016  29.563  14.492
32042W        W 4335  19.604   4.284  14.474
32043W        W 4336  16.727  28.609   2.323
32044W        W 4337  12.777   8.296  14.407
32045W        W 4338  38.425  10.372   4.745
32046W        W 4339   6.276   7.296  13.822
32047W        W 4340  11.210   9.862  11.535
32048W        W 4341  23.728  38.057   4.245
32049W        W 4342  20.053  13.212  12.576
32050W        W 4343  38.570  36.087  14.898
32051W        W 4344  43.464  15.097   2.713
32052W        W 4345  16.106   3.767  12.489
32053W        W 4346  23.213  19.073  12.921
32054W        W 4347  21.038  24.597  11.544
32055W        W 4348  14.756  36.536   3.210
32056W        W 4349  36.071  27.051  11.913
32057W        W 4350  44.482   7.322  12.873
32058W        W 4351   5.853  43.865  12.450
32059W        W 4352  31.644  25.195  11.118
32060W        W 4353   6.776  30.546  12.909
32061W        W 4354  28.510  42.999  11.605
32062W        W 4355  30.962   5.700   4.831
32063W        W 4356  34.915  15.621   1.341
32064W        W 4357   4.298  40.310   3.792
32065W        W 4358  14.787  16.793   1.285
32066W        W 4359  35.953  17.274   4.631
32067W        W 4360  24.170  43.515  11.108
32068W        W 4361   0.881  41.475   4.620
32069W        W 4362  21.573  41.847  11.973
32070W        W 4363  23.497  36.525  10.448
32071W        W 4364  38.967  10.333  12.948
32072W        W 4365   6.224  16.583   3.687
32073W        W 4366  35.583   1.415  11.981
32074W        W 4367   0.449  36.857   2.221
32075W        W 4368  34.495  30.969  13.949
32076W        W 4369  21.181   3.261   1.893
32077W        W 4370  15.759  11.710   4.606
32078W        W 4371   0.413  36.052  11.966
32079W        W 4372   3.446  25.580   0.941
32080W        W 4373  11.284   7.212   2.675
32081W        W 4374  33.487  24.046  10.950
32082W        W 4375   9.741  21.074  12.092
32083W        W 4376  38.512   3.726  11.925
32084W        W 4377   8.190  21.546  13.440
32085W        W 4378  28.954   3.311   4.670
32086W        W 4379   4.432  14.731   1.335
32087W        W 4380  19.144  34.923  11.874
32088W        W 4381  17.132  34.060  11.380
32089W        W 4382   5.215  14.287  11.071
32090W        W 4383  37.977  35.382   4.643
32091W        W 4384  12.805  22.620  12.892
32092W        W 4385  16.713  42.850   0.784
32093W        W 4386  28.473   4.219  13.018
32094W        W 4387  34.884  28.585   3.765
32095W        W 4388  11.269  27.094  13.028
32096W        W 4389  17.168  22.140  14.344
32097W        W 4390  13.791  40.544   4.165
32098W        W 4391   2.262  40.953   0.894
32099W        W 4392  35.530  44.918   3.167
32100W        W 4393  11.671  35.527   2.758
32101W        W 4394  39.896  23.164   4.601
32102W        W 4395  17.609   2.757   4.626
32103W        W 4396  40.388  20.234   0.758
32104W        W 4397   4.802  25.195  13.459
32105W        W 4398  19.719   3.767  11.892
32106W        W 4399  29.495  29.075   1.722
32107W        W 4400  11.290  19.664  11.112
32108W        W 4401  42.996   9.210  12.090
32109W        W 4402   1.375  29.562   4.806
32110W        W 4403  33.129   3.735  11.966
32111W        W 4404  10.249  38.356  11.440
32112W        W 4405  44.940  32.453  14.501
32113W        W 4406  42.953  23.596  11.542
32114W        W 4407   1.927  13.659  12.372
32115W        W 4408  30.475  18.548  14.334
32116W        W 4409  25.192  29.165   2.397
32117W        W 4410  10.853  28.655  11.544
32118W        W 4411  22.213   2.776   4.737
32119W        W 4412  39.997  13.320  14.468
32120W        W 4413  14.591  36.468  11.964
32121W        W 4414   4.260   9.360  13.867
32122W        W 4415  24.677   3.310   2.704
32123W        W 4416  32.396   7.682  10.568
32124W        W 4417  31.984  24.683   3.214
32125W        W 4418  22.240  24.060   4.292
32126W        W 4419   4.757  12.309   4.819
32127W        W 4420  22.112  14.719   3.322
32128W        W 4421  38.820  24.169   3.179
32129W        W 4422  44.874  25.999   4.823
32130W        W 4423  16.710  43.371   3.222
32131W        W 4424  36.417  44.008  10.917
32132W        W 4425  26.489  38.364   2.863
32133W        W 4426  20.085  42.018  11.899
32134W        W 4427  17.709   1.460   2.719
32135W        W 4428  34.386  27.646   4.771
32136W        W 4429  44.482  16.794  12.907
32137W        W 4430  16.123  15.296  14.492
32138W        W 4431  25.651  14.792  12.938
32139W        W 4432  31.989  25.040   2.855
32140W        W 4433   9.254  24.488   1.931
32141W        W 4434  29.030  32.002   0.871
32142W        W 4435  21.085  27.119   2.216
32143W        W 4436   3.381  35.596  11.387
32144W        W 4437  26.975  18.157  13.370
32145W        W 4438  24.144  26.488   5.171
32146W        W 4439  31.597  18.243   2.676
32147W        W 4440  32.929  22.082   4.788
32148W        W 4441  16.244   3.403  11.109
32149W        W 4442  28.511  36.532   3.180
32150W        W 4443  37.427  21.555  11.560
32151W        W 4444  20.552  25.503   1.774
32152W        W 4445  37.977  40.941   1.419
32153W        W 4446  26.083  21.031   0.390
32154W        W 4447  27.028  17.229   0.409
32155W        W 4448  19.264  38.465  14.834
32156W        W 4449   7.274   9.300   2.345
32157W        W 4450   0.919  12.337  10.891
32158W        W 4451  44.464  43.284  11.545
32159W        W 4452  30.628  36.038  13.909
32160W        W 4453  42.812  12.652   9.971
32161W        W 4454  24.545  42.458  14.408
32162W        W 4455  41.368   1.837  12.054
32163W        W 4456  39.477  12.694  13.862
32164W        W 4457  39.032  10.164   3.197
32165W        W 4458   2.452  27.621  12.391
32166W        W 4459  15.728  25.163  13.365
32167W        W 4460  37.887  40.541  10.987
32168W        W 4461  44.428  15.321   4.296
32169W        W 4462  34.600  36.911   0.779
32170W        W 4463  35.597  44.001   0.339
32171W        W 4464  13.154  17.783  13.905
32172W        W 4465  40.890  25.143  11.880
32173W        W 4466  39.488  41.366  12.397
32174W        W 4467  42.360  18.551  12.379
32175W        W 4468  32.065  15.224  13.480
32176W        W 4469   1.318   1.357   4.679
32177W        W 4470  25.987  26.069  14.991
32178W        W 4471  43.765   6.355   3.867
32179W        W 4472  41.823   8.310   0.774
32180W        W 4473  44.873  37.969  12.849
32181W        W 4474  32.994  37.941  11.602
32182W        W 4475  33.059   0.851  10.438
32183W        W 4476   3.875  29.552  14.481
32184W        W 4477  30.528  31.045   0.467
32185W        W 4478   6.800   7.209   2.807
32186W        W 4479  44.911  37.998  12.528
32187W        W 4480  13.117   4.754   5.318
32188W        W 4481  23.605   7.829   4.264
32189W        W 4482  34.971  26.510   1.341
32190W        W 4483  15.665  31.589  11.979
32191W        W 4484  31.914  21.622  12.901
32192W        W 4485  39.341  24.220   2.236
32193W        W 4486  41.895  14.599  13.061
32194W        W 4487  37.845  11.732  10.932
32195W        W 4488  31.444  20.628   2.785
32196W        W 4489  44.422  34.591   1.385
32197W        W 4490  33.513  24.050   1.834
32198W        W 4491  22.078  42.781   0.250
32199W        W 4492  11.666  22.074  10.900
32200W        W 4493   9.857  14.226   4.806
32201W        W 4494  35.973  42.318  14.998
32202W        W 4495  12.665  18.139  14.330
32203W        W 4496  17.130  38.005  13.972
32204W        W 4497  28.138  10.383  13.440
32205W        W 4498   1.256  24.172   4.146
32206W        W 4499  23.153  41.298  10.958
32207W        W 4500  32.522  34.382  12.353
32208W        W 4501   6.881   1.295   4.145
32209W        W 4502   4.792  38.920  12.459
32210W        W 4503  27.506   7.843   3.150
32211W        W 4504   5.272  32.630  14.319
32212W        W 4505   0.849  19.236  12.919
32213W        W 4506  26.531  12.776  14.293
32214W        W 4507  39.985   4.309  12.494
32215W        W 4508  27.602  19.734   2.881
32216W        W 4509   6.869  44.356   2.852
32217W        W 4510  34.114  32.968  14.968
32218W        W 4511  32.556  26.655   4.661
32219W        W 4512  20.688  34.939  10.909
32220W        W 4513  26.188   0.940  12.084
32221W        W 4514  15.191  17.301  14.420
32222W        W 4515  33.422   4.869  13.831
32223W        W 4516  44.008   0.896   9.975
32224W        W 4517  26.037   8.750   5.307
32225W        W 4518  28.127  17.564  11.954
32226W        W 4519  11.155  21.546  12.026
32227W        W 4520  23.060  25.074   1.872
32228W        W 4521  14.751  39.891  11.475
32229W        W 4522  41.936  23.019   0.800
32230W        W 4523   8.900  12.327   4.162
32231W        W 4524  20.248  23.582  13.417
32232W        W 4525  24.713  28.466   3.350
32233W        W 4526  34.395  23.717  14.485
32234W        W 4527  41.380  36.062  14.477
32235W        W 4528   0.755   0.321   4.256
32236W        W 4529  16.634  41.500   2.212
32237W        W 4530  44.828  34.516   5.152
32238W        W 4531  28.117  22.742   0.483
32239W        W 4532  35.452  13.724  11.099
32240W        W 4533  19.217   3.840  13.438
32241W        W 4534  28.518  10.205  10.085
32242W        W 4535  29.996   2.868   3.282
32243W        W 4536  44.434  35.023   1.430
32244W        W 4537   2.362   4.728   4.305
32245W        W 4538   6.693  25.607   2.320
32246W        W 4539  31.112  19.692   0.956
32247W        W 4540  25.010  15.615   3.349
32248W        W 4541  14.206  32.399   2.405
32249W        W 4542   5.208  37.978   4.213
32250W        W 4543  10.684   3.303   4.340
32251W        W 4544  28.601  43.417  13.409
32252W        W 4545   5.902  26.984  13.504
32253W        W 4546   0.937   4.873  11.612
32254W        W 4547  32.405   5.873   3.376
32255W        W 4548  37.447  17.563   4.165
32256W        W 4549  26.979  33.552   3.869
32257W        W 4550  25.681  36.415   3.731
32258W        W 4551  13.728  34.611  14.888
32259W        W 4552  10.658  25.982   1.436
32260W        W 4553   9.187  32.894  14.824
32261W        W 4554  31.592   3.736  14.899
32262W        W 4555   4.765  27.552  12.085
32263W        W 4556  38.952  22.047  10.615
32264W        W 4557  30.119  40.958   0.285
32265W        W 4558  40.463  44.451   1.360
32266W        W 4559  32.558  12.249  14.851
32267W        W 4560  32.978  19.736   2.830
32268W        W 4561  10.804  25.548  11.391
32269W        W 4562  37.851  17.172   2.896
32270W        W 4563  32.003   3.414   1.316
32271W        W 4564  41.537  35.921   2.237
32272W        W 4565  15.673  37.004  11.985
32273W        W 4566  22.132   8.273   2.289
32274W        W 4567  37.974   5.754   1.892
32275W        W 4568   4.374   1.804  14.385
32276W        W 4569  36.090   2.789  12.977
32277W        W 4570  39.531   4.864  11.568
32278W        W 4571  11.639  11.847   1.392
32279W        W 4572  33.103  16.573  14.808
32280W        W 4573  35.971  31.073   3.330
32281W        W 4574  28.116   8.345  13.828
32282W        W 4575  26.611  25.120   0.827
32283W        W 4576  22.135  14.273  12.944
32284W        W 4577  31.643  11.224  14.957
32285W        W 4578  27.561   6.858  14.358
32286W        W 4579  23.515   6.352  12.980
32287W        W 4580  20.738  19.559  11.607
32288W        W 4581  24.000  16.174   4.182
32289W        W 4582  21.653  12.825   4.688
32290W        W 4583   0.347   1.423   3.803
32291W        W 4584   7.263  29.925   4.764
32292W        W 4585  34.462   3.311  11.459
32293W        W 4586  40.798  27.947   3.671
32294W        W 4587   1.257   9.268  10.587
32295W        W 4588  33.947  29.656   3.812
32296W        W 4589  26.464  11.176  10.904
32297W        W 4590  15.788   6.685   3.671
32298W        W 4591  24.999   9.361   0.426
32299W        W 4592  12.136   3.918  10.967
32300W        W 4593   5.350  11.703   2.825
32301W        W 4594   7.833   9.788  10.601
32302W        W 4595  19.695  17.627  13.901
32303W        W 4596   6.350  10.233  12.018
32304W        W 4597  42.487   6.201  12.990
32305W        W 4598  17.094  36.956  11.088
32306W        W 4599  30.553  41.928   2.747
32307W        W 4600  14.164  18.759   1.244
32308W        W 4601  18.730  21.128  12.456
32309W        W 4602  16.270  10.214   3.346
32310W        W 4603   9.667  40.876   1.863
32311W        W 4604  33.569  24.152  11.596
32312W        W 4605   6.728   5.809  13.544
32313W        W 4606   3.709   5.824  12.430
32314W        W 4607   0.744   5.690   1.338
32315W        W 4608  27.030  33.920   1.295
32316W        W 4609  26.582  44.386   3.235
32317W        W 4610  21.723  21.614  14.325
32318W        W 4611  26.081   4.824  11.441
32319W        W 4612  17.237  32.095   0.958
32320W        W 4613   6.756  43.847  12.555
32321W        W 4614  11.157  40.801   0.825
32322W        W 4615   6.391   3.758   3.692
32323W        W 4616   6.815  23.593   2.875
32324W        W 4617  35.540   3.751   4.264
32325W        W 4618  11.316  23.652  14.925
32326W        W 4619   3.715  41.311   3.693
32327W        W 4620  23.576  19.581   3.303
32328W        W 4621  12.777  42.383  13.483
32329W        W 4622  31.546  28.053  14.019
32330W        W 4623   7.858  19.276  12.383
32331W        W 4624   6.853   9.359  11.106
32332W        W 4625  21.089  16.600  14.022
32333W        W 4626  19.173  42.458  10.976
32334W        W 4627  36.508  38.853   2.408
32335W        W 4628  14.103   2.329  14.884
32336W        W 4629  24.559  27.151   1.723
32337W        W 4630  30.158  19.119   3.747
32338W        W 4631  38.059  37.501  10.902
32339W        W 4632  42.809  40.418   4.353
32340W        W 4633  25.218  24.198   1.430
32341W        W 4634  40.963  24.706  11.063
32342W        W 4635  12.173   5.438  11.448
32343W        W 4636  40.910   5.393  11.431
32344W        W 4637  31.626  27.560   2.727
32345W        W 4638  39.502  13.205   3.859
32346W        W 4639  29.496   3.366  13.869
32347W        W 4640  32.103  30.534  10.485
32348W        W 4641  38.952  38.966  13.920
32349W        W 4642  33.608   0.384  11.899
32350W        W 4643   2.362  37.411   0.923
32351W        W 4644   2.320  12.659  14.340
32352W        W 4645  18.257  16.573   4.309
32353W        W 4646  14.198  22.558   2.694
32354W        W 4647   9.176  41.945  10.495
32355W        W 4648  13.685   8.803  10.411
32356W        W 4649  33.110  26.080   2.853
32357W        W 4650  42.356  35.542   4.259
32358W        W 4651  19.692  30.652   5.614
32359W        W 4652   4.917  26.484  14.812
32360W        W 4653  40.921  32.032   2.713
32361W        W 4654  11.373  16.254  10.422
32362W        W 4655  43.438  35.598  12.903
32363W        W 4656  26.000  38.546   3.783
32364W        W 4657  12.698  12.271   2.408
32365W        W 4658   4.744  33.560   5.196
32366W        W 4659  41.526  35.502  10.555
32367W        W 4660   6.391  41.527   2.678
32368W        W 4661  41.518  33.530   2.232
32369W        W 4662   0.974  33.596   2.312
32370W        W 4663   5.383   8.200   1.761
32371W        W 4664   8.226  43.353   3.252
32372W        W 4665   4.868  35.097   3.832
32373W        W 4666  22.193  24.183  12.550
32374W        W 4667  40.343  28.990  14.827
32375W        W 4668  17.564  26.658   2.414
32376W        W 4669  33.024  13.310   4.339
32377W        W 4670  42.807  37.907   3.281
32378W        W 4671  28.581  40.851  11.895
32379W        W 4672  30.114  20.737  13.850
32380W        W 4673  16.093  21.072   1.285
32381W        W 4674  32.069  26.034  12.423
32382W        W 4675  24.187  23.729   0.466
32383W        W 4676  13.214  21.095  10.590
32384W        W 4677  42.296  12.129   1.254
32385W        W 4678  25.595  44.936   3.716
32386W        W 4679   6.407  16.716  13.321
32387W        W 4680   4.883  21.674  13.392
32388W        W 4681  26.200  14.095   2.275
32389W        W 4682  26.008  41.499  11.401
32390W        W 4683  19.125  34.557  12.571
32391W        W 4684  40.801  43.360  12.452
32392W        W 4685  40.920  30.574  10.949
32393W        W 4686  35.581  13.316  13.955
32394W        W 4687  38.544   5.718   1.242
32395W        W 4688  21.720  13.655  12.941
32396W        W 4689  34.395  23.594   3.694
32397W        W 4690   7.817  18.612  12.874
32398W        W 4691  12.836  26.028  14.987
32399W        W 4692  15.661  37.027   4.747
32400W        W 4693  24.674  16.161   1.873
32401W        W 4694  29.024   1.944   2.746
32402W        W 4695  37.469  17.657  14.850
32403W        W 4696   6.296  23.677   4.199
32404W        W 4697  15.273  11.701  12.864
32405W        W 4698   3.380  41.369   9.932
32406W        W 4699  21.173  10.299  14.819
32407W        W 4700  15.107  10.830  12.436
32408W        W 4701  23.593  44.982   3.838
32409W        W 4702  14.189  39.366   3.276
32410W        W 4703   2.923  17.168   4.757
32411W        W 4704  18.633  15.600   0.386
32412W        W 4705  35.394  26.665  11.475
32413W        W 4706  39.909  31.438  14.405
32414W        W 4707   9.295  30.489  12.577
32415W        W 4708  22.156   3.339  11.875
32416W        W 4709  33.000  32.503  11.115
32417W        W 4710  29.543  27.639  12.945
32418W        W 4711  14.682   4.722   1.891
32419W        W 4712  36.908   4.406   0.954
32420W        W 4713  22.184   2.797   3.283
32421W        W 4714  27.106  27.134  10.585
32422W        W 4715  32.604   3.334  12.466
32423W        W 4716  42.455  22.684   3.380
32424W        W 4717  24.685  34.481  14.512
32425W        W 4718   4.312  22.167  12.365
32426W        W 4719  23.542   4.794   0.267
32427W        W 4720  37.370   6.867   1.241
32428W        W 4721   9.378  25.205  11.980
32429W        W 4722  12.216  24.181  14.319
32430W        W 4723  36.394  40.904   2.776
32431W        W 4724  12.202  26.560   4.235
32432W        W 4725   1.476  13.153   4.665
32433W        W 4726  27.127  38.973   2.747
32434W        W 4727   7.755  34.552  13.380
32435W        W 4728  35.934  34.578  14.866
32436W        W 4729  15.634  21.688   5.243
32437W        W 4730  44.815   2.923  12.090
32438W        W 4731  21.042   1.930   3.759
32439W        W 4732  18.689  33.406   0.447
32440W        W 4733  13.253   9.254   1.931
32441W        W 4734  14.146   5.706  10.004
32442W        W 4735  25.627   7.894  13.005
32443W        W 4736   9.658   8.171  10.606
32444W        W 4737   2.275   0.383   1.258
32445W        W 4738  38.570  36.928  12.049
32446W        W 4739  24.134   8.183  11.049
32447W        W 4740  15.271   6.776  12.393
32448W        W 4741  32.091  42.337   0.399
32449W        W 4742  21.563  14.204   3.311
32450W        W 4743  28.129  24.220   1.427
32451W        W 4744  19.190   4.917   2.246
32452W        W 4745   4.704  32.634  12.076
32453W        W 4746  19.194  22.503  12.069
32454W        W 4747   8.822  37.085   2.842
32455W        W 4748  19.086  24.116  12.371
32456W        W 4749  34.111  24.621   4.612
32457W        W 4750  36.098  39.456   2.825
32458W        W 4751  28.029  27.588   0.897
32459W        W 4752   7.840  30.466   4.825
32460W        W 4753  25.512   9.198  10.891
32461W        W 4754  42.822  44.811  14.932
32462W        W 4755  29.032  43.348   0.292
32463W        W 4756   8.311  44.905  12.488
32464W        W 4757  34.034   1.913   1.386
32465W        W 4758  11.748   2.316  12.385
32466W        W 4759  36.415  30.104  10.538
32467W        W 4760  44.794  41.351   3.695
32468W        W 4761   8.785   9.228   4.203
32469W        W 4762  21.086  44.949  11.933
32470W        W 4763  14.309  15.663  11.546
32471W        W 4764  15.111  36.090  14.431
32472W        W 4765  19.280  22.087   3.248
32473W        W 4766  38.064  14.623  14.923
32474W        W 4767  40.520  44.261   3.808
32475W        W 4768  20.177  16.684   4.235
32476W        W 4769  36.481  19.699  13.450
32477W        W 4770  28.478  14.198  13.900
32478W        W 4771  10.324   3.216   0.761
32479W        W 4772  35.857  28.559  14.762
32480W        W 4773  38.851  16.308  10.563
32481W        W 4774  40.452  37.522   2.721
32482W        W 4775  11.739  36.962   4.719
32483W        W 4776  36.859  27.164  12.091
32484W        W 4777  24.627  13.767   2.343
32485W        W 4778   4.283   6.325   0.422
32486W        W 4779  12.742  12.329   4.682
32487W        W 4780  13.673   8.215   2.185
32488W        W 4781  13.738  25.160   2.408
32489W        W 4782   1.967  37.931   2.190
32490W        W 4783  25.570  42.992   2.888
32491W        W 4784  37.543   1.742   1.711
32492W        W 4785   3.394   4.448  14.972
32493W        W 4786  25.006   5.738  14.942
32494W        W 4787   9.854  38.906   4.183
32495W        W 4788  11.279   8.892   4.115
32496W        W 4789  13.269  20.766  12.006
32497W        W 4790  39.413   0.304   1.754
32498W        W 4791  24.562   1.857  11.499
32499W        W 4792  17.731  11.263   2.697
32500W        W 4793  35.920   6.282  10.476
32501W        W 4794  10.364  35.933  12.866
32502W        W 4795  25.521  16.266   0.396
32503W        W 4796  44.490   4.341  14.288
32504W        W 4797  18.783  10.712   0.438
32505W        W 4798  18.592   9.209   0.462
32506W        W 4799  21.620  24.564  12.436
32507W        W 4800  24.720  28.460  12.949
32508W        W 4801  44.880  33.525  10.990
32509W        W 4802  40.340  31.924  14.287
32510W        W 4803  28.178  35.893  12.015
32511W        W 4804  31.993  30.069  11.010
32512W        W 4805  26.691  38.965  12.926
32513W        W 4806  20.064   3.272   2.370
32514W        W 4807  13.267  35.570   1.778
32515W        W 4808  38.556  10.752   4.674
32516W        W 4809  13.191  32.970  11.406
32517W        W 4810  26.609  10.317  11.564
32518W        W 4811  40.902   6.406  12.422
32519W        W 4812  22.147  36.942  10.889
32520W        W 4813   3.357   5.203   1.323
32521W        W 4814  20.106  10.834  14.801
32522W        W 4815  17.140  41.931   4.630
32523W        W 4816   0.331  25.208  10.609
32524W        W 4817  25.093  16.633  10.893
32525W        W 4818   3.446   2.899   2.201
32526W        W 4819   4.411  10.205  13.935
32527W        W 4820   4.933  44.388   3.323
32528W        W 4821  19.708   8.379   3.158
32529W        W 4822  13.689  43.899   2.668
32530W        W 4823   0.960   5.396  13.054
32531W        W 4824  20.158  39.062   0.854
32532W        W 4825  24.010   6.336   4.725
32533W        W 4826  36.535  25.974  11.923
32534W        W 4827  18.145  27.499   1.899
32535W        W 4828  39.551  22.683   2.346
32536W        W 4829  31.578  33.000  11.524
32537W        W 4830  36.903   8.233  10.520
32538W        W 4831  24.684  18.175  12.019
32539W        W 4832  33.928  16.589   3.696
32540W        W 4833  37.496  29.439  12.019
32541W        W 4834  43.354  24.128   0.288
32542W        W 4835  15.703  38.556   2.710
32543W        W 4836  21.159  30.488  12.564
32544W        W 4837  41.472  11.864  11.855
32545W        W 4838  20.671   0.383  13.814
32546W        W 4839  44.313  15.213  13.386
32547W        W 4840   8.330   1.752   4.323
32548W        W 4841  37.547  28.060  12.953
32549W        W 4842  38.896   8.662  14.389
32550W        W 4843   0.307  25.969   0.941
32551W        W 4844   7.233  29.959   1.763
32552W        W 4845  20.627  21.172   2.305
32553W        W 4846   0.777  44.474  10.466
32554W        W 4847  10.851  41.878   4.725
32555W        W 4848  36.977  44.982  14.402
32556W        W 4849  14.292  11.859   1.904
32557W        W 4850  24.141   9.836  11.043
32558W        W 4851  44.431  18.763   5.719
32559W        W 4852  29.495  10.245   5.180
32560W        W 4853  41.536  12.306   2.769
32561W        W 4854  30.569  10.250   0.256
32562W        W 4855  14.255  26.202   1.824
32563W        W 4856  43.495  26.478   1.270
32564W        W 4857   0.251  26.148  12.341
32565W        W 4858  29.975  11.736   4.138
32566W        W 4859  35.020  16.626  14.485
32567W        W 4860  32.424   2.294  14.917
32568W        W 4861  20.038  23.579   0.390
32569W        W 4862  32.435   9.298   2.738
32570W        W 4863  36.591  40.844  12.848
32571W        W 4864  26.130  25.142  13.445
32572W        W 4865  29.098  26.498  13.406
32573W        W 4866  17.065  36.930  14.011
32574W        W 4867   6.760   1.321   4.766
32575W        W 4868  15.085   1.924  11.565
32576W        W 4869  38.833   7.173   2.267
32577W        W 4870  14.621   4.737   1.279
32578W        W 4871  31.408  40.411  10.595
32579W        W 4872  17.239  40.396  12.553
32580W        W 4873   0.837   2.721   3.199
32581W        W 4874  39.537  24.515   0.851
32582W        W 4875  29.439  24.121   2.332
32583W        W 4876  44.931  36.034  12.045
32584W        W 4877  36.472  11.168  11.042
32585W        W 4878  24.608  38.917   3.643
32586W        W 4879  16.585  37.582  12.871
32587W        W 4880  28.975  21.738   1.381
32588W        W 4881   2.454  22.646   1.290
32589W        W 4882  44.335  23.022   2.790
32590W        W 4883  42.927  27.045   4.204
32591W        W 4884  11.732   4.444  12.056
32592W        W 4885  10.645  14.126  11.454
32593W        W 4886  20.758  36.899  10.447
32594W        W 4887  28.482  18.616  13.853
32595W        W 4888   8.299  21.205   2.722
32596W        W 4889  30.657  19.698  10.972
32597W        W 4890  14.175  37.057   4.209
32598W        W 4891  30.116  38.850  10.948
32599W        W 4892  36.552  25.029  14.807
32600W        W 4893   7.341  20.176  12.967
32601W        W 4894  19.233  10.224  12.048
32602W        W 4895   3.747  25.065   3.317
32603W        W 4896   4.853  25.200  12.998
32604W        W 4897  43.848   9.153   0.316
32605W        W 4898   8.230  43.957   2.834
32606W        W 4899  12.674  37.361   4.751
32607W        W 4900  41.813   2.226  14.910
32608W        W 4901  17.585  31.971   5.088
32609W        W 4902   7.904   8.771   1.808
32610W        W 4903   8.310  36.402  12.995
32611W        W 4904  34.005  28.452  10.981
32612W        W 4905  10.260  43.415  11.453
32613W        W 4906   4.782  37.904  11.484
32614W        W 4907  17.686  31.497  14.360
32615W        W 4908  25.055  31.932  14.286
32616W        W 4909  24.046  22.022   1.837
32617W        W 4910  30.051  25.535  10.524
32618W        W 4911  19.238  19.699  12.419
32619W        W 4912   5.859  17.264   1.436
32620W        W 4913   9.852   2.315  13.839
32621W        W 4914  27.112  39.363  11.565
32622W        W 4915  37.974  37.450   4.118
32623W        W 4916  16.610  30.060   3.299
32624W        W 4917  17.069  36.031  11.856
32625W        W 4918   7.356   2.362   1.897
32626W        W 4919  32.492   9.299  14.986
32627W        W 4920  44.503  15.131   1.252
32628W        W 4921  35.602  12.269  12.340
32629W        W 4922   9.202   3.275   2.310
32630W        W 4923  36.548  12.319   3.663
32631W        W 4924  40.926   2.292   0.821
32632W        W 4925  29.558   3.733   1.217
32633W        W 4926  31.420   4.395   3.319
32634W        W 4927  24.158  23.590  12.012
32635W        W 4928  44.457  26.076  14.011
32636W        W 4929   2.838  15.644  13.844
32637W        W 4930  33.035  37.368   4.316
32638W        W 4931  35.530  11.835   3.324
32639W        W 4932  38.938  16.796  10.160
32640W        W 4933   8.898  38.554   0.348
32641W        W 4934  21.220  30.923   4.114
32642W        W 4935  28.524   8.693   3.270
32643W        W 4936  26.126  40.385  13.803
32644W        W 4937  22.644   7.413  13.937
32645W        W 4938  41.485  31.526   4.766
32646W        W 4939  12.718  21.077  13.831
32647W        W 4940  20.240  32.007   3.158
32648W        W 4941   9.194   0.770   2.893
32649W        W 4942  26.126   6.216  11.522
32650W        W 4943   6.714  25.216   1.431
32651W        W 4944  32.533  28.531  12.918
32652W        W 4945  30.005   1.483   2.310
32653W        W 4946  25.611   2.869  10.604
32654W        W 4947  16.293  17.566  14.836
32655W        W 4948  21.105  18.694   1.791
32656W        W 4949  37.503   9.759  10.431
32657W        W 4950  34.387  12.227   2.256
32658W        W 4951  19.637  31.432  14.355
32659W        W 4952   2.230  29.021  14.301
32660W        W 4953  16.791   0.936  10.514
32661W        W 4954  20.571  19.559  11.938
32662W        W 4955   8.257  32.398   0.481
32663W        W 4956  20.690  15.282   3.172
32664W        W 4957  34.028  15.102   4.628
32665W        W 4958  39.551   5.333  14.809
32666W        W 4959   6.807  22.042  11.006
32667W        W 4960  17.784  17.653  14.879
32668W        W 4961  38.846   7.200   2.703
32669W        W 4962   4.841   5.920   3.321
32670W        W 4963  30.564  33.009  11.563
32671W        W 4964  19.197   9.700  11.540
32672W        W 4965  25.681   8.310  11.039
32673W        W 4966   4.830  16.799   2.684
32674W        W 4967  41.863  31.014  13.973
32675W        W 4968  28.042   3.391   2.368
32676W        W 4969   3.827   4.733   4.674
32677W        W 4970  43.386  34.424  12.856
32678W        W 4971  26.036  37.409  11.919
32679W        W 4972  12.825   0.405  13.397
32680W        W 4973  42.788  14.685  11.039
32681W        W 4974  24.648  32.449  12.538
32682W        W 4975  36.035   6.907   4.665
32683W        W 4976  29.581  26.074   2.383
32684W        W 4977   4.854  42.958  13.441
32685W        W 4978  16.278   1.862  12.499
32686W        W 4979  30.954  14.315  12.434
32687W        W 4980   3.322   1.239   3.781
32688W        W 4981   2.472  10.250   1.449
32689W        W 4982  43.907  41.488  12.829
32690W        W 4983  11.341   7.250   4.773
32691W        W 4984  17.302  25.071  10.493
32692W        W 4985  23.098   8.246  12.054
32693W        W 4986   2.266   0.787   3.644
32694W        W 4987   6.370   9.644   1.815
32695W        W 4988   5.245  42.006   1.277
32696W        W 4989  32.626  12.777   3.148
32697W        W 4990  21.569  17.705  13.330
32698W        W 4991  11.326   3.719  12.966
32699W        W 4992  19.141  31.089  13.973
32700W        W 4993  23.547  16.682   2.854
32701W        W 4994   0.958  16.249  10.925
32702W        W 4995  39.872   5.258   2.348
32703W        W 4996   1.901  33.878   4.144
32704W        W 4997  10.356  44.869   3.186
32705W        W 4998  36.862  42.797   4.641
32706W        W 4999  16.256  32.629  11.567
32707W        W 5000   8.233   6.210   4.286
32708W        W 5001   4.739  12.622  10.026
32709W        W 5002  37.922  19.172  14.836
32710W        W 5003   7.321   4.723  12.397
32711W        W 5004  43.303   9.300   4.313
32712W        W 5005  31.901  40.440  11.376
32713W        W 5006  16.298  26.585   2.723
32714W        W 5007  31.101  33.071   0.906
32715W        W 5008  13.631   4.228  14.330
32716W        W 5009   5.785  30.098  11.474
32717W        W 5010  22.573  44.772   0.772
32718W        W 5011  19.055  36.859   2.289
32719W        W 5012  26.166  24.977   5.282
32720W        W 5013  40.532   3.273  10.099
32721W        W 5014  11.818  22.102  12.838
32722W        W 5015  40.381  14.800  11.494
32723W        W 5016   9.781  10.347   1.433
32724W        W 5017  29.541  21.607  10.927
32725W        W 5018   7.270  15.601   4.750
32726W        W 5019  21.744  35.109   2.237
32727W        W 5020  19.586   7.849   2.831
32728W        W 5021  10.723   8.351   0.730
32729W        W 5022  44.986  43.428  14.488
32730W        W 5023  30.041   9.842  14.278
32731W        W 5024  40.426  22.169   0.925
32732W        W 5025  12.308  38.420   4.142
32733W        W 5026  33.537  11.330  13.393
32734W        W 5027   1.781  14.647  14.829
32735W        W 5028  37.552  39.827   0.819
32736W        W 5029  21.046  41.912   0.890
32737W        W 5030  15.190   1.802   3.675
32738W        W 5031   0.838  41.935   1.851
32739W        W 5032  33.080  13.151  10.610
32740W        W 5033  25.635   3.417   5.732
32741W        W 5034  16.617  30.946   2.374
32742W        W 5035  39.864  18.556  12.476
32743W        W 5036   8.716  40.314   2.812
32744W        W 5037  12.216   2.348  13.376
32745W        W 5038  44.411  26.550  14.363
32746W        W 5039  27.503  25.494   2.222
32747W        W 5040  16.650  14.598   1.438
32748W        W 5041  23.711  39.373   1.731
32749W        W 5042   5.742  13.824   3.780
32750W        W 5043  28.086  16.784  11.048
32751W        W 5044  17.783   9.877  14.965
32752W        W 5045  21.175   0.779  14.423
32753W        W 5046   0.404  33.524  11.607
32754W        W 5047  40.052  44.930  12.076
32755W        W 5048  24.175  38.941   0.784
32756W        W 5049  29.158  27.568  12.851
32757W        W 5050  40.004   0.852  13.345
32758W        W 5051  37.914  38.844   1.856
32759W        W 5052  29.600  34.039  14.805
32760W        W 5053   6.281  22.529  10.553
32761W        W 5054  21.580  15.109   0.269
32762W        W 5055  38.453  25.994   4.339
32763W        W 5056   6.908  32.047  12.833
32764W        W 5057  20.676  13.104  13.921
32765W        W 5058  22.511  18.295   2.709
32766W        W 5059  17.636  32.429   3.800
32767W        W 5060  19.238   3.827   3.329
32768W        W 5061  24.674  37.492   2.870
32769W        W 5062   0.296  14.164   1.887
32770W        W 5063  25.481  13.218   0.729
32771W        W 5064  38.822  37.575   3.856
32772W        W 5065  21.691  24.038  10.597
32773W        W 5066   6.295   1.911   2.385
32774W        W 5067  37.088  32.047  10.995
32775W        W 5068   9.345   3.810   4.230
32776W        W 5069  28.556  27.648  11.492
32777W        W 5070  27.514  35.959   2.202
32778W        W 5071  30.133  20.269  14.868
32779W        W 5072  24.489  42.853  10.593
32780W        W 5073  36.966  11.264  12.974
32781W        W 5074  35.479  32.019  14.852
32782W        W 5075   1.888   1.795   2.394
32783W        W 5076  32.417  21.138  13.938
32784W        W 5077  16.739  10.361   4.123
32785W        W 5078   4.741   1.290  11.880
32786W        W 5079  32.006  42.834  10.607
32787W        W 5080  40.309  27.082  11.393
32788W        W 5081  35.107  36.470  14.320
32789W        W 5082   3.846  10.385  11.041
32790W        W 5083  33.383  41.006   1.843
32791W        W 5084  33.573   8.168  10.450
32792W        W 5085  33.437  23.604  11.602
32793W        W 5086   0.310  29.665  11.983
32794W        W 5087  10.252  14.676  12.986
32795W        W 5088  15.127  39.965  12.555
32796W        W 5089  11.729  35.586   4.227
32797W        W 5090  39.036  30.613   1.935
32798W        W 5091  15.713  11.271  12.376
32799W        W 5092  34.955   4.743  12.095
32800W        W 5093  32.608  20.039  11.494
32801W        W 5094  42.398  14.284  10.888
32802W        W 5095  24.524   1.764   1.325
32803W        W 5096   1.816  23.628   4.672
32804W        W 5097   2.737   5.711   4.267
32805W        W 5098  14.288  42.466   2.390
32806W        W 5099  41.883  20.104   0.922
32807W        W 5100   3.929   8.182   4.783
32808W        W 5101  31.955  43.861  13.866
32809W        W 5102  43.906   7.844  10.569
32810W        W 5103   0.922  38.471  14.356
32811W        W 5104  22.542  29.976   2.754
32812W        W 5105   7.676  25.651   4.302
32813W        W 5106  22.743   0.953  11.531
32814W        W 5107  30.950   6.769   3.224
32815W        W 5108  11.732   3.908   2.808
32816W        W 5109  44.327   8.711  10.577
32817W        W 5110  33.921  18.295  12.037
32818W        W 5111  29.609  34.892  13.015
32819W        W 5112   4.903  25.216  10.414
32820W        W 5113   2.301   6.915  10.970
32821W        W 5114  41.350  25.533   1.734
32822W        W 5115   9.686  32.547  10.903
32823W        W 5116  12.175  35.551  11.873
32824W        W 5117   7.199  44.805  13.962
32825W        W 5118   1.333   5.886   2.313
32826W        W 5119  36.014  11.162  13.908
32827W        W 5120   5.281  14.591  10.904
32828W        W 5121  33.068   2.229   3.357
32829W        W 5122  30.911  44.834   2.342
32830W        W 5123  32.550  43.314   4.340
32831W        W 5124   8.403  39.999   1.829
32832W        W 5125  39.058  18.565  11.892
32833W        W 5126  42.359  32.111   2.329
32834W        W 5127  12.218  18.150   4.754
32835W        W 5128  31.522  12.660   4.704
32836W        W 5129  31.597  34.534  11.983
32837W        W 5130  21.685   9.239   0.261
32838W        W 5131  20.186  41.511  10.967
32839W        W 5132   6.699  15.747  14.348
32840W        W 5133  10.142  43.363   0.251
32841W        W 5134  22.078   3.825  10.908
32842W        W 5135  20.044   8.671   2.791
32843W        W 5136  30.431  36.910   4.615
32844W        W 5137  31.981  28.551   1.703
32845W        W 5138  16.635  24.667   0.910
32846W        W 5139  42.472   5.802  10.441
32847W        W 5140   1.947  10.714  13.456
32848W        W 5141  28.590   1.824   3.168
32849W        W 5142  44.935  27.964   3.736
32850W        W 5143   2.239   6.266   5.164
32851W        W 5144  26.997  30.434   3.333
32852W        W 5145  22.140  22.540   3.186
32853W        W 5146  30.920  22.122   4.834
32854W        W 5147  11.192  13.184   0.881
32855W        W 5148  19.059   2.394  10.895
32856W        W 5149  25.591  21.184   4.766
32857W        W 5150  43.425   7.875   4.123
32858W        W 5151  35.934  37.397   4.776
32859W        W 5152  13.208  21.205   1.214
32860W        W 5153   6.368   1.864  10.425
32861W        W 5154  32.604  16.072   3.637
32862W        W 5155   5.336  15.615  14.301
32863W        W 5156  34.067   0.349   4.689
32864W        W 5157  16.269  14.096  10.496
32865W        W 5158   8.844  41.480   2.783
32866W        W 5159   3.796  11.794  12.085
32867W        W 5160  44.279  27.141  13.468
32868W        W 5161  25.064  34.865   4.620
32869W        W 5162  25.146  19.766  13.956
32870W        W 5163  12.228  18.572   2.366
32871W        W 5164   8.777   3.392  13.910
32872W        W 5165   2.927  29.005   3.357
32873W        W 5166  15.812  18.693  14.355
32874W        W 5167   9.879  42.331  14.978
32875W        W 5168   3.922  14.704   4.643
32876W        W 5169  40.342  28.024  11.110
32877W        W 5170   7.778  17.769  12.555
32878W        W 5171   3.836   9.712  11.016
32879W        W 5172  15.804   1.779   1.799
32880W        W 5173  16.116  30.129   4.824
32881W        W 5174  42.304  42.898   1.845
32882W        W 5175  24.230  14.717  13.902
32883W        W 5176  15.252   8.791   1.799
32884W        W 5177  26.654  28.486  11.553
32885W        W 5178  10.778  16.245  13.491
32886W        W 5179   9.263  31.979   3.320
32887W        W 5180   1.268  14.690  13.059
32888W        W 5181  31.499  33.087   4.741
32889W        W 5182   9.287  14.097   1.932
32890W        W 5183  10.381  40.915  14.357
32891W        W 5184  44.763  25.572   4.629
32892W        W 5185  15.313   4.209   0.338
32893W        W 5186  44.845   6.875   2.225
32894W        W 5187  19.547   0.984  10.444
32895W        W 5188  27.195  12.725  13.038
32896W        W 5189  16.137  39.867   1.353
32897W        W 5190  26.519   6.766  12.371
32898W        W 5191   2.430  16.612   3.856
32899W        W 5192  16.720   2.734   4.727
32900W        W 5193  20.709  32.006  13.036
32901W        W 5194  33.044  30.919  11.571
32902W        W 5195   4.864  14.675  12.417
32903W        W 5196   8.222  13.626   4.836
32904W        W 5197   2.268  40.549  12.824
32905W        W 5198  31.547  35.093   4.177
32906W        W 5199   1.262  34.058  11.087
32907W        W 5200   3.411  21.190   3.179
32908W        W 5201  16.610   8.860   3.373
32909W        W 5202  19.644  20.638   3.814
32910W        W 5203  19.640  27.043  12.011
32911W        W 5204  36.374   9.254  13.832
32912W        W 5205  30.987  17.580  12.964
32913W        W 5206  34.064  36.546  12.033
32914W        W 5207  33.508   8.659   4.293
32915W        W 5208   1.358  43.969  11.927
32916W        W 5209  25.635  38.446   0.249
32917W        W 5210   7.213   1.798   4.764
32918W        W 5211   7.806  38.836  13.331
32919W        W 5212   6.745   1.836   0.401
32920W        W 5213   1.313   1.938   1.897
32921W        W 5214  19.177  34.933  14.862
32922W        W 5215  10.273  44.503  10.945
32923W        W 5216   0.441   6.791   0.478
32924W        W 5217   5.328  42.890  12.505
32925W        W 5218  26.037  21.726   1.271
32926W        W 5219  36.078  12.272   2.345
32927W        W 5220  13.220  44.851  14.823
32928W        W 5221  23.049  25.155   4.198
32929W        W 5222  38.489  16.640  12.346
32930W        W 5223  15.103   3.319   0.913
32931W        W 5224  13.758  32.513  13.001
32932W        W 5225  43.785  16.570   4.644
32933W        W 5226  44.788   4.838   2.374
32934W        W 5227  13.818  31.466   1.373
32935W        W 5228   5.871  18.740  13.406
32936W        W 5229  27.176  10.740  14.840
32937W        W 5230   5.212  15.748   1.284
32938W        W 5231  16.660  23.171   5.799
32939W        W 5232  42.796  25.681   4.348
32940W        W 5233  17.734  16.757  14.855
32941W        W 5234  31.544  35.553  12.965
32942W        W 5235  14.262   3.248   2.891
32943W        W 5236   0.912  32.403  10.592
32944W        W 5237  44.789  18.156  12.014
32945W        W 5238  34.535  22.129  13.363
32946W        W 5239   8.898  28.640   4.764
32947W        W 5240  33.492   7.818  10.549
32948W        W 5241  14.654  19.204   0.841
32949W        W 5242  26.633   7.347   2.183
32950W        W 5243  44.461  33.553  13.894
32951W        W 5244  30.461  40.810   3.310
32952W        W 5245  20.061   2.252  14.780
32953W        W 5246  26.173  28.169  13.866
32954W        W 5247  42.390  12.122   0.927
32955W        W 5248  31.507   2.897  14.510
32956W        W 5249  27.042  43.286   4.171
32957W        W 5250  25.195  31.937   0.301
32958W        W 5251   2.258  19.559   3.286
32959W        W 5252  27.953  18.565   4.794
32960W        W 5253  37.500  36.891  13.040
32961W        W 5254  23.640   3.308   3.204
32962W        W 5255  29.668   3.360   4.125
32963W        W 5256  26.651   4.911   4.230
32964W        W 5257  30.119   2.259   1.239
32965W        W 5258   9.880  38.849  10.993
32966W        W 5259  32.531  43.386   2.404
32967W        W 5260   2.746  38.390   2.735
32968W        W 5261  32.607  14.611  13.341
32969W        W 5262  16.669  40.447   0.856
32970W        W 5263  22.648   2.358   2.238
32971W        W 5264   7.694  32.508  14.361
32972W        W 5265  26.659   1.368   3.201
32973W        W 5266  43.471  25.695   1.694
32974W        W 5267  26.523  40.959   0.859
32975W        W 5268  23.524  12.620   1.814
32976W        W 5269   9.713  10.272  13.911
32977W        W 5270  43.905  36.918   4.326
32978W        W 5271  31.010  31.515  13.935
32979W        W 5272  10.870   4.396  13.858
32980W        W 5273  35.872   5.770  10.530
32981W        W 5274  31.598  29.536   1.224
32982W        W 5275  34.565  31.119   2.227
32983W        W 5276  37.071  44.814  13.966
32984W        W 5277  12.640   9.318   1.373
32985W        W 5278  23.065   7.332   4.157
32986W        W 5279  18.733  44.447  11.403
32987W        W 5280  27.968  22.633  11.538
32988W        W 5281  23.522  23.207  14.838
32989W        W 5282  11.836  18.546  13.809
32990W        W 5283  38.874   9.373   3.723
32991W        W 5284   0.272  14.739  14.488
32992W        W 5285  22.216  37.047   3.304
32993W        W 5286   4.767  20.079   4.601
32994W        W 5287   6.918  25.979  13.062
32995W        W 5288  12.840   1.413   0.960
32996W        W 5289   7.762   2.769   3.314
32997W        W 5290  26.094  22.660  11.119
32998W        W 5291   0.425  18.215   4.694
32999W        W 5292  10.268  39.987  12.342
33000W        W 5293  28.631  26.124   4.762
33001W        W 5294  40.913  37.552   3.242
33002W        W 5295  21.723  41.899  13.978
33003W        W 5296  36.936   0.756   0.810
33004W        W 5297  31.932   3.861   0.422
33005W        W 5298   0.908  31.537  11.468
33006W        W 5299  36.505  31.596  11.915
33007W        W 5300  41.931  11.161  10.594
33008W        W 5301   0.744  41.948   3.842
33009W        W 5302  21.613  37.845  11.976
33010W        W 5303  27.966  32.967  10.076
33011W        W 5304  41.869  35.572   1.869
33012W        W 5305  35.397  30.537  10.438
33013W        W 5306  22.723  30.162   2.318
33014W        W 5307  17.140  10.872   3.335
33015W        W 5308  19.561  19.229  12.037
33016W        W 5309  21.140   7.741   2.276
33017W        W 5310  23.052  38.955  12.951
33018W        W 5311  33.920  10.832   4.780
33019W        W 5312  44.403  23.077  14.510
33020W        W 5313   3.223   2.884  12.931
33021W        W 5314   5.811  43.015  13.425
33022W        W 5315  40.944  26.048  12.062
33023W        W 5316  12.658  41.503  14.335
33024W        W 5317  32.045  15.588   5.309
33025W        W 5318   3.817  41.814  12.427
33026W        W 5319   0.429  30.606  12.535
33027W        W 5320  42.397  23.513   3.291
33028W        W 5321  41.815  38.982   2.229
33029W        W 5322  10.376  21.172  13.034
33030W        W 5323  40.001   1.280  13.308
33031W        W 5324  42.924  44.444   4.169
33032W        W 5325  44.767  37.990   1.931
33033W        W 5326   5.222  31.070   4.742
33034W        W 5327  21.622  18.225  12.474
33035W        W 5328  20.622  31.490  12.346
33036W        W 5329   1.926  39.023  13.456
33037W        W 5330   2.417  19.661  14.352
33038W        W 5331  34.952  27.150   3.699
33039W        W 5332  11.268  14.720  11.873
33040W        W 5333  20.134   0.863   0.261
33041W        W 5334  44.959  30.945   2.286
33042W        W 5335  28.577  31.412  12.407
33043W        W 5336  34.881  27.465   2.228
33044W        W 5337  37.914  32.635  12.453
33045W        W 5338   5.853  44.342  11.080
33046W        W 5339  27.531  20.657  12.485
33047W        W 5340  33.878  22.651  10.424
33048W        W 5341  28.577  42.301  12.012
33049W        W 5342   2.287  36.997   2.714
33050W        W 5343  29.025  25.048  11.918
33051W        W 5344   6.811  21.032   0.846
33052W        W 5345  39.945   5.900  10.615
33053W        W 5346  33.518  34.376   2.409
33054W        W 5347  40.479  14.714   2.404
33055W        W 5348   5.300   8.161   0.282
33056W        W 5349   5.835  34.531  12.516
33057W        W 5350  23.089   5.909   0.894
33058W        W 5351  26.153  39.329   3.255
33059W        W 5352   0.318   1.747  12.378
33060W        W 5353  31.465  37.976   0.300
33061W        W 5354  25.469  27.954  13.016
33062W        W 5355  26.510  17.237  11.469
33063W        W 5356   0.272  12.323  14.796
33064W        W 5357  14.338  17.165   5.098
33065W        W 5358  33.908  24.057   1.304
33066W        W 5359  39.463  17.784  11.444
33067W        W 5360   2.810  40.325   4.117
33068W        W 5361  40.868  11.316  14.774
33069W        W 5362  19.062  40.875  12.849
33070W        W 5363  22.015   6.207   2.850
33071W        W 5364  30.974   2.345  11.459
33072W        W 5365   4.210   3.956  10.424
33073W        W 5366  36.540  41.509   0.945
33074W        W 5367  22.113   0.795  11.380
33075W        W 5368  10.669  25.627   0.421
33076W        W 5369   3.770  26.087   0.816
33077W        W 5370   7.266  38.407  14.445
33078W        W 5371  16.246  28.659   4.198
33079W        W 5372   1.750  26.654   4.669
33080W        W 5373  26.646   4.354  12.546
33081W        W 5374  19.768   5.846   1.919
33082W        W 5375  13.272  22.245   0.727
33083W        W 5376  42.790   7.745   0.900
33084W        W 5377  39.999   4.293  13.313
33085W        W 5378  44.460   3.365   3.182
33086W        W 5379  44.874  14.688  11.988
33087W        W 5380  17.675  20.236   0.481
33088W        W 5381   4.794  28.991   1.834
33089W        W 5382   3.892  43.467   3.654
33090W        W 5383   5.823  17.783  14.386
33091W        W 5384   1.428  38.384  12.395
33092W        W 5385  21.083   2.831   3.703
33093W        W 5386   9.758  18.753  12.920
33094W        W 5387   4.230  16.770  14.494
33095W        W 5388  38.525  23.709   0.785
33096W        W 5389  42.437   2.240   0.315
33097W        W 5390  32.632  22.128  11.897
33098W        W 5391  32.123  30.431   0.783
33099W        W 5392  34.065  42.425   3.152
33100W        W 5393  10.650  28.109   3.647
33101W        W 5394  12.206  44.858   4.706
33102W        W 5395  29.143  16.160  11.484
33103W        W 5396   0.359  29.509  11.026
33104W        W 5397   4.370  20.692  10.939
33105W        W 5398  36.857  42.779   4.247
33106W        W 5399  29.124   0.832  12.359
33107W        W 5400  11.154  44.907   1.825
33108W        W 5401   5.864  32.431   0.738
33109W        W 5402  19.667  23.671  13.458
33110W        W 5403  33.513  40.986  10.906
33111W        W 5404   4.346  21.121  14.983
33112W        W 5405  20.040  33.494   1.396
33113W        W 5406  33.098  40.048   4.283
33114W        W 5407  21.119   6.268   1.275
33115W        W 5408  35.501   2.965   3.669
33116W        W 5409   7.772  30.101   3.669
33117W        W 5410  35.925  15.719   3.839
33118W        W 5411  24.655   6.906   3.763
33119W        W 5412  15.258  42.500   0.887
33120W        W 5413   9.204   2.863  14.927
33121W        W 5414   8.777   1.806   2.688
33122W        W 5415  27.060  15.762  12.521
33123W        W 5416   9.225  33.035   1.314
33124W        W 5417  43.329  44.927  11.108
33125W        W 5418  17.162  14.202   3.707
33126W        W 5419  28.453  20.634   9.571
33127W        W 5420  28.551   0.769  14.364
33128W        W 5421  31.490   4.733   3.349
33129W        W 5422  39.373   9.350  12.341
33130W        W 5423  30.534  16.580  10.421
33131W        W 5424  24.656  36.013  12.492
33132W        W 5425  23.691  34.593  14.392
33133W        W 5426   0.771  16.087  11.973
33134W        W 5427  30.115  33.015   0.379
33135W        W 5428   5.720  17.122   2.894
33136W        W 5429  43.516  27.049  10.593
33137W        W 5430   7.768  30.944   1.739
33138W        W 5431  22.230  33.504  14.868
33139W        W 5432  37.995   0.751   1.854
33140W        W 5433  10.867  37.500  11.953
33141W        W 5434  19.259  25.690  11.395
33142W        W 5435  27.574  25.516   0.789
33143W        W 5436   1.310  21.693   2.235
33144W        W 5437  21.229  18.091  10.132
33145W        W 5438  35.080  14.318   3.687
33146W        W 5439   0.985   1.845   3.827
33147W        W 5440  36.973  37.846   1.284
33148W        W 5441  30.605  14.821  11.947
33149W        W 5442  18.153  38.401  13.008
33150W        W 5443  40.406  34.935   3.255
33151W        W 5444   6.248  44.758   0.258
33152W        W 5445  20.539   5.376  14.322
33153W        W 5446  21.537   4.799   0.898
33154W        W 5447  11.828  26.969  10.572
33155W        W 5448  22.052  15.092  10.557
33156W        W 5449  34.559  15.186  11.393
33157W        W 5450  14.160  27.054  11.071
33158W        W 5451   2.431  20.564  10.442
33159W        W 5452  40.889  15.174   4.645
33160W        W 5453  25.535  24.154   3.635
33161W        W 5454  18.061  21.722   0.309
33162W        W 5455  24.664   0.486  14.964
33163W        W 5456   9.860   0.810   2.871
33164W        W 5457  17.653  34.406  10.508
33165W        W 5458  41.942  18.601   9.975
33166W        W 5459  10.361  39.328  10.492
33167W        W 5460  33.574  12.198  14.880
33168W        W 5461  22.519  41.436   1.334
33169W        W 5462  35.419  43.770  11.393
33170W        W 5463   9.213  36.902  13.989
33171W        W 5464  30.507  10.319  10.026
33172W        W 5465  16.599  38.905  12.830
33173W        W 5466  36.950  34.999   1.314
33174W        W 5467  40.522  40.802   2.796
33175W        W 5468  21.110  35.025  10.545
33176W        W 5469  33.465   7.174   0.925
33177W        W 5470  10.647  14.176  10.632
33178W        W 5471  10.696  11.858  14.448
33179W        W 5472   2.771  27.471   2.362
33180W        W 5473   8.324  36.443   3.253
33181W        W 5474   0.786  31.918  14.326
33182W        W 5475  14.188  24.094  10.956
33183W        W 5476  35.052  30.625   0.941
33184W        W 5477  10.239   2.771  11.107
33185W        W 5478  29.958   3.807   1.704
33186W        W 5479  24.582  18.763  14.864
33187W        W 5480  42.884   3.811  13.989
33188W        W 5481  22.622  35.586   2.229
33189W        W 5482  21.099  23.989  10.477
33190W        W 5483  14.275  21.169  13.454
33191W        W 5484  38.467  26.990  14.868
33192W        W 5485  35.077  21.022   4.224
33193W        W 5486  28.017  35.025  11.867
33194W        W 5487  12.239  27.190  12.541
33195W        W 5488  32.502  25.040  12.020
33196W        W 5489  31.570   0.822  10.540
33197W        W 5490  17.728   2.904  11.425
33198W        W 5491   3.399  10.358   2.746
33199W        W 5492  33.522  19.687  13.531
33200W        W 5493  33.039  26.113  14.876
33201W        W 5494  16.215  11.727  14.311
33202W        W 5495  12.155  41.980   1.339
33203W        W 5496   9.739  39.458  14.877
33204W        W 5497  14.777  32.629   0.857
33205W        W 5498  37.949  34.414  13.413
33206W        W 5499  44.447   4.767  10.891
33207W        W 5500  23.105  28.161  13.477
33208W        W 5501  41.996  44.930   4.174
33209W        W 5502  16.621  27.529   2.825
33210W        W 5503  33.890  13.349  14.275
33211W        W 5504  30.139   1.890  14.930
33212W        W 5505  18.717   9.821   4.200
33213W        W 5506  38.045  10.833  14.320
33214W        W 5507  32.026  33.123  12.451
33215W        W 5508  32.536  27.627   1.402
33216W        W 5509  29.466  22.577   4.268
33217W        W 5510  43.296  16.722   0.914
33218W        W 5511  10.844   5.283  11.037
33219W        W 5512  24.555  35.915  14.453
33220W        W 5513  41.859   8.672   0.838
33221W        W 5514  35.600  22.116   3.261
33222W        W 5515  22.016  17.295   0.324
33223W        W 5516  29.096  18.666   1.276
33224W        W 5517   4.354  32.907   1.337
33225W        W 5518  42.931  27.006  13.963
33226W        W 5519  31.018  18.592  12.903
33227W        W 5520  38.873  31.591  14.028
33228W        W 5521  14.741  10.644   3.632
33229W        W 5522  42.821   2.232   0.905
33230W        W 5523  32.127   5.911   4.133
33231W        W 5524  32.130   3.382  11.518
33232W        W 5525  37.400  27.491  10.903
33233W        W 5526   8.829  12.189   3.792
33234W        W 5527  33.094   7.861  10.926
33235W        W 5528   0.357   9.663   2.663
33236W        W 5529   3.856  17.188   3.385
33237W        W 5530  40.530  21.190  13.441
33238W        W 5531  34.910   4.294  11.575
33239W        W 5532  34.895  15.139   3.338
33240W        W 5533  44.411  23.093  11.905
33241W        W 5534  31.578  32.393  12.942
33242W        W 5535  12.290   1.284  14.976
33243W        W 5536  21.250  41.042   4.250
33244W        W 5537  35.493  15.689  12.953
33245W        W 5538  13.181   6.281  12.090
33246W        W 5539  38.881  34.614  12.557
33247W        W 5540   3.453  27.519  13.800
33248W        W 5541  10.306  27.489  13.043
33249W        W 5542  40.466   8.836   2.277
33250W        W 5543  35.358  28.107   0.795
33251W        W 5544   5.878   3.257   1.362
33252W        W 5545   0.800  25.579  13.054
33253W        W 5546   7.200  43.306   4.200
33254W        W 5547  37.416   4.858  13.316
33255W        W 5548  19.092  39.000  14.876
33256W        W 5549  24.063  43.917  14.952
33257W        W 5550  36.406  35.941  11.373
33258W        W 5551  26.514  33.420  13.381
33259W        W 5552   0.304  42.285   4.691
33260W        W 5553  21.150   8.740  11.051
33261W        W 5554   1.455  18.234   1.224
33262W        W 5555   2.794  23.705   2.285
33263W        W 5556  15.098  17.752  10.980
33264W        W 5557  26.634  44.396  14.918
33265W        W 5558  13.319  12.618  11.407
33266W        W 5559  36.531   9.269  10.432
33267W        W 5560  14.248  32.044   5.290
33268W        W 5561  36.091   7.217   1.317
33269W        W 5562  41.992   1.809  13.966
33270W        W 5563  22.006   1.739   0.811
33271W        W 5564   8.711  43.442   2.339
33272W        W 5565  32.614   9.223  14.499
33273W        W 5566   0.483  21.131   0.738
33274W        W 5567  30.106  43.801  11.061
33275W        W 5568  38.539   9.264  12.397
33276W        W 5569  28.447  23.129   3.793
33277W        W 5570  30.627  10.768   5.752
33278W        W 5571  19.685   7.886  13.544
33279W        W 5572  16.715   4.715   3.171
33280W        W 5573  29.132  16.281  13.522
33281W        W 5574  13.638   9.873  10.944
33282W        W 5575  43.308  43.405   0.474
33283W        W 5576  33.410  38.928   5.249
33284W        W 5577  26.691  10.804   3.768
33285W        W 5578  11.304  10.146  13.338
33286W        W 5579  39.862   0.856   3.214
33287W        W 5580  20.257   7.831  13.441
33288W        W 5581  14.741  30.573  10.499
33289W        W 5582  14.249   0.470   3.857
33290W        W 5583  18.050   1.302  11.402
33291W        W 5584  21.606   7.269   1.910
33292W        W 5585  30.462  38.029   3.385
33293W        W 5586  15.166  29.026   4.282
33294W        W 5587  25.627   2.762  14.462
33295W        W 5588  32.905  30.425  14.330
33296W        W 5589   7.295  10.734   3.859
33297W        W 5590  34.515  23.151  13.980
33298W        W 5591   8.389  30.969  11.394
33299W        W 5592  16.266  17.190  12.523
33300W        W 5593  34.566  32.603   4.153
33301W        W 5594  20.211  12.161  13.453
33302W        W 5595  13.154  30.569  11.987
33303W        W 5596  11.722   4.927  12.860
33304W        W 5597  24.478  17.662  11.517
33305W        W 5598  19.556   1.328  14.992
33306W        W 5599  26.090  34.374  10.889
33307W        W 5600  42.014  32.448  12.904
33308W        W 5601   4.767  32.592   3.323
33309W        W 5602  20.103  28.968  14.849
33310W        W 5603  32.140   1.863   4.205
33311W        W 5604  44.445   7.705   2.778
33312W        W 5605  39.842  18.289   2.702
33313W        W 5606  21.020  31.126  14.874
33314W        W 5607  10.730  12.666   3.840
33315W        W 5608   6.732  28.049  12.579
33316W        W 5609  27.683  34.530  11.611
33317W        W 5610  41.469  22.181   0.461
33318W        W 5611  12.690  26.041   4.709
33319W        W 5612  42.523  23.625   4.182
33320W        W 5613  26.088  33.952   3.687
33321W        W 5614  10.287   9.220   1.401
33322W        W 5615  18.598  10.853  12.461
33323W        W 5616   4.782   6.787  10.579
33324W        W 5617   9.161  12.618   3.233
33325W        W 5618  11.331  44.309  12.865
33326W        W 5619  44.379  42.287   1.739
33327W        W 5620   5.756  11.839  13.344
33328W        W 5621  27.169  26.109  13.307
33329W        W 5622  37.569  25.522   0.381
33330W        W 5623  27.051  33.505   4.253
33331W        W 5624  39.951  26.629  11.569
33332W        W 5625  20.654  16.209  13.992
33333W        W 5626  10.780   7.213  14.891
33334W        W 5627  41.333   8.301   1.287
33335W        W 5628  13.107  20.223  13.369
33336W        W 5629  25.714  11.371  13.026
33337W        W 5630  22.626  42.457  11.611
33338W        W 5631   6.382  13.690   9.924
33339W        W 5632   4.925   8.316  14.457
33340W        W 5633   0.804  44.408  14.385
33341W        W 5634  19.729  39.929   3.285
33342W        W 5635  19.594  26.095  14.488
33343W        W 5636   7.801   2.363  10.624
33344W        W 5637  24.191  10.283   5.254
33345W        W 5638  15.321  43.922  12.003
33346W        W 5639  39.414  13.833   4.722
33347W        W 5640  15.310   2.372  13.503
33348W        W 5641   7.695   1.795   9.953
33349W        W 5642  36.909  38.865   4.656
33350W        W 5643  20.768  41.375   0.833
33351W        W 5644  42.880  37.515  10.435
33352W        W 5645  36.387  11.737   1.873
33353W        W 5646  27.554  29.438   3.706
33354W        W 5647   7.201   2.787  14.500
33355W        W 5648  39.946  42.792   1.350
33356W        W 5649   3.388   8.687   3.706
33357W        W 5650   8.846  29.994  10.417
33358W        W 5651  23.234  22.654   2.251
33359W        W 5652  12.209  20.690  13.919
33360W        W 5653  27.575  23.699  13.055
33361W        W 5654  14.315  35.602  14.822
33362W        W 5655  31.043  44.902   2.821
33363W        W 5656  38.060  31.578   4.140
33364W        W 5657  39.470   6.239   4.790
33365W        W 5658   9.394  43.274  11.476
33366W        W 5659  39.496  35.451  13.911
33367W        W 5660  27.166   5.933  14.979
33368W        W 5661   2.826  30.448  11.097
33369W        W 5662  19.544  25.494   4.176
33370W        W 5663  14.779  30.561   1.290
33371W        W 5664  21.584  32.518  11.048
33372W        W 5665  29.154  26.068  12.877
33373W        W 5666  12.646   1.250  13.321
33374W        W 5667  17.242  43.010   2.389
33375W        W 5668  38.571   0.380  13.827
33376W        W 5669  32.104   7.271   0.806
33377W        W 5670  10.878  13.758  13.825
33378W        W 5671  33.939   4.764  11.895
33379W        W 5672  11.168  34.559  11.081
33380W        W 5673   2.832  19.593   0.372
33381W        W 5674  32.636  42.910   4.756
33382W        W 5675  21.059   8.773  13.861
33383W        W 5676  30.951  39.063   2.339
33384W        W 5677  44.781  13.729   0.781
33385W        W 5678  16.199  40.919   4.217
33386W        W 5679   6.683  32.071   1.749
33387W        W 5680  15.144  30.096  11.415
33388W        W 5681  27.637  24.611   4.261
33389W        W 5682   5.797  11.276   2.736
33390W        W 5683  19.761   0.848  10.889
33391W        W 5684  14.623   3.215  13.385
33392W        W 5685   0.259  25.102   5.182
33393W        W 5686  13.722  19.580   2.784
33394W        W 5687   3.823  12.709   1.233
33395W        W 5688  22.246   8.900  14.815
33396W        W 5689   8.760  40.354  13.884
33397W        W 5690   1.324  43.372   3.305
33398W        W 5691  21.135   7.800  10.531
33399W        W 5692  17.261  36.432  11.919
33400W        W 5693  21.218  23.051   3.798
33401W        W 5694  16.614   6.247   1.731
33402W        W 5695  43.350  22.229  10.526
33403W        W 5696  36.351   2.323  13.902
33404W        W 5697  25.153   6.223   4.159
33405W        W 5698  21.250  34.425  14.937
33406W        W 5699  35.966  27.449  14.324
33407W        W 5700   4.265   3.453  10.962
33408W        W 5701  39.325  43.503   1.386
33409W        W 5702   0.794   7.337  14.460
33410W        W 5703  42.335  29.063  11.962
33411W        W 5704  15.681  21.751   1.339
33412W        W 5705  10.783  44.348  13.970
33413W        W 5706  37.555  36.409   3.366
33414W        W 5707  19.565  23.077  12.550
33415W        W 5708  42.869  35.863  13.437
33416W        W 5709   7.787  42.854  12.530
33417W        W 5710  19.577  41.850   0.871
33418W        W 5711   8.211  38.378   1.357
33419W        W 5712   5.316  16.753  14.394
33420W        W 5713  25.073  40.508  12.377
33421W        W 5714   9.162  32.506   3.307
33422W        W 5715  21.034  28.584   0.258
33423W        W 5716  13.189  13.805   2.715
33424W        W 5717  23.072   2.285   9.613
33425W        W 5718   3.725   5.853  13.396
33426W        W 5719  31.908  35.018  12.963
33427W        W 5720  30.577  30.976  12.442
33428W        W 5721  23.520  30.609   4.825
33429W        W 5722  18.762  23.132   5.806
33430W        W 5723  36.465  15.261  13.923
33431W        W 5724  33.095  13.800  13.383
33432W        W 5725  34.010  35.402  10.934
33433W        W 5726  32.409  25.016  12.469
33434W        W 5727   6.324  35.368   4.600
33435W        W 5728  25.133   2.241  11.516
33436W        W 5729   4.862  12.362  13.490
33437W        W 5730   8.363  36.462   0.275
33438W        W 5731  33.396  32.523  12.390
33439W        W 5732  23.648  12.744  13.822
33440W        W 5733  23.079  16.178  11.913
33441W        W 5734  32.597  21.241  11.039
33442W        W 5735   9.217   8.361   1.808
33443W        W 5736  35.901  34.520   3.269
33444W        W 5737   6.415  40.411  11.068
33445W        W 5738  29.558  19.778  14.338
33446W        W 5739   7.862  38.546  10.435
33447W        W 5740  28.437  41.935   4.137
33448W        W 5741  14.206   8.288   2.818
33449W        W 5742  34.100  13.206  10.981
33450W        W 5743  43.965  24.212  11.596
33451W        W 5744   8.723  15.203   1.390
33452W        W 5745  41.990  27.158  10.911
33453W        W 5746  41.426  12.703  14.299
33454W        W 5747  32.439  21.075   1.311
33455W        W 5748  17.115   1.785  14.477
33456W        W 5749  30.989  12.617  10.936
33457W        W 5750   3.877  40.390   4.240
33458W        W 5751  27.033   7.236  13.875
33459W        W 5752  36.418  27.609   3.303
33460W        W 5753   0.288  16.785   1.378
33461W        W 5754  22.557  40.855   3.710
33462W        W 5755  42.365  38.555   4.814
33463W        W 5756  16.313  36.502   2.181
33464W        W 5757  44.299  16.108   4.244
33465W        W 5758  16.105  28.056  14.488
33466W        W 5759  29.123  19.161  12.985
33467W        W 5760  36.441  31.635  11.092
33468W        W 5761  26.465  17.716  13.922
33469W        W 5762  32.469  14.788  10.417
33470W        W 5763  36.008   6.221   1.926
33471W        W 5764  44.300  10.185   5.215
33472W        W 5765  28.988  13.833   3.352
33473W        W 5766  13.199  21.642  10.577
33474W        W 5767  27.631  40.043  11.099
33475W        W 5768  33.433  15.174  10.946
33476W        W 5769  34.374  43.927  11.944
33477W        W 5770  16.794  19.765   4.752
33478W        W 5771  11.660   3.291   4.231
33479W        W 5772  15.219   0.292  12.910
33480W        W 5773  40.857  34.508  12.027
33481W        W 5774  12.253   4.253   4.641
33482W        W 5775  32.009   1.294   3.260
33483W        W 5776  42.480  27.079   2.340
33484W        W 5777   0.450  23.703  11.410
33485W        W 5778   5.238   6.290  14.313
33486W        W 5779   4.449   8.697   3.285
33487W        W 5780  21.037   9.165  13.321
33488W        W 5781  29.997  19.643   2.735
33489W        W 5782  15.114   2.421   0.905
33490W        W 5783  18.181  30.569   3.813
33491W        W 5784   8.247   9.165  13.905
33492W        W 5785   6.208  11.764   5.230
33493W        W 5786  22.145   8.756  12.477
33494W        W 5787   6.778  28.679  12.382
33495W        W 5788  44.299  23.035  10.916
33496W        W 5789   1.913  15.691   5.208
33497W        W 5790   2.958  15.607   1.738
33498W        W 5791   5.866   4.728   2.222
33499W        W 5792  31.578  32.496  14.458
33500W        W 5793  20.108  30.514  10.410
33501W        W 5794  13.324  18.184  10.632
33502W        W 5795  26.577  38.884   5.287
33503W        W 5796  21.728  18.246  12.852
33504W        W 5797   4.823  44.768  13.401
33505W        W 5798  31.080  21.748   3.178
33506W        W 5799   6.278  14.187   5.230
33507W        W 5800  34.390  41.945   1.695
33508W        W 5801   8.894  27.641  13.507
33509W        W 5802   4.745  16.237   3.671
33510W        W 5803  21.037  14.164   3.803
33511W        W 5804  24.987  42.902  10.534
33512W        W 5805  22.663  21.113   1.288
33513W        W 5806  16.731  15.259   0.477
33514W        W 5807  38.954  38.383   1.828
33515W        W 5808  29.048  27.617  14.954
33516W        W 5809   6.703   7.806  11.601
33517W        W 5810  12.698   5.203   1.367
33518W        W 5811   5.283  44.803   2.331
33519W        W 5812  31.545   3.385   2.799
33520W        W 5813   0.895  34.076   1.733
33521W        W 5814  16.228  35.548   1.789
33522W        W 5815  15.687  28.532  10.458
33523W        W 5816  30.416   5.342   0.874
33524W        W 5817  26.202   6.843  12.346
33525W        W 5818  22.733  11.265   3.676
33526W        W 5819   0.789  30.993   2.837
33527W        W 5820  16.172  42.949  13.845
33528W        W 5821  21.633  10.694  11.876
33529W        W 5822  22.663  26.059  11.399
33530W        W 5823  39.514  11.728   0.774
33531W        W 5824  31.413  18.216   3.157
33532W        W 5825  42.976   4.338  12.526
33533W        W 5826  29.491  23.565   0.434
33534W        W 5827  40.546  22.729   9.932
33535W        W 5828  39.914  16.789  11.545
33536W        W 5829   8.696  43.274  13.442
33537W        W 5830  20.217   8.785   4.756
33538W        W 5831  39.843  37.473  13.817
33539W        W 5832  40.371   0.402   3.340
33540W        W 5833  26.180   2.792  13.010
33541W        W 5834  14.791  35.952   2.810
33542W        W 5835   3.886  35.096   0.909
33543W        W 5836  22.072  18.265   1.753
33544W        W 5837  41.322  34.474  12.056
33545W        W 5838  33.455  31.008   2.809
33546W        W 5839  10.305  31.089   1.749
33547W        W 5840  44.811  24.532  14.306
33548W        W 5841  44.359  24.031   0.776
33549W        W 5842  31.140  19.248   1.745
33550W        W 5843  35.380  40.010  13.462
33551W        W 5844  22.572  41.356  10.459
33552W        W 5845  36.031   7.828   3.257
33553W        W 5846  19.082  10.374  13.312
33554W        W 5847   0.472  24.651  10.904
33555W        W 5848  40.445  32.138   0.274
33556W        W 5849  16.591  35.979  10.461
33557W        W 5850  18.758  27.600   0.924
33558W        W 5851  17.262  17.585   3.714
33559W        W 5852   7.819  35.387   9.999
33560W        W 5853  11.818  28.518  11.994
33561W        W 5854  30.450  32.925  14.827
33562W        W 5855  21.706  13.833   3.271
33563W        W 5856  28.622  12.854  13.322
33564W        W 5857  15.173   8.192  10.438
33565W        W 5858  36.002   4.449  12.871
33566W        W 5859  40.312  15.195  11.377
33567W        W 5860  15.706  14.217   0.295
33568W        W 5861  40.344  33.615  13.484
33569W        W 5862  44.403  40.000   2.218
33570W        W 5863  35.871  40.373   3.745
33571W        W 5864  31.430  22.043  12.476
33572W        W 5865  44.344  37.530  12.492
33573W        W 5866  28.545  36.844  11.924
33574W        W 5867  20.028  12.303   0.289
33575W        W 5868  31.644  25.022   1.318
33576W        W 5869   1.249   8.216  11.595
33577W        W 5870  33.084  28.138   3.743
33578W        W 5871   6.287  28.458   1.309
33579W        W 5872  41.904   5.777   2.315
33580W        W 5873  36.519  42.010  11.069
33581W        W 5874  34.566   3.354  13.380
33582W        W 5875  15.681  31.969  12.580
33583W        W 5876  15.225  37.066   3.193
33584W        W 5877   7.321  40.440   4.615
33585W        W 5878  44.948  18.656  10.621
33586W        W 5879  43.378  37.360  11.039
33587W        W 5880   1.460  26.470   5.318
33588W        W 5881   6.737  35.994  12.513
33589W        W 5882  41.808  14.619  13.366
33590W        W 5883  10.681  42.357   0.465
33591W        W 5884   2.322  20.133   1.897
33592W        W 5885  33.894  20.034  10.600
33593W        W 5886   3.371  41.337   2.291
33594W        W 5887  42.484  15.820   4.695
33595W        W 5888  22.622  14.751   3.327
33596W        W 5889  34.468  19.068   0.276
33597W        W 5890   3.429  26.620   4.735
33598W        W 5891  16.807  34.014   4.735
33599W        W 5892  27.617  12.787  14.970
33600W        W 5893   9.645   0.320  11.504
33601W        W 5894  29.582   7.177  12.857
33602W        W 5895   2.776  27.013  12.999
33603W        W 5896  39.021  10.651   2.777
33604W        W 5897  19.579  18.663  12.380
33605W        W 5898  33.970  42.508  14.797
33606W        W 5899  15.773  11.228   0.740
33607W        W 5900  21.049   7.404  14.961
33608W        W 5901  12.748  36.979  10.966
33609W        W 5902  20.647  39.479  11.893
33610W        W 5903  37.063  39.884  11.920
33611W        W 5904  25.986  24.008   2.263
33612W        W 5905   8.842  39.920  14.841
33613W        W 5906  33.081  19.732  14.294
33614W        W 5907  14.637  18.630  11.606
33615W        W 5908  41.881  32.536   4.683
33616W        W 5909  44.758  35.387  13.460
33617W        W 5910   0.392  41.473   0.950
33618W        W 5911  30.123  36.572   0.902
33619W        W 5912  40.537  25.549   3.221
33620W        W 5913  32.534  44.491   0.285
33621W        W 5914  14.792  16.764  10.109
33622W        W 5915  13.817  26.160  12.946
33623W        W 5916  23.176   8.679  11.966
33624W        W 5917  29.599  44.399  12.013
33625W        W 5918   8.816  27.481   3.662
33626W        W 5919  34.449  30.492   1.212
33627W        W 5920  17.777  31.940   9.671
33628W        W 5921  28.647  21.160  14.872
33629W        W 5922  27.550   9.375   1.716
33630W        W 5923  27.565  35.368  11.061
33631W        W 5924  16.292  41.851  10.934
33632W        W 5925  23.021  42.794   0.266
33633W        W 5926  34.494  38.933   0.315
33634W        W 5927  36.449  11.260  13.533
33635W        W 5928  39.882  29.142  12.924
33636W        W 5929   9.347  30.594  11.556
33637W        W 5930   9.882   4.234   0.468
33638W        W 5931  15.159  37.372  10.623
33639W        W 5932  25.090   2.903  13.523
33640W        W 5933  21.189  39.554   2.661
33641W        W 5934  38.565  31.102  10.489
33642W        W 5935  39.879  11.156  13.002
33643W        W 5936   8.696  29.428   4.142
33644W        W 5937  28.536   8.375  12.022
33645W        W 5938  41.860  34.519   0.395
33646W        W 5939  22.167   8.818  11.919
33647W        W 5940  17.793  43.385  13.326
33648W        W 5941  16.267  16.614   0.854
33649W        W 5942  37.981  30.608   1.727
33650W        W 5943  38.907  27.627   1.921
33651W        W 5944   9.188  43.781   2.178
33652W        W 5945  21.199  15.803  14.980
33653W        W 5946  22.732  30.142  13.429
33654W        W 5947  34.976  43.398   4.610
33655W        W 5948  34.025   9.881   1.889
33656W        W 5949  15.328  16.766  14.321
33657W        W 5950  40.417  31.907  10.066
33658W        W 5951  30.544  26.617  11.374
33659W        W 5952  20.558  25.474   3.200
33660W        W 5953  10.780  29.493   9.935
33661W        W 5954  37.908  12.760   5.202
33662W        W 5955  44.792  33.992   0.271
33663W        W 5956  32.130   8.661   0.881
33664W        W 5957  36.018  12.296  11.473
33665W        W 5958  25.185   2.288  13.966
33666W        W 5959   1.241  11.169   2.717
33667W        W 5960  32.044  14.255  13.533
33668W        W 5961   9.838  24.539   1.222
33669W        W 5962  34.469   7.285  13.383
33670W        W 5963  34.046  29.992  12.501
33671W        W 5964   3.726  19.266   3.659
33672W        W 5965  22.550  39.909  14.509
33673W        W 5966  33.071  40.979  12.510
33674W        W 5967  32.139  19.078   2.793
33675W        W 5968   3.722  29.108   1.698
33676W        W 5969  23.710  25.072  11.395
33677W        W 5970  17.727  27.041   4.702
33678W        W 5971   1.469  30.019  11.557
33679W        W 5972  21.250   1.916  14.396
33680W        W 5973   2.305  34.414   2.347
33681W        W 5974  41.951   4.407   4.304
33682W        W 5975  24.078  40.882   1.891
33683W        W 5976   3.339  40.510   2.788
33684W        W 5977  19.580  27.178  11.424
33685W        W 5978  29.570   2.790   3.289
33686W        W 5979  23.709  31.010  12.348
33687W        W 5980  37.904   7.222   1.432
33688W        W 5981  20.689  31.421   2.228
33689W        W 5982   5.389   8.245  11.919
33690W        W 5983  34.422   0.770  12.492
33691W        W 5984  34.440  16.286  10.633
33692W        W 5985  26.092  41.521   4.165
33693W        W 5986  27.690   6.809   4.834
33694W        W 5987  42.785  10.778  10.469
33695W        W 5988  35.929  43.446  12.829
33696W        W 5989   1.386   2.421  13.402
33697W        W 5990  23.238   9.677  10.540
33698W        W 5991  30.563  17.302  11.426
33699W        W 5992  19.104  42.398  13.420
33700W        W 5993  18.146  20.260  14.835
33701W        W 5994  16.102  41.792   0.463
33702W        W 5995  28.077   0.875   1.362
33703W        W 5996  27.101   2.853   1.260
33704W        W 5997  12.768  13.109   4.738
33705W        W 5998  16.601  18.583  14.438
33706W        W 5999  22.115  27.945   0.266
33707W        W 6000  32.489  28.155  12.420
33708W        W 6001  18.265  29.016  12.382
33709W        W 6002  14.252  43.271   2.201
33710W        W 6003  42.820  27.988   1.262
33711W        W 6004  15.285  28.662  12.862
33712W        W 6005  38.064  32.562  14.958
33713W        W 6006   8.780  33.064   1.219
33714W        W 6007  11.622   2.723   2.779
33715W        W 6008  25.608  19.642  14.782
33716W        W 6009  14.094   3.924  12.493
33717W        W 6010  18.683  40.314  12.090
33718W        W 6011  32.630   7.840  13.032
33719W        W 6012  13.171  36.527   1.424
33720W        W 6013  35.037   2.798   4.143
33721W        W 6014  18.773  40.347  10.117
33722W        W 6015   4.312  12.644   2.771
33723W        W 6016  22.679  16.072  13.016
33724W        W 6017  26.055  44.316   4.735
33725W        W 6018  31.916  40.526  13.440
33726W        W 6019   0.479  31.488   1.789
33727W        W 6020  30.112  35.036   2.740
33728W        W 6021  15.320  20.729  14.935
33729W        W 6022   4.763  28.678   3.788
33730W        W 6023  14.712  37.982   0.756
33731W        W 6024  41.029  38.426  11.857
33732W        W 6025  25.688  27.065   1.745
33733W        W 6026  38.454  36.356   3.715
33734W        W 6027  23.205  43.407   0.865
33735W        W 6028  37.954  26.640  10.552
33736W        W 6029  18.264  25.171   2.331
33737W        W 6030  30.069  22.080  14.795
33738W        W 6031  11.330  35.078   2.795
33739W        W 6032  13.830   5.223  10.570
33740W        W 6033   8.168  44.356   1.824
33741W        W 6034   3.253  33.401   0.296
33742W        W 6035  10.268   6.892   2.382
33743W        W 6036   7.321  40.921  13.361
33744W        W 6037  23.997  38.497   4.644
33745W        W 6038  15.299  27.066   4.311
33746W        W 6039  20.667  28.451   1.218
33747W        W 6040   8.723   7.795  10.981
33748W        W 6041  38.465  33.988  11.869
33749W        W 6042  15.701  28.167   2.243
33750W        W 6043  12.654  42.865   2.258
33751W        W 6044  24.104  10.349   1.845
33752W        W 6045  40.816   8.744  14.398
33753W        W 6046   4.272  14.176  10.581
33754W        W 6047   6.383  37.494  14.506
33755W        W 6048   7.670  19.061   2.826
33756W        W 6049  31.916  34.032   1.718
33757W        W 6050   7.314  17.226   4.615
33758W        W 6051  30.120  17.676  12.089
33759W        W 6052  30.625  29.953  12.971
33760W        W 6053   0.856  17.647   0.307
33761W        W 6054  44.821  21.087  11.528
33762W        W 6055  33.401  44.329  10.566
33763W        W 6056  34.943   0.463  11.437
33764W        W 6057  26.659   8.890   4.119
33765W        W 6058  22.652  16.616   3.309
33766W        W 6059  41.850  27.691  12.045
33767W        W 6060  14.158  31.498   0.296
33768W        W 6061   6.277   9.716  11.393
33769W        W 6062  35.909  16.626  12.913
33770W        W 6063  11.785  34.403   1.286
33771W        W 6064  14.671  38.058   0.449
33772W        W 6065   9.763   3.413   0.351
33773W        W 6066  26.574  12.325  11.507
33774W        W 6067  18.099   3.936   4.711
33775W        W 6068  16.201  11.259   0.339
33776W        W 6069  24.711  43.349  13.453
33777W        W 6070  16.230  14.211   2.261
33778W        W 6071   3.720  41.888  13.877
33779W        W 6072   1.443  29.989  10.919
33780W        W 6073  20.556   6.389   1.900
33781W        W 6074   3.443  41.881   1.763
33782W        W 6075  13.321  32.040   0.377
33783W        W 6076  35.941  22.534  13.365
33784W        W 6077  20.262  27.115  14.352
33785W        W 6078  35.514  43.403   1.275
33786W        W 6079   5.909  14.725   1.389
33787W        W 6080  15.311  29.030  11.442
33788W        W 6081  37.496  10.247   5.137
33789W        W 6082   8.679   1.974   3.713
33790W        W 6083  31.593  20.057   0.285
33791W        W 6084  37.016  35.430   4.805
33792W        W 6085  15.818   7.243   3.807
33793W        W 6086  18.760  37.478  13.905
33794W        W 6087  21.545  33.515   2.239
33795W        W 6088  44.778  20.060  10.955
33796W        W 6089  30.032  37.918  12.017
33797W        W 6090  11.650   8.206  13.538
33798W        W 6091  14.593  43.313  12.464
33799W        W 6092  34.995  43.976  11.973
33800W        W 6093  23.733  13.699   4.797
33801W        W 6094  32.926  20.612  10.897
33802W        W 6095  26.206  30.595   4.180
33803W        W 6096  13.147  32.914  13.927
33804W        W 6097  37.350  30.596   0.257
33805W        W 6098  31.954  36.378   0.269
33806W        W 6099  34.438  20.119   2.732
33807W        W 6100  21.572  43.810  11.039
33808W        W 6101  42.010   6.775   4.328
33809W        W 6102  44.312  39.049  12.347
33810W        W 6103  19.257  42.297   2.263
33811W        W 6104  42.028  32.047   0.895
33812W        W 6105  11.665  14.804   2.333
33813W        W 6106  22.059   7.866  13.319
33814W        W 6107  32.070  29.608   0.302
33815W        W 6108  43.512   8.712   2.408
33816W        W 6109  20.214  30.557   0.918
33817W        W 6110   3.443  24.628   1.696
33818W        W 6111  39.810   7.222  13.916
33819W        W 6112   3.841  15.638   4.777
33820W        W 6113  17.758  12.825   0.431
33821W        W 6114   9.356  35.371   4.649
33822W        W 6115  30.414  29.155   2.693
33823W        W 6116  19.639   2.913  14.452
33824W        W 6117  19.690  23.083  12.085
33825W        W 6118  16.567  23.043   4.235
33826W        W 6119  42.005  25.991  10.526
33827W        W 6120  33.065  18.747  14.903
33828W        W 6121   9.688  31.544   1.279
33829W        W 6122  34.066  11.764   9.984
33830W        W 6123  15.821  25.032   4.114
33831W        W 6124  35.005  26.138   0.771
33832W        W 6125   3.832  27.001   2.746
33833W        W 6126  10.266  30.576   1.846
33834W        W 6127   5.717  13.278   0.387
33835W        W 6128  33.050   5.358  11.970
33836W        W 6129  10.146  33.884   0.832
33837W        W 6130  37.967   2.252  11.098
33838W        W 6131  42.308  21.084   0.731
33839W        W 6132  11.639  17.257  11.582
33840W        W 6133  24.485  32.606  10.517
33841W        W 6134  14.721  34.564  14.851
33842W        W 6135  10.754   8.856   0.840
33843W        W 6136  13.108  25.006  10.957
33844W        W 6137  16.596  25.481  13.389
33845W        W 6138   7.396  27.168   1.736
33846W        W 6139  39.538   8.682   3.242
33847W        W 6140  17.733  32.062  11.029
33848W        W 6141   8.737  43.930  14.483
33849W        W 6142  22.188  34.945  11.059
33850W        W 6143   7.741  15.299   0.282
33851W        W 6144  25.711  40.944  13.897
33852W        W 6145  40.834  18.733  14.921
33853W        W 6146  23.235  18.690   2.772
33854W        W 6147   5.772  11.707   4.125
33855W        W 6148  22.122  31.433   2.358
33856W        W 6149   3.717  40.359   3.283
33857W        W 6150   4.329  19.699   0.295
33858W        W 6151  38.820  19.585   5.264
33859W        W 6152  30.462  30.123   1.243
33860W        W 6153  37.848  12.806  13.896
33861W        W 6154  22.515   7.399  10.544
33862W        W 6155  16.142  31.966  13.063
33863W        W 6156  29.035  22.009   2.244
33864W        W 6157  11.790  23.730   4.718
33865W        W 6158  22.100  33.601   4.783
33866W        W 6159  20.545  24.696  14.497
33867W        W 6160  37.873  22.597   4.327
33868W        W 6161  14.799  13.753   3.294
33869W        W 6162  10.142  33.582  11.996
33870W        W 6163  38.922  43.510   9.920
33871W        W 6164  29.544  23.130  13.359
33872W        W 6165  29.044  14.827  10.634
33873W        W 6166  19.537  16.182   4.681
33874W        W 6167  12.628  36.435  10.434
33875W        W 6168  29.927  24.012   0.849
33876W        W 6169  38.369  25.592   3.276
33877W        W 6170  13.175  15.803  12.872
33878W        W 6171  39.059  22.212  11.373
33879W        W 6172  23.543  12.829  12.563
33880W        W 6173  41.960   2.964  11.982
33881W        W 6174  11.648  44.355   2.853
33882W        W 6175   7.398  27.483   3.700
33883W        W 6176   1.311  40.836  14.444
33884W        W 6177  26.647  11.707  13.393
33885W        W 6178  33.420  19.576  12.019
33886W        W 6179  36.958  19.185   3.772
33887W        W 6180  22.699  12.208  14.999
33888W        W 6181  23.724   7.378   3.197
33889W        W 6182  14.815  41.425   4.816
33890W        W 6183  24.525  12.182   4.787
33891W        W 6184  25.099  44.483  13.343
33892W        W 6185  36.517  15.167   2.676
33893W        W 6186  12.757  39.891   1.349
33894W        W 6187  31.633  24.144   3.654
33895W        W 6188  41.022   1.880   1.434
33896W        W 6189  24.987  37.568  12.898
33897W        W 6190  10.658   0.287  10.461
33898W        W 6191  40.501   4.888   1.296
33899W        W 6192  33.985  14.300  10.559
33900W        W 6193  11.316   4.764  10.108
33901W        W 6194  14.647  15.702  12.391
33902W        W 6195  30.148   1.935   4.786
33903W        W 6196  43.353  37.961   2.795
33904W        W 6197  12.189  23.663   1.391
33905W        W 6198  12.628  16.292   2.239
33906W        W 6199  25.971  40.383   0.476
33907W        W 6200  14.754  26.186   1.920
33908W        W 6201  22.223   3.398   3.302
33909W        W 6202  38.057  10.213   0.848
33910W        W 6203  30.924   9.830   0.822
33911W        W 6204  30.607  22.554   2.225
33912W        W 6205  21.517   4.348   4.157
33913W        W 6206  39.978  32.936   3.297
33914W        W 6207   4.372   8.303   3.799
33915W        W 6208  35.516  39.983  12.849
33916W        W 6209  35.010   3.861  14.381
33917W        W 6210  31.015  17.286   4.330
33918W        W 6211   8.274  20.617  14.281
33919W        W 6212  20.265  44.432  13.501
33920W        W 6213   2.355  32.422  11.552
33921W        W 6214  39.532  21.530   1.315
33922W        W 6215  29.460  37.550   2.849
33923W        W 6216  19.642  44.809   4.632
33924W        W 6217  18.552   9.869  13.386
33925W        W 6218  26.014  34.999   4.718
33926W        W 6219  43.470  42.916  14.437
33927W        W 6220  28.619  23.227  13.497
33928W        W 6221  27.057   8.676  13.983
33929W        W 6222  34.592   2.278  10.565
33930W        W 6223   4.795  21.572  12.071
33931W        W 6224  17.722  20.250   1.789
33932W        W 6225  38.376   2.723  13.513
33933W        W 6226  37.568  41.503   1.325
33934W        W 6227  21.577  20.584   0.254
33935W        W 6228   8.776  27.581   2.246
33936W        W 6229   9.165  12.242   0.818
33937W        W 6230  18.617  23.043   1.266
33938W        W 6231  42.958  39.364  14.898
33939W        W 6232  20.087  23.633  12.559
33940W        W 6233  12.704  30.645  14.321
33941W        W 6234  37.434  23.139  11.990
33942W        W 6235  43.505  12.321   4.226
33943W        W 6236  15.308  40.809   2.836
33944W        W 6237  38.362  17.651   4.671
33945W        W 6238  27.540  44.427   3.659
33946W        W 6239  19.159  39.438   3.236
33947W        W 6240   9.734  41.025   1.300
33948W        W 6241  14.237  41.498  13.949
33949W        W 6242  14.671   1.359   3.251
33950W        W 6243  21.094  25.139  10.465
33951W        W 6244  10.745  16.095  10.968
33952W        W 6245   9.378  42.426  14.341
33953W        W 6246  36.580  37.413  14.427
33954W        W 6247  32.024  11.288  11.422
33955W        W 6248  21.144  22.591   4.797
33956W        W 6249  26.487  29.567   3.823
33957W        W 6250  28.583  12.818  14.822
33958W        W 6251  29.473   5.419   4.761
33959W        W 6252  21.745  22.229   1.434
33960W        W 6253  42.006  35.452  14.360
33961W        W 6254  29.969  31.636   0.255
33962W        W 6255  22.549   3.435   1.304
33963W        W 6256  31.094  32.445   1.213
33964W        W 6257  10.816  28.652  12.824
33965W        W 6258   2.317  21.109   3.843
33966W        W 6259   8.314  25.701  11.582
33967W        W 6260  32.003   1.913   3.750
33968W        W 6261   5.434  35.575  11.030
33969W        W 6262   6.910  25.203  10.924
33970W        W 6263  12.152   2.414   3.330
33971W        W 6264  33.498  28.642  14.851
33972W        W 6265  30.489  17.736  11.075
33973W        W 6266  14.682  41.353   1.267
33974W        W 6267  43.791   2.341  11.999
33975W        W 6268  12.247  37.566   2.330
33976W        W 6269   0.949   3.790  14.896
33977W        W 6270  12.147  26.104  12.361
33978W        W 6271  27.071   0.925   2.211
33979W        W 6272  30.436  22.615   3.209
33980W        W 6273  17.644  32.058   1.853
33981W        W 6274  43.831  42.849  10.892
33982W        W 6275  29.516  33.477   2.819
33983W        W 6276   0.891  26.669  10.923
33984W        W 6277  37.432  15.279   3.650
33985W        W 6278  26.484  24.523  10.435
33986W        W 6279   7.237  35.041   2.204
33987W        W 6280  25.105   8.878  14.450
33988W        W 6281   8.396   4.917  10.478
33989W        W 6282  37.402  32.420   3.680
33990W        W 6283  12.704  35.586   0.925
33991W        W 6284  34.597   9.167  13.472
33992W        W 6285  42.812  11.292   2.292
33993W        W 6286  18.074  38.571  14.795
33994W        W 6287   2.842   8.222   2.197
33995W        W 6288  29.658  33.003   2.264
33996W        W 6289   1.807   2.743   0.322
33997W        W 6290   3.381  40.314   4.660
33998W        W 6291  20.062  20.211  13.483
33999W        W 6292  18.720  38.896   3.358
34000W        W 6293  10.270  31.629   3.828
34001W        W 6294  24.547   7.233   4.680
34002W        W 6295   6.367  15.202  13.496
34003W        W 6296  18.650   2.902  13.514
34004W        W 6297  17.610  32.024  11.515
34005W        W 6298  17.620  30.541  14.834
34006W        W 6299   2.253  25.016   4.606
34007W        W 6300   9.857  29.569  13.962
34008W        W 6301  33.079  23.617  10.929
34009W        W 6302  43.485  25.545   4.140
34010W        W 6303  19.710  18.570   1.920
34011W        W 6304  30.940  16.149   3.782
34012W        W 6305  41.463  17.158   2.332
34013W        W 6306   3.866  24.061   3.727
34014W        W 6307  37.049   7.344  10.902
34015W        W 6308  23.646  18.625  14.932
34016W        W 6309  44.455  29.150  11.402
34017W        W 6310  37.841  21.543   3.799
34018W        W 6311  16.620  22.041   2.338
34019W        W 6312  10.180  33.085  14.946
34020W        W 6313  11.817   3.378  12.494
34021W        W 6314   6.400  18.558   4.680
34022W        W 6315   3.879  42.945  10.980
34023W        W 6316  27.515  27.961   4.763
34024W        W 6317   2.831  41.959   3.643
34025W        W 6318   4.432  38.019   0.783
34026W        W 6319   3.306  39.317   0.248
34027W        W 6320   8.377  14.178   3.832
34028W        W 6321  39.810  34.995   0.752
34029W        W 6322   4.841   0.937   4.668
34030W        W 6323  22.183  29.466   1.723
34031W        W 6324  20.636  33.603   4.293
34032W        W 6325  15.690   6.215  14.337
34033W        W 6326  15.705  11.140   2.418
34034W        W 6327  27.497   6.726   2.675
34035W        W 6328  22.550  42.456  12.955
34036W        W 6329  22.505  39.421   1.858
34037W        W 6330  40.036   4.256   3.310
34038W        W 6331   0.826  43.508  11.519
34039W        W 6332  21.121  16.795  10.101
34040W        W 6333   1.934  10.637  10.412
34041W        W 6334  18.202  20.678  10.471
34042W        W 6335  34.863  41.923  13.403
34043W        W 6336  40.050  16.760   4.167
34044W        W 6337  21.521  16.757   4.705
34045W        W 6338  15.169  30.143  13.327
34046W        W 6339  11.641  11.839  10.074
34047W        W 6340  11.365  22.666   3.307
34048W        W 6341  15.219   4.729  13.509
34049W        W 6342  19.561  19.592  10.960
34050W        W 6343  37.848   8.312   1.232
34051W        W 6344  19.536   8.748  12.946
34052W        W 6345  39.013  16.220   0.405
34053W        W 6346   2.843  27.018  11.929
34054W        W 6347  10.236  31.151  14.776
34055W        W 6348   8.268   3.385   3.254
34056W        W 6349  25.067  21.132   0.799
34057W        W 6350  32.926  19.158   1.820
34058W        W 6351   2.372  31.528   0.951
34059W        W 6352  27.981  19.244  10.519
34060W        W 6353  37.355  36.084  11.509
34061W        W 6354  36.557  32.895  12.461
34062W        W 6355  43.868   8.839   0.896
34063W        W 6356   2.721  35.555   1.929
34064W        W 6357  22.171  25.502   1.806
34065W        W 6358  12.266  39.963  13.525
34066W        W 6359  36.569  42.872  10.889
34067W        W 6360  41.447  33.498  12.450
34068W        W 6361  41.501  36.348   3.727
34069W        W 6362  23.132  33.588  11.051
34070W        W 6363  14.606  39.038   4.263
34071W        W 6364  26.663  17.734   3.853
34072W        W 6365   4.296   7.781   1.417
34073W        W 6366  18.551  34.575  14.469
34074W        W 6367  26.994  27.463  12.368
34075W        W 6368  25.163   6.347   0.428
34076W        W 6369  25.971  22.053   4.682
34077W        W 6370  30.158   1.322   0.451
34078W        W 6371  25.481   2.903   4.789
34079W        W 6372  30.929   9.689   3.861
34080W        W 6373  38.417  35.978  12.039
34081W        W 6374  14.175  44.941   4.718
34082W        W 6375  28.007   2.455  13.980
34083W        W 6376  29.984  22.540   0.882
34084W        W 6377  25.026  29.076   2.804
34085W        W 6378  44.326  19.246  11.469
34086W        W 6379  18.159  31.016   2.289
34087W        W 6380  33.920  39.039  10.490
34088W        W 6381  13.784  31.549  12.549
34089W        W 6382   3.289  40.858  14.473
34090W        W 6383  14.823  17.243   2.733
34091W        W 6384  26.012  17.620  13.997
34092W        W 6385   3.327   5.397  12.877
34093W        W 6386  10.294  29.150  10.042
34094W        W 6387   8.687  17.660   0.484
34095W        W 6388  44.900  16.628  14.785
34096W        W 6389  19.657   6.896   2.849
34097W        W 6390  43.822   6.727  12.026
34098W        W 6391  44.848  28.442   1.441
34099W        W 6392  24.641  26.507  14.935
34100W        W 6393  24.698  38.365   1.834
34101W        W 6394  17.580  33.037  13.967
34102W        W 6395   1.881  24.048   1.901
34103W        W 6396   1.814  42.787  11.464
34104W        W 6397   2.435  14.182   2.882
34105W        W 6398  44.399  11.845  12.021
34106W        W 6399   7.711  15.165   1.411
34107W        W 6400   1.852  18.597   4.632
34108W        W 6401   3.390  11.801  11.012
34109W        W 6402  42.786  17.787  10.543
34110W        W 6403  18.775   9.650  11.556
34111W        W 6404  21.689  40.815   2.769
34112W        W 6405   5.713  16.727  12.372
34113W        W 6406  37.861  30.652   5.120
34114W        W 6407  44.853  42.964  12.553
34115W        W 6408  11.145  26.546  14.353
34116W        W 6409  15.253   5.877   4.221
34117W        W 6410  17.668   3.291   3.712
34118W        W 6411  14.188   8.255  13.944
34119W        W 6412  35.866   0.903   2.699
34120W        W 6413  38.047  31.459  11.461
34121W        W 6414  17.110  20.534   3.737
34122W        W 6415   9.829  14.697   0.305
34123W        W 6416   7.196  12.826  12.077
34124W        W 6417  24.529  10.240   1.251
34125W        W 6418   9.751  25.553   4.248
34126W        W 6419  18.717  10.720   2.770
34127W        W 6420  40.872  14.169   5.306
34128W        W 6421  30.517  21.095  11.601
34129W        W 6422   3.764  19.172  10.638
34130W        W 6423   1.355  27.001   0.775
34131W        W 6424  34.001  26.503   3.636
34132W        W 6425   9.856  14.204  13.044
34133W        W 6426   8.184  33.605  11.396
34134W        W 6427  32.479  17.155   1.434
34135W        W 6428  23.599  25.022   3.284
34136W        W 6429  19.093   2.773  11.592
34137W        W 6430   7.904  38.511  13.477
34138W        W 6431  25.060  18.288   3.675
34139W        W 6432  26.193  11.358  11.925
34140W        W 6433  33.583   6.289  12.041
34141W        W 6434   7.804  30.987  14.429
34142W        W 6435   8.363  14.130  11.068
34143W        W 6436  37.877  23.587  10.953
34144W        W 6437  28.184   8.707  11.105
34145W        W 6438  32.450  19.630   3.322
34146W        W 6439   9.273  34.998   4.333
34147W        W 6440  17.558   3.728   0.847
34148W        W 6441  17.203  24.095   0.304
34149W        W 6442  26.492  38.052  10.421
34150W        W 6443  43.510   8.783  14.909
34151W        W 6444   8.189  41.402  14.937
34152W        W 6445  21.581  40.863   1.332
34153W        W 6446  17.556  33.037   5.637
34154W        W 6447  38.456  23.066  14.896
34155W        W 6448  44.379  44.790  10.908
34156W        W 6449  30.592  23.630  14.793
34157W        W 6450  25.494  12.827  11.883
34158W        W 6451  39.322  36.916   1.214
34159W        W 6452   6.360  40.010  14.276
34160W        W 6453  11.816   6.367   5.130
34161W        W 6454  31.614   3.915   4.735
34162W        W 6455  17.262  33.960   4.130
34163W        W 6456  13.623  30.071  12.999
34164W        W 6457  12.685  44.823  12.397
34165W        W 6458  18.219  16.184   4.666
34166W        W 6459   7.812  17.619   3.808
34167W        W 6460  28.473  22.060   2.306
34168W        W 6461  25.635   5.723  12.899
34169W        W 6462  38.348  33.600  13.535
34170W        W 6463   2.409  18.063  10.055
34171W        W 6464   1.774  23.509   1.738
34172W        W 6465  15.733  18.220   1.418
34173W        W 6466   3.376  29.101  10.141
34174W        W 6467  18.054   7.379  13.533
34175W        W 6468  27.952  13.252   1.855
34176W        W 6469  25.654  37.368   3.284
34177W        W 6470  22.155  21.541  12.953
34178W        W 6471  11.178  11.713   2.676
34179W        W 6472  24.051  15.158   4.115
34180W        W 6473  30.147  31.068  11.924
34181W        W 6474   9.185  43.788   0.766
34182W        W 6475   0.761  10.729   2.848
34183W        W 6476  15.248  25.547   1.354
34184W        W 6477  17.727   6.307  12.498
34185W        W 6478   4.408   2.242   4.826
34186W        W 6479  34.048  36.082   4.243
34187W        W 6480  32.551  18.168  13.042
34188W        W 6481  30.045  30.497   0.863
34189W        W 6482  19.120  21.242  11.963
34190W        W 6483   2.874  41.320   2.794
34191W        W 6484  32.980  18.060   4.724
34192W        W 6485  33.019   3.809  10.530
34193W        W 6486  34.100  13.321  13.835
34194W        W 6487  36.843  37.896  12.365
34195W        W 6488  14.644  42.804  13.870
34196W        W 6489  24.223  33.507  11.904
34197W        W 6490  38.037  25.710  11.464
34198W        W 6491   0.805  26.968  12.539
34199W        W 6492  10.829  18.191   0.393
34200W        W 6493  17.294  21.521   3.229
34201W        W 6494  10.290  28.597  12.561
34202W        W 6495  38.421  34.370  10.549
34203W        W 6496  21.737  18.636   3.374
34204W        W 6497   0.944  39.991  14.472
34205W        W 6498  28.976  43.345  11.457
34206W        W 6499   9.774  25.998  13.415
34207W        W 6500  23.675  25.187   0.294
34208W        W 6501  33.025  10.842   1.901
34209W        W 6502  42.947  11.865  12.071
34210W        W 6503   4.388  19.775  11.575
34211W        W 6504  27.452  28.504   0.254
34212W        W 6505  24.580  26.631   2.723
34213W        W 6506  35.530  40.482   2.860
34214W        W 6507  36.096  23.223  12.062
34215W        W 6508   0.865  44.387  11.405
34216W        W 6509  20.542  34.877  11.594
34217W        W 6510  18.725  20.241   0.476
34218W        W 6511  29.134  35.063  13.815
34219W        W 6512  44.765   8.323   4.659
34220W        W 6513  29.608   9.372   1.930
34221W        W 6514  15.118  29.550   0.378
34222W        W 6515  10.357   8.672   0.456
34223W        W 6516  17.083   7.365  13.890
34224W        W 6517  19.074  37.924  13.901
34225W        W 6518   6.688  41.298  14.998
34226W        W 6519  14.332  10.741  14.460
34227W        W 6520  20.664  23.181   0.321
34228W        W 6521  40.332   1.777   3.802
34229W        W 6522  30.072  41.398  14.909
34230W        W 6523  40.411  25.107   0.413
34231W        W 6524  26.180  20.256  11.413
34232W        W 6525  35.482  17.260  14.876
34233W        W 6526  20.170  41.026  13.391
34234W        W 6527  19.666  44.796   2.231
34235W        W 6528  10.736  33.545   2.232
34236W        W 6529  41.945  19.738   3.148
34237W        W 6530  16.302  40.522   0.407
34238W        W 6531  18.143  10.774  13.359
34239W        W 6532  40.549  32.561   1.822
34240W        W 6533  34.060  25.191   3.243
34241W        W 6534  21.205  33.985  14.354
34242W        W 6535  14.265  25.132  14.017
34243W        W 6536  12.738  33.392   0.294
34244W        W 6537  42.963   9.295   3.759
34245W        W 6538  11.355  43.826   3.336
34246W        W 6539   3.761  14.799  14.941
34247W        W 6540  35.901  25.483   4.833
34248W        W 6541  39.841  16.196   2.803
34249W        W 6542  32.586  14.809  12.571
34250W        W 6543  13.802  15.762   4.825
34251W        W 6544   7.894  42.843   4.268
34252W        W 6545  14.137  33.939   1.211
34253W        W 6546   1.346  17.757   4.674
34254W        W 6547  28.536  38.911   2.337
34255W        W 6548  29.434  32.597   2.404
34256W        W 6549   8.305  21.195   1.301
34257W        W 6550  17.776  21.223   1.444
34258W        W 6551  13.640  20.222  13.983
34259W        W 6552  24.707   2.372  12.878
34260W        W 6553  36.352  21.751   1.212
34261W        W 6554  18.650  15.207   1.728
34262W        W 6555  36.419  21.563  11.036
34263W        W 6556  36.357  14.701   0.332
34264W        W 6557  14.276  27.940   4.619
34265W        W 6558   8.717   3.284  10.420
34266W        W 6559  42.800   7.212   1.406
34267W        W 6560  36.543  37.008  14.417
34268W        W 6561  34.032   8.320  10.502
34269W        W 6562  13.829  22.036   2.865
34270W        W 6563  24.542   8.187  14.962
34271W        W 6564  19.593  11.625  10.411
34272W        W 6565  11.699   5.339   2.719
34273W        W 6566  42.776  37.575  13.947
34274W        W 6567  26.036  44.944  13.838
34275W        W 6568  17.269  26.473   5.265
34276W        W 6569  20.706  17.252   2.723
34277W        W 6570   7.172  21.643  11.541
34278W        W 6571  42.962  11.185  12.483
34279W        W 6572   2.927  12.638   2.337
34280W        W 6573   9.666  26.004  12.829
34281W        W 6574  15.257  31.905   3.811
34282W        W 6575  16.761  42.890   4.693
34283W        W 6576   6.250   0.312  11.412
34284W        W 6577   9.220  30.500  11.951
34285W        W 6578  34.881  27.974  14.285
34286W        W 6579  16.270  21.186   3.773
34287W        W 6580  30.999  26.020  12.381
34288W        W 6581   2.957  20.108   4.305
34289W        W 6582  12.133  23.618  12.528
34290W        W 6583  39.062   1.835   1.766
34291W        W 6584   9.710  28.069   3.757
34292W        W 6585  23.208  38.372   1.296
34293W        W 6586  13.294  10.143  10.990
34294W        W 6587  33.443  40.872   4.158
34295W        W 6588  33.511  23.725  14.803
34296W        W 6589  23.653  41.482   4.157
34297W        W 6590   6.686   3.817   0.885
34298W        W 6591  35.534   7.756   4.205
34299W        W 6592  30.648  38.971  12.932
34300W        W 6593  44.353  20.733   4.743
34301W        W 6594  43.766  44.925   5.606
34302W        W 6595  40.886  43.307  10.093
34303W        W 6596  16.587  12.760  13.041
34304W        W 6597  14.301  19.128  11.525
34305W        W 6598   2.398  41.363  10.088
34306W        W 6599   8.295  32.957  11.449
34307W        W 6600  20.613  28.125   3.789
34308W        W 6601  26.696  32.083   0.400
34309W        W 6602  25.688  40.369   1.721
34310W        W 6603  24.106  15.647  13.353
34311W        W 6604  43.932  40.872  13.847
34312W        W 6605  34.040  20.724   4.605
34313W        W 6606  22.709  19.207   1.263
34314W        W 6607  28.931  33.887  11.592
34315W        W 6608  21.096  11.341   0.762
34316W        W 6609  33.437  32.886   4.222
34317W        W 6610  36.470  29.656  11.593
34318W        W 6611   5.781  27.470   0.326
34319W        W 6612   3.434  32.518   3.376
34320W        W 6613  40.999  43.284  11.052
34321W        W 6614   6.730  31.466  12.941
34322W        W 6615  12.766   4.746   2.270
34323W        W 6616  31.937  36.479   4.655
34324W        W 6617  37.413  23.092  14.346
34325W        W 6618  14.633   8.238  13.374
34326W        W 6619  35.051   9.809  10.491
34327W        W 6620  29.011   5.778   2.389
34328W        W 6621  34.428  37.459  11.508
34329W        W 6622  34.056   4.812   4.268
34330W        W 6623  17.231  27.648   1.293
34331W        W 6624  30.038  39.403   4.139
34332W        W 6625   0.303  33.561   2.201
34333W        W 6626  17.294  23.194  12.971
34334W        W 6627  18.060  27.093   0.753
34335W        W 6628  11.261  21.165   4.167
34336W        W 6629  16.675  22.667   1.745
34337W        W 6630  24.150  26.987   3.229
34338W        W 6631  37.061  17.790  10.412
34339W        W 6632  24.196  27.629   0.375
34340W        W 6633  39.038  25.521   0.803
34341W        W 6634  16.190  38.477   3.152
34342W        W 6635  36.982  27.567   3.700
34343W        W 6636  25.499  38.823  14.898
34344W        W 6637   0.858   1.328  12.852
34345W        W 6638  40.027  42.858   0.433
34346W        W 6639  21.689   4.908   4.637
34347W        W 6640  26.965  20.272   0.351
34348W        W 6641  39.880  15.086  13.485
34349W        W 6642  23.661  24.009   2.859
34350W        W 6643   2.931  38.387  13.459
34351W        W 6644  42.960  12.285   4.731
34352W        W 6645  15.745  19.678   2.370
34353W        W 6646   6.710  10.282  13.843
34354W        W 6647  30.520  32.043  12.441
34355W        W 6648  25.206  30.453  14.807
34356W        W 6649  16.785   4.897  11.015
34357W        W 6650   5.746  32.584  12.059
34358W        W 6651  27.966  23.720   3.757
34359W        W 6652  39.539   1.948  12.521
34360W        W 6653  28.634  21.241   3.372
34361W        W 6654  38.075   0.290  14.292
34362W        W 6655  19.594  30.071  12.832
34363W        W 6656  30.500  25.523  11.913
34364W        W 6657  30.454  14.237   4.286
34365W        W 6658   8.850  30.155   0.442
34366W        W 6659  30.433  21.184  11.948
34367W        W 6660  35.944  35.046  12.876
34368W        W 6661  16.280   3.725  10.405
34369W        W 6662  40.920  19.612   0.396
34370W        W 6663   1.353  44.801   3.789
34371W        W 6664   1.948  32.625   2.328
34372W        W 6665   4.859  30.046  11.382
34373W        W 6666  27.043  11.862   3.210
34374W        W 6667  34.057   6.396  12.562
34375W        W 6668   0.484   5.423  11.043
34376W        W 6669   5.717  25.649  13.832
34377W        W 6670  24.142  28.063   0.884
34378W        W 6671  14.210  33.514   2.788
34379W        W 6672  32.009  24.589  10.937
34380W        W 6673   9.796  30.072   0.780
34381W        W 6674  33.971  20.752  11.520
34382W        W 6675  33.055  43.277   4.763
34383W        W 6676  36.056  16.317  10.987
34384W        W 6677  36.516   5.308  12.437
34385W        W 6678  34.578  37.341  12.068
34386W        W 6679   1.383  39.945   2.243
34387W        W 6680  10.275   0.373  11.082
34388W        W 6681  23.564  21.608  10.450
34389W        W 6682  24.185   9.809   2.863
34390W        W 6683  43.355   5.321   2.893
34391W        W 6684  36.027  23.579  12.571
34392W        W 6685  42.406  32.595   4.325
34393W        W 6686  23.036   2.730  10.574
34394W        W 6687  10.241  24.512   4.277
34395W        W 6688  36.476  17.694   4.794
34396W        W 6689   9.790  23.216   2.902
34397W        W 6690   5.327  12.693  10.637
34398W        W 6691  18.234  29.160  13.913
34399W        W 6692  33.584  42.867  13.853
34400W        W 6693   1.920   2.740  12.999
34401W        W 6694  23.500  18.159  12.540
34402W        W 6695  23.493  19.750  11.935
34403W        W 6696  14.601   3.748   0.266
34404W        W 6697  21.172  17.702  13.042
34405W        W 6698   0.851  25.016  14.886
34406W        W 6699  41.373  44.904   3.859
34407W        W 6700  36.362  28.442  14.880
34408W        W 6701  28.014  20.553  12.569
34409W        W 6702  39.386  27.071   0.900
34410W        W 6703  42.972  33.542   0.243
34411W        W 6704  41.402  23.550  14.872
34412W        W 6705  19.724   7.730  10.931
34413W        W 6706  16.257  26.648  12.448
34414W        W 6707  37.349  40.510   1.838
34415W        W 6708   4.853  31.457   2.691
34416W        W 6709   2.955  35.952   3.643
34417W        W 6710  27.148   7.357  11.395
34418W        W 6711   2.388   3.363  11.435
34419W        W 6712  18.729  20.196  13.051
34420W        W 6713   2.805   3.343  13.891
34421W        W 6714   3.751  15.118  13.060
34422W        W 6715   7.333  14.820  14.014
34423W        W 6716  22.667  36.091   1.932
34424W        W 6717  10.658  42.938  10.524
34425W        W 6718  41.943  17.676  12.091
34426W        W 6719  33.912  16.101  13.847
34427W        W 6720  14.225  38.974   5.172
34428W        W 6721  24.724   0.332   2.234
34429W        W 6722  34.414  21.605  14.815
34430W        W 6723  34.897  13.270   5.290
34431W        W 6724  12.851  40.463  14.323
34432W        W 6725  36.371  32.427   0.857
34433W        W 6726  43.881  21.563  14.449
34434W        W 6727  37.340  39.456   1.279
34435W        W 6728   7.284  20.086  13.344
34436W        W 6729   4.353  30.962   0.901
34437W        W 6730  28.646   7.707  11.396
34438W        W 6731  29.071  12.280   3.191
34439W        W 6732   1.944  38.361  10.915
34440W        W 6733  26.635  38.554   3.294
34441W        W 6734  37.034  31.951   2.266
34442W        W 6735  31.142  26.521   4.168
34443W        W 6736  14.684  33.989   0.460
34444W        W 6737   6.774  13.835  11.972
34445W        W 6738  18.284  25.188   0.957
34446W        W 6739  23.671   1.246  12.089
34447W        W 6740  23.071   0.851   2.376
34448W        W 6741  28.584  15.603  12.557
34449W        W 6742  18.249   3.933   3.654
34450W        W 6743  41.423  19.228   2.839
34451W        W 6744   1.899  39.986  11.545
34452W        W 6745  31.057   2.800  14.495
34453W        W 6746  39.458  26.646  13.026
34454W        W 6747  17.109  11.185  14.911
34455W        W 6748  10.765  42.441   1.234
34456W        W 6749  11.719  31.132  13.925
34457W        W 6750  37.357   5.712   1.321
34458W        W 6751  37.952  14.798   3.659
34459W        W 6752   8.882  10.858  12.419
34460W        W 6753  24.982  34.505   0.462
34461W        W 6754  34.032  37.396   3.656
34462W        W 6755  37.942  28.503  12.930
34463W        W 6756  12.261  43.005   2.753
34464W        W 6757   5.731  24.058   3.680
34465W        W 6758  20.197   3.294  10.570
34466W        W 6759  44.348  16.127  10.562
34467W        W 6760  23.524  29.079   0.951
34468W        W 6761   1.276   3.757   0.352
34469W        W 6762   5.425  31.902   4.226
34470W        W 6763   9.246  43.406   0.857
34471W        W 6764   5.379  36.573   1.264
34472W        W 6765  29.440  21.736  11.470
34473W        W 6766   5.910  13.245   0.873
34474W        W 6767  39.423  32.137  12.580
34475W        W 6768  22.015  25.096  14.975
34476W        W 6769   8.284  15.746  11.938
34477W        W 6770  16.281  10.363  10.941
34478W        W 6771  33.000   1.819  11.587
34479W        W 6772   9.323   9.775   2.279
34480W        W 6773  11.670  23.646   0.305
34481W        W 6774  42.824   0.759   2.410
34482W        W 6775  27.515   5.715  14.868
34483W        W 6776  41.009   1.334  12.551
34484W        W 6777   7.299  27.484  13.984
34485W        W 6778   3.725   8.778  10.634
34486W        W 6779  17.231  19.775   1.755
34487W        W 6780  26.035   1.462  11.864
34488W        W 6781  33.386  28.050  12.552
34489W        W 6782   9.180   3.342   3.376
34490W        W 6783  11.362   2.394  14.498
34491W        W 6784  14.726  38.383  12.556
34492W        W 6785  18.629  22.623   1.907
34493W        W 6786  39.909  12.773   4.807
34494W        W 6787   3.361  21.615   4.193
34495W        W 6788  42.342  15.100  14.850
34496W        W 6789  13.133  26.002  14.952
34497W        W 6790  40.043  23.156   1.231
34498W        W 6791  26.599  30.600  10.908
34499W        W 6792  27.093  22.728   3.353
34500W        W 6793  23.670  28.443  11.393
34501W        W 6794  31.580  44.922  10.489
34502W        W 6795   8.302  29.131  10.518
34503W        W 6796  21.105  32.970  11.000
34504W        W 6797  30.495   8.663   3.344
34505W        W 6798  29.664  34.997   2.680
34506W        W 6799  19.169  37.910  11.101
34507W        W 6800  39.965  36.060   2.365
34508W        W 6801  26.080  18.109  11.883
34509W        W 6802   7.397  42.842  11.596
34510W        W 6803   5.298  27.566   3.230
34511W        W 6804  35.936  34.886  10.461
34512W        W 6805  21.604  25.533  14.503
34513W        W 6806   1.248  27.571   3.700
34514W        W 6807   8.198  14.288  14.362
34515W        W 6808  11.862  38.550  12.096
34516W        W 6809  28.613  18.205  14.008
34517W        W 6810  29.937  44.282   0.798
34518W        W 6811  16.621  25.645   0.831
34519W        W 6812   9.800  37.415  12.435
34520W        W 6813  27.681  42.880  11.075
34521W        W 6814  14.773  41.894  12.937
34522W        W 6815  15.651  20.598  14.432
34523W        W 6816   2.963   1.731  13.396
34524W        W 6817  28.523  29.948   1.289
34525W        W 6818  35.392  39.957  11.953
34526W        W 6819  29.968  17.800  11.490
34527W        W 6820   0.767  11.819  13.931
34528W        W 6821  13.624   5.363   5.687
34529W        W 6822  31.574   6.844  11.512
34530W        W 6823  35.481  18.743  11.983
34531W        W 6824  26.625  31.583  12.511
34532W        W 6825  13.182   8.227  14.887
34533W        W 6826   8.314   2.273   1.722
34534W        W 6827  36.463   8.344  14.908
34535W        W 6828   8.362  36.899  10.501
34536W        W 6829  21.585  39.995   4.646
34537W        W 6830  34.038  23.517  14.830
34538W        W 6831  43.959  37.374   4.750
34539W        W 6832  41.886  17.150  11.972
34540W        W 6833  13.767  12.679   0.470
34541W        W 6834   5.424  25.015   3.815
34542W        W 6835  21.232  27.107   4.176
34543W        W 6836  34.464   5.842  12.920
34544W        W 6837   2.228   1.881  12.965
34545W        W 6838  16.169  44.386  12.053
34546W        W 6839  24.037   4.873  13.879
34547W        W 6840  25.129  43.350  14.899
34548W        W 6841  32.501   2.894   3.847
34549W        W 6842  23.700  32.612  13.920
34550W        W 6843  27.042  22.222   0.385
34551W        W 6844  39.381  41.497   4.343
34552W        W 6845  25.611  32.960   0.431
34553W        W 6846  17.229  11.633  11.606
34554W        W 6847  26.479  39.549   1.854
34555W        W 6848  39.879  23.727  12.888
34556W        W 6849  25.219  36.953   0.899
34557W        W 6850   0.795   2.424  13.376
34558W        W 6851  41.461   6.362  12.953
34559W        W 6852  11.745   4.267  11.104
34560W        W 6853  31.542  38.820   0.862
34561W        W 6854   4.837  39.472  13.825
34562W        W 6855   6.842  32.527   2.731
34563W        W 6856   0.909  42.814   5.129
34564W        W 6857  22.586  38.508   3.304
34565W        W 6858  42.433  36.551  13.854
34566W        W 6859  42.314  11.654   1.294
34567W        W 6860  37.842  23.102  12.488
34568W        W 6861   4.892   5.204   4.197
34569W        W 6862  36.899  21.608  11.562
34570W        W 6863  37.016   3.933  10.500
34571W        W 6864  19.680  17.634  13.397
34572W        W 6865  35.385  22.739  12.484
34573W        W 6866  13.199   8.397  14.008
34574W        W 6867  33.116  36.418   3.764
34575W        W 6868   7.381  15.266  11.509
34576W        W 6869  25.594   1.483  10.492
34577W        W 6870  25.687  42.325  12.461
34578W        W 6871  27.115  43.321   1.804
34579W        W 6872   8.290  24.650  14.400
34580W        W 6873  17.289   4.747  14.488
34581W        W 6874  11.348  32.028   3.347
34582W        W 6875   6.688   4.362   0.903
34583W        W 6876  38.074  18.090  13.399
34584W        W 6877  43.843  31.927   3.696
34585W        W 6878  40.338   7.314   1.398
34586W        W 6879  26.208  18.193   3.214
34587W        W 6880   5.327  20.149   3.379
34588W        W 6881  40.344  20.574  14.317
34589W        W 6882  34.924  26.029  11.884
34590W        W 6883   0.422  36.501   3.370
34591W        W 6884  40.904  25.581  11.474
34592W        W 6885  28.531  18.684  12.516
34593W        W 6886  16.236   8.329   3.359
34594W        W 6887  34.896  25.702  12.980
34595W        W 6888  12.254  37.529  14.984
34596W        W 6889  23.700  22.710   0.469
34597W        W 6890  14.103  25.024   4.779
34598W        W 6891  14.766  17.169   0.809
34599W        W 6892  40.335  25.027  10.579
34600W        W 6893   4.428  28.568  12.929
34601W        W 6894  14.144   0.751  14.778
34602W        W 6895  30.455  37.465   4.275
34603W        W 6896  28.530  36.951   4.599
34604W        W 6897  44.808  21.071  13.858
34605W        W 6898  15.758  25.481   2.705
34606W        W 6899   9.345  26.664  14.975
34607W        W 6900   9.807  44.999  14.836
34608W        W 6901  34.031  31.948   0.303
34609W        W 6902  38.960  38.506   4.181
34610W        W 6903  31.439  11.153   5.649
34611W        W 6904  30.140  26.600   0.771
34612W        W 6905  19.739  19.617   3.383
34613W        W 6906  36.955  30.038   2.368
34614W        W 6907  26.155  35.469  12.447
34615W        W 6908  26.139  16.076   0.842
34616W        W 6909  26.476   0.985   5.319
34617W        W 6910   4.312  32.479  14.829
34618W        W 6911  19.728   6.247  11.375
34619W        W 6912  29.623  35.030  10.050
34620W        W 6913  22.119   8.342  13.861
34621W        W 6914   3.878  38.033   4.675
34622W        W 6915  11.670  33.564  14.871
34623W        W 6916  30.097  13.697   1.695
34624W        W 6917  44.441  34.388   5.159
34625W        W 6918   8.895  39.000  13.932
34626W        W 6919  21.204  41.944  13.980
34627W        W 6920  35.853   9.295   3.313
34628W        W 6921  34.889  17.777   2.760
34629W        W 6922  17.704  24.221  13.410
34630W        W 6923  25.482  40.466   3.730
34631W        W 6924  13.177  17.564  12.052
34632W        W 6925  29.510  16.582   0.481
34633W        W 6926  15.609   9.240   1.329
34634W        W 6927  30.040  32.959  12.032
34635W        W 6928   5.211  18.636   0.483
34636W        W 6929   5.929  13.802  14.461
34637W        W 6930  37.080  30.526  13.868
34638W        W 6931  29.468  23.496   9.567
34639W        W 6932  26.151  25.060   4.211
34640W        W 6933  35.415   8.836   2.884
34641W        W 6934   3.890  44.277   0.381
34642W        W 6935  24.186   8.287  13.443
34643W        W 6936   6.342  11.286   1.892
34644W        W 6937  38.392   8.161  10.906
34645W        W 6938  29.986  13.691  10.562
34646W        W 6939  33.124   3.802  14.476
34647W        W 6940  36.514  20.558   3.356
34648W        W 6941  35.962  27.020   1.858
34649W        W 6942  27.192   1.389  14.457
34650W        W 6943  18.073   2.415   2.697
34651W        W 6944   4.867  44.907  14.395
34652W        W 6945  28.471  42.488   1.761
34653W        W 6946  40.390  42.817  12.492
34654W        W 6947  28.536  24.704  12.495
34655W        W 6948  22.160  38.889  12.008
34656W        W 6949  33.996  15.633  11.423
34657W        W 6950  31.451  15.174  13.046
34658W        W 6951  11.208  42.513   1.925
34659W        W 6952  15.191  25.677   4.605
34660W        W 6953   6.262  20.202   4.725
34661W        W 6954   6.810  19.058   0.932
34662W        W 6955  39.411  32.122  13.921
34663W        W 6956  24.167  10.279  11.093
34664W        W 6957  41.351   3.799  11.914
34665W        W 6958  18.285  38.355  14.345
34666W        W 6959   2.452  20.763   1.697
34667W        W 6960   6.305   2.252   3.217
34668W        W 6961  34.053  35.456  13.475
34669W        W 6962  29.587   5.236   0.315
34670W        W 6963  37.834   4.897  10.975
34671W        W 6964   7.734   9.754  11.932
34672W        W 6965   9.679  12.116  10.980
34673W        W 6966  23.497  18.256   1.921
34674W        W 6967   4.710  32.957   0.287
34675W        W 6968  13.211  30.549  10.516
34676W        W 6969  43.323  39.359   4.291
34677W        W 6970   3.935  39.919   5.143
34678W        W 6971  22.086  37.022  14.401
34679W        W 6972  30.433  16.179  11.082
34680W        W 6973  23.003   7.776   1.408
34681W        W 6974  23.681   3.714  11.891
34682W        W 6975  14.190  10.682   2.191
34683W        W 6976  28.472  20.704  13.975
34684W        W 6977  24.071   9.181   2.704
34685W        W 6978  24.210   8.772   4.709
34686W        W 6979  12.322  10.767  13.340
34687W        W 6980  36.044  29.502  14.432
34688W        W 6981   7.218  25.141   0.952
34689W        W 6982  14.211  40.491   3.733
34690W        W 6983  23.019  24.714  11.020
34691W        W 6984  42.999  11.268  14.928
34692W        W 6985  13.665   0.394   4.776
34693W        W 6986  35.024  27.623  14.309
34694W        W 6987   1.244   3.453  12.903
34695W        W 6988  36.514  24.486   0.868
34696W        W 6989  33.446  18.735   4.264
34697W        W 6990  43.353  11.220   2.235
34698W        W 6991   9.384  31.971   2.334
34699W        W 6992  42.902   4.427   4.312
34700W        W 6993  24.117  10.147  12.396
34701W        W 6994  20.568  24.482  11.930
34702W        W 6995   4.337  38.942   3.153
34703W        W 6996  25.659   9.818  14.027
34704W        W 6997   3.334  20.065   2.203
34705W        W 6998  27.662  21.225   0.779
34706W        W 6999  12.730  37.037  12.495
34707W        W 7000   3.263  25.019  13.533
34708W        W 7001  12.740   4.424   0.301
34709W        W 7002   4.824  31.980   0.380
34710W        W 7003  34.036  26.616   3.239
34711W        W 7004   1.377  15.615   3.184
34712W        W 7005  12.213   9.753   3.823
34713W        W 7006  33.980  39.559  11.998
34714W        W 7007  12.178  15.746  12.417
34715W        W 7008  41.034  12.649   2.764
34716W        W 7009  14.328  34.376   2.384
34717W        W 7010   9.306  33.443  13.877
34718W        W 7011  11.857  11.271  12.566
34719W        W 7012  41.357  30.655   1.386
34720W        W 7013  27.150  15.581   4.636
34721W        W 7014   6.209  13.726  13.792
34722W        W 7015  43.455  18.176   9.929
34723W        W 7016  28.037  16.583   2.222
34724W        W 7017  17.274  10.868  11.467
34725W        W 7018  33.996   6.726   4.757
34726W        W 7019  11.278  16.173  13.376
34727W        W 7020  30.003   1.349  14.490
34728W        W 7021  12.847   8.236   1.917
34729W        W 7022  11.666  31.120   1.778
34730W        W 7023   1.865  37.000  11.606
34731W        W 7024  22.632  20.686  11.973
34732W        W 7025  27.948  23.685  11.075
34733W        W 7026  23.703  18.296   0.401
34734W        W 7027   3.245  27.508  12.504
34735W        W 7028  19.190  41.309   3.682
34736W        W 7029  18.062  13.268  13.390
34737W        W 7030  14.320  17.249  14.936
34738W        W 7031  28.547   5.357   4.712
34739W        W 7032  40.905  37.979  11.503
34740W        W 7033  40.448  40.908  14.819
34741W        W 7034  13.260  34.407   4.689
34742W        W 7035  23.017   9.370   0.794
34743W        W 7036   7.840  34.105  14.945
34744W        W 7037   4.891  17.737  14.288
34745W        W 7038  38.960  43.346  11.954
34746W        W 7039  39.470  17.081   3.328
34747W        W 7040  21.115  15.286  11.444
34748W        W 7041   6.391  41.829  11.445
34749W        W 7042  39.976  22.099  11.088
34750W        W 7043   7.281  37.955   4.772
34751W        W 7044  40.985  22.150   2.238
34752W        W 7045  35.026  18.206  14.818
34753W        W 7046  14.671  43.771  13.980
34754W        W 7047  36.014  39.937  11.607
34755W        W 7048  34.467  12.189   0.353
34756W        W 7049   5.746  38.956   4.330
34757W        W 7050  29.005  15.632  10.424
34758W        W 7051   9.862  33.122   4.274
34759W        W 7052  41.459   5.287   2.817
34760W        W 7053   4.876  22.708  14.028
34761W        W 7054  28.996  10.779   2.249
34762W        W 7055   7.356  31.037  13.444
34763W        W 7056   5.801  22.088   4.818
34764W        W 7057  39.879  11.653  11.559
34765W        W 7058  11.739  23.090  14.418
34766W        W 7059  33.531  18.576   3.790
34767W        W 7060   0.855  39.032   1.877
34768W        W 7061  43.283  39.903   3.215
34769W        W 7062   6.333  15.596   2.761
34770W        W 7063   4.230  19.741  12.857
34771W        W 7064   0.440   0.435  11.053
34772W        W 7065  23.511  40.973   0.403
34773W        W 7066   5.216  29.500   0.287
34774W        W 7067  27.630  34.570   0.820
34775W        W 7068  11.215  32.428  12.010
34776W        W 7069  20.667  12.776   0.301
34777W        W 7070  16.575  21.225  10.915
34778W        W 7071  15.271  12.631   1.332
34779W        W 7072  41.401  40.960  10.473
34780W        W 7073  20.039  32.057  12.453
34781W        W 7074   6.916  36.841   0.405
34782W        W 7075   7.364  10.847   0.881
34783W        W 7076  31.044  14.325  14.894
34784W        W 7077  36.420  34.570   3.245
34785W        W 7078   2.929  41.005   3.309
34786W        W 7079   5.879  41.428   2.230
34787W        W 7080   7.175  37.509  12.387
34788W        W 7081  38.998   7.815   2.754
34789W        W 7082  16.248  16.763  13.521
34790W        W 7083  13.314  21.250  14.334
34791W        W 7084  21.695  40.516   0.743
34792W        W 7085  35.872   5.806  11.603
34793W        W 7086  41.467  22.658  12.054
34794W        W 7087  40.321  26.010  10.499
34795W        W 7088   6.309   5.874   2.336
34796W        W 7089  34.056   1.315   3.316
34797W        W 7090  26.196  16.265   4.750
34798W        W 7091  32.551   1.434  12.571
34799W        W 7092  42.815  28.177  11.457
34800W        W 7093  34.451  23.542  13.012
34801W        W 7094  32.478  10.376   4.291
34802W        W 7095  35.898   9.880   2.397
34803W        W 7096  16.293   8.230   0.273
34804W        W 7097  14.129   2.799  10.110
34805W        W 7098   0.970  41.402  14.443
34806W        W 7099  17.288  44.309  12.825
34807W        W 7100  40.014  27.609  13.992
34808W        W 7101  22.657  25.677  10.970
34809W        W 7102   3.445  31.611   4.334
34810W        W 7103  30.636  15.203  13.045
34811W        W 7104  44.927  18.159  13.021
34812W        W 7105  18.567  25.044  11.392
34813W        W 7106   4.944  41.473  10.910
34814W        W 7107  44.983  25.003   4.640
34815W        W 7108  36.863   9.673  10.529
34816W        W 7109  33.476   9.688   3.359
34817W        W 7110  11.726  20.619   2.355
34818W        W 7111  26.031   4.758   1.225
34819W        W 7112  28.166  12.722   4.207
34820W        W 7113  42.375  40.540   1.792
34821W        W 7114  34.571   3.919   1.921
34822W        W 7115  39.373   2.435  11.016
34823W        W 7116  36.928  35.602  10.546
34824W        W 7117  44.286  13.251   0.363
34825W        W 7118  12.279  39.440   2.251
34826W        W 7119  18.760  21.637   4.282
34827W        W 7120  14.615  20.697  10.504
34828W        W 7121  13.829  40.013   0.737
34829W        W 7122  44.312  15.694   5.125
34830W        W 7123   2.896   6.298   1.397
34831W        W 7124   7.206  15.654  12.035
34832W        W 7125  18.215  13.195  13.957
34833W        W 7126   9.749  14.646   3.846
34834W        W 7127   1.293  25.620  13.047
34835W        W 7128  12.256   0.971  13.939
34836W        W 7129  23.004  22.570  11.591
34837W        W 7130  37.443  43.021  10.477
34838W        W 7131  28.674  41.813  10.903
34839W        W 7132   4.856   7.328  12.428
34840W        W 7133   7.717  12.671   2.866
34841W        W 7134   5.236  26.035  10.540
34842W        W 7135  44.789   7.669  11.493
34843W        W 7136   3.364  30.945  14.497
34844W        W 7137  11.148  23.544   2.292
34845W        W 7138  28.455   5.327  11.395
34846W        W 7139  16.672  14.237   0.799
34847W        W 7140   3.784  18.605   3.761
34848W        W 7141  22.249   6.691   3.667
34849W        W 7142  40.007  38.392   0.411
34850W        W 7143   2.787  29.547  14.843
34851W        W 7144  44.961  32.459  13.317
34852W        W 7145   5.747  13.206  11.468
34853W        W 7146  18.059   5.206  11.064
34854W        W 7147   1.930  28.600   1.210
34855W        W 7148  43.016  17.570  11.101
34856W        W 7149  24.584  31.547  12.506
34857W        W 7150  27.960  11.837  10.018
34858W        W 7151  32.625  13.118   2.417
34859W        W 7152  18.672  39.542  14.467
34860W        W 7153  38.504   5.921   1.807
34861W        W 7154  17.277  31.946  10.482
34862W        W 7155  39.860  33.463   4.792
34863W        W 7156   9.690  25.063   1.827
34864W        W 7157   2.898  40.866   2.284
34865W        W 7158  27.107   6.400   0.463
34866W        W 7159  15.614  42.808   1.212
34867W        W 7160  18.136  44.907  12.505
34868W        W 7161  32.065  44.293  11.016
34869W        W 7162   5.790   0.821   0.359
34870W        W 7163  17.265  35.025   0.846
34871W        W 7164  30.967  24.570  11.536
34872W        W 7165  14.323  42.295   4.767
34873W        W 7166   3.217   5.326  13.805
34874W        W 7167  27.118  37.898  10.982
34875W        W 7168  25.655   4.266   5.693
34876W        W 7169  31.102  41.844   3.306
34877W        W 7170  44.952  13.656  10.622
34878W        W 7171  23.506  36.498  12.541
34879W        W 7172   3.762  40.976   4.772
34880W        W 7173  42.408  23.190   3.844
34881W        W 7174  14.318  43.951  12.000
34882W        W 7175   7.689  26.664   1.408
34883W        W 7176  12.118   8.783   1.695
34884W        W 7177   3.824  39.900   4.765
34885W        W 7178  11.717  42.795   5.274
34886W        W 7179  13.759  10.861   3.862
34887W        W 7180  40.455  32.634   2.209
34888W        W 7181  16.614  14.173   4.621
34889W        W 7182  14.328  15.153   4.209
34890W        W 7183  21.180  29.565  13.845
34891W        W 7184  17.303  34.510   4.116
34892W        W 7185  34.532   6.895  11.448
34893W        W 7186   7.782  41.891  11.089
34894W        W 7187  14.748  13.715   4.270
34895W        W 7188  35.501  32.945  11.573
34896W        W 7189  16.084  13.738  13.953
34897W        W 7190  21.528  19.611   2.827
34898W        W 7191  30.958  19.052  12.353
34899W        W 7192  40.029   5.265   1.744
34900W        W 7193  24.712  23.118   2.873
34901W        W 7194  41.305   5.371  11.414
34902W        W 7195  34.053  43.359  12.502
34903W        W 7196  34.451  26.695   0.855
34904W        W 7197  15.281  43.889  12.954
34905W        W 7198  35.094  27.659   3.807
34906W        W 7199  26.555  39.917   2.779
34907W        W 7200  29.453   7.365  14.804
34908W        W 7201  20.069  23.598  13.028
34909W        W 7202  43.408  22.176  11.875
34910W        W 7203  41.403   9.709   4.655
34911W        W 7204  44.984  10.208   0.284
34912W        W 7205   5.691  12.312   3.844
34913W        W 7206  21.033  42.912  12.507
34914W        W 7207   1.833  42.975  12.427
34915W        W 7208  29.436  13.756   4.766
34916W        W 7209  44.930  19.137  10.976
34917W        W 7210  21.513  37.445   0.464
34918W        W 7211   8.734  32.110   3.659
34919W        W 7212   2.246  23.648  14.291
34920W        W 7213  43.920  35.426  11.985
34921W        W 7214  25.627  36.573  12.387
34922W        W 7215   5.732  37.516  14.337
34923W        W 7216  14.799   7.266   9.945
34924W        W 7217  42.458  29.978  14.453
34925W        W 7218  28.511  35.570  10.443
34926W        W 7219  36.592  27.954  12.025
34927W        W 7220  41.892  24.017  10.965
34928W        W 7221   9.342  23.191   2.374
34929W        W 7222  39.471  28.630   0.326
34930W        W 7223  18.559  32.057  12.065
34931W        W 7224   2.382   2.755  11.932
34932W        W 7225  39.543  30.000  14.940
34933W        W 7226  20.063   2.465   0.850
34934W        W 7227  30.430  15.121   1.928
34935W        W 7228  15.129  28.077   3.692
34936W        W 7229  12.189   7.344   3.299
34937W        W 7230  43.972  21.741  11.090
34938W        W 7231   6.396  40.302   9.966
34939W        W 7232  33.069  42.492   2.727
34940W        W 7233   8.756   0.292   1.363
34941W        W 7234   1.872  12.854  10.481
34942W        W 7235   6.387  29.120  12.436
34943W        W 7236  24.195   9.203  14.510
34944W        W 7237   3.382  38.484  13.832
34945W        W 7238  14.650  11.825   4.152
34946W        W 7239  12.687  10.302  14.888
34947W        W 7240  24.535  39.920  11.430
34948W        W 7241  44.263  21.165  14.771
34949W        W 7242  40.031  27.080  10.955
34950W        W 7243  35.390  24.529  14.781
34951W        W 7244  12.843  28.052  11.091
34952W        W 7245  42.965   0.839   3.194
34953W        W 7246  29.658  10.702   4.216
34954W        W 7247  12.361  14.601   4.205
34955W        W 7248  28.637  11.288  13.937
34956W        W 7249  25.037  17.671  11.540
34957W        W 7250  15.171  30.497  10.468
34958W        W 7251   1.965  19.590  14.987
34959W        W 7252  15.731  12.677   3.184
34960W        W 7253   1.447   7.871   4.184
34961W        W 7254   8.321  26.511   3.281
34962W        W 7255  38.018  16.595  12.407
34963W        W 7256  43.936  18.179  10.643
34964W        W 7257  44.798  20.050  12.851
34965W        W 7258  32.494  18.078   2.252
34966W        W 7259  40.933  26.954  10.407
34967W        W 7260  24.609  12.151  11.901
34968W        W 7261  14.669  22.723  11.873
34969W        W 7262  40.496  30.995   2.671
34970W        W 7263   8.714  38.066  12.053
34971W        W 7264   9.212  24.042  11.458
34972W        W 7265  13.253  32.052  11.596
34973W        W 7266  25.522  26.980   1.301
34974W        W 7267  34.484   0.772  13.031
34975W        W 7268  32.057   4.851   1.775
34976W        W 7269  43.997  27.137  13.015
34977W        W 7270   6.330  32.949  13.465
34978W        W 7271  22.575  32.039  11.438
34979W        W 7272   7.309  27.129   2.203
34980W        W 7273  43.808  33.921  11.396
34981W        W 7274  34.910  35.100  12.069
34982W        W 7275  31.016  32.498   3.760
34983W        W 7276  24.601  30.583   3.652
34984W        W 7277  40.043  25.610  11.440
34985W        W 7278   2.879  16.755   3.792
34986W        W 7279  11.673   2.341   4.725
34987W        W 7280  26.985   5.292  13.471
34988W        W 7281  23.080   9.648   1.247
34989W        W 7282  19.115   8.839   5.237
34990W        W 7283  29.040  22.162   4.283
34991W        W 7284  12.155   8.394   1.244
34992W        W 7285  35.011   7.211   1.903
34993W        W 7286  15.753  13.831   4.621
34994W        W 7287  42.394  43.364   5.774
34995W        W 7288  19.751  15.236  12.399
34996W        W 7289   1.314  31.447  12.907
34997W        W 7290   9.203  26.495   2.822
34998W        W 7291  27.020  36.557   1.435
34999W        W 7292  14.679  43.952   1.224
35000W        W 7293  16.107  35.434  10.971
35001W        W 7294  24.000  15.773  11.102
35002W        W 7295  11.227  44.843   0.318
35003W        W 7296  11.802  26.551   0.839
35004W        W 7297  36.945  41.308   1.328
35005W        W 7298  26.205  33.505   0.965
35006W        W 7299   1.863  40.422  14.792
35007W        W 7300  30.961  20.074  10.972
35008W        W 7301  14.771  14.698   1.383
35009W        W 7302  22.622   0.842  10.486
35010W        W 7303  29.124  35.424   4.314
35011W        W 7304   2.729  18.763  11.887
35012W        W 7305  38.542  44.490  13.437
35013W        W 7306  43.476  13.226   3.249
35014W        W 7307   1.361  24.711   3.185
35015W        W 7308  23.027  29.568  12.444
35016W        W 7309  37.436  18.750  11.382
35017W        W 7310  17.674  28.594  13.894
35018W        W 7311  18.578  40.532  11.515
35019W        W 7312  26.957  10.138   1.234
35020W        W 7313  31.589  41.924   3.176
35021W        W 7314   8.276   9.814   1.737
35022W        W 7315  22.150  10.366   2.234
35023W        W 7316  16.310  11.182   1.359
35024W        W 7317  39.548  34.404   1.280
35025W        W 7318  19.174  42.467  12.381
35026W        W 7319  11.366   8.287   3.214
35027W        W 7320   3.411  15.739  13.448
35028W        W 7321  34.000  30.503  11.899
35029W        W 7322  13.738   6.345  11.914
35030W        W 7323   6.307  26.466   4.750
35031W        W 7324  27.574  43.804   3.151
35032W        W 7325  17.167  30.568   1.323
35033W        W 7326  10.298  16.756  13.360
35034W        W 7327  12.810   0.304   0.321
35035W        W 7328   4.220  31.551  14.821
35036W        W 7329  23.518  35.894  11.466
35037W        W 7330  44.960  12.320   4.660
35038W        W 7331  17.146  41.456  10.068
35039W        W 7332  43.944   0.842  10.490
35040W        W 7333  37.952   2.810  12.944
35041W        W 7334   4.813  31.996   4.724
35042W        W 7335  38.341  29.978  13.388
35043W        W 7336  26.511   7.304   3.636
35044W        W 7337  42.934   4.407   4.625
35045W        W 7338  37.074  22.128   2.338
35046W        W 7339  28.137  12.832  12.537
35047W        W 7340   3.859  29.005  14.383
35048W        W 7341  23.712   1.900  14.338
35049W        W 7342  39.809   6.790  11.084
35050W        W 7343   1.853  15.781   2.784
35051W        W 7344  28.158  44.444   9.978
35052W        W 7345  41.339   9.849   1.932
35053W        W 7346  40.925  37.551   2.824
35054W        W 7347  39.986  13.200  14.812
35055W        W 7348  40.517  40.935   3.653
35056W        W 7349   6.294  28.092   4.667
35057W        W 7350  33.105  29.113  11.040
35058W        W 7351  11.716  19.604   5.308
35059W        W 7352  10.850   0.937  11.434
35060W        W 7353  13.302  36.510   4.271
35061W        W 7354  24.168  36.561   2.821
35062W        W 7355  40.306   3.710  14.452
35063W        W 7356  21.620  27.079   1.350
35064W        W 7357  11.864  35.361   2.296
35065W        W 7358   6.828  27.093  11.071
35066W        W 7359  24.652  24.123   0.409
35067W        W 7360  26.083   0.493   4.827
35068W        W 7361  15.169  16.091  11.491
35069W        W 7362  17.239   0.807  11.506
35070W        W 7363   0.339  34.374   3.841
35071W        W 7364  35.966  44.412   2.699
35072W        W 7365  28.129  29.923   3.676
35073W        W 7366   5.841  25.553  11.908
35074W        W 7367  26.059  36.080   1.395
35075W        W 7368  25.634  43.394  12.867
35076W        W 7369  14.237   6.183   0.945
35077W        W 7370  24.223   4.303   2.316
35078W        W 7371  34.440   2.900  14.425
35079W        W 7372  39.920  37.469  12.871
35080W        W 7373  29.953  40.987  10.981
35081W        W 7374  26.695  20.736   9.984
35082W        W 7375  15.224  11.188   2.848
35083W        W 7376  34.440  33.524   4.749
35084W        W 7377  44.271  39.985   1.724
35085W        W 7378  20.682  25.110  14.984
35086W        W 7379  23.600  26.109  12.435
35087W        W 7380  17.140  39.808   4.138
35088W        W 7381  19.726  14.179  10.902
35089W        W 7382   2.880  12.163  10.594
35090W        W 7383   7.321   7.683   1.876
35091W        W 7384  20.766  34.981   4.216
35092W        W 7385  25.609   3.382   2.725
35093W        W 7386  33.091   5.398   1.235
35094W        W 7387  42.967  30.978  14.356
35095W        W 7388  31.149  24.146   0.748
35096W        W 7389   3.887  16.647  14.470
35097W        W 7390   1.903   2.905   3.381
35098W        W 7391  41.508  43.886   3.793
35099W        W 7392   2.324  16.622   2.218
35100W        W 7393   9.667   4.854  12.979
35101W        W 7394  19.280  41.500   2.898
35102W        W 7395  25.473  33.554   4.245
35103W        W 7396  36.507  28.169  13.804
35104W        W 7397  31.582  20.719  11.604
35105W        W 7398  33.897   8.669  13.456
35106W        W 7399   5.707  22.588  10.986
35107W        W 7400  31.938   4.877   3.251
35108W        W 7401  33.502   1.285   2.685
35109W        W 7402  25.191  31.103   3.737
35110W        W 7403  42.298  11.748  12.070
35111W        W 7404  16.275  37.858   1.295
35112W        W 7405  41.850  16.318   4.598
35113W        W 7406  41.367  18.651   5.619
35114W        W 7407  29.533  10.338  10.614
35115W        W 7408  23.171  10.377  13.318
35116W        W 7409  40.318  14.094  13.880
35117W        W 7410  18.283  38.885  10.961
35118W        W 7411  41.914  36.422   4.165
35119W        W 7412  31.597  34.578   1.734
35120W        W 7413  37.342  21.611  13.517
35121W        W 7414  22.663  31.986   4.765
35122W        W 7415  41.878  31.411   4.314
35123W        W 7416  10.252  41.408  14.426
35124W        W 7417  18.692  44.353   1.919
35125W        W 7418  20.249  21.146   1.714
35126W        W 7419   4.734  31.036  11.454
35127W        W 7420  17.092   7.215  14.511
35128W        W 7421  22.097  34.555   3.357
35129W        W 7422  29.158  37.023  10.911
35130W        W 7423  11.251  26.582  13.445
35131W        W 7424   9.335   5.722   0.796
35132W        W 7425   2.766  39.323   2.179
35133W        W 7426  15.604   2.830   9.960
35134W        W 7427  33.601  32.514   2.846
35135W        W 7428  17.157  36.995   1.330
35136W        W 7429  39.491  13.660  11.608
35137W        W 7430  33.116  26.988  14.004
35138W        W 7431  21.210  27.138   0.359
35139W        W 7432  41.835  44.985  14.764
35140W        W 7433  34.579  24.704  11.083
35141W        W 7434   0.423  30.477  14.333
35142W        W 7435   2.726  17.270  14.493
35143W        W 7436  39.988   3.394  14.810
35144W        W 7437  37.363  26.176   4.346
35145W        W 7438  29.475  24.197  11.462
35146W        W 7439   1.813  35.555   2.365
35147W        W 7440  40.929  42.964  14.980
35148W        W 7441   7.850  21.657   2.243
35149W        W 7442   2.847  37.860   2.824
35150W        W 7443   7.321  36.872   0.884
35151W        W 7444   5.244  31.109  13.325
35152W        W 7445  38.910  16.650   1.848
35153W        W 7446   6.860  16.637   4.250
35154W        W 7447   3.813  35.583   0.314
35155W        W 7448  16.578   1.738  11.870
35156W        W 7449  17.570  13.654  10.523
35157W        W 7450  43.438  20.124   4.163
35158W        W 7451   2.268  39.512  13.041
35159W        W 7452  35.574  40.327  10.951
35160W        W 7453  37.980   4.306  14.429
35161W        W 7454  40.818  38.858   1.818
35162W        W 7455  32.013  38.479  11.463
35163W        W 7456  35.879   5.751  12.438
35164W        W 7457  38.550  21.640   0.350
35165W        W 7458   1.472  35.061   1.276
35166W        W 7459  20.120  27.472   1.219
35167W        W 7460  10.764   1.801   1.932
35168W        W 7461  38.883  24.991   0.937
35169W        W 7462  29.590  26.564  14.505
35170W        W 7463  37.551  44.432  11.121
35171W        W 7464   4.204   8.685  12.457
35172W        W 7465  33.090  26.157  10.583
35173W        W 7466   0.794  18.054   4.253
35174W        W 7467  34.880  14.688   3.314
35175W        W 7468  11.785  29.102  14.004
35176W        W 7469  40.823  32.943  11.505
35177W        W 7470   8.250  43.922  14.365
35178W        W 7471  39.856  41.975  12.502
35179W        W 7472  40.428  29.540  10.546
35180W        W 7473  26.651  33.906  12.080
35181W        W 7474  18.146   1.252   3.799
35182W        W 7475  39.555  14.118   4.276
35183W        W 7476   3.906  22.554  12.389
35184W        W 7477  28.537   6.382   3.321
35185W        W 7478  26.087  37.419  13.016
35186W        W 7479  28.142  29.610  10.976
35187W        W 7480  23.053  11.193  14.433
35188W        W 7481  16.227  17.292  13.433
35189W        W 7482   5.702   4.364   1.765
35190W        W 7483  20.042  14.705   1.348
35191W        W 7484  13.681  22.020   1.807
35192W        W 7485   8.656  24.496   4.114
35193W        W 7486   0.873  22.530  13.001
35194W        W 7487  33.456  42.349  11.492
35195W        W 7488   4.272  37.031  13.365
35196W        W 7489  31.554  21.598  11.480
35197W        W 7490  12.658  21.613  11.103
35198W        W 7491   8.768   8.334  14.412
35199W        W 7492  34.937   3.246  14.437
35200W        W 7493  32.062  13.346   2.805
35201W        W 7494  41.513  30.505  13.997
35202W        W 7495  22.570  26.120  12.457
35203W        W 7496  42.942  44.312  11.113
35204W        W 7497  29.077  41.821  11.882
35205W        W 7498   9.213   3.931   0.301
35206W        W 7499  13.166   9.352  11.529
35207W        W 7500  44.913  21.222  11.859
35208W        W 7501  32.052  27.453   0.330
35209W        W 7502  11.205   9.334  13.334
35210W        W 7503  31.042  13.343  12.518
35211W        W 7504  19.172  20.270  11.387
35212W        W 7505   4.838  29.173   3.632
35213W        W 7506  38.942  14.787   2.269
35214W        W 7507  16.162  25.706   4.816
35215W        W 7508  33.453  23.664   5.322
35216W        W 7509  19.104  39.335   1.875
35217W        W 7510   9.650   2.912   2.830
35218W        W 7511   8.860  23.647   2.727
35219W        W 7512  23.215  40.319  14.002
35220W        W 7513  33.069  13.654   0.483
35221W        W 7514  33.970  25.117   0.448
35222W        W 7515  22.659  34.006   1.761
35223W        W 7516  18.544  19.283  13.312
35224W        W 7517  26.532  30.164  11.121
35225W        W 7518  35.960   7.816  13.496
35226W        W 7519  14.328  17.799  14.412
35227W        W 7520   4.886  24.989  14.967
35228W        W 7521  42.981   5.753   4.704
35229W        W 7522  29.449  35.951  10.034
35230W        W 7523  17.217  18.122   1.743
35231W        W 7524  41.787  26.664  14.303
35232W        W 7525  40.406   0.971   4.258
35233W        W 7526   6.212  40.010   1.782
35234W        W 7527  26.688   8.682   0.403
35235W        W 7528   3.877  15.721  11.129
35236W        W 7529  19.141  28.938  13.016
35237W        W 7530  15.676  15.305   1.352
35238W        W 7531  35.872   1.458   2.791
35239W        W 7532  15.223  35.066  13.984
35240W        W 7533  24.025  21.698   3.755
35241W        W 7534  31.933  40.022  14.914
35242W        W 7535  42.945   2.821  14.905
35243W        W 7536  16.264  32.111   0.266
35244W        W 7537  11.348   2.795  10.566
35245W        W 7538   1.851  31.054  11.867
35246W        W 7539  10.745  42.026  13.044
35247W        W 7540  43.379  19.093  13.413
35248W        W 7541  22.737  40.374  12.459
35249W        W 7542  15.594  30.627  13.444
35250W        W 7543  10.242  25.106  11.989
35251W        W 7544  40.913  10.372   1.432
35252W        W 7545  23.206   5.924  13.972
35253W        W 7546  14.149  23.145   2.842
35254W        W 7547   3.816  20.523  11.445
35255W        W 7548  44.904  36.012   1.792
35256W        W 7549  11.773  28.147  10.485
35257W        W 7550   9.868  33.386  12.958
35258W        W 7551  26.985  20.578  10.454
35259W        W 7552   8.701  36.380   9.515
35260W        W 7553   5.204  42.933   5.319
35261W        W 7554   1.861   9.701  14.508
35262W        W 7555   5.704   1.832   4.135
35263W        W 7556  13.216   8.401  11.502
35264W        W 7557  28.535  40.487   4.338
35265W        W 7558  29.113  23.087   5.082
35266W        W 7559  28.059  15.234  10.138
35267W        W 7560   5.929   1.751  11.906
35268W        W 7561  36.900  21.086   2.843
35269W        W 7562  24.496   9.780   2.793
35270W        W 7563  26.488  42.295   0.963
35271W        W 7564   2.834  37.037   0.256
35272W        W 7565  38.964  18.679   2.411
35273W        W 7566  20.140   9.798  14.348
35274W        W 7567  40.927  15.698   9.935
35275W        W 7568   4.803  19.551   1.756
35276W        W 7569   9.702  33.073  11.091
35277W        W 7570  36.078   8.183  10.537
35278W        W 7571  19.766  33.075  12.051
35279W        W 7572   5.923  17.730   4.147
35280W        W 7573  34.096   7.863   2.674
35281W        W 7574  29.939  16.774  14.829
35282W        W 7575  10.227  12.624   4.166
35283W        W 7576  30.644  19.277  12.016
35284W        W 7577  27.109  10.163  14.015
35285W        W 7578  24.212   6.214   9.920
35286W        W 7579  34.485  22.542   4.674
35287W        W 7580   0.911  13.823  14.800
35288W        W 7581  19.190  15.755  14.510
35289W        W 7582  22.240  41.872   0.930
35290W        W 7583  33.965   2.859   4.677
35291W        W 7584  24.679   8.668  14.955
35292W        W 7585  18.105   6.271   4.273
35293W        W 7586  30.979  42.359  12.437
35294W        W 7587  38.443   2.847  13.792
35295W        W 7588  10.743  30.430   2.847
35296W        W 7589  35.873  43.992   1.223
35297W        W 7590  12.300  12.812   4.201
35298W        W 7591  37.884  14.613  14.423
35299W        W 7592  34.060  34.109   2.245
35300W        W 7593  14.823  23.560  14.514
35301W        W 7594  23.180  21.094  12.546
35302W        W 7595  18.690   8.728  14.337
35303W        W 7596  34.077  21.672   3.225
35304W        W 7597  41.440   1.852   0.250
35305W        W 7598  43.982  23.212  13.860
35306W        W 7599  29.642  40.349  11.975
35307W        W 7600   0.280  44.791   4.167
35308W        W 7601  30.094  42.314   4.793
35309W        W 7602  13.143  10.730   4.837
35310W        W 7603  20.551  35.470   1.293
35311W        W 7604  19.278  37.342  14.376
35312W        W 7605   0.942   1.412  13.519
35313W        W 7606  18.144  20.686   1.888
35314W        W 7607  40.482  19.197   4.183
35315W        W 7608  21.758  10.277  14.958
35316W        W 7609   0.347  36.554   1.380
35317W        W 7610  30.614  14.220  14.781
35318W        W 7611   2.332  12.716  14.776
35319W        W 7612  40.484  14.271   3.305
35320W        W 7613  32.410  31.098   1.918
35321W        W 7614  25.079  28.020  11.911
35322W        W 7615  24.149  34.968  13.339
35323W        W 7616  36.070  22.594  14.330
35324W        W 7617   7.204   3.862  12.512
35325W        W 7618  40.417   7.202   0.783
35326W        W 7619   6.385  43.494   1.734
35327W        W 7620  39.329   6.692   3.246
35328W        W 7621  23.091  24.086   0.738
35329W        W 7622   9.264  34.030  12.963
35330W        W 7623  36.871  36.363   2.695
35331W        W 7624  37.023  42.024   4.220
35332W        W 7625  10.161  33.008   1.448
35333W        W 7626  26.155  10.158  12.035
35334W        W 7627  14.149  27.053   3.795
35335W        W 7628  14.725  22.242   3.720
35336W        W 7629  35.938  32.087   1.284
35337W        W 7630  32.087  19.552  11.042
35338W        W 7631  16.739  43.994   2.832
35339W        W 7632  36.387  16.585   1.347
35340W        W 7633  20.721  12.305   4.243
35341W        W 7634  28.506   6.875   0.343
35342W        W 7635   7.187  12.244   2.234
35343W        W 7636   3.411  18.229   1.360
35344W        W 7637   9.269  41.037  11.451
35345W        W 7638  18.591   7.342  12.861
35346W        W 7639  20.549  32.886  12.545
35347W        W 7640   3.822   6.774  10.615
35348W        W 7641  38.381  13.840   4.808
35349W        W 7642  25.200  24.116  13.497
35350W        W 7643  24.058  35.564   3.737
35351W        W 7644  11.740  30.092   0.466
35352W        W 7645  30.543  12.287   1.791
35353W        W 7646  41.040   4.854  11.465
35354W        W 7647   3.215  37.938   1.890
35355W        W 7648  14.204  31.021   2.366
35356W        W 7649   3.231   4.901  14.021
35357W        W 7650  14.179  15.806  11.029
35358W        W 7651  19.262   8.831   0.437
35359W        W 7652  11.707   4.903   1.338
35360W        W 7653  14.662  11.143   1.849
35361W        W 7654  18.607   7.222  12.350
35362W        W 7655  27.683   6.254  11.554
35363W        W 7656  39.476  18.227   1.264
35364W        W 7657  35.862   1.460   2.231
35365W        W 7658   5.844  18.751   0.268
35366W        W 7659  21.239  44.279   1.913
35367W        W 7660  16.757   4.230  12.441
35368W        W 7661  10.775  26.662  14.857
35369W        W 7662  44.768  32.134  11.445
35370W        W 7663   9.798  44.875   2.367
35371W        W 7664  26.634  13.646   2.714
35372W        W 7665  36.036  29.087  14.962
35373W        W 7666  37.404   7.667   1.848
35374W        W 7667  10.210  42.795  11.472
35375W        W 7668  38.329  34.516  13.346
35376W        W 7669  32.630   4.698   1.268
35377W        W 7670  10.857  14.795   4.743
35378W        W 7671  13.256  43.404   1.246
35379W        W 7672  37.833   1.340   0.737
35380W        W 7673  38.976  43.938   4.130
35381W        W 7674  24.597  43.806   0.787
35382W        W 7675   6.695  18.636   3.862
35383W        W 7676  20.527  27.117  11.883
35384W        W 7677  23.666  17.308  12.918
35385W        W 7678  11.726  43.959   1.436
35386W        W 7679  33.478  12.788   2.372
35387W        W 7680  44.976  19.246   2.179
35388W        W 7681  41.028  33.469  13.988
35389W        W 7682   2.898  44.964   4.307
35390W        W 7683  26.465  30.107  13.930
35391W        W 7684  22.163   3.368   2.664
35392W        W 7685  24.093  28.038   1.250
35393W        W 7686  10.826  16.580  10.521
35394W        W 7687  44.376  14.685  11.606
35395W        W 7688  14.325   8.715  10.556
35396W        W 7689   7.667  15.737  12.835
35397W        W 7690  37.886  10.341   3.728
35398W        W 7691  29.529  31.060   1.288
35399W        W 7692  12.779  24.612   0.369
35400W        W 7693  35.101  24.996  14.965
35401W        W 7694  22.642  19.684   0.266
35402W        W 7695  38.969  34.961  13.473
35403W        W 7696  22.038  19.231  12.378
35404W        W 7697  20.584  31.040  12.019
35405W        W 7698  13.662  30.494  14.313
35406W        W 7699   7.316  13.831   1.890
35407W        W 7700  20.628  25.064   3.153
35408W        W 7701  19.057  21.539   0.429
35409W        W 7702   2.377  10.714  12.955
35410W        W 7703  43.276   9.764   0.945
35411W        W 7704  12.826   6.356  12.007
35412W        W 7705  20.731  26.042  13.961
35413W        W 7706  34.076   9.711  11.042
35414W        W 7707  33.547  42.359  12.375
35415W        W 7708  22.545  31.535   3.305
35416W        W 7709  43.771  30.604  12.847
35417W        W 7710  39.876   9.195  14.004
35418W        W 7711  19.183  40.480  11.076
35419W        W 7712  31.092  24.481  12.983
35420W        W 7713  42.371   2.278  13.818
35421W        W 7714  11.341  10.761  14.788
35422W        W 7715  30.482  11.288  10.138
35423W        W 7716  34.023  40.847  14.895
35424W        W 7717  20.131  44.757  11.453
35425W        W 7718  32.606  26.471   2.281
35426W        W 7719   6.327  38.915  10.493
35427W        W 7720   0.889  20.752   1.415
35428W        W 7721   6.379  12.619   4.737
35429W        W 7722  12.276   6.208   1.262
35430W        W 7723  40.899  14.667   4.351
35431W        W 7724   3.258  27.474  12.894
35432W        W 7725  13.290  15.744   0.280
35433W        W 7726  25.012   8.830  14.812
35434W        W 7727  28.533   8.885  14.467
35435W        W 7728  15.167  21.659  14.992
35436W        W 7729  30.633  44.372   2.185
35437W        W 7730   8.254   8.175   4.755
35438W        W 7731  35.522  26.474   3.646
35439W        W 7732  15.198   6.784   1.802
35440W        W 7733  36.988  18.247  10.509
35441W        W 7734  12.282   3.822   4.326
35442W        W 7735  36.469  10.248   5.092
35443W        W 7736  39.000  38.518   0.735
35444W        W 7737  25.474   2.305   4.615
35445W        W 7738  29.125   4.212  13.949
35446W        W 7739  13.740  25.020  12.914
35447W        W 7740  15.794   5.832   2.683
35448W        W 7741   0.831  10.181   0.358
35449W        W 7742  27.622  16.759  10.970
35450W        W 7743  10.875   0.351  11.551
35451W        W 7744  41.018  11.154   4.678
35452W        W 7745  44.998  17.647   2.406
35453W        W 7746  40.501  16.183   3.180
35454W        W 7747  12.637  32.913  13.878
35455W        W 7748  24.724  13.837  12.039
35456W        W 7749   9.282  37.980  10.560
35457W        W 7750  32.979  31.109  14.281
35458W        W 7751   5.232   1.945   1.284
35459W        W 7752  38.825  29.955   2.405
35460W        W 7753  35.478  24.612  14.437
35461W        W 7754  21.732  15.183  13.542
35462W        W 7755  32.041   0.783   4.727
35463W        W 7756  35.942  15.282  11.548
35464W        W 7757  28.443  23.708  12.938
35465W        W 7758   4.335  40.848  10.612
35466W        W 7759   7.802   9.805  13.328
35467W        W 7760   7.306   2.907  10.624
35468W        W 7761  16.736   4.860   4.709
35469W        W 7762  31.119  15.181  13.925
35470W        W 7763   3.342  14.301   3.342
35471W        W 7764  25.470  13.253   1.393
35472W        W 7765  23.725  38.904   2.894
35473W        W 7766  28.461   5.821  12.946
35474W        W 7767  27.019  24.018   4.666
35475W        W 7768  11.709  33.467  11.445
35476W        W 7769   5.404  41.799   2.354
35477W        W 7770  30.033  34.612  10.947
35478W        W 7771   9.837   0.887  14.364
35479W        W 7772  41.313  36.456   2.353
35480W        W 7773  33.124  15.243  13.981
35481W        W 7774  17.589  11.371  10.418
35482W        W 7775  30.098  10.728   0.741
35483W        W 7776   6.319  41.533  13.522
35484W        W 7777   6.731   2.914   3.651
35485W        W 7778  17.136  38.867   3.189
35486W        W 7779  11.757  39.837   4.302
35487W        W 7780  33.407  10.673  14.468
35488W        W 7781  12.353  15.279   0.856
35489W        W 7782   3.297  35.095   3.220
35490W        W 7783  32.910  36.467  12.448
35491W        W 7784   8.766  34.066   9.968
35492W        W 7785  30.544   4.243   3.179
35493W        W 7786  35.003  33.108  13.479
35494W        W 7787  36.072   0.913  13.513
35495W        W 7788  39.315  39.425   2.849
35496W        W 7789   6.817  15.584  13.833
35497W        W 7790  15.143   2.272   1.824
35498W        W 7791   6.920  44.492  11.468
35499W        W 7792  44.434  42.303   0.405
35500W        W 7793  18.774   3.718  12.076
35501W        W 7794  10.371  44.784   4.157
35502W        W 7795  33.583  37.526   4.764
35503W        W 7796   2.383  35.876   1.269
35504W        W 7797  10.713  21.542   0.843
35505W        W 7798  13.321   2.862  11.476
35506W        W 7799   7.372   6.859   2.266
35507W        W 7800  21.660  30.950   2.812
35508W        W 7801  36.911  23.548   3.717
35509W        W 7802  31.557  15.763   3.690
35510W        W 7803   3.300  10.805   1.322
35511W        W 7804  27.575  15.671  14.898
35512W        W 7805  42.282  35.509  11.429
35513W        W 7806  25.543  32.957   3.179
35514W        W 7807  24.556  14.130   0.414
35515W        W 7808   5.764  34.419  10.947
35516W        W 7809  22.227  21.723  14.317
35517W        W 7810  42.018  33.914  10.995
35518W        W 7811  27.169   2.771   1.850
35519W        W 7812  10.874  10.758  14.330
35520W        W 7813  15.778  14.227  12.925
35521W        W 7814  30.600  16.150   2.286
35522W        W 7815   8.372  17.156   2.862
35523W        W 7816  33.928   7.417   4.273
35524W        W 7817  20.661   9.227  14.924
35525W        W 7818  18.639  44.416   5.169
35526W        W 7819  19.068  11.227  14.344
35527W        W 7820  25.619  38.990   3.177
35528W        W 7821  13.304  16.800  10.463
35529W        W 7822  33.978  17.632  14.402
35530W        W 7823  24.176  38.868   2.353
35531W        W 7824  44.281  17.071   2.305
35532W        W 7825   5.402  22.738  12.513
35533W        W 7826  28.042  32.600  12.063
35534W        W 7827   9.274  21.685  12.545
35535W        W 7828   2.886  20.210   2.772
35536W        W 7829  25.477  10.655  11.526
35537W        W 7830  26.457   5.709   0.852
35538W        W 7831  24.709  16.673   0.845
35539W        W 7832  37.576   7.750   0.267
35540W        W 7833  19.651   7.781   0.368
35541W        W 7834  28.653   5.777  11.590
35542W        W 7835  42.843  17.258   5.685
35543W        W 7836  18.706  42.909   1.814
35544W        W 7837  11.249  14.758  13.058
35545W        W 7838   8.167  22.221   4.622
35546W        W 7839  14.717   8.764   1.756
35547W        W 7840   1.456  34.490   1.215
35548W        W 7841  37.844  43.946   0.767
35549W        W 7842  30.046  28.977  13.800
35550W        W 7843  24.526  38.549   1.443
35551W        W 7844  30.640  41.365  11.420
35552W        W 7845   7.749  32.900   5.104
35553W        W 7846  25.670  28.138   4.182
35554W        W 7847  13.811  18.173   3.294
35555W        W 7848  22.614  32.013   1.356
35556W        W 7849  12.356  32.530  12.843
35557W        W 7850  25.505  30.450  10.976
35558W        W 7851   9.807  12.663   4.694
35559W        W 7852  36.478  43.949   4.710
35560W        W 7853  28.676  42.799   2.714
35561W        W 7854  30.942   2.336   4.337
35562W        W 7855  35.426   0.429  14.988
35563W        W 7856   3.453   7.302  12.529
35564W        W 7857  22.668  20.709  12.833
35565W        W 7858  18.121   7.854   3.247
35566W        W 7859   6.791  32.056  14.365
35567W        W 7860  19.711  27.029   3.739
35568W        W 7861  37.376  37.397   1.255
35569W        W 7862   8.254   0.312   2.731
35570W        W 7863  40.805  29.978   1.430
35571W        W 7864  23.102  27.990  14.920
35572W        W 7865  38.930  29.592  11.983
35573W        W 7866  25.517   5.244   3.713
35574W        W 7867  31.641   8.775   4.760
35575W        W 7868  10.143  24.004   3.670
35576W        W 7869  26.482  14.827   1.287
35577W        W 7870  29.608  35.462  11.968
35578W        W 7871  25.664  44.944   3.365
35579W        W 7872  28.051  28.461  11.909
35580W        W 7873  20.536  37.470  14.959
35581W        W 7874   1.923   2.870   1.247
35582W        W 7875  41.935  33.935   3.279
35583W        W 7876  18.198  40.446   4.268
35584W        W 7877  40.427  37.904   2.409
35585W        W 7878  42.333   8.877   2.282
35586W        W 7879  13.293  13.141   0.300
35587W        W 7880  22.025  28.095  10.934
35588W        W 7881  13.751   3.730  13.423
35589W        W 7882   4.376   2.321  14.325
35590W        W 7883  26.583  34.464  11.559
35591W        W 7884  30.497  40.813  10.606
35592W        W 7885  22.057   1.316   1.241
35593W        W 7886  29.054  28.658   1.277
35594W        W 7887  40.404   7.784   2.317
35595W        W 7888  24.698  29.668  14.281
35596W        W 7889  27.066  40.902   4.115
35597W        W 7890  25.525  24.647  13.020
35598W        W 7891  20.222  25.651   3.830
35599W        W 7892  24.607   2.326  11.914
35600W        W 7893  35.996  10.846   3.155
35601W        W 7894  39.927  15.148  11.017
35602W        W 7895  23.219   6.680   0.342
35603W        W 7896  10.147  11.624  12.865
35604W        W 7897  30.030  43.998   1.350
35605W        W 7898  38.952  39.868   0.865
35606W        W 7899  21.142  32.110  10.090
35607W        W 7900   7.360  22.738  14.006
35608W        W 7901  30.028   6.773   2.794
35609W        W 7902  18.289  43.337  11.518
35610W        W 7903  37.378   3.916   1.842
35611W        W 7904  28.611  16.801  14.817
35612W        W 7905  36.905  34.524  13.012
35613W        W 7906  36.535  43.894   2.342
35614W        W 7907  34.895  32.029  12.493
35615W        W 7908  44.910  26.099   1.450
35616W        W 7909  28.977  34.883   4.664
35617W        W 7910   3.916   6.678  14.427
35618W        W 7911  15.106  34.534   0.767
35619W        W 7912  36.050  24.646   1.325
35620W        W 7913  44.849  28.084   3.301
35621W        W 7914  29.602  42.441   2.687
35622W        W 7915  21.598  29.922   0.283
35623W        W 7916  15.228   4.699   0.307
35624W        W 7917   5.274   4.767   0.355
35625W        W 7918   2.763  12.729  14.921
35626W        W 7919   5.854  41.870  13.934
35627W        W 7920  11.660   6.870  11.607
35628W        W 7921   4.280  11.144  13.856
35629W        W 7922   5.424  32.620   2.873
35630W        W 7923   6.393  28.111   4.151
35631W        W 7924  44.310  30.003  11.536
35632W        W 7925  18.086  23.066   1.829
35633W        W 7926  40.808  39.425   2.849
35634W        W 7927  14.150  39.495   2.721
35635W        W 7928  11.169  12.688   4.649
35636W        W 7929  34.905   3.284   3.840
35637W        W 7930  28.128  11.134   1.348
35638W        W 7931  23.661  35.479   2.317
35639W        W 7932  10.667  24.644  10.990
35640W        W 7933  39.521  32.540  11.127
35641W        W 7934  34.441  18.120  14.922
35642W        W 7935   9.153  10.341   2.208
35643W        W 7936  27.962   2.252   0.454
35644W        W 7937  17.238   2.742   0.415
35645W        W 7938  10.169  12.344  11.447
35646W        W 7939  43.277  19.267   5.726
35647W        W 7940  34.001   8.797  13.949
35648W        W 7941  13.199  17.660   4.150
35649W        W 7942  26.125  30.633  11.094
35650W        W 7943  11.350   4.333   3.727
35651W        W 7944   9.215   7.896  14.025
35652W        W 7945  23.172  30.570   3.190
35653W        W 7946  44.271  36.490  13.366
35654W        W 7947  38.869  22.639  13.499
35655W        W 7948  36.927   6.380  13.793
35656W        W 7949  10.149  20.258   4.742
35657W        W 7950  18.637  11.140  11.917
35658W        W 7951   0.839  15.285   3.672
35659W        W 7952  35.911  30.495   2.776
35660W        W 7953  40.042  39.464  12.550
35661W        W 7954  26.106  36.348  14.762
35662W        W 7955  16.118  15.716   3.233
35663W        W 7956   7.906  12.307  10.495
35664W        W 7957  44.009   2.330  14.940
35665W        W 7958  29.152   1.799  12.561
35666W        W 7959  37.383  26.488   3.266
35667W        W 7960  35.371  26.138   0.297
35668W        W 7961  38.938  24.089   2.672
35669W        W 7962  27.643   1.378   0.868
35670W        W 7963  17.696  16.722   1.729
35671W        W 7964  27.064  30.044  12.566
35672W        W 7965  11.154  34.959   2.317
35673W        W 7966  29.054  16.742  10.485
35674W        W 7967  11.160  19.588  12.011
35675W        W 7968   8.811   3.756   0.846
35676W        W 7969  39.909   5.789  14.965
35677W        W 7970  17.706   8.883   0.468
35678W        W 7971   6.789  14.757   2.350
35679W        W 7972  32.555  31.602  12.488
35680W        W 7973  12.820  28.139  12.424
35681W        W 7974  43.275  44.399   1.312
35682W        W 7975   9.271  44.392   0.436
35683W        W 7976  14.267  24.542   0.245
35684W        W 7977  38.841  19.097  14.777
35685W        W 7978  13.344  10.751   3.246
35686W        W 7979  33.542  28.500  13.810
35687W        W 7980   7.300  44.772  11.463
35688W        W 7981  10.711  18.684  13.972
35689W        W 7982  38.548  23.024   4.717
35690W        W 7983  36.965   6.688  11.529
35691W        W 7984  39.426  19.099   3.369
35692W        W 7985   6.820  14.298  12.372
35693W        W 7986  31.489  23.542   0.746
35694W        W 7987  34.943  11.833  11.513
35695W        W 7988   0.897  41.481   0.398
35696W        W 7989   8.864   0.316   3.661
35697W        W 7990   7.303   8.667   0.336
35698W        W 7991  29.481  23.548  13.837
35699W        W 7992  39.327  19.686   1.269
35700W        W 7993  21.228  33.918  12.372
35701W        W 7994  13.630   6.352  13.381
35702W        W 7995  24.982  12.776  12.023
35703W        W 7996  34.015   2.266  13.005
35704W        W 7997   6.222  22.562  11.060
35705W        W 7998  23.095  14.325   1.341
35706W        W 7999  36.041  40.375  11.431
35707W        W 8000  30.484  33.626   2.702
35708W        W 8001  32.619  43.001   1.754
35709W        W 8002   2.268   7.211  14.951
35710W        W 8003  29.469  24.172  14.906
35711W        W 8004  15.795  34.869  13.860
35712W        W 8005  19.270  43.490  13.891
35713W        W 8006  44.950  43.942   1.431
35714W        W 8007  26.534  33.078  11.541
35715W        W 8008  29.102  11.723   0.439
35716W        W 8009  37.577   5.212  14.418
35717W        W 8010  12.653  25.698   0.751
35718W        W 8011  17.687  32.413   9.983
35719W        W 8012  42.822  13.603  12.897
35720W        W 8013  35.943  12.142   2.768
35721W        W 8014   4.929  32.100   3.367
35722W        W 8015   5.770  18.717  12.896
35723W        W 8016  38.529   7.691  11.464
35724W        W 8017  18.548  23.119   1.761
35725W        W 8018  16.127  15.690   0.397
35726W        W 8019  36.995  22.738   3.247
35727W        W 8020  16.312  14.294   3.341
35728W        W 8021  23.528   5.696  10.073
35729W        W 8022   1.946  38.068  11.961
35730W        W 8023  16.122   0.768   0.462
35731W        W 8024  34.916   6.398   2.400
35732W        W 8025  43.445  11.627   9.997
35733W        W 8026  25.578  21.593  12.078
35734W        W 8027   7.748  26.688   2.297
35735W        W 8028  10.316  12.276  14.976
35736W        W 8029  15.227  39.881  13.399
35737W        W 8030  15.265  14.747   3.660
35738W        W 8031  14.677   7.731  11.991
35739W        W 8032  19.696  27.191  14.359
35740W        W 8033   0.775   4.391   0.371
35741W        W 8034  35.938  35.890   2.351
35742W        W 8035  18.583  39.379   2.851
35743W        W 8036  30.983  28.569  11.939
35744W        W 8037  37.428  28.123  12.431
35745W        W 8038  38.425  12.291   1.886
35746W        W 8039   2.756   9.672   3.807
35747W        W 8040  42.316  34.443  10.446
35748W        W 8041  15.085  29.530  14.024
35749W        W 8042   7.735  17.280   2.223
35750W        W 8043  34.975  11.831   0.320
35751W        W 8044   0.828  22.605   1.757
35752W        W 8045  29.587   4.777  14.820
35753W        W 8046  33.953  16.590  12.010
35754W        W 8047  38.370  39.465   3.697
35755W        W 8048  28.154  23.226  12.846
35756W        W 8049  23.221  34.603   0.903
35757W        W 8050   0.938  36.581   3.376
35758W        W 8051  33.894  29.667  12.411
35759W        W 8052  43.507  41.359   3.188
35760W        W 8053  34.496  21.620   1.841
35761W        W 8054  32.949   6.237  14.354
35762W        W 8055  22.565  37.557   2.367
35763W        W 8056  13.264   4.787   1.892
35764W        W 8057  14.768   6.189  13.861
35765W        W 8058  31.908   5.842  13.836
35766W        W 8059  41.372   4.434   1.868
35767W        W 8060  21.530  34.511  10.979
35768W        W 8061  35.477  12.306  10.546
35769W        W 8062  41.333  32.056   4.688
35770W        W 8063   7.903  12.331  11.049
35771W        W 8064   0.946  14.226  10.891
35772W        W 8065  30.944   8.169  14.030
35773W        W 8066  19.615  31.030  14.454
35774W        W 8067   7.292  32.611   2.892
35775W        W 8068  24.194  32.578  11.879
35776W        W 8069  32.084  42.027   1.790
35777W        W 8070   1.865  14.737  12.885
35778W        W 8071  20.149  36.920  12.382
35779W        W 8072  14.680   1.247  11.101
35780W        W 8073  44.870  39.964  11.593
35781W        W 8074  31.037  39.317   4.785
35782W        W 8075  14.829  19.634  14.963
35783W        W 8076   0.368  20.111  13.491
35784W        W 8077  26.480  42.020  13.938
35785W        W 8078  32.117  18.160   2.371
35786W        W 8079  38.415  21.250  13.485
35787W        W 8080  27.560   7.320   3.283
35788W        W 8081  14.198  22.122   1.438
35789W        W 8082  22.709  40.821   2.414
35790W        W 8083  17.277  43.401  14.032
35791W        W 8084  12.811  20.029   4.729
35792W        W 8085  13.750  30.967   0.880
35793W        W 8086   5.785   8.812   2.693
35794W        W 8087  27.516   0.340  10.909
35795W        W 8088   3.357  32.022   0.460
35796W        W 8089  40.959   9.299  12.831
35797W        W 8090  20.077  16.109   3.781
35798W        W 8091  30.029  12.768  14.820
35799W        W 8092  17.126  26.509  14.302
35800W        W 8093  30.953   6.302  14.369
35801W        W 8094  11.855  12.635  11.079
35802W        W 8095  40.980  28.173   3.377
35803W        W 8096   1.831  16.582   4.275
35804W        W 8097  28.488  44.945   1.830
35805W        W 8098  23.564   8.823  11.500
35806W        W 8099   6.751  35.434   2.835
35807W        W 8100  35.388  23.205   0.409
35808W        W 8101  10.727  31.411  10.571
35809W        W 8102  34.953  12.826   2.805
35810W        W 8103  29.163  29.085  11.534
35811W        W 8104  20.639  16.708  13.858
35812W        W 8105   0.950  12.682   2.847
35813W        W 8106  35.408   0.250  13.389
35814W        W 8107  42.456  43.476   2.721
35815W        W 8108  37.425   5.808   3.343
35816W        W 8109  17.133  22.651  11.485
35817W        W 8110   3.215  24.659  14.860
35818W        W 8111  36.376   6.729   4.799
35819W        W 8112  44.312   7.178  10.911
35820W        W 8113   1.919  30.552  12.570
35821W        W 8114  31.096  43.814   2.258
35822W        W 8115  11.164  27.602  10.510
35823W        W 8116  32.906  31.127   3.177
35824W        W 8117  24.594  41.907  12.995
35825W        W 8118  40.996   5.203  12.380
35826W        W 8119  40.923   6.374   0.475
35827W        W 8120  39.890   8.681  12.463
35828W        W 8121  32.446  32.499   4.791
35829W        W 8122  26.119  13.717  10.559
35830W        W 8123   0.930  17.247   0.779
35831W        W 8124  14.769  20.063   2.697
35832W        W 8125  38.982   1.892   0.760
35833W        W 8126   0.844  41.862  14.976
35834W        W 8127  37.922  13.109   2.393
35835W        W 8128  33.565  34.969   3.699
35836W        W 8129  40.855  21.753  11.919
35837W        W 8130  17.784  17.680  12.549
35838W        W 8131  19.735  17.227  14.283
35839W        W 8132  15.253  33.489   1.807
35840W        W 8133  42.970  36.877   2.834
35841W        W 8134  37.014  24.588  14.903
35842W        W 8135   7.205  40.342   4.279
35843W        W 8136  33.567  22.095   0.340
35844W        W 8137  12.121   9.841  13.367
35845W        W 8138  35.569  20.749   4.219
35846W        W 8139   7.327  44.267   3.249
35847W        W 8140  41.353  15.773   3.725
35848W        W 8141  23.178  26.166  14.832
35849W        W 8142  21.092  28.014  11.957
35850W        W 8143  36.404  21.135  10.553
35851W        W 8144  35.497  17.694   2.419
35852W        W 8145  12.333  43.495  11.958
35853W        W 8146  21.540  19.256  11.402
35854W        W 8147  18.724  22.518  11.556
35855W        W 8148  31.570   2.361   4.788
35856W        W 8149  19.190  41.410  11.886
35857W        W 8150  33.930  18.613  11.965
35858W        W 8151  22.681   0.410   0.246
35859W        W 8152  23.215  36.001   4.670
35860W        W 8153  20.200   3.937  11.957
35861W        W 8154  30.605   3.895  14.411
35862W        W 8155  23.057  31.554  11.007
35863W        W 8156  21.210  36.535   1.833
35864W        W 8157  14.190  28.957   2.751
35865W        W 8158  44.472  27.662  14.949
35866W        W 8159   3.940  40.386  13.439
35867W        W 8160  34.537   4.893   3.858
35868W        W 8161  11.708  25.599  12.530
35869W        W 8162   9.884  39.537  12.564
35870W        W 8163  37.356   7.896  13.441
35871W        W 8164  29.447  16.715  10.944
35872W        W 8165  20.584   7.179  14.380
35873W        W 8166  26.555   1.856   2.252
35874W        W 8167   0.780  36.498   3.795
35875W        W 8168  31.106  20.209   1.892
35876W        W 8169   9.794  21.239  11.106
35877W        W 8170  17.193   5.263  12.530
35878W        W 8171  31.463   1.951   3.366
35879W        W 8172  20.181   0.936   9.962
35880W        W 8173  35.878  34.967  12.029
35881W        W 8174  37.479  25.193  12.351
35882W        W 8175  33.500  20.528   4.823
35883W        W 8176  24.036  34.536  13.951
35884W        W 8177  30.135  28.484  13.371
35885W        W 8178  17.697   3.230   4.307
35886W        W 8179  27.571  28.567  12.408
35887W        W 8180  41.344  32.415   4.302
35888W        W 8181  41.372  14.221   0.908
35889W        W 8182   9.324  22.707  11.990
35890W        W 8183   1.315   0.276   3.368
35891W        W 8184  20.667  33.029   4.689
35892W        W 8185  33.567  20.202   2.308
35893W        W 8186  25.115  40.928  12.071
35894W        W 8187  40.929  10.728  12.886
35895W        W 8188  25.148   1.773  10.460
35896W        W 8189  24.121  39.341  10.479
35897W        W 8190  32.437  39.340  12.520
35898W        W 8191   9.196  34.075  12.563
35899W        W 8192  11.150  38.823   4.821
35900W        W 8193  22.696   2.857   3.169
35901W        W 8194   5.307  16.629   0.938
35902W        W 8195  31.449  41.344  10.422
35903W        W 8196  32.501  41.342   1.855
35904W        W 8197  39.872  10.383   0.377
35905W        W 8198  39.832  18.661   1.716
35906W        W 8199   2.821  16.167   0.465
35907W        W 8200   9.301  31.943  13.936
35908W        W 8201   8.356  11.236  10.509
35909W        W 8202  22.606  41.513   2.664
35910W        W 8203   8.181  32.896  12.931
35911W        W 8204  12.343  40.493   2.414
35912W        W 8205  16.697  26.509   4.290
35913W        W 8206  23.490  40.533   4.659
35914W        W 8207   3.765  14.109   2.828
35915W        W 8208  41.947  23.175   1.235
35916W        W 8209  36.066  41.926   3.742
35917W        W 8210  40.904  30.420   3.173
35918W        W 8211  12.337  33.400  11.965
35919W        W 8212  36.436  36.385   4.293
35920W        W 8213  24.087  32.594  14.290
35921W        W 8214  29.130  17.192   4.747
35922W        W 8215  35.890  34.402   0.454
35923W        W 8216  28.929  15.128  14.792
35924W        W 8217   9.391  20.722   4.329
35925W        W 8218  23.498  14.821  11.467
35926W        W 8219  17.799  32.560   3.230
35927W        W 8220  15.793  39.394  10.513
35928W        W 8221  22.139  13.695  13.003
35929W        W 8222  25.557  28.176  12.569
35930W        W 8223   9.872   5.787  13.825
35931W        W 8224   5.324  32.091  10.643
35932W        W 8225  21.597  22.131   3.693
35933W        W 8226  24.003  14.235  14.946
35934W        W 8227  41.977   4.370  11.017
35935W        W 8228  37.531  34.503  14.856
35936W        W 8229  40.921  20.254  12.943
35937W        W 8230  26.172  17.113  14.975
35938W        W 8231  26.086  43.357   4.665
35939W        W 8232  40.041  17.088  14.432
35940W        W 8233  36.849  29.555  14.787
35941W        W 8234  26.007  38.443  14.032
35942W        W 8235   9.710  34.499   5.129
35943W        W 8236   8.679   2.420   4.602
35944W        W 8237  44.315   3.252   2.901
35945W        W 8238  24.646  27.045  12.484
35946W        W 8239  20.135   5.730  11.044
35947W        W 8240   6.305   5.915   0.891
35948W        W 8241  10.215   0.474   4.352
35949W        W 8242  16.667  11.639   0.280
35950W        W 8243  28.579  18.719   0.874
35951W        W 8244  27.502   8.886   4.765
35952W        W 8245  11.829  13.821  11.042
35953W        W 8246  16.085  42.878  10.027
35954W        W 8247  36.563  34.434   0.345
35955W        W 8248  15.084  44.843  14.446
35956W        W 8249   7.674  12.848  14.390
35957W        W 8250  44.471  38.337   1.750
35958W        W 8251  13.746  20.251   2.417
35959W        W 8252   8.342  14.306  12.568
35960W        W 8253  41.524  33.885  11.988
35961W        W 8254  43.802  44.276   4.134
35962W        W 8255  41.530  31.538  13.041
35963W        W 8256  44.803   6.851  14.825
35964W        W 8257  13.296  29.026  13.890
35965W        W 8258  29.062   5.381   1.837
35966W        W 8259  30.639  29.919   3.823
35967W        W 8260  43.282   9.275  14.966
35968W        W 8261  11.747  18.179  11.999
35969W        W 8262   4.352   8.335   1.845
35970W        W 8263  15.185  20.541   3.286
35971W        W 8264  10.817  35.472  14.417
35972W        W 8265  14.650  10.695   1.376
35973W        W 8266  31.997  26.976  12.847
35974W        W 8267  26.684  40.532  12.090
35975W        W 8268  29.036  13.740  11.118
35976W        W 8269   0.452  10.635   0.848
35977W        W 8270   6.382  29.482  11.972
35978W        W 8271   7.739  27.068   2.838
35979W        W 8272  41.323  29.049  11.573
35980W        W 8273  34.442   9.795   1.436
35981W        W 8274  34.374  42.329   0.361
35982W        W 8275  43.355  17.214   3.788
35983W        W 8276   9.852  26.563  12.032
35984W        W 8277   0.906  27.117  13.493
35985W        W 8278  42.010  26.680   2.289
35986W        W 8279  16.313  21.059   3.333
35987W        W 8280   8.234  23.586   0.376
35988W        W 8281   1.769   2.740  10.493
35989W        W 8282  17.741  35.026   3.718
35990W        W 8283  19.551   5.279  14.774
35991W        W 8284  10.776  41.004  11.533
35992W        W 8285   4.920   6.830   0.442
35993W        W 8286  11.199   1.802  10.613
35994W        W 8287  25.098   0.977  13.962
35995W        W 8288  25.474  42.517   4.718
35996W        W 8289  30.144   0.254   0.883
35997W        W 8290  43.980  22.065  10.448
35998W        W 8291  18.118  19.250  14.979
35999W        W 8292  21.610   7.766  13.922
36000W        W 8293   7.863  26.140   0.842
36001W        W 8294   5.747   5.224  10.895
36002W        W 8295   0.257  27.564  11.377
36003W        W 8296  40.433  33.104  12.997
36004W        W 8297  29.027  44.913  11.544
36005W        W 8298  38.018  14.689   2.664
36006W        W 8299  20.084  36.412  10.470
36007W        W 8300  40.496   1.406  11.892
36008W        W 8301  19.055  28.999  11.548
36009W        W 8302  16.138  39.496   3.630
36010W        W 8303   0.377  32.023   0.779
36011W        W 8304  20.564  12.730  13.803
36012W        W 8305   1.910  43.003   3.857
36013W        W 8306  10.729  44.926   1.803
36014W        W 8307  37.084  43.378   4.744
36015W        W 8308   9.165  24.682  11.962
36016W        W 8309  31.487  14.125  10.575
36017W        W 8310  38.850  13.268   2.310
36018W        W 8311   2.231  29.109   3.240
36019W        W 8312  41.304   2.823  14.285
36020W        W 8313  34.400  32.597   2.328
36021W        W 8314   8.687  26.500   1.747
36022W        W 8315  43.271   2.764   3.659
36023W        W 8316  40.461   8.277  14.891
36024W        W 8317  33.572  34.058   3.638
36025W        W 8318  13.747  39.970   2.302
36026W        W 8319  26.169   3.256   4.773
36027W        W 8320   8.170  40.804   0.932
36028W        W 8321  18.145  10.180   0.288
36029W        W 8322  15.618  33.086  10.948
36030W        W 8323  36.034  16.111   3.645
36031W        W 8324  25.576   6.703  11.607
36032W        W 8325  18.706  11.681   3.292
36033W        W 8326  44.830  37.873   1.232
36034W        W 8327  13.616   4.929   2.743
36035W        W 8328  35.554  44.308   4.820
36036W        W 8329  23.114  35.854  11.104
36037W        W 8330  43.293  16.730   5.753
36038W        W 8331  37.867   7.225  12.025
36039W        W 8332  18.662  39.858   1.875
36040W        W 8333  21.598  36.896  13.042
36041W        W 8334   6.715  25.969   2.293
36042W        W 8335  37.430  34.067  13.512
36043W        W 8336   6.900  12.836  11.383
36044W        W 8337  17.227  15.792   1.224
36045W        W 8338   3.415  17.101   3.868
36046W        W 8339  13.187  26.122  10.613
36047W        W 8340  32.973  41.899  11.424
36048W        W 8341  12.318   1.333  14.006
36049W        W 8342  38.472   9.707   3.198
36050W        W 8343  29.978  18.765   1.701
36051W        W 8344   1.758  19.661  13.319
36052W        W 8345  14.684  40.978  12.008
36053W        W 8346  19.717   6.796  11.062
36054W        W 8347  39.492  14.320   3.370
36055W        W 8348  34.870  20.561  13.512
36056W        W 8349   8.707   2.865  10.578
36057W        W 8350  19.631   5.307   0.797
36058W        W 8351  24.593  10.806   0.443
36059W        W 8352  28.564  27.950  13.878
36060W        W 8353  34.120   2.385  12.407
36061W        W 8354  38.363   7.889  11.050
36062W        W 8355  29.659  26.692   5.216
36063W        W 8356   5.368  21.638   0.452
36064W        W 8357  16.658  22.696   9.509
36065W        W 8358   7.326  14.831   0.254
36066W        W 8359   0.478  37.889   1.267
36067W        W 8360   6.261  36.531   4.612
36068W        W 8361  36.450  28.559  14.392
36069W        W 8362  38.562  13.284   3.262
36070W        W 8363  39.428  12.252  11.954
36071W        W 8364  42.874  34.378   3.192
36072W        W 8365  12.311  41.869   1.815
36073W        W 8366  29.632   7.903   0.738
36074W        W 8367   5.793  16.147   3.200
36075W        W 8368  39.953  16.306   2.245
36076W        W 8369  37.381  44.798  12.028
36077W        W 8370  25.150  10.855  10.605
36078W        W 8371  42.452  22.573   2.867
36079W        W 8372  12.769  14.598   0.359
36080W        W 8373  17.113  27.120   3.657
36081W        W 8374   0.861  16.603   4.617
36082W        W 8375  36.373   5.349  13.019
36083W        W 8376  31.628   6.736  11.897
36084W        W 8377  43.335  26.198  13.896
36085W        W 8378  18.098   6.277   2.284
36086W        W 8379  38.851   6.835   1.742
36087W        W 8380  27.962  14.789   0.853
36088W        W 8381  17.751  10.354   0.932
36089W        W 8382  30.077  22.534  12.428
36090W        W 8383  42.429  25.528   4.209
36091W        W 8384  39.426  24.640   0.353
36092W        W 8385  29.460  40.022   4.823
36093W        W 8386  33.984  25.620   4.229
36094W        W 8387  33.544  33.396   4.308
36095W        W 8388  23.694  20.667   0.359
36096W        W 8389  19.133  23.665   1.892
36097W        W 8390  28.091  34.091   2.216
36098W        W 8391  20.654  12.360   3.374
36099W        W 8392   5.773  41.881   4.754
36100W        W 8393  37.832  15.590   2.375
36101W        W 8394   0.952  42.897  10.031
36102W        W 8395  39.010  25.111  12.504
36103W        W 8396  15.690  43.491   0.810
36104W        W 8397  13.220   3.787  14.299
36105W        W 8398  26.150  11.624   2.187
36106W        W 8399  17.792  37.084   4.161
36107W        W 8400  26.076  12.360   4.166
36108W        W 8401  36.037  31.998  11.512
36109W        W 8402   7.293  44.943   1.866
36110W        W 8403   6.197  33.609  12.472
36111W        W 8404   1.827  18.143  14.292
36112W        W 8405  35.451  20.640   1.401
36113W        W 8406  43.344  19.558   2.374
36114W        W 8407  10.832  28.181   0.956
36115W        W 8408   2.957  35.026  12.465
36116W        W 8409  34.975  35.064  11.479
36117W        W 8410   1.821  18.583   0.848
36118W        W 8411  30.111   0.886   1.254
36119W        W 8412   2.255  12.717  13.447
36120W        W 8413  19.092  23.707  13.538
36121W        W 8414  39.352  24.582  13.456
36122W        W 8415  33.456  42.401   1.285
36123W        W 8416  33.110  39.865   3.312
36124W        W 8417   5.723  10.237  11.567
36125W        W 8418  11.176  38.368   4.175
36126W        W 8419  33.032  40.822  13.336
36127W        W 8420   6.386  19.131  14.374
36128W        W 8421  24.493  18.658   0.813
36129W        W 8422  42.888  40.948   3.332
36130W        W 8423  37.442   5.221   0.963
36131W        W 8424  30.032  26.510   1.391
36132W        W 8425   5.372   3.817  10.409
36133W        W 8426  26.609  17.676   3.379
36134W        W 8427  22.580  15.658   2.675
36135W        W 8428  16.663   2.369   4.193
36136W        W 8429  35.073  13.684  10.994
36137W        W 8430  32.493  18.735   0.855
36138W        W 8431  12.324  34.526   4.277
36139W        W 8432  27.113   0.852   2.869
36140W        W 8433  41.929  25.685   2.389
36141W        W 8434   1.741   2.382  12.074
36142W        W 8435  32.402  27.562  12.870
36143W        W 8436  28.557   2.306   2.798
36144W        W 8437  23.028  36.529  12.579
36145W        W 8438  44.389   0.982  14.876
36146W        W 8439  32.073  24.138   2.862
36147W        W 8440   3.450  44.388  14.410
36148W        W 8441  32.490   0.326  11.566
36149W        W 8442  34.951  18.277  11.978
36150W        W 8443  39.447  16.181  13.437
36151W        W 8444   9.201  18.253   1.349
36152W        W 8445   3.321  44.988   4.805
36153W        W 8446  19.642  28.483   1.229
36154W        W 8447  12.316  43.330  11.126
36155W        W 8448  31.153  39.400  11.467
36156W        W 8449  19.122  21.708  11.995
36157W        W 8450  39.546   2.467  12.018
36158W        W 8451  40.972   0.408   4.164
36159W        W 8452  12.263  34.967   2.368
36160W        W 8453  10.857   0.963  14.903
36161W        W 8454  18.608  22.548   3.214
36162W        W 8455  38.331  32.020  13.825
36163W        W 8456  43.397  26.148   4.787
36164W        W 8457  19.123   2.281   2.680
36165W        W 8458  34.610   0.399  13.466
36166W        W 8459  34.976  14.301  10.479
36167W        W 8460  40.419  23.127   2.401
36168W        W 8461   4.922  35.459   0.442
36169W        W 8462  19.109   6.716   4.822
36170W        W 8463   1.931  17.739   3.741
36171W        W 8464  23.147  31.538  12.859
36172W        W 8465  31.896   3.828  13.537
36173W        W 8466   2.338  11.802   4.826
36174W        W 8467  39.955  32.035   0.786
36175W        W 8468  26.698  23.009   4.624
36176W        W 8469  42.816   4.716   2.178
36177W        W 8470  33.585  19.705  14.883
36178W        W 8471  28.941  14.281   1.418
36179W        W 8472  18.165  43.306  10.584
36180W        W 8473  34.391   8.285  13.891
36181W        W 8474  40.804  38.828  13.364
36182W        W 8475  26.605  41.417   3.787
36183W        W 8476   8.231  30.459  11.871
36184W        W 8477  39.984   0.916   3.732
36185W        W 8478  40.372   8.285  13.848
36186W        W 8479   9.781  35.486   3.360
36187W        W 8480  15.747  15.089  12.031
36188W        W 8481  25.567  41.922   4.132
36189W        W 8482   0.935  25.048   0.307
36190W        W 8483  33.576   8.289   4.693
36191W        W 8484  40.349  10.756  11.929
36192W        W 8485  13.206  24.190   2.902
36193W        W 8486  26.990  13.733  12.991
36194W        W 8487   1.386  26.625   4.194
36195W        W 8488  42.488  25.041   4.227
36196W        W 8489  31.091   3.220  10.078
36197W        W 8490   8.811  18.599  12.347
36198W        W 8491   7.703  19.070   4.818
36199W        W 8492   9.848  19.069  14.277
36200W        W 8493  25.012  21.055  12.934
36201W        W 8494   2.378  34.041   3.811
36202W        W 8495   2.894   7.756  13.904
36203W        W 8496  31.145  11.325   9.645
36204W        W 8497  11.834  13.735  14.832
36205W        W 8498  16.691  21.513  12.846
36206W        W 8499   3.337  11.161  11.393
36207W        W 8500   8.384  23.189   4.224
36208W        W 8501   4.698  20.075  12.372
36209W        W 8502  15.169   6.351  12.001
36210W        W 8503  18.215  21.667   3.250
36211W        W 8504  20.258   6.914  13.836
36212W        W 8505  14.683  25.524  13.860
36213W        W 8506   3.297  28.026  14.470
36214W        W 8507  31.600  18.666   1.926
36215W        W 8508   8.814  27.641   2.741
36216W        W 8509  10.359  29.973   2.205
36217W        W 8510  24.514  40.508   4.328
36218W        W 8511   2.850  14.764  10.428
36219W        W 8512   2.462  34.079   0.849
36220W        W 8513  23.000  26.047  11.032
36221W        W 8514  33.388  23.515   4.341
36222W        W 8515  33.099  30.459  12.089
36223W        W 8516  33.390  43.406   1.839
36224W        W 8517  32.902  18.065   3.800
36225W        W 8518   3.791   6.922   0.408
36226W        W 8519  29.061  11.191  13.850
36227W        W 8520  23.511  21.585   3.163
36228W        W 8521  25.007  25.567   5.237
36229W        W 8522   6.342   9.189  13.480
36230W        W 8523  34.026  32.107   0.817
36231W        W 8524  29.475  19.651  10.006
36232W        W 8525  24.537  38.530   0.751
36233W        W 8526   5.713   4.733  13.857
36234W        W 8527  10.274   7.874   2.900
36235W        W 8528   2.925  31.015   2.873
36236W        W 8529  16.212   0.869  11.902
36237W        W 8530  24.557  39.550  11.909
36238W        W 8531   6.803  33.597  13.455
36239W        W 8532  42.305   4.242   0.432
36240W        W 8533  13.724  11.713  10.952
36241W        W 8534  37.972  43.765   1.824
36242W        W 8535  42.446  31.074   0.814
36243W        W 8536  10.702  17.254   1.218
36244W        W 8537  26.648  18.152   3.870
36245W        W 8538  21.107  18.092   0.401
36246W        W 8539   2.309  44.331  14.281
36247W        W 8540  32.055  44.455  12.043
36248W        W 8541  44.398  44.371   4.276
36249W        W 8542  31.039  33.611  10.109
36250W        W 8543  31.612  16.808   1.413
36251W        W 8544  43.790  44.259   5.157
36252W        W 8545  12.651  36.488   3.713
36253W        W 8546  15.248  20.247  11.907
36254W        W 8547   4.738   6.903  12.560
36255W        W 8548  31.134  13.823   4.263
36256W        W 8549  37.893   8.685  11.048
36257W        W 8550   7.310  25.040  10.465
36258W        W 8551  19.668  31.499  14.004
36259W        W 8552  40.808  40.524  11.373
36260W        W 8553  38.947  40.815   0.271
36261W        W 8554  42.930  38.338  13.965
36262W        W 8555  44.836  17.715  11.491
36263W        W 8556  35.379  33.891   2.719
36264W        W 8557  17.170   1.312   4.253
36265W        W 8558  15.818  37.422  14.422
36266W        W 8559  44.485  31.904   2.263
36267W        W 8560   1.288  28.992  14.766
36268W        W 8561  40.898   8.901   3.242
36269W        W 8562  18.266  34.105   1.821
36270W        W 8563  10.819  41.940  13.395
36271W        W 8564  12.637   8.286  10.927
36272W        W 8565  26.678  35.916  12.925
36273W        W 8566  37.569   1.421   0.868
36274W        W 8567  21.245  34.057  13.029
36275W        W 8568   9.658  25.489   3.760
36276W        W 8569  23.718  12.161  13.037
36277W        W 8570  27.648  27.548   3.683
36278W        W 8571   6.352  21.111  10.126
36279W        W 8572   5.322  41.983   3.270
36280W        W 8573  20.128  29.084  11.931
36281W        W 8574  38.044  16.129   0.298
36282W        W 8575  37.908  40.352  13.022
36283W        W 8576  40.002  42.340  12.861
36284W        W 8577  40.332  31.412  11.098
36285W        W 8578  44.372  43.274   2.292
36286W        W 8579  31.922  21.619   2.272
36287W        W 8580   0.824  43.835  13.317
36288W        W 8581  43.831  16.253   0.950
36289W        W 8582  23.543   6.383  11.544
36290W        W 8583  25.124  41.899   2.361
36291W        W 8584  37.904  11.128  13.001
36292W        W 8585  37.921  43.307   2.258
36293W        W 8586  23.194  16.268  11.555
36294W        W 8587  21.069   4.332   0.285
36295W        W 8588  35.909   9.722  11.020
36296W        W 8589  32.613  39.919  10.590
36297W        W 8590  33.082  26.481  12.524
36298W        W 8591  43.996   7.702  14.379
36299W        W 8592  39.480  44.792   2.226
36300W        W 8593  27.031  33.608  13.352
36301W        W 8594  24.108  10.634  11.953
36302W        W 8595   1.790  32.069   2.683
36303W        W 8596   9.879  16.138  12.490
36304W        W 8597  10.369  36.451  14.999
36305W        W 8598  30.077  40.462  14.284
36306W        W 8599   1.733  33.588   2.275
36307W        W 8600  17.622  39.489  12.031
36308W        W 8601   0.355  16.724  14.769
36309W        W 8602  38.894  19.721  13.542
36310W        W 8603  32.568  35.561  12.956
36311W        W 8604   4.840   7.839   3.256
36312W        W 8605  20.663  34.512   4.637
36313W        W 8606  13.716   1.973  11.902
36314W        W 8607  27.639   1.812  12.052
36315W        W 8608  23.215  23.519  10.996
36316W        W 8609  20.080   1.240   1.711
36317W        W 8610  15.148  24.695   1.278
36318W        W 8611  16.243  10.345   5.126
36319W        W 8612   1.335   2.461  14.473
36320W        W 8613  33.429  42.481   0.947
36321W        W 8614  31.527  15.767   0.254
36322W        W 8615   8.393  17.078  14.453
36323W        W 8616   4.349  41.306  11.118
36324W        W 8617  28.126  39.555   1.224
36325W        W 8618  21.123  17.632  12.427
36326W        W 8619  29.578  35.525  12.991
36327W        W 8620  15.684   4.428  12.970
36328W        W 8621  21.134  21.688   0.402
36329W        W 8622  15.205  12.730  13.806
36330W        W 8623   9.293  14.659   4.650
36331W        W 8624  19.694  10.189   4.649
36332W        W 8625  42.998  31.600  12.880
36333W        W 8626  40.536  43.326  14.843
36334W        W 8627  14.795  43.866   3.339
36335W        W 8628   3.897   6.227   4.233
36336W        W 8629  36.459   2.445   2.404
36337W        W 8630   8.311  27.085  13.324
36338W        W 8631  17.275  29.444   1.820
36339W        W 8632   8.297  24.554   3.278
36340W        W 8633  31.071  26.691   4.804
36341W        W 8634  27.188   7.884  12.982
36342W        W 8635  38.823  37.358  14.835
36343W        W 8636  17.790  28.160  12.946
36344W        W 8637  22.066  20.240  10.429
36345W        W 8638  21.239  38.048  12.829
36346W        W 8639  42.021  18.656  12.904
36347W        W 8640  17.208  44.968   4.763
36348W        W 8641  40.490  32.085   4.837
36349W        W 8642   2.935  32.455  10.562
36350W        W 8643  32.085  23.606   2.418
36351W        W 8644   8.743  32.484  14.027
36352W        W 8645  23.548  21.550   1.710
36353W        W 8646  34.885   7.414  13.002
36354W        W 8647  28.543  21.229   0.901
36355W        W 8648   4.284  22.037  10.522
36356W        W 8649  43.950  27.955   0.436
36357W        W 8650  28.534  17.702   0.930
36358W        W 8651  11.319  36.898  14.822
36359W        W 8652  41.404   0.248   5.780
36360W        W 8653  33.874   5.419  12.540
36361W        W 8654   6.197  19.584   5.194
36362W        W 8655  37.006  14.291   4.295
36363W        W 8656   3.221  29.951   2.727
36364W        W 8657  29.052  28.136   1.253
36365W        W 8658   1.732   5.810   4.252
36366W        W 8659  31.414  38.358  11.022
36367W        W 8660  15.611  16.158   2.807
36368W        W 8661  25.639  39.060   0.353
36369W        W 8662   8.668  31.602   4.135
36370W        W 8663  42.842  41.493  12.868
36371W        W 8664  27.602  23.535  14.985
36372W        W 8665  40.829   2.806   0.904
36373W        W 8666   9.379  13.338  13.793
36374W        W 8667   5.365  27.141  12.092
36375W        W 8668   2.908  22.545  12.474
36376W        W 8669   0.909  22.029  11.900
36377W        W 8670   3.403  24.995   1.862
36378W        W 8671  18.255   6.275   4.665
36379W        W 8672  10.873  30.624  13.321
36380W        W 8673  33.117  32.043  11.043
36381W        W 8674  11.231   7.721  12.898
36382W        W 8675  41.380  21.709   1.307
36383W        W 8676  17.669  32.912   0.357
36384W        W 8677  18.272  44.779   2.286
36385W        W 8678  41.513  33.081  14.986
36386W        W 8679  10.331  30.639  12.940
36387W        W 8680  39.427  42.405  13.391
36388W        W 8681  10.281  16.132  10.604
36389W        W 8682  37.869  44.338  12.548
36390W        W 8683   6.724  39.523  13.375
36391W        W 8684  34.518  35.873   2.769
36392W        W 8685  18.552  15.783  12.022
36393W        W 8686   0.745  34.866  12.450
36394W        W 8687  33.574  15.164   0.476
36395W        W 8688   7.866   6.265  12.376
36396W        W 8689   6.731  32.421  10.522
36397W        W 8690  30.424  30.575   3.239
36398W        W 8691  40.331   5.393   2.882
36399W        W 8692  18.264  21.658  14.451
36400W        W 8693  28.069  13.745   1.935
36401W        W 8694   9.262  21.679   2.285
36402W        W 8695  25.704   3.384   3.285
36403W        W 8696   2.435  30.572   3.317
36404W        W 8697  18.726  32.980  14.826
36405W        W 8698  19.060  42.937  11.537
36406W        W 8699   8.170   3.889   3.645
36407W        W 8700  16.619   9.686   4.767
36408W        W 8701   1.435   3.935  11.067
36409W        W 8702  25.042  44.449  11.099
36410W        W 8703  30.908  30.135   4.637
36411W        W 8704  35.480  27.028   1.863
36412W        W 8705  15.193  30.117   4.267
36413W        W 8706  20.564   5.862   0.833
36414W        W 8707  12.649  33.932   1.319
36415W        W 8708   1.388   2.423   4.799
36416W        W 8709  29.532  11.231  13.424
36417W        W 8710  13.222  41.002  10.468
36418W        W 8711  29.635   2.764  13.418
36419W        W 8712   7.781  30.067  13.513
36420W        W 8713  24.678  33.096   3.843
36421W        W 8714  19.232  23.666   3.721
36422W        W 8715   3.419  31.041  10.920
36423W        W 8716  22.538  32.430  13.845
36424W        W 8717  29.018  30.070  10.944
36425W        W 8718  28.075  33.117   2.361
36426W        W 8719   9.215  19.070   0.921
36427W        W 8720  42.018   3.920   2.375
36428W        W 8721  20.637  25.014  12.830
36429W        W 8722  38.537  10.694  11.555
36430W        W 8723   2.964  33.380   3.751
36431W        W 8724   3.445  14.816  11.502
36432W        W 8725  15.317  30.102  11.041
36433W        W 8726  30.075   6.236  14.446
36434W        W 8727  32.526  44.323  11.967
36435W        W 8728   4.363   6.256   3.305
36436W        W 8729  34.468  13.839  13.806
36437W        W 8730   1.476   0.842   3.218
36438W        W 8731  43.421  30.965   1.239
36439W        W 8732  26.068  37.980   3.167
36440W        W 8733  38.454  26.151   0.453
36441W        W 8734  37.932   8.842  13.932
36442W        W 8735  43.782   7.791  14.816
36443W        W 8736  14.655  32.905  14.807
36444W        W 8737  12.777  24.174   2.742
36445W        W 8738  13.843   1.338   4.787
36446W        W 8739   1.289   9.341   4.266
36447W        W 8740  35.562  32.574  13.960
36448W        W 8741  12.160  34.385   2.282
36449W        W 8742  31.504   0.916  12.045
36450W        W 8743   7.891  38.445  11.531
36451W        W 8744   7.187   1.775   0.891
36452W        W 8745  20.754  31.998   4.351
36453W        W 8746  42.463  37.894   0.392
36454W        W 8747   0.968  43.786  10.505
36455W        W 8748  10.254  17.262  11.486
36456W        W 8749  29.617  38.439  13.020
36457W        W 8750  28.978  36.857  14.961
36458W        W 8751   7.762  33.046   0.939
36459W        W 8752  26.598  42.391   1.708
36460W        W 8753  22.707  25.032  12.389
36461W        W 8754  27.665  26.001  11.025
36462W        W 8755  16.176   4.364  13.545
36463W        W 8756   6.274  25.048  12.882
36464W        W 8757  19.579  23.560   1.285
36465W        W 8758  37.064  23.696  11.415
36466W        W 8759  21.154  30.010   4.822
36467W        W 8760  27.983  28.961  12.478
36468W        W 8761   8.664  35.952  13.452
36469W        W 8762   8.658  44.374   2.388
36470W        W 8763  41.410  15.111  11.864
36471W        W 8764   5.372  36.559  12.013
36472W        W 8765  25.578  18.205  10.632
36473W        W 8766  27.531  18.596   0.862
36474W        W 8767  14.306   4.819  13.045
36475W        W 8768   4.237  21.648  10.643
36476W        W 8769  30.620  39.047   0.363
36477W        W 8770  25.100  25.155   2.347
36478W        W 8771  35.946   9.827   3.836
36479W        W 8772  34.513  41.958  12.404
36480W        W 8773  27.458  18.140   1.258
36481W        W 8774   8.656   2.824  11.469
36482W        W 8775  12.755  44.007  11.495
36483W        W 8776  29.581  30.467   5.147
36484W        W 8777  22.048  23.691   4.167
36485W        W 8778  11.311  23.604   4.803
36486W        W 8779  40.435  32.515  11.010
36487W        W 8780  44.401  32.391  12.350
36488W        W 8781  38.523  44.342   1.411
36489W        W 8782  24.700  36.070   4.796
36490W        W 8783  44.353  32.077   1.870
36491W        W 8784  13.240  14.284  10.496
36492W        W 8785   6.422  34.612  14.905
36493W        W 8786   6.694  16.236  11.441
36494W        W 8787  13.841  39.384  11.904
36495W        W 8788  10.828  40.365   2.230
36496W        W 8789  25.534  19.681   3.216
36497W        W 8790   3.371  44.814   0.407
36498W        W 8791  43.422  20.584  11.405
36499W        W 8792  23.572  13.652   0.962
36500W        W 8793  18.256  21.197   4.782
36501W        W 8794  31.900  30.618  11.891
36502W        W 8795  25.076  10.239   4.623
36503W        W 8796  34.508   9.678  12.063
36504W        W 8797  30.096  28.961  13.016
36505W        W 8798  29.667  42.942   2.373
36506W        W 8799  30.944  44.760   0.906
36507W        W 8800   2.960  15.123   0.825
36508W        W 8801  31.013  18.100  13.025
36509W        W 8802   3.858  30.486  14.508
36510W        W 8803  14.314  17.223  12.042
36511W        W 8804   0.270  44.269  10.619
36512W        W 8805  37.499  18.204   3.258
36513W        W 8806  22.637  31.976   0.298
36514W        W 8807  37.859  42.430   2.291
36515W        W 8808  35.005   6.878  13.021
36516W        W 8809  19.247  14.299  13.323
36517W        W 8810  31.947   7.849  12.432
36518W        W 8811  43.469  16.768   4.314
36519W        W 8812  28.646  24.996  14.878
36520W        W 8813   5.324  36.443   2.696
36521W        W 8814  32.596   7.273   4.272
36522W        W 8815  20.544   5.910  14.274
36523W        W 8816  11.327  13.215  11.128
36524W        W 8817  32.431  10.797  14.408
36525W        W 8818  32.998  28.651  10.496
36526W        W 8819  10.857  25.041  12.844
36527W        W 8820  14.290   1.976   2.891
36528W        W 8821  31.151  24.160   4.735
36529W        W 8822  35.451  39.326  14.025
36530W        W 8823  22.096   4.384  13.806
36531W        W 8824  41.938   9.360  14.285
36532W        W 8825  12.622  19.762  11.597
36533W        W 8826  39.035  28.680  13.017
36534W        W 8827  38.558  38.477   1.774
36535W        W 8828  30.470   4.844   3.743
36536W        W 8829   9.294  21.587   1.392
36537W        W 8830  21.084   1.448   4.776
36538W        W 8831   0.805   0.946  13.949
36539W        W 8832  36.493  10.811  10.910
36540W        W 8833  17.197  17.801   4.272
36541W        W 8834  38.918  19.185   1.444
36542W        W 8835   8.759   6.886   3.290
36543W        W 8836  27.197  17.206  14.818
36544W        W 8837  24.123  37.434   4.312
36545W        W 8838  27.594  11.325  14.849
36546W        W 8839  27.103  18.599  14.779
36547W        W 8840   8.827  39.376  14.440
36548W        W 8841  24.529  29.170   2.789
36549W        W 8842  12.135  29.578   1.915
36550W        W 8843  27.964  35.912  11.556
36551W        W 8844  42.991  22.069   1.762
36552W        W 8845  22.609  20.711   1.811
36553W        W 8846  27.010   9.355   3.869
36554W        W 8847  32.008  27.541   0.869
36555W        W 8848  43.792  11.207  10.947
36556W        W 8849  13.782  36.492   0.925
36557W        W 8850  36.927  41.376  13.058
36558W        W 8851  29.985  26.586   4.183
36559W        W 8852  35.572  34.493  13.355
36560W        W 8853   0.771  12.176   2.256
36561W        W 8854  11.268  17.788   3.186
36562W        W 8855  34.492   0.294  10.489
36563W        W 8856  34.964  32.138   0.436
36564W        W 8857  21.067  38.326   3.759
36565W        W 8858   4.709   9.280   0.774
36566W        W 8859  14.193  10.638   0.846
36567W        W 8860  14.220  40.366  14.340
36568W        W 8861  42.310   0.941  10.594
36569W        W 8862  44.984  33.621   2.340
36570W        W 8863  33.467   3.858  10.425
36571W        W 8864  27.621  15.626   4.227
36572W        W 8865  16.222  33.597  14.386
36573W        W 8866  35.374  31.435  14.432
36574W        W 8867  25.558  36.357  14.832
36575W        W 8868  11.252  39.382  13.333
36576W        W 8869  22.243  37.065  10.562
36577W        W 8870  42.302  21.129  14.288
36578W        W 8871  10.205   6.226   1.848
36579W        W 8872  22.643  43.785  14.496
36580W        W 8873  21.696  42.340  14.486
36581W        W 8874   2.761  43.836   0.303
36582W        W 8875   4.883   9.855  11.538
36583W        W 8876  32.531   6.680   0.457
36584W        W 8877  10.861  18.716  12.888
36585W        W 8878  16.656  24.111  13.440
36586W        W 8879  16.190  10.710   2.777
36587W        W 8880  31.597  36.079   3.334
36588W        W 8881  22.697  27.015   4.222
36589W        W 8882  30.472  19.578   1.352
36590W        W 8883   0.318  25.586   1.927
36591W        W 8884  36.969   2.240  10.594
36592W        W 8885   8.725  13.690   1.430
36593W        W 8886  23.679  11.769  14.376
36594W        W 8887   7.778  42.815   1.737
36595W        W 8888  27.140   6.232  11.483
36596W        W 8889  31.415  44.393   2.662
36597W        W 8890   7.247  11.222   0.322
36598W        W 8891  19.596   2.788  11.975
36599W        W 8892  22.225  24.584  11.916
36600W        W 8893  44.394  44.994  12.575
36601W        W 8894  42.522  15.788  10.998
36602W        W 8895  10.706  26.155   3.210
36603W        W 8896   2.353   0.490   1.776
36604W        W 8897  39.840  14.669  13.421
36605W        W 8898  33.604  21.094  14.366
36606W        W 8899  37.417   3.882  14.879
36607W        W 8900   2.462  19.151  10.594
36608W        W 8901  25.696  40.940  12.002
36609W        W 8902  31.458  41.907  12.931
36610W        W 8903   3.430  28.517   3.719
36611W        W 8904  15.170  13.129  11.412
36612W        W 8905  37.942  12.287   1.242
36613W        W 8906  31.620   9.767   2.684
36614W        W 8907  12.808  31.153   0.753
36615W        W 8908  13.270  42.934  13.332
36616W        W 8909   3.402  32.422  10.635
36617W        W 8910  21.097  15.588  12.511
36618W        W 8911  43.331  29.976  10.538
36619W        W 8912   1.254  37.904  12.407
36620W        W 8913  34.463  22.250  11.066
36621W        W 8914  29.980  10.194  10.001
36622W        W 8915  20.546  13.197  11.537
36623W        W 8916  11.151  13.656  14.397
36624W        W 8917  17.739  12.675   2.399
36625W        W 8918   4.350  29.424   2.289
36626W        W 8919  43.832  11.686  10.606
36627W        W 8920  34.589   9.744  13.029
36628W        W 8921  21.228  18.678  11.609
36629W        W 8922   5.351  39.412  14.774
36630W        W 8923  41.966  16.567   2.892
36631W        W 8924  24.654  40.905   4.802
36632W        W 8925  34.387  35.401   4.635
36633W        W 8926  22.240  28.981  13.368
36634W        W 8927  29.963  19.627   2.374
36635W        W 8928  36.420  42.395   2.288
36636W        W 8929  23.229  43.361   2.838
36637W        W 8930  18.572  22.052  12.059
36638W        W 8931  26.652  14.598   3.228
36639W        W 8932  23.995   8.394   1.406
36640W        W 8933  17.628  10.792  10.946
36641W        W 8934   3.790  36.020   0.850
36642W        W 8935   7.189   1.321   2.832
36643W        W 8936  38.898  18.123  12.367
36644W        W 8937  24.069  22.232  12.351
36645W        W 8938   9.763  22.998  12.344
36646W        W 8939  25.129  18.090  11.535
36647W        W 8940  14.155  29.969  12.543
36648W        W 8941   5.871   6.293   0.817
36649W        W 8942  13.220  26.150   3.754
36650W        W 8943  36.025  11.279   0.337
36651W        W 8944  27.588  38.333   3.172
36652W        W 8945   1.480  31.030  10.437
36653W        W 8946   0.892  19.091   2.849
36654W        W 8947   2.866  21.530   1.383
36655W        W 8948  29.145   5.301  14.998
36656W        W 8949  42.882  39.374   4.621
36657W        W 8950  35.083   7.385  13.408
36658W        W 8951  18.185   7.870  14.326
36659W        W 8952  31.102  31.054   1.291
36660W        W 8953  44.897  16.604   4.742
36661W        W 8954   1.926  21.218   1.384
36662W        W 8955  15.762  16.595  12.045
36663W        W 8956   7.878  25.713  11.949
36664W        W 8957  19.749  35.438  10.627
36665W        W 8958  22.739  33.431  11.016
36666W        W 8959  38.479   4.741  14.952
36667W        W 8960   5.343  25.561  12.358
36668W        W 8961  25.703  12.736   2.788
36669W        W 8962  33.460  26.183  11.885
36670W        W 8963  35.378  35.487  11.106
36671W        W 8964  34.586  42.367  10.621
36672W        W 8965  27.651   4.912   2.843
36673W        W 8966   7.734   2.276   2.248
36674W        W 8967  36.351  17.558  14.300
36675W        W 8968  40.969  25.128  13.960
36676W        W 8969  26.579   2.924  14.828
36677W        W 8970  33.928  39.508  11.532
36678W        W 8971  26.116  11.351   3.244
36679W        W 8972   8.786   7.905  13.825
36680W        W 8973  21.171   6.332  10.422
36681W        W 8974   0.251  25.615  14.449
36682W        W 8975   6.429  37.579   2.808
36683W        W 8976  13.147  15.824  12.523
36684W        W 8977  43.474  38.954  14.899
36685W        W 8978   1.744  19.767  10.622
36686W        W 8979   0.937  15.086   4.199
36687W        W 8980  38.052  36.083  12.036
36688W        W 8981  20.040  30.963  14.447
36689W        W 8982  33.597   8.665  14.295
36690W        W 8983  44.938  17.610  13.019
36691W        W 8984  13.634  38.511  12.876
36692W        W 8985  16.657   8.340  12.018
36693W        W 8986  38.017  14.163   2.296
36694W        W 8987  42.855  21.218   0.942
36695W        W 8988  28.477  42.812  10.627
36696W        W 8989  35.905  40.029   4.197
36697W        W 8990   1.287   1.475   3.314
36698W        W 8991  32.560  43.780  11.513
36699W        W 8992  16.310  30.142   1.889
36700W        W 8993  44.888   6.705  13.933
36701W        W 8994  33.081   2.316  13.523
36702W        W 8995  27.583  13.687  14.308
36703W        W 8996  44.942  33.125  14.337
36704W        W 8997  38.923  15.711   4.306
36705W        W 8998  30.647  25.096   0.384
36706W        W 8999   4.430  26.997   2.344
36707W        W 9000  22.510  35.993   0.785
36708W        W 9001  15.184   1.328   4.229
36709W        W 9002  37.891  37.578  14.364
36710W        W 9003  43.420  17.662   3.161
36711W        W 9004  30.993   7.838   2.331
36712W        W 9005   0.976   8.327  13.001
36713W        W 9006  18.653  35.568   3.343
36714W        W 9007  16.800  38.922  12.369
36715W        W 9008  42.983  16.721   5.731
36716W        W 9009  36.477  38.978  13.401
36717W        W 9010   5.740  23.113  11.552
36718W        W 9011  38.916  41.935  13.936
36719W        W 9012  42.398  16.210  13.342
36720W        W 9013   9.279  18.734   2.824
36721W        W 9014  29.571  40.959   1.393
36722W        W 9015   9.821  16.119  12.091
36723W        W 9016  13.614   9.859  13.860
36724W        W 9017  29.051  18.099   0.425
36725W        W 9018  14.745  38.473  14.768
36726W        W 9019  17.129  41.897   2.782
36727W        W 9020  29.610  21.121  11.017
36728W        W 9021  20.092  22.701   9.437
36729W        W 9022   7.303  26.536  12.921
36730W        W 9023  23.148  30.919   1.697
36731W        W 9024  10.199  23.562   1.411
36732W        W 9025   5.411  34.481  10.560
36733W        W 9026  27.497  10.786   1.742
36734W        W 9027  11.642  41.528   0.406
36735W        W 9028   9.278  42.827  14.975
36736W        W 9029  28.634  33.941   1.345
36737W        W 9030  38.063   9.661  13.942
36738W        W 9031   6.252   1.443  10.557
36739W        W 9032  28.586  25.164  12.557
36740W        W 9033  23.207  15.578  11.933
36741W        W 9034   3.904  42.999   1.253
36742W        W 9035   3.449   8.321   0.751
36743W        W 9036  41.375  14.266   1.825
36744W        W 9037  10.297   8.662  13.047
36745W        W 9038  34.989  36.486  12.564
36746W        W 9039  15.587  10.749   1.227
36747W        W 9040  27.656  27.544  14.368
36748W        W 9041  15.193  17.102   4.670
36749W        W 9042  31.096  34.089  14.992
36750W        W 9043  42.443  16.583   0.408
36751W        W 9044  33.090  27.172   3.735
36752W        W 9045  22.116  41.832   1.304
36753W        W 9046  27.047  35.400   3.762
36754W        W 9047   6.398  30.540  10.614
36755W        W 9048  11.368   4.379   2.867
36756W        W 9049  20.737  23.062   1.792
36757W        W 9050  26.097  42.845  14.970
36758W        W 9051  24.067  33.917  14.951
36759W        W 9052  19.534  19.694   1.902
36760W        W 9053  17.191  20.571  13.986
36761W        W 9054  27.963   9.769   0.474
36762W        W 9055  35.455  11.311  12.348
36763W        W 9056  36.874  18.157   0.373
36764W        W 9057   9.882  30.164  11.496
36765W        W 9058   9.763   7.792   3.317
36766W        W 9059  11.254  40.895   3.778
36767W        W 9060  38.885  36.910  13.409
36768W        W 9061  41.920  28.037   3.258
36769W        W 9062  42.033  24.000  12.062
36770W        W 9063  40.009   8.252  14.358
36771W        W 9064   6.823   2.309  10.899
36772W        W 9065   9.353  37.063   1.350
36773W        W 9066  43.835  36.984   2.774
36774W        W 9067  43.778  22.653   0.822
36775W        W 9068  31.035  31.553  13.318
36776W        W 9069  19.105  26.958  12.020
36777W        W 9070  18.607  15.733  11.575
36778W        W 9071  39.988  43.014   1.915
36779W        W 9072  39.026  10.371  13.969
36780W        W 9073  33.558  35.466   3.321
36781W        W 9074   5.201   7.284  14.944
36782W        W 9075  15.585  38.063   0.824
36783W        W 9076   6.743  34.517  13.333
36784W        W 9077  41.880  25.203  14.490
36785W        W 9078  24.075  27.995   4.326
36786W        W 9079   7.357   2.263   2.249
36787W        W 9080  44.801  42.906   2.771
36788W        W 9081  22.129  10.212  14.275
36789W        W 9082  19.744  33.616   3.671
36790W        W 9083  19.578   4.888  10.435
36791W        W 9084  31.074   1.338   2.205
36792W        W 9085  13.638  33.617  14.937
36793W        W 9086  33.879  14.699  10.409
36794W        W 9087  24.112  29.087   0.775
36795W        W 9088  27.591  11.733  13.022
36796W        W 9089  43.452  34.894   4.748
36797W        W 9090  19.160  36.491  10.955
36798W        W 9091  11.628  41.476  11.930
36799W        W 9092  20.040  16.080  13.474
36800W        W 9093   9.201  23.673   1.847
36801W        W 9094  38.062  17.738   3.705
36802W        W 9095  43.908  10.771  12.051
36803W        W 9096  42.498  36.547  11.960
36804W        W 9097  39.887  42.360  14.023
36805W        W 9098   0.464  36.887   1.850
36806W        W 9099  37.407   9.327   2.230
36807W        W 9100  32.967  30.100  13.927
36808W        W 9101   5.288  28.547   3.823
36809W        W 9102  33.593  17.095  11.866
36810W        W 9103  39.376  24.551  13.013
36811W        W 9104  44.271  24.639  14.392
36812W        W 9105  23.696  40.869  13.496
36813W        W 9106  14.223  23.664  13.940
36814W        W 9107  17.162  26.514  11.118
36815W        W 9108  42.863   6.711   2.728
36816W        W 9109  30.025  22.131   1.824
36817W        W 9110  16.617   7.379  11.431
36818W        W 9111  38.447  38.550   1.337
36819W        W 9112   4.300  33.895  10.507
36820W        W 9113  24.122   3.284  10.618
36821W        W 9114  44.329  12.232   0.325
36822W        W 9115  39.449  40.980  14.933
36823W        W 9116  26.059  27.686   3.343
36824W        W 9117  41.404  44.825   2.236
36825W        W 9118  39.395   9.358  11.015
36826W        W 9119  39.433  19.054   4.177
36827W        W 9120   0.411  12.322  10.610
36828W        W 9121  13.689  15.671   0.280
36829W        W 9122  29.920  19.067   1.705
36830W        W 9123  12.722  12.850   4.717
36831W        W 9124  40.353  13.643  11.097
36832W        W 9125  30.633   1.363  13.062
36833W        W 9126  38.055  11.331  14.760
36834W        W 9127   1.744   9.874   0.848
36835W        W 9128  15.726  21.666   4.685
36836W        W 9129  40.834  30.473   0.887
36837W        W 9130   5.256   6.845  11.885
36838W        W 9131   1.252   7.306   3.360
36839W        W 9132  18.663  23.682  11.948
36840W        W 9133   3.779   3.851   0.477
36841W        W 9134  27.619  22.210  10.956
36842W        W 9135  36.359  22.600   9.950
36843W        W 9136   5.789  20.691   1.377
36844W        W 9137  36.909  35.412   0.899
36845W        W 9138  35.495   9.197  10.506
36846W        W 9139  38.502  42.414  11.397
36847W        W 9140  18.738  36.994   1.851
36848W        W 9141  29.621  25.037   4.272
36849W        W 9142  30.122   4.225  14.848
36850W        W 9143  32.054  27.544  11.895
36851W        W 9144  26.647  30.035   2.836
36852W        W 9145  31.435  35.466   3.848
36853W        W 9146   8.730  31.537   1.335
36854W        W 9147   7.315  23.623   2.314
36855W        W 9148   7.354  41.379  14.422
36856W        W 9149  32.907  38.057   1.363
36857W        W 9150  21.520  44.320  13.034
36858W        W 9151  13.774  40.425   4.739
36859W        W 9152  16.581  22.153   2.829
36860W        W 9153  25.974  14.717  14.985
36861W        W 9154  42.303  28.934  12.389
36862W        W 9155  28.486  26.477  11.110
36863W        W 9156  44.964   1.777   2.383
36864W        W 9157  26.506  18.209   4.638
36865W        W 9158   4.715  16.719  10.118
36866W        W 9159  40.046   4.849  11.540
36867W        W 9160   9.843  30.656   0.782
36868W        W 9161  22.050  15.227  11.968
36869W        W 9162  34.912  37.882  14.471
36870W        W 9163   3.745   6.251  10.425
36871W        W 9164   4.742  44.311  13.380
36872W        W 9165  39.950  20.271  11.443
36873W        W 9166   1.771  34.428  14.333
36874W        W 9167  21.589   9.148   2.283
36875W        W 9168  13.179   1.841  14.345
36876W        W 9169  30.128  28.165   0.773
36877W        W 9170  21.541  36.432   1.816
36878W        W 9171   1.800  20.588  11.982
36879W        W 9172  34.046  26.043  14.317
36880W        W 9173  27.955  33.449   2.880
36881W        W 9174  29.078  31.570   1.703
36882W        W 9175  22.118   5.852  10.524
36883W        W 9176   3.409  36.495   0.809
36884W        W 9177  33.488  41.385   3.273
36885W        W 9178   8.261  34.000   2.867
36886W        W 9179  16.121  22.122   3.150
36887W        W 9180  14.689   0.396   3.770
36888W        W 9181   2.395  39.908  11.609
36889W        W 9182   7.763  11.190  13.948
36890W        W 9183  35.368   5.352  11.468
36891W        W 9184   2.458  18.148  14.909
36892W        W 9185  42.964  26.550   2.192
36893W        W 9186  40.450  12.758  12.501
36894W        W 9187  32.404   5.777  12.445
36895W        W 9188  41.854  42.415  10.120
36896W        W 9189  34.111  43.406  12.093
36897W        W 9190  37.869  17.771   1.921
36898W        W 9191  37.937  44.800   2.663
36899W        W 9192  41.345  18.126  12.088
36900W        W 9193  25.031  38.920   3.725
36901W        W 9194  42.930  30.615   1.731
36902W        W 9195  38.437   2.397  14.925
36903W        W 9196  41.878  14.751   3.653
36904W        W 9197  37.957  32.038   4.647
36905W        W 9198  29.547  24.179   1.288
36906W        W 9199  38.385   3.302  11.591
36907W        W 9200  18.133  40.046  13.367
36908W        W 9201  41.403  38.894   3.670
36909W        W 9202  23.663  41.382   1.855
36910W        W 9203  24.115  38.889  11.864
36911W        W 9204  23.711  38.034  11.461
36912W        W 9205  31.896  44.006   3.306
36913W        W 9206  44.446   1.395   1.413
36914W        W 9207   5.811  44.308  10.608
36915W        W 9208  44.297   7.692  12.073
36916W        W 9209  31.043  36.016  12.934
36917W        W 9210   7.372  11.268  11.909
36918W        W 9211   4.723  21.533   4.600
36919W        W 9212  14.256  19.732   4.329
36920W        W 9213  30.990  11.254  11.489
36921W        W 9214  40.972  41.479  10.892
36922W        W 9215  24.538  37.489   1.786
36923W        W 9216  17.230  29.143  10.640
36924W        W 9217  35.006  26.573   3.194
36925W        W 9218  31.508   7.205   0.381
36926W        W 9219   3.437  24.655  11.379
36927W        W 9220  44.462  44.979   2.664
36928W        W 9221   4.909  19.131  12.970
36929W        W 9222  24.079  16.244   4.837
36930W        W 9223  13.833   8.310  13.515
36931W        W 9224  39.517   2.340  13.061
36932W        W 9225   2.326   8.362  10.481
36933W        W 9226  11.663  44.975   1.339
36934W        W 9227   4.908  35.471   3.804
36935W        W 9228   5.734  43.422  13.036
36936W        W 9229  26.614  25.643   5.206
36937W        W 9230   7.860   1.928  14.770
36938W        W 9231  36.952  19.640   1.698
36939W        W 9232  19.171  30.491   1.282
36940W        W 9233  36.572   6.692  11.903
36941W        W 9234  27.076   1.875   3.714
36942W        W 9235  38.539   4.389  11.995
36943W        W 9236  38.475   7.200   0.826
36944W        W 9237  25.063   8.687   1.776
36945W        W 9238  38.955  33.392   0.395
36946W        W 9239  19.676  10.256  14.870
36947W        W 9240  20.635  41.491   0.252
36948W        W 9241   8.822  30.613   2.878
36949W        W 9242  13.635  25.584  10.601
36950W        W 9243   4.373  32.524  13.927
36951W        W 9244  42.519   1.845  10.957
36952W        W 9245  10.216   3.226   4.302
36953W        W 9246  38.565  39.993  14.381
36954W        W 9247  10.156   5.915   1.335
36955W        W 9248   0.323  24.574   0.792
36956W        W 9249  14.206   9.291  13.471
36957W        W 9250  27.470  31.926   3.640
36958W        W 9251  39.413  13.788   1.887
36959W        W 9252  39.922  24.214   1.221
36960W        W 9253  22.669   3.924   0.299
36961W        W 9254   4.311  11.642  10.986
36962W        W 9255  26.570  17.109  14.967
36963W        W 9256   2.750  25.483   0.441
36964W        W 9257  12.674  18.228   1.431
36965W        W 9258   7.856  13.718  14.350
36966W        W 9259  42.996  37.997   0.415
36967W        W 9260  17.594  25.568   4.329
36968W        W 9261  10.734  15.806  11.107
36969W        W 9262  44.793  33.589  14.357
36970W        W 9263  41.508  40.803  12.534
36971W        W 9264  18.193   4.854  14.762
36972W        W 9265  37.547  36.564  13.373
36973W        W 9266  41.902  15.794  14.013
36974W        W 9267   8.195  40.048   1.257
36975W        W 9268  24.606   3.428  11.967
36976W        W 9269   1.813  27.458  11.580
36977W        W 9270  28.169  15.300   0.301
36978W        W 9271  25.983  24.025  11.062
36979W        W 9272   2.747   8.765   4.646
36980W        W 9273   6.881   4.328  12.015
36981W        W 9274  17.170  38.397  11.523
36982W        W 9275  37.447  15.587  11.969
36983W        W 9276  34.994  40.985   3.354
36984W        W 9277   8.850   0.973   2.769
36985W        W 9278  28.632  16.630   0.887
36986W        W 9279  15.109   2.437   3.196
36987W        W 9280   0.748  32.000   1.414
36988W        W 9281  21.591  29.448  10.918
36989W        W 9282   7.306  36.368   3.251
36990W        W 9283  40.350   4.829  12.553
36991W        W 9284  17.094  15.818   5.119
36992W        W 9285  25.211  34.984  10.909
36993W        W 9286  24.481  21.660   2.885
36994W        W 9287   2.239  33.073   0.456
36995W        W 9288   7.731   7.886   4.601
36996W        W 9289  10.354  30.928   0.779
36997W        W 9290   2.264  22.534   4.329
36998W        W 9291  15.807   9.259   2.398
36999W        W 9292   1.823   9.686  13.537
37000W        W 9293  26.188   5.250   4.156
37001W        W 9294   5.770  34.920   0.350
37002W        W 9295  21.604  43.283   2.335
37003W        W 9296   1.329  37.459  13.371
37004W        W 9297  22.675   3.258  13.465
37005W        W 9298  33.071  42.434   0.934
37006W        W 9299  33.007  39.475   1.870
37007W        W 9300  30.087  11.241  12.423
37008W        W 9301  18.770   8.894   2.227
37009W        W 9302  38.938  28.604  12.382
37010W        W 9303  37.000  28.057   1.722
37011W        W 9304   7.827  41.533  14.937
37012W        W 9305   6.739   7.716   3.335
37013W        W 9306   1.257   4.246   3.643
37014W        W 9307  40.832  27.545   3.772
37015W        W 9308  29.024  39.479  12.910
37016W        W 9309  26.024  18.151  14.377
37017W        W 9310  25.022  38.403  10.414
37018W        W 9311  44.929  39.360   0.763
37019W        W 9312  18.192   8.189  11.970
37020W        W 9313  35.950   5.252  12.825
37021W        W 9314  38.498   5.807   2.276
37022W        W 9315  13.169  19.624  14.011
37023W        W 9316  25.113  11.621  11.966
37024W        W 9317  33.544  16.287   9.986
37025W        W 9318  39.898  18.209  11.479
37026W        W 9319  36.493  36.418   1.861
37027W        W 9320  17.690  43.422  14.399
37028W        W 9321  38.069  39.949   0.262
37029W        W 9322  23.721  29.971   4.163
37030W        W 9323   5.755  25.635  10.982
37031W        W 9324  28.527   9.270  12.501
37032W        W 9325  39.809  28.952  14.990
37033W        W 9326  24.523  15.178  10.420
37034W        W 9327  28.651  28.056  14.833
37035W        W 9328   2.458  26.545   2.673
37036W        W 9329  35.437   4.234  13.040
37037W        W 9330  43.396  36.097  11.062
37038W        W 9331  17.788  44.406   2.829
37039W        W 9332   7.806  14.668   0.376
37040W        W 9333  16.623  16.073   2.724
37041W        W 9334  12.754  20.193  14.987
37042W        W 9335  20.756  22.668  11.593
37043W        W 9336   8.675  31.513  13.492
37044W        W 9337  25.578  33.075  12.533
37045W        W 9338  41.870  42.372   3.224
37046W        W 9339   7.886  28.629  14.795
37047W        W 9340  12.313   1.855   1.889
37048W        W 9341  21.055  30.420   2.219
37049W        W 9342  19.652   6.819   4.182
37050W        W 9343  23.229  29.489   3.854
37051W        W 9344  32.634   3.929  11.098
37052W        W 9345  20.668   5.335  12.949
37053W        W 9346  32.990   7.360  13.495
37054W        W 9347   6.257  40.797  11.003
37055W        W 9348   6.381  34.021   5.150
37056W        W 9349  35.459   3.757   3.747
37057W        W 9350  44.905   3.324  13.519
37058W        W 9351  38.866  14.703  13.800
37059W        W 9352  19.703  12.282  11.381
37060W        W 9353  35.873  21.198   2.865
37061W        W 9354  28.073  24.697   3.385
37062W        W 9355  44.867  23.733   2.405
37063W        W 9356  13.184  15.278  11.579
37064W        W 9357  20.706  12.659   0.887
37065W        W 9358  32.047   5.252   1.243
37066W        W 9359   1.398  37.339  13.886
37067W        W 9360  22.212  13.744  12.343
37068W        W 9361  25.074  35.513  12.026
37069W        W 9362  20.600  19.240   2.771
37070W        W 9363  26.127  16.673  12.410
37071W        W 9364  22.732  11.224   0.419
37072W        W 9365  16.145  39.424  12.879
37073W        W 9366  28.044  44.422  13.832
37074W        W 9367  16.175  14.691   1.338
37075W        W 9368  28.976  22.675   3.740
37076W        W 9369  18.604  42.341  10.527
37077W        W 9370  31.073  24.074  14.516
37078W        W 9371  40.508  43.892   4.664
37079W        W 9372  34.385  43.936   3.385
37080W        W 9373  23.683  25.014   0.776
37081W        W 9374  36.374   5.823   2.350
37082W        W 9375  40.446  12.734   1.717
37083W        W 9376  37.542   2.720   0.465
37084W        W 9377  44.873  11.163   2.401
37085W        W 9378  35.068  42.409   4.619
37086W        W 9379  25.007  38.046   1.328
37087W        W 9380   2.894  10.168  11.579
37088W        W 9381  29.954  21.263   0.376
37089W        W 9382  32.466  11.688   4.629
37090W        W 9383  28.606  15.626  12.917
37091W        W 9384  36.883  15.702  12.358
37092W        W 9385  22.542   7.701  10.973
37093W        W 9386   0.974   3.729   2.878
37094W        W 9387  40.045  20.113   0.785
37095W        W 9388  43.492   1.341  14.975
37096W        W 9389  24.599  32.906  12.564
37097W        W 9390   9.194  37.560   2.824
37098W        W 9391  26.488  26.999   2.900
37099W        W 9392   3.388  26.635   0.462
37100W        W 9393  11.311  31.994  13.893
37101W        W 9394  22.701   0.796  14.492
37102W        W 9395   6.870  13.220   2.288
37103W        W 9396  44.281   0.424  13.862
37104W        W 9397   8.284  16.200  13.392
37105W        W 9398  14.774  41.479  10.584
37106W        W 9399  21.684  33.012  14.512
37107W        W 9400  28.634  34.930   1.751
37108W        W 9401  42.799  17.132   0.404
37109W        W 9402  34.386  44.469   2.681
37110W        W 9403  31.557  29.465   3.783
37111W        W 9404  39.386  29.608   4.162
37112W        W 9405  36.509  19.218  11.888
37113W        W 9406   1.328  37.518   1.930
37114W        W 9407   1.846   1.850   3.329
37115W        W 9408  37.454  18.780  14.027
37116W        W 9409   0.445  43.802   2.346
37117W        W 9410  43.881   9.775  11.495
37118W        W 9411  33.094  42.495   1.923
37119W        W 9412  38.532  29.587   2.391
37120W        W 9413  30.557   3.216  13.370
37121W        W 9414  30.504  20.225   2.339
37122W        W 9415  30.943  33.083   4.750
37123W        W 9416  27.132  18.564  13.944
37124W        W 9417  31.019  34.023   4.325
37125W        W 9418  23.728  28.493  14.852
37126W        W 9419  14.280  11.721   4.326
37127W        W 9420  14.760  23.189   1.782
37128W        W 9421  37.069  15.272  10.927
37129W        W 9422  39.975  14.749  12.408
37130W        W 9423   4.736   3.935  14.461
37131W        W 9424  36.495  36.387  13.451
37132W        W 9425  23.201  27.638  14.378
37133W        W 9426  42.911  39.973  14.291
37134W        W 9427  17.758  26.959  12.493
37135W        W 9428  38.524  27.156   3.312
37136W        W 9429  38.548  17.797   3.649
37137W        W 9430  33.603  20.571  11.045
37138W        W 9431  23.218  29.573   2.898
37139W        W 9432  44.994  41.790  10.497
37140W        W 9433  33.018  31.429   4.694
37141W        W 9434  31.435  12.704   1.335
37142W        W 9435   6.337  35.062  13.452
37143W        W 9436  14.233  11.777   2.849
37144W        W 9437  24.513  42.445  10.510
37145W        W 9438  27.530  10.353  13.800
37146W        W 9439  34.422  29.127   4.752
37147W        W 9440  31.965  29.932   2.832
37148W        W 9441  10.755   9.758   2.805
37149W        W 9442  42.962  21.540   0.917
37150W        W 9443  42.450  33.054  10.509
37151W        W 9444  43.315  11.691  11.090
37152W        W 9445  37.862   9.681   2.681
37153W        W 9446  21.585  13.327  14.969
37154W        W 9447  35.581  11.293  13.481
37155W        W 9448  17.080  44.339   4.129
37156W        W 9449  20.188  31.916  11.007
37157W        W 9450  30.091  44.278  10.498
37158W        W 9451  17.672  13.267  13.885
37159W        W 9452  33.617   2.245  14.475
37160W        W 9453   2.907  39.502  14.352
37161W        W 9454  22.020  23.707  13.431
37162W        W 9455  38.428  38.491  14.864
37163W        W 9456   3.389  35.925   3.350
37164W        W 9457  35.992  34.522   2.205
37165W        W 9458  24.131  29.455   1.909
37166W        W 9459  31.909  11.693   5.218
37167W        W 9460  14.163   5.827  12.381
37168W        W 9461  42.810  14.755  11.935
37169W        W 9462  32.980   0.790   4.788
37170W        W 9463  36.087  40.411   0.335
37171W        W 9464  22.137  19.138  10.624
37172W        W 9465  23.693   5.862   3.289
37173W        W 9466   0.435  33.512   3.789
37174W        W 9467  32.442   5.407  14.510
37175W        W 9468  15.625  24.137   4.691
37176W        W 9469   8.166  21.097   3.357
37177W        W 9470  39.468  31.643  12.088
37178W        W 9471  21.513   4.886   3.740
37179W        W 9472  14.298  16.251  11.607
37180W        W 9473  37.449  43.384   4.665
37181W        W 9474   2.472  37.390   4.322
37182W        W 9475  33.878  17.216   4.608
37183W        W 9476  10.170   3.442  10.101
37184W        W 9477  26.969  43.017   0.827
37185W        W 9478  15.259  22.006   1.390
37186W        W 9479  13.757  27.514  12.405
37187W        W 9480   4.341  34.512   1.285
37188W        W 9481   5.832  37.069   0.867
37189W        W 9482  18.694  40.434  13.819
37190W        W 9483  25.702   6.903  13.376
37191W        W 9484   2.932  12.664  10.992
37192W        W 9485  38.488  32.115   9.976
37193W        W 9486  18.097  13.701  14.503
37194W        W 9487  16.665  30.611  14.473
37195W        W 9488   4.210   4.325   0.823
37196W        W 9489   0.363  22.201   2.199
37197W        W 9490  27.550  35.535   2.705
37198W        W 9491   2.875  44.337  13.375
37199W        W 9492  31.516   5.819   1.834
37200W        W 9493  35.034  22.737   4.166
37201W        W 9494  28.464  22.678   2.792
37202W        W 9495  27.628  15.814   1.350
37203W        W 9496  27.961  36.966   1.233
37204W        W 9497  26.974  24.672  14.374
37205W        W 9498  16.607  39.874   4.809
37206W        W 9499   3.940   0.899  11.038
37207W        W 9500  37.944   7.741  10.494
37208W        W 9501  12.201  19.126  13.004
37209W        W 9502  19.215  31.636   0.336
37210W        W 9503  39.888   0.368   1.850
37211W        W 9504  44.792   8.736   3.300
37212W        W 9505  42.447  13.323   1.407
37213W        W 9506  36.582  18.670  14.760
37214W        W 9507  39.983  33.915   1.820
37215W        W 9508  33.566  29.163  11.010
37216W        W 9509  28.121  34.422  13.894
37217W        W 9510   7.800   4.343   3.708
37218W        W 9511  24.028  11.677  13.888
37219W        W 9512  22.681  22.020   0.308
37220W        W 9513  21.603  40.509  12.935
37221W        W 9514  13.130  42.287  14.340
37222W        W 9515  41.878  40.338  14.856
37223W        W 9516   1.825  34.019  11.862
37224W        W 9517  12.756  19.546   1.750
37225W        W 9518  29.990   7.263   2.354
37226W        W 9519  33.609  20.098   1.752
37227W        W 9520  38.854   3.364  12.436
37228W        W 9521  21.242   1.463   4.215
37229W        W 9522   1.967  17.791  11.036
37230W        W 9523  27.020  28.075  14.776
37231W        W 9524  39.327   6.742  12.400
37232W        W 9525  36.923  25.015  11.394
37233W        W 9526  41.941   6.864   3.242
37234W        W 9527  21.700  33.582  13.805
37235W        W 9528   4.912  22.156   3.740
37236W        W 9529   6.395  22.247  10.967
37237W        W 9530  21.087  15.667  10.935
37238W        W 9531  29.922  38.894   2.400
37239W        W 9532  12.249  23.656  11.086
37240W        W 9533   7.728  18.696   3.247
37241W        W 9534  19.636  32.615   3.784
37242W        W 9535  41.019  22.620  11.881
37243W        W 9536  11.196  42.472  12.904
37244W        W 9537  18.712  33.077  12.471
37245W        W 9538  43.877  22.555  11.485
37246W        W 9539   4.740  37.522  12.944
37247W        W 9540  12.760  29.925  11.074
37248W        W 9541  10.834  39.540   0.758
37249W        W 9542  33.618  20.709  13.487
37250W        W 9543   9.745  31.904  11.992
37251W        W 9544  35.513  11.745   0.432
37252W        W 9545  23.557  14.246  12.876
37253W        W 9546  38.373  14.301  13.043
37254W        W 9547  13.728  44.302  12.953
37255W        W 9548  39.464  41.378   4.656
37256W        W 9549  34.100  12.287  12.554
37257W        W 9550  36.373   8.776  11.433
37258W        W 9551   6.740   2.466   0.360
37259W        W 9552  36.853  31.517  13.375
37260W        W 9553   3.731  26.971  11.926
37261W        W 9554  32.071  32.609  14.805
37262W        W 9555  29.979   4.213   2.214
37263W        W 9556   7.199  18.739  14.365
37264W        W 9557  32.917  22.194  13.880
37265W        W 9558   8.278  23.530  14.759
37266W        W 9559  20.076  21.666   2.844
37267W        W 9560   3.820  41.423  13.327
37268W        W 9561  10.158  14.155  12.967
37269W        W 9562  44.407  18.052   1.783
37270W        W 9563  40.543  28.957  12.853
37271W        W 9564  33.109  17.189  13.440
37272W        W 9565  12.655  43.856  13.856
37273W        W 9566  29.633  18.281  11.873
37274W        W 9567  30.519  33.514   4.629
37275W        W 9568  38.369  42.959  11.574
37276W        W 9569   0.959   0.969   1.868
37277W        W 9570   9.655  33.610   2.726
37278W        W 9571  19.743   9.334   0.469
37279W        W 9572  18.253  18.775   0.773
37280W        W 9573  13.167   1.371   1.909
37281W        W 9574  20.120  38.557   2.810
37282W        W 9575  19.777  33.611   2.887
37283W        W 9576  15.702  24.226   3.344
37284W        W 9577  38.559  34.979  11.929
37285W        W 9578  24.198  31.109   4.145
37286W        W 9579  30.623  24.692  12.014
37287W        W 9580  23.514  17.716  14.362
37288W        W 9581  24.544  32.907  13.955
37289W        W 9582  29.937  22.554   3.830
37290W        W 9583  13.837  40.025   4.252
37291W        W 9584  29.450  21.192  11.913
37292W        W 9585  33.608   4.849   9.939
37293W        W 9586  41.855  13.141   2.293
37294W        W 9587  19.224  19.118  11.920
37295W        W 9588   1.894  27.119   0.962
37296W        W 9589   6.905  36.066  12.006
37297W        W 9590  15.222   4.311  10.407
37298W        W 9591  26.508  23.022   0.286
37299W        W 9592  38.568  12.297  12.485
37300W        W 9593   5.206  39.380   0.450
37301W        W 9594  25.513  19.724   4.689
37302W        W 9595  18.618  14.137   2.817
37303W        W 9596   2.849  32.036  10.416
37304W        W 9597  20.237  26.997   4.249
37305W        W 9598  22.225  19.114   0.927
37306W        W 9599  43.860  33.099   4.639
37307W        W 9600  35.051  38.467  11.557
37308W        W 9601  38.538  23.538  11.501
37309W        W 9602  27.589  23.588   0.814
37310W        W 9603   0.431  37.533  11.962
37311W        W 9604  16.175  22.515   4.241
37312W        W 9605   8.222  17.580   2.675
37313W        W 9606  26.522  27.111  14.349
37314W        W 9607  17.748  42.848   1.836
37315W        W 9608   6.393   2.925   2.178
37316W        W 9609  37.580  20.542   3.233
37317W        W 9610  30.995   0.281  10.931
37318W        W 9611  16.613   2.782   3.850
37319W        W 9612  39.538  27.528  13.943
37320W        W 9613  13.113  32.971  10.992
37321W        W 9614  37.374  27.577  12.362
37322W        W 9615   8.306  25.016  12.558
37323W        W 9616  22.744  14.681   0.249
37324W        W 9617  30.972  42.778   2.845
37325W        W 9618  27.475  19.077  13.436
37326W        W 9619  13.660  34.419   2.703
37327W        W 9620   2.336  23.599  14.030
37328W        W 9621   1.896  35.859  13.939
37329W        W 9622  22.595  11.651  12.411
37330W        W 9623  30.121  31.139   0.911
37331W        W 9624  29.926  38.061  12.876
37332W        W 9625  41.005  23.133   2.335
37333W        W 9626  20.222  38.912   5.116
37334W        W 9627  18.227  26.488  10.453
37335W        W 9628  25.065  16.286   1.896
37336W        W 9629  18.162  20.667   9.945
37337W        W 9630  21.062  26.487  13.867
37338W        W 9631  28.492  39.854   0.743
37339W        W 9632  44.439   1.473   4.128
37340W        W 9633  42.835  34.965  11.895
37341W        W 9634  31.085  40.981  11.946
37342W        W 9635  27.479  25.134   0.376
37343W        W 9636  19.101  21.744  13.876
37344W        W 9637  41.977  33.011   0.937
37345W        W 9638  19.686  22.688  12.945
37346W        W 9639  10.681  18.212  14.387
37347W        W 9640  21.715   5.325   3.250
37348W        W 9641  20.648  30.534   0.942
37349W        W 9642   4.367  37.906   1.301
37350W        W 9643  24.693  39.948   3.635
37351W        W 9644  40.992  33.076   1.269
37352W        W 9645  34.615  25.521   3.844
37353W        W 9646   2.240  25.480   1.816
37354W        W 9647  10.375  11.688   0.768
37355W        W 9648  42.476  32.445  11.118
37356W        W 9649   7.380   2.243  14.783
37357W        W 9650  24.074  30.448  11.573
37358W        W 9651   5.217  33.002   4.837
37359W        W 9652  36.355  23.054  14.981
37360W        W 9653  14.703  14.635  11.089
37361W        W 9654  28.931  35.508  11.962
37362W        W 9655   8.286  20.604   2.318
37363W        W 9656  17.689  19.628   0.948
37364W        W 9657  26.185  12.279   2.846
37365W        W 9658  22.041  13.800   1.931
37366W        W 9659  33.457  18.111   2.371
37367W        W 9660  22.577  34.984  12.413
37368W        W 9661  33.452  10.270  14.856
37369W        W 9662  34.068  40.499  12.397
37370W        W 9663   6.264  36.920  12.345
37371W        W 9664  22.106  31.080   1.898
37372W        W 9665  16.764  29.458   0.876
37373W        W 9666  12.766  39.057   4.757
37374W        W 9667  29.520   0.431  13.918
37375W        W 9668  27.147  24.595  14.770
37376W        W 9669  14.764   2.788  10.478
37377W        W 9670  44.399  16.094  14.319
37378W        W 9671  43.393   9.862   2.730
37379W        W 9672  22.582   1.976  12.854
37380W        W 9673  38.359  10.368  13.991
37381W        W 9674  30.496   9.299  14.764
37382W        W 9675  13.778  14.768  14.300
37383W        W 9676  44.349  17.260  14.855
37384W        W 9677  24.042   2.799   2.677
37385W        W 9678  33.606  10.250   3.824
37386W        W 9679  41.502  39.063  11.546
37387W        W 9680  11.213  36.977   3.662
37388W        W 9681  39.420  40.953  13.454
37389W        W 9682  42.400  40.832   1.290
37390W        W 9683   1.254   3.379  10.455
37391W        W 9684  18.584  43.960  13.974
37392W        W 9685  21.601   7.789  11.411
37393W        W 9686  27.478   1.453   2.263
37394W        W 9687  33.933   7.677  10.447
37395W        W 9688   4.446  18.676   1.359
37396W        W 9689  12.306  40.977  10.603
37397W        W 9690  17.667  29.988   0.912
37398W        W 9691   4.905  27.175   2.358
37399W        W 9692   7.293  44.902   2.286
37400W        W 9693   3.289  12.800   4.713
37401W        W 9694  44.921  37.930   2.365
37402W        W 9695  27.662  19.244  14.387
37403W        W 9696  43.910  33.028   2.809
37404W        W 9697  21.109  41.895  14.944
37405W        W 9698  41.479   1.437  12.450
37406W        W 9699  41.309  26.622  11.591
37407W        W 9700   8.687   2.891   2.347
37408W        W 9701   5.241   4.936   0.782
37409W        W 9702  38.440  26.991  12.855
37410W        W 9703  17.566  32.100  10.576
37411W        W 9704  34.607  16.297  12.037
37412W        W 9705  19.163  44.392  14.897
37413W        W 9706  25.146  38.907   3.241
37414W        W 9707  41.351  28.004  11.074
37415W        W 9708  28.091  17.200  10.982
37416W        W 9709  36.355   6.422  14.029
37417W        W 9710  10.246   1.844  10.979
37418W        W 9711  26.649   4.831   3.191
37419W        W 9712   8.173   2.412   4.227
37420W        W 9713   2.832  30.526  13.357
37421W        W 9714  41.977  11.178  13.829
37422W        W 9715   1.909  31.111  10.540
37423W        W 9716  10.192  41.399  12.493
37424W        W 9717   0.844  28.465  10.422
37425W        W 9718   8.238  37.830  13.991
37426W        W 9719  38.517  39.839   4.123
37427W        W 9720   5.904  22.568  13.447
37428W        W 9721  41.973  34.945  12.891
37429W        W 9722  33.403  23.156  10.446
37430W        W 9723  12.338  25.214  10.898
37431W        W 9724  42.391   9.721  13.962
37432W        W 9725  44.329   4.254  11.595
37433W        W 9726   8.655  40.899   1.708
37434W        W 9727  41.455  34.382   2.716
37435W        W 9728  37.055  12.148  11.085
37436W        W 9729  20.728  14.193  13.938
37437W        W 9730  33.517  20.275  12.385
37438W        W 9731   2.297   6.677   2.739
37439W        W 9732  44.807  18.160   1.349
37440W        W 9733  42.322  42.354   1.849
37441W        W 9734   6.372  42.369   4.695
37442W        W 9735  12.610  34.088  10.423
37443W        W 9736  10.746   5.260  10.494
37444W        W 9737   6.371  10.812   3.229
37445W        W 9738  21.060  44.384   2.820
37446W        W 9739  34.927  20.101   2.385
37447W        W 9740  20.170  25.633  12.485
37448W        W 9741  19.603  15.665   3.236
37449W        W 9742  37.938  21.067   1.779
37450W        W 9743   1.920  29.991  13.334
37451W        W 9744  25.205  13.697   3.845
37452W        W 9745  11.353  36.024   2.847
37453W        W 9746  18.559  28.957  12.936
37454W        W 9747  40.873  13.202  10.566
37455W        W 9748   7.183  33.494   1.801
37456W        W 9749   5.720  42.834   4.269
37457W        W 9750  35.437  24.178  12.086
37458W        W 9751  14.262  20.702   1.301
37459W        W 9752  35.852   8.753  12.879
37460W        W 9753  18.659  15.267   0.736
37461W        W 9754   0.379   5.764  14.776
37462W        W 9755   9.651  25.584  12.031
37463W        W 9756  36.066  32.615   3.206
37464W        W 9757  24.173  15.735  12.399
37465W        W 9758   3.803  10.702  13.544
37466W        W 9759  20.072   7.407   0.759
37467W        W 9760  20.239  23.567   5.081
37468W        W 9761  17.076  24.116  11.117
37469W        W 9762  28.149  41.815   4.738
37470W        W 9763  44.776  14.617   1.845
37471W        W 9764  28.538   9.362   0.806
37472W        W 9765  14.734  43.369  14.949
37473W        W 9766  16.594  27.067   0.745
37474W        W 9767  17.583  39.537   2.224
37475W        W 9768  31.479  42.906   4.240
37476W        W 9769  28.993  26.178   4.225
37477W        W 9770   7.297  27.155  10.604
37478W        W 9771  29.594   4.724   0.924
37479W        W 9772  23.155  43.960   2.893
37480W        W 9773  15.630  42.405  12.575
37481W        W 9774  27.561  39.912  12.463
37482W        W 9775  36.460  39.429   1.430
37483W        W 9776  44.915  33.588   4.738
37484W        W 9777   1.977  26.967   3.325
37485W        W 9778  14.261  26.500  10.461
37486W        W 9779  36.407  15.122  12.576
37487W        W 9780  20.123  14.816  12.559
37488W        W 9781  18.053  21.625   1.354
37489W        W 9782  27.589   6.229   3.223
37490W        W 9783  21.607  44.773   0.866
37491W        W 9784  20.692  31.636   3.342
37492W        W 9785  31.062  24.516   1.397
37493W        W 9786  25.005  32.886   4.746
37494W        W 9787  16.317  30.139  10.932
37495W        W 9788  39.919  11.203   0.816
37496W        W 9789  21.192  38.836   2.785
37497W        W 9790  19.631  44.468   4.661
37498W        W 9791  28.543  23.523   0.867
37499W        W 9792  13.145  22.172  14.819
37500W        W 9793  21.596  31.584   9.457
37501W        W 9794  26.076  36.542   0.402
37502W        W 9795  16.239   9.383  11.128
37503W        W 9796  23.512  18.567  11.079
37504W        W 9797  15.227   6.269   2.336
37505W        W 9798  31.645  31.096   1.440
37506W        W 9799   9.335  24.034  12.543
37507W        W 9800  27.649  10.802   0.783
37508W        W 9801  38.571  12.139  14.452
37509W        W 9802  33.383  39.041   1.703
37510W        W 9803  36.071   2.390  14.485
37511W        W 9804   4.722  40.850   1.255
37512W        W 9805  44.422  33.915  12.467
37513W        W 9806  14.599  38.021   4.252
37514W        W 9807  30.507  10.677   0.754
37515W        W 9808  13.714  44.992   1.336
37516W        W 9809  26.604  40.823  12.841
37517W        W 9810  30.610  29.083   4.191
37518W        W 9811  24.502  16.271   3.255
37519W        W 9812  10.236  35.425  13.885
37520W        W 9813  38.842  24.162   2.209
37521W        W 9814  19.100  23.062  13.913
37522W        W 9815  13.148  26.052   2.360
37523W        W 9816  18.053   2.374  14.459
37524W        W 9817  14.176  19.574  14.947
37525W        W 9818   5.369  44.421  11.016
37526W        W 9819  29.927  25.080  10.536
37527W        W 9820  25.577  38.842  11.919
37528W        W 9821  28.083  25.075   9.961
37529W        W 9822  35.955  25.165  11.122
37530W        W 9823  21.223   7.221   2.419
37531W        W 9824  23.665  38.413  10.508
37532W        W 9825  18.183  39.356   0.260
37533W        W 9826  23.160  28.607   4.604
37534W        W 9827  42.507  22.739   0.774
37535W        W 9828  41.030  36.866   3.825
37536W        W 9829  43.338  40.042   1.822
37537W        W 9830   7.765   0.360   9.938
37538W        W 9831  18.154  40.388   3.870
37539W        W 9832   3.283  33.119   0.888
37540W        W 9833   8.184  41.518   1.397
37541W        W 9834   5.915  31.056  14.309
37542W        W 9835  31.070   0.377   4.124
37543W        W 9836   2.373  40.878  12.835
37544W        W 9837  26.625  13.259   4.618
37545W        W 9838  39.354   1.892  13.355
37546W        W 9839   0.804  23.587  10.966
37547W        W 9840  19.656   0.363   4.741
37548W        W 9841  28.991   5.870  10.595
37549W        W 9842  25.503   2.941   3.862
37550W        W 9843  19.200  17.194  11.415
37551W        W 9844  35.361  15.638  11.986
37552W        W 9845  31.978  17.658   4.146
37553W        W 9846  42.876  33.512   3.238
37554W        W 9847  34.980  24.554   0.470
37555W        W 9848  12.616   6.188   1.217
37556W        W 9849   8.682  15.690  14.028
37557W        W 9850  21.167  39.971   2.257
37558W        W 9851  21.607   7.326  11.071
37559W        W 9852  18.278  38.493  11.516
37560W        W 9853  36.398   6.288  10.454
37561W        W 9854  24.997  25.603  11.055
37562W        W 9855  36.562  29.649  10.450
37563W        W 9856   8.728  40.454   0.352
37564W        W 9857  15.262  25.111  14.327
37565W        W 9858  40.414  36.548  13.972
37566W        W 9859  44.967  23.651  12.347
37567W        W 9860  37.480  19.717   2.851
37568W        W 9861  37.380  33.015  11.055
37569W        W 9862  32.905  34.119   3.758
37570W        W 9863  25.071  35.478  12.969
37571W        W 9864   9.249  21.519   3.650
37572W        W 9865  39.336  36.431   4.289
37573W        W 9866  44.814   9.889  13.992
37574W        W 9867   2.390  27.569   2.829
37575W        W 9868  16.707  11.699   4.295
37576W        W 9869  28.486  34.370  12.409
37577W        W 9870  22.516  13.795   4.810
37578W        W 9871  34.120  42.941   4.174
37579W        W 9872   8.750  23.170   4.797
37580W        W 9873   2.809  27.191   0.258
37581W        W 9874  11.339  16.282  11.544
37582W        W 9875  35.505  39.881  12.553
37583W        W 9876  21.069   8.290   1.746
37584W        W 9877   9.684   5.855  10.487
37585W        W 9878  38.379   4.370   3.306
37586W        W 9879  21.564  34.881   1.272
37587W        W 9880  30.632  24.201   1.888
37588W        W 9881  23.171  12.306  13.406
37589W        W 9882   4.345  25.204  12.992
37590W        W 9883  18.145  24.162   1.746
37591W        W 9884   6.895  22.648   0.381
37592W        W 9885  14.592   2.262  13.971
37593W        W 9886  13.270  43.361  13.881
37594W        W 9887  43.376  44.851   0.413
37595W        W 9888  39.018   3.837  10.919
37596W        W 9889  15.813  24.536  14.515
37597W        W 9890  42.501  15.319  10.926
37598W        W 9891  10.299  29.115   0.315
37599W        W 9892  38.006   9.843  10.495
37600W        W 9893  26.123  17.139  14.297
37601W        W 9894   1.263  16.139  12.527
37602W        W 9895  38.027  34.612   0.791
37603W        W 9896  24.685  33.410   2.415
37604W        W 9897   9.886   9.220   3.798
37605W        W 9898  32.592  31.470   2.840
37606W        W 9899  22.073  39.998   2.375
37607W        W 9900  16.696  23.154  10.452
37608W        W 9901   0.970  18.140   2.313
37609W        W 9902  44.425  34.058   2.374
37610W        W 9903  42.467   4.313  14.917
37611W        W 9904   4.760  24.229  14.511
37612W        W 9905  38.356   8.752   4.746
37613W        W 9906   9.150  17.203  12.948
37614W        W 9907  38.517  40.828  14.282
37615W        W 9908  16.191  22.082  10.608
37616W        W 9909  29.618   6.213   4.174
37617W        W 9910  31.519  40.364  14.032
37618W        W 9911   5.893  18.057   1.894
37619W        W 9912   2.303  15.326  11.058
37620W        W 9913  15.207  34.105  14.484
37621W        W 9914  35.521  26.094  10.438
37622W        W 9915   0.487  19.231   3.723
37623W        W 9916  31.985  24.725  14.425
37624W        W 9917  41.469  34.432   3.211
37625W        W 9918  18.274  24.513  14.948
37626W        W 9919  40.498   5.345   3.385
37627W        W 9920   8.327  19.732   1.426
37628W        W 9921  39.010  20.677  12.499
37629W        W 9922  22.184  11.667   0.942
37630W        W 9923  21.623  32.004  12.488
37631W        W 9924  26.998  22.507  13.529
37632W        W 9925  21.686  18.632  13.512
37633W        W 9926  28.953  36.981   0.294
37634W        W 9927  20.111  21.622   3.836
37635W        W 9928  19.594  11.139  14.855
37636W        W 9929  25.120  14.826   3.669
37637W        W 9930  41.308  28.137  13.401
37638W        W 9931  25.083  14.208   0.784
37639W        W 9932  20.091  36.523   2.282
37640W        W 9933  43.328  28.970   2.257
37641W        W 9934  41.384   5.884  13.456
37642W        W 9935  24.058  10.294  12.863
37643W        W 9936  23.062  23.086   0.871
37644W        W 9937   3.725  24.611  14.826
37645W        W 9938   1.452  35.448   1.719
37646W        W 9939  29.163  12.645  12.520
37647W        W 9940  37.992  27.963   3.180
37648W        W 9941  21.225  44.379   3.381
37649W        W 9942  38.557  42.824   2.688
37650W        W 9943  17.141  25.122   0.896
37651W        W 9944  41.867   2.389  12.950
37652W        W 9945  32.588  44.976   4.831
37653W        W 9946  44.463  25.538   1.718
37654W        W 9947  21.748  18.571   1.405
37655W        W 9948  37.956  15.753  11.871
37656W        W 9949  43.506  36.410  10.614
37657W        W 9950  18.643  28.981   3.310
37658W        W 9951  27.951  24.036   0.728
37659W        W 9952  36.348  20.201   1.874
37660W        W 9953   9.252   5.213  14.906
37661W        W 9954  32.887   2.458   1.749
37662W        W 9955  21.229   1.920   2.864
37663W        W 9956  43.449  23.081  14.433
37664W        W 9957  32.400  12.833  13.326
37665W        W 9958  22.225  20.152  13.358
37666W        W 9959   3.353   8.811   4.757
37667W        W 9960  28.661  37.076   1.343
37668W        W 9961  20.041  16.259  13.844
37669W        W 9962  40.346  42.983   5.099
37670W        W 9963  31.477  25.143  12.066
37671W        W 9964  16.707  25.063   1.366
37672W        W 9965  44.816  30.967  12.459
37673W        W 9966  36.352  25.670  13.971
37674W        W 9967   5.905  14.198   3.254
37675W        W 9968  22.539   9.739  12.829
37676W        W 9969  24.217  10.738  10.981
37677W        W 9970  42.442  22.700   4.131
37678W        W 9971  16.606  39.997   3.219
37679W        W 9972  42.382  38.048   4.162
37680W        W 9973  34.884   6.828  14.759
37681W        W 9974   5.891   7.855   0.844
37682W        W 9975  21.058   5.873   0.806
37683W        W 9976  30.087   1.831   3.293
37684W        W 9977  36.053   4.280  12.039
37685W        W 9978  22.525  37.561   3.845
37686W        W 9979   9.857  22.642   3.810
37687W        W 9980  24.056  16.229   3.269
37688W        W 9981  27.948  35.378   0.272
37689W        W 9982   4.365   6.344  13.941
37690W        W 9983  41.430   5.403   0.749
37691W        W 9984  34.015  17.576   0.342
37692W        W 9985  36.383  39.041  12.379
37693W        W 9986  39.489  23.720  10.522
37694W        W 9987  17.204  21.560   1.722
37695W        W 9988  37.959  17.635   2.732
37696W        W 9989  44.912  34.378   0.453
37697W        W 9990   1.404  11.804  12.469
37698W        W 9991  26.677  35.553  11.384
37699W        W 9992   7.828  24.062   4.649
37700W        W 9993  11.234  12.786  13.064
37701W        W 9994   3.954  30.649  13.437
37702W        W 9995  21.151   1.266   3.749
37703W        W 9996  43.951  34.961   0.819
37704W        W 9997  24.008  41.005  13.500
37705W        W 9998  40.987  19.148  12.007
37706W        W 9999  15.149   1.732  11.082
37707W        W10000   7.219  28.929   2.696
37708W        W10001  20.254  23.672  10.494
37709W        W10002   2.723  28.575  13.982
37710W        W10003  29.102  21.149  11.921
37711W        W10004  22.562  29.956  11.032
37712W        W10005  16.109  24.693   2.325
37713W        W10006  17.233  16.614  12.551
37714W        W10007   2.430  36.919  12.850
37715W        W10008  39.064  19.246  12.549
37716W        W10009  11.647  26.130  11.386
37717W        W10010  29.051  24.721   1.413
37718W        W10011  41.378  40.033  11.542
37719W        W10012  39.864  22.613   1.384
37720W        W10013  44.351   8.281   0.938
37721W        W10014  38.524  22.730   1.431
37722W        W10015  29.581   3.805  13.060
37723W        W10016  36.470  22.530  12.556
37724W        W10017  23.132  40.827   2.686
37725W        W10018  36.542  31.631  14.982
37726W        W10019  19.697  44.773  11.945
37727W        W10020  31.106  15.600   2.187
37728W        W10021  31.005  24.585  12.093
37729W        W10022  32.594  12.310   0.740
37730W        W10023  15.289   3.296  10.897
37731W        W10024  43.018  14.310   2.232
37732W        W10025  42.326  13.618   2.804
37733W        W10026   1.956  26.525  14.870
37734W        W10027  43.416  31.628   0.398
37735W        W10028  26.037  26.535   0.902
37736W        W10029  37.574  17.559  13.383
37737W        W10030  29.589  29.033  12.446
37738W        W10031  12.123  29.002   1.416
37739W        W10032  12.255   8.707  12.903
37740W        W10033  14.260  25.571  10.987
37741W        W10034   0.293  36.094   5.184
37742W        W10035  26.196  37.546   4.147
37743W        W10036  17.611  40.331   1.812
37744W        W10037  16.181   3.409  10.445
37745W        W10038   2.736  41.823   4.727
37746W        W10039  30.161  44.864   2.873
37747W        W10040  22.136  39.856  11.012
37748W        W10041  44.294  27.045   0.896
37749W        W10042  33.978  29.970  14.480
37750W        W10043  38.037  29.038  11.034
37751W        W10044  28.470   4.220  14.831
37752W        W10045  27.005  19.137   0.937
37753W        W10046   4.285  30.652  14.941
37754W        W10047  20.244  33.420   2.872
37755W        W10048  21.235  19.138   2.847
37756W        W10049  16.776  23.719  13.877
37757W        W10050   4.776  33.945  10.938
37758W        W10051  43.016   5.732   1.704
37759W        W10052  27.584  33.445   3.209
37760W        W10053   8.871  28.594   1.843
37761W        W10054   8.841  41.363  14.331
37762W        W10055  31.409   0.783   0.764
37763W        W10056   9.219  29.975   3.382
37764W        W10057   8.161  26.588   4.738
37765W        W10058  20.593  28.491  11.927
37766W        W10059   2.392  33.926  14.467
37767W        W10060   3.256  44.407  11.507
37768W        W10061  40.913   0.385  13.848
37769W        W10062  31.047  38.915  14.420
37770W        W10063  23.008  18.589  13.397
37771W        W10064  34.027  28.613  14.991
37772W        W10065  26.066   2.407   1.921
37773W        W10066  10.874   1.409  10.900
37774W        W10067  43.314  13.639   3.209
37775W        W10068  40.543  12.215   2.888
37776W        W10069   3.295  20.223   1.698
37777W        W10070  15.194   2.444   5.084
37778W        W10071  40.327   5.744  12.533
37779W        W10072   2.398   9.276   2.868
37780W        W10073  30.128  39.833   3.256
37781W        W10074  24.106   5.352  13.358
37782W        W10075  41.483  26.696  14.885
37783W        W10076  37.934  24.719  10.916
37784W        W10077  27.510  35.086  12.969
37785W        W10078  28.141  43.827  13.961
37786W        W10079   4.840  25.140   1.703
37787W        W10080  37.067  38.902  12.831
37788W        W10081   4.316   9.801   0.877
37789W        W10082  34.069  37.491   1.223
37790W        W10083  13.330  20.733  14.503
37791W        W10084   3.320  23.004   4.629
37792W        W10085  30.436  24.101   0.758
37793W        W10086   2.852  14.656   0.270
37794W        W10087   5.201  28.619  13.339
37795W        W10088   0.430  36.504  14.794
37796W        W10089   2.341  26.056   2.857
37797W        W10090  35.476  40.809  13.830
37798W        W10091  18.560  22.712   0.945
37799W        W10092  23.006  17.621   1.878
37800W        W10093  42.882   6.248  11.866
37801W        W10094  35.458  26.140  10.959
37802W        W10095  36.993  35.070   3.213
37803W        W10096  33.618  10.233   2.394
37804W        W10097  43.308  11.359   2.673
37805W        W10098  39.441  26.634   4.305
37806W        W10099  22.723  18.726  11.074
37807W        W10100  27.470  12.240  11.994
37808W        W10101   9.799  13.835  11.104
37809W        W10102  19.263  16.196  14.314
37810W        W10103  19.650  28.480   2.203
37811W        W10104   5.202  13.757  11.083
37812W        W10105  27.161  44.440   0.928
37813W        W10106  16.615  44.813   3.377
37814W        W10107  17.679  43.777  11.550
37815W        W10108  37.872  12.244  13.862
37816W        W10109  32.900  18.669   3.273
37817W        W10110  22.503  42.815   1.358
37818W        W10111  16.762  21.705   4.723
37819W        W10112   5.794  28.586   1.253
37820W        W10113   2.876   1.274  10.563
37821W        W10114  18.751  31.957  13.817
37822W        W10115  30.985  36.942  12.407
37823W        W10116   2.426  35.000   4.697
37824W        W10117  12.823   7.351  11.885
37825W        W10118  28.473   3.948   2.843
37826W        W10119  11.751  29.027   3.271
37827W        W10120  44.274  21.561   0.408
37828W        W10121  15.327  22.182   2.250
37829W        W10122  14.820  31.628   0.818
37830W        W10123  23.003  40.984  11.509
37831W        W10124   3.243  17.638   3.747
37832W        W10125  20.540  31.486   4.799
37833W        W10126  24.519  12.252  12.911
37834W        W10127  24.976  21.648   1.366
37835W        W10128  38.905  10.141  11.879
37836W        W10129  11.247  38.503  14.819
37837W        W10130  11.842   3.435  10.001
37838W        W10131  30.118   1.746   0.834
37839W        W10132  11.264  29.971   3.787
37840W        W10133  13.192  19.643   4.762
37841W        W10134  21.117  20.217   3.272
37842W        W10135  39.369   8.185   3.227
37843W        W10136  37.477  40.414   0.776
37844W        W10137  16.264  13.317  13.801
37845W        W10138   3.251  44.284   4.691
37846W        W10139  41.979  24.165   1.856
37847W        W10140  32.586  34.376   2.870
37848W        W10141   3.320  44.393  12.021
37849W        W10142  37.440   3.282  12.473
37850W        W10143  33.993  22.158  11.600
37851W        W10144  44.771  37.383   1.351
37852W        W10145  35.065   0.302   3.374
37853W        W10146  43.942  11.705   3.293
37854W        W10147  34.958   3.357  12.379
37855W        W10148  37.936  25.137  10.500
37856W        W10149  22.082  17.716  11.965
37857W        W10150  27.995   7.824   0.365
37858W        W10151  13.806  30.088  11.457
37859W        W10152  41.013   6.776  14.832
37860W        W10153  26.068   5.339   3.152
37861W        W10154  12.324  18.277  13.317
37862W        W10155  16.266   6.243  12.086
37863W        W10156  41.404  43.295  13.412
37864W        W10157  33.889  21.548   0.392
37865W        W10158  33.395  31.920   1.731
37866W        W10159  22.034  29.942   3.729
37867W        W10160   4.351  25.205   2.874
37868W        W10161  33.912   3.416  11.126
37869W        W10162  14.105  29.663   0.957
37870W        W10163  36.427  16.256  13.530
37871W        W10164  32.428  24.136  13.400
37872W        W10165   1.413   6.192  12.518
37873W        W10166  38.890  29.164   0.281
37874W        W10167  23.168  16.585  11.006
37875W        W10168  38.500  42.480   2.673
37876W        W10169  14.208  11.685  11.106
37877W        W10170   9.671  33.415  13.346
37878W        W10171  14.156   8.321   1.925
37879W        W10172  33.017  12.147  10.988
37880W        W10173  17.693   7.877  11.076
37881W        W10174  37.407  13.668  14.846
37882W        W10175  39.419  23.595  13.369
37883W        W10176  32.579  36.354  13.405
37884W        W10177  42.374  25.489  14.453
37885W        W10178  23.587  34.546   4.722
37886W        W10179  29.032  31.133  12.068
37887W        W10180  29.426  11.347   0.740
37888W        W10181   6.204  39.045   3.188
37889W        W10182  16.799  31.132   1.913
37890W        W10183   4.411  43.323  10.562
37891W        W10184   3.413  19.545   1.799
37892W        W10185  43.797  21.039   4.352
37893W        W10186  26.551  22.658  12.900
37894W        W10187  26.463  39.341   2.355
37895W        W10188  26.537  23.625  14.486
37896W        W10189  37.372  44.954   1.807
37897W        W10190  39.330  29.517  10.415
37898W        W10191   2.381  36.892   1.257
37899W        W10192  41.928  41.412  12.522
37900W        W10193  30.005  16.790   3.356
37901W        W10194   9.753  44.886  12.828
37902W        W10195  18.268  23.552  10.906
37903W        W10196  34.881  33.058   0.777
37904W        W10197  30.028  13.834   4.224
37905W        W10198   7.230  24.101   2.662
37906W        W10199   8.323  39.036   2.191
37907W        W10200  42.430  14.223   3.754
37908W        W10201   2.399  25.640  11.032
37909W        W10202  42.940  18.098  12.849
37910W        W10203   8.766   1.364   1.333
37911W        W10204  40.456  19.624  11.410
37912W        W10205  10.228  16.748  14.326
37913W        W10206  43.378  29.647  11.511
37914W        W10207   3.432  22.713  11.441
37915W        W10208  14.232  28.118   2.368
37916W        W10209  31.923  39.363   4.641
37917W        W10210   9.674   5.910  12.950
37918W        W10211  35.015  24.139   2.314
37919W        W10212  43.834   2.275   1.695
37920W        W10213  44.397   3.216  13.939
37921W        W10214   1.290   0.807   0.267
37922W        W10215  11.800  19.164  12.850
37923W        W10216  11.295  32.437  11.486
37924W        W10217  10.306   9.655   0.404
37925W        W10218  36.553  44.957  10.977
37926W        W10219   6.229  32.452   0.405
37927W        W10220  13.680  38.872   2.218
37928W        W10221  31.151  30.504   1.292
37929W        W10222  12.319  18.088  13.981
37930W        W10223  25.474  42.811  14.287
37931W        W10224  19.081  18.243  12.421
37932W        W10225  28.461  19.142  13.469
37933W        W10226  36.491  22.122  12.897
37934W        W10227  25.491  36.934  13.045
37935W        W10228   9.258  27.525   4.154
37936W        W10229  15.719  13.668  13.995
37937W        W10230  26.692  42.028   2.360
37938W        W10231  31.545  11.329   1.706
37939W        W10232  32.115  13.272  13.308
37940W        W10233  40.330   7.825   1.341
37941W        W10234  11.315  26.609   2.868
37942W        W10235  13.236   6.217   2.785
37943W        W10236   7.793  38.990   4.835
37944W        W10237   3.908  31.943  11.953
37945W        W10238  22.556  28.663  14.281
37946W        W10239   6.892  11.269   3.366
37947W        W10240  10.308  11.160   0.909
37948W        W10241   7.706   1.898  13.337
37949W        W10242  22.045  33.890   1.894
37950W        W10243   8.674   0.884  14.964
37951W        W10244  20.641  37.932   0.401
37952W        W10245   6.854  21.206  14.002
37953W        W10246  13.736  31.988  14.917
37954W        W10247  18.235  17.279   3.321
37955W        W10248  26.651  24.620  11.980
37956W        W10249   4.703  29.594  13.886
37957W        W10250  21.672   3.289  14.902
37958W        W10251  25.070  28.580  13.536
37959W        W10252  26.562  36.348   1.802
37960W        W10253  28.529  30.415   2.209
37961W        W10254  15.787  16.244  12.354
37962W        W10255  22.252  44.961   4.807
37963W        W10256  36.398  25.965   0.447
37964W        W10257  31.623  17.635  11.378
37965W        W10258  24.171   7.177   2.352
37966W        W10259  28.185   2.249   1.895
37967W        W10260  28.161  35.524   2.273
37968W        W10261  15.753  31.522   4.763
37969W        W10262   0.456  26.200   0.287
37970W        W10263  21.098   2.330   3.183
37971W        W10264  16.170  26.487   3.293
37972W        W10265  42.881  20.597  13.504
37973W        W10266  27.144  44.408  14.923
37974W        W10267   2.862  25.664  14.008
37975W        W10268  39.044  38.888   4.622
37976W        W10269  33.564  38.327   2.337
37977W        W10270  22.730  17.690  11.037
37978W        W10271  20.227  35.909  11.982
37979W        W10272  14.628  16.304  13.903
37980W        W10273   7.187  25.674   4.140
37981W        W10274  43.465   9.276   2.383
37982W        W10275  39.819   9.211   0.938
37983W        W10276  33.438  44.788   1.851
37984W        W10277  15.600  24.608  12.003
37985W        W10278  12.755  44.766  14.287
37986W        W10279   0.288  33.480  10.470
37987W        W10280  43.000  11.758  12.977
37988W        W10281  22.073  34.494   2.749
37989W        W10282  12.347  43.891  14.392
37990W        W10283  31.505  25.001  11.583
37991W        W10284  13.252  37.929   3.188
37992W        W10285   5.870   4.317  12.874
37993W        W10286   7.799  10.380   2.846
37994W        W10287  20.140  10.825  12.380
37995W        W10288   5.273   3.801   4.298
37996W        W10289  31.499   0.301   0.383
37997W        W10290   0.343  17.209  10.450
37998W        W10291  36.513  12.693  13.330
37999W        W10292  42.445  21.705   3.710
38000W        W10293  23.677  38.480  11.938
38001W        W10294   7.881  20.224   0.917
38002W        W10295  23.587  11.749  10.998
38003W        W10296   0.363   1.399   0.773
38004W        W10297   2.894  29.113   3.808
38005W        W10298  14.329  25.467  10.539
38006W        W10299  37.891  15.297  11.489
38007W        W10300  18.269  43.779   4.227
38008W        W10301  12.256   7.385  11.557
38009W        W10302  36.046  39.528   1.900
38010W        W10303  30.981  37.394   1.916
38011W        W10304   0.384  43.809  10.962
38012W        W10305  40.988  21.044   2.858
38013W        W10306  18.052  40.331  14.398
38014W        W10307  10.816  32.490  10.536
38015W        W10308  36.413  34.071   3.866
38016W        W10309  25.638  10.239  11.880
38017W        W10310  24.661   7.302  14.803
38018W        W10311  38.027   9.172   2.248
38019W        W10312  11.705  11.152   3.751
38020W        W10313  27.673  14.176   5.163
38021W        W10314  24.070  23.590  12.350
38022W        W10315  11.146  28.601   4.224
38023W        W10316  20.152  44.779  10.625
38024W        W10317   9.771  42.349   0.856
38025W        W10318  29.459  18.751   1.713
38026W        W10319   4.411   7.900  13.931
38027W        W10320  20.605  32.515   3.737
38028W        W10321  38.914  40.952  12.025
38029W        W10322  33.037   9.778  13.894
38030W        W10323  29.944   7.183  10.985
38031W        W10324  36.050   2.244   1.243
38032W        W10325   6.280  12.125   3.811
38033W        W10326  28.129   1.304  13.811
38034W        W10327  12.150   6.199   0.958
38035W        W10328  14.621   8.865  13.427
38036W        W10329  44.813   3.871   2.741
38037W        W10330   0.810   7.813   0.251
38038W        W10331  10.829  40.313  14.843
38039W        W10332  16.074  39.052   4.279
38040W        W10333  31.044  41.919  13.388
38041W        W10334   4.327  31.485   0.471
38042W        W10335   2.319  37.442   2.790
38043W        W10336  17.211  10.326  12.086
38044W        W10337  35.457  39.324   3.734
38045W        W10338  31.585   9.295  10.146
38046W        W10339  29.496  44.987   0.433
38047W        W10340  40.969  24.501  12.926
38048W        W10341  17.613  35.106  11.605
38049W        W10342  23.572  26.516  11.873
38050W        W10343  31.502  17.213  13.434
38051W        W10344  14.178  25.470   3.748
38052W        W10345  42.368   4.824  10.978
38053W        W10346   7.276  32.439  13.350
38054W        W10347  24.008   7.209   5.158
38055W        W10348  11.842  31.488   3.754
38056W        W10349  21.611  14.798   1.840
38057W        W10350   6.285  29.623   0.401
38058W        W10351  16.253  18.270  10.498
38059W        W10352  37.444  13.106   1.284
38060W        W10353  11.717  33.445   3.297
38061W        W10354  44.992  32.526   3.156
38062W        W10355  12.756  15.178  13.420
38063W        W10356  44.762  23.146   1.213
38064W        W10357  15.601  17.079  11.964
38065W        W10358  32.994  30.993  15.000
38066W        W10359  41.327  34.007   2.747
38067W        W10360  26.506  26.043   4.126
38068W        W10361  20.046  19.716   2.386
38069W        W10362  11.710  17.720  14.886
38070W        W10363  14.699  34.979   4.192
38071W        W10364   1.245  26.543  13.014
38072W        W10365  20.734  41.425  14.833
38073W        W10366  13.743  18.206  13.821
38074W        W10367  30.523   8.862  14.398
38075W        W10368   4.863  17.123   5.213
38076W        W10369  27.626  24.619  14.399
38077W        W10370  15.727  13.836  13.537
38078W        W10371  44.381  30.080   2.336
38079W        W10372  17.703  31.520   9.485
38080W        W10373  20.231  28.036   4.704
38081W        W10374  11.263  35.100  12.035
38082W        W10375  11.361  11.230   1.715
38083W        W10376  36.391  27.006  14.018
38084W        W10377  23.999  11.340  13.952
38085W        W10378   1.823   0.372   2.410
38086W        W10379  20.066   8.349  14.295
38087W        W10380  38.350  25.587   4.601
38088W        W10381  25.989  26.130  10.905
38089W        W10382  21.640   2.797  13.970
38090W        W10383   7.244  21.121  10.893
38091W        W10384  43.419   7.356  12.054
38092W        W10385   7.715  13.183  12.894
38093W        W10386  30.998  22.549   3.653
38094W        W10387  33.104  42.836   0.915
38095W        W10388  43.947  43.317   3.227
38096W        W10389  17.190   2.462   4.691
38097W        W10390   9.874  14.770  13.794
38098W        W10391  39.065  22.232   1.270
38099W        W10392   5.341  21.069   0.914
38100W        W10393  36.565   3.439  12.504
38101W        W10394   3.259  41.298   4.761
38102W        W10395  17.580   2.339   4.240
38103W        W10396  33.517  33.613   1.928
38104W        W10397  43.942  20.130   1.241
38105W        W10398  30.120  42.299   2.733
38106W        W10399  30.492  11.142   0.748
38107W        W10400  39.955  33.386   1.245
38108W        W10401  39.966  16.101   4.638
38109W        W10402   7.851  33.962  11.456
38110W        W10403  14.243  16.244  14.403
38111W        W10404  21.585  35.058   1.899
38112W        W10405   4.295   2.944  11.002
38113W        W10406   5.366  23.069  10.450
38114W        W10407  10.276  27.626   3.707
38115W        W10408   6.741   8.382   2.319
38116W        W10409   5.201  18.060  12.863
38117W        W10410  24.026  17.703  10.961
38118W        W10411  42.512  41.400  13.889
38119W        W10412  39.427  21.709  12.362
38120W        W10413  31.578  42.394   2.395
38121W        W10414  22.070  19.668   4.310
38122W        W10415  29.158  37.517   0.800
38123W        W10416  25.603  40.508   2.217
38124W        W10417  12.630  18.719   0.405
38125W        W10418  24.168  37.973   0.313
38126W        W10419  26.952  23.204   1.784
38127W        W10420  41.448  26.125   1.802
38128W        W10421  13.630  36.980  13.364
38129W        W10422  21.709  36.074   1.766
38130W        W10423   0.932  10.265   2.333
38131W        W10424  26.618  41.474  10.454
38132W        W10425  26.058  24.113   3.149
38133W        W10426  34.863  38.403   1.716
38134W        W10427  13.620  39.032   4.734
38135W        W10428  40.525  11.745   4.253
38136W        W10429  30.615  25.984   1.798
38137W        W10430  41.888   9.198   4.703
38138W        W10431  14.752  16.182  13.371
38139W        W10432  40.533   5.862   1.797
38140W        W10433  43.876  29.112   0.794
38141W        W10434  44.383  44.324  10.897
38142W        W10435  18.596  42.314   0.438
38143W        W10436   4.821  41.868   2.757
38144W        W10437  23.678  37.963   3.780
38145W        W10438  29.521  15.613  12.467
38146W        W10439  33.916  39.340   1.695
38147W        W10440  21.556  11.233  14.385
38148W        W10441  17.786  28.015  14.507
38149W        W10442  12.747  26.962  10.968
38150W        W10443  36.383  32.568  12.546
38151W        W10444   1.861  10.796   0.852
38152W        W10445  37.562  21.681   0.965
38153W        W10446  10.689  27.017   2.754
38154W        W10447  38.553   5.340  12.519
38155W        W10448  27.080   0.837  12.506
38156W        W10449  40.023  34.430   4.191
38157W        W10450   2.795  13.712  11.437
38158W        W10451  31.098  32.071  14.500
38159W        W10452   2.314  10.161   4.600
38160W        W10453  30.588  36.418   4.173
38161W        W10454  39.517  24.153   0.901
38162W        W10455  42.020  40.005   2.832
38163W        W10456   8.774  24.101   1.749
38164W        W10457  11.305   2.371   4.699
38165W        W10458  10.759   8.239   4.154
38166W        W10459  17.734  23.661   3.365
38167W        W10460  10.316  14.807   9.954
38168W        W10461  24.161  42.882  13.959
38169W        W10462  32.422  22.152   1.229
38170W        W10463  37.997  33.598   2.708
38171W        W10464  39.004  29.136   2.390
38172W        W10465   0.369   4.920   3.862
38173W        W10466  22.136   0.778  10.544
38174W        W10467  16.619  25.613  12.385
38175W        W10468  39.501   6.239   1.260
38176W        W10469  11.700   7.800   0.937
38177W        W10470  36.848  17.686  11.015
38178W        W10471  12.136  22.679   4.665
38179W        W10472  17.184  20.556   2.877
38180W        W10473  34.897  41.431  13.453
38181W        W10474  31.437  18.132  10.966
38182W        W10475   3.300  32.495  11.993
38183W        W10476  20.272  14.275  12.981
38184W        W10477  24.604  31.529   4.251
38185W        W10478  34.588  36.008   4.260
38186W        W10479  21.536   6.329  10.942
38187W        W10480  39.040  37.840   3.869
38188W        W10481  37.452   9.155  14.425
38189W        W10482  38.969  39.959  14.011
38190W        W10483  43.996  12.746   0.316
38191W        W10484  17.233  16.783  12.923
38192W        W10485   2.387  21.145   2.210
38193W        W10486  26.559  27.042  11.021
38194W        W10487  26.005  32.055  13.039
38195W        W10488  38.056  28.034  12.944
38196W        W10489  11.347  15.643  12.057
38197W        W10490  19.674   0.301  14.880
38198W        W10491   1.821  39.842   1.900
38199W        W10492  25.502  18.597  10.889
38200W        W10493  29.124   7.416   2.771
38201W        W10494  23.147   6.230   3.264
38202W        W10495   1.353   8.749   2.708
38203W        W10496  19.175   3.742   3.814
38204W        W10497  16.105  30.975  13.044
38205W        W10498  28.954   5.307   2.351
38206W        W10499  26.189  14.642  10.583
38207W        W10500  35.109  22.634  12.450
38208W        W10501  32.476   3.363   1.426
38209W        W10502   1.907  24.141   4.164
38210W        W10503  24.176  14.691  11.986
38211W        W10504  22.196  43.291  13.369
38212W        W10505  15.205  17.665   4.698
38213W        W10506   4.230   6.232   4.648
38214W        W10507  15.681  40.477  12.006
38215W        W10508  33.020  17.748   2.194
38216W        W10509  34.867   0.798  13.881
38217W        W10510  19.106  32.921  10.120
38218W        W10511  26.987  12.312  10.452
38219W        W10512   2.234  10.848  10.470
38220W        W10513  19.556  15.707  12.032
38221W        W10514  13.687  32.446   4.216
38222W        W10515  43.375  37.466  14.466
38223W        W10516   1.424  32.489   4.766
38224W        W10517  34.027  41.865  13.478
38225W        W10518  34.087  10.790   1.341
38226W        W10519  25.978  17.606  11.893
38227W        W10520  12.782   6.777  13.963
38228W        W10521  17.750  27.608  12.975
38229W        W10522  26.684   4.799   2.282
38230W        W10523  16.804  43.982   0.799
38231W        W10524  37.039  27.122   0.412
38232W        W10525  39.348  30.458  12.575
38233W        W10526  32.501  23.667  13.035
38234W        W10527  29.506  34.937   2.265
38235W        W10528  42.321   7.804  14.480
38236W        W10529   4.756  27.130   0.953
38237W        W10530  30.589  14.104   0.405
38238W        W10531  20.236  28.570  14.452
38239W        W10532  34.881   6.224   3.183
38240W        W10533   7.379   3.226   3.730
38241W        W10534  37.894  36.086  13.382
38242W        W10535  39.392  22.681   4.680
38243W        W10536  38.384  30.614   0.402
38244W        W10537  21.022   6.843   0.738
38245W        W10538  33.079  22.592   4.348
38246W        W10539  28.668  12.763   3.331
38247W        W10540   8.760  42.806   1.898
38248W        W10541  16.083  30.487  14.849
38249W        W10542  32.016  12.645   1.409
38250W        W10543   2.350  26.633  14.926
38251W        W10544  30.990  14.290  10.072
38252W        W10545  26.206   9.889   0.417
38253W        W10546  24.715   9.727  11.960
38254W        W10547  44.787  18.563   4.662
38255W        W10548   0.301   1.364   1.221
38256W        W10549  27.069  13.186  11.110
38257W        W10550  33.044  16.274  14.869
38258W        W10551  13.122  29.165  10.029
38259W        W10552  27.508  21.540  13.822
38260W        W10553  10.193  10.292  14.485
38261W        W10554   8.405   4.923  13.862
38262W        W10555   3.930  35.004  14.790
38263W        W10556   8.674  42.862  11.120
38264W        W10557  26.626  23.111  10.027
38265W        W10558  31.501  25.701  12.404
38266W        W10559  37.086  37.495  13.480
38267W        W10560  28.078  13.139  11.862
38268W        W10561  35.901   8.405   3.182
38269W        W10562  12.302  38.855  11.553
38270W        W10563  12.754  16.711   1.427
38271W        W10564  36.928   9.368   0.319
38272W        W10565   1.958  27.525   1.210
38273W        W10566  27.508  24.514   9.546
38274W        W10567  31.993  13.840  14.928
38275W        W10568  27.524  19.745   4.340
38276W        W10569  15.814  16.672  14.879
38277W        W10570  38.869  11.820   3.852
38278W        W10571  22.173  26.542   1.350
38279W        W10572  40.332  26.560  10.098
38280W        W10573  40.872   7.318  14.333
38281W        W10574  37.395   2.770   1.357
38282W        W10575  19.622  41.376  11.495
38283W        W10576  22.680  20.230   4.712
38284W        W10577  12.277  20.274  13.460
38285W        W10578   5.765  25.512   1.920
38286W        W10579  18.165  19.557  14.949
38287W        W10580  42.445  32.614  14.783
38288W        W10581  38.439  24.171   4.669
38289W        W10582  22.210   1.296   0.291
38290W        W10583   6.270  25.143  13.851
38291W        W10584  14.679  32.508   2.676
38292W        W10585  21.691  39.536   1.773
38293W        W10586   0.867   8.307  11.117
38294W        W10587  19.601   1.354  13.050
38295W        W10588   5.335  22.194  14.353
38296W        W10589  36.384  38.543   4.137
38297W        W10590  36.353  14.144   1.892
38298W        W10591  18.599  37.935   1.708
38299W        W10592  16.797   0.824  14.336
38300W        W10593  25.157   9.372  13.853
38301W        W10594  39.346  19.696   0.381
38302W        W10595  36.349  13.220  13.833
38303W        W10596  20.123   6.746   4.755
38304W        W10597  35.989  20.688  11.584
38305W        W10598  32.913   4.739   1.398
38306W        W10599  16.645   4.295  11.115
38307W        W10600   7.701   6.748   1.893
38308W        W10601  44.979   1.329  14.288
38309W        W10602  26.637  34.605  11.012
38310W        W10603  40.333   5.387   0.244
38311W        W10604   2.370  14.661   1.857
38312W        W10605  31.448   9.651  10.046
38313W        W10606  26.101   3.840   4.352
38314W        W10607  20.608   1.744  10.599
38315W        W10608  20.529  27.032   4.307
38316W        W10609  37.064  20.682   3.294
38317W        W10610  12.725   7.675  12.018
38318W        W10611  29.447  24.048   3.265
38319W        W10612  36.042  44.300  12.999
38320W        W10613  27.167  16.073  13.918
38321W        W10614  15.750  39.397  11.433
38322W        W10615   4.272   0.888  13.063
38323W        W10616  44.345   8.837  12.427
38324W        W10617   2.244  29.086  11.393
38325W        W10618  13.236   8.740   1.339
38326W        W10619  34.959   5.856   1.876
38327W        W10620  31.908   0.912  12.005
38328W        W10621   4.761   0.800  12.466
38329W        W10622  14.649  29.157  11.550
38330W        W10623  23.199  37.945   3.796
38331W        W10624   9.394  28.062  12.343
38332W        W10625  21.580   5.385  11.939
38333W        W10626  24.627  29.125  11.969
38334W        W10627  27.979  32.004   3.786
38335W        W10628  21.649  43.978  12.069
38336W        W10629  16.722  23.187   4.760
38337W        W10630  29.928   8.698  13.920
38338W        W10631  36.978  17.789   1.825
38339W        W10632  37.853  26.625  13.538
38340W        W10633  30.128  38.899   3.158
38341W        W10634   3.885  36.963  11.945
38342W        W10635  15.255  35.969   3.383
38343W        W10636   3.835  43.865   0.473
38344W        W10637  14.210  20.196   4.250
38345W        W10638   4.437  14.182   2.370
38346W        W10639  13.679  25.512  11.587
38347W        W10640  22.710  44.974   4.276
38348W        W10641   6.286  10.157  13.376
38349W        W10642  14.777   1.253  13.033
38350W        W10643  32.020   1.967   2.726
38351W        W10644  36.372  17.587   0.417
38352W        W10645  18.251  11.226   4.312
38353W        W10646  15.657  29.437  13.383
38354W        W10647  35.913  12.722   1.846
38355W        W10648  12.749  40.989  11.423
38356W        W10649   5.382  37.889  13.894
38357W        W10650  23.030   5.826   4.681
38358W        W10651  34.965  34.978  12.950
38359W        W10652   3.890  36.364  13.365
38360W        W10653  36.083  13.171  14.032
38361W        W10654   5.372  26.005  12.913
38362W        W10655  36.390  13.825   2.725
38363W        W10656  35.478  24.564   2.670
38364W        W10657  10.657  38.904   1.902
38365W        W10658   1.887  26.618  11.503
38366W        W10659  34.937  33.514  14.930
38367W        W10660  13.736   9.160  13.872
38368W        W10661  25.069   2.902  12.079
38369W        W10662   5.929  24.626  14.326
38370W        W10663  38.351  40.538   1.278
38371W        W10664   0.326  32.636   2.249
38372W        W10665  44.998  15.648  10.100
38373W        W10666  22.207  26.985  10.501
38374W        W10667  14.197  12.689   1.843
38375W        W10668  27.576   7.911  14.323
38376W        W10669  19.116  31.141   5.211
38377W        W10670  43.448  41.310  14.771
38378W        W10671  24.037  13.672   1.933
38379W        W10672   8.177   8.718  12.926
38380W        W10673  23.537  18.772   3.257
38381W        W10674  26.093  36.068  11.447
38382W        W10675  20.728  44.970  13.810
38383W        W10676   6.380  18.631  14.884
38384W        W10677   3.333  23.137  12.019
38385W        W10678  10.143  44.009  12.423
38386W        W10679  31.636  20.717   0.885
38387W        W10680   4.870  34.901  13.417
38388W        W10681  41.403  14.741  13.940
38389W        W10682  34.559  25.503   2.244
38390W        W10683  36.034  12.359   1.700
38391W        W10684   4.271  39.934   3.859
38392W        W10685   9.861  10.803   4.238
38393W        W10686  21.194  28.124   0.753
38394W        W10687  42.850   4.401   0.424
38395W        W10688  16.212   4.886  10.559
38396W        W10689   5.353   6.856   2.390
38397W        W10690  18.656  19.191   0.850
38398W        W10691  43.794  18.555   3.804
38399W        W10692  19.761  38.939  13.439
38400W        W10693  23.659  36.366   0.800
38401W        W10694  40.820  41.328   1.292
38402W        W10695  34.867   4.780  12.992
38403W        W10696   6.379  33.964  10.997
38404W        W10697  32.092  44.825   2.223
38405W        W10698  17.226  24.507   4.802
38406W        W10699  24.014   4.886  11.511
38407W        W10700  37.515  10.678  12.399
38408W        W10701   8.298  31.097   0.345
38409W        W10702  42.509  27.071  14.465
38410W        W10703  37.520  22.640   4.327
38411W        W10704  15.207  34.098  11.993
38412W        W10705  41.968   9.185   0.931
38413W        W10706   9.246   3.446   0.952
38414W        W10707  34.103  25.972  12.854
38415W        W10708  44.285  15.577   4.775
38416W        W10709  28.996  25.205   4.814
38417W        W10710  38.969  39.551   2.401
38418W        W10711  31.529  29.055   1.366
38419W        W10712  35.543   8.205   2.778
38420W        W10713  22.657  11.233   1.814
38421W        W10714  35.858  18.255  11.527
38422W        W10715  21.056  21.597  10.969
38423W        W10716  28.657  16.774   3.794
38424W        W10717  44.278  14.201   3.258
38425W        W10718  40.372  35.863   0.432
38426W        W10719  11.247  35.584  14.883
38427W        W10720  43.305  37.033   3.698
38428W        W10721  39.844  12.320  13.460
38429W        W10722  26.958  27.554   0.812
38430W        W10723  22.680  28.969   1.260
38431W        W10724  38.067  33.512   3.674
38432W        W10725  39.962   9.796  10.643
38433W        W10726   8.854  29.142  12.361
38434W        W10727  26.020   3.346   5.188
38435W        W10728   9.822  20.155  11.398
38436W        W10729   9.748  36.523  11.581
38437W        W10730  34.922  23.081   2.243
38438W        W10731  39.535  26.626   0.964
38439W        W10732  21.548   6.839  12.374
38440W        W10733  15.152  38.529  12.431
38441W        W10734  11.188  22.726  10.974
38442W        W10735  28.100  11.278  11.464
38443W        W10736  30.452   2.281   4.181
38444W        W10737   6.213   9.266  14.404
38445W        W10738  15.155  17.767   0.419
38446W        W10739  32.885  32.563   1.793
38447W        W10740  32.006   2.814  14.796
38448W        W10741   4.781  24.020   4.764
38449W        W10742  42.800  31.006   0.362
38450W        W10743  21.757  39.896  13.344
38451W        W10744  41.982  39.977   3.855
38452W        W10745  35.409  38.867  10.423
38453W        W10746  17.655  11.793  13.372
38454W        W10747  23.659   3.734  10.436
38455W        W10748  38.910   6.909  11.027
38456W        W10749  16.758  38.396  13.540
38457W        W10750   9.325  15.581  13.481
38458W        W10751  29.963  41.924   1.372
38459W        W10752   1.939  10.795  13.857
38460W        W10753  41.939  14.687   0.293
38461W        W10754   7.859  40.491  14.990
38462W        W10755  29.529  19.203   0.919
38463W        W10756   1.342  38.959   4.334
38464W        W10757  39.831  15.704  12.506
38465W        W10758   7.758  41.925  13.399
38466W        W10759  31.984  21.692   0.933
38467W        W10760  41.903  19.151   4.279
38468W        W10761  43.950   3.226  10.513
38469W        W10762  27.193  24.533   4.242
38470W        W10763   8.670   3.268  12.081
38471W        W10764  40.540  38.437   3.747
38472W        W10765  27.048  42.312  12.905
38473W        W10766  16.791   2.258  14.408
38474W        W10767  40.830  16.802   4.230
38475W        W10768  40.545  36.867   1.264
38476W        W10769   4.382  37.003  12.996
38477W        W10770  41.493  30.494   4.625
38478W        W10771  28.437   2.412   4.317
38479W        W10772  10.820  12.817  14.780
38480W        W10773   2.360   2.747  10.600
38481W        W10774  34.936  16.248  12.997
38482W        W10775  42.401  36.586   9.541
38483W        W10776  20.533   8.394   1.841
38484W        W10777  16.237   6.244   1.735
38485W        W10778  23.207   6.720   2.236
38486W        W10779  36.862  15.154   3.681
38487W        W10780   2.273  40.343   0.403
38488W        W10781   7.224  24.529   3.351
38489W        W10782  37.408  23.203   2.329
38490W        W10783  11.162   3.379  12.511
38491W        W10784  25.647  15.776   5.121
38492W        W10785  14.828  20.529  12.891
38493W        W10786  25.602  23.086   0.956
38494W        W10787  28.081  27.139   2.301
38495W        W10788  40.426  14.255   3.868
38496W        W10789  26.167  31.932   4.154
38497W        W10790  17.787  23.176  14.454
38498W        W10791  11.308  36.468   3.732
38499W        W10792  20.206  23.044  12.513
38500W        W10793  25.202   3.221  12.413
38501W        W10794  33.928  39.321   4.754
38502W        W10795   9.255  42.873  11.541
38503W        W10796  44.859  16.120   1.382
38504W        W10797  29.170   4.404   4.770
38505W        W10798   6.875  26.060  11.594
38506W        W10799  27.941   0.348  11.400
38507W        W10800  38.827  12.293   2.870
38508W        W10801  35.929  30.111  11.992
38509W        W10802  18.169  42.344   0.773
38510W        W10803  41.860  44.788  12.974
38511W        W10804   5.258  19.603   2.822
38512W        W10805  34.405  25.579   0.303
38513W        W10806  31.040  29.971   3.813
38514W        W10807  36.890  20.162   4.703
38515W        W10808   6.381  39.461  10.907
38516W        W10809  33.880  43.318   1.431
38517W        W10810  12.655   4.829   3.673
38518W        W10811  22.110  39.009  13.877
38519W        W10812  31.547   2.285   4.326
38520W        W10813  30.507  31.603  12.857
38521W        W10814  36.099  20.042  14.430
38522W        W10815   3.387  31.028  12.007
38523W        W10816  39.408   3.233  14.359
38524W        W10817   7.696  42.360   2.730
38525W        W10818  27.942   2.926  12.967
38526W        W10819  44.403  13.713   2.353
38527W        W10820  32.066  10.176   9.925
38528W        W10821  20.056  37.337   4.262
38529W        W10822  29.522  35.048  10.449
38530W        W10823  10.859   4.365   2.316
38531W        W10824  24.481  12.198   3.641
38532W        W10825   4.316  27.597  13.910
38533W        W10826  33.986   0.494   3.343
38534W        W10827  37.339  39.324  10.636
38535W        W10828  29.437  44.337   2.893
38536W        W10829   9.878  32.017   0.334
38537W        W10830  23.998  39.810   0.287
38538W        W10831  11.811  30.636  10.579
38539W        W10832  13.128  37.008   4.205
38540W        W10833   7.853  17.784  11.931
38541W        W10834   3.802   3.427   0.759
38542W        W10835  15.314  28.652  13.799
38543W        W10836   9.788  28.006  10.898
38544W        W10837   9.229  42.483   3.216
38545W        W10838   5.380  19.583   0.957
38546W        W10839  30.126  13.838   0.404
38547W        W10840  35.882  33.460   1.777
38548W        W10841   8.367  35.545  11.534
38549W        W10842   1.818  16.664  12.501
38550W        W10843  44.463  21.110   1.717
38551W        W10844  33.417   8.295   4.347
38552W        W10845  36.585  22.747   2.890
38553W        W10846  29.484  29.919   4.326
38554W        W10847  44.846  10.203  14.339
38555W        W10848  41.371  13.140   1.832
38556W        W10849  32.615  24.709  11.052
38557W        W10850   5.873   8.335  11.865
38558W        W10851  20.661  35.372   4.129
38559W        W10852  44.305  24.040   3.333
38560W        W10853  44.359  42.504  11.545
38561W        W10854  23.152  27.002  12.997
38562W        W10855  39.858   0.829   0.292
38563W        W10856  39.810  12.636  13.429
38564W        W10857  37.538  39.932   2.705
38565W        W10858  33.890  41.427  14.489
38566W        W10859  34.614  19.704  12.825
38567W        W10860   7.729   9.202   0.369
38568W        W10861  30.989  22.029  11.419
38569W        W10862  15.726  32.981   4.668
38570W        W10863  16.735  31.591   4.249
38571W        W10864   7.414   3.460  11.567
38572W        W10865   3.880  30.918  14.768
38573W        W10866  23.657  25.088  14.837
38574W        W10867  28.002  23.695  11.599
38575W        W10868  12.718   1.740  14.410
38576W        W10869  16.154   8.196  14.514
38577W        W10870  16.294  16.637   2.370
38578W        W10871  40.881  21.214   5.115
38579W        W10872  15.796  27.454   1.757
38580W        W10873  26.989   2.781   4.824
38581W        W10874  34.565  27.161   3.717
38582W        W10875  11.333   9.716   4.720
38583W        W10876  32.062  44.456   4.318
38584W        W10877  25.509  21.115  11.482
38585W        W10878  40.537  29.039  14.357
38586W        W10879  43.766  24.504   0.795
38587W        W10880   9.302  19.148  13.834
38588W        W10881  34.542  32.452  13.053
38589W        W10882  14.280   6.336  10.592
38590W        W10883   8.832  29.424   3.183
38591W        W10884  31.077  21.134  14.993
38592W        W10885  29.089  27.085  11.091
38593W        W10886  33.904  30.582   0.885
38594W        W10887  42.822  17.735   1.357
38595W        W10888  14.285   4.387  10.614
38596W        W10889  11.860  11.321   1.780
38597W        W10890  42.341  36.530  11.443
38598W        W10891  40.852  33.945  14.016
38599W        W10892  32.081  15.738  14.905
38600W        W10893  37.979  32.895   3.668
38601W        W10894  33.882   4.923  10.601
38602W        W10895  42.307  13.295   2.298
38603W        W10896  34.398   3.835  12.350
38604W        W10897  30.651   8.274  11.566
38605W        W10898  42.435  30.918  12.420
38606W        W10899   2.352  41.399   3.704
38607W        W10900  27.456  16.194  12.438
38608W        W10901   0.264  11.628  11.117
38609W        W10902  12.195  35.970  10.597
38610W        W10903  24.129  12.334   0.435
38611W        W10904  31.944  21.657  12.555
38612W        W10905   3.856   6.242   3.840
38613W        W10906  24.117   3.271  11.894
38614W        W10907  31.092  27.097   3.804
38615W        W10908  30.095   5.380  11.876
38616W        W10909  22.252  34.956  12.937
38617W        W10910   3.293   6.845   1.257
38618W        W10911  11.186  34.916   4.186
38619W        W10912  27.584  33.043  13.393
38620W        W10913  25.171  26.648  12.039
38621W        W10914  16.761  31.427  13.041
38622W        W10915  37.481  18.214   1.308
38623W        W10916  22.551  24.178   0.835
38624W        W10917   6.265  38.388  13.838
38625W        W10918  42.900  27.620  10.116
38626W        W10919  29.500  43.946   1.343
38627W        W10920  30.154   2.351  11.527
38628W        W10921  18.060  43.341   0.460
38629W        W10922  16.672  11.765  11.914
38630W        W10923  37.476  10.821  14.838
38631W        W10924   0.847  13.249   1.324
38632W        W10925  19.730  35.957  12.353
38633W        W10926   5.377  39.495   1.288
38634W        W10927  28.461  16.578  12.502
38635W        W10928   9.266  20.591   0.349
38636W        W10929   3.305  33.532  14.445
38637W        W10930  22.114   2.872   0.870
38638W        W10931   4.255  34.573   2.207
38639W        W10932  43.438  25.012  12.932
38640W        W10933  40.799  43.371   1.908
38641W        W10934  43.333  11.813  11.537
38642W        W10935   6.726  23.736   2.336
38643W        W10936  17.140   4.895   0.734
38644W        W10937   7.691  15.757   0.285
38645W        W10938  19.209  39.831  11.508
38646W        W10939  33.023  10.374  11.930
38647W        W10940   4.322  12.692  12.371
38648W        W10941   7.854  42.406  11.947
38649W        W10942   1.474  14.651  14.457
38650W        W10943  24.660  38.001   2.888
38651W        W10944  19.095  32.040  13.372
38652W        W10945   6.357   7.679  11.524
38653W        W10946  30.032  10.138   0.396
38654W        W10947   4.889  27.162   3.730
38655W        W10948  42.483   4.832  13.799
38656W        W10949  44.985  33.942   4.670
38657W        W10950  16.179  24.674  14.776
38658W        W10951  21.611  18.183   2.700
38659W        W10952   8.816  34.054   4.742
38660W        W10953  33.394  36.382   3.163
38661W        W10954   1.948  15.128  10.966
38662W        W10955  44.844  29.978   2.251
38663W        W10956  27.987  10.791   1.330
38664W        W10957  23.126  37.997   2.247
38665W        W10958  27.953  15.719   0.373
38666W        W10959   5.757  10.161  12.060
38667W        W10960  14.798  20.736   1.349
38668W        W10961   4.434   3.887  11.938
38669W        W10962  29.513  19.249  12.041
38670W        W10963  33.120  28.492   1.755
38671W        W10964   6.852  16.765  13.011
38672W        W10965  17.625  40.011   3.288
38673W        W10966  42.325  33.118  11.128
38674W        W10967  34.424  37.869   3.275
38675W        W10968  22.028  38.455  13.504
38676W        W10969  20.189   3.797   2.865
38677W        W10970  13.619   2.864   3.647
38678W        W10971  14.270  37.849  11.610
38679W        W10972  22.042   3.920   4.234
38680W        W10973  22.740  33.986   0.297
38681W        W10974  11.234  22.718  14.803
38682W        W10975  43.282  26.656   2.370
38683W        W10976  29.430  19.053  13.444
38684W        W10977   7.842   0.270  10.424
38685W        W10978  43.487  33.010   4.232
38686W        W10979  21.163   1.736   1.721
38687W        W10980  11.220  42.447  10.906
38688W        W10981  20.184  39.536  11.044
38689W        W10982  24.683  18.249   3.656
38690W        W10983   9.657  27.068  14.796
38691W        W10984  32.904  16.753   4.703
38692W        W10985  20.662  29.432  12.423
38693W        W10986  14.675  29.428   2.873
38694W        W10987  11.782  19.277  11.959
38695W        W10988  28.658  27.964  14.335
38696W        W10989  17.270   6.742  12.863
38697W        W10990  17.790  32.055   2.665
38698W        W10991  24.072  43.990  12.958
38699W        W10992  21.206  26.515  10.954
38700W        W10993  18.109   0.763  14.767
38701W        W10994  25.154  39.342  11.117
38702W        W10995  24.230  26.571  10.587
38703W        W10996  17.257  36.365   4.308
38704W        W10997  32.007  11.174   1.726
38705W        W10998  21.530  38.824  12.999
38706W        W10999  11.844  31.490   3.334
38707W        W11000  44.453   3.241  10.100
38708W        W11001   0.351  33.906   5.093
38709W        W11002  20.603  12.117  11.064
38710W        W11003  26.999  12.770  10.912
38711W        W11004  16.140  26.596  13.946
38712W        W11005  15.638  43.866   0.306
38713W        W11006  26.064  22.212  13.937
38714W        W11007  12.154   2.440   9.953
38715W        W11008   4.771  38.541  14.437
38716W        W11009  31.137  15.615   4.157
38717W        W11010  33.877   0.306  13.908
38718W        W11011  27.069  11.711   2.683
38719W        W11012  31.926  21.562   3.217
38720W        W11013   3.288  21.679   1.269
38721W        W11014  22.156  35.921   4.640
38722W        W11015  10.782  15.158  12.043
38723W        W11016  33.902  16.791  10.944
38724W        W11017   6.359  29.659   2.771
38725W        W11018  27.959  17.577  14.466
38726W        W11019  33.979   6.700   0.479
38727W        W11020  23.199   5.208  11.553
38728W        W11021  26.140  37.046   2.895
38729W        W11022  24.497  12.610  12.005
38730W        W11023  33.423  38.959  13.416
38731W        W11024  13.277  42.514  12.510
38732W        W11025  26.682   5.198   4.201
38733W        W11026  23.237   3.834  13.500
38734W        W11027  23.006  38.974  10.938
38735W        W11028  35.087  43.469   3.339
38736W        W11029  26.178   6.231   0.960
38737W        W11030  32.973  34.898  14.319
38738W        W11031  18.203  11.227   0.256
38739W        W11032  40.342   8.219   1.222
38740W        W11033  39.372  32.932  13.807
38741W        W11034  12.654  29.477  12.089
38742W        W11035  39.355  23.050  10.573
38743W        W11036  23.166  10.226   4.682
38744W        W11037  14.705  29.919   1.747
38745W        W11038  42.802   7.882   3.211
38746W        W11039   6.881  37.452   1.420
38747W        W11040  22.122  43.506  13.905
38748W        W11041   9.743  36.965   0.780
38749W        W11042  14.278  11.628  13.313
38750W        W11043  32.424  10.703   3.779
38751W        W11044  29.543   6.374   2.266
38752W        W11045   9.250  29.121  14.501
38753W        W11046   0.762   9.697  10.487
38754W        W11047  17.306   5.725  11.390
38755W        W11048  26.638  29.060  14.940
38756W        W11049  35.015  38.505  10.953
38757W        W11050  18.715  19.058  14.917
38758W        W11051  18.224  15.732  10.474
38759W        W11052  37.836  23.552  12.532
38760W        W11053   1.368  37.876  12.860
38761W        W11054  28.084  11.357  12.998
38762W        W11055  18.689  24.579  11.379
38763W        W11056  22.116  19.555  14.324
38764W        W11057  15.780   5.403  13.547
38765W        W11058  34.067  23.990   0.942
38766W        W11059  22.214  13.836   2.252
38767W        W11060   9.809  18.764  14.318
38768W        W11061   5.396  35.434   0.927
38769W        W11062  42.019  27.510   0.407
38770W        W11063  37.881   9.350  11.588
38771W        W11064  40.536  36.959   2.248
38772W        W11065  10.282  18.614   4.299
38773W        W11066  22.584   1.467  13.337
38774W        W11067  31.426  38.069  11.865
38775W        W11068  12.152  17.158   3.725
38776W        W11069  13.702  29.424  10.990
38777W        W11070   8.259  19.630  12.350
38778W        W11071   4.759   0.771  14.998
38779W        W11072   5.262  20.765   1.229
38780W        W11073  13.643  30.472   2.310
38781W        W11074  13.167  18.608  14.462
38782W        W11075  16.221   2.882  11.478
38783W        W11076  42.473   1.483   2.831
38784W        W11077  39.906   9.670  12.537
38785W        W11078  20.757  39.421   0.805
38786W        W11079  31.471  34.932   3.817
38787W        W11080  43.810  37.950  11.394
38788W        W11081  33.076  31.420  10.985
38789W        W11082  31.066  12.675  14.011
38790W        W11083  20.767  11.260   1.725
38791W        W11084  38.026  27.658  14.422
38792W        W11085  43.902  27.610  14.301
38793W        W11086  17.615  20.059  11.402
38794W        W11087  39.039  12.814  13.984
38795W        W11088  40.475  30.525   4.146
38796W        W11089   9.233  41.817   3.852
38797W        W11090  39.483  29.074  13.823
38798W        W11091  41.038   3.241  12.557
38799W        W11092  35.887  42.502  10.528
38800W        W11093  21.259  17.190   0.258
38801W        W11094  38.407  28.066  10.594
38802W        W11095   8.847   7.685  12.481
38803W        W11096  42.973  14.326   4.337
38804W        W11097  37.973  19.610  13.942
38805W        W11098  40.495  13.814   4.225
38806W        W11099  20.563  39.889   0.481
38807W        W11100  29.964  32.512   4.114
38808W        W11101   1.834  20.117   4.829
38809W        W11102  26.568  38.447   3.766
38810W        W11103  36.878  31.102  12.094
38811W        W11104  28.180   0.750  10.467
38812W        W11105  43.935  29.609   1.897
38813W        W11106  14.240  26.970   0.428
38814W        W11107  24.063   5.391   4.769
38815W        W11108  35.561  19.274  14.354
38816W        W11109  18.061  42.857  11.886
38817W        W11110  31.031  30.067  12.070
38818W        W11111  33.994  21.662  12.937
38819W        W11112  20.647  26.550   0.924
38820W        W11113  33.881  35.068  10.985
38821W        W11114  36.434  15.088  10.640
38822W        W11115  44.445  21.698   1.751
38823W        W11116  19.642   1.300  10.465
38824W        W11117  20.572   6.696  13.334
38825W        W11118  27.580   5.428  10.967
38826W        W11119  44.767  35.372  13.946
38827W        W11120  13.739  15.179   4.130
38828W        W11121  10.676  19.775   5.111
38829W        W11122  21.515   2.870   3.225
38830W        W11123   2.732   9.304  11.415
38831W        W11124  20.178  15.714  10.099
38832W        W11125   8.758  15.110   2.220
38833W        W11126  12.794  18.746   3.216
38834W        W11127   2.299  25.200   4.243
38835W        W11128   6.396   8.716  11.548
38836W        W11129  15.626  32.909   0.859
38837W        W11130  37.919  36.953  14.900
38838W        W11131  27.507  13.205   3.308
38839W        W11132  18.622   5.418   0.745
38840W        W11133   4.375  12.177  12.561
38841W        W11134   9.347   5.435  12.506
38842W        W11135  22.114  19.201   0.464
38843W        W11136  18.682  32.490  12.431
38844W        W11137  35.590   4.754  13.964
38845W        W11138  44.327  31.444   1.224
38846W        W11139  42.435  43.506  11.530
38847W        W11140  28.092  30.494   1.750
38848W        W11141  39.956  42.026   2.255
38849W        W11142  25.180  40.331   1.302
38850W        W11143  38.331  39.033  14.412
38851W        W11144  24.130  15.731   3.267
38852W        W11145   5.359  16.616  12.048
38853W        W11146   7.353  24.509   2.844
38854W        W11147  19.603  17.135   1.771
38855W        W11148  19.153  39.434  13.971
38856W        W11149  10.686  32.123  10.448
38857W        W11150  30.001  24.500  12.349
38858W        W11151  17.188  25.573  12.369
38859W        W11152   9.326  37.935   0.908
38860W        W11153  21.594  36.094  13.328
38861W        W11154  39.037  35.528   4.686
38862W        W11155  29.635   8.726  10.536
38863W        W11156  38.029  31.622   3.860
38864W        W11157   0.841  33.567   1.215
38865W        W11158   9.191   8.204  12.948
38866W        W11159  27.048  21.188   4.243
38867W        W11160  20.259  12.335   3.824
38868W        W11161  35.869  23.187  12.398
38869W        W11162  25.549  28.012   3.698
38870W        W11163  22.118  43.932  11.600
38871W        W11164  38.932  34.956   1.909
38872W        W11165  15.600   8.678   0.867
38873W        W11166  25.506   0.782  13.031
38874W        W11167  33.403  19.655   9.957
38875W        W11168  35.439   0.982   2.803
38876W        W11169  38.397  40.509   4.708
38877W        W11170  38.926  32.036  14.011
38878W        W11171   8.402  40.519  14.372
38879W        W11172  16.114  23.530   2.237
38880W        W11173  25.055  33.995   1.424
38881W        W11174   1.424  16.276  12.034
38882W        W11175  32.905  29.082   1.714
38883W        W11176  33.402  22.059   4.734
38884W        W11177  10.338   3.877   3.191
38885W        W11178  26.037   0.255   1.404
38886W        W11179  27.070  25.125   3.659
38887W        W11180  27.017  17.698  12.063
38888W        W11181   3.450  16.226  11.539
38889W        W11182   3.272  29.609   5.158
38890W        W11183  14.333   5.843  13.992
38891W        W11184  43.845  24.615   0.352
38892W        W11185  13.240   9.784  11.937
38893W        W11186  39.349   9.659  12.968
38894W        W11187   1.903  30.120   4.820
38895W        W11188  35.044   1.858  10.037
38896W        W11189  36.588  22.158  11.032
38897W        W11190   5.391  13.191   3.197
38898W        W11191  12.334   1.874   2.855
38899W        W11192  44.855   6.725   1.908
38900W        W11193  20.531  10.353   1.303
38901W        W11194  25.158  38.042  11.012
38902W        W11195  20.693   9.209   3.342
38903W        W11196  21.526  23.675  13.988
38904W        W11197  20.197   9.777   1.321
38905W        W11198  23.569  30.493  12.078
38906W        W11199  18.582  42.284   4.148
38907W        W11200  40.476  42.972   1.213
38908W        W11201   1.925  43.438   0.913
38909W        W11202  18.273  31.642  14.836
38910W        W11203  16.590  27.034  14.389
38911W        W11204  21.534  23.038   1.225
38912W        W11205  15.260  43.919  10.994
38913W        W11206  40.351   8.364  12.845
38914W        W11207  42.954  18.593  14.335
38915W        W11208  32.914  26.003   3.378
38916W        W11209  23.582   2.312   0.379
38917W        W11210  25.654  31.451  13.448
38918W        W11211  17.735  27.599   4.605
38919W        W11212  28.590  41.980   2.807
38920W        W11213  34.533  10.283   0.327
38921W        W11214  20.554  39.928  13.415
38922W        W11215   6.234  31.478  10.530
38923W        W11216  37.055  17.771   3.361
38924W        W11217  24.547  24.709  12.091
38925W        W11218  23.681  10.862   3.254
38926W        W11219  13.327  12.240  13.461
38927W        W11220  38.916  32.080   0.760
38928W        W11221  43.885  32.464  13.348
38929W        W11222  18.663  24.083   2.705
38930W        W11223   7.826  12.642   4.746
38931W        W11224   1.939  42.465  13.404
38932W        W11225  33.061   8.176  11.390
38933W        W11226   5.740  26.512   2.378
38934W        W11227  24.191  32.063   4.674
38935W        W11228  31.028  20.201  14.837
38936W        W11229  17.155  38.329   2.706
38937W        W11230   5.221  23.489   4.190
38938W        W11231   4.866  18.163  10.576
38939W        W11232   1.783  17.157  13.370
38940W        W11233  19.717  24.053   5.110
38941W        W11234   7.753  37.015   5.708
38942W        W11235  34.408  18.051   0.869
38943W        W11236  26.060  24.148   4.763
38944W        W11237  32.622  34.865   0.861
38945W        W11238  33.527  36.517  13.493
38946W        W11239  28.179  43.409   1.790
38947W        W11240  11.305  42.997   0.389
38948W        W11241  32.991  38.952   4.830
38949W        W11242   8.318  14.820  10.951
38950W        W11243  34.606  19.725   0.273
38951W        W11244   3.432   0.427   3.176
38952W        W11245  38.027  19.077  13.454
38953W        W11246   6.190  38.968  14.474
38954W        W11247  40.902  29.116   1.295
38955W        W11248  11.726  23.069  12.918
38956W        W11249   0.289  34.604  14.028
38957W        W11250  28.473  42.503   4.814
38958W        W11251  28.563  15.125  12.915
38959W        W11252  22.067   5.349   0.888
38960W        W11253  31.952  17.634  11.509
38961W        W11254  27.996   0.927  14.376
38962W        W11255  15.725  17.177  14.912
38963W        W11256  15.584  16.675  13.996
38964W        W11257  24.612  34.449   0.933
38965W        W11258  32.418  13.292  14.281
38966W        W11259  18.564  29.992   3.812
38967W        W11260   8.744  38.560  13.478
38968W        W11261   3.936  33.439   1.450
38969W        W11262  22.011  39.872   0.327
38970W        W11263  32.044  28.101  14.355
38971W        W11264  25.180  26.595  14.365
38972W        W11265  21.598   5.888   4.145
38973W        W11266   5.886  17.606  13.503
38974W        W11267  27.023  25.097   1.418
38975W        W11268  14.223  28.145   4.195
38976W        W11269   7.786  27.024   3.203
38977W        W11270   7.268   3.889   1.396
38978W        W11271   6.900   6.204   1.914
38979W        W11272  24.559  18.254   1.291
38980W        W11273   3.887  13.207   4.833
38981W        W11274  19.203  41.018   1.245
38982W        W11275  19.050   3.353   2.220
38983W        W11276  24.706  12.227  13.947
38984W        W11277  38.376  29.979   2.253
38985W        W11278  33.909  28.961  14.991
38986W        W11279  34.042   2.785   3.759
38987W        W11280  35.968  15.179   4.276
38988W        W11281  19.266  24.540   1.290
38989W        W11282  17.168  10.708  10.908
38990W        W11283   1.891  10.328  11.968
38991W        W11284  24.191  29.507  11.546
38992W        W11285  18.282  16.570  12.934
38993W        W11286  34.507  44.956  10.555
38994W        W11287  21.573  20.698   4.717
38995W        W11288  40.998  19.210   0.758
38996W        W11289  11.853   8.303  12.542
38997W        W11290  38.926  30.510  14.881
38998W        W11291  22.164  25.532  14.492
38999W        W11292  21.068  16.765   2.755
39000W        W11293  41.803   1.751   3.648
39001W        W11294  34.013  40.990  14.511
39002W        W11295  30.984   8.674   1.738
39003W        W11296  26.067  35.467   2.757
39004W        W11297  11.146  11.649   4.130
39005W        W11298  25.489   7.693   3.640
39006W        W11299  34.470  13.784   1.364
39007W        W11300   7.815  33.425   0.444
39008W        W11301  44.968  25.105  13.433
39009W        W11302   2.947   8.300  10.406
39010W        W11303   6.199  39.551  12.470
39011W        W11304  36.003  29.579   1.303
39012W        W11305   0.839  17.744  10.918
39013W        W11306  34.917  13.230   2.209
39014W        W11307  44.969   5.224  10.444
39015W        W11308  22.105  17.582  10.994
39016W        W11309  13.242  15.199  10.595
39017W        W11310  42.328  14.210   0.801
39018W        W11311   3.402  19.544   4.626
39019W        W11312  22.245   5.893   4.307
39020W        W11313  25.103  31.040  10.594
39021W        W11314  42.871   0.427  13.433
39022W        W11315  40.546  32.502  13.528
39023W        W11316  13.766   9.234   4.324
39024W        W11317  44.458  21.655  11.094
39025W        W11318   6.233   6.870   0.835
39026W        W11319  10.654  10.695   0.871
39027W        W11320  28.999  16.601  14.824
39028W        W11321  29.651  12.325   2.257
39029W        W11322  15.229  37.984   1.339
39030W        W11323  31.450  26.025  14.288
39031W        W11324   6.227  11.304  10.093
39032W        W11325  20.127  15.608   1.332
39033W        W11326   0.759   0.269  11.056
39034W        W11327  24.083   5.324  11.959
39035W        W11328   2.401  44.321   0.919
39036W        W11329  41.375  15.169   2.843
39037W        W11330  38.408  37.880  13.425
39038W        W11331   7.260  40.361   0.464
39039W        W11332  18.282  17.184  12.992
39040W        W11333  21.044  17.643   2.682
39041W        W11334  33.057  37.527  14.321
39042W        W11335   8.304  44.770   1.381
39043W        W11336  38.453   5.702   3.731
39044W        W11337  36.948  11.710  12.460
39045W        W11338  18.163   6.414   1.243
39046W        W11339  14.304   5.811   3.340
39047W        W11340   6.679  14.629  11.953
39048W        W11341  10.185   2.915  10.527
39049W        W11342  17.792  26.977  14.964
39050W        W11343  43.012  30.551   0.308
39051W        W11344  24.166  32.069   4.181
39052W        W11345  35.501  32.042   0.415
39053W        W11346  19.086   3.294  13.927
39054W        W11347   6.341  18.563  12.423
39055W        W11348  33.419  41.350  11.506
39056W        W11349  15.798  28.645   5.168
39057W        W11350  23.657  26.666  11.036
39058W        W11351  36.416  15.326   0.743
39059W        W11352  13.659   3.821   1.733
39060W        W11353  38.460  28.171  14.799
39061W        W11354  41.365  25.535  14.346
39062W        W11355  22.665  28.569   4.650
39063W        W11356  36.922   0.273  14.422
39064W        W11357  44.927  26.528   4.352
39065W        W11358  12.329  31.603  13.311
39066W        W11359  27.503  26.070   4.234
39067W        W11360  38.899   7.699   4.746
39068W        W11361  10.149   2.877  14.375
39069W        W11362   6.293  17.583   4.606
39070W        W11363  40.396   0.935   2.202
39071W        W11364  20.216  14.729   3.697
39072W        W11365  17.744  17.695   2.744
39073W        W11366  20.154  21.034   4.757
39074W        W11367  17.668  36.499   2.840
39075W        W11368  39.420   4.270   2.419
39076W        W11369  22.106   4.433   0.456
39077W        W11370  42.803  10.230   3.325
39078W        W11371  28.984  15.151  11.482
39079W        W11372  27.107  41.976  12.375
39080W        W11373  42.340  37.539  12.441
39081W        W11374   6.344  41.441   4.716
39082W        W11375  34.013   4.826   0.244
39083W        W11376  24.665  42.306  12.027
39084W        W11377  23.644   3.381  14.010
39085W        W11378  27.051  14.818  13.328
39086W        W11379  24.031  11.191  10.564
39087W        W11380  15.594  12.276   4.301
39088W        W11381   8.380  21.062   0.839
39089W        W11382   2.801  37.050   3.664
39090W        W11383  23.520  25.168  13.973
39091W        W11384  12.614  33.402   3.338
39092W        W11385  18.660  19.714   1.853
39093W        W11386  25.638  44.875   4.151
39094W        W11387  42.012  29.119   4.126
39095W        W11388  14.596  20.273   3.682
39096W        W11389   3.223  43.908  14.479
39097W        W11390  10.270  23.079   4.690
39098W        W11391  15.620  33.422  12.520
39099W        W11392   9.183   9.335  13.812
39100W        W11393  31.112   5.741   3.658
39101W        W11394  21.175  17.785  11.587
39102W        W11395  31.498  16.220  11.052
39103W        W11396  17.275  16.582   4.298
39104W        W11397  16.076  19.197   0.410
39105W        W11398  33.580  13.135  10.967
39106W        W11399  10.166  20.245  11.073
39107W        W11400  24.138  37.391   1.749
39108W        W11401  34.020  18.231  10.459
39109W        W11402  31.114   2.283  12.866
39110W        W11403  39.826   2.852   1.812
39111W        W11404  38.569  34.507   3.253
39112W        W11405  25.561  34.916  14.782
39113W        W11406  22.023  35.387  13.930
39114W        W11407   5.811  12.332  10.466
39115W        W11408  40.461  20.084   4.670
39116W        W11409  30.483   5.890   2.686
39117W        W11410  12.689  20.578   3.766
39118W        W11411   4.874  35.502  14.853
39119W        W11412  13.291   8.677   2.358
39120W        W11413   9.857  31.416  12.365
39121W        W11414   6.323  34.547  13.481
39122W        W11415  32.066  17.789   1.221
39123W        W11416  36.364  27.667   1.223
39124W        W11417   2.445  10.235  12.514
39125W        W11418  43.835  30.539  14.912
39126W        W11419  43.442  22.094   2.780
39127W        W11420  25.709  10.758  10.981
39128W        W11421   6.885  35.374  11.902
39129W        W11422   8.247  31.028   1.765
39130W        W11423  11.851  22.611  12.869
39131W        W11424  27.965  28.577   1.722
39132W        W11425  40.840  19.264   0.316
39133W        W11426  41.537  38.542   3.825
39134W        W11427  22.651  12.613   3.201
39135W        W11428   3.404   9.344  12.908
39136W        W11429  25.999  25.613   3.327
39137W        W11430  21.073  18.109  13.442
39138W        W11431  15.273  38.565  14.010
39139W        W11432  37.436  20.180   1.804
39140W        W11433  39.976  11.271   4.722
39141W        W11434   9.223  17.776   3.760
39142W        W11435  13.107  35.390  10.606
39143W        W11436  20.274   2.896  14.338
39144W        W11437  38.564  21.054  11.448
39145W        W11438  32.517  38.913  13.363
39146W        W11439   8.814  40.303  14.882
39147W        W11440  16.218  25.972   3.302
39148W        W11441  17.622  26.626   0.940
39149W        W11442   1.237  37.971   1.715
39150W        W11443  13.238  14.710   0.253
39151W        W11444  20.217   6.696   3.839
39152W        W11445  17.110  36.021  10.474
39153W        W11446  15.793  10.645   1.814
39154W        W11447  33.521  20.166  14.978
39155W        W11448   2.908  40.044   3.786
39156W        W11449   6.427  10.263   1.796
39157W        W11450  44.487   4.406   3.329
39158W        W11451  36.890  30.482  13.039
39159W        W11452  32.003   4.778  15.000
39160W        W11453   7.214   7.835  10.545
39161W        W11454  22.247   3.379   5.221
39162W        W11455  14.255  19.220   1.864
39163W        W11456  25.589   7.292   0.900
39164W        W11457  14.235   0.252  12.379
39165W        W11458  21.225  11.270   1.266
39166W        W11459  32.993  21.243   3.737
39167W        W11460  23.002  15.667  12.889
39168W        W11461  25.581  32.598   1.770
39169W        W11462  37.072  28.652  11.491
39170W        W11463   1.829  36.001  13.416
39171W        W11464  28.504  20.198   1.350
39172W        W11465  37.547  13.345   2.393
39173W        W11466  20.733  24.975  12.435
39174W        W11467  33.093   3.902   4.128
39175W        W11468  17.066  11.868  10.075
39176W        W11469  43.899  29.476   0.781
39177W        W11470  18.117  18.603  14.483
39178W        W11471   5.286  36.444  14.291
39179W        W11472  26.488  20.546  10.634
39180W        W11473  32.534  39.987   0.900
39181W        W11474  14.095  28.505  10.454
39182W        W11475  34.532  39.516   2.380
39183W        W11476  10.190  15.758   2.755
39184W        W11477  11.694  12.841  12.481
39185W        W11478  32.565  16.304   4.617
39186W        W11479  17.145  43.281   2.245
39187W        W11480  11.322  29.603   0.808
39188W        W11481  20.246  12.240   4.668
39189W        W11482  34.514  25.523   4.808
39190W        W11483  25.604  29.136  12.005
39191W        W11484  31.936   0.441   2.372
39192W        W11485   6.400  14.600  11.478
39193W        W11486  26.035  10.765  12.981
39194W        W11487   3.239  11.140  10.925
39195W        W11488  28.021  32.035  13.909
39196W        W11489  18.673  44.887   1.874
39197W        W11490  43.855  10.649   2.181
39198W        W11491  23.016  28.440  13.873
39199W        W11492  24.090   8.749  12.369
39200W        W11493  24.678  15.682  14.825
39201W        W11494   8.836  36.355   2.888
39202W        W11495  20.675  38.852  13.907
39203W        W11496  40.953   5.888  10.918
39204W        W11497  28.576   0.439  12.837
39205W        W11498   6.234  30.986   9.976
39206W        W11499  15.674   2.441  10.526
39207W        W11500   4.416  24.082   3.865
39208W        W11501  23.076  19.545   2.741
39209W        W11502  30.556  25.684  13.309
39210W        W11503   0.837  33.877   9.931
39211W        W11504  24.223  35.559   3.383
39212W        W11505  36.841  28.989   0.918
39213W        W11506  16.197  22.644  10.470
39214W        W11507  20.266   5.710   0.915
39215W        W11508  14.619  29.618   4.643
39216W        W11509  25.552  24.516   2.337
39217W        W11510   9.310  24.113   0.885
39218W        W11511  29.535  11.654  13.371
39219W        W11512  41.352  16.741   0.818
39220W        W11513  28.062  28.021   0.815
39221W        W11514   9.384   7.264  11.446
39222W        W11515  17.078  25.512   1.750
39223W        W11516  41.887   3.461   3.816
39224W        W11517  41.988  22.193   3.327
39225W        W11518  19.642  15.101  14.919
39226W        W11519  15.112   6.774  14.481
39227W        W11520  27.186  40.027   4.251
39228W        W11521  12.262  12.665   3.300
39229W        W11522  42.958  38.885   2.809
39230W        W11523  42.833  44.459  10.553
39231W        W11524  27.551  17.125  11.424
39232W        W11525   1.948   8.868  12.520
39233W        W11526  15.086  19.185  12.923
39234W        W11527  19.557  38.491   4.632
39235W        W11528  34.923  26.643   2.860
39236W        W11529  26.608  10.660  14.282
39237W        W11530  40.469  44.793   0.341
39238W        W11531  11.143  42.911  11.955
39239W        W11532   1.928  33.904  12.544
39240W        W11533  24.684  43.798  13.318
39241W        W11534  20.046  33.595  11.939
39242W        W11535  26.661   0.947  11.603
39243W        W11536  43.975  37.414   2.304
39244W        W11537  33.604  11.626   3.252
39245W        W11538  17.557   0.343   4.172
39246W        W11539  19.611  30.516  12.375
39247W        W11540  29.538  16.587  12.969
39248W        W11541  42.485  12.251   0.441
39249W        W11542  39.381   3.339  14.967
39250W        W11543   4.875   4.779   5.312
39251W        W11544  28.579  35.860   5.089
39252W        W11545   9.384   3.334  10.925
39253W        W11546  18.716  22.546   4.706
39254W        W11547  21.512   9.861   4.127
39255W        W11548  39.327  10.776  11.505
39256W        W11549  26.625  10.202  11.907
39257W        W11550  16.196   5.359  14.981
39258W        W11551  40.044  16.163  11.926
39259W        W11552   3.332  36.568   4.156
39260W        W11553  35.364   0.859   3.214
39261W        W11554   3.763   8.397   0.315
39262W        W11555   2.820   8.259  12.424
39263W        W11556  17.675  27.540  10.937
39264W        W11557  21.260  33.075  12.925
39265W        W11558   4.401  10.809  14.889
39266W        W11559   5.775  13.741  13.367
39267W        W11560  31.994  19.071  11.019
39268W        W11561   6.865  39.934   2.872
39269W        W11562  12.708  10.179  14.014
39270W        W11563  35.504   1.787  13.486
39271W        W11564  29.988  22.016  12.092
39272W        W11565   4.402  19.662  14.812
39273W        W11566  10.181  17.297  10.563
39274W        W11567  23.160   0.274   4.280
39275W        W11568  17.727  14.222  13.315
39276W        W11569  43.940   0.324  12.027
39277W        W11570  30.624  26.497   1.233
39278W        W11571  30.441  37.565   1.383
39279W        W11572  39.457  39.946   3.868
39280W        W11573  35.857  13.643   3.365
39281W        W11574  26.995  41.537   3.751
39282W        W11575  30.508   9.836  13.493
39283W        W11576   6.778  14.213   1.312
39284W        W11577  24.170   7.805  14.290
39285W        W11578   3.408  10.216  12.400
39286W        W11579  16.753   0.777  14.828
39287W        W11580  26.979  35.032  10.620
39288W        W11581   7.184  44.321  13.806
39289W        W11582  33.048  32.462  10.538
39290W        W11583  16.229  34.524   0.734
39291W        W11584  42.327   0.811  13.053
39292W        W11585  21.634   3.318   4.763
39293W        W11586  25.005  22.111   3.297
39294W        W11587  24.610  33.930   4.717
39295W        W11588  26.011  31.019  12.538
39296W        W11589  11.190  12.176  14.493
39297W        W11590  16.809  14.752  12.524
39298W        W11591  29.460   8.378  14.834
39299W        W11592  25.102  19.270   3.636
39300W        W11593  31.585  32.914   0.895
39301W        W11594   1.464   9.377   2.733
39302W        W11595  41.939  25.190  12.381
39303W        W11596  41.922  11.211   4.115
39304W        W11597  14.708  11.851  13.039
39305W        W11598   0.816  17.104   0.271
39306W        W11599  20.041  42.468   2.386
39307W        W11600  23.211  33.458   1.241
39308W        W11601  23.037  31.995  11.100
39309W        W11602  29.141   1.274  13.431
39310W        W11603  24.187  30.523  13.962
39311W        W11604  36.461   9.732   2.873
39312W        W11605  42.937   5.348   2.310
39313W        W11606  18.621   9.162   2.669
39314W        W11607  35.477   5.273   4.669
39315W        W11608  39.957   1.321  11.911
39316W        W11609  18.683  44.906   0.781
39317W        W11610  21.579   5.869   1.741
39318W        W11611  14.598  40.346   1.339
39319W        W11612  44.300   2.736   4.722
39320W        W11613  38.852  21.678  14.925
39321W        W11614  32.057  25.693   4.770
39322W        W11615  19.585   3.726   0.270
39323W        W11616  28.444  21.232  13.387
39324W        W11617  16.739  25.526   4.674
39325W        W11618  19.218  12.744   1.234
39326W        W11619   9.244  16.588   3.642
39327W        W11620  35.590  24.974  11.044
39328W        W11621  32.502  42.331  11.573
39329W        W11622  26.087  41.882  10.573
39330W        W11623  38.464  34.393  14.397
39331W        W11624  19.074  18.612   4.803
39332W        W11625  28.466  15.268   2.294
39333W        W11626  40.898  13.303  12.393
39334W        W11627  26.121  27.678  11.913
39335W        W11628  21.737  37.047  12.524
39336W        W11629  44.447  10.673  13.959
39337W        W11630  21.584  40.912  13.517
39338W        W11631   0.950  43.485  14.341
39339W        W11632   9.722  37.950   4.147
39340W        W11633  10.361  31.909  13.846
39341W        W11634   6.781  28.594   3.253
39342W        W11635  20.572  18.284   0.960
39343W        W11636  33.509  19.727   2.234
39344W        W11637  29.657  25.019  10.151
39345W        W11638   4.397   3.298  14.391
39346W        W11639   2.764  16.576   4.771
39347W        W11640  15.800  38.926  14.387
39348W        W11641   2.454  31.016   4.698
39349W        W11642  26.514  24.671  11.397
39350W        W11643  23.631  25.674   0.277
39351W        W11644  31.086  22.067   0.778
39352W        W11645  44.919  34.424  10.577
39353W        W11646  40.465  30.558   2.803
39354W        W11647   6.678  24.688   4.291
39355W        W11648  14.191   5.847  14.999
39356W        W11649  21.149   0.813   3.792
39357W        W11650   7.359  41.302   3.268
39358W        W11651   1.859  43.019   0.832
39359W        W11652  28.055  13.693   2.772
39360W        W11653  44.467  22.174  11.912
39361W        W11654   1.438   9.305   0.921
39362W        W11655   3.804  34.544   1.409
39363W        W11656  30.490  28.095   4.647
39364W        W11657   8.826  23.501   3.772
39365W        W11658  12.307   7.407  14.829
39366W        W11659   7.849  22.704  10.568
39367W        W11660  13.125  18.164   4.277
39368W        W11661  39.882   1.746   2.259
39369W        W11662  11.297   9.772  13.346
39370W        W11663  15.713  42.032  10.889
39371W        W11664  38.915  44.343   1.404
39372W        W11665   0.779  38.566  11.609
39373W        W11666  42.337  17.073   0.339
39374W        W11667   3.733   6.784  12.403
39375W        W11668  42.386   3.859   4.271
39376W        W11669  35.555  34.590   4.244
39377W        W11670   7.780   4.432   4.722
39378W        W11671  14.341   2.934   4.685
39379W        W11672  43.842  19.600  13.329
39380W        W11673  25.524  43.868   1.412
39381W        W11674  24.992  13.776   0.953
39382W        W11675  43.494  40.843  13.943
39383W        W11676  15.760   0.323  13.417
39384W        W11677  16.718   9.758  11.089
39385W        W11678  35.045  26.595   3.733
39386W        W11679  41.889  25.474  13.420
39387W        W11680   9.330  19.120   3.813
39388W        W11681   2.296  42.429   0.376
39389W        W11682  12.196  17.277  14.961
39390W        W11683  28.129  14.195   3.385
39391W        W11684  40.536   7.240   4.143
39392W        W11685  41.340   7.241  14.374
39393W        W11686  27.948  20.768  13.443
39394W        W11687  26.655  16.194   4.776
39395W        W11688  31.608   8.714  14.823
39396W        W11689  25.986  30.039  11.009
39397W        W11690  17.707   5.851  11.091
39398W        W11691   2.728   2.806   0.890
39399W        W11692  44.940   9.865  13.431
39400W        W11693  40.416  40.399   3.338
39401W        W11694  41.834  16.162  12.360
39402W        W11695  23.114  22.682  10.444
39403W        W11696  17.671   6.265  12.096
39404W        W11697  29.142   7.235  12.413
39405W        W11698  12.150  26.690   0.258
39406W        W11699  20.644  21.710  14.970
39407W        W11700   6.721  35.380   1.380
39408W        W11701  11.701   4.808   1.910
39409W        W11702  10.739  24.608   2.381
39410W        W11703  19.124   9.360   0.831
39411W        W11704  20.083  12.178   2.898
39412W        W11705   1.805  39.533  12.833
39413W        W11706  17.560  13.675   4.285
39414W        W11707  23.205   0.939   1.863
39415W        W11708  22.189  41.479   2.352
39416W        W11709  34.384  15.745  13.875
39417W        W11710   1.387  30.562  14.887
39418W        W11711  39.427  30.591  14.018
39419W        W11712  10.706  22.585  13.478
39420W        W11713  27.192  34.496  14.915
39421W        W11714  10.201  16.667   4.210
39422W        W11715   5.199  33.460   0.293
39423W        W11716  24.987   9.871   1.931
39424W        W11717  34.455  33.975   0.466
39425W        W11718   4.717  12.318   0.362
39426W        W11719  32.601  21.260  14.901
39427W        W11720   5.744   7.356   0.326
39428W        W11721   9.658  21.068   1.871
39429W        W11722   4.386  17.134   1.293
39430W        W11723  19.133  18.736  12.992
39431W        W11724   2.445  16.081   1.718
39432W        W11725  10.262  40.337   2.254
39433W        W11726   2.356  15.776  12.526
39434W        W11727   1.775  15.193   2.408
39435W        W11728  15.091  21.750   4.328
39436W        W11729  12.353  23.070   0.774
39437W        W11730  37.991  37.961  13.373
39438W        W11731  44.924  41.299   1.818
39439W        W11732  43.452  26.464  10.553
39440W        W11733  26.077  36.968  14.973
39441W        W11734  29.650  43.479  11.108
39442W        W11735  42.892  19.104   9.671
39443W        W11736  40.366  43.841   1.919
39444W        W11737  43.868  39.889   4.294
39445W        W11738  30.924  16.683   1.407
39446W        W11739  42.855   5.388  11.883
39447W        W11740  24.127  27.658   1.357
39448W        W11741  15.257  18.263  12.008
39449W        W11742  25.515  20.620  12.442
39450W        W11743  11.642  24.224  10.606
39451W        W11744  26.159  22.610  10.622
39452W        W11745  11.202  16.765   0.339
39453W        W11746   8.190  42.783  10.954
39454W        W11747  16.223  37.978  12.869
39455W        W11748  37.541  40.873   3.170
39456W        W11749  38.895  21.116   1.239
39457W        W11750  31.512   9.337  10.427
39458W        W11751  27.951  29.495  13.036
39459W        W11752  34.458  12.630   0.756
39460W        W11753  31.067  29.635   4.131
39461W        W11754  28.081  23.030  14.296
39462W        W11755  24.580  42.866  14.985
39463W        W11756  40.328  44.766   3.237
39464W        W11757   0.765  19.125  11.539
39465W        W11758  38.461   8.301  14.412
39466W        W11759  34.963  42.875  14.019
39467W        W11760  34.417  11.145  13.352
39468W        W11761   6.299  42.993  11.940
39469W        W11762  22.559  35.365   2.897
39470W        W11763  23.685   2.779  14.996
39471W        W11764  40.953  31.440   1.694
39472W        W11765  38.410  28.680  10.486
39473W        W11766  18.127  21.235  14.377
39474W        W11767  33.124  18.106  10.569
39475W        W11768  20.684   6.250  11.435
39476W        W11769  24.112  13.746  13.798
39477W        W11770   8.741  35.385  11.067
39478W        W11771  27.082  14.728   4.122
39479W        W11772  41.877  24.044   0.912
39480W        W11773  40.388  38.916   0.924
39481W        W11774  40.480   2.742   3.678
39482W        W11775  40.482  35.045  14.783
39483W        W11776  28.536   3.435  12.448
39484W        W11777  21.560  36.958  10.901
39485W        W11778  34.021  13.267  12.492
39486W        W11779   5.212  11.143   2.320
39487W        W11780  25.198  39.392   1.403
39488W        W11781  13.649   3.769   2.391
39489W        W11782   6.815  28.570   2.337
39490W        W11783  35.497  41.795   0.356
39491W        W11784  23.211  36.925   0.352
39492W        W11785  18.659  18.649   4.277
39493W        W11786  36.076   2.351  11.943
39494W        W11787  42.922   3.221   1.443
39495W        W11788  20.670  33.441   5.117
39496W        W11789   9.778  40.006  14.911
39497W        W11790  22.026  20.744   4.690
39498W        W11791  31.010  11.677  11.027
39499W        W11792  32.455  36.098   5.206
39500W        W11793  35.454  31.077   4.755
39501W        W11794  42.847   8.753  14.968
39502W        W11795  14.738  43.884   2.267
39503W        W11796  21.211  28.485   3.816
39504W        W11797  15.161  15.125   0.375
39505W        W11798  21.537  34.018   0.899
39506W        W11799  10.697   1.279   0.736
39507W        W11800  10.702  35.513   1.839
39508W        W11801   4.766  44.267   0.473
39509W        W11802  18.627  30.540  11.442
39510W        W11803  31.629   0.899   3.323
39511W        W11804  15.752  26.566  10.010
39512W        W11805  40.820  20.148   3.241
39513W        W11806  22.105  33.395  10.992
39514W        W11807  31.533   9.740  13.527
39515W        W11808  41.414   6.750  12.072
39516W        W11809  34.022  44.839  12.044
39517W        W11810  17.629  10.871  13.523
39518W        W11811  34.877  35.076  14.370
39519W        W11812  38.456   2.769   4.304
39520W        W11813   7.846  29.626   1.275
39521W        W11814  23.650  26.139   1.874
39522W        W11815  43.297   9.728  12.889
39523W        W11816  22.209  30.419  14.766
39524W        W11817  21.599   0.255   4.120
39525W        W11818  38.037  18.691   2.670
39526W        W11819  22.542  18.173   1.297
39527W        W11820  44.363  35.436   5.119
39528W        W11821  32.982  24.620  12.014
39529W        W11822  39.841  24.173   3.778
39530W        W11823  37.838  25.650   1.430
39531W        W11824  12.716  22.163   1.390
39532W        W11825  31.631  28.613   0.950
39533W        W11826  36.365  26.997  14.977
39534W        W11827   1.757  20.245  13.888
39535W        W11828  29.505   9.372  11.395
39536W        W11829   4.767  28.495  11.391
39537W        W11830  41.332  25.647   2.197
39538W        W11831  33.891  20.071   4.719
39539W        W11832  26.204  42.379   3.837
39540W        W11833  36.003  44.324  13.436
39541W        W11834  11.700  10.638  13.353
39542W        W11835  11.264  34.025   3.637
39543W        W11836  26.641  30.520   2.875
39544W        W11837  35.883  35.375  14.953
39545W        W11838  16.073  18.146  12.500
39546W        W11839  32.564   5.922  13.487
39547W        W11840   4.841   9.678   2.661
39548W        W11841  38.379   2.882   1.910
39549W        W11842  34.423  12.637  13.387
39550W        W11843  42.512  19.602  12.929
39551W        W11844  30.528  28.538  13.427
39552W        W11845  42.014  39.400   4.147
39553W        W11846   8.819   1.400  14.991
39554W        W11847   5.864  18.733   2.895
39555W        W11848  29.979  28.093  11.445
39556W        W11849  26.508  29.496   2.292
39557W        W11850  41.867  32.956   3.342
39558W        W11851  40.041  14.171   1.724
39559W        W11852  27.981  20.762  11.061
39560W        W11853  26.510  30.480   2.222
39561W        W11854  31.556  28.612  14.340
39562W        W11855  19.575  30.153   0.378
39563W        W11856  22.015  40.045   3.334
39564W        W11857  18.238  23.508   5.612
39565W        W11858  23.154  10.366   3.791
39566W        W11859   8.270  34.885   2.708
39567W        W11860  19.535  27.942   2.388
39568W        W11861  37.886  21.634  11.593
39569W        W11862  41.360  20.613   1.212
39570W        W11863  25.972  27.012   2.292
39571W        W11864   7.732  19.769   3.297
39572W        W11865  40.431   4.324  13.851
39573W        W11866  14.126  33.963  11.900
39574W        W11867  30.922  32.530  12.481
39575W        W11868  12.274  39.945   1.898
39576W        W11869  29.481   7.835   4.195
39577W        W11870  41.501   6.263  11.524
39578W        W11871  28.130  21.635  14.284
39579W        W11872   6.355  43.353   2.889
39580W        W11873  43.808  22.226   2.189
39581W        W11874  23.692  33.558   0.372
39582W        W11875  42.333  17.271  12.000
39583W        W11876  19.056  43.992   4.602
39584W        W11877  15.164  17.664  11.551
39585W        W11878  31.608  34.919   1.394
39586W        W11879  33.025  32.474   3.199
39587W        W11880  27.598  13.599  12.532
39588W        W11881  17.163  25.601   2.368
39589W        W11882   2.259  32.893   3.262
39590W        W11883   6.741  27.532  13.419
39591W        W11884  31.106  16.682   3.734
39592W        W11885  43.946  18.719   1.772
39593W        W11886  16.774  11.367  11.926
39594W        W11887  34.955  32.004   1.361
39595W        W11888  34.986   8.406  13.544
39596W        W11889  39.968  20.117   3.754
39597W        W11890  23.527  30.439   0.844
39598W        W11891   3.397   9.739  10.426
39599W        W11892  19.656  40.509   1.269
39600W        W11893   3.736  44.401   1.247
39601W        W11894   6.822  27.589  11.983
39602W        W11895  15.268   6.817   2.900
39603W        W11896   0.950  33.406  12.967
39604W        W11897  21.527  20.036  13.428
39605W        W11898   7.705  21.683  11.405
39606W        W11899   9.683  40.937  11.104
39607W        W11900  10.142  17.108  12.849
39608W        W11901  43.910  20.752   0.475
39609W        W11902  36.436  38.424   2.262
39610W        W11903  12.232  13.251  14.013
39611W        W11904  24.159  19.576   1.411
39612W        W11905  13.330  33.387   0.904
39613W        W11906  41.356   0.976  12.458
39614W        W11907   7.393  35.375  11.981
39615W        W11908  44.941  17.663   4.309
39616W        W11909  41.034  43.861  12.052
39617W        W11910  40.989  42.965  13.878
39618W        W11911  19.694   4.721   2.185
39619W        W11912   7.906  29.453   3.662
39620W        W11913  42.853  29.996  12.881
39621W        W11914   2.793  42.288  13.031
39622W        W11915   0.790  18.099   0.456
39623W        W11916  41.971  26.520   3.862
39624W        W11917  38.560   9.728   2.759
39625W        W11918  35.871  25.501   2.371
39626W        W11919  24.647  40.488   0.927
39627W        W11920  11.186  27.495  12.541
39628W        W11921  20.262  36.042   3.791
39629W        W11922   5.430  22.215   4.202
39630W        W11923  27.656  10.268   3.645
39631W        W11924  10.260   5.821  13.917
39632W        W11925  33.930  14.217  13.036
39633W        W11926  44.946   5.264   4.201
39634W        W11927  13.642  13.844  14.919
39635W        W11928  33.956   3.731  11.990
39636W        W11929  29.606  30.595  14.326
39637W        W11930  21.589  18.742   3.778
39638W        W11931   5.333  26.623   5.245
39639W        W11932  16.286   3.315  11.997
39640W        W11933   9.822  42.306   0.292
39641W        W11934  30.153  32.400   3.763
39642W        W11935  42.990  35.429   4.189
39643W        W11936  15.757   6.766   4.746
39644W        W11937  15.269  30.111   4.828
39645W        W11938  38.044  15.165   4.759
39646W        W11939  44.480  32.493  13.484
39647W        W11940  36.999  10.643  13.931
39648W        W11941  16.102  29.079   2.839
39649W        W11942  32.916  34.538  14.844
39650W        W11943  29.152   6.843  14.448
39651W        W11944   6.244   1.401   3.842
39652W        W11945  20.703  18.670  13.316
39653W        W11946  24.691  21.627  13.354
39654W        W11947   3.374  33.980  14.013
39655W        W11948   8.366  28.016  12.420
39656W        W11949  36.545  11.282  13.974
39657W        W11950   4.332   7.709  12.963
39658W        W11951   6.224  42.944   1.315
39659W        W11952  17.717   0.385  13.470
39660W        W11953  29.032  27.488   2.405
39661W        W11954   6.403   0.439  14.409
39662W        W11955  43.877  17.643   0.847
39663W        W11956   4.225  38.451  11.440
39664W        W11957  14.212  25.133  12.504
39665W        W11958  25.097  24.054  11.589
39666W        W11959  38.828  36.592  14.277
39667W        W11960  43.338   4.373  12.036
39668W        W11961  31.151  25.711   1.349
39669W        W11962  22.212   2.849   2.260
39670W        W11963  14.175  13.244  13.488
39671W        W11964  30.520  25.190  10.643
39672W        W11965  29.098   3.220  11.881
39673W        W11966  33.547   9.380  12.957
39674W        W11967  25.165  33.128  10.508
39675W        W11968  18.289   9.797   0.456
39676W        W11969  22.557  17.678   0.824
39677W        W11970  19.618  30.656   3.318
39678W        W11971  40.448  36.460   1.369
39679W        W11972   1.356  31.998  12.469
39680W        W11973  23.024  26.502   0.782
39681W        W11974  40.503  41.492   1.869
39682W        W11975  39.885  34.369   1.853
39683W        W11976  27.617  39.430   4.791
39684W        W11977  13.693  27.606   2.395
39685W        W11978  12.644  41.407  12.830
39686W        W11979  20.667  29.932  13.500
39687W        W11980  37.846  18.182  10.992
39688W        W11981  34.976  40.025   1.439
39689W        W11982   8.714  28.527   3.356
39690W        W11983  13.314   7.205  13.832
39691W        W11984   7.729  10.634   4.787
39692W        W11985  21.093   0.309   0.390
39693W        W11986   2.339  33.031  13.401
39694W        W11987  14.604   3.735   1.850
39695W        W11988   0.382  12.658  11.998
39696W        W11989  16.232  35.371   3.865
39697W        W11990  19.101  21.184   4.777
39698W        W11991  17.776  17.114  10.061
39699W        W11992  30.921  35.449   1.231
39700W        W11993  33.517   4.448   2.190
39701W        W11994   2.885  28.109  14.806
39702W        W11995  25.111  20.707   4.320
39703W        W11996  26.028   0.372   2.703
39704W        W11997  11.273  34.513   2.278
39705W        W11998  11.359  22.067  11.446
39706W        W11999   5.915  12.758  11.069
39707W        W12000  37.389  44.476   0.941
39708W        W12001  20.233  23.143   2.334
39709W        W12002  35.038  18.218  14.280
39710W        W12003  22.195  14.667   1.782
39711W        W12004   6.310  31.403   1.416
39712W        W12005  24.502  15.294  12.865
39713W        W12006  35.538   9.712  13.848
39714W        W12007  20.690  42.431  14.943
39715W        W12008  30.490   0.839  14.894
39716W        W12009  43.988   1.862  13.903
39717W        W12010   8.319  40.520  14.966
39718W        W12011   5.799  26.100  11.494
39719W        W12012   0.966  21.102   9.970
39720W        W12013  15.692  31.440   3.866
39721W        W12014   4.727  17.661   2.353
39722W        W12015  27.061  24.007   0.265
39723W        W12016  32.606  11.259  11.550
39724W        W12017  37.045  17.693  12.843
39725W        W12018  35.029  36.892  13.433
39726W        W12019  34.978  30.957  13.041
39727W        W12020  15.767  30.584   2.265
39728W        W12021  27.045  44.347   3.360
39729W        W12022  17.664  21.689   3.254
39730W        W12023  14.706  29.612  14.766
39731W        W12024   5.259  37.004   2.857
39732W        W12025  38.537  17.172   3.765
39733W        W12026  38.896  40.425  12.965
39734W        W12027  16.732  14.297  14.010
39735W        W12028  15.230  44.006  13.952
39736W        W12029  25.061  10.813   2.710
39737W        W12030  32.403  25.524   3.159
39738W        W12031  14.213  18.101   3.221
39739W        W12032  20.260  35.546   0.761
39740W        W12033  37.909  24.583  13.398
39741W        W12034  27.676  40.321   1.447
39742W        W12035  40.807  24.987   2.211
39743W        W12036  16.709  11.819   3.311
39744W        W12037  19.700  33.095  11.397
39745W        W12038  30.970  40.019   3.858
39746W        W12039  24.541  23.035  10.421
39747W        W12040  31.419  40.308   4.346
39748W        W12041  28.667  14.710  10.414
39749W        W12042   7.879  38.975  12.343
39750W        W12043  41.450  21.623  14.299
39751W        W12044  44.380  15.778  10.529
39752W        W12045   6.681  36.432  11.891
39753W        W12046  41.510  35.975  14.839
39754W        W12047   4.443  18.713  11.026
39755W        W12048  12.168  34.545  14.988
39756W        W12049  44.260  23.133   2.304
39757W        W12050   8.212  17.582  11.569
39758W        W12051  37.853  22.175   0.876
39759W        W12052  27.152  42.903  11.449
39760W        W12053  37.512  26.025  14.279
39761W        W12054  25.598  31.636   0.929
39762W        W12055   8.212  34.892   1.360
39763W        W12056  36.061  39.999  13.504
39764W        W12057  24.982  41.361  14.850
39765W        W12058  17.144  40.003  10.636
39766W        W12059  31.061  18.056  13.347
39767W        W12060  44.308  31.451  12.941
39768W        W12061   4.822  10.201   4.694
39769W        W12062  38.941  17.619   5.316
39770W        W12063   9.203   2.326   0.756
39771W        W12064  39.843   1.265   4.622
39772W        W12065  35.591  18.614  14.430
39773W        W12066  25.660  25.507   3.247
39774W        W12067  41.496   2.957  11.090
39775W        W12068  17.743  35.897  13.862
39776W        W12069  25.186  38.361  14.356
39777W        W12070  32.989  42.809  11.054
39778W        W12071  22.662   0.284   4.265
39779W        W12072  44.839   5.901   4.283
39780W        W12073  37.046  31.468  13.846
39781W        W12074  25.514   0.283  11.042
39782W        W12075   6.834   2.325   3.278
39783W        W12076   9.394  21.740  10.561
39784W        W12077   7.853  12.828   3.221
39785W        W12078  13.341   7.315   2.833
39786W        W12079  16.778   4.309  11.945
39787W        W12080  15.185  42.781   2.354
39788W        W12081  34.536  24.700  12.009
39789W        W12082   0.959  30.585  11.013
39790W        W12083  35.901  42.303  13.399
39791W        W12084   5.362  17.093   0.426
39792W        W12085  34.447  20.243   1.221
39793W        W12086  30.015  31.960   1.284
39794W        W12087  33.073  33.116   4.738
39795W        W12088  18.052  23.586  12.463
39796W        W12089   8.664   2.726   1.210
39797W        W12090  41.999  13.314   3.199
39798W        W12091  35.371   8.394  11.932
39799W        W12092  11.727  33.401  10.504
39800W        W12093  43.273  31.431   2.789
39801W        W12094  32.895  39.341  11.464
39802W        W12095  12.783   1.266   4.646
39803W        W12096  37.898  13.718   1.323
39804W        W12097  40.857   0.292   1.298
39805W        W12098  13.746  21.118   1.255
39806W        W12099  18.661  25.689   0.440
39807W        W12100  32.931  21.709  14.962
39808W        W12101  25.159  19.665   4.241
39809W        W12102  39.925  18.763   0.377
39810W        W12103  31.609  29.477   4.654
39811W        W12104  35.427  41.907   2.859
39812W        W12105  16.783  42.323   1.847
39813W        W12106  40.471  12.744  10.969
39814W        W12107   9.214   5.197  10.550
39815W        W12108  37.032  31.906   3.374
39816W        W12109  41.340  26.516   2.253
39817W        W12110  12.241  43.515   1.875
39818W        W12111  39.382  30.421   2.805
39819W        W12112  30.446  18.774   4.717
39820W        W12113  13.247  24.984   4.174
39821W        W12114  37.466  33.962   4.277
39822W        W12115  13.337  34.395   4.230
39823W        W12116  40.033   6.786   1.352
39824W        W12117  11.859  15.703  14.417
39825W        W12118   3.801   0.814  12.997
39826W        W12119   9.233  34.582   5.112
39827W        W12120  14.106  35.010  11.023
39828W        W12121  34.508  23.189   0.420
39829W        W12122  15.326  40.527  14.836
39830W        W12123  42.299  39.551   4.232
39831W        W12124  18.235  12.257   2.821
39832W        W12125  43.782   2.865   0.395
39833W        W12126  36.924  27.679   4.770
39834W        W12127  29.569  44.358   0.957
39835W        W12128  11.734   2.950  14.488
39836W        W12129  18.180  22.630   5.196
39837W        W12130   6.352   8.312   2.813
39838W        W12131  30.607  44.422   3.179
39839W        W12132  42.805  41.796  13.389
39840W        W12133   4.271   3.779   3.318
39841W        W12134   6.739  43.991   0.449
39842W        W12135  39.836  24.528  12.960
39843W        W12136  12.628  27.051   1.717
39844W        W12137  39.334  23.526  14.347
39845W        W12138   1.236  32.576  11.549
39846W        W12139  21.153  43.449  13.858
39847W        W12140  27.611  26.612  10.912
39848W        W12141   8.210  14.625   0.746
39849W        W12142  34.863   1.886   3.830
39850W        W12143  31.415  25.010  12.463
39851W        W12144  44.385   7.753  11.039
39852W        W12145   9.818   4.712   3.172
39853W        W12146   3.310  30.128  14.442
39854W        W12147   9.712  13.704   2.809
39855W        W12148  11.819   9.381   2.784
39856W        W12149  19.065   6.198   3.181
39857W        W12150  34.507  36.572  12.342
39858W        W12151  19.161  26.673   1.879
39859W        W12152   0.257  44.409  14.780
39860W        W12153  22.194  12.846  14.355
39861W        W12154  26.511  30.444   1.333
39862W        W12155  30.102  14.157  11.983
39863W        W12156   5.836   9.379  14.915
39864W        W12157  39.480  30.534  13.537
39865W        W12158  35.903   9.356  14.933
39866W        W12159   6.712   3.372   2.742
39867W        W12160  15.694  25.005   4.837
39868W        W12161  10.383  23.132   1.923
39869W        W12162  20.599   2.797   4.318
39870W        W12163  40.917   6.719  11.469
39871W        W12164  15.673  35.046  10.948
39872W        W12165   3.453  29.665  11.481
39873W        W12166  10.202  26.698   4.667
39874W        W12167  15.625   2.747   0.847
39875W        W12168   5.377  35.091   4.158
39876W        W12169  35.005   6.226  11.542
39877W        W12170  14.246  32.992  14.505
39878W        W12171   8.714  21.167  13.920
39879W        W12172  20.677  38.496   0.742
39880W        W12173  15.192   0.428   0.806
39881W        W12174  23.520   3.774  10.996
39882W        W12175  44.801  29.964  14.296
39883W        W12176  40.312  36.044   1.424
39884W        W12177  11.240  24.217  13.963
39885W        W12178   5.349   2.736   3.645
39886W        W12179  44.848  17.120  14.312
39887W        W12180  19.757  30.165  13.509
39888W        W12181  29.924  38.365  12.030
39889W        W12182   3.809   5.400   2.826
39890W        W12183   6.844   9.648   3.176
39891W        W12184   8.236  34.039   4.727
39892W        W12185  16.777  31.007  14.889
39893W        W12186  28.524  19.184  12.045
39894W        W12187  31.499  12.171   4.649
39895W        W12188   9.168   1.359  13.383
39896W        W12189   4.353  41.819  11.433
39897W        W12190  22.534   9.373  14.328
39898W        W12191   1.265   6.769   1.723
39899W        W12192  12.776  24.146   2.398
39900W        W12193  39.526   1.902   0.355
39901W        W12194  22.646   0.977   1.859
39902W        W12195  34.593  34.985   4.281
39903W        W12196   5.881  20.208   4.333
39904W        W12197  28.501  44.369   3.650
39905W        W12198  24.135   8.293   3.216
39906W        W12199  40.544  27.646   4.689
39907W        W12200   5.261  41.940  10.623
39908W        W12201  31.108  18.758   3.182
39909W        W12202   1.432  35.439  13.049
39910W        W12203  14.302  24.162  13.526
39911W        W12204  17.254  32.621   3.226
39912W        W12205  25.709  37.055  11.512
39913W        W12206  39.406  32.000  13.450
39914W        W12207   6.814  40.840  11.601
39915W        W12208  24.200   6.182  10.919
39916W        W12209  22.601  44.866   4.623
39917W        W12210  41.534  18.569   1.770
39918W        W12211  13.242  23.119  11.128
39919W        W12212   2.923  23.502   2.687
39920W        W12213  18.620   3.344  14.842
39921W        W12214  20.159  28.508   4.281
39922W        W12215  14.767  36.977   3.785
39923W        W12216  44.905  34.395  12.916
39924W        W12217  37.981  23.501  14.343
39925W        W12218  27.660  28.542  12.854
39926W        W12219  34.074   2.840  10.468
39927W        W12220  11.693  36.923   4.270
39928W        W12221  27.185  31.403   4.169
39929W        W12222  24.601  12.157  14.994
39930W        W12223  19.595  15.770  14.809
39931W        W12224  12.693   8.792   2.859
39932W        W12225  18.549  36.457   4.771
39933W        W12226  14.115  10.731  11.012
39934W        W12227   0.375  21.212  10.497
39935W        W12228   1.775  26.477  14.453
39936W        W12229   7.897   1.745   0.478
39937W        W12230  18.166  18.681  12.068
39938W        W12231  23.663  43.962  12.902
39939W        W12232  41.876  34.571  12.846
39940W        W12233  20.056   8.334   1.912
39941W        W12234  42.356   3.380   4.751
39942W        W12235  22.660  42.500  11.093
39943W        W12236  42.474  31.091   2.766
39944W        W12237  15.167  38.436   1.842
39945W        W12238   3.406  17.084   3.313
39946W        W12239   8.843  39.965  14.441
39947W        W12240  11.245  10.214   4.672
39948W        W12241  15.264  13.111  13.832
39949W        W12242   2.859  16.717  14.781
39950W        W12243  36.523  10.344   2.349
39951W        W12244  41.974  32.626   1.341
39952W        W12245   6.242  27.536  11.604
39953W        W12246  28.963   8.774   9.999
39954W        W12247  33.975  29.469   2.881
39955W        W12248  30.139  41.317   2.275
39956W        W12249  42.458  16.155   1.285
39957W        W12250  28.169  16.244  11.926
39958W        W12251  29.529  32.067  13.460
39959W        W12252  28.936  43.767   4.696
39960W        W12253  38.899  13.710   2.719
39961W        W12254  26.651  44.933  12.381
39962W        W12255   3.733  14.288  14.863
39963W        W12256  21.694  19.624   3.803
39964W        W12257  26.162  13.116  10.907
39965W        W12258  42.793  18.089  12.395
39966W        W12259  11.337   1.439   2.418
39967W        W12260   7.844  28.018  12.081
39968W        W12261  18.056  29.960   2.814
39969W        W12262  18.261  38.823   4.599
39970W        W12263  27.078  28.634   1.926
39971W        W12264  20.665   5.394  12.484
39972W        W12265  12.236   6.232  14.771
39973W        W12266  24.128  35.501  14.360
39974W        W12267  33.517  17.776   4.284
39975W        W12268  12.756  39.907  12.401
39976W        W12269  43.315  17.064  13.451
39977W        W12270  29.494  39.945  12.980
39978W        W12271   0.454  40.008  12.026
39979W        W12272  32.079   8.882   1.712
39980W        W12273  37.428  27.552   1.907
39981W        W12274  34.533  26.069   4.769
39982W        W12275  27.979  39.857  13.926
39983W        W12276  24.700  27.448  12.525
39984W        W12277   4.447  35.088   1.862
39985W        W12278  33.435  32.979   2.849
39986W        W12279   7.255  15.161  10.440
39987W        W12280  43.380   0.956  10.146
39988W        W12281  18.646  11.369  12.535
39989W        W12282  22.011   0.858  12.994
39990W        W12283  25.148   5.750  13.810
39991W        W12284  42.824  33.119   2.283
39992W        W12285  35.926  29.615  10.426
39993W        W12286  19.683  32.633  11.077
39994W        W12287  43.479  40.894   2.239
39995W        W12288  16.095  44.357  10.123
39996W        W12289  33.076   3.808  14.957
39997W        W12290  24.069   9.318  12.406
39998W        W12291   4.377   4.869   2.257
39999W        W12292  21.256  39.050  10.626
40000W        W12293  28.521   2.901   1.906
40001W        W12294  20.241  10.800   4.138
40002W        W12295  11.694  31.528  13.465
40003W        W12296   3.919   7.188   0.837
40004W        W12297   8.821  10.847  11.982
40005W        W12298  24.213  35.082   4.768
40006W        W12299   5.322   4.257  13.421
40007W        W12300  29.600  18.738  14.800
40008W        W12301  34.494  41.851  14.782
40009W        W12302  16.579  23.622   1.860
40010W        W12303  27.019  42.979  10.952
40011W        W12304  29.641  11.155   4.126
40012W        W12305  44.905  40.468   3.788
40013W        W12306   6.697  14.753   3.648
40014W        W12307  31.511  42.888   3.861
40015W        W12308  22.575  43.855   1.908
40016W        W12309  14.670  41.023   3.268
40017W        W12310  43.936   1.429   3.705
40018W        W12311  30.606  25.139   3.675
40019W        W12312  12.837  36.549   4.684
40020W        W12313  26.115  20.561   3.376
40021W        W12314  36.967  40.448  13.479
40022W        W12315   1.828  23.052   4.805
40023W        W12316  30.076   0.415   4.614
40024W        W12317   6.846  16.200   3.203
40025W        W12318  29.144  36.568   3.633
40026W        W12319  40.422  39.413  12.963
40027W        W12320   8.727  37.505  11.563
40028W        W12321  22.522  37.975   0.858
40029W        W12322   4.417  40.418   4.326
40030W        W12323  29.612  15.797  14.934
40031W        W12324  20.157   9.774   3.662
40032W        W12325  19.139  10.383  14.847
40033W        W12326  36.082  12.225  14.277
40034W        W12327  12.760   3.780  12.078
40035W        W12328  20.106   0.769   2.204
40036W        W12329  32.530  11.215   3.263
40037W        W12330  27.556  42.877  12.837
40038W        W12331  30.128  21.573   0.958
40039W        W12332  38.008   6.293  11.499
40040W        W12333  21.061   5.280   1.267
40041W        W12334   8.251   6.816   4.693
40042W        W12335   9.695  19.673   3.845
40043W        W12336  10.260  24.098   4.339
40044W        W12337  27.504  38.385   2.277
40045W        W12338  40.458  23.613   2.348
40046W        W12339   3.775   1.885  11.126
40047W        W12340  37.414  41.991   3.299
40048W        W12341  28.095   6.689   2.755
40049W        W12342  22.218  18.675  13.917
40050W        W12343  29.638  21.057  13.309
40051W        W12344  13.168  34.029   3.216
40052W        W12345   1.930  26.543  13.900
40053W        W12346  33.579   3.414  13.984
40054W        W12347   2.876  34.529   3.818
40055W        W12348  11.698  10.658  11.007
40056W        W12349  16.702  27.595   3.857
40057W        W12350  35.052  33.878   0.278
40058W        W12351  20.145  38.529   4.790
40059W        W12352  30.626  24.700   4.178
40060W        W12353  27.606  16.624   1.720
40061W        W12354  18.604  14.333  14.865
40062W        W12355  18.278   7.885   0.374
40063W        W12356  19.229  39.486  10.972
40064W        W12357  34.075  44.761  14.958
40065W        W12358  27.101  28.668   2.348
40066W        W12359  43.800  25.980   1.429
40067W        W12360  41.036  35.075   2.714
40068W        W12361  32.001   1.381  10.645
40069W        W12362  23.174  32.133   4.326
40070W        W12363  27.016   5.362  12.052
40071W        W12364  37.353  14.602  12.516
40072W        W12365  35.594  39.034   0.316
40073W        W12366  13.683  28.163  14.831
40074W        W12367  29.991   0.301   3.704
40075W        W12368  25.208  32.561  10.891
40076W        W12369  43.516  31.015  13.393
40077W        W12370  30.629  31.939  10.542
40078W        W12371  32.471  28.095   3.719
40079W        W12372  10.337  25.708   1.835
40080W        W12373  21.107  40.546   5.247
40081W        W12374  44.458  34.461   0.899
40082W        W12375  41.353  33.567  14.864
40083W        W12376  16.687  15.655   4.188
40084W        W12377  19.220  28.990   3.715
40085W        W12378   6.373  43.840  11.083
40086W        W12379   9.736  25.004   4.193
40087W        W12380  42.012  12.641   1.904
40088W        W12381  31.582  28.967   2.334
40089W        W12382  13.327  38.972  13.820
40090W        W12383  27.663  42.793  12.490
40091W        W12384   6.845  25.483   1.896
40092W        W12385  30.554  20.766  12.520
40093W        W12386  22.598  13.309   2.362
40094W        W12387  13.323   5.704  13.833
40095W        W12388  38.477  31.487  12.037
40096W        W12389  28.940  16.145   2.690
40097W        W12390  34.405  13.618  12.554
40098W        W12391  32.938  23.496  14.931
40099W        W12392  13.707   0.286  12.036
40100W        W12393  33.589  40.938   1.390
40101W        W12394  17.165  31.989   3.324
40102W        W12395  33.576  38.465   0.264
40103W        W12396  22.514  19.136   4.272
40104W        W12397  43.820  44.986   9.594
40105W        W12398  26.156  27.177  10.559
40106W        W12399  27.584  23.647   3.357
40107W        W12400  44.270   1.935  11.112
40108W        W12401  12.620  33.546   3.636
40109W        W12402  21.559  31.598  10.008
40110W        W12403  12.777   3.346  12.535
40111W        W12404   8.752  18.761   5.116
40112W        W12405  40.389  37.929   4.184
40113W        W12406   1.278  11.150   1.284
40114W        W12407  10.798   6.857   1.698
40115W        W12408  20.768  30.508  11.862
40116W        W12409  33.911  36.903   2.342
40117W        W12410  22.684  28.134   1.818
40118W        W12411  16.147  10.695  12.400
40119W        W12412  22.103  14.605  12.516
40120W        W12413  36.874   3.821   1.228
40121W        W12414  23.163  30.648   1.434
40122W        W12415  30.606  10.248  10.480
40123W        W12416  44.960   2.855  14.357
40124W        W12417  37.919  23.239   3.848
40125W        W12418  26.020  42.851  11.507
40126W        W12419  22.080  17.615   2.323
40127W        W12420  25.674  42.327  11.115
40128W        W12421  11.630  38.968   4.184
40129W        W12422  28.507   6.751  13.508
40130W        W12423   9.852  12.197   2.419
40131W        W12424  28.116   7.337  12.073
40132W        W12425  15.198  24.227   2.402
40133W        W12426   4.298   7.240   2.243
40134W        W12427  14.225  27.945   0.845
40135W        W12428   4.818  39.331  13.541
40136W        W12429  40.309  11.310   0.962
40137W        W12430  44.871  26.962  14.008
40138W        W12431   8.200  19.555   2.897
40139W        W12432  42.290  41.957  13.365
40140W        W12433   9.319  29.092  12.456
40141W        W12434  20.186  39.021  12.830
40142W        W12435  22.512  42.924  11.583
40143W        W12436  18.622  10.262   0.942
40144W        W12437  13.698  15.262  13.392
40145W        W12438  19.126  39.432  14.869
40146W        W12439  10.727  20.209  14.945
40147W        W12440  33.453  37.461   2.307
40148W        W12441  36.033  32.430   3.636
40149W        W12442  17.561  35.590   2.799
40150W        W12443  17.276   1.908  10.591
40151W        W12444  36.929   7.180  13.952
40152W        W12445  36.576  18.630   4.124
40153W        W12446   0.447  31.406   3.210
40154W        W12447  18.153  29.455   4.346
40155W        W12448  25.548  41.906  11.396
40156W        W12449  24.639  31.020   4.136
40157W        W12450  13.266   7.295   2.304
40158W        W12451  35.489  41.872   3.721
40159W        W12452  12.811  19.626  13.346
40160W        W12453   0.487   8.366   0.307
40161W        W12454  11.682  34.929   1.808
40162W        W12455   0.760  44.882  11.436
40163W        W12456  29.948  42.377  11.127
40164W        W12457  43.959  22.242   4.645
40165W        W12458  16.215  11.354  10.549
40166W        W12459  11.315   6.408   2.836
40167W        W12460  40.839  34.591   3.856
40168W        W12461  24.165   3.938  14.374
40169W        W12462  32.550  31.148   4.214
40170W        W12463  17.185   7.257   0.288
40171W        W12464  25.661  32.408   3.234
40172W        W12465  11.357   2.406  13.988
40173W        W12466  31.633  15.732   4.712
40174W        W12467   1.437  27.497   2.298
40175W        W12468  21.519  30.656  14.940
40176W        W12469  18.751   5.691   0.398
40177W        W12470  14.594  32.091   2.298
40178W        W12471  30.071  16.222  11.425
40179W        W12472  36.515  40.336   3.769
40180W        W12473   2.362  26.115   1.255
40181W        W12474  11.806  35.520  11.375
40182W        W12475  44.273  23.004  13.530
40183W        W12476  12.801   8.718   4.330
40184W        W12477  14.776  27.677   1.720
40185W        W12478   7.355  37.576   4.260
40186W        W12479  36.576   9.700   2.290
40187W        W12480  35.997  23.561   2.696
40188W        W12481  41.342  37.450  14.443
40189W        W12482   4.387  10.252   0.346
40190W        W12483   2.791  39.897  11.419
40191W        W12484  22.995  44.269  12.364
40192W        W12485  34.028   7.259   0.916
40193W        W12486  14.606  37.373   1.386
40194W        W12487  24.101  14.299   2.400
40195W        W12488  25.074  35.032   2.383
40196W        W12489  12.252   6.279   3.862
40197W        W12490  24.682   3.848   0.908
40198W        W12491  32.438  36.852  13.379
40199W        W12492  35.465  33.891  14.819
40200W        W12493  17.724  44.475   1.790
40201W        W12494  15.189  20.665  12.837
40202W        W12495  33.104  32.031   0.354
40203W        W12496  18.667  30.537  10.451
40204W        W12497  31.418  23.662  12.078
40205W        W12498  22.248   0.302   4.243
40206W        W12499   8.666  15.254   4.650
40207W        W12500  26.052  43.856   4.754
40208W        W12501  10.871  15.186  12.922
40209W        W12502  16.667  26.529  12.466
40210W        W12503   4.878  15.762   3.282
40211W        W12504   2.245  40.441  11.431
40212W        W12505  36.884   8.209  11.511
40213W        W12506  31.612  27.949   9.941
40214W        W12507  11.308  25.211  11.895
40215W        W12508  20.567  35.059   1.910
40216W        W12509  20.732  34.932   0.797
40217W        W12510  24.181  32.625   3.244
40218W        W12511  19.758   3.353   1.758
40219W        W12512   2.444  19.608  13.800
40220W        W12513  39.038  17.708  13.338
40221W        W12514   8.381   1.278   1.253
40222W        W12515  26.059  12.836   4.644
40223W        W12516  13.285  12.826   0.856
40224W        W12517   3.843  32.595   2.379
40225W        W12518  28.989  14.796   1.343
40226W        W12519  29.608   9.273   0.247
40227W        W12520  44.373   6.369  12.081
40228W        W12521  13.646  37.452  12.432
40229W        W12522  22.572   1.369  12.908
40230W        W12523   5.396  22.541   3.278
40231W        W12524  30.953   4.843  13.481
40232W        W12525  40.943  36.963  13.409
40233W        W12526  35.919   6.828  13.997
40234W        W12527   4.308  15.089  13.903
40235W        W12528   8.348  29.130  13.547
40236W        W12529  36.984  25.646   0.820
40237W        W12530  32.428  25.968   2.775
40238W        W12531  13.757  13.769  12.446
40239W        W12532  36.568  17.640   2.323
40240W        W12533  19.136  43.425  13.385
40241W        W12534   6.825   6.308   0.943
40242W        W12535  24.490  17.719   3.311
40243W        W12536   3.738   9.295  11.960
40244W        W12537  24.616   8.792   3.248
40245W        W12538  16.679  23.707   2.285
40246W        W12539  25.540  25.565   4.221
40247W        W12540  42.417  16.087  11.431
40248W        W12541  14.248  31.606  11.978
40249W        W12542   5.714   2.845   1.925
40250W        W12543  25.186  33.117  13.463
40251W        W12544  26.464  44.971   3.235
40252W        W12545   3.322  40.865   2.183
40253W        W12546   2.754  41.369   2.409
40254W        W12547  12.737  42.897  11.091
40255W        W12548   1.378  43.319   1.253
40256W        W12549  25.219  44.340  14.386
40257W        W12550  29.942  25.490   2.267
40258W        W12551  31.981   5.417  13.864
40259W        W12552  12.244  11.286  11.958
40260W        W12553   4.275  33.029   3.857
40261W        W12554  34.999  16.162   0.774
40262W        W12555  14.181  19.079  14.013
40263W        W12556  37.926  32.635   1.797
40264W        W12557  19.070  20.752   5.794
40265W        W12558  20.160  24.724  10.977
40266W        W12559  23.535  30.097   2.324
40267W        W12560  15.207  44.924   1.883
40268W        W12561  17.154  18.586   4.280
40269W        W12562  19.058  40.883   2.299
40270W        W12563  20.269  35.431   3.323
40271W        W12564  43.289  38.471  11.449
40272W        W12565   4.747  39.824  14.428
40273W        W12566  22.213  33.012  12.045
40274W        W12567   6.313  41.323  14.871
40275W        W12568  31.497  38.477   1.799
40276W        W12569  30.643  18.248  10.954
40277W        W12570  19.046  21.701  12.848
40278W        W12571  33.413  10.684   2.193
40279W        W12572  31.119   9.223  13.342
40280W        W12573   1.920  20.571  11.061
40281W        W12574  27.651  22.072   4.283
40282W        W12575  30.535  22.207   0.462
40283W        W12576  15.599  18.219   2.297
40284W        W12577   3.895  27.059  10.913
40285W        W12578   2.401   5.756   1.364
40286W        W12579  16.697  30.615  12.836
40287W        W12580   4.257   3.722   1.814
40288W        W12581  24.578  36.534  12.948
40289W        W12582   2.823   0.446   3.722
40290W        W12583  19.744  42.469   1.913
40291W        W12584  24.631  29.549  13.816
40292W        W12585  15.748   7.728  13.860
40293W        W12586  35.955  10.189   0.344
40294W        W12587  37.536  16.181  14.494
40295W        W12588  27.541  15.090  11.996
40296W        W12589  25.983  24.528  13.412
40297W        W12590  10.277  34.609   4.256
40298W        W12591  44.300  43.792  14.897
40299W        W12592  20.052  34.941   3.199
40300W        W12593   7.292  31.409  13.035
40301W        W12594  13.147  13.670   3.718
40302W        W12595  18.195  35.946   4.647
40303W        W12596  41.315  22.670   3.734
40304W        W12597  26.685  23.102  10.533
40305W        W12598   6.311   8.729  11.008
40306W        W12599  32.957   0.376   1.811
40307W        W12600  26.480  33.012   3.275
40308W        W12601   4.920  11.715  13.855
40309W        W12602  28.571  30.105  13.509
40310W        W12603  27.600  39.367  10.889
40311W        W12604  28.179  40.891   3.273
40312W        W12605  33.928   2.784  11.047
40313W        W12606   3.257  38.395  10.974
40314W        W12607   5.830  14.825  14.013
40315W        W12608   0.307  35.019   5.616
40316W        W12609  42.387  13.207  12.061
40317W        W12610  44.972   9.709   0.313
40318W        W12611   5.925   0.803   2.335
40319W        W12612  12.308   9.721   4.833
40320W        W12613  40.857  43.862   4.651
40321W        W12614   0.871  18.769   3.216
40322W        W12615  41.034  40.011  13.434
40323W        W12616  14.335  12.166  12.467
40324W        W12617  32.565  17.215  13.480
40325W        W12618  16.197  10.207   0.931
40326W        W12619  16.073  17.233  10.977
40327W        W12620  40.914  41.031  13.389
40328W        W12621   4.273  17.668   3.298
40329W        W12622   7.316  11.272  12.896
40330W        W12623  35.046  19.221   4.283
40331W        W12624  13.620  33.128  11.595
40332W        W12625  17.190   5.344   0.965
40333W        W12626  15.217  24.220   1.325
40334W        W12627  41.457  24.138   5.099
40335W        W12628  12.363   6.224   1.906
40336W        W12629  36.891  10.677  13.543
40337W        W12630   3.437  20.696  12.066
40338W        W12631   6.676  43.817  13.802
40339W        W12632  36.868  19.144  12.998
40340W        W12633   7.417  34.372  13.043
40341W        W12634  44.488  12.214  13.321
40342W        W12635   8.349  32.573   1.326
40343W        W12636  26.535  42.945   0.243
40344W        W12637  12.318  18.560  12.076
40345W        W12638   8.713  31.988  13.045
40346W        W12639   7.897   0.438   2.688
40347W        W12640  26.703  18.111   2.777
40348W        W12641  23.599  27.106  12.033
40349W        W12642  44.995  33.059   2.277
40350W        W12643  39.371  44.323  12.047
40351W        W12644  22.655  13.811  11.409
40352W        W12645  24.639  17.115   1.275
40353W        W12646  15.151  10.838   2.841
40354W        W12647  43.488  34.614  11.554
40355W        W12648   2.961   7.713   1.442
40356W        W12649   2.248  15.159  13.939
40357W        W12650  32.905  14.728   1.273
40358W        W12651  18.067   7.227  14.372
40359W        W12652  15.791  19.106   2.879
40360W        W12653  30.922  44.402  11.018
40361W        W12654   2.923  11.796  12.902
40362W        W12655  42.777  25.624   2.805
40363W        W12656  41.367  38.486   4.298
40364W        W12657  30.144   4.883   0.311
40365W        W12658  30.462   2.259   3.841
40366W        W12659  40.821  35.068   2.371
40367W        W12660  30.571  26.202  13.899
40368W        W12661  19.193   1.927  13.411
40369W        W12662  23.629  30.541  11.052
40370W        W12663  26.653  30.130   3.286
40371W        W12664  10.168  22.723   1.250
40372W        W12665  10.740  40.910   3.713
40373W        W12666  40.802  15.293   4.297
40374W        W12667  31.999  30.078   0.392
40375W        W12668  13.726  14.120  11.447
40376W        W12669  27.651   1.325  14.318
40377W        W12670  12.663  34.887  14.021
40378W        W12671  37.436   4.728   1.284
40379W        W12672  15.272  21.520   1.821
40380W        W12673  13.732  37.018  11.450
40381W        W12674  35.469  14.629   2.869
40382W        W12675  42.304  41.962  12.880
40383W        W12676  37.921  29.597  14.947
40384W        W12677  18.203  21.618   0.954
40385W        W12678  38.548  36.909   0.447
40386W        W12679  39.457  11.221   0.352
40387W        W12680  10.764  30.478   0.317
40388W        W12681  31.971  41.909  14.409
40389W        W12682  16.688   4.434  10.530
40390W        W12683  22.239   5.246  14.029
40391W        W12684  13.654   7.208   2.685
40392W        W12685  21.541  13.157   3.356
40393W        W12686  43.431   1.906  11.587
40394W        W12687  27.616  32.557  13.893
40395W        W12688  30.161  10.854  12.519
40396W        W12689  27.672  13.610   2.824
40397W        W12690  23.654  32.081  10.438
40398W        W12691  13.814   5.224   0.335
40399W        W12692  24.570   0.351   1.431
40400W        W12693  41.456  28.519   3.755
40401W        W12694  11.659  39.519   2.200
40402W        W12695  10.250  30.581   1.269
40403W        W12696   5.415  26.951   3.369
40404W        W12697  20.145  15.209   2.248
40405W        W12698   4.882  42.868  11.947
40406W        W12699  40.448   0.842  11.539
40407W        W12700  36.476  11.808   4.732
40408W        W12701  22.078   9.328  11.525
40409W        W12702  36.481  17.662   4.233
40410W        W12703  26.010  23.002  12.089
40411W        W12704  19.271  36.028  10.889
40412W        W12705   2.962  14.628   3.272
40413W        W12706   9.869   2.366  13.062
40414W        W12707  25.498  28.041  10.615
40415W        W12708   1.389  30.470   4.627
40416W        W12709  29.127  26.207  13.421
40417W        W12710   4.818  12.283   2.391
40418W        W12711   9.214   6.753  12.833
40419W        W12712   2.434  29.474  12.561
40420W        W12713  22.066  44.312   3.342
40421W        W12714  26.151  43.959   2.785
40422W        W12715  33.429  33.974  14.407
40423W        W12716  22.602  25.076   2.236
40424W        W12717  28.012  43.364   2.716
40425W        W12718  25.585  38.997  10.923
40426W        W12719  22.175   4.774   3.854
40427W        W12720   8.754   2.838  14.282
40428W        W12721  17.194  28.154  11.477
40429W        W12722   4.218  14.289  12.017
40430W        W12723  21.235  18.244  11.010
40431W        W12724  28.487  37.985   1.772
40432W        W12725  35.552  18.613   1.807
40433W        W12726  44.994  13.225   2.679
40434W        W12727  44.863  13.685  12.862
40435W        W12728  16.747  30.966  11.989
40436W        W12729  35.913  16.233  14.279
40437W        W12730  32.131  25.521  12.828
40438W        W12731  20.670  15.770  14.880
40439W        W12732  39.984   3.732  12.856
40440W        W12733   4.816  16.793  12.001
40441W        W12734  40.862  28.958  11.406
40442W        W12735   9.818  44.992   1.808
40443W        W12736  39.019   0.836  12.038
40444W        W12737  20.701   4.341   4.781
40445W        W12738   6.747  29.144  13.996
40446W        W12739  16.738  44.438  10.526
40447W        W12740   8.204  43.288   2.688
40448W        W12741   1.476  31.027  12.044
40449W        W12742  42.967  15.667   1.755
40450W        W12743  27.140  26.153  11.063
40451W        W12744  35.474  18.754  11.449
40452W        W12745  41.330  13.344  12.405
40453W        W12746  40.987   7.849   0.757
40454W        W12747   7.319  22.577  14.309
40455W        W12748  25.197   9.275  14.976
40456W        W12749   6.331  13.827  10.992
40457W        W12750   9.347  33.554  11.518
40458W        W12751  39.976   5.706   3.836
40459W        W12752  16.241   5.283   3.229
40460W        W12753  17.125  33.594  10.501
40461W        W12754  19.772  19.147  13.878
40462W        W12755  15.674   5.271   2.799
40463W        W12756  36.531  13.624  13.540
40464W        W12757  15.227  21.247   0.880
40465W        W12758  24.583   1.450   2.889
40466W        W12759  37.372  23.576  13.463
40467W        W12760  37.580  10.228   3.753
40468W        W12761   2.799  14.825  11.862
40469W        W12762  12.207   9.807   0.429
40470W        W12763   0.296  16.293   1.268
40471W        W12764  22.086  13.283  13.852
40472W        W12765   9.259  41.484  11.586
40473W        W12766   4.787  12.329  12.390
40474W        W12767  38.557  17.169   2.714
40475W        W12768  37.937  27.052   0.733
40476W        W12769  10.351  30.560  13.422
40477W        W12770   4.282   1.281  10.901
40478W        W12771  40.474  26.656  12.507
40479W        W12772  14.593  17.211   4.116
40480W        W12773  26.544   3.852  13.953
40481W        W12774  16.688  13.255   2.307
40482W        W12775  44.468  43.508  10.903
40483W        W12776   3.808  41.351   4.781
40484W        W12777  30.445  32.053   4.615
40485W        W12778  12.243  17.618  11.406
40486W        W12779  43.320  23.625   2.754
40487W        W12780  31.917  27.672   3.709
40488W        W12781  40.997   7.757   1.875
40489W        W12782  16.811   5.900  12.965
40490W        W12783  37.970  27.974   2.208
40491W        W12784  35.459   4.764   0.843
40492W        W12785   3.720  21.084  12.920
40493W        W12786  36.939  25.513   3.633
40494W        W12787  38.428  32.541  14.347
40495W        W12788  18.273  28.001   3.259
40496W        W12789  11.355  26.694  13.874
40497W        W12790   9.183  39.425  14.356
40498W        W12791  27.141  39.530  12.967
40499W        W12792  22.999   5.283  14.379
40500W        W12793   1.241  43.398   4.707
40501W        W12794  12.141  11.663   3.278
40502W        W12795  35.577  16.632  11.044
40503W        W12796  44.488   4.782  14.988
40504W        W12797  16.302  39.063  11.388
40505W        W12798  10.370  28.071   1.263
40506W        W12799  41.860  17.105  13.351
40507W        W12800  34.520   8.833  12.427
40508W        W12801   4.762  23.623  10.092
40509W        W12802   4.277  11.641   2.853
40510W        W12803  23.673  23.598   2.693
40511W        W12804  13.137  23.655  12.397
40512W        W12805  24.098  11.133  10.894
40513W        W12806  15.257  10.820  13.858
40514W        W12807  15.627  34.962  11.439
40515W        W12808  26.177  38.853  12.003
40516W        W12809   7.773  12.620  10.538
40517W        W12810  33.883   2.472  11.384
40518W        W12811  11.362   4.401  13.478
40519W        W12812  23.647  37.019   1.373
40520W        W12813  19.270  14.603   0.475
40521W        W12814  32.056   6.211   3.713
40522W        W12815  30.045  28.178  12.879
40523W        W12816  31.086  41.844   0.327
40524W        W12817   3.333  44.329   2.192
40525W        W12818  20.263  23.680  12.094
40526W        W12819  36.349  43.833   0.787
40527W        W12820  29.564  14.715  13.341
40528W        W12821  28.136  16.095   3.809
40529W        W12822  25.074  14.750  13.547
40530W        W12823   6.777  40.930  10.923
40531W        W12824   8.753  23.143  13.030
40532W        W12825  10.335  20.723  14.960
40533W        W12826  23.131   7.387  13.001
40534W        W12827   8.846   3.836   5.275
40535W        W12828  15.738  17.289  12.355
40536W        W12829  22.028  29.151  12.481
40537W        W12830  36.983  24.088  14.297
40538W        W12831  19.558  40.462  11.390
40539W        W12832  13.235  21.042   2.760
40540W        W12833   6.788  16.809  12.457
40541W        W12834   2.940  35.508   2.282
40542W        W12835  22.520  34.427   0.351
40543W        W12836  15.152  19.265   3.812
40544W        W12837  21.658  24.090   0.254
40545W        W12838  32.133  34.609   4.749
40546W        W12839   9.165  37.033  10.415
40547W        W12840  13.207  11.159   1.858
40548W        W12841  14.164  37.449   1.788
40549W        W12842  25.662  26.484   2.832
40550W        W12843  36.571  23.172   4.179
40551W        W12844  32.014  26.533  11.458
40552W        W12845   8.655   5.749  13.392
40553W        W12846  20.546  16.793   1.815
40554W        W12847  44.934  41.533  11.457
40555W        W12848   2.737  21.718  13.022
40556W        W12849  12.702  25.679   0.346
40557W        W12850   1.479  28.962   0.409
40558W        W12851  11.634  25.600   0.435
40559W        W12852  44.496  16.631  11.429
40560W        W12853  12.637   8.700  10.411
40561W        W12854  21.205  12.140  11.477
40562W        W12855   8.251  33.076  14.511
40563W        W12856   3.889  18.685  13.968
40564W        W12857  44.841  17.074  11.974
40565W        W12858   1.398  36.504   0.255
40566W        W12859  21.030   3.283  10.601
40567W        W12860  32.629  15.228   1.326
40568W        W12861  22.065  34.105   1.211
40569W        W12862  29.161   6.337   1.705
40570W        W12863  30.432  17.281   3.214
40571W        W12864  30.082   0.779   4.196
40572W        W12865  13.327  17.710  14.900
40573W        W12866  37.934   0.380   3.683
40574W        W12867  27.143  39.835  10.939
40575W        W12868  42.948  30.452  15.000
40576W        W12869   8.866  32.456  10.429
40577W        W12870   2.769  19.550  13.340
40578W        W12871  12.836  27.096  11.562
40579W        W12872  39.435  44.786   4.312
40580W        W12873   9.737  10.278   2.699
40581W        W12874   8.323  37.029   9.643
40582W        W12875  15.150  26.637  12.451
40583W        W12876  14.322  29.669   1.390
40584W        W12877   6.257  12.739   0.448
40585W        W12878   3.718  37.055  12.954
40586W        W12879   7.785  16.678  13.409
40587W        W12880   2.437  39.882   3.852
40588W        W12881  15.182  19.690  14.467
40589W        W12882  11.324  10.777  10.563
40590W        W12883  23.999  16.594  13.023
40591W        W12884  26.543  36.858   3.255
40592W        W12885  36.586  30.629  13.966
40593W        W12886  28.942  10.793   3.831
40594W        W12887  19.725  22.224  14.847
40595W        W12888  42.790   7.385  13.343
40596W        W12889  36.472  13.105  13.502
40597W        W12890  11.684  37.512   3.209
40598W        W12891  30.078  19.701   4.128
40599W        W12892  24.576  42.461   3.351
40600W        W12893  31.928   1.776   5.247
40601W        W12894  23.622  41.005   2.205
40602W        W12895   9.232  24.163   4.732
40603W        W12896  22.177  19.656  14.996
40604W        W12897  23.655  43.449   1.863
40605W        W12898  10.862  32.091   4.693
40606W        W12899  16.285  33.989   0.804
40607W        W12900  23.541  41.019   2.901
40608W        W12901  10.824  34.597  11.447
40609W        W12902  15.182   0.345   2.750
40610W        W12903   2.878  23.168   3.740
40611W        W12904  42.995  10.746   2.726
40612W        W12905  11.260  31.920   0.966
40613W        W12906  41.967   3.812   4.159
40614W        W12907  24.107  17.666  14.350
40615W        W12908  29.565  14.268   0.378
40616W        W12909  10.322  37.982  13.895
40617W        W12910  17.717  23.148  13.033
40618W        W12911  42.360  37.362   4.259
40619W        W12912  25.694  27.074  10.890
40620W        W12913   9.167  24.647  13.910
40621W        W12914   1.360   6.376   4.343
40622W        W12915  35.553  29.522  11.478
40623W        W12916  23.000  43.503  12.000
40624W        W12917  27.466   9.294  12.070
40625W        W12918   4.769   1.812   5.203
40626W        W12919  17.061  10.320  10.008
40627W        W12920  39.037  22.144  13.049
40628W        W12921  10.334  18.629   0.377
40629W        W12922   6.845   1.762   0.902
40630W        W12923  21.096  10.689   3.670
40631W        W12924  43.803  41.318   4.139
40632W        W12925   7.828  10.761  11.925
40633W        W12926   1.387  20.235  12.988
40634W        W12927  29.138  37.401  10.153
40635W        W12928  14.291  17.146   3.732
40636W        W12929  35.978  14.110  11.513
40637W        W12930  43.310   0.366   2.824
40638W        W12931  19.646  17.642   1.782
40639W        W12932  11.143  14.195  14.858
40640W        W12933   4.335  27.480  12.919
40641W        W12934   5.197  42.029   4.263
40642W        W12935  32.961  17.209  14.944
40643W        W12936   2.782  43.508   3.769
40644W        W12937  17.083   7.201   2.795
40645W        W12938  11.196  22.035   4.801
40646W        W12939  21.254  36.354   2.342
40647W        W12940  30.464  15.783   0.899
40648W        W12941  44.866  35.072   2.725
40649W        W12942  21.518   7.263   5.266
40650W        W12943   3.891  23.592  11.881
40651W        W12944  33.486  18.126   4.609
40652W        W12945  27.643  19.718   3.184
40653W        W12946  31.098  13.752   3.235
40654W        W12947  25.209  22.082   4.220
40655W        W12948  35.985   6.424   2.303
40656W        W12949   3.217  16.157   1.376
40657W        W12950   6.796   0.492  13.436
40658W        W12951  34.965  20.220   4.770
40659W        W12952  17.306  11.774   0.793
40660W        W12953  43.925  40.377  13.348
40661W        W12954  25.041  22.747   2.330
40662W        W12955  15.702  39.319   4.147
40663W        W12956  27.031   2.334   0.391
40664W        W12957   9.372   7.243  13.339
40665W        W12958  11.204  14.248  12.550
40666W        W12959   7.741   3.781  13.829
40667W        W12960  30.592  37.953   3.823
40668W        W12961   1.757  37.404  12.466
40669W        W12962  20.718  36.866  14.494
40670W        W12963  31.447  32.911  14.485
40671W        W12964   4.264   5.730   1.337
40672W        W12965  26.188  22.128   4.170
40673W        W12966  40.020  35.031   0.248
40674W        W12967   2.243  26.162  13.005
40675W        W12968  35.591  44.426  10.430
40676W        W12969  19.204   8.676   0.756
40677W        W12970  32.420  15.661   1.796
40678W        W12971  30.446  38.439  13.422
40679W        W12972  19.711  35.571  14.017
40680W        W12973  32.407   3.886  11.510
40681W        W12974  37.941   4.402   4.608
40682W        W12975   4.417  36.462   0.966
40683W        W12976  43.952   7.242  11.979
40684W        W12977  29.123  33.553  13.961
40685W        W12978  44.387  42.294   4.818
40686W        W12979  14.709  31.570   2.221
40687W        W12980  16.217  25.022  12.031
40688W        W12981  20.213  29.023   1.707
40689W        W12982   9.165  13.710   0.918
40690W        W12983  35.940  13.236  12.953
40691W        W12984  27.656   0.913   3.361
40692W        W12985  44.429  43.947  12.375
40693W        W12986   8.808  34.427  13.840
40694W        W12987  35.889  31.075   3.839
40695W        W12988  30.981  23.585   2.798
40696W        W12989  10.329  13.658  12.901
40697W        W12990   3.759  14.662  12.045
40698W        W12991  32.624  42.404   1.779
40699W        W12992  30.575  13.226  11.048
40700W        W12993  19.618   8.373  12.004
40701W        W12994   7.711  43.906   4.670
40702W        W12995  19.767  38.069   2.862
40703W        W12996  30.942  13.134  10.597
40704W        W12997  18.152  43.337  11.049
40705W        W12998   4.434   4.776   1.361
40706W        W12999  39.955  41.953   4.634
40707W        W13000  31.966  31.148   0.775
40708W        W13001  31.979  41.799   4.774
40709W        W13002   8.753  26.077  12.087
40710W        W13003  33.069  43.397  13.864
40711W        W13004  26.513  41.839   3.763
40712W        W13005  31.002  34.425  12.440
40713W        W13006   0.480  40.406  13.450
40714W        W13007   9.179   4.387  12.378
40715W        W13008  17.762  37.445  10.551
40716W        W13009  34.032  17.791   2.342
40717W        W13010   1.253  16.292   2.241
40718W        W13011   0.919  19.040   2.399
40719W        W13012  35.384  16.265  10.933
40720W        W13013  22.700  30.133  13.917
40721W        W13014  42.478  16.254   3.767
40722W        W13015   1.244  26.060   0.363
40723W        W13016  24.222  21.027   2.388
40724W        W13017  27.615  40.928  10.570
40725W        W13018  10.822  44.464  12.572
40726W        W13019  19.231   0.304  10.475
40727W        W13020   5.194  15.733  11.987
40728W        W13021  33.927  15.753  13.855
40729W        W13022  11.847  15.813   0.783
40730W        W13023  19.247  14.648  12.886
40731W        W13024   0.447  12.630   0.948
40732W        W13025  35.933  44.444  11.098
40733W        W13026  13.641   6.706  12.518
40734W        W13027  24.494  38.433   0.354
40735W        W13028  19.673  28.158  11.931
40736W        W13029  35.387  22.561   0.900
40737W        W13030  14.699  44.908   4.126
40738W        W13031  36.016   3.746  10.506
40739W        W13032  15.661  30.961  13.347
40740W        W13033  32.982  10.866  14.445
40741W        W13034  18.718  31.070  13.488
40742W        W13035   4.253  22.707  12.941
40743W        W13036  31.941  27.535  14.339
40744W        W13037   6.426   9.763   4.312
40745W        W13038  16.686  33.409  10.629
40746W        W13039  30.069  29.141  11.395
40747W        W13040  38.860  16.199   4.225
40748W        W13041   0.838  21.210  13.410
40749W        W13042  40.052   1.399  10.909
40750W        W13043  43.441   5.846  14.371
40751W        W13044  10.363   8.244  11.855
40752W        W13045  43.790   0.949   1.816
40753W        W13046  13.149   0.358  11.375
40754W        W13047  41.851  44.870  11.062
40755W        W13048  27.626  36.469   0.872
40756W        W13049   8.723  30.149  14.283
40757W        W13050  20.553  31.983  10.513
40758W        W13051  19.156  36.925  14.881
40759W        W13052  28.972  40.473  12.984
40760W        W13053  43.458  34.585   2.839
40761W        W13054  30.150  36.894  11.861
40762W        W13055  38.462  37.503  13.384
40763W        W13056   9.349   8.292  11.950
40764W        W13057   5.258  14.323   0.963
40765W        W13058  22.200  12.762   1.843
40766W        W13059  42.377   4.347   4.131
40767W        W13060  16.689  24.983  11.858
40768W        W13061   9.267   1.868   0.900
40769W        W13062  32.430   2.836  11.101
40770W        W13063  41.386   2.228   1.795
40771W        W13064  33.987  33.922   4.774
40772W        W13065  25.598  16.674   2.228
40773W        W13066  14.279  25.603  13.327
40774W        W13067  43.963  20.040  11.378
40775W        W13068  15.088  20.125  11.463
40776W        W13069  19.778  14.814  12.997
40777W        W13070  31.992   7.348  12.537
40778W        W13071  42.818  20.722   1.793
40779W        W13072  40.045   3.268   0.957
40780W        W13073  26.687  19.733   1.875
40781W        W13074  30.506  27.634  13.433
40782W        W13075  23.659   8.321  10.978
40783W        W13076  39.491  39.336  11.096
40784W        W13077  19.172  35.053  14.371
40785W        W13078  20.109   3.806  12.572
40786W        W13079  31.118  29.135   1.315
40787W        W13080  37.830  42.908   5.113
40788W        W13081  12.253   8.714   2.888
40789W        W13082   9.661  14.330  14.964
40790W        W13083  33.962  38.034   0.938
40791W        W13084  29.155  10.323  12.016
40792W        W13085  41.303  22.019   3.239
40793W        W13086  44.423  10.834   0.726
40794W        W13087   7.738  39.554   3.209
40795W        W13088  40.380  14.738  12.352
40796W        W13089  20.169  23.646   1.924
40797W        W13090  34.990  40.005   1.710
40798W        W13091  23.105  11.798  14.813
40799W        W13092  39.982  10.327   4.256
40800W        W13093  15.260   3.797  11.468
40801W        W13094  34.483  24.665  11.520
40802W        W13095   9.870  38.004  12.932
40803W        W13096  20.672  32.917   4.262
40804W        W13097  30.453   6.760  11.516
40805W        W13098  35.514  42.378  14.340
40806W        W13099  21.619  27.568   2.249
40807W        W13100  12.344  33.388   2.863
40808W        W13101  42.789   0.248  11.046
40809W        W13102  40.307  21.722   1.287
40810W        W13103   0.453  16.641   0.838
40811W        W13104  25.192   5.322  11.472
40812W        W13105  43.515  40.917   0.926
40813W        W13106  12.234  38.418  11.007
40814W        W13107   3.221  17.231   0.455
40815W        W13108  25.191   8.899   2.823
40816W        W13109  24.994  41.900   1.425
40817W        W13110  40.411  17.064   4.717
40818W        W13111  15.300  22.083   4.269
40819W        W13112  35.019  14.641   2.285
40820W        W13113  12.200  35.462   1.334
40821W        W13114  19.121  12.707   2.198
40822W        W13115  32.042  21.250  11.437
40823W        W13116   4.938  26.609  11.971
40824W        W13117  43.409  24.146  14.410
40825W        W13118  20.538  20.541   1.757
40826W        W13119  12.757  43.821  12.893
40827W        W13120  20.574  23.688  11.914
40828W        W13121   6.192  15.246   0.958
40829W        W13122  29.163  11.298  10.511
40830W        W13123  22.560  39.905   1.731
40831W        W13124  35.032  32.979   2.802
40832W        W13125  13.163  31.132   0.831
40833W        W13126  24.705  40.427   3.788
40834W        W13127  39.448  20.241  10.481
40835W        W13128  41.532  23.622   3.300
40836W        W13129   6.786  12.768   4.835
40837W        W13130   3.785  11.633   4.645
40838W        W13131  27.507  36.412   2.683
40839W        W13132   0.447  39.402   2.266
40840W        W13133  40.316  19.594  14.907
40841W        W13134  28.461  31.107   0.251
40842W        W13135   2.427  25.001  14.355
40843W        W13136  27.064   1.282  11.599
40844W        W13137  29.430  29.433   3.385
40845W        W13138  26.193  40.877  10.415
40846W        W13139   6.246  10.823  14.398
40847W        W13140  44.794  14.663   2.885
40848W        W13141  34.387  42.990  11.957
40849W        W13142  19.686  35.546  11.905
40850W        W13143  26.013  31.144  11.563
40851W        W13144   3.414   9.322  12.448
40852W        W13145  25.627  28.645   0.855
40853W        W13146  25.098  38.872  14.986
40854W        W13147  40.916  28.162   1.241
40855W        W13148  14.606  16.772  13.843
40856W        W13149  37.498   8.334   1.735
40857W        W13150   4.308  34.485  13.944
40858W        W13151  24.591  17.731   2.837
40859W        W13152  34.463  10.807  10.517
40860W        W13153   2.772  18.559   0.818
40861W        W13154   6.351  18.232  12.981
40862W        W13155  33.611  24.533  13.884
40863W        W13156  16.700  16.726  10.602
40864W        W13157  34.513  43.905   4.292
40865W        W13158  19.717   3.395  11.967
40866W        W13159   9.858  19.249   3.848
40867W        W13160  30.654  10.697  14.329
40868W        W13161   2.360  15.764   3.730
40869W        W13162  29.641  23.640   9.923
40870W        W13163  12.351  16.749   2.272
40871W        W13164  12.309  17.189  10.615
40872W        W13165  43.791   7.842  12.886
40873W        W13166   3.769  20.548  12.048
40874W        W13167   9.175  38.562   1.379
40875W        W13168  23.714   0.364  12.537
40876W        W13169  22.522  43.327   0.304
40877W        W13170  32.982  38.971  14.411
40878W        W13171  21.128  21.197   4.809
40879W        W13172  26.148   2.858  14.985
40880W        W13173   0.481  43.300  14.816
40881W        W13174  28.102  42.321  11.977
40882W        W13175  31.036  44.278   9.954
40883W        W13176   5.275  25.687   4.653
40884W        W13177  44.955  23.098   3.202
40885W        W13178  31.990  18.678   3.745
40886W        W13179  23.512   4.240   1.258
40887W        W13180   2.933  35.510  10.625
40888W        W13181  19.697  24.718   0.887
40889W        W13182  34.902  43.500   1.694
40890W        W13183  33.924  44.291  10.025
40891W        W13184  26.007   8.318  11.524
40892W        W13185   9.880  34.526  10.947
40893W        W13186  42.995  33.575   2.415
40894W        W13187  26.188  40.036  11.931
40895W        W13188   5.718  32.999   0.964
40896W        W13189  35.572  17.576   4.303
40897W        W13190  38.498  27.068  12.012
40898W        W13191  40.328  23.702  14.972
40899W        W13192  32.617  34.870   2.810
40900W        W13193  23.600  12.295   3.799
40901W        W13194  37.442  37.434  11.033
40902W        W13195  31.578  20.032   4.649
40903W        W13196  13.786  36.449   4.725
40904W        W13197  25.052   4.385   4.225
40905W        W13198   4.413  36.350  12.540
40906W        W13199  11.621  28.534   0.269
40907W        W13200  25.201  44.757   0.441
40908W        W13201  31.594  30.541  11.859
40909W        W13202   5.809  38.376   0.929
40910W        W13203  20.704  18.751   4.833
40911W        W13204  44.288   1.837  12.841
40912W        W13205  23.031  13.787  14.800
40913W        W13206   5.712  26.649   0.866
40914W        W13207   4.308   6.398   3.784
40915W        W13208  40.323   7.880   3.712
40916W        W13209   3.255   7.388   2.860
40917W        W13210   1.743  16.245  14.868
40918W        W13211  36.422  40.861   1.695
40919W        W13212  11.339  13.666  10.454
40920W        W13213   1.483  43.356  11.006
40921W        W13214  20.685  40.371   4.638
40922W        W13215  39.433  32.525   4.249
40923W        W13216  18.620  20.736   9.516
40924W        W13217  37.474  37.433  12.867
40925W        W13218  43.002  24.491   3.327
40926W        W13219  31.000   4.371   2.839
40927W        W13220   1.757  38.542   2.778
40928W        W13221   0.971  40.954   3.781
40929W        W13222  39.479   7.335   4.242
40930W        W13223  29.473  18.739   3.195
40931W        W13224  39.526  15.256  12.841
40932W        W13225  28.967  38.897  12.040
40933W        W13226  18.144  28.496   0.950
40934W        W13227  13.248   2.901   3.250
40935W        W13228  41.791  37.008  11.515
40936W        W13229  16.731   5.876  11.906
40937W        W13230  37.025  36.459   0.357
40938W        W13231  24.515   4.718   1.733
40939W        W13232  43.944  20.639   3.859
40940W        W13233  40.865  26.677   2.709
40941W        W13234  30.140  25.707   3.640
40942W        W13235  38.400  36.371   0.739
40943W        W13236   3.255  37.425   0.468
40944W        W13237   4.897  35.905   1.393
40945W        W13238  29.523  26.134   0.931
40946W        W13239  24.591  22.188   4.343
40947W        W13240   2.448   5.816   4.811
40948W        W13241  34.995  42.921  10.071
40949W        W13242  20.113   2.315  11.391
40950W        W13243  23.677   1.755  13.994
40951W        W13244   7.288  20.084  10.907
40952W        W13245  13.608  43.796  14.455
40953W        W13246  27.114  30.019   1.775
40954W        W13247   8.866  36.981  12.442
40955W        W13248  41.811  37.906  11.472
40956W        W13249   0.775  27.189  13.875
40957W        W13250  33.391   2.374   2.847
40958W        W13251  32.902  22.715   3.211
40959W        W13252   9.788   7.738   2.322
40960W        W13253  28.060   5.873  14.399
40961W        W13254  29.135  36.902  14.463
40962W        W13255  42.512  15.192   3.730
40963W        W13256  40.413  35.012  14.509
40964W        W13257  24.663  10.806   3.703
40965W        W13258  26.601  19.770  10.413
40966W        W13259  22.537  19.259   3.346
40967W        W13260  10.776  24.013   4.239
40968W        W13261   3.743  19.629   4.755
40969W        W13262  13.795  20.563  14.940
40970W        W13263  24.117  41.909  13.449
40971W        W13264   5.799  16.725   0.838
40972W        W13265  21.685  34.392   3.149
40973W        W13266  26.194   7.229   0.416
40974W        W13267   4.441  17.794   2.403
40975W        W13268   6.345   8.861  14.812
40976W        W13269  39.340  27.575   3.384
40977W        W13270   1.319  21.610   1.330
40978W        W13271  24.625  41.974  11.891
40979W        W13272  14.239  22.539  12.898
40980W        W13273   9.730  23.065   2.287
40981W        W13274  10.814  37.048   2.384
40982W        W13275   3.838   5.197   1.876
40983W        W13276   0.744  32.942   3.844
40984W        W13277  11.140  21.629   0.903
40985W        W13278  28.081  10.701   0.791
40986W        W13279  31.139  31.949   3.852
40987W        W13280  34.007   9.361  14.941
40988W        W13281   9.194  27.676   0.958
40989W        W13282  38.050  12.751  12.353
40990W        W13283   6.297  40.812  10.573
40991W        W13284   4.752   9.386   2.799
40992W        W13285  20.143  27.962   2.335
40993W        W13286   5.246  38.009   0.765
40994W        W13287   9.700  15.660  14.858
40995W        W13288   5.367  13.223  14.294
40996W        W13289  37.498  33.053  11.575
40997W        W13290  18.207  38.531   4.729
40998W        W13291  14.255  35.057   2.418
40999W        W13292  37.378  17.145   4.613
41000W        W13293  20.120  40.021  10.474
41001W        W13294  22.593   8.873  12.015
41002W        W13295  34.911   1.277   1.344
41003W        W13296  27.156  11.369   2.747
41004W        W13297  34.879  30.500  11.938
41005W        W13298  36.882   0.474   3.643
41006W        W13299  24.199   9.149  10.480
41007W        W13300  39.021  32.502   0.448
41008W        W13301  19.140  31.961  11.971
41009W        W13302  40.036   7.722   0.945
41010W        W13303  37.938  12.287  13.525
41011W        W13304  30.566  33.442  11.493
41012W        W13305  17.726   1.864  10.898
41013W        W13306   7.714  17.757  14.911
41014W        W13307  10.361  35.859   0.252
41015W        W13308  13.775  34.521   4.754
41016W        W13309  21.153   4.813   1.792
41017W        W13310  38.061  44.989   1.741
41018W        W13311  30.139  21.041   4.625
41019W        W13312  22.217  23.590  14.022
41020W        W13313   9.300  27.533  14.960
41021W        W13314   7.690  23.993  10.989
41022W        W13315   9.812   5.740  14.947
41023W        W13316  36.452  41.376  14.763
41024W        W13317  17.695  18.274  14.287
41025W        W13318  31.422   6.382   0.821
41026W        W13319  15.237  16.195   4.240
41027W        W13320  25.697   4.369   0.791
41028W        W13321  38.820  38.395  11.064
41029W        W13322   3.734  39.439  13.910
41030W        W13323   7.181  11.724   2.703
41031W        W13324  25.983  34.425  13.053
41032W        W13325  11.137   2.384  11.571
41033W        W13326  37.527  32.026  14.488
41034W        W13327  42.466  24.195  11.036
41035W        W13328  31.135  40.034   3.206
41036W        W13329  30.062  11.230   4.774
41037W        W13330  35.559   5.814   4.159
41038W        W13331   1.367  16.790  13.526
41039W        W13332  18.657  39.554   2.229
41040W        W13333   7.307   3.914  14.790
41041W        W13334  43.911  32.992  11.012
41042W        W13335  15.636   7.213   2.856
41043W        W13336   9.288   0.786   3.762
41044W        W13337  29.015  25.641   4.275
41045W        W13338  14.194   8.880   2.880
41046W        W13339  33.896  15.086   1.901
41047W        W13340  20.704  23.510   1.291
41048W        W13341  38.498  40.518   0.383
41049W        W13342   7.340  25.004  11.557
41050W        W13343  40.944   8.219  13.511
41051W        W13344  36.994   6.700   0.897
41052W        W13345  35.438  24.556  13.417
41053W        W13346   7.704  12.614  13.383
41054W        W13347  26.976  16.600  10.964
41055W        W13348  36.419  17.753  10.503
41056W        W13349  32.002  35.057   1.849
41057W        W13350  28.944  29.552  13.044
41058W        W13351  44.362   3.454   1.322
41059W        W13352  29.513  29.433  11.893
41060W        W13353  22.733  21.607   3.202
41061W        W13354  22.683  32.899   2.372
41062W        W13355   4.925  37.460  11.061
41063W        W13356  25.026  34.973   1.742
41064W        W13357  21.530  19.535  14.394
41065W        W13358  26.075  34.606   1.764
41066W        W13359  35.470  15.097   4.649
41067W        W13360  28.649  26.463  13.849
41068W        W13361  38.935  36.504   1.718
41069W        W13362  26.639   9.223  11.436
41070W        W13363   8.668  12.641   4.123
41071W        W13364  33.600  42.005   0.416
41072W        W13365  40.929   1.476   0.894
41073W        W13366  39.396  11.248   3.340
41074W        W13367  24.528  32.554   0.825
41075W        W13368  41.789   6.714   2.380
41076W        W13369  12.701   3.300   1.451
41077W        W13370   1.793  31.057   0.424
41078W        W13371  30.018  29.647   3.360
41079W        W13372   3.344  44.926   4.161
41080W        W13373  20.746  27.995   1.367
41081W        W13374  31.065  36.894   0.394
41082W        W13375  10.196  38.447  13.816
41083W        W13376   6.382  39.365  14.510
41084W        W13377  41.315  27.057   4.143
41085W        W13378  31.111  37.846   3.312
41086W        W13379  39.894   1.312  14.948
41087W        W13380   0.430  28.146   0.468
41088W        W13381  16.787  43.328   0.831
41089W        W13382  34.564   1.410   3.672
41090W        W13383  38.879  17.563  10.565
41091W        W13384  41.313   4.265  14.388
41092W        W13385  27.508  38.564   4.668
41093W        W13386  29.651  39.370  12.355
41094W        W13387  35.554  26.615   0.807
41095W        W13388  14.824  23.610   0.732
41096W        W13389  39.514   1.272  12.061
41097W        W13390  29.108  19.049  11.052
41098W        W13391  34.541  36.492   3.343
41099W        W13392   8.361  34.019   1.770
41100W        W13393  34.507  20.599   2.669
41101W        W13394  19.695  41.351   3.248
41102W        W13395  23.603  26.994  11.554
41103W        W13396  36.403   5.321   4.835
41104W        W13397  23.084   3.878   1.702
41105W        W13398   2.435  39.002   4.149
41106W        W13399   7.290  28.516  11.554
41107W        W13400   7.680  16.280   3.367
41108W        W13401   3.233  35.882   2.212
41109W        W13402   3.787   4.850   3.276
41110W        W13403  22.151  38.064  12.340
41111W        W13404  24.201  19.775  10.450
41112W        W13405   4.323  18.731  12.373
41113W        W13406   4.812  29.918   2.673
41114W        W13407  36.496  20.702   3.701
41115W        W13408  21.048  30.065   4.256
41116W        W13409  41.864   8.273  12.344
41117W        W13410  31.594  16.721  14.841
41118W        W13411  34.436  10.156   1.893
41119W        W13412  36.858  34.396  14.802
41120W        W13413  18.244  28.434  11.530
41121W        W13414  28.464  25.647  10.610
41122W        W13415  32.961   2.332  14.979
41123W        W13416  39.471   5.380  11.889
41124W        W13417   1.916   6.410  13.827
41125W        W13418  41.907   5.801   3.669
41126W        W13419   8.847  11.845   4.810
41127W        W13420  13.697   3.457  11.425
41128W        W13421  34.980   2.783   2.751
41129W        W13422   8.765  24.004  14.795
41130W        W13423  30.987  28.654   3.672
41131W        W13424  24.194  33.435  12.967
41132W        W13425  36.909  42.892  10.416
41133W        W13426  31.471   1.363  14.499
41134W        W13427   4.260  21.710  14.898
41135W        W13428  35.884  26.188   2.217
41136W        W13429  27.030  10.162   0.810
41137W        W13430  43.426  20.048   1.445
41138W        W13431  15.252  28.158   1.898
41139W        W13432  25.212   1.963   1.795
41140W        W13433   3.919   7.889   1.819
41141W        W13434  15.208   1.755   4.221
41142W        W13435  43.399  38.900  11.441
41143W        W13436  25.192  42.463   1.260
41144W        W13437  35.017  36.914  10.430
41145W        W13438  33.562  26.026   4.725
41146W        W13439  27.062  26.014  11.573
41147W        W13440  41.441  17.205  12.554
41148W        W13441  14.642  36.986   2.699
41149W        W13442   5.728  14.190   5.116
41150W        W13443  10.710   4.911  14.504
41151W        W13444  13.278  24.091   1.737
41152W        W13445  23.020  43.800  13.812
41153W        W13446  33.407   0.490   2.419
41154W        W13447   8.847  30.651  14.806
41155W        W13448  27.687  20.060   4.159
41156W        W13449  34.068  16.587   2.355
41157W        W13450  31.134  38.882   0.248
41158W        W13451   9.279  39.447   2.330
41159W        W13452   5.864  36.983   3.678
41160W        W13453   0.943   9.187  14.797
41161W        W13454   4.727  11.192   1.450
41162W        W13455  12.245   7.181   0.273
41163W        W13456   4.727   8.217   2.294
41164W        W13457  19.586   2.340  11.063
41165W        W13458  12.654   5.773   1.826
41166W        W13459  36.980  16.189   4.154
41167W        W13460  10.192  34.104   1.343
41168W        W13461  37.844  26.576   2.861
41169W        W13462  24.141   6.685  10.968
41170W        W13463  44.938  26.596   3.305
41171W        W13464  36.953  38.524  11.512
41172W        W13465  11.326  34.614  14.328
41173W        W13466  14.713   4.244  10.093
41174W        W13467  43.504  23.736  14.417
41175W        W13468  10.310  18.184  11.086
41176W        W13469   9.333  40.910   4.176
41177W        W13470  28.110  39.025   4.237
41178W        W13471  11.714   6.803   1.714
41179W        W13472  12.133  14.638  11.471
41180W        W13473   8.722  10.298  11.523
41181W        W13474  11.671  36.886  14.990
41182W        W13475  31.971  40.967  14.458
41183W        W13476  35.879  26.120   1.702
41184W        W13477   7.749   3.794   3.387
41185W        W13478  24.017   9.846  11.528
41186W        W13479  14.773  43.879  13.462
41187W        W13480  28.030  14.611  10.577
41188W        W13481  41.827  18.702   5.182
41189W        W13482  35.067  43.275   3.795
41190W        W13483  13.811  19.137  10.410
41191W        W13484   8.393  11.215   0.396
41192W        W13485  34.394   2.458   2.686
41193W        W13486  15.275   5.325   1.445
41194W        W13487  35.961  40.452  11.996
41195W        W13488   7.848  39.460  13.490
41196W        W13489  13.137   9.296   4.200
41197W        W13490   8.691  41.791  10.556
41198W        W13491  11.231   6.774   4.792
41199W        W13492  27.037   5.712   1.335
41200W        W13493   6.279  42.917   3.197
41201W        W13494  15.653   7.906  14.966
41202W        W13495  12.318  44.928  11.059
41203W        W13496  25.049  16.098  11.569
41204W        W13497  20.103  19.229   4.728
41205W        W13498   0.253  20.704   2.786
41206W        W13499  34.395  35.872  12.827
41207W        W13500  13.257   6.899  12.941
41208W        W13501   7.192  33.113  12.012
41209W        W13502  16.129  38.448   0.324
41210W        W13503   3.315  32.973  10.997
41211W        W13504  32.392  20.700  11.404
41212W        W13505  42.937  43.876   0.848
41213W        W13506  43.947  39.338   3.784
41214W        W13507  17.277   3.439   5.225
41215W        W13508  28.008  13.772   0.862
41216W        W13509  28.089   8.301  10.637
41217W        W13510  13.772  31.913  12.048
41218W        W13511  12.293  43.301  14.381
41219W        W13512  28.013  32.576   4.310
41220W        W13513  20.724  14.094  12.905
41221W        W13514   4.742  41.026   5.154
41222W        W13515   0.961  38.073  10.971
41223W        W13516   7.673  16.242  12.893
41224W        W13517  42.447  24.114  14.326
41225W        W13518  27.619  24.085   9.611
41226W        W13519  33.385  41.298   2.310
41227W        W13520  33.983  19.632   3.225
41228W        W13521   8.792  35.502   4.196
41229W        W13522   0.460   0.441   3.183
41230W        W13523  35.490  42.857   1.820
41231W        W13524   6.745  32.460  11.940
41232W        W13525  43.270  29.525  14.784
41233W        W13526  28.560  11.724   4.313
41234W        W13527  26.085  20.708  13.379
41235W        W13528  19.184  17.662   0.805
41236W        W13529  13.842  23.583  14.426
41237W        W13530  42.015   7.748   4.313
41238W        W13531  40.466  15.287  12.510
41239W        W13532  33.567  38.058   2.762
41240W        W13533  44.293   8.860   1.930
41241W        W13534  39.038  15.272   4.798
41242W        W13535  34.605  21.131   4.113
41243W        W13536  13.680   7.791   1.216
41244W        W13537  23.531  14.236  14.928
41245W        W13538   8.212   8.275  14.460
41246W        W13539   9.763  21.741   4.146
41247W        W13540  10.268  38.395   4.195
41248W        W13541  37.896   4.944   2.715
41249W        W13542  18.122  25.107   3.702
41250W        W13543  11.855  41.856   2.322
41251W        W13544  43.282  23.647  11.571
41252W        W13545   3.715  13.737  12.511
41253W        W13546  34.423   6.789  11.031
41254W        W13547   4.758  22.087   2.692
41255W        W13548  27.196  25.969   1.334
41256W        W13549   0.401  34.574   1.270
41257W        W13550  14.336  21.083  12.025
41258W        W13551   7.180  36.431   2.737
41259W        W13552   2.791  21.733  13.865
41260W        W13553   8.717   9.296   1.807
41261W        W13554  25.218  12.624   3.732
41262W        W13555   0.336   7.753   0.821
41263W        W13556   0.819  32.459  12.971
41264W        W13557  12.790  24.663  10.495
41265W        W13558  28.992  21.667   5.764
41266W        W13559   8.659  12.158   1.859
41267W        W13560  44.436   7.830  10.509
41268W        W13561  24.984  27.957   0.397
41269W        W13562  14.745  37.019  11.957
41270W        W13563  29.608  41.443  11.063
41271W        W13564  16.262  35.049   4.639
41272W        W13565   2.885  29.033  13.332
41273W        W13566  40.447  14.254   5.155
41274W        W13567  20.195  22.660  13.407
41275W        W13568   2.308  35.034   3.226
41276W        W13569   1.928   3.307   4.173
41277W        W13570   4.857  42.852  10.487
41278W        W13571  13.808   9.776   3.773
41279W        W13572  44.332   0.940   4.732
41280W        W13573   5.231  36.966   1.415
41281W        W13574   4.217  31.562   1.787
41282W        W13575  37.021  29.937   0.480
41283W        W13576  16.573  22.644   2.274
41284W        W13577  41.865   7.898  13.532
41285W        W13578  15.095  30.452  11.094
41286W        W13579  21.665  39.064   4.720
41287W        W13580   8.898  27.561   4.169
41288W        W13581  28.108  37.337   0.436
41289W        W13582  37.864  12.623   1.729
41290W        W13583  42.435  36.051  11.373
41291W        W13584  43.432  20.651   4.792
41292W        W13585  35.578  39.030   2.248
41293W        W13586   1.240  20.689  11.868
41294W        W13587  19.664   0.425  12.850
41295W        W13588  11.340  19.112  10.529
41296W        W13589  15.145  44.834   0.366
41297W        W13590  44.295  37.486   4.618
41298W        W13591  35.995  23.003  11.549
41299W        W13592   6.784   0.798  12.563
41300W        W13593  38.067   6.778   2.277
41301W        W13594  41.812  40.918   0.847
41302W        W13595  21.662  29.000   0.868
41303W        W13596  21.605   6.345  11.479
41304W        W13597  40.344  29.060   3.866
41305W        W13598  10.715  18.700   1.784
41306W        W13599   9.881  39.008  12.893
41307W        W13600  42.515  40.906   2.752
41308W        W13601  16.180  43.465  13.881
41309W        W13602  13.282  11.183  14.319
41310W        W13603  20.184  43.290   3.705
41311W        W13604  16.577  35.541  13.323
41312W        W13605  16.792  14.284   1.780
41313W        W13606  12.685   3.389  10.613
41314W        W13607   0.288  19.261  11.403
41315W        W13608  19.177  24.645  10.526
41316W        W13609  39.028  19.611  10.571
41317W        W13610  42.802  22.519   0.279
41318W        W13611  23.045  11.344  13.518
41319W        W13612  39.833   5.845  14.330
41320W        W13613  31.456  35.940   2.326
41321W        W13614  29.988  12.689   1.834
41322W        W13615   2.733   8.863  14.887
41323W        W13616   4.221  26.632   0.756
41324W        W13617   9.300  33.535   2.401
41325W        W13618  29.029  30.555   2.391
41326W        W13619  41.366  34.924  14.948
41327W        W13620  32.512   2.342   2.830
41328W        W13621  43.898  31.462  13.478
41329W        W13622  19.056  39.354   3.833
41330W        W13623  21.095  20.631  10.951
41331W        W13624  41.324  11.153  14.406
41332W        W13625  44.945   0.289   0.343
41333W        W13626  32.918  21.722  11.497
41334W        W13627  44.947   8.790  12.565
41335W        W13628  42.379  34.609   1.834
41336W        W13629  35.500  27.490  13.993
41337W        W13630  36.359   7.320  13.422
41338W        W13631  39.053  15.182  11.492
41339W        W13632  31.962   9.327  12.438
41340W        W13633  25.978   6.773   2.765
41341W        W13634  24.557  35.400  14.385
41342W        W13635  44.423  35.076   0.387
41343W        W13636   2.404   8.888  11.089
41344W        W13637  25.705   5.919   2.676
41345W        W13638  22.129   2.898  14.396
41346W        W13639  17.703  32.596   0.799
41347W        W13640  33.971  32.468   2.283
41348W        W13641  27.088   1.413   3.643
41349W        W13642  26.043  15.324  14.846
41350W        W13643  30.632  18.645   2.419
41351W        W13644   7.765  10.862   4.271
41352W        W13645   6.320   4.295   2.812
41353W        W13646   0.847  24.515   1.791
41354W        W13647   0.291  39.328   4.189
41355W        W13648   5.725   8.814   3.284
41356W        W13649  10.877  36.084   2.825
41357W        W13650  43.344  44.478  10.092
41358W        W13651   9.889   9.673   2.277
41359W        W13652  21.032   6.819  10.996
41360W        W13653   5.232  11.271   3.669
41361W        W13654  11.778  11.868  13.440
41362W        W13655  39.913  23.671   3.771
41363W        W13656  27.166  40.053   3.681
41364W        W13657  30.564  38.340  11.561
41365W        W13658  16.243  34.042   0.246
41366W        W13659  23.533  42.872   2.825
41367W        W13660   8.694  29.498   0.302
41368W        W13661  34.437  31.531  12.988
41369W        W13662   1.390  11.306  11.406
41370W        W13663  38.509   2.834   3.696
41371W        W13664   0.279  29.976   3.256
41372W        W13665  15.691  34.074  12.962
41373W        W13666  31.128  29.118   3.208
41374W        W13667  18.278  14.184  12.861
41375W        W13668  19.064   8.851   4.798
41376W        W13669  24.175  21.036  12.979
41377W        W13670  16.286  31.503  12.945
41378W        W13671  15.269  23.088  14.447
41379W        W13672  24.023  22.111  13.060
41380W        W13673  20.540  30.475  13.380
41381W        W13674  13.225  42.820  14.802
41382W        W13675   6.286  14.649   3.248
41383W        W13676  37.337  20.156   3.765
41384W        W13677  35.988  36.096  14.912
41385W        W13678  33.954   9.233  11.886
41386W        W13679  39.018  19.735  14.890
41387W        W13680  19.236  27.637   3.690
41388W        W13681  11.664   8.899   0.458
41389W        W13682  36.464   5.338  13.548
41390W        W13683  44.441  36.016   9.930
41391W        W13684   3.267   1.917  11.961
41392W        W13685  34.015  33.060   3.759
41393W        W13686   0.290  12.226  14.292
41394W        W13687  34.368  36.384  14.437
41395W        W13688  33.426  10.315  13.421
41396W        W13689  42.401  19.071  11.477
41397W        W13690  17.251  18.169  11.606
41398W        W13691  26.481  28.506  11.895
41399W        W13692  37.003  29.945  12.398
41400W        W13693  11.624  12.280   4.349
41401W        W13694  31.453  29.424   0.883
41402W        W13695   0.477  16.299  13.308
41403W        W13696  39.047   2.808   3.293
41404W        W13697  26.993  10.869   0.476
41405W        W13698  37.006  34.050  12.558
41406W        W13699  33.412  15.672  11.456
41407W        W13700  28.149   7.364  12.872
41408W        W13701  27.127  42.021   2.760
41409W        W13702  33.912  15.329  14.918
41410W        W13703   9.679   1.446  12.367
41411W        W13704  23.985  20.098  13.324
41412W        W13705  17.178  38.999  11.587
41413W        W13706  29.424  40.891   0.782
41414W        W13707  23.696   2.302  11.011
41415W        W13708  18.252   1.351   2.376
41416W        W13709  38.074  44.823   3.827
41417W        W13710  16.794   7.809   0.379
41418W        W13711   2.273   7.371   0.828
41419W        W13712  14.768  36.503  14.499
41420W        W13713  29.440  26.515  11.511
41421W        W13714  44.386   2.858   0.828
41422W        W13715  41.817  34.376   1.246
41423W        W13716  44.337  15.170  12.417
41424W        W13717   5.315  18.737  13.835
41425W        W13718  22.626   8.173   0.831
41426W        W13719  11.306  31.020   2.708
41427W        W13720  11.763  36.467  14.340
41428W        W13721   5.779  33.029   1.780
41429W        W13722  12.208  33.086  12.016
41430W        W13723  11.725   1.284   0.769
41431W        W13724   1.325   7.823   4.680
41432W        W13725  27.594  11.649  14.843
41433W        W13726   0.830  18.724  12.007
41434W        W13727   3.793  34.032   2.823
41435W        W13728  37.347  37.456   0.776
41436W        W13729   3.829  16.810  13.934
41437W        W13730  27.950  28.978  11.016
41438W        W13731  31.945  17.725   2.185
41439W        W13732   8.299  10.659   0.290
41440W        W13733  15.708  26.168  12.944
41441W        W13734  44.006   6.377  13.360
41442W        W13735  32.093  25.587  14.963
41443W        W13736  31.425  42.888  14.872
41444W        W13737   5.800  15.823  10.531
41445W        W13738   3.298  38.911   2.748
41446W        W13739  19.764  40.478  10.961
41447W        W13740   8.697  25.640   0.966
41448W        W13741  39.320   0.824  13.430
41449W        W13742  27.949  28.438  13.926
41450W        W13743  33.603  20.042  10.609
41451W        W13744  25.579  40.044   0.884
41452W        W13745  26.170   1.478  12.903
41453W        W13746  28.588  41.534   3.671
41454W        W13747  38.868  28.500  13.917
41455W        W13748  15.228  23.199  12.435
41456W        W13749  20.247  15.758   0.436
41457W        W13750   1.450  34.998   0.935
41458W        W13751   8.210  17.615  11.876
41459W        W13752  31.020  12.808  12.852
41460W        W13753  22.632  24.480   4.730
41461W        W13754   2.357  34.454   1.749
41462W        W13755  10.831  19.093  13.542
41463W        W13756  34.026  37.544   0.349
41464W        W13757  12.198  12.691  12.458
41465W        W13758  28.079  11.129  12.530
41466W        W13759  15.252  20.620   4.709
41467W        W13760  36.868  16.765  12.462
41468W        W13761  10.170  24.718  12.897
41469W        W13762  27.567  10.357   4.633
41470W        W13763  40.521  21.688   3.252
41471W        W13764  43.965  18.093   0.368
41472W        W13765  33.109   8.816   4.649
41473W        W13766  24.528  29.014  14.901
41474W        W13767   6.258  13.299   0.361
41475W        W13768  17.104  17.755  13.932
41476W        W13769  10.864  33.515   1.281
41477W        W13770  34.914  29.630  13.792
41478W        W13771   6.687  22.740  14.292
41479W        W13772  28.042  40.834  11.523
41480W        W13773  15.671  18.273   0.385
41481W        W13774   8.753   6.838   3.818
41482W        W13775  28.656  25.514   3.692
41483W        W13776  34.900  33.519   3.692
41484W        W13777  40.010  32.043  14.791
41485W        W13778  39.941  21.161  11.420
41486W        W13779  31.152   9.679   4.333
41487W        W13780  24.565   9.379   2.416
41488W        W13781  33.879  37.030  12.011
41489W        W13782  21.659  16.598  13.011
41490W        W13783  36.036   9.722  10.511
41491W        W13784  12.225  42.322   0.457
41492W        W13785  38.983  24.512   0.368
41493W        W13786   6.866   2.873  13.374
41494W        W13787  28.578  24.170   0.356
41495W        W13788  26.109  35.509   0.379
41496W        W13789  10.738  37.004  14.963
41497W        W13790  11.261  31.992   0.413
41498W        W13791  34.998   7.768  11.377
41499W        W13792   3.716   7.340   2.338
41500W        W13793   9.364  15.164   3.380
41501W        W13794  24.614  32.042   0.269
41502W        W13795  31.415  18.663   4.254
41503W        W13796   1.789   3.856  13.360
41504W        W13797  34.550   3.254   0.317
41505W        W13798  21.114   3.918   2.226
41506W        W13799  29.617   2.370  13.989
41507W        W13800   5.357  23.647  14.854
41508W        W13801   6.400  11.690  11.945
41509W        W13802  36.430  30.608   3.825
41510W        W13803  33.603  34.910  11.442
41511W        W13804  39.047   7.851   0.383
41512W        W13805   5.772  15.182   3.214
41513W        W13806  18.130  42.434  13.924
41514W        W13807  28.667  40.917   4.149
41515W        W13808  12.630  10.692  14.928
41516W        W13809  42.994  44.850  12.969
41517W        W13810  43.981  10.154  10.949
41518W        W13811   7.709   2.870  13.332
41519W        W13812  43.811  43.461  13.889
41520W        W13813  39.846   4.869   1.252
41521W        W13814  17.273  27.045  10.505
41522W        W13815  36.033  20.676   1.319
41523W        W13816   0.924  42.880   4.274
41524W        W13817   8.727  14.163   3.275
41525W        W13818  34.916  26.134   0.287
41526W        W13819  38.569  37.372   1.931
41527W        W13820  25.989   9.350   1.820
41528W        W13821  35.093  40.815   1.273
41529W        W13822  40.339  31.540   2.336
41530W        W13823  26.589  19.594  14.904
41531W        W13824   8.306  32.597   2.756
41532W        W13825   8.836  33.960  12.374
41533W        W13826  25.073  37.968   5.142
41534W        W13827  24.041  28.976   3.835
41535W        W13828  32.579  10.697  13.387
41536W        W13829   3.826  23.522  10.161
41537W        W13830  21.554  42.524  14.873
41538W        W13831   8.204   4.895   1.417
41539W        W13832  33.125  26.125   0.301
41540W        W13833  12.739   2.817   2.815
41541W        W13834  43.912  44.807  13.064
41542W        W13835  33.413  29.450   3.714
41543W        W13836  20.563   3.231  11.908
41544W        W13837  29.998  16.139   4.158
41545W        W13838  10.767  30.592  14.805
41546W        W13839  39.474   6.268   3.348
41547W        W13840  38.420  41.813   4.726
41548W        W13841  22.053  38.550  11.569
41549W        W13842  20.694  11.171  11.881
41550W        W13843  17.251  23.033  11.607
41551W        W13844  10.293  23.127  10.528
41552W        W13845   6.904  33.551   3.313
41553W        W13846  42.296   5.249  13.382
41554W        W13847  38.950   6.344  13.993
41555W        W13848  24.491  24.225   3.798
41556W        W13849   0.767  14.302   2.294
41557W        W13850   8.316  18.739  11.866
41558W        W13851  20.112  42.878   2.742
41559W        W13852  38.419  42.784  10.555
41560W        W13853  44.002  12.733   0.755
41561W        W13854  40.025   4.730   3.286
41562W        W13855  26.029  31.601   2.773
41563W        W13856  38.948  41.007  10.614
41564W        W13857   0.825   6.187   3.173
41565W        W13858  26.657  37.492   2.824
41566W        W13859  30.529  36.512  13.903
41567W        W13860  35.024  15.230   2.843
41568W        W13861   8.859  41.485  12.926
41569W        W13862  23.652  22.574   2.198
41570W        W13863  24.586  41.516   2.827
41571W        W13864  18.158  35.438   1.813
41572W        W13865  30.999  38.481  14.353
41573W        W13866  29.465  29.656   3.739
41574W        W13867  27.993   0.256  14.322
41575W        W13868  24.710  40.922  11.940
41576W        W13869  14.637  35.093   3.704
41577W        W13870  31.124  13.213   1.699
41578W        W13871   8.711  24.028   3.249
41579W        W13872  31.628  34.973  10.412
41580W        W13873  43.933  15.279   2.689
41581W        W13874  29.649  43.494  12.378
41582W        W13875  18.581  13.632   2.872
41583W        W13876  22.167  29.990  11.124
41584W        W13877   4.221   5.437   4.680
41585W        W13878  23.618   4.212  13.842
41586W        W13879  40.482  39.828   2.369
41587W        W13880  26.206  14.269  13.908
41588W        W13881   2.899   0.395   0.442
41589W        W13882  19.080  29.493  11.466
41590W        W13883  39.810  28.531  13.857
41591W        W13884  44.891  36.979   0.728
41592W        W13885  26.174  22.054   3.229
41593W        W13886  23.986  31.537   2.677
41594W        W13887  44.775  24.699  11.966
41595W        W13888   3.950  26.128  13.504
41596W        W13889  17.681  21.073   4.652
41597W        W13890   9.323  11.270  11.398
41598W        W13891  17.630   8.820   9.984
41599W        W13892  22.526   7.266   2.764
41600W        W13893  34.887  22.502   0.269
41601W        W13894  34.599  21.547  11.504
41602W        W13895  16.306  33.978   4.118
41603W        W13896  13.311  36.589  14.017
41604W        W13897  12.341  34.909  11.542
41605W        W13898  19.235  42.786  11.943
41606W        W13899  15.319  34.928  12.409
41607W        W13900  10.355  23.988  10.905
41608W        W13901   1.966   0.795   0.402
41609W        W13902  16.633  25.126  14.864
41610W        W13903  18.674   0.928  10.981
41611W        W13904  24.714  36.355   1.861
41612W        W13905  24.544  24.990  13.958
41613W        W13906  21.063  14.828  14.451
41614W        W13907  37.469  16.601  12.565
41615W        W13908  15.797  11.289   1.220
41616W        W13909  15.262  12.176   2.221
41617W        W13910  15.635  16.080  13.313
41618W        W13911  15.752   8.834  10.429
41619W        W13912  40.888   2.847   4.827
41620W        W13913  24.509   5.388   3.832
41621W        W13914  14.331  12.700   3.252
41622W        W13915  11.787  36.899   2.382
41623W        W13916  41.976   2.910   0.265
41624W        W13917  23.002   3.360   2.364
41625W        W13918  20.700  39.534   1.274
41626W        W13919  40.867  26.953   4.640
41627W        W13920  41.459   9.217   2.209
41628W        W13921  20.740  41.413   2.760
41629W        W13922  10.310  26.970   4.241
41630W        W13923  39.932  23.011   0.331
41631W        W13924  31.137  29.113  11.949
41632W        W13925   9.755  20.663  10.983
41633W        W13926   3.818   8.658  14.426
41634W        W13927   9.730  20.184  10.642
41635W        W13928  26.155  24.675   3.856
41636W        W13929  22.237  22.627  10.985
41637W        W13930  16.596   7.355  10.545
41638W        W13931   6.757  44.828   2.244
41639W        W13932  34.926  11.757   2.325
41640W        W13933  11.653  35.058   3.376
41641W        W13934  15.595  29.940   0.430
41642W        W13935  21.219  34.885  14.463
41643W        W13936  18.275  29.928  14.013
41644W        W13937  21.157  32.417   0.445
41645W        W13938  20.230  24.156  13.965
41646W        W13939  30.450  11.329   1.303
41647W        W13940  33.524   5.777   2.359
41648W        W13941  16.263  32.974   3.157
41649W        W13942  42.362  26.959   3.222
41650W        W13943  44.815  30.479   3.824
41651W        W13944  27.547  15.820   4.614
41652W        W13945  41.309  37.459   1.782
41653W        W13946  30.562   1.260   1.415
41654W        W13947  12.267  13.668   0.807
41655W        W13948  21.654  10.167   4.200
41656W        W13949  34.423  16.165  10.916
41657W        W13950  43.311  11.832  13.423
41658W        W13951  40.427  42.344  12.980
41659W        W13952  41.826  33.571   4.306
41660W        W13953  25.010   4.242  11.450
41661W        W13954   3.949  43.345   1.386
41662W        W13955  34.417  30.124   1.833
41663W        W13956   5.375   6.728  11.560
41664W        W13957  16.571  18.135  11.906
41665W        W13958  11.176   4.771  12.830
41666W        W13959   5.840  43.804   2.267
41667W        W13960  39.881  21.249  13.976
41668W        W13961  32.461   5.811   3.648
41669W        W13962  38.397  15.680  12.049
41670W        W13963  19.224  30.944   0.729
41671W        W13964  11.726  33.406   1.330
41672W        W13965  31.643  41.360  13.916
41673W        W13966  35.447  38.022  13.943
41674W        W13967  10.773  34.549   0.808
41675W        W13968  30.484   6.898   2.221
41676W        W13969   9.287  16.774   0.446
41677W        W13970  24.027  24.101   2.729
41678W        W13971  44.376  17.610  13.846
41679W        W13972  31.636  19.237  12.452
41680W        W13973  34.019   8.718  14.949
41681W        W13974  16.137  44.846  13.961
41682W        W13975  19.592  12.720  13.942
41683W        W13976  43.393   2.387   0.759
41684W        W13977   0.914  14.630  13.452
41685W        W13978  35.939  29.143   4.236
41686W        W13979  15.602  38.440  10.474
41687W        W13980  39.556  37.521  10.553
41688W        W13981  33.082  28.464   3.744
41689W        W13982   1.266  36.485  12.095
41690W        W13983  30.412   1.395  11.601
41691W        W13984  40.827  34.980  13.939
41692W        W13985  39.461  16.750  14.806
41693W        W13986  26.471  27.026   3.760
41694W        W13987  39.418   0.377   4.328
41695W        W13988   6.717  44.317  14.383
41696W        W13989   1.286  39.928   3.664
41697W        W13990  25.029  12.136  10.405
41698W        W13991   0.253  28.516  12.472
41699W        W13992   7.805  18.063  13.937
41700W        W13993  32.051  44.377   1.348
41701W        W13994  20.140   3.910  13.952
41702W        W13995  17.587  41.041  11.017
41703W        W13996  18.785   9.274   3.671
41704W        W13997  21.237  23.609   1.736
41705W        W13998  28.971   2.346  13.454
41706W        W13999  30.568   3.317   0.368
41707W        W14000  40.521  28.184  13.516
41708W        W14001  26.525  15.628  10.625
41709W        W14002  22.584   3.453  14.010
41710W        W14003  44.368  42.789   4.146
41711W        W14004  36.514  20.652   0.868
41712W        W14005  33.480  20.222   0.425
41713W        W14006  36.545  14.238  11.069
41714W        W14007  13.765  20.064   3.848
41715W        W14008  13.686  18.768   1.437
41716W        W14009   6.704  10.315   1.321
41717W        W14010  19.616  39.994  13.047
41718W        W14011  15.804  28.574   1.873
41719W        W14012  42.450  22.038   0.279
41720W        W14013  36.892  31.123   0.415
41721W        W14014  17.105  35.483  13.898
41722W        W14015  40.480  28.665  10.613
41723W        W14016  15.653  41.311   0.886
41724W        W14017  24.690  20.605   3.865
41725W        W14018   5.352   2.867   2.248
41726W        W14019  44.855  39.489  10.959
41727W        W14020  41.535  34.591   0.442
41728W        W14021  17.596  44.291  10.420
41729W        W14022  42.784   8.167  14.343
41730W        W14023   9.230  36.406   1.374
41731W        W14024  17.569  23.621  12.543
41732W        W14025  22.556  11.260   4.267
41733W        W14026  25.659  27.110   3.321
41734W        W14027   6.348   9.330  14.761
41735W        W14028   7.415  13.229   4.138
41736W        W14029  24.079  37.502  13.332
41737W        W14030  28.061  36.487   0.838
41738W        W14031  13.314   6.396   0.483
41739W        W14032   9.842  19.633  10.449
41740W        W14033  11.825  37.887   1.705
41741W        W14034   8.336   5.361   4.601
41742W        W14035   4.724  21.631  12.473
41743W        W14036  28.589  43.477  13.916
41744W        W14037   4.309  10.246  13.356
41745W        W14038  12.128   1.735  11.384
41746W        W14039   5.740  33.440  13.978
41747W        W14040   6.844   9.261  12.088
41748W        W14041   1.339   2.921   0.840
41749W        W14042  35.963  11.636   3.349
41750W        W14043  15.181  33.038   2.415
41751W        W14044  22.593  23.702   9.959
41752W        W14045  17.241  15.192  13.873
41753W        W14046  21.529  16.812   2.272
41754W        W14047   9.311  44.368   3.308
41755W        W14048  33.586  27.529  12.446
41756W        W14049  10.864  41.893  12.014
41757W        W14050   4.904   2.743  14.514
41758W        W14051  10.315  21.698  12.400
41759W        W14052  31.477  37.580  14.428
41760W        W14053   2.348  34.481  13.375
41761W        W14054  35.555  18.762   3.806
41762W        W14055  26.662  12.729  13.007
41763W        W14056  12.132  35.469  14.392
41764W        W14057  18.084   3.956  11.013
41765W        W14058  40.823  14.738   3.283
41766W        W14059  30.458  44.886   1.451
41767W        W14060  22.619  19.630  14.324
41768W        W14061  19.679  34.492  11.421
41769W        W14062   4.322  38.491   2.900
41770W        W14063  28.006  25.210   0.734
41771W        W14064  24.562  39.010   2.797
41772W        W14065  43.825  28.175  12.894
41773W        W14066  13.657  44.469   1.905
41774W        W14067  18.705   8.806  14.017
41775W        W14068   4.929  39.977  11.974
41776W        W14069  43.417  44.964  14.956
41777W        W14070  35.009  15.172  13.378
41778W        W14071  21.704   7.843  10.987
41779W        W14072  15.277  42.922  11.587
41780W        W14073  26.519  32.622  13.801
41781W        W14074  28.090  33.982   2.832
41782W        W14075  13.280  44.363   1.707
41783W        W14076  42.834  44.982   4.142
41784W        W14077  19.090  11.165   3.263
41785W        W14078  41.789  10.801  14.329
41786W        W14079   8.394  36.440   1.306
41787W        W14080  35.934  38.451  11.911
41788W        W14081  11.200   6.399   2.367
41789W        W14082  24.101  26.072  11.577
41790W        W14083  34.985   4.704  13.427
41791W        W14084  28.446  35.042  11.558
41792W        W14085  25.480  35.885  13.909
41793W        W14086  22.043  27.470  14.383
41794W        W14087  38.921  10.244  14.495
41795W        W14088   7.864   2.744   2.888
41796W        W14089   5.817   8.878   4.348
41797W        W14090   3.825  43.489  12.006
41798W        W14091  13.160  40.896   1.706
41799W        W14092   6.252   6.251  14.785
41800W        W14093   7.833  41.888  14.434
41801W        W14094  39.958  32.058  11.048
41802W        W14095  41.334  24.976   1.450
41803W        W14096  32.898   9.731  11.558
41804W        W14097  28.045  25.064   5.150
41805W        W14098  30.961  36.490  14.014
41806W        W14099  44.982   4.904  14.335
41807W        W14100   6.922  34.395   1.708
41808W        W14101   1.885  23.064   4.244
41809W        W14102  30.603  41.948  10.604
41810W        W14103  16.624  18.683   4.149
41811W        W14104  11.339   4.331   1.785
41812W        W14105  12.722  23.629   0.747
41813W        W14106   9.659  42.487   2.756
41814W        W14107  33.408  10.146   5.129
41815W        W14108  30.607  33.618  14.826
41816W        W14109  32.508  38.507  10.416
41817W        W14110  16.288  19.621   4.744
41818W        W14111   7.401  18.190  11.940
41819W        W14112  33.412   1.800   1.344
41820W        W14113  35.093  27.614   1.412
41821W        W14114   2.837  43.516  12.384
41822W        W14115  42.923  21.070  12.952
41823W        W14116  42.373   2.908   2.203
41824W        W14117  18.155   3.835  10.537
41825W        W14118  33.880  44.378  14.447
41826W        W14119  12.181  25.046   0.954
41827W        W14120  18.237   5.291   0.888
41828W        W14121  24.210   5.782   2.741
41829W        W14122  16.697  38.864  14.957
41830W        W14123  27.121  26.051   4.160
41831W        W14124   7.242  30.513  13.446
41832W        W14125  35.526   7.820   3.331
41833W        W14126  33.016  26.581   0.791
41834W        W14127  21.634  27.954   2.240
41835W        W14128  19.196   8.208   1.724
41836W        W14129  24.582  35.364  12.915
41837W        W14130  12.224  41.443  14.410
41838W        W14131  12.349  38.527   0.482
41839W        W14132  37.988  32.945   0.475
41840W        W14133  23.234  10.856   2.289
41841W        W14134   6.295   2.932   4.610
41842W        W14135   7.346  41.937   2.694
41843W        W14136  39.535  29.539   3.854
41844W        W14137   6.732   3.776   0.323
41845W        W14138  13.683  21.627  11.966
41846W        W14139   7.799   6.704  14.353
41847W        W14140  31.571  12.771  11.522
41848W        W14141  43.452  10.331  13.362
41849W        W14142  13.116  38.858  10.917
41850W        W14143  27.086  42.847   3.645
41851W        W14144  15.617  18.160   0.899
41852W        W14145  34.407  16.103   4.114
41853W        W14146  30.423  33.383   4.138
41854W        W14147  20.628  16.750  14.415
41855W        W14148  31.091   0.888  14.847
41856W        W14149  40.008   6.413  10.494
41857W        W14150  40.321  28.063   4.300
41858W        W14151  20.609  33.483  14.760
41859W        W14152   8.841  26.646   4.256
41860W        W14153  32.451  18.688  10.502
41861W        W14154   3.720  11.350  10.077
41862W        W14155  11.788   7.666  13.350
41863W        W14156   2.440  16.267  13.342
41864W        W14157   9.735  40.863   3.301
41865W        W14158  43.345  24.047   3.799
41866W        W14159  15.670  21.610  12.077
41867W        W14160  41.383  25.203   4.341
41868W        W14161  44.893  20.547   0.275
41869W        W14162  13.655  22.600   1.845
41870W        W14163  24.672  36.565  11.953
41871W        W14164  32.426   6.753   2.786
41872W        W14165   5.799  37.877   1.232
41873W        W14166  26.957   5.229  11.605
41874W        W14167  43.923  13.271  10.965
41875W        W14168  29.583  14.626  11.944
41876W        W14169  27.458  18.246  13.956
41877W        W14170   6.404  25.107   0.885
41878W        W14171  15.205  17.104  11.960
41879W        W14172  10.355  29.644  10.898
41880W        W14173  32.982  13.648  11.429
41881W        W14174  40.841  15.605   1.765
41882W        W14175  38.506  22.681   3.252
41883W        W14176  30.568  36.503  12.404
41884W        W14177  42.471  38.955  13.045
41885W        W14178  43.932   2.466   3.634
41886W        W14179  27.955  15.159   4.202
41887W        W14180   3.843  19.655   3.196
41888W        W14181  18.627  40.385  10.958
41889W        W14182   5.413  34.940   2.299
41890W        W14183  34.450  16.079   1.250
41891W        W14184  18.077   7.888   4.813
41892W        W14185   2.777  29.125  11.014
41893W        W14186  32.591  39.459   0.750
41894W        W14187  28.009  20.123   3.744
41895W        W14188  23.042  32.486   4.806
41896W        W14189  26.637   0.318  10.484
41897W        W14190  22.610  22.210   0.741
41898W        W14191  34.374  20.155  14.948
41899W        W14192  43.909  24.139   0.299
41900W        W14193  33.007  35.577   3.709
41901W        W14194  15.319  40.815   0.468
41902W        W14195  41.333  26.951   1.297
41903W        W14196  18.235   6.323  12.348
41904W        W14197  22.141   0.356   0.352
41905W        W14198  25.542  42.302   1.427
41906W        W14199  34.929  21.137   1.343
41907W        W14200  12.293  40.436  11.897
41908W        W14201  28.064  11.756   2.194
41909W        W14202   1.867  28.650  10.475
41910W        W14203  14.292  29.610   0.245
41911W        W14204  41.422  37.902   1.777
41912W        W14205  13.147  14.639  11.028
41913W        W14206  39.346  36.497   2.365
41914W        W14207   3.798  21.624  14.008
41915W        W14208  43.003  43.422   4.601
41916W        W14209  24.103  13.805  12.357
41917W        W14210   2.261  10.195  12.969
41918W        W14211  38.033  28.130   4.279
41919W        W14212   1.272  44.343  14.805
41920W        W14213  13.137  44.402  12.469
41921W        W14214  24.076  21.257   3.367
41922W        W14215  24.495  22.715  11.546
41923W        W14216  21.206   7.264  10.410
41924W        W14217  23.095  39.552  14.356
41925W        W14218  13.126  20.652   1.220
41926W        W14219  26.177  14.781   2.844
41927W        W14220  26.554  43.428  11.505
41928W        W14221  32.562  20.112   4.767
41929W        W14222  30.602  43.797  13.495
41930W        W14223  19.235  10.178   1.371
41931W        W14224  42.446  35.857  14.454
41932W        W14225  28.979  35.530  14.295
41933W        W14226  31.916  10.203  14.313
41934W        W14227  10.277  15.193   1.742
41935W        W14228   4.248  21.143   2.777
41936W        W14229  16.157   5.796  10.970
41937W        W14230  11.371  33.121  14.323
41938W        W14231  35.514  11.256  14.989
41939W        W14232  19.551   4.272  10.530
41940W        W14233   8.249  20.214  11.002
41941W        W14234  23.540  28.607  12.457
41942W        W14235   9.876  11.690   0.882
41943W        W14236  23.627  28.179   2.816
41944W        W14237  31.463  36.996   2.270
41945W        W14238   6.843  39.985  13.335
41946W        W14239  34.065  42.462   1.348
41947W        W14240  32.407  29.040   1.813
41948W        W14241   8.382  39.531  12.553
41949W        W14242  30.621  16.159   3.710
41950W        W14243  11.286  17.730  13.836
41951W        W14244  16.281  29.978   3.336
41952W        W14245   4.866  33.421   3.224
41953W        W14246  18.088  26.126  12.881
41954W        W14247  40.326  40.047   1.307
41955W        W14248   6.416   1.268   1.781
41956W        W14249  19.259  35.004   2.363
41957W        W14250   1.834  19.583  12.931
41958W        W14251   0.368  43.422   2.264
41959W        W14252   3.336  40.344   3.782
41960W        W14253  42.971  34.565   0.842
41961W        W14254  43.336   3.411   0.816
41962W        W14255  40.953  38.483   1.357
41963W        W14256  16.275  10.853   3.324
41964W        W14257  30.907  11.735   0.744
41965W        W14258  10.153  43.963  10.595
41966W        W14259  18.545  16.750  12.909
41967W        W14260  32.079   8.784  10.475
41968W        W14261   2.367  19.533   1.320
41969W        W14262  41.300   7.822  13.401
41970W        W14263  14.616   3.391   2.821
41971W        W14264  25.022  20.523   2.220
41972W        W14265  35.002  35.398   0.886
41973W        W14266  19.594  13.186  12.044
41974W        W14267  10.298  41.832  13.350
41975W        W14268  11.266  37.575  11.908
41976W        W14269  11.712   6.723   1.406
41977W        W14270  25.073   6.739   0.868
41978W        W14271  41.837  31.070  12.914
41979W        W14272  27.050   8.214  14.793
41980W        W14273  22.656   5.215   4.167
41981W        W14274  28.956   2.379   1.285
41982W        W14275  42.292   5.849   1.896
41983W        W14276  29.546  12.782  11.052
41984W        W14277  19.582  42.990  11.047
41985W        W14278  31.932  32.965  13.811
41986W        W14279  27.622  34.536  12.837
41987W        W14280  18.290  36.506   4.819
41988W        W14281  14.697  35.554   0.466
41989W        W14282   8.217   5.789  10.567
41990W        W14283  29.945  15.590   0.898
41991W        W14284  13.788  18.141   0.782
41992W        W14285  42.964  16.681  11.091
41993W        W14286  42.786  29.566   4.189
41994W        W14287  19.592   9.730  14.029
41995W        W14288  13.669   1.242   4.354
41996W        W14289  25.053   9.883   1.246
41997W        W14290  32.086   4.339   1.738
41998W        W14291   4.757  35.960  14.995
41999W        W14292  29.650  20.618  10.574
42000W        W14293   1.887  23.574  10.525
42001W        W14294  16.594  17.786   4.696
42002W        W14295  37.499  31.125   2.371
42003W        W14296  25.159   3.807  11.435
42004W        W14297  26.963  19.560   5.160
42005W        W14298  40.908  25.183  11.606
42006W        W14299  24.612  15.817  14.456
42007W        W14300  38.446   8.852  12.846
42008W        W14301  44.423  40.365   2.749
42009W        W14302  19.194  36.388   3.751
42010W        W14303  18.154  34.092   0.965
42011W        W14304  15.663  44.378   4.134
42012W        W14305   6.214   8.215   0.468
42013W        W14306   7.179  22.014   1.377
42014W        W14307   9.226  44.438   1.395
42015W        W14308  25.012  15.607  12.390
42016W        W14309  32.432  30.006   3.293
42017W        W14310  23.685   6.849  10.926
42018W        W14311   0.343  13.766   1.761
42019W        W14312  40.462   3.344  12.954
42020W        W14313  37.873  44.758   3.290
42021W        W14314  16.188  34.999   2.307
42022W        W14315  43.918  40.973  11.377
42023W        W14316   6.422  22.733  14.429
42024W        W14317   4.330  15.579  13.804
42025W        W14318   7.394  12.638   4.696
42026W        W14319  17.733  30.569  12.549
42027W        W14320  22.629   8.262  14.279
42028W        W14321   5.308  38.007   2.749
42029W        W14322   5.799  31.517  14.357
42030W        W14323  44.984  10.817   2.687
42031W        W14324  42.885  34.444  11.014
42032W        W14325   5.208  30.005  14.507
42033W        W14326  43.824  29.062  12.416
42034W        W14327  12.150  19.699   3.345
42035W        W14328  15.740   4.204   3.802
42036W        W14329   4.281   9.223  14.939
42037W        W14330  20.612  37.482  14.278
42038W        W14331  40.999  14.329   4.747
42039W        W14332  23.605  35.366  14.776
42040W        W14333   7.897  10.639   0.302
42041W        W14334  15.747  14.323  10.147
42042W        W14335   4.798  27.665   1.288
42043W        W14336  41.807  42.934   5.140
42044W        W14337  33.483  33.440   3.199
42045W        W14338   8.718  39.989  12.974
42046W        W14339  25.192  17.279  14.509
42047W        W14340   0.283  10.846   2.833
42048W        W14341  28.113  21.690   4.692
42049W        W14342  31.951  18.737   0.839
42050W        W14343  26.527  30.939   2.399
42051W        W14344  29.017  42.405  11.925
42052W        W14345  16.195  42.349   0.746
42053W        W14346  24.042  29.081  14.923
42054W        W14347  22.085  38.360   1.385
42055W        W14348   5.196  12.151  12.502
42056W        W14349  25.155  17.714  12.851
42057W        W14350   6.685  10.248  12.472
42058W        W14351  43.293   4.208  13.824
42059W        W14352  18.561  29.063  11.014
42060W        W14353  43.816  15.579  12.353
42061W        W14354  40.979  38.007  14.513
42062W        W14355  29.468  34.425   1.407
42063W        W14356  12.191   2.465   1.865
42064W        W14357  13.789   2.888  12.574
42065W        W14358  28.489  24.502   0.815
42066W        W14359  34.607   2.296  14.792
42067W        W14360  20.638  22.671   0.378
42068W        W14361  44.828   1.276   0.949
42069W        W14362  31.542   3.308  11.899
42070W        W14363  37.558  25.541   5.133
42071W        W14364  22.600  25.672   3.818
42072W        W14365   4.298  26.161  14.822
42073W        W14366  10.711  39.851   2.394
42074W        W14367   8.729  13.641   4.282
42075W        W14368   3.731  41.813   1.319
42076W        W14369  43.889   9.226  12.826
42077W        W14370  13.783  42.839  14.013
42078W        W14371  38.979   8.259  14.032
42079W        W14372  32.125  41.294   4.133
42080W        W14373  33.563  23.729   2.289
42081W        W14374  16.232   2.792   0.746
42082W        W14375  24.200  32.592   1.299
42083W        W14376  17.603   8.742  10.472
42084W        W14377  20.094   3.425   4.719
42085W        W14378  33.971  35.854   0.269
42086W        W14379  36.469  16.607  13.498
42087W        W14380  35.058  28.079   0.463
42088W        W14381   7.822  44.932   3.214
42089W        W14382  40.931  10.236   4.350
42090W        W14383  29.631  41.513  14.437
42091W        W14384  15.629  38.820   3.207
42092W        W14385  36.511  35.404  12.947
42093W        W14386   4.379  28.937  11.937
42094W        W14387  19.683  16.239  12.016
42095W        W14388  18.607  30.477  13.921
42096W        W14389  19.567  32.133   4.738
42097W        W14390  26.095  38.898   0.923
42098W        W14391  36.355   1.836   0.908
42099W        W14392  32.032  27.148   0.884
42100W        W14393   5.262  38.915  10.161
42101W        W14394   3.736   3.343   1.851
42102W        W14395  19.575  19.064   3.183
42103W        W14396  10.298  24.628  12.403
42104W        W14397   3.375  17.254   1.725
42105W        W14398  41.946   1.444   1.358
42106W        W14399  35.434  13.685  14.774
42107W        W14400  30.588  41.307  14.826
42108W        W14401  34.580  30.485   0.726
42109W        W14402   2.349  30.659  10.637
42110W        W14403  33.007   7.390   4.620
42111W        W14404  19.258  38.965   4.117
42112W        W14405  41.520  31.999  12.401
42113W        W14406  13.198   8.310  10.971
42114W        W14407   3.759  23.008  14.825
42115W        W14408  44.948   7.403  13.017
42116W        W14409  28.083  38.073  11.999
42117W        W14410   8.296  24.643   3.728
42118W        W14411  40.347  29.127   3.361
42119W        W14412  20.560  23.218  10.053
42120W        W14413   5.704  24.046   4.727
42121W        W14414   9.851  18.739  14.871
42122W        W14415  32.930  41.361   2.740
42123W        W14416  40.497  32.452   4.718
42124W        W14417  42.302  42.500  12.504
42125W        W14418  23.580  38.011  11.047
42126W        W14419  25.650  35.999   4.324
42127W        W14420  44.971  13.816  13.922
42128W        W14421  38.447  27.594  14.415
42129W        W14422  20.205   5.335   4.692
42130W        W14423  16.164  18.096   3.173
42131W        W14424  14.099  25.020   1.736
42132W        W14425   6.374  44.370  13.313
42133W        W14426  40.308  27.611  12.530
42134W        W14427  28.934  39.054   3.249
42135W        W14428  42.964  27.029  10.932
42136W        W14429  36.479  13.635  11.129
42137W        W14430  33.514  41.032  14.792
42138W        W14431  11.830  38.447  10.065
42139W        W14432  11.831  11.645  10.630
42140W        W14433  35.412  34.058  12.497
42141W        W14434   6.677  13.615   0.469
42142W        W14435  29.943  11.333  14.480
42143W        W14436   5.219  29.170  14.817
42144W        W14437  11.190  10.854  14.275
42145W        W14438  34.598   1.251  12.989
42146W        W14439   4.264   5.770   4.617
42147W        W14440  11.310  18.688   3.330
42148W        W14441   6.905  43.934   4.828
42149W        W14442  17.621  42.331  12.531
42150W        W14443  38.833   2.229   2.753
42151W        W14444  22.546   4.837   0.268
42152W        W14445  12.809  18.296   4.719
42153W        W14446   5.755  38.887  12.886
42154W        W14447  41.325  11.701   0.438
42155W        W14448   2.462  21.059   0.964
42156W        W14449  16.651  33.529   2.285
42157W        W14450  20.692  37.472   4.298
42158W        W14451  15.194   8.214   3.257
42159W        W14452  44.807   7.823  10.618
42160W        W14453  31.512  30.969  13.448
42161W        W14454  33.009  23.654   4.260
42162W        W14455   4.802  31.621   2.237
42163W        W14456   3.319   8.218  11.544
42164W        W14457  17.164  25.964   2.745
42165W        W14458  29.158  38.011   1.918
42166W        W14459  22.232  32.594   2.736
42167W        W14460  14.329   2.849   2.891
42168W        W14461  28.115  25.139  13.003
42169W        W14462  37.986  37.007   2.691
42170W        W14463  37.964  24.103  11.502
42171W        W14464  31.081  39.057   1.262
42172W        W14465  43.771  16.661  10.931
42173W        W14466  40.535  11.809  12.437
42174W        W14467  26.512  15.210   2.702
42175W        W14468   8.774  25.508   4.223
42176W        W14469  36.853   2.404   4.274
42177W        W14470  44.398  18.677   1.292
42178W        W14471  39.412   5.296  12.925
42179W        W14472  33.007  34.885   0.354
42180W        W14473  29.597  37.054  11.607
42181W        W14474  12.666  13.226  13.481
42182W        W14475  29.669  25.195   1.786
42183W        W14476  31.918  38.561  10.027
42184W        W14477  24.555  37.987   4.754
42185W        W14478  43.894  44.870  14.954
42186W        W14479   5.205  13.756  11.865
42187W        W14480  10.794   6.420   1.349
42188W        W14481   5.767   8.356   1.220
42189W        W14482  13.729  21.601   1.742
42190W        W14483  32.914  16.135   4.184
42191W        W14484   0.250   9.668  14.887
42192W        W14485  27.972  23.557   4.260
42193W        W14486  34.931  16.133  14.983
42194W        W14487  44.362  16.685  10.086
42195W        W14488  22.065  12.755   2.720
42196W        W14489  17.643   2.920  12.827
42197W        W14490  43.880  31.982   1.741
42198W        W14491  21.149  15.116   3.774
42199W        W14492  28.042   5.901   9.983
42200W        W14493  36.029  22.727   1.709
42201W        W14494  17.559   2.947   1.714
42202W        W14495  44.498  11.809  12.927
42203W        W14496   8.847  36.882   0.350
42204W        W14497  20.078  35.110  11.512
42205W        W14498  28.043   9.838  14.325
42206W        W14499   3.890  22.023   2.258
42207W        W14500   6.812  11.692  12.542
42208W        W14501   3.930  15.153   1.396
42209W        W14502  20.551  36.576   3.307
42210W        W14503  31.503  16.231   0.809
42211W        W14504  32.955  15.726  14.856
42212W        W14505  21.049  16.638   1.897
42213W        W14506  28.024  23.027   0.739
42214W        W14507  16.312  12.197   0.821
42215W        W14508  21.695  36.369  11.951
42216W        W14509  40.360  13.812   2.182
42217W        W14510   7.763  19.708  13.010
42218W        W14511  22.551  37.364   4.142
42219W        W14512  30.115  10.713  14.888
42220W        W14513  14.329  23.221  11.021
42221W        W14514  10.252  22.110   4.266
42222W        W14515  25.644  30.978  13.485
42223W        W14516  12.178   9.380   3.356
42224W        W14517  24.222   3.345  14.904
42225W        W14518  37.945  37.977   4.302
42226W        W14519  10.739  17.753  14.778
42227W        W14520  39.392  38.551  14.920
42228W        W14521  25.097   8.203  14.005
42229W        W14522  40.044  11.293  14.411
42230W        W14523  27.126  10.378  13.442
42231W        W14524   6.250  31.906  14.918
42232W        W14525  14.097   3.713   4.210
42233W        W14526   0.312  16.735  13.843
42234W        W14527  12.708  44.399   4.339
42235W        W14528  31.007  39.428  12.544
42236W        W14529  31.471   5.317  11.457
42237W        W14530   3.273  27.532   1.885
42238W        W14531  16.100  18.683   2.729
42239W        W14532  44.801  25.146  11.016
42240W        W14533  16.214   5.415   2.300
42241W        W14534   2.761  35.423  13.852
42242W        W14535   2.816  13.720  13.001
42243W        W14536  26.151  21.682  11.969
42244W        W14537  40.035  20.680  10.482
42245W        W14538  31.094   1.403   1.232
42246W        W14539  16.587  17.558  13.399
42247W        W14540  41.370  34.528  14.762
42248W        W14541  10.327  20.575   1.302
42249W        W14542  40.940   1.413   2.706
42250W        W14543  38.566   5.739  13.471
42251W        W14544   8.853  22.747   1.786
42252W        W14545  11.350  31.044   1.911
42253W        W14546  38.873  37.083  13.885
42254W        W14547   1.836  36.398   2.876
42255W        W14548  21.535   0.364   2.665
42256W        W14549  27.525   3.767   4.612
42257W        W14550   2.301   2.245   3.267
42258W        W14551  37.578  30.032  14.941
42259W        W14552  30.587  29.625   2.205
42260W        W14553  43.924  28.010  11.430
42261W        W14554  19.723   4.703   1.749
42262W        W14555   7.189   1.858   2.876
42263W        W14556  15.662  16.649   3.259
42264W        W14557  21.152  35.929  10.523
42265W        W14558  12.663  10.333  10.019
42266W        W14559  33.518  22.228  14.390
42267W        W14560  36.361   6.746   1.334
42268W        W14561  10.866  19.231   1.770
42269W        W14562  41.354  12.616   0.734
42270W        W14563  25.521  26.162   3.366
42271W        W14564  28.525  23.489   0.421
42272W        W14565  44.316   2.855   4.297
42273W        W14566  23.684  32.015   0.963
42274W        W14567  27.142  10.716  12.833
42275W        W14568  35.510   8.250  14.762
42276W        W14569  24.645   9.653  14.772
42277W        W14570  17.615  40.872   4.329
42278W        W14571  43.430   9.244  12.402
42279W        W14572  11.190   2.442  12.468
42280W        W14573  11.175  15.127  14.922
42281W        W14574  40.005  18.669  11.903
42282W        W14575  25.690  31.981   4.252
42283W        W14576   3.313   6.349  11.125
42284W        W14577  18.788  42.312  12.352
42285W        W14578   7.725  21.727   4.725
42286W        W14579  11.233  37.477  11.435
42287W        W14580  33.490  28.660   3.378
42288W        W14581   0.831  11.158  14.281
42289W        W14582  17.288  14.100  14.867
42290W        W14583   7.325  15.673   0.728
42291W        W14584  12.702   0.473  12.365
42292W        W14585   7.844  26.025   2.187
42293W        W14586   2.366  25.054   2.749
42294W        W14587  35.444  38.343   2.808
42295W        W14588  36.375  26.961   4.744
42296W        W14589  42.900  27.643  11.084
42297W        W14590  11.709  26.625   0.432
42298W        W14591  33.953   4.811  14.817
42299W        W14592   9.714  17.673   0.943
42300W        W14593  25.591  10.679   4.620
42301W        W14594  44.489  20.696  12.431
42302W        W14595  42.284  23.700  13.871
42303W        W14596  24.714  10.302   4.801
42304W        W14597  39.058  36.853  11.906
42305W        W14598  11.700  29.123  10.437
42306W        W14599   9.282   6.825  12.523
42307W        W14600  26.693  22.157   0.474
42308W        W14601  18.655  13.127  14.278
42309W        W14602  40.044  25.122  11.524
42310W        W14603   0.872   0.786  10.552
42311W        W14604  17.073   7.340  10.140
42312W        W14605  38.557  27.195   0.853
42313W        W14606  20.763   6.341   2.862
42314W        W14607   7.863  37.550   5.165
42315W        W14608  26.151  34.410  10.492
42316W        W14609  41.494  42.942   1.734
42317W        W14610  38.074  26.108   1.211
42318W        W14611  29.632  28.172   2.298
42319W        W14612  12.293  35.389  13.842
42320W        W14613   3.724  27.129   1.884
42321W        W14614  18.742  41.801  13.542
42322W        W14615   0.441  23.685  10.413
42323W        W14616  13.756  31.530  14.420
42324W        W14617  38.007   6.236   4.115
42325W        W14618  29.649   0.341   3.282
42326W        W14619  18.116  11.755   4.269
42327W        W14620  28.946  36.879   2.696
42328W        W14621   5.316  26.188   3.303
42329W        W14622  28.670  25.029  10.570
42330W        W14623   1.887  24.151  14.773
42331W        W14624  23.665  10.252   3.727
42332W        W14625  23.005  33.410  10.513
42333W        W14626  21.576  30.089   1.342
42334W        W14627   2.236  12.262  13.845
42335W        W14628  38.903   9.805   2.232
42336W        W14629  42.803  41.494  11.986
42337W        W14630   4.821  24.596  13.513
42338W        W14631   0.397  42.892  11.052
42339W        W14632  40.527  10.648  12.376
42340W        W14633  23.027  27.630   3.291
42341W        W14634  21.542  24.138  13.923
42342W        W14635   7.315  37.914   1.265
42343W        W14636   9.277  23.023  11.069
42344W        W14637  25.029   8.901   5.270
42345W        W14638  43.425  16.649   2.366
42346W        W14639   2.805   7.729  14.297
42347W        W14640   2.336   6.399   0.922
42348W        W14641  30.919  12.194   4.797
42349W        W14642  24.560  43.813   0.306
42350W        W14643  11.281  22.214  13.971
42351W        W14644  37.341  29.494   2.212
42352W        W14645   4.872  24.080  14.806
42353W        W14646  18.688   5.364  13.502
42354W        W14647   2.446  23.195   3.761
42355W        W14648  43.449  29.644  12.563
42356W        W14649  34.089  44.312  12.368
42357W        W14650  22.202  10.690   4.813
42358W        W14651  10.263  33.532  13.848
42359W        W14652  32.116  41.345  14.965
42360W        W14653  28.036  44.007   3.223
42361W        W14654   6.270  10.703  10.934
42362W        W14655  43.864  35.490   2.890
42363W        W14656  39.554  34.956   9.984
42364W        W14657  11.754   5.236   1.816
42365W        W14658  14.753  33.568   2.774
42366W        W14659  35.932   3.394  11.417
42367W        W14660  40.541  10.322   2.258
42368W        W14661   7.403  40.384  12.903
42369W        W14662   0.426  29.974   0.243
42370W        W14663  29.637  44.787  11.534
42371W        W14664  28.011  42.418  12.492
42372W        W14665   7.314  22.619  11.444
42373W        W14666  24.548  14.174  14.810
42374W        W14667  33.471  40.972   2.298
42375W        W14668  36.845  44.997  11.010
42376W        W14669  28.588  28.593   0.340
42377W        W14670  40.856  35.526  11.050
42378W        W14671  43.897  44.468  12.500
42379W        W14672   6.236   7.195  14.331
42380W        W14673  17.183  30.575   4.700
42381W        W14674  14.608  40.825  13.920
42382W        W14675  40.486  43.880  11.043
42383W        W14676  30.964  17.751  10.627
42384W        W14677  29.086   3.913   1.879
42385W        W14678   7.189   0.435  13.385
42386W        W14679  44.416  36.061   0.343
42387W        W14680  25.018  14.701   2.196
42388W        W14681  24.134  27.527  14.514
42389W        W14682  25.093  40.536   2.280
42390W        W14683  38.037  11.795  13.997
42391W        W14684  22.177  16.212   4.696
42392W        W14685  16.792  35.541   3.818
42393W        W14686  37.569  43.768  11.123
42394W        W14687  21.544   8.831  12.829
42395W        W14688  13.263   7.878   3.165
42396W        W14689  40.327   2.775   1.340
42397W        W14690   3.255  13.247  10.417
42398W        W14691  21.518  22.229   0.770
42399W        W14692  36.367  37.360  11.988
42400W        W14693  33.088  35.515  13.344
42401W        W14694  20.041  11.709  10.443
42402W        W14695  14.698  32.948   4.756
42403W        W14696  13.109  15.303  11.929
42404W        W14697  35.552  25.684  14.780
42405W        W14698   8.384  11.226  13.529
42406W        W14699  12.659  20.696   2.320
42407W        W14700   6.379  34.396   5.237
42408W        W14701  43.505  29.539   4.208
42409W        W14702  36.461  22.095  13.495
42410W        W14703  40.352  39.891   1.843
42411W        W14704  12.219   9.208   0.440
42412W        W14705   6.236  42.815  14.430
42413W        W14706  38.329   3.712  10.559
42414W        W14707  20.754   7.760  14.452
42415W        W14708  37.867   3.308   2.832
42416W        W14709  44.273  44.808  14.998
42417W        W14710  40.018   9.763  11.966
42418W        W14711  13.623  23.096   0.834
42419W        W14712  15.646  33.104  12.899
42420W        W14713  43.342   2.911  10.920
42421W        W14714  14.117   3.450  12.360
42422W        W14715  39.060  43.013  11.083
42423W        W14716  41.028  27.685  13.006
42424W        W14717   0.926  16.111  10.077
42425W        W14718  25.111   1.286  14.363
42426W        W14719  40.847   7.330  12.952
42427W        W14720   0.797  27.647   2.902
42428W        W14721   7.671  23.238   0.399
42429W        W14722   2.338  39.387  13.532
42430W        W14723  20.091  20.144   4.226
42431W        W14724   7.227  13.262   0.769
42432W        W14725  11.780  28.639   3.848
42433W        W14726  42.029  43.513   0.442
42434W        W14727  35.957   2.288   5.155
42435W        W14728  35.574  30.135  12.514
42436W        W14729  17.641  44.980  14.310
42437W        W14730  14.704   2.892  10.909
42438W        W14731  10.253  25.631  11.103
42439W        W14732  44.962   6.698   4.729
42440W        W14733  10.333  32.967  11.512
42441W        W14734  16.660  39.867   1.349
42442W        W14735   3.272  35.544   2.698
42443W        W14736  37.464   0.770   3.223
42444W        W14737  25.086   4.373  11.901
42445W        W14738  36.036  42.778  11.965
42446W        W14739   6.915  29.980   4.779
42447W        W14740  12.322  37.493   4.700
42448W        W14741  29.432   2.864   2.757
42449W        W14742  16.141  32.478   4.336
42450W        W14743   3.742  26.599   3.707
42451W        W14744   9.362  41.006   0.417
42452W        W14745  21.064   3.439  13.360
42453W        W14746  37.880  28.999  13.494
42454W        W14747   2.448  43.842  10.450
42455W        W14748   3.413   9.811  13.463
42456W        W14749  25.144  14.332   2.706
42457W        W14750   3.823   1.905  11.603
42458W        W14751   5.919  16.794   1.441
42459W        W14752  39.454  38.065   1.297
42460W        W14753   2.352  39.380   4.276
42461W        W14754  38.459  19.661  13.516
42462W        W14755  15.328  10.655   1.840
42463W        W14756  36.498  27.578   2.384
42464W        W14757  11.264  21.085  10.619
42465W        W14758  21.552  29.156   3.729
42466W        W14759  10.782   6.868   3.269
42467W        W14760  35.453  23.182  12.502
42468W        W14761  30.937  27.052  11.475
42469W        W14762  33.998  24.602  11.444
42470W        W14763  20.103  15.811   0.961
42471W        W14764  42.282  21.709   2.842
42472W        W14765  33.118  16.266  12.428
42473W        W14766  18.558   3.841   0.880
42474W        W14767  38.852  14.121  12.531
42475W        W14768  44.375  20.531  11.378
42476W        W14769  39.404  10.176  11.874
42477W        W14770  34.442  34.949   1.909
42478W        W14771  30.499  34.990   2.189
42479W        W14772  43.971  31.613   0.815
42480W        W14773  28.039   6.888  11.892
42481W        W14774  28.645  14.615   1.709
42482W        W14775  41.835  24.644  12.372
42483W        W14776  43.887  35.864  12.359
42484W        W14777  13.842  17.140  14.364
42485W        W14778  31.538   8.223   4.727
42486W        W14779  43.364  35.429   1.730
42487W        W14780  16.746  22.109  13.392
42488W        W14781  30.106  22.131  11.119
42489W        W14782  22.587   0.447  11.418
42490W        W14783  37.905  27.189   4.808
42491W        W14784  28.024  29.657   2.724
42492W        W14785  20.255  12.167  14.302
42493W        W14786  31.143  36.010   4.671
42494W        W14787  23.134  40.500   1.217
42495W        W14788  23.037  24.213  11.905
42496W        W14789  23.178  23.209  11.004
42497W        W14790  20.116  27.507  14.833
42498W        W14791  36.353  29.930  14.888
42499W        W14792   9.285   1.910   3.344
42500W        W14793  25.964  44.801  14.289
42501W        W14794  37.371  24.701   3.791
42502W        W14795  19.560  16.151  12.913
42503W        W14796   2.311  37.573   1.921
42504W        W14797  19.534   9.252  14.795
42505W        W14798  34.569  40.823  12.377
42506W        W14799  22.535  18.558   4.778
42507W        W14800   8.279  13.823  11.902
42508W        W14801  28.937  29.040   2.222
42509W        W14802  41.903  16.801  10.480
42510W        W14803  33.014  15.598   4.692
42511W        W14804   3.872  13.306  12.478
42512W        W14805  10.371   4.773  13.324
42513W        W14806  41.890   1.366   0.911
42514W        W14807  37.854  32.496   4.254
42515W        W14808  30.097  15.807   4.707
42516W        W14809  43.834  17.142   0.825
42517W        W14810  33.031  44.901  11.555
42518W        W14811  14.262  39.961   2.761
42519W        W14812   3.346  29.116  13.327
42520W        W14813  27.150  44.007  13.383
42521W        W14814   5.388  20.690  11.042
42522W        W14815   7.328  33.922   1.323
42523W        W14816  36.956  21.570   1.386
42524W        W14817  28.141  33.934  10.488
42525W        W14818  30.493   1.774  12.344
42526W        W14819   2.300  14.802  13.900
42527W        W14820  32.602   5.811  13.988
42528W        W14821   8.764  16.100   1.723
42529W        W14822  17.775  15.277   4.209
42530W        W14823  39.412  10.213  13.050
42531W        W14824  19.609  16.317   3.788
42532W        W14825  27.574  24.216  13.322
42533W        W14826  24.991  16.585  12.859
42534W        W14827  14.806   6.873  14.380
42535W        W14828  39.850  10.142  12.908
42536W        W14829  19.576  23.189  11.407
42537W        W14830   7.685   8.882  13.985
42538W        W14831  25.688  17.749  11.485
42539W        W14832  29.463   4.446  10.636
42540W        W14833   3.759  22.123  13.467
42541W        W14834  35.358   8.820  12.361
42542W        W14835  10.327  21.743  13.970
42543W        W14836  42.910   2.394   5.178
42544W        W14837   5.758   6.317   4.708
42545W        W14838  16.679  30.438   1.350
42546W        W14839  10.813  19.081   4.758
42547W        W14840   5.211   9.664  14.842
42548W        W14841  21.056  38.868   3.262
42549W        W14842  36.911  40.962  10.947
42550W        W14843  32.394  22.742  14.759
42551W        W14844  10.679  24.009   1.825
42552W        W14845  30.057   8.375  14.350
42553W        W14846  15.651   7.311   2.412
42554W        W14847  13.819  39.020  10.534
42555W        W14848  29.961  21.132   2.388
42556W        W14849  38.893  10.222   2.269
42557W        W14850  25.176   4.910   4.817
42558W        W14851  31.424   6.737  14.926
42559W        W14852   6.372  21.213  10.625
42560W        W14853  36.583   2.787  13.511
42561W        W14854  27.998   3.856  14.357
42562W        W14855  13.762  31.425   3.306
42563W        W14856   1.827   5.318   4.616
42564W        W14857   3.752  26.677   1.774
42565W        W14858   4.886  25.123   0.808
42566W        W14859  19.220  13.619   2.344
42567W        W14860  25.581  44.477  10.499
42568W        W14861  14.213  35.534  11.412
42569W        W14862  14.752  13.645   3.708
42570W        W14863  12.690   9.190   0.416
42571W        W14864  42.289  25.165  11.377
42572W        W14865   3.320  37.984   0.390
42573W        W14866  23.109  34.609  10.545
42574W        W14867  32.032  16.714   1.404
42575W        W14868  14.221  18.713   0.791
42576W        W14869  27.102  36.475   4.242
42577W        W14870   9.821  20.219  12.091
42578W        W14871  30.439   9.390   2.664
42579W        W14872  31.066   3.240  10.492
42580W        W14873  43.824   4.800  14.454
42581W        W14874  24.617  31.008   2.268
42582W        W14875  17.178   5.332   1.228
42583W        W14876  14.278  33.457  10.428
42584W        W14877  12.285  12.211   1.708
42585W        W14878  40.493   9.184   3.361
42586W        W14879  33.948  34.990  14.496
42587W        W14880  17.215  44.981   3.744
42588W        W14881  12.618  13.708   1.333
42589W        W14882  35.918  44.860  10.946
42590W        W14883  22.091  13.786   2.827
42591W        W14884  24.121  14.287   0.291
42592W        W14885  32.135  15.272  12.016
42593W        W14886  10.362  13.696  14.945
42594W        W14887   9.169  35.389  14.762
42595W        W14888  33.538   4.882  14.787
42596W        W14889  18.277   5.769  12.962
42597W        W14890  33.972  21.676  14.466
42598W        W14891  17.061  15.590  13.900
42599W        W14892  37.003  40.974  13.053
42600W        W14893  27.039  11.681  12.900
42601W        W14894  18.681  13.106   0.844
42602W        W14895  43.818  32.961  13.372
42603W        W14896  32.578  19.062  13.509
42604W        W14897  14.820  15.768   1.231
42605W        W14898  29.608   2.861  11.019
42606W        W14899  26.531  12.645   0.845
42607W        W14900  27.576  35.378  11.545
42608W        W14901  24.043  36.523   3.701
42609W        W14902   3.898  20.131   4.263
42610W        W14903  18.296  43.916  11.532
42611W        W14904  44.890  26.171  10.988
42612W        W14905  22.600  29.006  11.959
42613W        W14906  26.516  32.902  12.459
42614W        W14907   5.269  31.041  11.544
42615W        W14908  22.659  26.463  12.893
42616W        W14909   0.437  16.258   2.823
42617W        W14910  32.503  11.702   1.279
42618W        W14911   8.662   7.865   4.802
42619W        W14912   3.303  32.130  13.833
42620W        W14913  33.068  36.446  10.492
42621W        W14914  27.680  40.311   4.604
42622W        W14915  34.954  41.989   2.725
42623W        W14916  39.316   2.243   4.273
42624W        W14917  10.646  41.468   1.302
42625W        W14918  41.824  18.565  10.639
42626W        W14919  26.066  15.095  13.983
42627W        W14920   4.436  27.192  13.975
42628W        W14921  16.261  35.397  13.462
42629W        W14922   1.371  17.797   1.412
42630W        W14923  43.432  19.780  10.102
42631W        W14924  34.109  32.126   5.154
42632W        W14925  16.282  27.597   0.890
42633W        W14926  23.580   1.858  11.910
42634W        W14927  25.967   9.819   0.802
42635W        W14928  33.422  34.373   3.158
42636W        W14929  18.570  10.296  14.293
42637W        W14930  21.717  41.484  14.448
42638W        W14931  16.773  25.011   4.336
42639W        W14932  18.634  20.252   1.317
42640W        W14933  41.493  24.158  14.851
42641W        W14934   4.706  38.335  10.634
42642W        W14935  28.969  33.907   0.957
42643W        W14936  37.537  28.020  14.850
42644W        W14937  44.882  25.964  11.884
42645W        W14938  15.774  11.662  13.016
42646W        W14939  31.916   8.240   1.744
42647W        W14940  16.802  24.050  14.801
42648W        W14941  43.388  12.118  14.388
42649W        W14942  10.788  31.984  14.895
42650W        W14943  39.900  35.888   4.672
42651W        W14944  32.058  20.032  13.471
42652W        W14945  36.025  10.826   0.885
42653W        W14946  26.672  42.286   1.431
42654W        W14947  38.016  44.903  10.635
42655W        W14948  33.625  15.693  10.625
42656W        W14949  30.437  23.503   0.954
42657W        W14950  40.870   7.390   2.837
42658W        W14951   4.765  33.009   2.243
42659W        W14952  16.676  28.476  11.479
42660W        W14953  38.426  22.651   3.859
42661W        W14954  41.910  19.124  14.827
42662W        W14955  19.217  38.565   0.925
42663W        W14956  20.138  22.159   0.302
42664W        W14957  13.326  43.420   3.767
42665W        W14958   3.946  21.136   4.168
42666W        W14959  29.105  36.954   0.865
42667W        W14960  34.067  34.529  13.917
42668W        W14961  12.294  21.627  12.385
42669W        W14962  23.058  40.516  11.466
42670W        W14963  27.534   9.296  10.532
42671W        W14964   4.731  31.455  11.448
42672W        W14965  10.251  10.286   2.682
42673W        W14966  43.960  43.785   9.999
42674W        W14967  26.578   2.441   1.428
42675W        W14968  28.122   5.241   2.241
42676W        W14969  31.050  42.426  12.828
42677W        W14970  28.081  31.423  11.934
42678W        W14971  33.413   8.738   1.240
42679W        W14972  15.686   4.216  14.999
42680W        W14973   5.822  17.690  13.905
42681W        W14974  43.459  10.806   1.258
42682W        W14975   0.319  18.666   2.832
42683W        W14976  20.112  26.046   4.330
42684W        W14977  10.775  29.432   2.851
42685W        W14978   2.767   7.863   0.845
42686W        W14979  14.798   1.816   4.782
42687W        W14980   6.247  29.650   2.341
42688W        W14981  27.587  39.970  13.874
42689W        W14982  21.573  35.575  10.634
42690W        W14983   2.259  22.104   0.356
42691W        W14984  24.048  28.598   1.805
42692W        W14985  32.891   0.282  11.076
42693W        W14986  33.991  27.965  11.434
42694W        W14987  13.691  14.612   2.197
42695W        W14988  23.164  14.705   3.856
42696W        W14989   1.829   1.763   4.299
42697W        W14990   3.375   1.795  13.339
42698W        W14991  23.655  15.721   1.389
42699W        W14992  24.122  44.321  13.814
42700W        W14993  10.687  39.025   3.298
42701W        W14994  42.862  41.350   2.848
42702W        W14995  15.746  22.634  14.394
42703W        W14996  25.211  37.027   2.363
42704W        W14997  20.686  35.524   0.753
42705W        W14998   0.836   9.701   2.757
42706W        W14999  10.192  34.579  11.103
42707W        W15000   7.839  41.983   2.269
42708W        W15001   1.894  16.218   0.949
42709W        W15002  12.184  39.053   0.367
42710W        W15003   8.393  12.256   0.338
42711W        W15004  22.102   4.737  13.035
42712W        W15005  31.627   9.350  13.858
42713W        W15006  30.495  16.124  12.464
42714W        W15007  37.975   1.968  10.970
42715W        W15008  12.680  15.799   4.722
42716W        W15009  43.019  15.614  10.059
42717W        W15010   7.680   3.305   3.364
42718W        W15011   3.721  44.921   0.411
42719W        W15012  13.149  29.140   4.656
42720W        W15013   2.455   1.889   1.843
42721W        W15014   9.746  30.619   2.753
42722W        W15015  43.980  26.061   3.712
42723W        W15016   9.351  28.939  10.456
42724W        W15017  41.312   9.835   0.341
42725W        W15018   9.709  29.439  12.062
42726W        W15019  15.747  11.157   4.825
42727W        W15020  23.084   1.438   0.450
42728W        W15021  11.635  28.506  14.369
42729W        W15022  34.104   1.472  13.818
42730W        W15023  20.186   9.839   0.901
42731W        W15024  22.602  13.159  11.062
42732W        W15025  35.050  35.031  13.945
42733W        W15026   8.232  13.222  14.920
42734W        W15027  30.518  13.272  11.438
42735W        W15028  41.847  41.428  11.086
42736W        W15029  36.926  18.726   1.884
42737W        W15030   1.408  35.869   1.218
42738W        W15031   6.379  34.369   5.627
42739W        W15032  37.437  36.439  13.060
42740W        W15033   0.754  43.393  14.009
42741W        W15034   0.414  41.330   1.698
42742W        W15035   1.346  38.942   3.865
42743W        W15036  22.237   3.334   2.225
42744W        W15037   1.782   0.963   4.649
42745W        W15038  37.080  15.761  14.497
42746W        W15039  18.554  24.616  12.032
42747W        W15040  24.625  44.415  14.915
42748W        W15041   4.336   8.888  13.509
42749W        W15042  29.001   6.772   4.710
42750W        W15043  36.050  11.765  10.526
42751W        W15044  43.773  26.053  10.971
42752W        W15045  25.669   2.417   3.768
42753W        W15046  33.382  39.440   3.250
42754W        W15047  21.251   9.760   3.798
42755W        W15048  18.272  43.461  14.766
42756W        W15049   7.224  16.282  13.343
42757W        W15050  11.724   3.440  12.833
42758W        W15051  19.581  35.369   2.841
42759W        W15052  24.479  21.555   1.727
42760W        W15053  37.428   9.657  11.123
42761W        W15054  30.969  30.101   1.740
42762W        W15055  21.696  18.249  10.949
42763W        W15056  42.797  35.902  10.572
42764W        W15057  11.697  22.608  12.565
42765W        W15058  34.424  10.811   3.793
42766W        W15059   9.261  33.933   5.156
42767W        W15060  33.393  15.250   2.749
42768W        W15061  11.321  32.069  11.519
42769W        W15062  26.096  18.650  13.912
42770W        W15063  23.994  17.287   4.353
42771W        W15064  31.008  40.826   2.357
42772W        W15065  30.434  10.208  12.348
42773W        W15066  40.423   1.887  11.980
42774W        W15067  37.909  21.628  12.404
42775W        W15068  28.178  27.066  10.424
42776W        W15069  21.639  17.747  10.977
42777W        W15070  28.585  25.654   4.646
42778W        W15071  17.617  25.004  14.415
42779W        W15072  38.913  36.018   5.310
42780W        W15073  35.438  20.166  12.564
42781W        W15074  11.254   6.720   2.370
42782W        W15075  41.384  12.318   1.874
42783W        W15076  20.190  39.412   1.810
42784W        W15077  20.089  38.888   2.282
42785W        W15078   8.384   6.216  14.321
42786W        W15079  13.144   4.320  12.384
42787W        W15080  29.552  10.349  13.885
42788W        W15081  36.939  12.721   0.797
42789W        W15082  11.255  10.383   2.289
42790W        W15083  44.262   0.258  11.004
42791W        W15084  27.952  32.095   4.743
42792W        W15085  40.863  16.768  12.891
42793W        W15086   8.743  15.750  11.107
42794W        W15087  11.862  19.771  13.527
42795W        W15088  33.626   3.760  11.116
42796W        W15089  17.790  23.049  11.410
42797W        W15090   7.736  32.542  11.918
42798W        W15091   8.885  42.899  13.504
42799W        W15092   6.418  19.694   1.851
42800W        W15093  10.863   8.380  11.382
42801W        W15094  44.895  17.720  12.480
42802W        W15095   7.356   8.800   3.335
42803W        W15096   5.905  23.645  12.831
42804W        W15097  25.065  25.623  13.533
42805W        W15098  27.066  36.450   3.806
42806W        W15099  11.311  42.861   0.762
42807W        W15100  36.375  11.756  13.402
42808W        W15101  23.107  15.719  13.792
42809W        W15102  29.048  31.446   2.295
42810W        W15103  25.197  17.216   1.855
42811W        W15104   9.794  14.338  11.514
42812W        W15105   7.863  30.639  10.990
42813W        W15106  11.866  24.680   1.251
42814W        W15107  24.522   1.823  13.427
42815W        W15108  34.055  23.528   0.262
42816W        W15109  10.345  25.642   4.145
42817W        W15110   6.311   5.376  14.861
42818W        W15111   2.899  40.940  11.383
42819W        W15112  27.516  39.010  14.382
42820W        W15113  11.182  40.536  11.102
42821W        W15114  37.360  16.591  13.512
42822W        W15115  10.712  44.305  12.914
42823W        W15116   4.450  24.218  12.440
42824W        W15117  19.552  36.483  10.521
42825W        W15118  44.928  39.013   0.259
42826W        W15119  19.107  12.834   4.697
42827W        W15120   1.453  12.759  11.963
42828W        W15121  41.423  11.645  14.455
42829W        W15122  21.063  10.300  10.617
42830W        W15123  13.635  18.729   2.274
42831W        W15124  28.976  12.835   3.273
42832W        W15125  30.092   8.336   3.229
42833W        W15126   4.710   3.452   9.934
42834W        W15127   6.751   6.908   0.307
42835W        W15128  19.232   5.396   4.350
42836W        W15129  11.318  13.263   4.683
42837W        W15130   3.752  15.585  14.817
42838W        W15131  10.157  38.430  11.970
42839W        W15132   3.362  19.617  14.331
42840W        W15133   4.431  37.402  10.596
42841W        W15134  21.711  29.644  13.382
42842W        W15135  24.101   9.263  11.609
42843W        W15136  34.081   1.824  12.558
42844W        W15137  33.067   6.761  14.760
42845W        W15138  31.147  40.859  14.406
42846W        W15139  25.019  24.623   4.599
42847W        W15140  14.275   5.394   2.694
42848W        W15141  33.929  28.012   2.736
42849W        W15142  24.526  43.415  12.869
42850W        W15143   7.762   6.788  12.572
42851W        W15144  41.975  40.480  12.945
42852W        W15145  25.207  44.974  14.881
42853W        W15146  41.995  31.997   2.806
42854W        W15147  26.022   9.863  14.296
42855W        W15148  22.201  27.097  12.548
42856W        W15149  35.947  43.297   1.911
42857W        W15150  36.397  13.731  12.876
42858W        W15151  23.127  28.042  12.053
42859W        W15152  33.040   9.351  12.532
42860W        W15153   7.769  13.717   3.738
42861W        W15154  13.823   1.772   2.820
42862W        W15155  31.435  26.590   0.824
42863W        W15156   7.759  22.159  12.015
42864W        W15157  26.681  26.648   4.781
42865W        W15158  11.242   3.924   4.804
42866W        W15159  43.871  36.496   0.744
42867W        W15160  44.876  10.335  11.467
42868W        W15161  30.032  35.856  13.953
42869W        W15162   1.769  33.581  14.817
42870W        W15163  13.675  39.445  10.919
42871W        W15164   1.767  31.533  11.003
42872W        W15165  17.560  14.314   1.736
42873W        W15166  13.819  21.637   3.825
42874W        W15167  18.280  13.780   4.752
42875W        W15168  26.071  32.589   4.636
42876W        W15169   1.365   8.868   5.257
42877W        W15170  17.593  42.875  14.339
42878W        W15171  38.832  13.192  14.916
42879W        W15172  22.593  12.272  11.080
42880W        W15173  39.421  14.095  11.924
42881W        W15174  35.085  14.723  10.551
42882W        W15175  12.243  44.850   0.255
42883W        W15176  40.330  34.462  13.433
42884W        W15177   7.416  41.018  10.545
42885W        W15178  31.501  29.444  12.862
42886W        W15179  42.867   3.365  14.378
42887W        W15180  12.350  32.479  12.032
42888W        W15181  29.024  25.022  13.497
42889W        W15182  21.625  32.952   3.640
42890W        W15183  30.556  11.627   1.913
42891W        W15184  27.562  26.986   2.848
42892W        W15185  42.972  32.971   1.291
42893W        W15186  44.772   4.436   2.350
42894W        W15187  32.085   9.156  13.897
42895W        W15188   0.351  20.538   2.294
42896W        W15189  25.062   9.343   2.285
42897W        W15190  21.218  41.037   1.917
42898W        W15191  35.050  40.830  13.931
42899W        W15192  43.458  27.642   1.444
42900W        W15193  40.821  22.996  12.885
42901W        W15194   2.891  34.436   2.278
42902W        W15195  27.464   3.448  13.822
42903W        W15196  18.255  21.735  10.993
42904W        W15197   2.847  39.464   2.825
42905W        W15198  29.453  13.341  13.505
42906W        W15199   0.275  42.922   4.251
42907W        W15200  37.042  32.925  13.345
42908W        W15201  32.056  26.073   0.371
42909W        W15202  33.526   2.262   0.932
42910W        W15203  22.164  43.454   0.745
42911W        W15204  24.030  35.379   1.894
42912W        W15205  32.495  19.681  10.596
42913W        W15206  25.167  26.475  14.848
42914W        W15207   7.264  11.331  13.967
42915W        W15208  31.539  28.629   3.648
42916W        W15209  40.440  33.537  10.409
42917W        W15210  41.323  25.551  13.957
42918W        W15211  20.120  30.075  13.961
42919W        W15212  21.680  26.190   3.313
42920W        W15213  21.100   7.404   1.795
42921W        W15214  18.094  15.304   0.894
42922W        W15215  15.327  32.135  14.276
42923W        W15216  19.613  30.580  13.402
42924W        W15217  11.373  22.549  13.049
42925W        W15218   1.736  35.060   3.792
42926W        W15219  14.707  38.468   1.835
42927W        W15220  32.115  30.505  13.018
42928W        W15221   8.324  33.522   1.294
42929W        W15222  32.618  34.528  12.933
42930W        W15223  19.608  17.622   3.817
42931W        W15224  11.164   9.288  11.564
42932W        W15225  41.458  22.570   4.774
42933W        W15226  31.600   9.736   2.369
42934W        W15227  25.012  38.056   1.766
42935W        W15228  37.352   3.940   0.934
42936W        W15229  18.158  43.768   2.298
42937W        W15230  24.231  44.801  10.468
42938W        W15231  17.602  41.038  11.501
42939W        W15232  42.352  42.017   2.712
42940W        W15233  14.621  30.418   0.867
42941W        W15234  17.696  10.233  10.964
42942W        W15235  28.007  28.959   4.624
42943W        W15236  11.654  35.883  11.373
42944W        W15237  41.789   9.344  11.860
42945W        W15238   8.754  40.977  12.930
42946W        W15239  18.157  38.875   4.355
42947W        W15240  15.238  22.730  14.495
42948W        W15241  24.658  10.282   2.214
42949W        W15242  32.895   4.439   3.224
42950W        W15243   3.730  10.674   2.190
42951W        W15244  15.108  32.051  12.413
42952W        W15245  42.998  37.953  12.972
42953W        W15246   8.262  40.374  12.976
42954W        W15247  11.712   4.774  11.963
42955W        W15248   1.447  29.493  12.836
42956W        W15249  11.362  18.174  12.949
42957W        W15250   2.244  28.033  13.338
42958W        W15251  30.930  11.683  12.439
42959W        W15252  26.639  30.432  11.948
42960W        W15253  26.518  39.819  14.365
42961W        W15254  29.582  34.560  10.404
42962W        W15255  10.711  25.035   0.359
42963W        W15256  11.763  25.170   3.233
42964W        W15257   3.782  23.560   4.769
42965W        W15258  14.298  16.247   2.816
42966W        W15259  40.018  10.295   2.342
42967W        W15260   6.237  13.317   5.229
42968W        W15261   9.379   9.377   1.869
42969W        W15262   5.294  17.119  12.564
42970W        W15263   8.192  21.138   4.659
42971W        W15264  25.606  42.490   0.904
42972W        W15265  24.110  12.793  12.900
42973W        W15266  26.691   0.415   1.222
42974W        W15267  18.052  37.930  11.932
42975W        W15268  29.961  40.393  14.940
42976W        W15269  30.522   9.301   1.850
42977W        W15270  23.069  22.722  13.383
42978W        W15271  43.940  39.966  12.541
42979W        W15272  17.682  23.005   1.243
42980W        W15273   6.266  42.407  14.922
42981W        W15274   2.817   9.288  11.970
42982W        W15275  34.373   5.819  12.576
42983W        W15276  24.572   4.288   2.707
42984W        W15277  13.732  10.875   3.375
42985W        W15278  13.183  34.008   3.860
42986W        W15279  31.629  40.971   4.741
42987W        W15280  31.551  39.921  11.126
42988W        W15281   1.896  39.022   2.782
42989W        W15282   3.300  10.717   2.895
42990W        W15283  32.905   4.816   0.285
42991W        W15284  18.130  10.258   4.793
42992W        W15285  20.551  19.753  10.505
42993W        W15286   7.358   1.744  10.950
42994W        W15287  34.894  36.522  14.029
42995W        W15288  37.878  31.010   3.240
42996W        W15289  21.209  28.581   4.353
42997W        W15290   1.331  33.600  12.960
42998W        W15291  19.673  15.661  12.368
42999W        W15292   7.201  18.092   3.695
43000W        W15293  39.923  19.232   4.646
43001W        W15294  21.114  17.670  14.324
43002W        W15295  16.087  11.632   0.370
43003W        W15296   0.433  11.359  12.954
43004W        W15297  14.634  29.044  12.886
43005W        W15298   1.426  44.475   0.848
43006W        W15299  19.726   5.887  14.925
43007W        W15300  41.308  24.514  14.769
43008W        W15301  32.111  33.494  13.446
43009W        W15302  33.060  43.315  10.996
43010W        W15303  35.480  26.544  13.432
43011W        W15304  29.097  33.582   0.438
43012W        W15305  42.405  23.166   1.887
43013W        W15306  33.528   0.947   3.822
43014W        W15307   4.407  36.538   2.388
43015W        W15308  42.838   5.236  12.876
43016W        W15309  33.082  34.945   4.766
43017W        W15310  30.037  21.573  12.992
43018W        W15311   3.347   3.891  11.457
43019W        W15312  19.101   2.729   1.867
43020W        W15313  36.458  26.008  11.532
43021W        W15314  42.966  31.071   0.953
43022W        W15315  21.679  20.730  12.526
43023W        W15316   2.796  44.361   1.908
43024W        W15317   8.866  38.534  10.998
43025W        W15318  39.906  13.222  13.420
43026W        W15319  26.599  27.025  10.572
43027W        W15320  15.252   8.764   3.326
43028W        W15321  21.101   8.886  12.863
43029W        W15322  33.941  36.964  11.371
43030W        W15323  24.065   5.747   3.239
43031W        W15324   5.717  39.528  10.501
43032W        W15325   6.741  11.623  12.908
43033W        W15326  44.006  11.843   2.695
43034W        W15327  36.352  27.603   4.603
43035W        W15328  10.681  26.529  12.074
43036W        W15329  28.470  32.089   3.642
43037W        W15330  29.523  13.309   0.950
43038W        W15331  25.692  34.078   1.930
43039W        W15332  11.311  21.223   0.244
43040W        W15333  43.945  43.404   2.360
43041W        W15334  35.854   0.926   2.313
43042W        W15335  37.531  16.649   0.471
43043W        W15336  10.820   1.237  14.952
43044W        W15337  34.034  24.500  14.932
43045W        W15338   4.450  33.071   4.699
43046W        W15339  42.306   2.753   2.837
43047W        W15340   6.834   1.763  14.477
43048W        W15341  23.536  13.205  13.837
43049W        W15342   8.236  30.002   4.239
43050W        W15343  25.146  39.878  11.554
43051W        W15344   7.751  14.280  13.793
43052W        W15345   8.361  29.156  14.012
43053W        W15346  13.222  44.897   3.294
43054W        W15347  30.954  27.580   2.219
43055W        W15348  12.168  31.957  13.903
43056W        W15349  44.322   2.724   9.943
43057W        W15350  38.332   1.825  14.841
43058W        W15351  18.169   3.899   2.792
43059W        W15352  17.257  42.317  13.470
43060W        W15353  15.747   1.455  11.894
43061W        W15354  20.553  42.367  12.971
43062W        W15355  37.539  27.964   1.312
43063W        W15356  10.260   1.779   0.882
43064W        W15357  15.305   5.799  12.021
43065W        W15358  35.057  29.477   2.342
43066W        W15359  16.091  40.823   4.663
43067W        W15360  41.952  15.267  12.471
43068W        W15361  24.993  10.192  10.904
43069W        W15362   8.656  20.570  11.423
43070W        W15363  12.350   4.434  12.998
43071W        W15364   3.227  14.277   3.795
43072W        W15365   7.402  38.024  11.425
43073W        W15366  42.870  22.608  14.955
43074W        W15367  10.663  27.978  13.849
43075W        W15368  11.227  21.523   1.784
43076W        W15369  40.421  31.640   2.854
43077W        W15370  36.585  21.568  11.904
43078W        W15371  14.679  16.205   0.358
43079W        W15372  36.515  25.704   4.793
43080W        W15373  26.578  14.256   2.770
43081W        W15374   6.850  34.478   1.366
43082W        W15375  27.963  10.692  13.951
43083W        W15376   2.435  24.619   0.450
43084W        W15377  29.643   2.897  13.943
43085W        W15378   3.806  24.191  13.370
43086W        W15379  29.968  18.161   3.194
43087W        W15380  40.956   6.702  13.403
43088W        W15381   8.293  41.942   3.162
43089W        W15382  28.048  18.060   4.686
43090W        W15383   5.263  12.309  13.446
43091W        W15384  34.566  32.951   3.707
43092W        W15385  23.701  11.273   0.414
43093W        W15386   9.193  16.184   4.766
43094W        W15387  19.167  43.451  12.430
43095W        W15388  17.798  15.125   3.266
43096W        W15389   0.850  42.487   0.289
43097W        W15390   6.858  35.525   4.203
43098W        W15391   1.279  37.026  10.641
43099W        W15392   5.286  18.054  11.511
43100W        W15393  41.975  42.957   2.417
43101W        W15394  14.142  32.511   1.438
43102W        W15395   1.354  14.110   3.717
43103W        W15396   7.306  37.419   2.671
43104W        W15397  24.193  24.137   1.840
43105W        W15398   5.761  37.878  14.440
43106W        W15399  26.506  18.751  14.848
43107W        W15400  40.907   1.825   2.753
43108W        W15401  14.821  32.062   0.383
43109W        W15402  29.155   7.385  13.910
43110W        W15403   2.409  34.395  12.088
43111W        W15404  40.521  31.001   1.330
43112W        W15405  14.277   4.427  12.052
43113W        W15406  18.767  39.434   1.792
43114W        W15407   5.220  13.296   4.644
43115W        W15408  42.892  34.487   2.276
43116W        W15409   4.820   7.409  12.964
43117W        W15410  41.041   7.330  11.948
43118W        W15411   6.380  23.660  10.496
43119W        W15412   2.367  24.015  14.983
43120W        W15413  34.940  10.154  11.478
43121W        W15414  40.383  23.239  14.466
43122W        W15415  30.492  44.428   3.730
43123W        W15416   0.449   0.381   0.880
43124W        W15417  37.879  25.990   3.248
43125W        W15418  15.678  25.543  14.510
43126W        W15419  25.045  24.190   3.649
43127W        W15420  21.519  31.147  13.324
43128W        W15421  42.906   6.241  13.537
43129W        W15422  22.680  18.737   0.823
43130W        W15423  41.786  34.927   0.897
43131W        W15424  26.171  44.810   4.639
43132W        W15425  20.209  15.118  13.800
43133W        W15426   9.808  36.544   2.411
43134W        W15427  15.103   4.931  11.091
43135W        W15428  15.783  25.629   3.322
43136W        W15429  14.687   5.850   3.711
43137W        W15430  31.987  12.724  14.286
43138W        W15431  28.463  12.188  13.007
43139W        W15432  37.358   5.232  14.873
43140W        W15433  43.876   9.667  12.871
43141W        W15434   1.869  37.522   0.386
43142W        W15435  23.021  18.722   3.334
43143W        W15436  41.912   6.689  14.772
43144W        W15437  42.379  39.355   3.167
43145W        W15438  31.097  38.364   3.263
43146W        W15439  39.041  13.120   3.381
43147W        W15440  20.594  44.359  14.841
43148W        W15441  32.923   9.378  11.089
43149W        W15442  22.149  31.448   4.705
43150W        W15443  25.057  36.554  11.497
43151W        W15444  40.964  39.513   1.432
43152W        W15445  22.025   2.929   0.379
43153W        W15446  14.754  33.403  14.437
43154W        W15447  36.999   5.381   0.742
43155W        W15448  11.714  24.652  10.518
43156W        W15449   4.403  31.559   3.326
43157W        W15450   2.828  36.383   3.638
43158W        W15451  40.915  19.105  13.860
43159W        W15452   4.743   3.932   4.773
43160W        W15453  32.902  25.599   3.671
43161W        W15454  42.470  42.002  11.388
43162W        W15455  10.690  43.324   4.691
43163W        W15456  34.049  16.607  10.455
43164W        W15457   1.342  13.179  10.430
43165W        W15458  21.697  40.016  14.480
43166W        W15459  21.553   4.373  11.481
43167W        W15460   4.265  41.532  13.984
43168W        W15461   0.424  16.629   2.877
43169W        W15462  20.183  41.860  12.552
43170W        W15463  36.390  41.849  11.424
43171W        W15464  20.536  12.659   3.763
43172W        W15465  35.512  35.054  11.588
43173W        W15466  38.022  26.587  11.110
43174W        W15467   6.866  38.391  11.516
43175W        W15468  12.362  36.427   2.220
43176W        W15469  12.768  37.342  14.420
43177W        W15470  24.702   3.747  14.940
43178W        W15471  35.406  22.013  13.032
43179W        W15472   9.201  26.565   0.313
43180W        W15473  38.974  40.369  11.039
43181W        W15474   0.436  37.372   0.743
43182W        W15475   2.943   3.413  13.466
43183W        W15476  32.029  23.121  12.016
43184W        W15477  32.496  20.256  14.297
43185W        W15478  15.187  12.788  11.432
43186W        W15479  30.083  20.167  11.998
43187W        W15480  19.536  14.104  13.332
43188W        W15481  39.825  16.284   4.225
43189W        W15482  34.075  37.336  10.998
43190W        W15483   2.403  26.115  14.288
43191W        W15484  37.444  42.878   3.208
43192W        W15485  20.604  26.208   1.913
43193W        W15486  15.659  29.635  12.524
43194W        W15487  33.543  12.797   3.273
43195W        W15488   8.216  30.416  13.962
43196W        W15489  24.490  18.617   3.328
43197W        W15490  36.567  37.861  11.094
43198W        W15491   4.825  42.300   0.899
43199W        W15492  11.808  38.564   3.701
43200W        W15493  13.767   4.408   5.600
43201W        W15494  10.780  12.628  14.373
43202W        W15495  41.825  11.677  12.864
43203W        W15496  15.733   8.789   2.342
43204W        W15497   4.925  27.561  13.058
43205W        W15498  39.954  34.437  10.405
43206W        W15499  36.919  33.032  13.829
43207W        W15500  34.437  32.937   0.311
43208W        W15501  35.868  41.350  13.945
43209W        W15502   6.866  38.040   4.683
43210W        W15503  16.612  27.958  11.932
43211W        W15504  10.250  40.507   4.204
43212W        W15505  25.002  27.631   0.282
43213W        W15506  16.277  15.768   1.373
43214W        W15507  12.716   6.295  14.798
43215W        W15508  31.626  19.594   2.676
43216W        W15509  12.279  43.347  13.520
43217W        W15510  23.680  22.037  13.968
43218W        W15511   7.808  17.705   4.810
43219W        W15512   5.354  33.444   1.794
43220W        W15513   9.749  35.468   5.310
43221W        W15514   4.390   3.898  12.531
43222W        W15515  18.673  28.012  10.509
43223W        W15516  11.783  23.677   4.149
43224W        W15517  27.499  14.232   3.733
43225W        W15518  32.427  44.810  12.995
43226W        W15519   2.240  23.051   3.172
43227W        W15520  30.992  12.765   3.753
43228W        W15521  27.176  23.180  12.569
43229W        W15522  16.222  26.478  13.496
43230W        W15523   9.369  10.295  14.466
43231W        W15524  18.726  34.456  11.442
43232W        W15525  40.356  27.600  11.401
43233W        W15526  21.745  43.498  14.485
43234W        W15527  18.570  11.832   0.409
43235W        W15528  13.693  34.932  13.316
43236W        W15529  43.386   1.914  12.072
43237W        W15530  12.259  44.448  12.911
43238W        W15531  44.838  36.399  10.626
43239W        W15532  40.860  36.459   3.816
43240W        W15533  12.627   5.927   3.838
43241W        W15534  35.480   9.211  10.957
43242W        W15535   1.375  13.230   4.210
43243W        W15536  32.432   1.332   3.217
43244W        W15537  35.372  40.958   3.699
43245W        W15538  33.577  30.625  14.879
43246W        W15539  40.858  31.091   0.894
43247W        W15540   6.427   5.745  12.845
43248W        W15541  19.217  18.108   2.252
43249W        W15542  42.304  19.691   5.088
43250W        W15543   6.418  39.042   3.643
43251W        W15544  14.684  25.134   1.732
43252W        W15545   5.372  40.041   3.383
43253W        W15546   8.236  12.688   1.770
43254W        W15547  39.990  10.671   0.819
43255W        W15548   3.733  38.353  12.515
43256W        W15549  20.188  44.800   2.343
43257W        W15550  44.803  22.671  12.906
43258W        W15551   5.780  20.092   3.214
43259W        W15552  36.437  37.444   3.295
43260W        W15553   5.706  14.199  10.404
43261W        W15554   1.781  40.512   1.270
43262W        W15555  16.216  34.513   2.737
43263W        W15556  23.663  23.063  12.890
43264W        W15557  44.321   8.796   2.783
43265W        W15558  33.454  20.051   5.157
43266W        W15559   3.257   1.397   0.849
43267W        W15560  18.244  42.779  12.398
43268W        W15561  22.618  15.154  10.407
43269W        W15562  40.973  40.799  11.055
43270W        W15563   1.248  22.744  10.542
43271W        W15564  15.185  38.051   2.269
43272W        W15565  20.080  21.155  14.833
43273W        W15566  38.845  42.924  13.492
43274W        W15567  29.104   4.893  14.443
43275W        W15568  38.007  23.707  11.900
43276W        W15569   6.248  32.614   4.331
43277W        W15570  34.961  36.990  13.032
43278W        W15571  37.582  10.209   4.224
43279W        W15572  42.506  28.076  12.432
43280W        W15573   5.756  18.075   4.832
43281W        W15574   2.730  30.090   4.225
43282W        W15575  40.030   2.397   0.431
43283W        W15576   2.444   3.915   4.828
43284W        W15577  22.232  28.484  10.552
43285W        W15578  36.886  44.875   3.856
43286W        W15579  20.601  13.754  10.593
43287W        W15580  34.876  35.947   4.733
43288W        W15581  10.366  22.200  12.024
43289W        W15582  35.888  43.302  13.386
43290W        W15583  14.742  32.456  10.930
43291W        W15584  25.063  27.963   5.225
43292W        W15585  40.427  38.941  12.340
43293W        W15586  10.655  38.885  12.343
43294W        W15587  30.490  11.864  12.413
43295W        W15588  44.341   1.284   2.273
43296W        W15589  29.114  22.701  11.878
43297W        W15590  35.593  25.603   1.283
43298W        W15591  30.985  18.564  11.117
43299W        W15592   8.740  33.100   3.313
43300W        W15593  14.252  31.987  14.883
43301W        W15594  35.897  27.065  12.395
43302W        W15595  28.453  26.180  13.022
43303W        W15596  12.234  35.951   0.772
43304W        W15597  26.477  18.289   2.383
43305W        W15598  13.655  16.590  10.546
43306W        W15599   3.913  24.124  10.991
43307W        W15600  23.559  39.944  10.524
43308W        W15601  30.539   7.197  10.404
43309W        W15602   3.924   3.850  10.557
43310W        W15603  43.999  42.977  12.569
43311W        W15604  35.494  34.953  13.918
43312W        W15605  25.567  11.689   0.321
43313W        W15606  44.793   7.911   2.341
43314W        W15607  31.113  11.845   5.123
43315W        W15608   6.318  38.332   3.282
43316W        W15609   2.883  28.047  11.991
43317W        W15610  36.441   0.397  14.818
43318W        W15611  12.850  23.131  11.903
43319W        W15612  14.775  29.499   2.215
43320W        W15613  41.358  11.858   4.777
43321W        W15614   7.770  10.196  11.101
43322W        W15615  22.512  20.110  12.937
43323W        W15616  19.087  32.980   1.713
43324W        W15617  41.805  32.487   3.258
43325W        W15618  40.471  36.949   3.667
43326W        W15619  34.911   7.192  14.381
43327W        W15620  10.714   9.851   0.845
43328W        W15621  42.972  27.090  14.363
43329W        W15622  26.595  10.232   3.379
43330W        W15623   6.896  31.025  10.989
43331W        W15624  29.630  36.424  13.938
43332W        W15625  43.826  31.098  14.980
43333W        W15626   3.918  43.405   4.597
43334W        W15627  17.253  31.606  13.324
43335W        W15628  31.046  38.353   0.310
43336W        W15629  28.544   1.372   2.376
43337W        W15630   9.329   6.840   3.821
43338W        W15631  40.818   0.879  13.791
43339W        W15632  24.696  42.900   4.724
43340W        W15633   1.788  21.032  11.911
43341W        W15634  21.697  37.910  12.530
43342W        W15635   9.711  43.503   1.351
43343W        W15636  27.191  37.050  13.356
43344W        W15637   7.906  13.344  14.810
43345W        W15638  39.936  24.990   1.306
43346W        W15639   6.920  44.808  10.579
43347W        W15640  38.046   6.764  11.943
43348W        W15641  33.434  29.446  12.434
43349W        W15642   6.871  15.152   2.841
43350W        W15643  38.437  12.143  12.979
43351W        W15644  37.053  33.107   4.153
43352W        W15645  20.132   3.802  12.909
43353W        W15646  12.201   8.350  14.461
43354W        W15647  26.640  41.955  11.983
43355W        W15648  20.644  36.865   2.262
43356W        W15649   2.865  42.860   3.214
43357W        W15650  42.888  10.341   4.300
43358W        W15651  24.129  21.560   3.199
43359W        W15652  17.286  27.596  13.943
43360W        W15653  44.787  17.101   3.351
43361W        W15654  20.528  40.982   3.376
43362W        W15655  29.036  25.071  12.432
43363W        W15656  35.914   7.769   2.399
43364W        W15657  23.148  12.282  10.410
43365W        W15658   6.271   1.866   3.186
43366W        W15659  22.190   5.396   4.692
43367W        W15660  24.033  21.022   3.797
43368W        W15661  40.039   8.717  12.869
43369W        W15662  19.631  43.875  13.963
43370W        W15663  30.526  12.615  12.339
43371W        W15664  32.446   6.802  12.859
43372W        W15665  18.078  42.393   3.335
43373W        W15666  30.075  10.362  13.039
43374W        W15667  12.240  41.525   0.370
43375W        W15668  19.126   5.851  12.045
43376W        W15669  24.666   0.825   3.263
43377W        W15670  31.445  11.699  11.507
43378W        W15671  10.335  12.834  10.913
43379W        W15672  40.853  17.616  10.500
43380W        W15673  13.663  35.921   2.380
43381W        W15674  25.152  18.627  11.497
43382W        W15675  14.681  15.198   2.194
43383W        W15676  17.207  15.623  14.342
43384W        W15677   6.749   8.364  12.354
43385W        W15678  32.559  22.086  13.393
43386W        W15679  27.068  23.050   0.930
43387W        W15680  41.825   3.870   4.597
43388W        W15681   1.892  40.423   1.883
43389W        W15682   0.984  15.675   1.442
43390W        W15683  33.403  10.349  11.398
43391W        W15684  39.996  25.992  13.897
43392W        W15685  44.302  38.888  14.762
43393W        W15686  35.996  29.598   3.743
43394W        W15687   7.234   8.835   1.762
43395W        W15688  37.953   6.221   0.302
43396W        W15689   5.405   1.276   0.459
43397W        W15690  38.520  25.500   0.968
43398W        W15691  12.307  13.646   2.285
43399W        W15692  17.737  19.241  12.434
43400W        W15693  14.833  13.111  13.378
43401W        W15694  32.624  11.706  13.496
43402W        W15695  14.111  43.435  12.546
43403W        W15696  20.703  11.708   2.812
43404W        W15697   8.713   5.898  12.340
43405W        W15698  14.825  32.414  14.505
43406W        W15699  42.015   9.744   0.838
43407W        W15700   9.879  41.503  14.278
43408W        W15701   3.424  44.318   0.482
43409W        W15702  43.427  20.184  13.910
43410W        W15703   2.226  27.558  14.806
43411W        W15704  42.017   0.928  12.496
43412W        W15705  22.242  11.182  13.929
43413W        W15706  40.010  40.498   3.659
43414W        W15707  12.777  43.428  11.970
43415W        W15708  43.987  15.173  14.279
43416W        W15709  26.136  42.460   3.314
43417W        W15710  13.720  13.810   0.759
43418W        W15711  37.968  10.166  13.333
43419W        W15712   4.207   2.751  12.926
43420W        W15713  44.819  28.469   0.255
43421W        W15714  16.135  16.630  12.425
43422W        W15715  28.092   5.256   1.349
43423W        W15716  14.321   3.915   2.678
43424W        W15717   7.180   1.259  12.981
43425W        W15718  22.111  37.535   2.811
43426W        W15719  43.396  44.844   4.150
43427W        W15720  28.949  10.678   1.738
43428W        W15721  17.099   5.863  10.931
43429W        W15722  26.166  33.479  12.088
43430W        W15723  12.181  26.629  14.400
43431W        W15724  28.045  23.063  11.867
43432W        W15725  11.814  38.543   4.735
43433W        W15726  24.654  31.913   1.840
43434W        W15727   4.764  11.766   0.853
43435W        W15728  21.019  19.549   1.304
43436W        W15729  21.672  30.160   1.836
43437W        W15730  22.607   6.231   3.740
43438W        W15731  14.133  30.069  14.811
43439W        W15732  14.123  40.310   0.872
43440W        W15733  35.373  43.815  13.430
43441W        W15734  22.195  16.671   4.599
43442W        W15735   3.794  22.248   0.373
43443W        W15736  26.635  14.142  10.620
43444W        W15737  11.355  23.164  13.982
43445W        W15738  26.177  31.136  14.967
43446W        W15739  15.680   9.830   1.363
43447W        W15740  40.391  19.136  11.435
43448W        W15741   5.359   9.733   0.846
43449W        W15742  17.123   7.402  10.925
43450W        W15743  14.334   3.357   4.762
43451W        W15744   5.385  43.877   3.661
43452W        W15745  30.482  38.011   2.345
43453W        W15746  25.659  30.645  13.495
43454W        W15747  40.465  27.132   1.441
43455W        W15748  43.388  43.490  13.817
43456W        W15749   6.408   5.370  12.057
43457W        W15750  20.054  25.520  12.974
43458W        W15751   5.297  17.248   4.726
43459W        W15752  40.808   1.799  11.057
43460W        W15753  18.077  41.495   3.672
43461W        W15754  36.001  19.707   0.475
43462W        W15755  43.441  27.516   3.663
43463W        W15756  28.498   9.229  11.522
43464W        W15757   6.699  28.183  13.942
43465W        W15758  38.922  28.172  13.824
43466W        W15759  16.175  42.792   4.729
43467W        W15760   4.883  18.784  13.413
43468W        W15761   7.340  24.686  14.379
43469W        W15762  37.335  37.863  13.858
43470W        W15763  23.629  24.210   2.283
43471W        W15764  32.479  29.941  11.066
43472W        W15765  15.699   4.904   1.845
43473W        W15766  42.424   3.929  13.485
43474W        W15767  23.023  32.538   2.206
43475W        W15768  16.714  23.111  11.988
43476W        W15769  35.918  36.491   2.417
43477W        W15770  14.329  43.364  11.043
43478W        W15771   9.211  18.225  11.610
43479W        W15772  40.454  27.051  13.336
43480W        W15773  25.601   1.416   3.772
43481W        W15774  26.181  39.412  12.860
43482W        W15775  43.511  37.867  14.384
43483W        W15776  44.806  13.638  13.533
43484W        W15777  26.678   0.953  13.345
43485W        W15778  13.297  44.393  14.771
43486W        W15779   0.295  39.322   4.675
43487W        W15780  16.571  39.858   2.704
43488W        W15781  33.036  31.444  13.521
43489W        W15782  21.645  39.897   1.790
43490W        W15783  44.904  44.782  14.862
43491W        W15784  22.513  21.098   2.270
43492W        W15785  26.479  11.852   3.200
43493W        W15786  34.904  30.631  10.027
43494W        W15787  41.323  29.121  13.846
43495W        W15788  42.916  28.036   4.188
43496W        W15789  44.769  30.134  12.975
43497W        W15790  43.287  23.113   2.194
43498W        W15791  23.606  28.068  13.898
43499W        W15792  35.083  29.606  12.861
43500W        W15793   9.688  36.365   9.631
43501W        W15794  37.847  34.005   1.353
43502W        W15795  14.597   5.749  13.415
43503W        W15796  36.977  30.045  12.001
43504W        W15797  10.138  22.663   1.724
43505W        W15798  35.371  20.090  14.316
43506W        W15799  21.674  36.080   4.798
43507W        W15800   4.886  34.481   1.700
43508W        W15801  43.514   9.806  11.598
43509W        W15802  31.623  43.795  14.332
43510W        W15803  29.024   7.227   1.874
43511W        W15804  25.182  43.396   1.283
43512W        W15805  10.333  37.888   3.251
43513W        W15806  18.730   7.417  10.999
43514W        W15807  35.025   4.833   2.330
43515W        W15808  36.905  17.693  12.565
43516W        W15809  42.416  25.022   0.284
43517W        W15810  35.444  21.602  14.326
43518W        W15811  32.942   1.267  14.343
43519W        W15812  44.782  36.868  11.945
43520W        W15813  44.827  12.191  11.897
43521W        W15814  24.097  17.787   3.246
43522W        W15815  17.116  25.988   3.744
43523W        W15816  13.706   1.849   3.711
43524W        W15817  40.372  16.665  12.497
43525W        W15818  32.500  18.107   0.774
43526W        W15819   3.369   7.342  10.989
43527W        W15820  13.277   1.953  10.974
43528W        W15821   6.392   9.319   4.350
43529W        W15822  28.087  41.987   5.312
43530W        W15823  19.564   4.339   4.739
43531W        W15824  25.127  36.048   2.770
43532W        W15825   3.256  27.971   4.216
43533W        W15826  32.054  29.990   0.738
43534W        W15827  27.171  15.823   2.828
43535W        W15828  29.524  39.443  10.443
43536W        W15829  42.287  33.483   1.821
43537W        W15830  25.690  29.955   4.297
43538W        W15831  14.197  12.615   4.622
43539W        W15832  38.929  31.994  12.024
43540W        W15833  30.524  38.469  10.472
43541W        W15834  26.962   3.889   4.254
43542W        W15835  24.536  11.677   0.371
43543W        W15836  27.582  31.471   4.826
43544W        W15837  15.703  36.398  12.479
43545W        W15838  38.925  10.842  14.314
43546W        W15839  43.967  39.849   2.773
43547W        W15840  41.376  33.958   2.416
43548W        W15841  41.334   9.179   4.345
43549W        W15842  14.733  21.518  10.534
43550W        W15843  13.320  24.023  14.878
43551W        W15844  30.966   6.913  12.055
43552W        W15845  44.466  25.962   2.210
43553W        W15846   1.748   6.339  10.911
43554W        W15847  29.051   0.272  10.936
43555W        W15848  28.024  12.155   3.764
43556W        W15849  32.047  25.021  14.790
43557W        W15850  38.343  15.777   1.222
43558W        W15851   6.342  39.939  12.581
43559W        W15852  31.446  32.464  12.040
43560W        W15853  25.211  11.351   4.286
43561W        W15854  25.605  40.487   3.272
43562W        W15855  21.557  34.935  13.008
43563W        W15856  27.530  24.008   5.744
43564W        W15857   2.326  13.134  14.445
43565W        W15858  16.276   5.289  10.510
43566W        W15859  21.550  30.989  12.357
43567W        W15860   1.858  16.263  13.027
43568W        W15861  27.647  30.505   3.638
43569W        W15862  19.158  12.690  14.289
43570W        W15863  38.022  35.964   5.228
43571W        W15864  16.570  20.624  12.524
43572W        W15865   7.830  15.802  12.523
43573W        W15866  41.984  14.182   3.284
43574W        W15867  41.867  31.926   0.299
43575W        W15868  17.075  20.209  13.948
43576W        W15869  24.507   2.748   1.766
43577W        W15870   2.927  31.999   2.335
43578W        W15871  43.979  20.154   0.839
43579W        W15872  12.635  34.384   4.279
43580W        W15873  28.163  42.942   3.664
43581W        W15874  10.191  26.648  12.556
43582W        W15875   5.401  10.862   3.751
43583W        W15876  36.094   4.885  12.555
43584W        W15877  35.983  24.649  10.588
43585W        W15878  25.999  22.656  11.377
43586W        W15879  44.835  20.227   1.412
43587W        W15880  11.831  25.168   4.315
43588W        W15881  42.365  39.494  13.968
43589W        W15882  38.385  21.658   4.746
43590W        W15883  36.381  26.675  13.407
43591W        W15884  20.584   2.821  12.945
43592W        W15885  13.305  24.482   3.702
43593W        W15886  35.525   1.948  12.545
43594W        W15887  31.136  26.531  12.829
43595W        W15888   8.767  43.426   3.235
43596W        W15889  16.720  29.119   3.329
43597W        W15890  15.714   5.875  10.588
43598W        W15891  29.441  37.971   1.829
43599W        W15892  21.228  12.232  12.938
43600W        W15893   3.737  24.208   2.235
43601W        W15894  35.951  38.373   4.342
43602W        W15895   7.816   5.867   0.785
43603W        W15896  31.473  30.018   4.810
43604W        W15897  35.483  32.933  10.441
43605W        W15898  12.699  43.292   1.349
43606W        W15899  19.694  21.039   2.701
43607W        W15900  41.294  33.577  12.083
43608W        W15901  41.503   8.272  14.328
43609W        W15902  30.599  39.058  11.391
43610W        W15903  18.613  16.692  10.996
43611W        W15904   3.286  24.003   2.276
43612W        W15905  24.190  36.547  11.552
43613W        W15906  27.570  42.973   2.225
43614W        W15907  20.137  30.623   1.758
43615W        W15908   3.762   4.939   3.718
43616W        W15909  12.362  21.558   1.362
43617W        W15910  40.510   5.872  13.517
43618W        W15911  24.200  21.703   4.814
43619W        W15912  31.478  30.917  12.862
43620W        W15913  13.270   8.256   4.154
43621W        W15914  36.463   9.726  11.889
43622W        W15915  21.738  30.651  13.377
43623W        W15916  44.326  24.081  12.494
43624W        W15917  25.678   7.211   9.929
43625W        W15918  19.244  27.510  12.525
43626W        W15919   9.170  14.253  13.511
43627W        W15920   9.665  16.740  10.499
43628W        W15921  24.705  43.903  11.393
43629W        W15922  42.985  14.694   4.243
43630W        W15923  27.607  43.417   2.791
43631W        W15924  30.526  28.076   1.875
43632W        W15925  33.065   5.331  10.891
43633W        W15926   1.857  34.537   3.805
43634W        W15927  20.123  15.153  12.916
43635W        W15928   0.257   1.764   4.827
43636W        W15929  28.659  11.866  14.009
43637W        W15930  17.583  41.989   4.653
43638W        W15931  33.920  30.626   0.363
43639W        W15932  33.423  36.476   1.935
43640W        W15933  13.221  28.105  11.126
43641W        W15934  22.068  38.378   3.287
43642W        W15935   0.455  34.877  11.532
43643W        W15936  29.592  14.763   0.914
43644W        W15937  20.588   7.824   1.387
43645W        W15938  29.129  40.937   3.853
43646W        W15939  28.492  29.975  11.452
43647W        W15940   0.330  40.884   3.691
43648W        W15941  37.937  31.423  12.868
43649W        W15942  10.768   7.305  10.973
43650W        W15943  12.757  37.947   0.431
43651W        W15944  42.828  11.750   4.654
43652W        W15945  29.105  16.656   1.824
43653W        W15946  13.712  35.976  11.521
43654W        W15947  17.556   3.737  10.592
43655W        W15948  30.449  31.644  14.923
43656W        W15949  41.464  16.593   1.923
43657W        W15950  16.114  37.873  14.365
43658W        W15951  27.961  36.976   1.782
43659W        W15952  11.154  20.166   0.869
43660W        W15953  43.820  44.446  13.026
43661W        W15954   6.856  35.546  10.952
43662W        W15955   3.245  17.738   2.850
43663W        W15956  36.541   2.396   4.695
43664W        W15957  11.131  23.129  12.557
43665W        W15958  38.395   6.334   1.306
43666W        W15959  41.874  24.573   1.346
43667W        W15960  27.626  17.689  12.490
43668W        W15961  43.956  20.694   2.726
43669W        W15962  28.475  42.334  13.315
43670W        W15963  15.288  15.637  12.068
43671W        W15964   4.349  25.192  14.474
43672W        W15965   3.854  18.585  14.906
43673W        W15966  32.610  30.545   1.298
43674W        W15967  32.970  14.719  13.884
43675W        W15968  42.386  43.998  12.836
43676W        W15969  31.144   8.389   0.843
43677W        W15970  39.045  15.773  12.560
43678W        W15971  19.066   5.810  11.398
43679W        W15972  29.585  24.611  12.955
43680W        W15973  30.461  18.262   3.382
43681W        W15974  43.891  35.091   3.208
43682W        W15975  42.915  22.224   0.273
43683W        W15976  17.233  20.636  10.916
43684W        W15977  22.735   9.733   3.284
43685W        W15978   6.200   6.741  13.537
43686W        W15979  21.658  11.214  12.483
43687W        W15980  14.145  11.291  11.129
43688W        W15981  21.753  22.075  13.929
43689W        W15982  11.669  35.512  13.383
43690W        W15983  37.836  15.808   1.847
43691W        W15984  12.650  16.758   4.121
43692W        W15985   8.830  25.570   0.287
43693W        W15986  27.006  32.482   2.293
43694W        W15987  44.343   8.870  14.899
43695W        W15988  23.576  30.476  13.909
43696W        W15989  26.029  39.496   1.762
43697W        W15990   3.340  27.051  14.306
43698W        W15991  31.634  15.129  14.786
43699W        W15992  34.407  34.868   4.765
43700W        W15993  16.256   9.382   4.602
43701W        W15994  18.279  35.933  14.315
43702W        W15995  40.972  32.976  10.961
43703W        W15996  16.082  22.563   0.766
43704W        W15997  21.695   6.398  11.944
43705W        W15998  41.031  24.133   3.705
43706W        W15999  43.348  27.014  11.120
43707W        W16000  15.642  44.821   2.197
43708W        W16001  37.989  42.374   4.232
43709W        W16002  12.697  23.706   1.886
43710W        W16003  23.026  25.586   2.375
43711W        W16004  22.009   6.404   0.965
43712W        W16005  32.504  11.817  14.955
43713W        W16006  12.666  33.910   0.353
43714W        W16007   8.232  33.413   0.884
43715W        W16008  12.623   7.282   1.227
43716W        W16009  44.834  44.410   1.414
43717W        W16010  19.152  43.771   0.857
43718W        W16011  28.984  10.376   3.773
43719W        W16012   8.851   9.384   4.663
43720W        W16013  27.956  23.652   1.231
43721W        W16014  22.998  25.167   2.795
43722W        W16015  28.643  38.979   2.838
43723W        W16016  24.070   7.755   4.697
43724W        W16017  24.063  39.831   1.745
43725W        W16018  44.323  16.290  11.376
43726W        W16019   5.427  28.090  13.005
43727W        W16020  21.546   3.281   4.290
43728W        W16021  25.648   8.330  14.982
43729W        W16022  37.415  25.133  12.027
43730W        W16023  29.139  27.589  12.546
43731W        W16024  27.514  43.977   2.265
43732W        W16025  36.879  27.539   3.271
43733W        W16026  27.106  39.524  13.873
43734W        W16027   0.378  37.434   1.219
43735W        W16028  39.843   7.390  13.410
43736W        W16029  43.953  14.637  12.839
43737W        W16030  27.950  43.781  11.117
43738W        W16031  33.426  15.131   0.793
43739W        W16032  16.103  12.173  14.381
43740W        W16033  10.873  16.765   4.635
43741W        W16034  27.123  22.608  12.949
43742W        W16035  33.492  14.238   3.171
43743W        W16036  40.981   7.857   3.255
43744W        W16037  17.680  29.136  13.946
43745W        W16038  19.282   1.292  11.920
43746W        W16039  24.154  28.674   4.113
43747W        W16040  44.827  28.670  12.049
43748W        W16041  16.168   8.825   4.212
43749W        W16042  10.660  21.675   2.772
43750W        W16043  40.877  11.757  11.427
43751W        W16044  32.451  43.965  13.537
43752W        W16045  20.046  20.115   3.631
43753W        W16046  17.085  33.905  11.972
43754W        W16047   3.739  13.128  11.942
43755W        W16048  21.740  11.675   3.636
43756W        W16049  18.214  34.046  11.600
43757W        W16050  40.842  18.629   0.896
43758W        W16051  12.155   8.687  14.771
43759W        W16052  35.025   5.931   2.679
43760W        W16053  19.706  20.118  14.807
43761W        W16054  28.670  41.528  10.561
43762W        W16055  36.891  38.829  12.482
43763W        W16056  40.482   9.183   4.625
43764W        W16057  28.490  35.921   4.604
43765W        W16058  16.589  13.769  14.822
43766W        W16059  31.974  22.090  14.945
43767W        W16060  33.563  21.045   5.300
43768W        W16061  25.621  16.080   2.221
43769W        W16062  13.246  25.994   4.692
43770W        W16063  20.215  34.553   2.695
43771W        W16064  33.550  41.399   1.440
43772W        W16065  20.165  33.058   5.585
43773W        W16066   0.276  10.228  12.077
43774W        W16067  16.138  32.582  10.996
43775W        W16068  37.952  30.556   0.399
43776W        W16069  32.032   7.251  13.995
43777W        W16070   5.380   9.172   2.275
43778W        W16071  31.596  43.436  11.885
43779W        W16072  42.419  17.305   5.268
43780W        W16073  12.644   3.453   3.718
43781W        W16074  35.461  29.087   1.284
43782W        W16075  31.138  37.365  13.489
43783W        W16076  29.447  10.717  14.412
43784W        W16077   4.724   9.290  10.898
43785W        W16078   3.825  41.417   0.910
43786W        W16079  25.538   1.428  13.539
43787W        W16080   8.300   7.392   0.861
43788W        W16081   7.836  13.602  14.809
43789W        W16082  11.232  21.515   2.815
43790W        W16083  27.669   9.725   3.340
43791W        W16084  16.163  27.041  13.465
43792W        W16085  24.714  26.640  11.425
43793W        W16086  40.895  14.235   2.365
43794W        W16087  34.523  33.056  10.623
43795W        W16088  42.920  16.146   0.878
43796W        W16089  40.986   0.289   3.373
43797W        W16090  32.515  37.520   3.345
43798W        W16091  44.434  14.220   4.713
43799W        W16092  40.540  10.313   0.253
43800W        W16093  17.613  32.016   1.242
43801W        W16094  34.938   6.706   4.115
43802W        W16095  40.322   5.748   2.702
43803W        W16096  23.156  14.159   4.189
43804W        W16097   7.741  35.883  12.009
43805W        W16098  18.091   1.248   3.331
43806W        W16099  37.984  13.816  12.041
43807W        W16100  32.888  26.196  11.073
43808W        W16101  22.746  37.950  14.313
43809W        W16102  12.693  28.930  12.839
43810W        W16103   7.895  22.230  14.015
43811W        W16104  12.319   9.782  11.879
43812W        W16105  24.993   2.741   1.851
43813W        W16106   9.676  31.616  14.809
43814W        W16107  37.371  36.413   1.768
43815W        W16108  42.318  11.180   2.891
43816W        W16109  18.119  20.038   0.735
43817W        W16110  43.296  43.874  14.350
43818W        W16111  31.917   5.352   3.738
43819W        W16112  44.006  34.070   4.716
43820W        W16113  44.296  24.544   1.422
43821W        W16114  11.172   0.922   4.177
43822W        W16115  21.110  27.612   3.357
43823W        W16116  38.000  28.565   0.460
43824W        W16117  13.307  33.486   5.229
43825W        W16118  11.216  36.011   3.745
43826W        W16119  33.596  22.656  11.989
43827W        W16120  19.176  26.611  11.075
43828W        W16121  37.979  12.352   2.383
43829W        W16122  44.875  37.474  11.885
43830W        W16123  10.253  18.218   4.273
43831W        W16124  11.823   8.305   0.837
43832W        W16125  28.500   7.191   1.306
43833W        W16126  27.164   0.487   0.384
43834W        W16127   6.231  14.702  14.462
43835W        W16128  25.639  10.849   3.640
43836W        W16129  44.002  33.560   4.632
43837W        W16130   2.394  36.046   3.634
43838W        W16131   0.969  28.563   0.902
43839W        W16132  12.781  16.792  12.050
43840W        W16133   3.800  11.781  14.022
43841W        W16134   0.765  35.074   4.818
43842W        W16135  23.682   9.853   4.743
43843W        W16136  32.407  35.881  13.319
43844W        W16137   4.306   7.904  12.486
43845W        W16138  20.270  15.273  12.531
43846W        W16139  41.517  28.959   0.910
43847W        W16140   7.863  21.679  14.305
43848W        W16141  12.263  34.413   1.760
43849W        W16142   6.232   1.771   3.670
43850W        W16143  24.554  24.226   4.677
43851W        W16144  30.422   4.837  12.412
43852W        W16145  31.147  41.999   4.335
43853W        W16146  42.311  34.961   3.154
43854W        W16147   1.824  21.653  10.450
43855W        W16148  30.649   6.698   4.797
43856W        W16149  12.257  27.574   4.328
43857W        W16150   4.407  12.172   0.785
43858W        W16151   7.908  26.575   9.940
43859W        W16152  41.874   4.277  11.473
43860W        W16153   7.721  31.024   3.223
43861W        W16154   9.756  21.151   3.375
43862W        W16155  35.905  23.685  12.891
43863W        W16156  44.879  44.323   1.878
43864W        W16157   9.276  26.554   3.786
43865W        W16158  42.477  14.713  14.777
43866W        W16159  36.895  41.963   0.329
43867W        W16160  43.900   0.929   4.670
43868W        W16161  40.425  26.584  12.958
43869W        W16162  41.952   4.441   2.737
43870W        W16163  10.806  25.095  14.890
43871W        W16164  33.020  42.989   2.257
43872W        W16165  14.164  35.578   1.821
43873W        W16166  16.775   2.399   2.287
43874W        W16167  29.039  19.632   4.271
43875W        W16168  24.725  30.655   3.227
43876W        W16169  44.916  14.308   4.682
43877W        W16170  25.549  30.452   2.275
43878W        W16171   9.381  20.219   0.909
43879W        W16172  23.622   2.470   0.935
43880W        W16173  26.049  22.170  10.527
43881W        W16174  42.777   2.905   4.804
43882W        W16175  14.675  44.275   0.258
43883W        W16176  37.871   3.768  11.938
43884W        W16177  20.175   0.436   0.400
43885W        W16178  17.556  38.362   2.298
43886W        W16179  16.722  38.497   2.666
43887W        W16180   4.875  33.894  13.896
43888W        W16181  43.878  34.110  12.525
43889W        W16182  29.469   2.849   2.199
43890W        W16183   6.289  11.763  10.544
43891W        W16184  27.972   8.348  12.016
43892W        W16185  20.250  41.907   3.758
43893W        W16186  33.898  14.275  12.477
43894W        W16187   9.776  27.151   4.131
43895W        W16188  27.101  39.939  12.421
43896W        W16189   8.363  28.184   0.424
43897W        W16190   3.898  37.562   3.184
43898W        W16191  42.904  14.326  10.487
43899W        W16192  13.106  13.105   3.252
43900W        W16193  12.827  28.662  14.907
43901W        W16194  25.691  30.116   2.411
43902W        W16195  12.693   2.758   3.864
43903W        W16196  31.541  24.204  11.093
43904W        W16197  34.498   5.371  14.906
43905W        W16198  37.925  30.436  11.884
43906W        W16199  18.591   7.700   2.324
43907W        W16200   4.362  25.124   0.360
43908W        W16201  38.065  31.417  13.519
43909W        W16202   7.350  10.840   2.275
43910W        W16203  31.505  10.647  10.630
43911W        W16204  26.501  38.057   0.269
43912W        W16205  35.950  24.583   1.860
43913W        W16206  44.494  38.956   1.416
43914W        W16207  39.521   1.941   2.332
43915W        W16208  36.517  37.060   2.713
43916W        W16209  27.652  20.764   2.836
43917W        W16210   7.795  37.409  11.410
43918W        W16211  25.582  27.483  11.091
43919W        W16212  23.525   2.765   1.763
43920W        W16213  27.463  31.091  14.005
43921W        W16214  22.043  15.686   3.850
43922W        W16215  31.049  33.465  10.923
43923W        W16216  23.664  19.241  13.936
43924W        W16217  40.012  22.050   2.763
43925W        W16218   0.943  38.001  14.375
43926W        W16219  30.525  30.639   0.941
43927W        W16220   9.688   9.337   0.249
43928W        W16221  27.189  34.875  13.517
43929W        W16222  27.577  16.304   2.785
43930W        W16223  13.803   3.826   3.846
43931W        W16224  28.935   4.398   0.897
43932W        W16225  22.594  18.127  11.045
43933W        W16226  18.715  25.094  13.333
43934W        W16227  39.047  11.177   0.789
43935W        W16228  18.089  16.805   3.685
43936W        W16229  15.614   6.702  13.854
43937W        W16230  41.374  32.908   1.881
43938W        W16231  30.485  38.903   1.274
43939W        W16232   1.900   0.877  11.486
43940W        W16233  28.047   8.856  10.642
43941W        W16234  40.544  24.976  11.034
43942W        W16235  37.386  32.973   2.727
43943W        W16236  18.611   0.927  11.984
43944W        W16237  14.671  37.354   1.858
43945W        W16238  21.757  31.453  14.013
43946W        W16239  30.638   7.687  11.040
43947W        W16240  41.518  20.044   1.232
43948W        W16241  15.631  36.369   3.147
43949W        W16242  22.602  11.328   4.709
43950W        W16243  12.628  22.561  10.534
43951W        W16244  37.942  13.605  14.277
43952W        W16245  18.690   1.955  11.033
43953W        W16246   6.307   4.302  11.517
43954W        W16247  34.000  26.020  11.481
43955W        W16248   7.254  31.152  12.494
43956W        W16249  27.137   7.749  11.429
43957W        W16250   8.381  20.120   2.218
43958W        W16251  27.494  32.524   1.415
43959W        W16252  13.116   4.270   0.788
43960W        W16253   3.362   5.201   1.789
43961W        W16254  16.756  33.890  13.035
43962W        W16255   2.469   6.354  11.037
43963W        W16256   1.928   8.350  13.341
43964W        W16257   8.169  11.327   2.187
43965W        W16258   0.419  37.855   4.823
43966W        W16259  16.649   4.744   3.754
43967W        W16260  23.734  20.162   1.448
43968W        W16261   3.303  34.922   1.400
43969W        W16262  32.540  28.076   3.384
43970W        W16263  38.418  40.346   4.151
43971W        W16264  32.980  26.058  11.974
43972W        W16265  26.546  17.077  10.460
43973W        W16266  22.088  23.142  11.018
43974W        W16267  16.606  29.625  13.965
43975W        W16268  40.309  32.087  11.541
43976W        W16269  17.157  38.892  14.321
43977W        W16270  13.726  25.698  11.116
43978W        W16271  24.136  24.712  10.632
43979W        W16272  18.284  29.048  14.344
43980W        W16273  11.841  17.121   3.656
43981W        W16274  30.983  36.409  10.978
43982W        W16275  41.814  40.326   1.260
43983W        W16276  28.564  36.542   4.744
43984W        W16277  36.036  23.057   2.352
43985W        W16278   8.794  20.724  14.962
43986W        W16279  27.642  29.640  10.995
43987W        W16280  36.481  20.094   3.213
43988W        W16281  12.195  40.433  12.580
43989W        W16282  33.997  23.016   3.675
43990W        W16283  34.091  22.040   4.683
43991W        W16284  44.261   5.235   0.834
43992W        W16285  30.527  41.416  14.430
43993W        W16286  26.538  23.997   1.918
43994W        W16287  17.287   9.857   2.277
43995W        W16288  40.823  28.537  13.840
43996W        W16289  25.015  27.975   3.206
43997W        W16290   8.721  39.547  11.955
43998W        W16291  20.036   2.356  12.985
43999W        W16292   1.935   2.375   4.627
44000W        W16293   7.224  16.646  14.422
44001W        W16294   1.267  44.818   3.375
44002W        W16295  32.974  23.183  14.399
44003W        W16296  11.811  15.659   4.690
44004W        W16297  34.560  33.914   0.915
44005W        W16298   4.352  43.876  12.475
44006W        W16299   7.707  22.146   0.902
44007W        W16300   4.277  28.999   3.287
44008W        W16301  28.623  31.020  13.028
44009W        W16302   6.882   7.180  12.843
44010W        W16303  11.657  43.407  14.444
44011W        W16304  28.490   5.692   0.852
44012W        W16305   4.833  26.568  13.428
44013W        W16306  33.903  38.511   3.189
44014W        W16307  39.435  13.614   3.869
44015W        W16308  39.010  10.192   3.706
44016W        W16309  11.332   6.303   1.895
44017W        W16310  29.430  34.093   1.407
44018W        W16311  12.788  20.078   1.308
44019W        W16312  35.003  21.708  12.525
44020W        W16313  31.931  22.110  12.905
44021W        W16314  25.132  41.397  13.528
44022W        W16315  22.523   1.950   0.815
44023W        W16316   0.469  36.070   9.439
44024W        W16317  40.836  36.407   1.768
44025W        W16318   6.719  10.804   1.764
44026W        W16319  33.075  32.048  14.375
44027W        W16320  13.256  10.224  14.879
44028W        W16321  17.802  27.648   1.785
44029W        W16322  23.027  41.890   1.770
44030W        W16323  44.872  31.532   2.293
44031W        W16324  24.567  27.586  11.511
44032W        W16325  41.872  13.240  11.378
44033W        W16326  40.443   3.322  12.515
44034W        W16327  23.182  32.982   4.835
44035W        W16328  12.117  21.726   0.726
44036W        W16329  30.015   2.868   1.813
44037W        W16330  14.188   1.380  12.496
44038W        W16331  23.509  25.136  14.417
44039W        W16332  15.229  30.999  12.923
44040W        W16333  13.734  42.336  11.970
44041W        W16334  23.130  35.031  14.332
44042W        W16335   6.870  28.661  10.535
44043W        W16336  12.652  29.141   4.651
44044W        W16337   5.820  18.102  11.927
44045W        W16338   7.369  41.907   4.827
44046W        W16339  33.394  23.573   9.958
44047W        W16340  44.997   9.696   1.410
44048W        W16341  10.348   5.374  13.855
44049W        W16342  21.549   6.191   1.784
44050W        W16343  34.904  36.564  12.069
44051W        W16344  41.406   9.717   3.665
44052W        W16345  20.593   3.901   2.882
44053W        W16346  34.989  41.426   1.931
44054W        W16347  19.719   5.824  10.452
44055W        W16348  22.081  16.647  14.516
44056W        W16349  42.485  27.603  11.521
44057W        W16350   7.206   5.722  12.850
44058W        W16351  13.611  19.660  13.326
44059W        W16352  24.028   0.895   4.789
44060W        W16353  28.557   4.359   3.241
44061W        W16354  37.902  29.955   2.378
44062W        W16355  10.347  18.569   2.725
44063W        W16356  22.527  28.564  10.955
44064W        W16357   1.274  43.809   3.183
44065W        W16358  23.577  33.922  13.476
44066W        W16359   7.334  34.497  11.056
44067W        W16360  43.400  34.428   3.667
44068W        W16361   6.234   4.770   4.670
44069W        W16362   7.333  21.086   1.282
44070W        W16363  34.602  44.326  14.421
44071W        W16364  41.948  44.442   1.393
44072W        W16365   1.402   8.757   3.372
44073W        W16366  17.725   6.416  11.380
44074W        W16367   9.303  24.987  13.482
44075W        W16368  33.610  28.586  12.019
44076W        W16369  24.200  24.134  12.012
44077W        W16370  10.225   0.446  11.459
44078W        W16371  11.718  22.077  11.451
44079W        W16372  29.491   4.881   1.397
44080W        W16373  31.618  44.942   3.183
44081W        W16374   5.905  20.765  13.879
44082W        W16375  40.317  38.048   1.433
44083W        W16376  41.867  43.007   1.756
44084W        W16377  18.581  19.606   4.162
44085W        W16378   9.745  25.987   3.732
44086W        W16379  15.162   6.246  11.511
44087W        W16380  35.872  39.519  11.571
44088W        W16381  25.514  25.671   4.638
44089W        W16382  13.684  25.568   0.885
44090W        W16383   9.693  42.438  12.911
44091W        W16384   1.840   5.741  13.797
44092W        W16385  17.635   6.274  12.953
44093W        W16386  44.368  35.522   1.341
44094W        W16387  39.452  39.545   1.298
44095W        W16388  16.241  12.811  11.989
44096W        W16389   0.393   8.694  11.921
44097W        W16390  18.707   6.248  12.432
44098W        W16391  38.929  35.482  14.340
44099W        W16392  33.028   6.278   2.803
44100W        W16393  35.895  36.002  12.850
44101W        W16394  44.349  19.285   2.691
44102W        W16395  25.006  34.515   4.626
44103W        W16396   8.821  23.708  12.885
44104W        W16397   4.426   6.211   1.360
44105W        W16398  37.838  22.071  10.983
44106W        W16399   1.892  35.076  10.988
44107W        W16400  42.440  27.078   4.254
44108W        W16401  25.027  27.023   1.345
44109W        W16402   0.854  39.868  11.535
44110W        W16403   7.241   0.967   4.662
44111W        W16404   8.658  25.082  10.095
44112W        W16405  18.292  38.341  12.364
44113W        W16406   5.370   6.685   4.270
44114W        W16407  36.461   6.339  13.031
44115W        W16408  34.548  32.409  14.937
44116W        W16409  43.314  15.637  12.534
44117W        W16410  29.149  19.233   1.797
44118W        W16411  43.798  14.114  14.855
44119W        W16412  35.854  39.541   3.180
44120W        W16413   8.363  32.527  14.377
44121W        W16414   6.391   6.906  11.537
44122W        W16415  15.697   2.913  13.986
44123W        W16416  41.020   2.264  14.327
44124W        W16417  36.525  26.997   1.839
44125W        W16418  18.292   0.253  14.487
44126W        W16419  38.828  29.470  14.365
44127W        W16420   9.359   6.288  12.492
44128W        W16421  37.976  23.160  13.799
44129W        W16422   7.788  36.577  10.419
44130W        W16423  32.960  20.570   4.241
44131W        W16424  19.658  34.911  11.065
44132W        W16425   8.377  32.135  11.997
44133W        W16426  28.675  15.300   0.435
44134W        W16427  13.271  40.375  12.961
44135W        W16428  34.439   6.812   1.302
44136W        W16429   7.174  43.503  13.991
44137W        W16430   2.357  30.460   5.168
44138W        W16431  43.300  39.353  13.865
44139W        W16432  19.613  34.977   0.424
44140W        W16433  34.511   0.965   4.353
44141W        W16434  19.675  41.008  13.403
44142W        W16435  19.194  20.734   3.857
44143W        W16436  23.013  41.524   2.862
44144W        W16437  33.548  42.415  14.024
44145W        W16438  40.371   3.817   3.811
44146W        W16439  43.399  44.451   4.323
44147W        W16440  15.278   9.203   4.626
44148W        W16441   9.680   7.356   3.791
44149W        W16442  31.409  29.440  13.865
44150W        W16443  13.656  36.522  11.610
44151W        W16444  19.248  40.857  11.983
44152W        W16445  18.062  39.520   3.840
44153W        W16446   6.713   9.192   3.214
44154W        W16447  17.233   3.773  14.822
44155W        W16448  20.255  44.423   1.391
44156W        W16449  27.560  36.918   4.250
44157W        W16450  38.905  25.060   3.762
44158W        W16451  24.630  15.698  12.837
44159W        W16452  24.092  39.422   2.758
44160W        W16453  14.816  16.316  14.295
44161W        W16454  24.024  21.093  10.512
44162W        W16455  29.455  40.997  10.549
44163W        W16456   6.202  35.427  14.313
44164W        W16457  10.725  16.593   0.907
44165W        W16458  23.992  17.304  14.488
44166W        W16459  29.467  36.013  12.522
44167W        W16460   6.728  16.708  14.903
44168W        W16461  27.174   0.272   2.394
44169W        W16462  12.310  27.588  14.011
44170W        W16463  15.635  31.622   0.912
44171W        W16464   4.330  44.321   2.183
44172W        W16465   3.896  41.868  10.900
44173W        W16466  37.523  35.080  11.068
44174W        W16467  38.420  25.035   1.882
44175W        W16468  10.727  37.371   1.407
44176W        W16469  37.907   3.393   4.270
44177W        W16470  21.664   6.819   0.308
44178W        W16471   8.338  41.450  13.420
44179W        W16472  32.552  33.479   2.289
44180W        W16473  23.506  27.464   3.282
44181W        W16474  11.227  39.900  12.514
44182W        W16475  44.902  19.281   3.315
44183W        W16476  39.419  26.558   4.833
44184W        W16477   8.701   7.222  11.989
44185W        W16478  34.017  34.883  14.797
44186W        W16479  32.392  22.508  11.430
44187W        W16480  36.922  38.500   2.408
44188W        W16481  21.193  41.975  11.114
44189W        W16482  35.944  34.953  13.866
44190W        W16483   3.285  21.688  12.082
44191W        W16484  41.302  25.145  13.926
44192W        W16485  11.348   1.372   1.356
44193W        W16486   3.373  17.684   1.382
44194W        W16487  26.658  37.419   3.856
44195W        W16488   1.328  13.323  11.125
44196W        W16489  16.129   7.794  13.406
44197W        W16490  17.154  18.175  13.835
44198W        W16491  21.558  28.134  12.928
44199W        W16492  37.030  27.637  13.446
44200W        W16493  40.391  44.815  13.968
44201W        W16494  19.184   6.879  11.864
44202W        W16495  17.771  27.562  12.465
44203W        W16496  28.540   1.291   1.749
44204W        W16497   0.803  10.358  13.864
44205W        W16498  29.660  12.329  14.345
44206W        W16499   9.326  14.104  11.610
44207W        W16500  40.442   4.885   1.699
44208W        W16501  43.908  30.042  13.040
44209W        W16502   5.875  34.878   9.554
44210W        W16503   7.293  39.358  13.538
44211W        W16504  30.477  16.289   0.299
44212W        W16505  17.563  11.684   2.335
44213W        W16506  40.512  15.137   3.839
44214W        W16507   0.327  44.783  11.876
44215W        W16508  26.490   3.343   4.697
44216W        W16509  39.393  40.384  14.462
44217W        W16510  35.956  10.363  14.369
44218W        W16511  11.703  14.739  11.874
44219W        W16512   6.909  44.463   0.430
44220W        W16513  36.920  31.023   4.775
44221W        W16514  10.140  13.602  10.905
44222W        W16515  30.984  20.609   3.843
44223W        W16516   5.385  36.384   3.373
44224W        W16517  30.505   4.212   0.904
44225W        W16518  25.217   7.768   0.960
44226W        W16519  11.672   9.706   3.678
44227W        W16520  10.779  41.385  12.963
44228W        W16521   0.441   2.895   3.286
44229W        W16522  14.602  16.660  10.531
44230W        W16523  31.552  39.412   0.781
44231W        W16524  31.579  12.153  14.942
44232W        W16525  31.499  33.893   1.280
44233W        W16526  15.223  31.494  13.522
44234W        W16527   4.381  26.616  13.875
44235W        W16528  19.752  13.781  14.942
44236W        W16529  37.929  41.395   0.407
44237W        W16530  15.779   3.312   3.644
44238W        W16531  16.578  20.063  10.529
44239W        W16532  30.494  35.358   2.193
44240W        W16533  43.291  34.468   9.473
44241W        W16534  13.246   6.799  12.091
44242W        W16535  32.512  27.539  13.801
44243W        W16536  23.626  38.967   4.315
44244W        W16537  41.351  24.209  11.075
44245W        W16538  44.295  40.338  12.421
44246W        W16539  14.821  42.010  14.307
44247W        W16540  27.497   4.711  10.426
44248W        W16541  24.616   7.858  10.919
44249W        W16542  44.266  30.056   1.787
44250W        W16543  38.955  39.449   1.406
44251W        W16544   2.779  11.150  10.934
44252W        W16545  33.100  16.229  10.889
44253W        W16546  41.318  17.186  10.592
44254W        W16547  22.708  30.436   0.431
44255W        W16548  36.046  11.162   0.922
44256W        W16549  40.477  19.100  12.486
44257W        W16550   9.782  22.578   1.703
44258W        W16551   2.376  12.626   1.359
44259W        W16552   2.767  36.397   1.871
44260W        W16553  22.727  31.417   2.699
44261W        W16554  12.738   5.404   2.419
44262W        W16555  40.005  21.085   4.299
44263W        W16556  35.410   4.766  12.412
44264W        W16557  12.635  31.049   2.374
44265W        W16558  27.151  37.388  12.360
44266W        W16559  20.563  18.249  14.004
44267W        W16560  39.931  11.325   3.204
44268W        W16561   8.792  15.714  11.559
44269W        W16562  24.530  20.172  13.797
44270W        W16563  39.347   4.893  13.308
44271W        W16564  32.445  36.568   0.931
44272W        W16565  22.511  37.011  10.941
44273W        W16566  40.524  31.602   0.416
44274W        W16567  35.398  38.418  12.847
44275W        W16568  18.653  36.414   0.344
44276W        W16569  24.674  13.844  11.113
44277W        W16570   0.886  43.300   1.711
44278W        W16571  20.626   2.837  14.873
44279W        W16572  29.466  35.521   4.136
44280W        W16573  19.550  14.827   4.676
44281W        W16574  44.315  42.362  10.433
44282W        W16575  25.115  22.139  14.388
44283W        W16576   2.392   8.288   1.866
44284W        W16577  34.970   2.404  12.478
44285W        W16578  32.457  42.403  14.847
44286W        W16579   1.277  29.483   0.786
44287W        W16580  13.659  28.173   3.815
44288W        W16581  32.983  41.842  10.523
44289W        W16582  15.732   9.387  12.095
44290W        W16583  31.929  37.011  13.311
44291W        W16584  32.130  44.306  14.478
44292W        W16585  11.200  28.532  14.974
44293W        W16586  41.030  25.145   3.841
44294W        W16587  17.183  14.770  13.350
44295W        W16588  39.544  44.857   0.938
44296W        W16589  10.275  24.687   4.769
44297W        W16590  28.643   8.684  11.963
44298W        W16591  23.574   1.766   0.729
44299W        W16592  43.270   1.308  11.536
44300W        W16593   0.337  25.624  12.502
44301W        W16594  31.476   6.213   2.349
44302W        W16595  17.158   5.261   2.861
44303W        W16596   4.259  24.596   0.936
44304W        W16597  10.220  37.489  13.931
44305W        W16598  29.110  36.079   3.147
44306W        W16599  37.553  11.337   3.261
44307W        W16600  13.605   5.284   3.236
44308W        W16601  32.922   7.784   3.234
44309W        W16602  25.527   6.338  11.568
44310W        W16603  11.297   4.394   0.429
44311W        W16604   9.748  21.618  12.391
44312W        W16605  18.754  16.248   2.846
44313W        W16606  26.549   0.987   3.786
44314W        W16607  40.347  40.912   3.193
44315W        W16608  43.488  19.672   2.706
44316W        W16609   0.761  44.470   5.130
44317W        W16610  24.481   2.918  14.779
44318W        W16611  18.210  22.136  12.423
44319W        W16612  35.450  24.547   3.870
44320W        W16613  43.511  44.417  11.495
44321W        W16614  32.547  19.718   1.293
44322W        W16615  37.082   3.932  13.446
44323W        W16616  10.383  13.321  13.914
44324W        W16617   2.286  23.094  12.350
44325W        W16618  39.874  30.968  12.059
44326W        W16619  14.310  16.789   4.277
44327W        W16620  25.533  21.616  11.071
44328W        W16621  32.032  36.917   3.689
44329W        W16622   6.266  35.106  14.960
44330W        W16623  21.639  31.981   5.796
44331W        W16624  43.280  33.917  13.320
44332W        W16625   2.362  35.961  12.387
44333W        W16626  31.912   0.932   1.906
44334W        W16627  19.217  30.082   0.428
44335W        W16628  29.534  24.047   4.200
44336W        W16629  28.485  36.407   2.717
44337W        W16630  11.351  28.571   2.747
44338W        W16631  17.736  12.258   2.886
44339W        W16632  15.748  24.068  13.540
44340W        W16633  10.760  42.889   1.826
44341W        W16634  35.906  43.308  14.282
44342W        W16635  38.030  35.373  10.443
44343W        W16636   8.390   7.316   4.719
44344W        W16637  17.165  15.592   4.691
44345W        W16638   9.772  14.630  14.378
44346W        W16639  40.315  31.473  11.422
44347W        W16640  33.874  29.626  12.847
44348W        W16641  10.269  43.984  13.468
44349W        W16642  43.422  17.201  11.981
44350W        W16643  28.970  14.627   2.704
44351W        W16644  42.805  41.537   0.252
44352W        W16645   8.342  38.997   2.676
44353W        W16646  35.541   3.800  13.860
44354W        W16647  32.912  43.957   4.176
44355W        W16648  26.208  42.433  13.832
44356W        W16649  15.694   8.397  12.554
44357W        W16650  16.697  24.636  11.993
44358W        W16651  44.874  31.476   3.218
44359W        W16652  26.125   5.876   0.754
44360W        W16653   9.762  39.851   3.150
44361W        W16654   1.330  16.157   3.276
44362W        W16655  17.707   9.182  14.991
44363W        W16656  34.998  31.910  13.823
44364W        W16657   0.779   5.377  14.470
44365W        W16658  18.091  25.555   2.258
44366W        W16659  14.692  27.946  11.079
44367W        W16660  33.012  15.670  10.469
44368W        W16661  18.612  23.650   4.158
44369W        W16662  31.619  12.750   4.322
44370W        W16663   1.449   1.443  14.471
44371W        W16664  38.495  31.484  11.068
44372W        W16665  18.609  20.710   4.281
44373W        W16666  11.351   2.757   4.696
44374W        W16667  26.989  11.630   4.351
44375W        W16668  28.942  18.551   0.919
44376W        W16669  20.541   8.828  12.012
44377W        W16670  43.274  19.166  12.046
44378W        W16671  33.913  39.934   2.233
44379W        W16672   6.869   0.327   4.819
44380W        W16673  18.602   2.770   1.405
44381W        W16674  33.089  33.423   1.877
44382W        W16675  17.237  28.668  11.425
44383W        W16676  40.442  30.653  13.882
44384W        W16677   1.428  21.585  13.328
44385W        W16678   3.945  28.489  12.476
44386W        W16679  15.590  27.540   2.729
44387W        W16680  40.988  31.501  11.413
44388W        W16681   9.302  16.732   1.906
44389W        W16682   1.448   1.809  11.487
44390W        W16683  43.957  12.136   1.315
44391W        W16684   7.348  26.659  12.071
44392W        W16685  21.705  36.017   0.383
44393W        W16686   7.848  31.554   4.636
44394W        W16687  15.100  15.788  12.840
44395W        W16688  23.170  35.903   4.122
44396W        W16689  13.236  16.583  11.897
44397W        W16690   2.276  36.983  12.542
44398W        W16691  40.834  41.304   4.253
44399W        W16692  43.485  21.529  12.834
44400W        W16693  19.071   9.848  14.276
44401W        W16694   2.921  10.163   0.405
44402W        W16695  44.789  41.511  14.297
44403W        W16696  31.589  18.266   3.738
44404W        W16697  10.229  10.670   4.655
44405W        W16698   2.439  30.470   9.997
44406W        W16699  42.484  38.341  12.406
44407W        W16700  32.009  39.055   1.911
44408W        W16701  38.417  36.878  14.280
44409W        W16702  26.690  35.063  10.447
44410W        W16703  16.290  24.101  12.976
44411W        W16704  23.582  35.521   1.885
44412W        W16705   3.242  36.462   1.306
44413W        W16706  12.620  11.634   4.166
44414W        W16707  21.607   5.906   4.640
44415W        W16708  43.302  36.964  14.013
44416W        W16709  35.876  38.325  14.413
44417W        W16710  42.997  28.138   3.783
44418W        W16711   4.450   6.897   1.816
44419W        W16712  41.878   1.342   3.864
44420W        W16713  40.943  33.441  12.836
44421W        W16714  28.135   4.308  14.760
44422W        W16715  14.169  20.140  13.794
44423W        W16716  25.677  35.975  10.427
44424W        W16717   8.222  28.160   3.766
44425W        W16718  22.534   0.271  14.382
44426W        W16719  28.143   1.325   0.402
44427W        W16720  37.908  44.974  11.011
44428W        W16721  24.120  37.952   1.740
44429W        W16722  27.182  13.222   0.905
44430W        W16723  27.485  40.500  13.902
44431W        W16724  21.255   6.692  10.404
44432W        W16725  41.421   5.423  12.396
44433W        W16726  19.645  11.713  13.001
44434W        W16727  43.486   4.239   4.141
44435W        W16728  28.038  16.219  12.944
44436W        W16729  19.154   8.261  14.840
44437W        W16730  37.941  12.634   3.172
44438W        W16731  37.487  17.215  11.116
44439W        W16732  27.474  23.009  13.400
44440W        W16733  41.958  23.089  14.474
44441W        W16734   1.324  31.417   0.941
44442W        W16735  27.504  21.702   3.810
44443W        W16736   4.934  41.508  14.978
44444W        W16737  16.807  26.148   4.250
44445W        W16738  38.993  29.019  11.043
44446W        W16739   0.971  10.313  12.976
44447W        W16740  30.139  31.643  10.999
44448W        W16741  25.549   8.676   4.714
44449W        W16742  31.425  29.091  14.009
44450W        W16743  11.339  23.682  12.835
44451W        W16744   7.745   6.713   2.713
44452W        W16745  36.513  14.156   4.605
44453W        W16746  19.147  23.094  14.806
44454W        W16747  20.077  10.227   0.292
44455W        W16748  18.082  26.977  14.870
44456W        W16749  19.594  29.627   1.233
44457W        W16750  43.422  25.711   1.342
44458W        W16751  14.598   3.333   0.765
44459W        W16752  26.102   3.917   4.714
44460W        W16753  26.974  18.228   4.202
44461W        W16754  16.743   8.226  13.435
44462W        W16755   8.817  13.723   4.658
44463W        W16756  18.143  24.162  11.533
44464W        W16757  19.189  28.515   1.738
44465W        W16758  32.952  25.092   3.273
44466W        W16759  36.459   7.810   0.790
44467W        W16760  14.669  12.734   4.764
44468W        W16761  11.826  44.843   3.758
44469W        W16762  30.151   4.265  13.011
44470W        W16763  43.827  24.991  12.865
44471W        W16764  36.400  29.467   2.867
44472W        W16765  19.652  23.608   0.435
44473W        W16766  14.642   7.741   1.926
44474W        W16767  25.523  36.859   4.674
44475W        W16768   3.789  25.513   3.771
44476W        W16769  34.430  11.704   1.891
44477W        W16770   9.656  20.570   1.279
44478W        W16771  29.126   2.943  13.444
44479W        W16772  27.503  23.520  11.092
44480W        W16773   5.739  39.032  14.483
44481W        W16774  18.574  14.310   5.125
44482W        W16775  11.358  32.993   0.274
44483W        W16776  39.415  25.113  11.558
44484W        W16777  23.111  39.035   0.961
44485W        W16778   2.846   0.911  10.475
44486W        W16779  28.067  18.757  14.466
44487W        W16780  25.152  34.945   2.759
44488W        W16781  36.503  42.824  10.633
44489W        W16782  43.312  25.632  14.015
44490W        W16783   9.176   0.472   3.849
44491W        W16784  18.589   6.284   2.834
44492W        W16785  23.095  21.238  12.867
44493W        W16786  23.995  26.997   4.674
44494W        W16787  41.836  44.361  12.059
44495W        W16788  12.613  35.946  14.511
44496W        W16789  42.935  37.500  11.047
44497W        W16790  28.023  20.157   4.248
44498W        W16791  28.126  31.085   1.916
44499W        W16792  23.727  18.205  11.908
44500W        W16793  18.661  21.099   2.313
44501W        W16794  42.482  13.707   2.413
44502W        W16795  12.161  24.610  12.368
44503W        W16796  30.524  32.924   0.405
44504W        W16797  10.165   0.265  13.045
44505W        W16798   2.434  12.344  13.344
44506W        W16799  28.500  41.473  14.009
44507W        W16800  43.776  43.446   1.370
44508W        W16801  30.099  22.105   9.444
44509W        W16802  33.475  16.614   0.944
44510W        W16803  40.045  38.985   3.305
44511W        W16804   3.874  38.513   3.232
44512W        W16805   0.421  44.008  10.569
44513W        W16806  30.040  36.943  10.915
44514W        W16807  27.648  32.592  11.868
44515W        W16808   4.717   7.282  13.518
44516W        W16809  43.824  23.518   4.688
44517W        W16810   4.391  38.445   4.839
44518W        W16811  41.970  43.335  12.414
44519W        W16812  18.731   2.878  11.404
44520W        W16813   8.674  43.339   3.685
44521W        W16814  27.459   8.325  10.606
44522W        W16815   0.917  13.210   3.681
44523W        W16816  30.944   1.353   0.272
44524W        W16817  30.094  28.623  12.878
44525W        W16818   3.409  12.226  11.430
44526W        W16819   2.386   4.258   4.789
44527W        W16820  33.517  39.846   4.628
44528W        W16821  25.024  25.678  12.492
44529W        W16822  22.234  29.944  12.899
44530W        W16823  10.282  41.457  14.950
44531W        W16824   6.681  33.059   2.729
44532W        W16825  19.573  10.364  10.534
44533W        W16826   6.918  39.445  11.032
44534W        W16827  20.088  31.914   0.290
44535W        W16828  23.571  14.647   0.778
44536W        W16829  13.705  24.980   1.253
44537W        W16830  16.256  31.109  10.956
44538W        W16831   1.313  25.703  13.808
44539W        W16832  25.209   9.348   0.952
44540W        W16833  38.468   7.215   1.381
44541W        W16834   0.271  38.983  14.325
44542W        W16835   1.945   8.849   3.151
44543W        W16836  20.127   4.410  12.498
44544W        W16837  19.722  29.967  14.510
44545W        W16838  21.062  43.775  12.057
44546W        W16839  35.906   2.768   1.296
44547W        W16840  23.147  42.428   3.351
44548W        W16841  30.617  35.939  13.375
44549W        W16842   1.462  31.918  14.503
44550W        W16843  21.078  43.000   3.704
44551W        W16844  41.882  17.725  14.439
44552W        W16845   2.383   4.409   3.251
44553W        W16846  24.145  41.301  11.046
44554W        W16847  12.763  31.427   1.244
44555W        W16848  35.580  33.040  10.915
44556W        W16849  30.095   3.272  11.383
44557W        W16850   7.350  25.539   2.866
44558W        W16851  43.002  16.268  10.950
44559W        W16852  21.158  17.101  10.517
44560W        W16853  28.999  10.875   4.166
44561W        W16854   4.428  43.911  10.416
44562W        W16855   3.830  26.129  11.924
44563W        W16856  32.050  13.831   3.240
44564W        W16857  20.187   5.330  14.797
44565W        W16858  44.940  40.880  11.044
44566W        W16859  18.762  14.592   3.194
44567W        W16860   2.466  18.116   3.684
44568W        W16861  10.213  17.150   1.224
44569W        W16862   2.902  14.223  13.435
44570W        W16863  38.035  40.923   3.361
44571W        W16864   5.326  21.707  13.343
44572W        W16865  40.429   2.744   1.721
44573W        W16866  29.600  38.493  14.344
44574W        W16867   5.758  15.145  11.452
44575W        W16868  24.575  34.111  14.924
44576W        W16869   3.752  37.024   3.236
44577W        W16870   0.362   7.337   2.786
44578W        W16871   1.328  27.024  13.546
44579W        W16872  24.519  32.999  14.462
44580W        W16873  37.018   3.410   2.207
44581W        W16874  23.235  37.387  14.463
44582W        W16875  17.604   8.732  11.507
44583W        W16876  15.300  27.135   2.761
44584W        W16877  32.449  40.312  12.994
44585W        W16878  38.462   1.962  13.514
44586W        W16879  14.208  22.074   0.965
44587W        W16880   2.469  30.970  11.042
44588W        W16881   8.814  37.578  10.903
44589W        W16882  43.000  35.448   1.304
44590W        W16883   2.433  27.065  11.445
44591W        W16884  31.490   7.834   2.802
44592W        W16885  24.516  34.485   3.340
44593W        W16886   9.651  34.055   3.385
44594W        W16887  11.765  10.356   2.762
44595W        W16888  10.255  37.424  14.795
44596W        W16889  10.661  10.157  11.036
44597W        W16890  40.920   4.907   0.264
44598W        W16891   3.336   0.463   3.714
44599W        W16892  20.652   9.698  14.787
44600W        W16893  28.995  28.489   1.891
44601W        W16894  32.958   8.201   1.295
44602W        W16895  13.155  19.253  13.047
44603W        W16896  27.622   7.368   2.788
44604W        W16897  19.084   9.789   4.687
44605W        W16898  25.472  17.226  11.444
44606W        W16899  29.475  30.438   0.894
44607W        W16900  26.077  19.683  13.402
44608W        W16901  38.949  12.817   1.310
44609W        W16902   4.814   7.846   4.599
44610W        W16903  26.981  27.576  14.336
44611W        W16904  19.213  19.208   3.858
44612W        W16905  12.239  43.447  12.462
44613W        W16906  32.540  31.044  12.533
44614W        W16907   3.229  39.368   3.199
44615W        W16908  43.492  21.640   4.779
44616W        W16909   8.829   3.869   4.770
44617W        W16910   2.858  42.926  13.333
44618W        W16911  32.139  43.326  12.430
44619W        W16912  42.916  11.293  13.388
44620W        W16913  21.124  11.660  14.010
44621W        W16914   0.274  32.436   3.667
44622W        W16915  21.547  30.953   1.908
44623W        W16916  35.940  20.666   4.239
44624W        W16917  11.818   2.826  11.890
44625W        W16918  15.712  15.285  13.960
44626W        W16919  24.002   4.383   0.798
44627W        W16920  10.368  19.250  12.341
44628W        W16921  20.108  19.242   3.273
44629W        W16922  21.708   7.788   2.192
44630W        W16923  14.322   7.843   3.328
44631W        W16924  31.153   4.760  12.904
44632W        W16925   2.462  29.643  10.640
44633W        W16926  30.089  40.491  13.011
44634W        W16927  18.589  26.961  10.475
44635W        W16928   1.938   8.296  12.480
44636W        W16929  37.466   3.852   3.640
44637W        W16930  10.780  34.104  12.029
44638W        W16931  30.446  43.807  14.382
44639W        W16932  25.654  36.491   2.280
44640W        W16933  40.919  35.410   2.877
44641W        W16934  41.899  22.025   3.801
44642W        W16935  40.426  44.426   0.883
44643W        W16936  44.450  18.756  10.014
44644W        W16937  37.867  35.861  14.013
44645W        W16938  24.088   0.442  10.485
44646W        W16939  26.036  24.995  14.511
44647W        W16940   0.467  28.055   0.859
44648W        W16941  23.628  14.245  14.440
44649W        W16942   1.280  32.411   3.222
44650W        W16943  16.173  13.350  11.988
44651W        W16944  44.915  27.194   1.736
44652W        W16945   1.944  37.831   3.195
44653W        W16946  10.159  20.230  11.995
44654W        W16947  24.083  10.359   0.917
44655W        W16948  19.707  20.725   2.725
44656W        W16949  26.173   3.253  13.488
44657W        W16950  43.495  38.508   4.672
44658W        W16951  21.750  24.017  11.860
44659W        W16952   9.794  23.052   4.685
44660W        W16953  35.071  15.703  13.381
44661W        W16954  27.621   3.919   3.835
44662W        W16955  35.581  27.630   3.220
44663W        W16956   1.392  42.808   2.732
44664W        W16957  24.216   4.229  11.013
44665W        W16958  11.728  30.485   3.643
44666W        W16959  43.016  28.947  12.568
44667W        W16960  10.783  31.500   4.324
44668W        W16961  42.515  24.561   1.767
44669W        W16962  13.303  12.807  12.507
44670W        W16963  24.529  23.155  11.923
44671W        W16964   5.424  11.821  13.359
44672W        W16965  36.355  23.700  14.394
44673W        W16966   5.359  41.467  10.470
44674W        W16967  38.501  27.183   2.287
44675W        W16968  35.427  42.005   1.439
44676W        W16969  20.215  21.693  14.022
44677W        W16970   1.946  21.583   4.141
44678W        W16971  30.441  12.339   0.449
44679W        W16972   2.390  38.872   1.743
44680W        W16973  38.835  15.773   4.727
44681W        W16974  15.313  36.003  12.065
44682W        W16975  10.356  12.186   1.352
44683W        W16976  32.113  16.649   2.674
44684W        W16977  39.946   9.228  14.785
44685W        W16978  13.654   8.899  11.064
44686W        W16979  43.832  22.567  12.001
44687W        W16980  39.381   3.913  11.505
44688W        W16981   0.428   2.908   3.850
44689W        W16982  23.492  31.935   1.763
44690W        W16983  16.230   3.804   3.711
44691W        W16984  21.701  43.409   4.834
44692W        W16985   7.773  43.806  12.424
44693W        W16986  41.471  17.083  14.884
44694W        W16987   4.273  17.230   0.350
44695W        W16988  36.967  21.113   5.244
44696W        W16989   5.267  42.846   3.630
44697W        W16990  21.196  29.658  14.824
44698W        W16991  25.599  10.293  14.349
44699W        W16992   3.762  33.450  12.832
44700W        W16993  40.460  25.563  11.567
44701W        W16994  17.586  40.950   1.325
44702W        W16995  16.159  37.485   1.288
44703W        W16996   4.803  20.205  11.386
44704W        W16997  42.958   1.824  12.444
44705W        W16998  18.187  38.551  13.928
44706W        W16999  13.772  27.560   0.747
44707W        W17000   5.401   9.362  11.991
44708W        W17001  26.551  40.460  14.284
44709W        W17002   2.255  14.323  11.381
44710W        W17003  26.519  22.084  13.900
44711W        W17004   1.303   2.246   2.898
44712W        W17005   3.368  12.276   2.903
44713W        W17006   5.305  15.123  11.483
44714W        W17007  36.080  41.458  14.313
44715W        W17008   7.274   4.743  10.554
44716W        W17009  27.459  41.355   4.123
44717W        W17010  19.087  20.559   3.219
44718W        W17011  12.746  43.937   1.230
44719W        W17012   8.286   1.957   0.821
44720W        W17013  38.524  25.682  13.474
44721W        W17014  13.795  37.036   3.830
44722W        W17015  20.576  12.315   0.404
44723W        W17016  42.000  14.762   2.279
44724W        W17017  29.466   0.785   4.127
44725W        W17018  31.963   3.302   0.335
44726W        W17019  10.290  37.035   0.915
44727W        W17020  42.405   0.484   4.298
44728W        W17021  42.299  11.825  13.405
44729W        W17022  36.953   8.348   0.931
44730W        W17023  43.344  18.738  13.827
44731W        W17024  18.663  18.202   0.397
44732W        W17025  16.571  32.037  13.520
44733W        W17026  22.583  33.565  13.795
44734W        W17027   1.812  39.488   2.853
44735W        W17028  17.116  33.514   0.445
44736W        W17029  39.883  24.564   4.776
44737W        W17030  43.352  33.463  10.579
44738W        W17031  30.458   9.848   5.117
44739W        W17032  39.828   5.262  12.574
44740W        W17033  42.360  38.049   1.327
44741W        W17034  10.846   7.233  10.530
44742W        W17035  12.347  10.226  13.986
44743W        W17036  42.307   2.381   2.867
44744W        W17037   5.422  29.119   0.483
44745W        W17038  33.586  42.434  11.103
44746W        W17039  15.172  30.159  11.917
44747W        W17040  23.042  24.075   4.233
44748W        W17041  43.878  24.723   1.373
44749W        W17042  26.201  14.628   3.846
44750W        W17043  26.689   8.214   1.751
44751W        W17044  40.042  11.723  14.817
44752W        W17045  12.236  22.677   4.217
44753W        W17046  37.564  13.731  14.406
44754W        W17047   5.740  28.662  13.870
44755W        W17048  44.440  33.091  13.947
44756W        W17049   2.947   6.915   0.773
44757W        W17050  28.503   3.882  12.361
44758W        W17051  28.458  13.187   4.115
44759W        W17052  36.544   7.667   2.790
44760W        W17053  21.075  28.006   1.772
44761W        W17054  44.367  17.597  14.451
44762W        W17055  32.578  40.498   4.710
44763W        W17056  35.890  42.920   0.387
44764W        W17057  37.511  24.617  11.397
44765W        W17058   3.257  33.622   3.772
44766W        W17059  42.812  37.372  14.944
44767W        W17060   3.289  38.002   0.790
44768W        W17061   4.928  37.459   0.381
44769W        W17062  21.112  29.939  12.518
44770W        W17063  15.624  20.046   4.207
44771W        W17064   7.194  21.585   3.221
44772W        W17065  31.986  29.104  10.038
44773W        W17066  40.958   4.258  13.973
44774W        W17067  30.576  17.771   1.265
44775W        W17068   8.777   1.273   4.778
44776W        W17069  23.068  16.234   4.804
44777W        W17070   9.296  19.764   1.847
44778W        W17071  12.255   5.688  11.052
44779W        W17072  32.026  39.858   3.307
44780W        W17073   4.275  17.131   4.681
44781W        W17074  24.104  21.667  11.935
44782W        W17075  19.724  16.214   2.326
44783W        W17076  17.792  17.300   0.830
44784W        W17077  14.714  41.912  11.076
44785W        W17078  21.156   7.747   1.350
44786W        W17079  14.621   9.827  12.875
44787W        W17080  18.652   9.188  12.910
44788W        W17081   9.691  18.075  12.516
44789W        W17082  11.797  25.534   2.842
44790W        W17083  10.288  24.583   2.812
44791W        W17084  31.512   1.425   2.787
44792W        W17085   9.343   8.383   2.890
44793W        W17086  31.944   3.856  10.996
44794W        W17087  19.766  38.544  11.403
44795W        W17088   0.935  21.625   3.714
44796W        W17089   5.250  33.461   2.879
44797W        W17090  10.858  36.409  12.032
44798W        W17091  11.669  40.467  14.337
44799W        W17092  32.085   3.448   0.756
44800W        W17093  23.665  28.556   4.623
44801W        W17094  37.510  29.171   0.769
44802W        W17095   3.765  15.662  12.011
44803W        W17096  18.092  16.745  13.974
44804W        W17097   7.712  34.992  10.096
44805W        W17098  34.494  12.707  14.880
44806W        W17099   7.855  13.651   0.735
44807W        W17100  29.929   1.756  11.012
44808W        W17101  30.144  23.135   1.739
44809W        W17102  16.736   4.727   0.473
44810W        W17103  10.801   4.861  11.412
44811W        W17104  44.472  37.345  13.887
44812W        W17105  27.502  21.604  13.532
44813W        W17106  42.451  35.369   0.383
44814W        W17107  40.862  33.909  11.891
44815W        W17108  37.997  34.395  13.049
44816W        W17109  34.913  33.106   3.718
44817W        W17110  32.101  42.426   2.291
44818W        W17111  21.541  28.646  14.283
44819W        W17112  35.428  34.029  12.020
44820W        W17113  41.358  12.207  12.958
44821W        W17114  21.040  22.534   3.679
44822W        W17115  11.856  11.766   5.111
44823W        W17116  12.294  12.627   1.280
44824W        W17117  24.154  33.925   1.251
44825W        W17118  28.549  17.583   4.254
44826W        W17119   3.289  20.123   4.600
44827W        W17120  20.635   0.403   1.798
44828W        W17121  36.927   8.893  14.293
44829W        W17122  38.963  18.057  11.077
44830W        W17123  37.885   8.733  11.523
44831W        W17124  17.660  35.414  10.472
44832W        W17125  35.982  19.634   3.700
44833W        W17126  37.471  28.943   1.374
44834W        W17127  10.636  26.154  11.950
44835W        W17128  11.857  37.993  12.475
44836W        W17129  43.347  25.194  14.967
44837W        W17130  24.634  17.230  13.030
44838W        W17131  39.497  39.970  11.434
44839W        W17132  10.280  36.420   4.756
44840W        W17133  34.003  27.055   0.837
44841W        W17134  38.888  41.999   0.922
44842W        W17135  13.765  16.228  11.463
44843W        W17136   8.834  17.728  10.939
44844W        W17137  28.499  16.288  11.897
44845W        W17138  27.019  23.673   0.893
44846W        W17139  41.966  39.894   1.347
44847W        W17140  10.186  15.297  11.499
44848W        W17141  41.406  19.647   4.152
44849W        W17142  25.531   9.696   4.243
44850W        W17143  39.834  18.623  13.369
44851W        W17144   3.734  38.881   2.687
44852W        W17145  19.570  14.206   1.316
44853W        W17146  18.132  29.594   1.277
44854W        W17147  29.983  30.598   1.791
44855W        W17148  40.039  17.167   2.221
44856W        W17149  14.120  13.344   4.683
44857W        W17150  18.134  42.440  10.419
44858W        W17151  12.773  16.090  14.947
44859W        W17152  15.589  30.932  14.782
44860W        W17153  11.128  16.599  12.348
44861W        W17154  33.009  32.897  12.036
44862W        W17155  26.472  37.919   4.692
44863W        W17156   5.903  40.504  10.974
44864W        W17157  21.737   3.903  11.412
44865W        W17158   0.966   2.871  12.042
44866W        W17159  40.536  42.963   3.334
44867W        W17160  19.764  25.636   0.756
44868W        W17161   7.695  43.374  12.560
44869W        W17162  11.278   9.375  14.990
44870W        W17163  20.186   7.738   0.472
44871W        W17164  10.204  37.065   2.254
44872W        W17165  34.541  25.624  12.462
44873W        W17166  17.089   8.187   4.727
44874W        W17167  24.709  17.081   2.727
44875W        W17168  16.248  22.667   2.274
44876W        W17169  25.608  10.799  12.908
44877W        W17170  10.364  33.476   1.846
44878W        W17171  23.057  28.583   2.872
44879W        W17172   6.411  32.973  13.039
44880W        W17173   3.281  37.893  13.516
44881W        W17174  23.606  13.718   1.283
44882W        W17175  17.191  12.204  13.825
44883W        W17176  39.449  24.167  14.387
44884W        W17177  18.291  34.107  13.324
44885W        W17178  27.665  18.197  14.378
44886W        W17179  27.605  32.442  11.495
44887W        W17180  24.191  11.761  11.893
44888W        W17181   9.842  23.984   1.410
44889W        W17182  26.684  43.907  14.013
44890W        W17183  10.275   8.832  10.410
44891W        W17184   1.463  41.790   3.649
44892W        W17185   1.333  26.977   1.341
44893W        W17186  24.143  13.230   2.840
44894W        W17187  15.245  12.257  11.961
44895W        W17188  30.962   0.890  11.439
44896W        W17189   0.766  16.130  14.500
44897W        W17190  30.944  17.275  13.493
44898W        W17191  28.012  38.846   4.763
44899W        W17192  10.838  35.420   3.793
44900W        W17193   4.245   2.804   4.264
44901W        W17194  34.493  35.526   0.342
44902W        W17195  19.551   1.242   0.407
44903W        W17196   7.255   9.149  13.816
44904W        W17197  17.673   1.825   0.246
44905W        W17198  27.047  29.541  12.568
44906W        W17199  12.619   4.365  13.946
44907W        W17200  15.767  26.014   0.476
44908W        W17201   7.879  27.637   0.781
44909W        W17202  19.632  30.962   3.686
44910W        W17203  41.480  33.966   4.639
44911W        W17204  22.642  40.486   0.396
44912W        W17205  20.525   4.731  11.383
44913W        W17206  26.694   6.743   1.289
44914W        W17207  28.618  36.874  14.312
44915W        W17208  27.612  22.652  14.833
44916W        W17209  35.505  38.429   4.793
44917W        W17210  23.632  15.799  13.952
44918W        W17211  28.114   9.686   0.936
44919W        W17212   7.218  27.007   1.313
44920W        W17213  18.290  35.922  10.931
44921W        W17214   5.816  27.618  13.416
44922W        W17215   4.797  34.925   4.275
44923W        W17216  31.555  26.646   0.450
44924W        W17217  38.515  27.629  12.983
44925W        W17218  12.247  16.623  13.379
44926W        W17219  19.124   8.190  11.982
44927W        W17220   1.376  44.267  11.005
44928W        W17221  27.191  15.293  12.500
44929W        W17222  24.107  16.260  14.277
44930W        W17223  42.395  44.978   1.840
44931W        W17224  20.141  41.532  13.369
44932W        W17225  10.847  24.183   4.801
44933W        W17226   4.264  39.958   1.820
44934W        W17227  41.353  27.585   2.381
44935W        W17228  18.257  23.684   1.870
44936W        W17229   6.285  27.617  13.503
44937W        W17230  30.094  32.457  13.994
44938W        W17231   4.209  25.132   2.332
44939W        W17232  18.778  27.148   1.255
44940W        W17233  26.192  31.921   4.803
44941W        W17234  31.906  36.575  10.454
44942W        W17235   4.430  30.929   4.284
44943W        W17236  17.247   1.920   1.771
44944W        W17237  21.550  42.998   1.324
44945W        W17238   5.217  19.109  10.897
44946W        W17239  26.574   3.948   5.304
44947W        W17240   1.815  24.014  13.875
44948W        W17241  12.272  14.158  12.051
44949W        W17242   9.794  39.331  11.563
44950W        W17243  18.744  19.673   4.647
44951W        W17244  36.423   2.869   3.708
44952W        W17245   0.837  22.242  11.014
44953W        W17246   1.843  37.462   0.874
44954W        W17247   5.319  27.108   2.311
44955W        W17248  40.547  29.454   1.299
44956W        W17249  42.781  40.981  14.010
44957W        W17250  40.873   0.859  12.372
44958W        W17251  39.862  22.514   4.783
44959W        W17252  28.610  23.705   2.835
44960W        W17253  39.983  39.347   2.823
44961W        W17254  14.303  27.684  11.034
44962W        W17255  13.164  43.283  11.864
44963W        W17256   8.670  30.466   4.349
44964W        W17257   5.225  35.933   0.344
44965W        W17258  12.237  31.491  13.889
44966W        W17259   3.291  38.910  10.457
44967W        W17260  23.220  18.116   1.239
44968W        W17261  30.553  40.910   4.115
44969W        W17262  29.460  19.759  10.447
44970W        W17263   4.283  23.151   4.753
44971W        W17264  22.227   5.343  13.369
44972W        W17265  13.170   0.318   3.804
44973W        W17266  18.618  12.120  12.512
44974W        W17267   9.230  19.572   0.884
44975W        W17268   6.755  24.141   0.376
44976W        W17269  25.006  15.746   1.236
44977W        W17270  26.681  35.593   1.792
44978W        W17271  37.016   0.450  10.517
44979W        W17272  13.812  23.652   3.189
44980W        W17273   8.280  27.151   3.764
44981W        W17274   4.359  14.334   3.655
44982W        W17275  29.925  40.810   0.770
44983W        W17276  30.946  23.157  13.339
44984W        W17277  17.575  20.229  14.950
44985W        W17278  33.604  17.596  12.992
44986W        W17279  33.624  25.163  13.538
44987W        W17280  43.328  27.017  12.977
44988W        W17281   1.398  12.353  13.528
44989W        W17282  13.259  32.433  10.906
44990W        W17283  22.169  36.855   4.346
44991W        W17284  17.184   1.461  11.489
44992W        W17285  23.078   3.772  11.929
44993W        W17286  28.058   8.780   0.289
44994W        W17287  22.516  28.114  10.095
44995W        W17288  21.561  30.600  11.470
44996W        W17289  23.989  24.203   0.846
44997W        W17290  22.040  27.976   4.691
44998W        W17291  22.689  16.808  14.896
44999W        W17292  44.275  14.723   2.831
45000W        W17293  39.464  36.035  11.426
45001W        W17294  38.992  38.533  14.941
45002W        W17295  23.570  41.524  12.518
45003W        W17296   6.385  30.010  12.555
45004W        W17297  38.453   0.947   4.718
45005W        W17298  17.169  23.500  14.360
45006W        W17299  24.053  30.991   0.477
45007W        W17300  39.992  41.408  11.886
45008W        W17301  37.950  19.263   2.797
45009W        W17302  33.576   3.249  13.017
45010W        W17303  31.086  37.082   4.716
45011W        W17304  35.447  42.368   4.648
45012W        W17305  24.040  43.357   1.374
45013W        W17306   7.411  41.820   3.250
45014W        W17307  26.996  27.190  12.997
45015W        W17308   0.810  32.131   0.879
45016W        W17309  10.264  25.615   1.237
45017W        W17310   4.893  15.130  10.148
45018W        W17311  26.463  10.162   2.726
45019W        W17312  44.934  13.731   4.733
45020W        W17313   5.272  15.635  13.484
45021W        W17314   9.660  20.670  13.011
45022W        W17315  20.647  36.411  14.468
45023W        W17316   6.843  44.308   1.829
45024W        W17317   3.854  31.413   4.674
45025W        W17318  18.720   1.803  12.566
45026W        W17319  19.700  19.134   3.791
45027W        W17320   6.861  40.948   1.374
45028W        W17321   7.848   2.325   4.211
45029W        W17322   8.181   2.845  11.400
45030W        W17323  41.906   4.353   3.687
45031W        W17324  34.104   5.865  14.424
45032W        W17325  12.750  27.641  14.388
45033W        W17326  18.673  34.611   2.392
45034W        W17327  41.533  16.589  13.980
45035W        W17328  16.638  42.872  14.835
45036W        W17329  13.125  33.968   4.206
45037W        W17330  28.639  42.813  14.356
45038W        W17331  42.871  16.690  12.975
45039W        W17332  12.177   1.281   3.268
45040W        W17333   5.924   0.307  11.923
45041W        W17334  12.130  40.529   2.763
45042W        W17335   3.442   9.850  13.979
45043W        W17336  28.494   8.698   0.457
45044W        W17337  20.150  18.108   9.952
45045W        W17338   5.432  30.503   0.357
45046W        W17339  21.577  10.804  14.022
45047W        W17340  37.509  34.082  14.983
45048W        W17341  13.842   1.962  13.987
45049W        W17342   3.386  44.458   4.285
45050W        W17343  35.076  42.397  11.011
45051W        W17344  43.417  29.994  14.382
45052W        W17345   3.436  39.861   0.317
45053W        W17346   8.730  23.574   1.919
45054W        W17347  38.062  43.008  10.940
45055W        W17348  18.654  25.078   3.838
45056W        W17349   6.877  22.123   2.786
45057W        W17350  25.029  25.503  10.473
45058W        W17351   9.849   5.324   4.786
45059W        W17352  11.337  14.815   2.280
45060W        W17353   5.894   0.448   0.790
45061W        W17354   9.242   2.838   4.743
45062W        W17355  16.689  11.694   2.820
45063W        W17356  29.133  33.570  14.870
45064W        W17357  31.496  37.568  13.504
45065W        W17358  17.277  11.348  13.861
45066W        W17359  44.442  20.685  10.039
45067W        W17360  41.356  17.159   3.659
45068W        W17361   6.391  38.425   4.166
45069W        W17362   6.691  19.608   2.827
45070W        W17363  20.126   9.796  12.938
45071W        W17364  15.124  27.479   3.211
45072W        W17365  21.535  30.519   5.240
45073W        W17366  42.356  13.168  14.775
45074W        W17367  34.990  30.556  12.973
45075W        W17368  18.553   4.910   2.375
45076W        W17369  43.502  33.624   3.844
45077W        W17370  15.812  28.461  11.575
45078W        W17371  30.628   8.359   0.295
45079W        W17372  20.225  40.303   3.364
45080W        W17373   2.283   8.335  12.980
45081W        W17374  11.197   7.710   4.289
45082W        W17375  12.243  36.403   4.651
45083W        W17376  23.676  32.483   3.774
45084W        W17377  27.087  33.911   2.691
45085W        W17378  31.111  37.350  12.006
45086W        W17379   1.414  41.435   3.276
45087W        W17380  23.602  12.130   0.242
45088W        W17381  16.618   7.873  11.938
45089W        W17382  20.552  28.530  12.540
45090W        W17383  39.551   0.850   0.402
45091W        W17384  32.926  25.573   0.445
45092W        W17385  19.545  12.131   4.655
45093W        W17386  30.049  15.143  14.002
45094W        W17387  41.338  14.273  14.878
45095W        W17388   7.381  25.648  12.840
45096W        W17389  18.202   8.846   1.752
45097W        W17390  14.603  13.143   1.917
45098W        W17391   2.372  34.433   3.735
45099W        W17392  12.281  33.978  13.529
45100W        W17393   9.646  34.416   0.900
45101W        W17394  38.401  18.604   2.708
45102W        W17395  40.406  12.234   1.887
45103W        W17396  32.040  40.421  12.036
45104W        W17397  13.706  28.482   3.247
45105W        W17398  39.906  24.006   4.342
45106W        W17399  37.403  28.085   3.723
45107W        W17400   0.280  32.953  12.543
45108W        W17401  32.041   0.979   3.165
45109W        W17402  30.935  12.782   0.858
45110W        W17403  32.034  37.458  14.332
45111W        W17404  36.846   5.730   2.260
45112W        W17405  26.035  33.877   3.331
45113W        W17406   1.479  28.607   0.292
45114W        W17407  28.990  16.708  11.490
45115W        W17408  43.006   6.245  14.459
45116W        W17409  24.721   6.356  13.946
45117W        W17410  39.520  23.228  14.434
45118W        W17411   4.942   4.331  11.862
45119W        W17412  34.054  24.588   3.706
45120W        W17413  28.006  21.159   1.444
45121W        W17414  28.086  39.015  13.545
45122W        W17415  41.926  11.317   1.385
45123W        W17416   2.827  42.009   1.294
45124W        W17417   7.710  20.185   3.336
45125W        W17418  19.751   3.373   3.662
45126W        W17419  31.034  35.857  10.088
45127W        W17420  11.135  19.072   3.165
45128W        W17421  38.523  20.066  11.546
45129W        W17422  17.125  44.379   0.356
45130W        W17423  42.969  30.069  14.818
45131W        W17424  14.802  44.384  10.022
45132W        W17425   2.400  38.562   1.859
45133W        W17426  44.288  16.790  12.566
45134W        W17427   1.390  37.519  14.486
45135W        W17428   9.251  16.175   4.259
45136W        W17429  38.424  44.812   2.722
45137W        W17430  20.085  38.508   2.184
45138W        W17431  37.412   0.398   3.773
45139W        W17432  33.545  13.186   1.795
45140W        W17433  20.242  11.204  11.963
45141W        W17434  16.304  15.758   2.769
45142W        W17435  25.552  28.579   2.886
45143W        W17436  40.936  13.771   3.835
45144W        W17437   6.298  28.444   1.830
45145W        W17438  28.185  34.102   1.740
45146W        W17439  31.618  24.677  13.843
45147W        W17440  13.682   1.971   5.138
45148W        W17441  41.423   8.322   4.754
45149W        W17442  44.396   4.765   2.306
45150W        W17443   4.413  38.390   3.678
45151W        W17444  37.551  11.759   2.843
45152W        W17445  23.027  21.652   4.146
45153W        W17446  35.423  42.291  12.907
45154W        W17447  26.476  24.505   0.420
45155W        W17448  17.220  20.704  11.962
45156W        W17449  39.051  44.446   0.303
45157W        W17450  41.029   0.471   5.112
45158W        W17451  37.547  34.583  12.881
45159W        W17452  19.590  37.996   3.637
45160W        W17453  42.975   5.226   4.162
45161W        W17454  30.112  32.939   3.226
45162W        W17455  32.506  41.975   4.609
45163W        W17456  23.062  30.121   0.378
45164W        W17457  42.846  32.413  12.825
45165W        W17458  32.538  28.631   3.151
45166W        W17459  26.493  36.444   0.866
45167W        W17460  22.175  34.392   1.365
45168W        W17461  18.596  14.202   1.918
45169W        W17462  35.568  24.167  11.491
45170W        W17463  32.411  44.892  10.602
45171W        W17464  13.686   0.767  14.329
45172W        W17465  10.204   7.366   1.380
45173W        W17466   1.858  14.683   3.723
45174W        W17467   0.435   7.834   4.651
45175W        W17468  32.936   9.307  13.884
45176W        W17469   1.452  13.269  13.004
45177W        W17470  17.557  31.127  11.040
45178W        W17471  18.662  40.453  13.362
45179W        W17472   2.369   6.348   2.187
45180W        W17473  38.054  29.582   2.187
45181W        W17474  26.498   1.406   4.607
45182W        W17475   9.717  19.579   0.797
45183W        W17476  32.514   8.834  14.335
45184W        W17477  44.410   8.283   2.183
45185W        W17478  42.331  38.945   4.729
45186W        W17479  22.689  30.042  10.557
45187W        W17480  24.497  11.146   1.242
45188W        W17481  29.998  38.908  11.866
45189W        W17482  14.224  14.186  14.512
45190W        W17483  35.437  32.621  13.515
45191W        W17484   4.342  10.749   3.735
45192W        W17485  25.471  21.074   2.260
45193W        W17486  15.647   2.929  14.422
45194W        W17487   7.227   2.788   1.821
45195W        W17488  24.008  16.141  11.062
45196W        W17489  27.192  41.364  13.379
45197W        W17490  32.886  24.056  14.019
45198W        W17491  29.088   6.282   3.207
45199W        W17492   8.676   9.152  10.627
45200W        W17493  24.192  17.175  11.006
45201W        W17494  20.568  19.748  13.499
45202W        W17495  25.633   4.928   1.396
45203W        W17496   8.684  33.506   2.849
45204W        W17497   2.863  28.657   0.887
45205W        W17498  24.049  35.064  14.028
45206W        W17499  37.535  34.011  10.525
45207W        W17500   1.766   1.748  10.521
45208W        W17501  34.079  18.113  14.832
45209W        W17502   0.337   7.240   3.266
45210W        W17503  14.666  25.023  13.411
45211W        W17504   7.702  33.483   3.333
45212W        W17505  40.838  14.134   3.702
45213W        W17506  32.028   5.376  12.010
45214W        W17507  11.336   0.457   3.819
45215W        W17508  32.443  30.949  13.011
45216W        W17509   2.950  32.071   4.749
45217W        W17510   5.223  44.431  12.363
45218W        W17511  42.010  10.208   1.875
45219W        W17512  16.637   0.919  11.381
45220W        W17513  10.260   6.793   2.838
45221W        W17514  16.759   2.760   0.411
45222W        W17515   9.197   3.391   2.733
45223W        W17516  13.131  26.554  14.779
45224W        W17517   7.671  24.228   3.366
45225W        W17518  21.197   7.795   4.352
45226W        W17519   0.748   9.239  13.828
45227W        W17520  21.749  40.987  11.564
45228W        W17521  11.849   2.428  14.823
45229W        W17522  31.052  10.237   3.254
45230W        W17523   2.403  41.983  14.873
45231W        W17524  22.107   4.396  11.505
45232W        W17525  29.527   0.849  14.017
45233W        W17526  22.743  39.386   3.358
45234W        W17527  37.953  20.226   0.817
45235W        W17528   3.391  24.188  13.015
45236W        W17529   5.774  13.811  11.944
45237W        W17530  40.986  10.368   2.763
45238W        W17531  36.952  14.265  13.420
45239W        W17532  15.271  28.592  12.392
45240W        W17533  35.029  11.808  11.117
45241W        W17534  34.998  29.597  13.400
45242W        W17535  23.559   1.869  10.965
45243W        W17536  40.023  43.881   3.794
45244W        W17537  28.088  36.934   3.677
45245W        W17538  12.324   1.840   1.224
45246W        W17539   7.385  39.854  13.517
45247W        W17540  33.030  34.428  11.952
45248W        W17541  25.171  32.946  12.393
45249W        W17542  18.184   9.650  12.034
45250W        W17543  42.880   2.343  13.039
45251W        W17544   1.814  14.166   4.296
45252W        W17545  44.398   5.266  14.981
45253W        W17546  25.989  33.974  11.401
45254W        W17547  12.667   8.343   3.180
45255W        W17548  30.449  21.065   2.411
45256W        W17549  37.954   6.256  13.920
45257W        W17550   3.321  30.003   1.783
45258W        W17551  21.175   0.808  13.429
45259W        W17552  28.937   9.856   3.668
45260W        W17553  33.406  44.358   1.724
45261W        W17554  39.968  36.454  14.398
45262W        W17555  13.805  39.049   0.265
45263W        W17556   3.381  18.150  14.979
45264W        W17557  44.994  25.187   3.185
45265W        W17558  37.859  38.541   3.759
45266W        W17559  22.702   4.706   1.747
45267W        W17560  24.546  41.476   3.743
45268W        W17561  19.778  35.872  10.006
45269W        W17562   3.717  30.601   1.874
45270W        W17563  31.558  23.640   4.669
45271W        W17564  15.181  44.338   1.260
45272W        W17565  30.093  36.857   2.796
45273W        W17566  12.652  29.106   1.784
45274W        W17567  27.683  41.889   2.672
45275W        W17568  18.605  35.917   0.399
45276W        W17569   0.471   4.785  14.759
45277W        W17570  41.883  39.033  13.959
45278W        W17571   5.435  43.986  12.975
45279W        W17572  23.221  26.578   4.692
45280W        W17573  41.493  34.947  14.013
45281W        W17574  35.603  17.205  12.369
45282W        W17575  21.542   2.231   4.812
45283W        W17576  21.526  23.581   2.331
45284W        W17577  19.274  17.074  14.999
45285W        W17578   4.872   0.455   4.718
45286W        W17579  44.843  16.104  11.930
45287W        W17580  11.259  24.491  14.941
45288W        W17581  22.996  16.164   2.846
45289W        W17582  14.159   2.248   1.287
45290W        W17583  38.006   9.206  13.053
45291W        W17584   0.771   4.839   0.849
45292W        W17585  28.045  28.965   2.212
45293W        W17586  21.019  31.985  11.900
45294W        W17587  15.668  43.993   2.370
45295W        W17588  18.621  17.294   2.386
45296W        W17589  33.888   4.834  13.886
45297W        W17590  17.217   3.912   1.410
45298W        W17591  28.055   0.770   3.671
45299W        W17592  35.886  14.165  12.824
45300W        W17593  20.591  39.436  11.026
45301W        W17594  39.327  20.647  14.867
45302W        W17595  14.267  19.149   1.393
45303W        W17596  32.055  23.573  10.615
45304W        W17597  26.208   5.277  14.476
45305W        W17598  23.652  20.661   0.916
45306W        W17599  41.895   0.844  14.982
45307W        W17600  22.046  32.899  10.568
45308W        W17601  21.129  35.914   1.326
45309W        W17602  35.379  11.266   4.166
45310W        W17603  11.756  28.554   4.736
45311W        W17604  41.806  13.632  13.348
45312W        W17605  13.264   0.928   0.817
45313W        W17606   4.832  36.025   2.256
45314W        W17607  31.413  39.421  11.115
45315W        W17608  13.737  25.128  11.063
45316W        W17609  35.474   9.759  10.463
45317W        W17610  30.487  24.109  10.581
45318W        W17611   6.881  30.583   0.406
45319W        W17612  10.856   4.798   1.269
45320W        W17613  44.461  17.596  13.539
45321W        W17614  26.520   2.890   4.708
45322W        W17615  32.100  38.522  14.415
45323W        W17616  24.704   8.697   0.967
45324W        W17617  34.523  18.549   2.289
45325W        W17618  44.856  27.091   0.896
45326W        W17619  38.334  33.071  10.435
45327W        W17620  27.658  27.075  13.544
45328W        W17621  11.815  42.306   4.275
45329W        W17622  21.159  30.592  14.404
45330W        W17623  38.075  13.838   2.668
45331W        W17624  30.120  37.481   3.739
45332W        W17625  42.825  24.215   0.910
45333W        W17626  43.831  16.626  12.075
45334W        W17627  29.668  28.031  11.079
45335W        W17628  13.178  39.540   3.852
45336W        W17629   3.870  11.304  13.464
45337W        W17630  39.842  29.042  13.311
45338W        W17631  13.319  33.029   1.906
45339W        W17632  14.816  21.688  13.921
45340W        W17633   9.744  18.176  13.850
45341W        W17634   2.780  18.092  11.860
45342W        W17635  25.684  37.015  12.527
45343W        W17636  25.157  21.141   5.257
45344W        W17637  42.964  44.434   3.265
45345W        W17638  17.238   2.363  14.948
45346W        W17639  38.420   9.755   4.271
45347W        W17640  43.509  16.795  14.424
45348W        W17641  37.539  23.522   4.119
45349W        W17642  11.696  11.150   0.267
45350W        W17643   4.340   3.813  12.828
45351W        W17644   8.326  42.492   3.367
45352W        W17645  38.487   4.815  11.603
45353W        W17646  38.539  21.120   1.265
45354W        W17647  35.489   6.920   2.890
45355W        W17648  24.598  41.351  12.513
45356W        W17649  30.114   8.681   2.752
45357W        W17650  14.591  30.916  11.399
45358W        W17651  12.261  14.290  13.913
45359W        W17652  36.358  37.994   4.311
45360W        W17653   2.245  11.280  10.471
45361W        W17654  22.584   8.252   4.764
45362W        W17655  39.905   3.862  13.314
45363W        W17656  28.116  30.621   3.323
45364W        W17657  43.011   3.360  13.324
45365W        W17658  35.890  17.798  10.502
45366W        W17659  41.325  39.351  13.474
45367W        W17660  34.561  30.945  10.469
45368W        W17661  17.746  32.112  14.777
45369W        W17662  35.993  42.917  13.028
45370W        W17663  40.982  30.443  12.486
45371W        W17664  25.078  41.851  14.995
45372W        W17665   6.685  30.942  11.538
45373W        W17666   4.330  29.497   3.641
45374W        W17667   0.771  34.482  13.533
45375W        W17668  36.476  29.627  14.341
45376W        W17669  11.801  16.161  11.561
45377W        W17670   4.762  37.916  12.987
45378W        W17671  10.669  33.387  12.046
45379W        W17672  41.970   6.785  12.359
45380W        W17673  17.723  37.402  13.419
45381W        W17674   0.406  37.352  13.917
45382W        W17675  21.124  23.194  14.457
45383W        W17676  27.016  28.614  13.545
45384W        W17677  21.218  10.774   3.223
45385W        W17678   7.373   1.753   0.455
45386W        W17679  11.860  17.109  11.924
45387W        W17680  29.640  39.358  14.990
45388W        W17681  20.657   4.442   3.236
45389W        W17682  19.245  16.305   4.226
45390W        W17683  24.568  28.483   4.653
45391W        W17684  41.477  19.642  11.933
45392W        W17685  43.435  38.569   3.300
45393W        W17686  24.579   3.872  11.459
45394W        W17687  18.778  34.370   1.838
45395W        W17688  29.631  26.471  12.395
45396W        W17689  30.095  29.616   2.285
45397W        W17690  37.935  19.692   0.906
45398W        W17691  31.032  33.886  11.970
45399W        W17692   3.773   6.913   4.737
45400W        W17693  29.057  32.444   4.219
45401W        W17694  44.883   2.451   1.223
45402W        W17695  35.553  27.143  13.320
45403W        W17696  22.519   9.278   1.243
45404W        W17697  20.641   8.702  14.480
45405W        W17698  24.098  16.708  10.943
45406W        W17699  20.573   2.918  13.458
45407W        W17700  44.000  15.240   2.223
45408W        W17701  22.510   2.923   4.819
45409W        W17702   7.872   9.202  13.835
45410W        W17703   3.728   2.311   1.830
45411W        W17704  17.667  39.348   2.847
45412W        W17705  43.473  33.091  11.067
45413W        W17706  22.072  30.439  14.309
45414W        W17707  42.381  23.165  12.862
45415W        W17708  38.451  17.672   3.373
45416W        W17709   6.735  18.641  11.028
45417W        W17710  28.168  27.192   3.813
45418W        W17711  22.685  17.110   4.277
45419W        W17712   3.406   2.875  14.501
45420W        W17713  37.059   9.871  12.481
45421W        W17714  30.609  35.034   0.345
45422W        W17715   8.182  43.338  10.633
45423W        W17716  11.688  20.095   3.168
45424W        W17717  14.738  35.919   1.324
45425W        W17718  32.981  28.646  12.894
45426W        W17719   4.229  38.049  11.606
45427W        W17720  22.010  24.138  14.364
45428W        W17721  39.364   7.398  12.852
45429W        W17722  29.647  16.075  12.516
45430W        W17723  15.284  15.748  14.370
45431W        W17724  15.658  21.247   2.718
45432W        W17725  17.699  14.301  12.962
45433W        W17726  33.389  43.384   4.723
45434W        W17727  32.138  31.475  13.992
45435W        W17728   4.356  10.665   0.385
45436W        W17729  29.084  39.007  13.854
45437W        W17730  42.300  28.158  14.332
45438W        W17731   4.259  34.496  14.473
45439W        W17732  44.971  22.065   0.401
45440W        W17733  30.608  29.581   0.246
45441W        W17734  19.663  14.724   4.173
45442W        W17735  31.469  10.161  11.017
45443W        W17736  13.125  24.227  12.943
45444W        W17737   0.810  43.889   0.405
45445W        W17738  26.973  33.976   0.926
45446W        W17739  17.122  20.705   3.333
45447W        W17740  12.748  12.847   1.450
45448W        W17741   3.407   9.219   3.840
45449W        W17742   1.298  25.167   0.348
45450W        W17743  12.622  19.697   4.722
45451W        W17744  18.195  12.643  10.959
45452W        W17745   8.720   9.318  13.009
45453W        W17746   0.743  15.606  14.828
45454W        W17747  38.006  23.623   0.464
45455W        W17748  22.218  31.126   2.851
45456W        W17749  28.073   3.423   1.301
45457W        W17750  26.645  19.748  13.920
45458W        W17751  34.523  27.548  14.904
45459W        W17752  18.211  10.873   3.250
45460W        W17753  33.396  32.404  10.443
45461W        W17754  21.081   6.224  11.436
45462W        W17755  42.810   1.752   2.394
45463W        W17756  27.594  44.006   4.676
45464W        W17757  18.563  44.999  14.380
45465W        W17758  29.630   4.279   3.775
45466W        W17759  20.657  37.904  11.875
45467W        W17760  35.022   3.243   5.313
45468W        W17761  20.723  28.564  14.333
45469W        W17762  10.211  32.551  12.947
45470W        W17763  21.070  18.690  12.962
45471W        W17764  29.129  10.236   1.363
45472W        W17765   3.290  41.929  12.876
45473W        W17766  31.509  39.487   3.840
45474W        W17767   9.164   0.334   4.261
45475W        W17768  29.458  22.238   3.693
45476W        W17769  12.192  19.100   1.218
45477W        W17770  33.011  36.535  12.926
45478W        W17771   5.762  18.203   2.720
45479W        W17772  21.222   0.282  11.865
45480W        W17773   5.725   8.198   0.318
45481W        W17774   2.342   3.408   0.384
45482W        W17775  27.462  44.808  13.506
45483W        W17776  39.469  29.599   0.845
45484W        W17777  24.164  17.789  14.774
45485W        W17778  43.296  19.736  10.557
45486W        W17779  10.273  42.905  14.351
45487W        W17780  38.377   1.280  12.438
45488W        W17781  21.581  35.989   3.714
45489W        W17782  21.095  31.073  12.000
45490W        W17783  12.330   7.393  10.516
45491W        W17784  31.467  39.837  14.335
45492W        W17785  33.037   1.301  13.842
45493W        W17786  39.854  41.471   0.370
45494W        W17787  14.193  38.013   4.186
45495W        W17788   0.411  17.149   1.277
45496W        W17789  18.708   5.739  12.049
45497W        W17790  27.055  43.854  12.830
45498W        W17791  16.774   0.929   0.438
45499W        W17792  12.684  35.015  11.083
45500W        W17793  19.211  40.938  10.611
45501W        W17794  14.109  21.744   4.169
45502W        W17795  21.172  14.769  12.430
45503W        W17796   1.840  17.602   4.827
45504W        W17797   6.323  34.952  14.371
45505W        W17798  33.587  30.627  10.625
45506W        W17799  34.987  21.674   0.447
45507W        W17800   1.443  30.582  14.294
45508W        W17801   9.279  10.693   3.742
45509W        W17802  23.718  33.009  11.899
45510W        W17803   0.455   2.844   2.771
45511W        W17804  44.891   5.318   3.691
45512W        W17805  10.304  10.677  14.865
45513W        W17806  33.939  34.405  14.514
45514W        W17807  17.558  29.554  12.837
45515W        W17808  11.818  31.646  11.378
45516W        W17809  27.495  13.340   4.219
45517W        W17810  29.511  44.931  13.483
45518W        W17811  33.620  30.160  12.880
45519W        W17812  10.143  11.623  11.999
45520W        W17813   7.198  21.031   0.891
45521W        W17814  39.457   4.743  12.079
45522W        W17815  19.606   3.887   2.209
45523W        W17816  32.409   5.261   2.316
45524W        W17817  14.790  10.859  13.053
45525W        W17818   4.398   1.870  10.575
45526W        W17819  27.607   7.800  13.528
45527W        W17820   1.949  42.398   4.716
45528W        W17821  38.903  20.205  12.406
45529W        W17822  31.465  33.914  11.570
45530W        W17823  15.239  18.112  14.400
45531W        W17824  37.960  19.617   3.678
45532W        W17825  40.968  20.585  12.946
45533W        W17826  20.259  25.155   2.377
45534W        W17827  25.002   9.751  12.065
45535W        W17828  39.463  28.967   4.282
45536W        W17829  11.852  16.277  14.376
45537W        W17830   9.697  15.230  11.054
45538W        W17831  16.632  19.549  14.840
45539W        W17832   3.832  11.328  12.845
45540W        W17833   0.367   1.328   0.349
45541W        W17834  40.806   5.759   3.817
45542W        W17835  29.481  36.992   2.344
45543W        W17836  24.205  40.350  11.581
45544W        W17837  38.471  17.561  10.637
45545W        W17838  12.329  20.208   0.301
45546W        W17839  20.646   8.344  11.106
45547W        W17840  37.513  25.208   4.212
45548W        W17841  10.657  32.132  13.054
45549W        W17842  28.179   8.272   4.826
45550W        W17843  19.070  11.260  12.859
45551W        W17844  43.852  24.508  12.383
45552W        W17845  10.143   5.386   3.671
45553W        W17846   9.885  42.333  11.896
45554W        W17847  32.471   9.672   1.701
45555W        W17848   3.798  23.722   0.814
45556W        W17849  24.567  30.955   0.844
45557W        W17850  38.399  40.055  10.984
45558W        W17851  10.731  11.137   2.334
45559W        W17852  30.046  29.922  11.426
45560W        W17853   0.845  16.318   4.797
45561W        W17854  20.116   8.218  12.357
45562W        W17855  11.225  41.378  11.487
45563W        W17856  40.798  39.923  13.999
45564W        W17857  22.218  21.584  12.496
45565W        W17858  12.350  21.754   3.844
45566W        W17859  16.744  11.322   2.705
45567W        W17860  39.814   4.839  14.444
45568W        W17861  20.038  23.047  14.776
45569W        W17862  15.819  19.171   0.805
45570W        W17863  41.507  35.391   0.847
45571W        W17864   0.954  26.687   5.111
45572W        W17865   3.791   2.254   3.842
45573W        W17866  17.077  42.030   9.935
45574W        W17867   7.851  14.318  11.116
45575W        W17868   2.789  30.453  11.495
45576W        W17869  27.689  43.271  11.376
45577W        W17870  21.742  22.624   1.829
45578W        W17871  36.544  18.569   2.806
45579W        W17872  26.657  21.650  11.016
45580W        W17873  30.987  32.930  13.352
45581W        W17874  14.288   5.244   0.259
45582W        W17875  28.056  21.204   2.208
45583W        W17876  40.360  37.950   3.201
45584W        W17877  16.158   2.768   3.746
45585W        W17878  23.138  43.501  12.568
45586W        W17879  14.625   4.287  14.839
45587W        W17880  30.007  42.807   2.902
45588W        W17881  11.823   6.689  11.859
45589W        W17882   7.179  12.242  13.842
45590W        W17883   6.709   0.943  13.445
45591W        W17884  36.841  19.110   2.328
45592W        W17885  44.394  41.428  13.400
45593W        W17886  22.166   2.861  13.991
45594W        W17887   2.906  18.187   0.943
45595W        W17888   9.179  24.200  10.643
45596W        W17889  39.004  12.751   5.226
45597W        W17890  24.689   7.190  14.335
45598W        W17891  23.148   8.791   4.132
45599W        W17892  37.549   5.698  10.967
45600W        W17893  13.180   4.422   4.277
45601W        W17894  30.916  36.923  14.764
45602W        W17895   5.415  16.772  12.836
45603W        W17896   7.754   4.728  10.972
45604W        W17897  11.292  44.909  14.352
45605W        W17898  24.517   2.426   4.727
45606W        W17899   6.759  31.614  11.006
45607W        W17900  42.986  20.749  11.903
45608W        W17901  26.546  17.087   2.378
45609W        W17902  10.842  43.298  12.371
45610W        W17903  43.906  31.026   0.769
45611W        W17904  23.627  13.622   2.381
45612W        W17905   5.249   1.270  11.457
45613W        W17906  17.075  37.957   4.775
45614W        W17907  20.526  38.977   3.765
45615W        W17908  10.211  35.099  11.578
45616W        W17909  26.457  27.197  13.032
45617W        W17910  17.788  26.183   0.362
45618W        W17911  11.171  31.520   3.266
45619W        W17912  27.605  34.593   0.383
45620W        W17913  29.930  24.993   1.846
45621W        W17914   4.341  38.906   4.795
45622W        W17915  37.409   7.259   3.724
45623W        W17916  22.729  14.184  12.443
45624W        W17917  33.619  28.968  14.988
45625W        W17918  25.170  39.844   4.683
45626W        W17919  12.248  27.611   2.768
45627W        W17920  29.564  24.632   2.344
45628W        W17921  44.281  34.876  10.511
45629W        W17922   0.450   6.276   4.651
45630W        W17923  44.284   3.341  10.579
45631W        W17924  36.588  42.935  14.357
45632W        W17925  24.076  33.893  12.898
45633W        W17926  25.136  11.169  14.031
45634W        W17927  38.042  29.646  12.425
45635W        W17928  31.983   2.750   4.245
45636W        W17929  40.858  14.107   3.295
45637W        W17930  14.783  30.636  14.949
45638W        W17931  32.900  19.767  10.988
45639W        W17932  35.365  34.581  11.455
45640W        W17933  40.548  31.079   0.730
45641W        W17934  43.479  33.019   2.733
45642W        W17935   7.852  26.634   4.334
45643W        W17936  19.755   4.904   4.809
45644W        W17937   3.749  42.837  12.840
45645W        W17938  18.724   8.667   3.725
45646W        W17939  41.930  41.041  14.916
45647W        W17940  21.023   9.381  11.126
45648W        W17941  24.590  18.081  13.862
45649W        W17942  31.986  39.812  12.855
45650W        W17943   0.899  27.628   1.314
45651W        W17944   1.747  12.228   3.675
45652W        W17945  22.062  44.820  13.974
45653W        W17946  35.095   5.298  14.351
45654W        W17947  37.436  35.083   3.314
45655W        W17948  31.998  28.988  13.799
45656W        W17949  11.674   5.914   1.432
45657W        W17950  13.297  11.282  10.643
45658W        W17951  39.911  14.256  12.044
45659W        W17952  29.091  24.989   3.195
45660W        W17953   2.860  18.708   2.398
45661W        W17954  24.034  29.493   1.239
45662W        W17955  19.191  29.648   4.771
45663W        W17956  20.529   6.871  11.908
45664W        W17957  11.321  42.518  10.449
45665W        W17958   3.867  22.509   4.703
45666W        W17959  17.260   7.667  11.877
45667W        W17960  18.751  43.327   1.374
45668W        W17961   9.319  44.768  11.867
45669W        W17962  14.731   8.301  14.777
45670W        W17963  23.159  14.648  12.940
45671W        W17964  39.911  32.620  11.457
45672W        W17965   0.392  21.210   4.328
45673W        W17966  16.652  21.071   0.298
45674W        W17967  29.940  20.110   0.938
45675W        W17968   4.878   6.879   1.929
45676W        W17969   3.436   8.384  14.772
45677W        W17970  22.155  20.711   0.460
45678W        W17971  25.627  12.708   1.341
45679W        W17972  14.695  25.512   3.697
45680W        W17973   1.887  25.668  14.875
45681W        W17974   5.806  19.057  11.924
45682W        W17975  19.058  26.969   0.341
45683W        W17976  38.907  12.132   1.232
45684W        W17977  17.155  30.132   4.715
45685W        W17978  39.819  42.310  11.599
45686W        W17979  29.492  31.992   3.276
45687W        W17980  39.542  32.483   3.691
45688W        W17981  18.138  42.317  14.896
45689W        W17982   6.850  28.956  12.847
45690W        W17983   4.843  40.539  12.340
45691W        W17984   2.803  43.868  14.380
45692W        W17985  12.620  32.467   1.433
45693W        W17986  19.235  26.693   2.810
45694W        W17987  21.252   2.735   2.384
45695W        W17988  28.558  19.708  14.014
45696W        W17989  42.779  27.039   1.422
45697W        W17990  40.021  36.921   1.269
45698W        W17991   7.712  26.631   3.764
45699W        W17992  21.035  13.771  13.870
45700W        W17993  26.105   9.691   4.669
45701W        W17994  28.087  36.084   2.294
45702W        W17995  23.160  24.170   4.749
45703W        W17996  25.084  40.465  13.495
45704W        W17997  43.993  44.924   1.383
45705W        W17998  26.682   0.878   4.718
45706W        W17999  25.050  31.089   1.354
45707W        W18000  23.614  38.327  12.996
45708W        W18001   9.792   8.273  12.009
45709W        W18002  15.089   0.447   4.320
45710W        W18003  39.347   0.975   2.872
45711W        W18004  20.145  31.613   1.278
45712W        W18005  14.800  40.376   3.743
45713W        W18006  13.834  39.848   1.379
45714W        W18007  15.629  11.305   2.691
45715W        W18008  39.465  14.831  10.953
45716W        W18009   2.445   0.328  13.846
45717W        W18010  30.443   9.653   1.755
45718W        W18011   0.950  35.549  13.051
45719W        W18012  11.780  33.525  11.024
45720W        W18013  31.475  41.019   1.226
45721W        W18014  26.597  42.347   2.212
45722W        W18015  20.534  14.321  14.347
45723W        W18016  43.931  12.202   2.210
45724W        W18017   7.759   7.224  12.067
45725W        W18018  40.518  40.034  12.056
45726W        W18019   4.932  23.566  14.475
45727W        W18020  23.530   4.706   5.602
45728W        W18021  21.257   4.906  10.479
45729W        W18022   7.404  17.558   2.703
45730W        W18023   4.233  23.063  10.551
45731W        W18024   4.878  21.527   3.857
45732W        W18025   1.343  37.045   2.322
45733W        W18026   0.352   5.733  13.453
45734W        W18027   9.200  17.684   4.292
45735W        W18028  33.926  28.519  12.481
45736W        W18029  11.200  29.535  11.518
45737W        W18030  28.026  22.162   0.378
45738W        W18031  31.002  30.053  12.892
45739W        W18032  22.588  18.106  11.452
45740W        W18033  11.754  42.031  11.477
45741W        W18034  14.703  38.825  14.950
45742W        W18035  12.262  20.216   1.889
45743W        W18036  39.318  33.906  13.024
45744W        W18037  25.538  13.280   1.912
45745W        W18038  25.629  10.172   3.368
45746W        W18039  35.950  17.762  13.965
45747W        W18040  42.950   8.197  13.318
45748W        W18041  26.971  22.103   1.401
45749W        W18042   5.924  30.429  12.370
45750W        W18043  38.478  24.188  12.836
45751W        W18044  22.712  26.134   1.749
45752W        W18045   4.739  29.172   1.368
45753W        W18046  32.437  24.491   0.898
45754W        W18047   0.763  41.335   1.303
45755W        W18048  40.854  13.612  11.949
45756W        W18049   0.875  20.152   2.843
45757W        W18050   4.401   6.704  14.508
45758W        W18051  37.018  37.905   4.651
45759W        W18052   2.355  20.035   4.649
45760W        W18053  33.594  14.749   4.114
45761W        W18054  26.038   6.212  14.364
45762W        W18055  38.995  22.504   1.422
45763W        W18056  23.212  27.129   3.264
45764W        W18057   6.278   0.268  12.853
45765W        W18058  11.762   2.417  12.859
45766W        W18059  40.846  29.452  10.892
45767W        W18060  19.546  20.121   4.669
45768W        W18061   7.849  27.592  14.984
45769W        W18062  28.624  29.622  14.496
45770W        W18063  40.523  40.028  11.380
45771W        W18064  39.482  36.583   0.332
45772W        W18065  27.022  16.741   0.390
45773W        W18066  27.046  37.949   3.846
45774W        W18067  11.733  25.206   2.384
45775W        W18068  28.673  39.836   4.161
45776W        W18069  27.190  30.532  11.598
45777W        W18070  42.456   3.301  14.846
45778W        W18071  14.176   1.777  13.439
45779W        W18072  30.641  21.548   1.303
45780W        W18073  14.602  29.045  10.034
45781W        W18074  36.867   7.277  14.491
45782W        W18075  30.614   3.884   1.250
45783W        W18076  31.911  39.809  11.102
45784W        W18077  14.319  26.572   0.403
45785W        W18078   3.262  11.675   1.813
45786W        W18079  32.473   8.829   5.668
45787W        W18080  22.203  28.030  12.852
45788W        W18081  11.720  16.295   0.809
45789W        W18082  21.206  15.772   0.294
45790W        W18083  16.744  33.429   3.301
45791W        W18084  42.291   6.908  14.991
45792W        W18085  42.981  21.039  11.024
45793W        W18086  19.051  13.710   0.306
45794W        W18087   5.241  35.569   3.671
45795W        W18088  39.043  20.176  13.529
45796W        W18089  35.509  38.862   3.811
45797W        W18090  11.698  35.473   0.483
45798W        W18091  19.690  20.082   1.774
45799W        W18092  24.034  34.986   2.284
45800W        W18093  41.530  22.551  10.528
45801W        W18094  24.225   7.220  14.776
45802W        W18095  18.776  31.044   0.874
45803W        W18096  17.702  40.028   0.808
45804W        W18097  43.359  42.392  11.438
45805W        W18098  42.023  12.818  10.150
45806W        W18099  11.160   1.457   3.742
45807W        W18100  14.653  15.183   4.188
45808W        W18101  42.449  41.460  13.350
45809W        W18102  12.194  20.581   4.704
45810W        W18103  44.926  25.183  13.961
45811W        W18104  26.205  38.947  10.905
45812W        W18105  15.325  14.116   1.862
45813W        W18106  17.614  20.110  12.473
45814W        W18107  36.080   3.860   5.231
45815W        W18108   1.808  32.024   0.358
45816W        W18109  37.336   6.800  12.454
45817W        W18110  10.667  42.512   3.383
45818W        W18111  19.651   7.306  11.488
45819W        W18112  19.773   0.456   3.370
45820W        W18113  44.414   6.899  12.400
45821W        W18114   5.287   8.231   4.212
45822W        W18115   8.266  10.712  13.046
45823W        W18116  18.197  24.648  10.627
45824W        W18117  18.215  31.627   0.841
45825W        W18118   3.790   5.812   0.401
45826W        W18119  12.712  26.588  14.444
45827W        W18120  20.127  43.502  10.552
45828W        W18121  22.572  20.721   2.386
45829W        W18122  15.124  43.349   4.791
45830W        W18123  35.423   9.163  11.532
45831W        W18124  18.718   5.776  11.074
45832W        W18125  18.239  24.725  13.422
45833W        W18126   6.252  30.441  11.381
45834W        W18127  12.174  42.982  10.910
45835W        W18128  28.154   2.357  10.420
45836W        W18129   5.221  12.711   2.810
45837W        W18130  10.286  32.966  12.528
45838W        W18131  36.871   1.818  11.465
45839W        W18132  16.259  17.181   4.832
45840W        W18133   6.224   2.346   4.708
45841W        W18134  17.103  31.557  11.420
45842W        W18135   3.924   1.418   0.818
45843W        W18136  43.380   0.756  13.953
45844W        W18137  30.640  40.382   0.902
45845W        W18138   8.293  37.431   2.315
45846W        W18139  42.505  14.282   1.254
45847W        W18140  39.838   1.911  13.021
45848W        W18141  22.659  20.093  12.510
45849W        W18142  43.488   2.331  11.497
45850W        W18143   4.332  44.962   3.849
45851W        W18144  14.184  27.959   3.224
45852W        W18145  20.208  44.289  12.849
45853W        W18146  11.294  15.759  10.532
45854W        W18147  42.971  16.090   5.271
45855W        W18148   8.776  30.582  13.901
45856W        W18149  38.999  24.720   4.147
45857W        W18150  10.182  18.609  12.058
45858W        W18151  19.552   1.804  13.987
45859W        W18152  39.325  38.950   3.244
45860W        W18153  25.112  35.093   4.351
45861W        W18154  32.887   4.921  10.632
45862W        W18155   6.228  32.992  13.994
45863W        W18156  44.361  44.277  12.361
45864W        W18157  33.481   3.883   3.761
45865W        W18158  37.416  15.185  14.891
45866W        W18159  37.405  40.031  11.399
45867W        W18160  30.037  22.226   4.738
45868W        W18161  10.279  42.891   4.189
45869W        W18162  39.057  28.138   2.217
45870W        W18163   7.304  16.268   1.408
45871W        W18164  38.926   8.885  10.128
45872W        W18165  10.658   9.178   3.164
45873W        W18166  28.996   0.424  14.958
45874W        W18167  24.654  21.182  12.876
45875W        W18168   8.849  22.205   4.675
45876W        W18169  15.085  38.568  14.406
45877W        W18170  40.963  44.411   1.235
45878W        W18171   5.300  22.222  12.964
45879W        W18172  29.610  14.130  11.377
45880W        W18173  35.070  27.170  11.475
45881W        W18174  44.824  20.563   2.795
45882W        W18175  44.824  28.566   3.174
45883W        W18176  28.978  29.926  14.334
45884W        W18177  22.082  14.107   2.332
45885W        W18178  23.600  26.633  12.412
45886W        W18179  36.945  41.975  11.985
45887W        W18180  26.571  35.443   5.230
45888W        W18181  17.106  42.008  10.515
45889W        W18182   5.243   9.878   0.317
45890W        W18183  39.407  39.885  14.281
45891W        W18184  13.154  44.457   2.228
45892W        W18185  17.231  40.508   2.761
45893W        W18186  17.226  19.272   3.704
45894W        W18187  44.807  35.519   0.345
45895W        W18188  24.046  27.043  14.996
45896W        W18189   0.986   4.220   1.313
45897W        W18190  42.816  26.563  12.374
45898W        W18191  31.443  24.137   1.340
45899W        W18192  42.952  30.581   4.664
45900W        W18193  26.612  40.430   0.784
45901W        W18194  23.026   7.855   3.179
45902W        W18195  25.615   5.232   4.664
45903W        W18196  12.706  35.489  12.928
45904W        W18197  14.237  33.918   3.655
45905W        W18198  25.104   7.344   3.199
45906W        W18199  27.169  17.079  13.415
45907W        W18200   3.754  17.172   1.840
45908W        W18201  11.229  32.396   2.728
45909W        W18202  12.198   6.740   1.741
45910W        W18203  35.921  20.121   0.879
45911W        W18204  42.948  15.215  11.922
45912W        W18205  15.781  18.246  11.506
45913W        W18206  22.075  12.341   4.120
45914W        W18207  30.109  14.282  13.033
45915W        W18208   3.351  24.213   4.235
45916W        W18209  30.505  17.754   3.291
45917W        W18210  28.129  23.020  13.334
45918W        W18211  29.602   4.231  11.122
45919W        W18212  21.177   9.326  11.889
45920W        W18213  32.439  17.157  14.849
45921W        W18214  20.619  13.336  14.398
45922W        W18215  44.905  40.020   3.722
45923W        W18216  29.639  19.693   3.275
45924W        W18217  10.725  13.767  12.379
45925W        W18218   0.277   6.218   0.751
45926W        W18219   0.906  19.734   1.727
45927W        W18220  28.598  30.413  11.110
45928W        W18221  23.667  31.036   0.283
45929W        W18222  26.656   6.684   1.833
45930W        W18223  44.396   1.908  10.069
45931W        W18224  44.495  30.566   2.325
45932W        W18225  37.405   3.773   1.261
45933W        W18226   3.743   8.801  10.889
45934W        W18227  17.072  44.464  13.370
45935W        W18228  25.628  36.075   1.759
45936W        W18229   7.300  32.479   0.829
45937W        W18230  14.714  16.751   3.189
45938W        W18231  27.145  32.036   1.447
45939W        W18232  15.673   3.832  11.033
45940W        W18233  18.105  40.538  12.496
45941W        W18234  31.951  20.241   1.728
45942W        W18235  34.561  24.164   2.386
45943W        W18236  11.823  33.919   4.145
45944W        W18237   7.808  37.537   2.380
45945W        W18238  41.292  31.118   1.264
45946W        W18239  25.532  35.062   0.367
45947W        W18240  16.775  42.913   2.701
45948W        W18241  16.623  35.527   4.655
45949W        W18242  12.252  16.694  12.411
45950W        W18243  37.517  44.921   3.275
45951W        W18244  19.058  26.076  10.553
45952W        W18245   2.725  22.583   0.361
45953W        W18246   5.801  18.268  12.919
45954W        W18247  21.134  23.210   2.303
45955W        W18248  12.294  23.090  13.824
45956W        W18249  30.087  41.320  13.525
45957W        W18250  36.870  37.558  11.954
45958W        W18251  22.614  14.215   2.884
45959W        W18252  26.560  24.152   4.718
45960W        W18253  27.060  34.946   3.267
45961W        W18254  39.386  33.598  11.539
45962W        W18255  10.869  16.148  12.885
45963W        W18256   8.331  27.144  10.549
45964W        W18257  22.247  31.982  10.989
45965W        W18258  22.676  15.594   2.197
45966W        W18259  23.997  10.318  11.394
45967W        W18260   2.343  13.239   1.414
45968W        W18261   3.403   4.347   0.775
45969W        W18262   7.411  24.523  11.528
45970W        W18263  16.725   1.877   0.826
45971W        W18264   5.339  28.058  11.582
45972W        W18265  16.689  12.318  11.115
45973W        W18266  28.645  14.263   3.676
45974W        W18267   0.346  34.959   3.186
45975W        W18268  12.284  21.189   1.322
45976W        W18269  32.551  25.103  13.333
45977W        W18270  27.526   8.892   2.409
45978W        W18271  37.547  36.970   2.889
45979W        W18272  41.029  21.513   3.751
45980W        W18273  18.262  26.615   1.214
45981W        W18274  14.261  38.553  10.604
45982W        W18275   6.808  10.263   1.864
45983W        W18276  27.574   5.433  12.050
45984W        W18277  25.491   6.213  11.061
45985W        W18278  32.443   6.848  10.437
45986W        W18279   8.284  25.650  10.412
45987W        W18280  34.021  29.088   3.234
45988W        W18281  26.121  25.971  11.976
45989W        W18282   8.725   4.864  13.545
45990W        W18283  25.501  32.525   4.273
45991W        W18284  15.615  35.945   2.406
45992W        W18285  28.068   7.829  11.372
45993W        W18286  27.508  15.302  10.520
45994W        W18287  38.411  42.283   3.286
45995W        W18288  10.270  23.126  13.459
45996W        W18289  34.876  44.491  14.362
45997W        W18290  42.289  35.937   3.744
45998W        W18291  17.140  32.573  11.464
45999W        W18292  19.714  44.947  12.445
46000W        W18293  20.183  26.600  13.327
46001W        W18294  18.059   1.755   2.289
46002W        W18295  25.169  23.593  12.437
46003W        W18296  30.953   4.403  12.993
46004W        W18297  25.537   6.695  13.938
46005W        W18298  36.927   4.936   4.760
46006W        W18299  11.837  33.115   3.861
46007W        W18300  12.180  10.171  11.001
46008W        W18301  23.726  20.668  10.532
46009W        W18302   2.258  24.506  10.604
46010W        W18303  43.779  11.817  14.911
46011W        W18304  10.754  31.522  11.891
46012W        W18305  19.574  29.925  14.991
46013W        W18306  37.575   8.807  12.086
46014W        W18307   4.338  16.217   2.279
46015W        W18308  21.242   6.707  14.811
46016W        W18309  39.883  35.417  13.829
46017W        W18310  32.975  34.946   2.276
46018W        W18311  31.409  25.474   0.268
46019W        W18312   4.401   1.820  14.768
46020W        W18313   6.306  43.899   1.304
46021W        W18314  41.786  22.129  13.854
46022W        W18315  18.153   4.340  11.603
46023W        W18316  23.044  34.518  13.811
46024W        W18317  10.865  44.770   3.843
46025W        W18318  38.964  14.688   9.958
46026W        W18319  20.657  18.657  14.310
46027W        W18320  25.708   1.812  10.587
46028W        W18321   2.817  25.186  10.521
46029W        W18322  26.108  10.859   2.326
46030W        W18323   8.383  43.980   1.717
46031W        W18324  40.879  39.415   3.644
46032W        W18325   4.811  34.932   1.816
46033W        W18326   7.816   8.283   2.302
46034W        W18327  14.185   4.385   1.865
46035W        W18328  36.003   7.293  14.929
46036W        W18329  14.673   6.302   4.678
46037W        W18330   6.298  26.627   4.203
46038W        W18331   9.202  42.948   0.410
46039W        W18332  17.705   2.278   1.744
46040W        W18333  20.620  31.459  11.945
46041W        W18334  43.272  43.417  13.345
46042W        W18335  32.527  25.514   3.815
46043W        W18336  29.940  17.285   4.604
46044W        W18337   0.956   3.220  13.534
46045W        W18338  17.140   3.215   2.740
46046W        W18339  40.865  17.689   3.283
46047W        W18340  19.602  30.057   2.815
46048W        W18341   5.849  42.816   3.318
46049W        W18342   5.858  39.559   3.780
46050W        W18343  30.982  25.561   0.736
46051W        W18344  37.042   4.919  13.424
46052W        W18345  40.823  29.023   4.681
46053W        W18346  12.172   4.252  12.417
46054W        W18347   5.715  14.115   4.138
46055W        W18348  10.294  28.975  12.445
46056W        W18349  41.530  19.103   0.367
46057W        W18350  13.212  18.229  14.763
46058W        W18351   8.246  20.709   2.887
46059W        W18352  30.955   9.885  13.947
46060W        W18353  41.440  29.133  11.882
46061W        W18354  24.139  12.851   3.656
46062W        W18355   5.873   6.867   3.345
46063W        W18356  42.472  38.489  14.419
46064W        W18357  22.231  10.807  14.963
46065W        W18358  20.760  19.070  12.925
46066W        W18359  26.116   9.329  11.966
46067W        W18360  13.664  26.564  12.092
46068W        W18361  29.544  23.222  12.486
46069W        W18362  27.963  11.166  10.427
46070W        W18363  37.084   2.773   2.330
46071W        W18364  28.959  14.803  12.407
46072W        W18365  39.528   4.226  11.595
46073W        W18366  27.107  37.087  10.618
46074W        W18367  28.159  10.768  13.536
46075W        W18368  25.085  44.317  10.077
46076W        W18369  27.178  43.498  14.489
46077W        W18370  30.070   1.356  13.792
46078W        W18371  22.165  43.976   2.337
46079W        W18372  44.966  18.556   3.188
46080W        W18373  29.123  42.790  10.456
46081W        W18374  22.048  28.522   1.252
46082W        W18375   2.935  15.730  10.568
46083W        W18376   7.218  42.435  12.575
46084W        W18377  42.801  24.171   2.178
46085W        W18378  30.983   8.378  14.460
46086W        W18379   0.742  13.797   4.606
46087W        W18380  12.250  22.551  12.927
46088W        W18381   0.469   7.763  12.841
46089W        W18382  12.691  37.541   2.319
46090W        W18383  15.120  35.915  12.405
46091W        W18384  32.039   5.891  12.029
46092W        W18385  32.953  33.552  13.463
46093W        W18386  23.012   0.775   3.754
46094W        W18387  33.608  13.759  13.834
46095W        W18388  16.600   3.286  11.429
46096W        W18389  37.562   2.833  12.083
46097W        W18390  33.960   3.771   4.271
46098W        W18391   0.404  35.860   0.867
46099W        W18392  41.929  38.535   2.791
46100W        W18393  22.706   4.431  13.525
46101W        W18394  23.120  34.564   3.720
46102W        W18395  14.331   0.327  12.997
46103W        W18396  35.891  13.685   4.642
46104W        W18397  19.060  13.638   4.277
46105W        W18398  14.192   7.393   0.945
46106W        W18399  16.600   3.417  11.038
46107W        W18400  21.686   9.710   0.470
46108W        W18401  42.474  41.470   4.657
46109W        W18402   6.799   4.862   4.291
46110W        W18403  39.017  36.019   2.267
46111W        W18404   7.250  33.552  11.057
46112W        W18405   4.883   9.681   4.267
46113W        W18406  28.026   1.427  11.420
46114W        W18407  43.351   3.344  11.428
46115W        W18408  33.585  35.866   0.318
46116W        W18409   6.757  41.007  14.362
46117W        W18410  23.699  41.953   1.234
46118W        W18411  41.876  35.857  14.348
46119W        W18412  30.640   7.692  13.844
46120W        W18413  29.472  34.505   4.619
46121W        W18414  37.469  14.653  13.902
46122W        W18415  35.440   1.377   2.790
46123W        W18416  43.439  12.359   1.284
46124W        W18417  40.419  32.635  10.470
46125W        W18418  16.127  37.561  12.354
46126W        W18419  21.536  12.706   4.285
46127W        W18420  40.818  25.506   4.326
46128W        W18421  18.756  32.429  14.382
46129W        W18422  30.590  42.333   0.751
46130W        W18423   2.862  21.728   0.258
46131W        W18424  15.129  26.101   1.892
46132W        W18425   0.282  24.997  13.337
46133W        W18426  10.815   9.385   2.824
46134W        W18427   3.835  43.369   4.244
46135W        W18428  11.275   8.742   3.330
46136W        W18429  22.172   3.387  12.349
46137W        W18430  42.804  20.096   1.908
46138W        W18431  23.240  22.076  11.074
46139W        W18432   8.785  29.040  13.310
46140W        W18433  35.032   6.703   1.841
46141W        W18434   5.833  22.009   0.855
46142W        W18435  42.798  38.459   2.798
46143W        W18436  15.317   0.755   0.882
46144W        W18437  19.126   4.712  11.381
46145W        W18438  43.002  19.085   1.389
46146W        W18439  40.303  22.229  12.510
46147W        W18440   1.737   4.262   4.155
46148W        W18441   2.462  19.069  11.408
46149W        W18442   8.733  43.825   0.299
46150W        W18443  14.724  16.593  10.940
46151W        W18444  18.750  25.184  14.402
46152W        W18445  28.457   2.343   3.362
46153W        W18446   0.480  29.111  13.886
46154W        W18447  30.005  13.628   3.653
46155W        W18448   5.723  16.161  10.959
46156W        W18449  32.581   8.854   0.838
46157W        W18450  26.955   2.230   4.790
46158W        W18451  27.525   3.428   0.277
46159W        W18452  40.975  41.296   3.312
46160W        W18453  42.938   4.249  10.151
46161W        W18454  22.143   2.734   2.844
46162W        W18455  35.971  18.609   5.240
46163W        W18456  21.037   3.861  14.505
46164W        W18457  21.553  38.043  13.798
46165W        W18458  16.648  36.914  10.574
46166W        W18459  13.108  40.812   3.834
46167W        W18460  40.977   1.774   3.779
46168W        W18461   3.278  20.100  13.328
46169W        W18462   2.236  34.963   1.770
46170W        W18463  10.201  34.453  10.536
46171W        W18464   4.875  41.847  13.543
46172W        W18465  22.664  43.864  10.475
46173W        W18466  12.726  34.403   3.270
46174W        W18467  44.863   6.256   2.829
46175W        W18468  23.229  36.925   4.703
46176W        W18469  37.020   5.808  13.937
46177W        W18470  10.767  26.477   1.434
46178W        W18471  23.643  29.500  14.010
46179W        W18472  13.161  33.057  13.337
46180W        W18473  23.037  35.980  13.996
46181W        W18474  16.092  15.607  10.436
46182W        W18475  21.204  31.542   3.257
46183W        W18476  13.646  23.985  10.611
46184W        W18477   6.409  27.585   1.714
46185W        W18478  25.983  20.677  14.861
46186W        W18479  34.869  28.444  12.459
46187W        W18480  30.125   9.683   3.233
46188W        W18481  11.632  31.978   2.232
46189W        W18482  14.239  12.811  13.333
46190W        W18483  22.067  21.161  11.113
46191W        W18484  24.511  43.860   1.858
46192W        W18485  29.132  19.232   0.879
46193W        W18486  25.135  28.972  12.479
46194W        W18487  29.608   7.845  14.415
46195W        W18488  19.661   1.397  12.509
46196W        W18489  24.587  37.466  12.908
46197W        W18490  37.358  42.415   0.392
46198W        W18491  17.280  34.888  13.530
46199W        W18492   9.151  18.594  11.560
46200W        W18493  18.628   0.829  14.945
46201W        W18494   3.232  23.583   0.479
46202W        W18495   8.896   5.204   3.285
46203W        W18496  19.109   3.373  14.486
46204W        W18497   1.940  22.213  13.918
46205W        W18498  41.787   0.322   5.292
46206W        W18499  31.045  16.671  13.986
46207W        W18500  20.750  14.145   0.785
46208W        W18501  20.074  17.656  12.089
46209W        W18502  13.838  15.652  12.409
46210W        W18503  33.037  32.609   1.348
46211W        W18504  40.946  43.908  13.359
46212W        W18505   3.228  28.056  13.005
46213W        W18506  40.920   3.715   2.269
46214W        W18507  13.816  19.708  11.420
46215W        W18508  25.063   4.271  11.101
46216W        W18509  43.819  22.235   3.633
46217W        W18510  30.521  22.606   1.231
46218W        W18511   9.874  32.004  12.397
46219W        W18512  20.594  34.876  11.868
46220W        W18513  29.081   0.329   1.780
46221W        W18514  37.501  39.003  12.446
46222W        W18515  29.983  37.481  12.379
46223W        W18516  29.950   7.363  14.831
46224W        W18517  30.467  27.622  10.450
46225W        W18518   3.247  15.166   0.819
46226W        W18519  17.644   1.449  13.327
46227W        W18520   8.385  32.063   5.089
46228W        W18521  19.728  37.376  14.449
46229W        W18522  13.843  23.997   1.362
46230W        W18523  12.785  13.319   0.900
46231W        W18524   2.249  19.562   9.927
46232W        W18525  10.769  40.020   4.127
46233W        W18526  21.054  28.497   2.352
46234W        W18527  42.938   4.879  11.884
46235W        W18528  44.946  21.528   3.165
46236W        W18529  12.185   9.239   0.728
46237W        W18530  21.736  24.205   4.130
46238W        W18531   9.710  23.020   0.870
46239W        W18532  23.080  38.926  11.385
46240W        W18533  11.735  23.110   1.311
46241W        W18534  17.230  14.662  12.544
46242W        W18535  21.141  24.984  10.956
46243W        W18536  38.556   5.395   2.733
46244W        W18537  30.499  28.175  11.060
46245W        W18538  43.910  12.687   1.809
46246W        W18539  44.891  19.548  14.860
46247W        W18540  14.152  27.575   3.355
46248W        W18541  40.827  43.333  10.561
46249W        W18542  35.481   7.827   1.210
46250W        W18543  11.849   4.415  14.952
46251W        W18544  12.712   5.823  13.343
46252W        W18545  11.338  32.107   1.283
46253W        W18546   2.927  40.045   1.311
46254W        W18547  15.263   4.404  11.075
46255W        W18548  40.348   4.391   2.757
46256W        W18549  25.493  44.795   0.378
46257W        W18550  15.293   3.353   1.811
46258W        W18551  16.086  17.726   0.863
46259W        W18552  38.832   9.743  13.990
46260W        W18553  37.929  25.163   1.870
46261W        W18554   6.408  16.189   0.759
46262W        W18555  31.989  14.688   4.717
46263W        W18556  39.537  31.935   4.634
46264W        W18557  20.708  13.226  11.961
46265W        W18558  21.034  11.169  10.102
46266W        W18559  30.496  44.345  10.571
46267W        W18560  25.036  35.521   0.867
46268W        W18561  39.052  28.137   2.793
46269W        W18562  31.523  14.119   3.272
46270W        W18563  39.825  40.933   4.723
46271W        W18564   4.374  35.919   0.243
46272W        W18565  25.081  25.123  14.382
46273W        W18566  31.632   9.693   3.184
46274W        W18567  42.469  24.505  14.986
46275W        W18568  33.510  11.368   0.299
46276W        W18569  35.591  10.682   2.691
46277W        W18570  22.683   0.878   1.384
46278W        W18571  21.097   2.235   4.672
46279W        W18572  19.247  14.094   0.359
46280W        W18573  34.018  32.123  13.416
46281W        W18574   0.485   0.937  14.361
46282W        W18575   9.329   4.893   1.305
46283W        W18576  43.912  25.626  10.985
46284W        W18577  29.520  23.715  12.869
46285W        W18578  32.000  31.551   3.204
46286W        W18579  31.002   5.293  11.533
46287W        W18580   3.332  32.492  14.383
46288W        W18581  40.831  10.339   0.474
46289W        W18582   4.346  29.535  13.329
46290W        W18583  41.467   5.915   1.258
46291W        W18584   9.334   5.367   3.231
46292W        W18585  35.435  42.867  13.545
46293W        W18586  17.559  40.508  12.425
46294W        W18587  20.122  22.724   2.689
46295W        W18588  22.247  24.630   2.782
46296W        W18589  43.788  10.690  14.875
46297W        W18590   0.972  39.041   2.288
46298W        W18591  12.825  30.158   1.349
46299W        W18592  27.618  35.060   2.230
46300W        W18593   1.747  30.158   4.185
46301W        W18594  20.588  39.343   0.302
46302W        W18595  35.373  20.139  10.501
46303W        W18596  23.605  36.412   4.832
46304W        W18597  24.065  37.979  11.436
46305W        W18598  29.608  12.661   3.230
46306W        W18599  35.092   6.418   1.764
46307W        W18600   9.160  22.714   4.643
46308W        W18601  10.834  26.574   0.310
46309W        W18602  10.720  29.582  13.875
46310W        W18603  14.640  24.024   3.190
46311W        W18604  39.370  42.941  12.390
46312W        W18605  43.487  41.409   1.914
46313W        W18606  34.494  17.758   2.255
46314W        W18607  24.993  32.087  12.355
46315W        W18608  18.687  28.587  10.905
46316W        W18609  43.380   9.362   3.293
46317W        W18610  29.053   1.920   2.365
46318W        W18611   7.703  44.901  12.867
46319W        W18612  17.291  19.701   0.402
46320W        W18613   1.262  13.642   4.181
46321W        W18614  28.070  33.383   1.229
46322W        W18615  32.061   7.748  10.506
46323W        W18616  15.651   3.321  12.011
46324W        W18617  41.421  20.127   0.900
46325W        W18618   2.858  42.858  12.365
46326W        W18619   0.898  22.628  11.390
46327W        W18620  30.574  22.629  14.347
46328W        W18621  42.984  26.206   2.886
46329W        W18622   5.372  21.716  14.338
46330W        W18623   4.725   8.756   0.903
46331W        W18624  23.992  32.473  11.122
46332W        W18625   6.868   6.690  10.611
46333W        W18626  38.402   7.244   1.902
46334W        W18627  44.877   1.318   1.777
46335W        W18628  43.466   6.426  14.328
46336W        W18629  41.527  10.647   0.820
46337W        W18630   5.394  28.051   0.748
46338W        W18631  16.298  36.068  12.417
46339W        W18632  11.136  13.178   2.409
46340W        W18633  40.954  16.667   4.779
46341W        W18634   1.372  16.716   2.668
46342W        W18635  24.663  29.480   3.325
46343W        W18636   2.795  29.974   1.700
46344W        W18637  37.077   0.774   3.769
46345W        W18638  35.600  42.979   0.244
46346W        W18639  37.926  44.873   4.632
46347W        W18640  37.036  25.664  12.049
46348W        W18641  12.719  41.399  11.414
46349W        W18642   6.317   9.827  10.939
46350W        W18643   8.892  10.648   3.739
46351W        W18644  28.637  13.680  10.617
46352W        W18645  44.327  18.129  14.354
46353W        W18646  39.400  27.459   3.657
46354W        W18647  16.666   6.316   0.756
46355W        W18648   7.285  27.566  11.484
46356W        W18649  15.714  43.511  13.412
46357W        W18650  30.040   9.732   1.906
46358W        W18651   5.746   6.224  12.452
46359W        W18652  37.517  21.663  12.348
46360W        W18653   1.349  41.527  10.431
46361W        W18654  14.608  11.822   2.881
46362W        W18655   7.803   9.774   0.383
46363W        W18656  19.081   2.340  11.855
46364W        W18657  32.410  23.224   3.220
46365W        W18658   0.745  42.281  14.900
46366W        W18659  22.611  31.531  14.440
46367W        W18660  25.570  10.321  12.441
46368W        W18661   3.726  35.541  12.003
46369W        W18662  39.830  23.595  14.798
46370W        W18663   9.156  38.895   3.699
46371W        W18664  12.192  33.896   0.750
46372W        W18665  43.874   9.333   3.815
46373W        W18666  15.811  35.463  12.523
46374W        W18667  29.478  42.891  11.107
46375W        W18668  21.696  12.192   2.773
46376W        W18669  19.224  11.221  12.435
46377W        W18670  43.959  24.020   1.391
46378W        W18671  11.366   4.821  11.407
46379W        W18672  41.324  11.289   3.259
46380W        W18673   1.775  11.728  13.443
46381W        W18674   1.974  38.995  11.896
46382W        W18675  14.094  31.575   4.819
46383W        W18676  35.445   9.884   4.749
46384W        W18677  42.848  22.642  11.999
46385W        W18678  13.138   0.867  12.038
46386W        W18679   2.811  12.362  13.322
46387W        W18680  17.112  21.028   2.340
46388W        W18681   8.863  17.072  12.019
46389W        W18682   4.732   6.197  13.950
46390W        W18683  37.362   1.246  12.862
46391W        W18684   1.817  44.941  11.105
46392W        W18685  43.902   6.849   2.380
46393W        W18686  26.567  28.170   4.799
46394W        W18687  40.810  14.652   2.882
46395W        W18688   5.251  31.920   4.664
46396W        W18689  44.270  28.021  10.507
46397W        W18690  44.468  44.781   1.251
46398W        W18691   7.835  37.847  12.970
46399W        W18692  26.036  27.173  12.870
46400W        W18693  29.532  20.616   4.233
46401W        W18694  30.975   4.880   0.894
46402W        W18695  32.489  20.243  10.608
46403W        W18696  12.809  22.725  11.962
46404W        W18697  11.252  19.198   0.963
46405W        W18698  37.930  24.028  13.872
46406W        W18699   1.792   3.245   5.253
46407W        W18700  15.735  43.809  13.448
46408W        W18701  14.720  16.140  12.865
46409W        W18702  29.584  22.125  11.537
46410W        W18703  12.786   1.923   2.405
46411W        W18704   7.855  18.704  10.544
46412W        W18705  33.928  41.537   0.312
46413W        W18706  27.940  12.817   0.425
46414W        W18707  25.019  34.547   0.961
46415W        W18708  39.369  13.760  14.971
46416W        W18709   5.437  38.049  14.970
46417W        W18710  11.694  15.275   4.649
46418W        W18711  30.633   1.239   2.799
46419W        W18712  28.965  20.092  13.043
46420W        W18713  17.261   8.172   0.735
46421W        W18714   7.762  23.640  10.894
46422W        W18715  28.623  25.156   1.775
46423W        W18716  18.104  11.671   3.261
46424W        W18717  11.854   8.694   2.903
46425W        W18718  25.068  38.337  14.031
46426W        W18719  12.266  12.774  14.298
46427W        W18720  19.051  10.304   4.754
46428W        W18721  42.938  33.595   4.309
46429W        W18722  23.987   1.464  10.117
46430W        W18723  30.027  40.008  14.498
46431W        W18724  28.553  24.996   0.442
46432W        W18725  18.137  21.191   2.190
46433W        W18726  27.126  30.011   1.367
46434W        W18727  35.432  28.643   1.902
46435W        W18728  24.050  25.664   3.797
46436W        W18729   5.367  37.985   0.276
46437W        W18730  21.108  14.115  12.057
46438W        W18731  38.567  18.260  10.936
46439W        W18732   4.773   5.313  14.337
46440W        W18733  30.125  18.286   4.149
46441W        W18734   9.805  25.015   0.962
46442W        W18735  25.640  43.966   0.931
46443W        W18736   0.469  29.532   3.704
46444W        W18737  23.001  33.429  11.986
46445W        W18738  29.133  44.785   1.733
46446W        W18739   9.331  28.953   2.667
46447W        W18740   2.327   4.208  10.602
46448W        W18741  26.066  16.645   1.903
46449W        W18742  30.104  14.758  14.821
46450W        W18743   8.664  12.177  14.823
46451W        W18744  43.956  22.636   3.739
46452W        W18745  31.913  19.580   4.614
46453W        W18746  13.166  12.776   3.362
46454W        W18747  37.492  10.324  14.830
46455W        W18748  26.622   3.912  12.424
46456W        W18749  38.547   6.311   3.296
46457W        W18750  34.882  30.955  10.890
46458W        W18751  20.068  17.689  13.527
46459W        W18752  23.596  40.412   1.753
46460W        W18753  18.661  27.960   4.305
46461W        W18754  12.300  20.209   3.701
46462W        W18755  40.936  20.037  13.371
46463W        W18756  26.121   2.935   4.806
46464W        W18757  21.579  16.674  14.816
46465W        W18758   0.893  39.503  12.465
46466W        W18759  36.384  43.516  12.008
46467W        W18760  13.255  27.025  10.919
46468W        W18761  18.740  26.974  12.882
46469W        W18762   8.818  43.931  10.940
46470W        W18763  40.452  35.527   0.873
46471W        W18764  34.031  20.526   3.781
46472W        W18765  30.024   2.730  10.549
46473W        W18766  17.201  15.822  13.042
46474W        W18767  11.209   6.326   3.848
46475W        W18768   9.752  20.157   0.916
46476W        W18769  21.071   7.212  12.037
46477W        W18770  20.539  28.495   1.707
46478W        W18771  30.437  37.450  10.941
46479W        W18772  33.578  22.607   2.699
46480W        W18773  27.516  43.953  11.015
46481W        W18774   6.902  41.883  10.524
46482W        W18775  35.490  13.704   1.845
46483W        W18776   1.274  32.501  13.473
46484W        W18777  30.650   3.246  10.905
46485W        W18778  30.642  27.470  10.894
46486W        W18779  29.662   1.843  11.907
46487W        W18780   2.306  12.741   0.939
46488W        W18781  16.780  40.408  14.295
46489W        W18782   1.837   5.747  11.538
46490W        W18783  44.810  10.803   1.808
46491W        W18784  33.010   7.786   0.922
46492W        W18785  28.954  37.843  10.930
46493W        W18786  37.411  36.996  11.897
46494W        W18787  23.495   9.880  14.015
46495W        W18788  16.074  39.865  14.759
46496W        W18789  27.196  33.062  13.370
46497W        W18790  18.110  41.348   1.231
46498W        W18791  16.082  39.543  11.912
46499W        W18792  22.606   7.876   2.264
46500W        W18793   7.335  36.518  14.826
46501W        W18794  14.698  43.767  11.606
46502W        W18795  13.720   0.783   0.937
46503W        W18796  27.078   1.436   1.213
46504W        W18797   9.228  12.836   3.733
46505W        W18798  19.770  14.602  11.407
46506W        W18799  23.599  20.214   4.226
46507W        W18800  19.710  33.080   0.272
46508W        W18801  11.196  35.005  13.895
46509W        W18802  34.546  28.597  13.014
46510W        W18803   1.453  22.009   1.367
46511W        W18804   9.770  36.083   9.982
46512W        W18805  40.835  32.540  14.381
46513W        W18806  37.465  10.191   1.360
46514W        W18807  11.624   9.212   1.274
46515W        W18808  33.884   1.819   2.298
46516W        W18809  35.049   1.350   2.800
46517W        W18810   6.418  17.674  10.913
46518W        W18811  33.606  15.198   4.251
46519W        W18812  21.252  25.205  14.909
46520W        W18813  34.894  38.389   4.122
46521W        W18814  41.313  11.740  14.867
46522W        W18815  18.762   5.425   2.712
46523W        W18816  14.109  31.937  12.396
46524W        W18817  13.260   8.845   5.264
46525W        W18818  33.075  44.760  12.991
46526W        W18819   7.179  24.499   0.382
46527W        W18820  35.554  18.213   1.251
46528W        W18821  37.032  19.192   3.219
46529W        W18822  20.062  12.287   1.276
46530W        W18823   0.383  40.994   0.962
46531W        W18824  23.517  35.859  13.474
46532W        W18825  44.460  13.745   1.407
46533W        W18826  21.147  28.143  14.802
46534W        W18827  26.515   6.803   4.291
46535W        W18828   7.357  18.147   0.254
46536W        W18829  21.194  15.102  13.473
46537W        W18830   6.726  10.187   0.967
46538W        W18831  22.163  32.969  13.024
46539W        W18832  17.637  21.083   0.805
46540W        W18833   2.334  32.617   4.774
46541W        W18834  33.117   3.808   2.701
46542W        W18835  14.669  23.654   3.290
46543W        W18836  33.091  24.033  12.008
46544W        W18837   7.310  27.944   2.719
46545W        W18838   7.736  21.068  14.989
46546W        W18839  21.202  40.809   2.698
46547W        W18840  39.445  40.498   4.666
46548W        W18841  19.116  11.248  14.894
46549W        W18842  21.210  33.577  13.458
46550W        W18843  41.375  24.699  12.385
46551W        W18844  37.004  40.481  14.486
46552W        W18845   0.341  37.535   3.665
46553W        W18846   6.707  20.095  14.401
46554W        W18847   1.771  24.000   1.286
46555W        W18848   6.815  38.338  14.287
46556W        W18849  43.969  10.176  11.900
46557W        W18850  42.973  10.301  14.997
46558W        W18851  14.641  39.042  12.545
46559W        W18852  24.570  37.578   4.766
46560W        W18853  22.510  37.503  11.586
46561W        W18854  22.528  44.894  14.976
46562W        W18855   0.382  21.575   1.743
46563W        W18856  25.982   9.314  14.489
46564W        W18857  14.628  20.114   0.832
46565W        W18858  41.854  18.719   4.298
46566W        W18859  39.360  20.263  14.486
46567W        W18860  36.557  43.009   3.812
46568W        W18861  27.556  43.350   0.728
46569W        W18862  23.164  42.374   2.787
46570W        W18863  29.528  19.699   0.341
46571W        W18864  12.358  27.478  12.445
46572W        W18865  13.209  18.104   1.219
46573W        W18866   8.889  28.162  14.358
46574W        W18867  28.494  17.154  12.825
46575W        W18868  29.563  39.060  10.534
46576W        W18869   6.715   6.321   1.391
46577W        W18870  33.592  11.244   3.270
46578W        W18871  38.858  22.632   0.827
46579W        W18872   7.339  29.486  11.876
46580W        W18873  25.015  36.551  10.993
46581W        W18874  37.957  37.474   0.910
46582W        W18875   2.353   8.731   5.321
46583W        W18876  29.002  32.119  12.485
46584W        W18877  16.595   7.385   4.320
46585W        W18878  27.971  15.668   3.169
46586W        W18879  44.295  16.719   3.230
46587W        W18880  29.933  20.718   2.296
46588W        W18881   9.797   1.302   4.286
46589W        W18882  28.146  43.428   2.401
46590W        W18883  34.560  23.153  12.068
46591W        W18884  38.526  44.389   0.371
46592W        W18885  26.641  29.978  10.410
46593W        W18886  32.590  39.505   0.340
46594W        W18887  31.911  42.824   3.287
46595W        W18888   6.780  25.085  13.913
46596W        W18889  41.494  44.853  12.373
46597W        W18890  14.767  16.655   0.741
46598W        W18891  21.542  44.930   0.418
46599W        W18892   7.821  31.454   0.864
46600W        W18893  30.970   6.361   3.758
46601W        W18894  15.265  21.693  10.439
46602W        W18895  42.403  21.062   0.336
46603W        W18896  43.941  43.000   0.780
46604W        W18897  27.645  24.649   1.325
46605W        W18898  12.647  10.379   2.213
46606W        W18899  22.128  20.745   3.250
46607W        W18900   0.256  18.255  11.398
46608W        W18901  36.514  34.602  13.036
46609W        W18902  44.261   1.881  14.892
46610W        W18903  18.684  14.220  13.997
46611W        W18904  15.235   9.749   0.306
46612W        W18905  20.759   0.334   4.261
46613W        W18906  13.687   5.249   1.239
46614W        W18907  14.101  10.383   3.376
46615W        W18908  44.295  10.818  11.585
46616W        W18909  13.698  10.741  11.547
46617W        W18910   7.747  40.899  10.432
46618W        W18911   8.810  24.026  14.394
46619W        W18912  42.021  12.296   0.842
46620W        W18913  10.711   5.261   2.244
46621W        W18914  40.980  17.739   3.822
46622W        W18915   2.951  22.711  14.419
46623W        W18916  23.113   2.903   1.866
46624W        W18917  13.645  34.038  12.863
46625W        W18918   2.761   2.727  12.472
46626W        W18919  23.658   3.217   0.958
46627W        W18920  10.266  16.671   4.770
46628W        W18921   2.829  11.782   2.826
46629W        W18922  30.148  33.533   4.279
46630W        W18923  24.714   4.731  14.903
46631W        W18924   0.759  36.445   5.178
46632W        W18925   9.274  37.030   1.825
46633W        W18926  12.318   1.427  12.078
46634W        W18927  19.110  34.477   4.169
46635W        W18928   1.818  24.617   2.865
46636W        W18929   1.371   9.274  11.611
46637W        W18930  36.388  23.046   3.197
46638W        W18931  15.655  44.295   5.249
46639W        W18932  26.046  23.687   4.241
46640W        W18933  10.776  41.907   0.483
46641W        W18934  22.109  39.811   1.794
46642W        W18935  20.175  32.609  14.398
46643W        W18936  36.351  37.035   0.776
46644W        W18937   5.727   0.910   0.917
46645W        W18938   3.255  15.206   1.852
46646W        W18939   4.723  16.716  13.818
46647W        W18940  24.042  40.370   3.700
46648W        W18941  41.961  34.500  10.503
46649W        W18942  32.505  12.842  12.523
46650W        W18943  41.945   1.344   5.700
46651W        W18944   0.911  29.097  13.016
46652W        W18945  38.933   8.697   1.856
46653W        W18946  39.535  34.969  12.998
46654W        W18947  25.698  19.267  10.498
46655W        W18948   1.799  35.088   4.294
46656W        W18949  35.856  17.087  11.397
46657W        W18950  14.636  32.038  11.517
46658W        W18951   5.690  27.182   1.820
46659W        W18952  35.511  28.011  14.817
46660W        W18953  37.992   7.267   3.295
46661W        W18954  34.484  38.885  13.427
46662W        W18955  43.835   4.294  14.375
46663W        W18956  10.157   2.448   2.729
46664W        W18957  37.996  30.986  14.395
46665W        W18958  10.651  44.374   1.747
46666W        W18959  34.027   8.695  11.062
46667W        W18960  36.031  30.138   2.892
46668W        W18961  29.951  16.771  10.414
46669W        W18962  13.788  12.263  13.865
46670W        W18963  18.601   5.823   1.351
46671W        W18964   0.490  42.013  12.027
46672W        W18965  40.547   6.839  14.003
46673W        W18966  18.235  34.947  10.636
46674W        W18967  30.947  43.862  14.299
46675W        W18968  29.039   2.245   0.256
46676W        W18969  38.016  36.967  12.016
46677W        W18970   8.293  30.147   3.348
46678W        W18971  31.511  44.432   1.237
46679W        W18972  17.631  10.305  10.605
46680W        W18973  17.091  23.034  11.897
46681W        W18974  28.103  31.463  11.088
46682W        W18975  27.479  12.327  13.343
46683W        W18976  21.191  44.357   0.801
46684W        W18977  25.637   9.182   0.479
46685W        W18978  17.599   7.303  13.031
46686W        W18979  36.066  32.137  12.507
46687W        W18980  28.590  17.268  14.955
46688W        W18981  13.119   8.791  13.472
46689W        W18982  39.372   4.271   3.370
46690W        W18983  42.959  34.053  11.865
46691W        W18984  16.646  36.032  10.950
46692W        W18985  39.552  38.949  11.472
46693W        W18986   8.844  11.671  11.580
46694W        W18987  16.189  29.463   0.943
46695W        W18988   1.401  31.567   3.252
46696W        W18989  19.570  31.061  12.499
46697W        W18990  31.433  24.066  11.969
46698W        W18991  21.073   4.729  11.894
46699W        W18992   5.411   7.411   3.240
46700W        W18993  15.097  36.921   2.675
46701W        W18994  42.790  15.800  12.974
46702W        W18995  17.702  13.610   0.374
46703W        W18996  21.717  34.511   2.856
46704W        W18997   9.197  20.630  14.358
46705W        W18998  22.091   3.809  13.359
46706W        W18999  14.656  15.649  11.464
46707W        W19000   0.808   0.392   0.329
46708W        W19001  27.997  39.037  12.077
46709W        W19002  38.382  11.833   3.168
46710W        W19003  26.554  20.060   3.182
46711W        W19004  13.822   0.374  10.612
46712W        W19005  23.491  15.136   4.175
46713W        W19006  23.008  31.460   0.903
46714W        W19007   1.886  42.913  14.899
46715W        W19008   0.819  26.129   1.246
46716W        W19009  41.978  34.551  11.387
46717W        W19010  40.980  41.411   0.733
46718W        W19011  25.644  25.484  12.561
46719W        W19012   2.831  36.365   4.114
46720W        W19013  41.351  22.024   1.389
46721W        W19014  20.063   1.838  12.084
46722W        W19015  25.701   9.827  10.938
46723W        W19016   4.911  10.750  10.529
46724W        W19017  21.141  27.507   4.684
46725W        W19018  31.097  10.641  14.952
46726W        W19019  44.851  44.283   0.274
46727W        W19020  10.746   1.286  11.946
46728W        W19021   4.397  41.852  11.972
46729W        W19022  15.793   7.891  11.437
46730W        W19023  12.627  40.314  10.994
46731W        W19024  35.501   1.468  14.769
46732W        W19025  34.895  27.659  12.489
46733W        W19026  41.027  10.769   4.262
46734W        W19027  37.505  25.138   2.218
46735W        W19028   3.452   2.919  13.453
46736W        W19029   3.845  33.072   4.608
46737W        W19030  12.335  38.384  11.883
46738W        W19031  37.049  28.967  11.076
46739W        W19032  40.019  17.190   4.816
46740W        W19033   4.865  24.044  13.542
46741W        W19034  43.846  25.093   1.349
46742W        W19035  24.003  11.660  13.381
46743W        W19036  32.951  23.045  10.594
46744W        W19037  15.303  18.227   4.775
46745W        W19038  43.478   2.460   2.258
46746W        W19039  40.508  12.808  14.920
46747W        W19040   3.778  38.823  11.874
46748W        W19041  15.640  39.349  14.834
46749W        W19042  18.752  25.163   0.376
46750W        W19043  15.290  21.213  14.287
46751W        W19044  34.477  44.348   0.478
46752W        W19045  42.968  25.966  10.640
46753W        W19046  38.456   2.793  11.123
46754W        W19047  27.043  29.014   4.655
46755W        W19048  28.557  16.588  14.298
46756W        W19049  31.510  19.248   3.316
46757W        W19050  10.737  23.140   2.712
46758W        W19051  15.106  30.446   3.338
46759W        W19052  41.483   8.701   0.422
46760W        W19053  33.893  44.340  10.547
46761W        W19054  37.560   6.287   3.642
46762W        W19055  15.191  20.176  10.541
46763W        W19056   2.812  38.544  11.003
46764W        W19057  15.165  14.597   4.827
46765W        W19058  40.852  15.802   1.387
46766W        W19059   9.744  40.844   0.480
46767W        W19060  38.950  21.560   1.702
46768W        W19061  20.544  30.154   0.913
46769W        W19062   7.392  17.125   0.734
46770W        W19063   3.240  35.395  13.413
46771W        W19064  17.253  40.463  13.039
46772W        W19065   6.808  43.416   0.405
46773W        W19066  28.506   2.897  10.911
46774W        W19067  38.928  11.703  12.933
46775W        W19068  15.579   5.337  12.092
46776W        W19069  17.643   3.388  12.012
46777W        W19070  38.023  17.074  10.099
46778W        W19071  22.559   2.946   9.530
46779W        W19072  28.969  24.527   0.818
46780W        W19073   2.890  15.166  12.479
46781W        W19074  19.703  11.842   2.813
46782W        W19075   8.883  20.042   4.128
46783W        W19076  36.062  30.955  11.030
46784W        W19077  13.204  29.430   2.300
46785W        W19078  34.612  44.466   1.907
46786W        W19079   5.359  10.687  10.461
46787W        W19080  16.641  13.691  12.940
46788W        W19081  20.623  21.603  14.383
46789W        W19082  35.970  34.378   4.138
46790W        W19083  41.004  14.834  12.518
46791W        W19084  29.936   9.861   1.273
46792W        W19085  25.090  34.019  14.355
46793W        W19086  16.753   2.732  13.844
46794W        W19087  34.395  36.985  12.077
46795W        W19088   6.339  24.686  13.465
46796W        W19089  30.500   3.402   3.646
46797W        W19090  24.684  17.289   3.741
46798W        W19091  20.688  28.014   0.736
46799W        W19092   3.715  42.436   0.825
46800W        W19093  26.007  23.192  13.364
46801W        W19094   9.378   4.794   3.320
46802W        W19095  29.605  23.021   2.722
46803W        W19096  35.033  12.135   4.130
46804W        W19097  42.820  25.587   5.150
46805W        W19098  26.004   2.286   2.330
46806W        W19099  34.076  19.571   1.371
46807W        W19100  33.977   6.315   3.775
46808W        W19101  39.327  17.296   4.316
46809W        W19102  17.215  30.547  13.546
46810W        W19103  38.415   5.834   4.805
46811W        W19104   8.175  17.560   1.260
46812W        W19105  24.644   8.399  12.059
46813W        W19106   7.832  24.158   2.367
46814W        W19107   1.782  27.194  14.769
46815W        W19108  27.032  39.552   2.764
46816W        W19109   8.324  13.701  13.001
46817W        W19110   8.286  39.514   0.850
46818W        W19111   4.439  14.101   1.759
46819W        W19112   7.697  26.026  13.795
46820W        W19113  26.655   1.872  11.977
46821W        W19114  41.869  13.192   0.390
46822W        W19115   1.841  34.957  14.282
46823W        W19116  41.471  33.482  12.932
46824W        W19117  16.106  41.997  11.918
46825W        W19118   4.827  14.720  11.531
46826W        W19119   5.834   7.332  13.473
46827W        W19120  16.191  44.785  11.390
46828W        W19121  22.676  13.654  13.318
46829W        W19122  31.613   5.265  13.047
46830W        W19123  39.464  44.783   3.792
46831W        W19124  31.422  17.087   0.863
46832W        W19125  43.803  40.937  14.485
46833W        W19126   4.232  25.648  10.951
46834W        W19127  14.329  33.020  13.005
46835W        W19128   8.774   5.735  13.859
46836W        W19129  26.175  30.010   1.294
46837W        W19130   9.349  39.882  14.958
46838W        W19131  36.546  19.573  11.020
46839W        W19132   7.375  16.118  11.515
46840W        W19133  40.927  35.040   3.782
46841W        W19134  19.578   9.711   0.743
46842W        W19135  20.214  35.089  14.767
46843W        W19136  24.481   9.205  13.017
46844W        W19137  39.331   9.286  14.498
46845W        W19138  19.141  18.681   1.864
46846W        W19139  21.049  27.133  11.881
46847W        W19140  39.415   0.839   2.197
46848W        W19141   4.750  12.702   2.835
46849W        W19142  43.375  42.012  13.813
46850W        W19143  38.392  34.104   0.358
46851W        W19144  26.101  40.025  14.385
46852W        W19145   5.930  16.700   1.818
46853W        W19146  42.326  30.152  13.506
46854W        W19147  28.011  12.652  10.051
46855W        W19148  19.552  44.477  14.811
46856W        W19149  13.145  22.026   2.753
46857W        W19150  44.397  38.516  14.321
46858W        W19151  12.209  40.983   1.703
46859W        W19152  34.473  18.279   3.764
46860W        W19153  37.378  24.184   1.859
46861W        W19154  42.818  12.215  14.974
46862W        W19155  23.718  39.392  14.895
46863W        W19156  43.406  14.704   3.385
46864W        W19157  28.002   6.354  13.469
46865W        W19158  43.373  43.367  12.432
46866W        W19159  35.891   9.312   3.679
46867W        W19160   9.721   7.735   4.172
46868W        W19161  25.666  15.329  13.319
46869W        W19162   2.766   0.299   2.671
46870W        W19163  30.576   8.179   4.135
46871W        W19164   3.869  20.036   3.380
46872W        W19165   8.753  10.263   4.603
46873W        W19166  34.882  39.995  11.928
46874W        W19167   9.380  33.071  11.548
46875W        W19168  40.521  21.026   1.829
46876W        W19169  17.146  14.264   9.953
46877W        W19170  14.205  30.425   3.853
46878W        W19171   9.869  30.634  14.974
46879W        W19172  13.106  24.169   2.299
46880W        W19173  37.941   8.399   3.822
46881W        W19174  24.694  26.163  12.988
46882W        W19175  35.500   5.768   0.369
46883W        W19176  34.609  12.296   4.335
46884W        W19177  23.733  44.388  11.882
46885W        W19178  10.236  42.818  11.024
46886W        W19179  17.674   7.890   2.404
46887W        W19180  36.971  40.451  13.863
46888W        W19181   8.264  28.179  10.887
46889W        W19182  25.022   4.756   3.337
46890W        W19183  22.095   7.237   0.954
46891W        W19184   1.297   0.961   1.435
46892W        W19185  44.504   9.272  13.422
46893W        W19186   8.797  30.993  11.529
46894W        W19187   7.181  18.280   4.216
46895W        W19188   3.262  32.548   3.849
46896W        W19189  14.253  37.355   2.788
46897W        W19190  32.500  37.578  10.419
46898W        W19191  18.080  17.074  13.986
46899W        W19192  23.200  16.738   3.803
46900W        W19193  19.679  16.641   0.397
46901W        W19194  14.610  18.576   0.893
46902W        W19195  36.389  17.180  12.953
46903W        W19196   8.860  33.070  13.865
46904W        W19197  18.197   0.360  12.066
46905W        W19198  18.638  13.715  13.052
46906W        W19199  13.766  28.940   2.885
46907W        W19200   7.745  39.811   2.400
46908W        W19201  11.780  24.624   1.784
46909W        W19202  42.494  22.579  13.511
46910W        W19203  44.383  42.502  14.031
46911W        W19204  30.559  40.490  13.872
46912W        W19205  13.781  20.686   2.750
46913W        W19206  21.617  21.162   2.337
46914W        W19207  28.039   5.204  12.507
46915W        W19208   2.399  44.386   3.651
46916W        W19209  12.767  24.169  13.909
46917W        W19210  14.324  34.922  10.592
46918W        W19211  42.790  28.603  12.508
46919W        W19212  24.020  32.424  13.395
46920W        W19213  38.436  16.187   1.359
46921W        W19214  31.490   9.247   1.868
46922W        W19215  30.147  40.424   1.214
46923W        W19216   9.803   9.731  10.986
46924W        W19217  32.065  11.305  12.509
46925W        W19218   6.387   5.864  10.437
46926W        W19219   6.789  33.936   3.680
46927W        W19220  30.958  35.594   0.252
46928W        W19221  36.001  30.036  10.556
46929W        W19222   8.168  22.101   4.167
46930W        W19223   8.295   8.744  10.499
46931W        W19224  11.623   5.867   2.861
46932W        W19225  32.905  44.345   4.309
46933W        W19226  13.257  13.237  14.990
46934W        W19227  19.744  39.350   3.789
46935W        W19228  32.441  28.186  11.946
46936W        W19229  11.300   9.198   2.413
46937W        W19230  13.723  41.931   0.881
46938W        W19231  16.650  39.321  12.069
46939W        W19232  21.698   4.764  14.941
46940W        W19233  39.002  12.344   3.201
46941W        W19234  14.337  20.567   4.216
46942W        W19235  33.127  16.143   3.348
46943W        W19236   2.455   3.935  13.333
46944W        W19237  23.995  35.885  12.543
46945W        W19238  12.124  38.400   2.892
46946W        W19239  27.671  13.727  11.541
46947W        W19240  24.557   3.327   0.309
46948W        W19241   1.871  44.800  12.040
46949W        W19242  27.663  35.049   3.746
46950W        W19243  24.031   1.921   5.792
46951W        W19244  23.599  11.776   0.400
46952W        W19245  23.679   1.881   5.083
46953W        W19246  27.068  11.174  14.304
46954W        W19247  34.951  33.113   3.356
46955W        W19248   2.854   2.329  11.076
46956W        W19249  10.693  27.454  12.341
46957W        W19250  16.198  43.365  11.908
46958W        W19251  33.483   7.400   4.337
46959W        W19252  15.233  29.552   3.649
46960W        W19253  36.089  42.371  14.419
46961W        W19254  24.607  20.662  14.935
46962W        W19255  34.501  25.208   4.166
46963W        W19256  39.024  44.472  13.811
46964W        W19257  15.325  14.269  13.540
46965W        W19258  16.116   5.434  12.041
46966W        W19259  31.550  21.222  13.996
46967W        W19260   4.773   1.968   0.757
46968W        W19261  15.272  41.425  10.993
46969W        W19262   0.850  43.952   1.867
46970W        W19263  17.154  41.962  13.427
46971W        W19264   0.356  23.056  11.534
46972W        W19265  32.903  36.409   1.436
46973W        W19266  29.506  33.480   5.265
46974W        W19267  42.956  17.157   9.498
46975W        W19268   5.720  40.968   4.130
46976W        W19269  25.681  13.756   4.659
46977W        W19270  11.833  27.661   2.806
46978W        W19271  38.513  37.509   2.195
46979W        W19272  14.137   6.841   3.839
46980W        W19273  23.139  40.481  14.320
46981W        W19274  25.975  27.683   2.327
46982W        W19275  18.072   1.290   4.336
46983W        W19276  31.093  15.580  11.871
46984W        W19277  44.365  23.077  13.029
46985W        W19278   0.751  31.437   2.690
46986W        W19279  31.911   5.317   0.284
46987W        W19280   7.307  26.533   0.407
46988W        W19281   5.755  29.145   1.348
46989W        W19282  31.932  14.259   4.658
46990W        W19283  27.952  28.123  12.932
46991W        W19284  44.939  11.721  13.885
46992W        W19285  44.340  28.567  12.902
46993W        W19286  20.606   2.435   1.236
46994W        W19287  11.195  18.626  14.899
46995W        W19288   6.870  30.532   4.169
46996W        W19289  42.901   1.362  14.313
46997W        W19290   1.818  18.678  14.361
46998W        W19291  14.741  16.580  14.761
46999W        W19292  40.360  35.372  14.814
47000W        W19293   0.474  28.970   2.251
47001W        W19294  39.977  12.266  10.449
47002W        W19295   5.871  13.169  11.056
47003W        W19296  12.726  44.387  11.946
47004W        W19297  26.496  36.404   5.207
47005W        W19298  20.194  28.569   2.286
47006W        W19299   9.364  25.009   3.381
47007W        W19300  29.432  28.661   1.338
47008W        W19301   1.366  35.492   0.345
47009W        W19302  42.315  38.526  14.774
47010W        W19303  14.744   6.303   1.908
47011W        W19304  19.252   7.400  10.471
47012W        W19305   7.203  12.126  13.345
47013W        W19306  20.533  10.310   4.239
47014W        W19307   7.279  17.291  14.405
47015W        W19308  14.701  18.649  14.493
47016W        W19309  32.485  44.913   1.242
47017W        W19310   4.933  33.005   2.810
47018W        W19311  11.644  23.561  10.442
47019W        W19312   7.392  40.384   2.767
47020W        W19313   5.368  15.193   4.199
47021W        W19314   0.479  31.573  10.948
47022W        W19315  17.181  31.951   4.607
47023W        W19316  29.670  19.548   3.782
47024W        W19317   2.437  33.567  12.367
47025W        W19318   6.368   1.293   3.193
47026W        W19319   3.328   6.830   4.643
47027W        W19320  22.597  26.965  12.436
47028W        W19321   1.430   4.886  10.480
47029W        W19322  17.110  27.982   2.665
47030W        W19323  16.742   9.383  13.437
47031W        W19324  42.391  34.969   2.661
47032W        W19325  12.750  15.318  10.520
47033W        W19326   3.248  33.432  10.949
47034W        W19327  30.917  21.047   2.766
47035W        W19328   2.382  40.333  12.461
47036W        W19329  35.069  42.987  10.451
47037W        W19330  32.508  44.313   3.823
47038W        W19331  38.852   8.886  10.927
47039W        W19332   2.733  33.934  10.945
47040W        W19333  33.440  39.983  12.347
47041W        W19334  43.316   2.735   1.418
47042W        W19335  43.961  10.358   2.419
47043W        W19336  40.435   8.659   4.126
47044W        W19337  30.637  24.535  14.488
47045W        W19338  29.988   8.340  11.005
47046W        W19339  27.513  31.021  12.899
47047W        W19340  10.182  36.518  12.482
47048W        W19341   7.310  41.371  12.965
47049W        W19342  26.052  42.000  11.587
47050W        W19343  29.589  39.013   0.955
47051W        W19344   9.861  24.693  14.775
47052W        W19345   2.928   0.796  12.508
47053W        W19346  13.204   7.682  12.476
47054W        W19347  42.519   5.406  12.417
47055W        W19348  38.917  11.799   1.888
47056W        W19349  18.559  33.450  10.134
47057W        W19350   6.919  32.626   1.220
47058W        W19351  25.065   6.837   4.138
47059W        W19352  22.049  21.654   0.302
47060W        W19353  39.379  10.754  14.857
47061W        W19354  38.354  17.692   0.446
47062W        W19355  13.113   8.798   4.209
47063W        W19356  28.152  14.323   5.319
47064W        W19357  33.906  41.972   4.299
47065W        W19358  44.467   8.315  10.505
47066W        W19359  32.555  41.467   3.806
47067W        W19360  29.951  12.116   4.333
47068W        W19361  30.063  29.036   1.404
47069W        W19362  32.492   8.832  11.611
47070W        W19363  27.638  30.146  13.393
47071W        W19364  14.159  38.942  14.306
47072W        W19365  10.722  23.180  11.923
47073W        W19366   5.734  13.626   2.722
47074W        W19367  36.009   8.257  11.994
47075W        W19368  15.737  39.435  12.551
47076W        W19369  17.172  36.095   0.269
47077W        W19370   8.867  24.033   0.307
47078W        W19371  34.593  44.964  13.378
47079W        W19372   0.776   1.950  14.380
47080W        W19373  21.046  12.709  13.921
47081W        W19374   0.485  37.860   0.834
47082W        W19375   8.317  14.098   2.269
47083W        W19376  40.432   6.821   3.360
47084W        W19377  16.090  20.068  14.364
47085W        W19378  38.565  13.224   2.336
47086W        W19379  10.792   6.207  11.100
47087W        W19380  31.104  40.006   1.932
47088W        W19381  27.593  14.818  13.817
47089W        W19382  11.791  24.722  14.808
47090W        W19383  26.139  44.909   4.188
47091W        W19384  43.284   8.820   1.263
47092W        W19385   7.743  37.854   1.383
47093W        W19386  38.394  23.521  11.976
47094W        W19387  16.248  19.600  13.941
47095W        W19388  30.536   5.858  13.337
47096W        W19389  38.388  18.637   4.312
47097W        W19390  23.993  24.712   4.743
47098W        W19391  40.334  14.822  14.967
47099W        W19392  33.534   6.187   4.155
47100W        W19393  37.910  20.126   4.283
47101W        W19394   0.253  42.876  10.057
47102W        W19395  21.190  24.087   4.295
47103W        W19396  32.134  21.223   1.224
47104W        W19397  32.412  34.085  11.890
47105W        W19398  21.689  37.831  14.939
47106W        W19399  30.468  36.894  10.508
47107W        W19400  17.236   4.886  13.849
47108W        W19401  44.382  17.081  13.024
47109W        W19402   4.426  10.760   4.278
47110W        W19403  31.521  38.899   1.399
47111W        W19404   9.337  38.450  10.485
47112W        W19405  41.837   6.365  11.007
47113W        W19406   8.709   7.806   5.199
47114W        W19407  10.217  27.066  12.071
47115W        W19408  14.323  27.650   0.283
47116W        W19409   1.871  20.751  14.475
47117W        W19410   3.929  35.511   2.200
47118W        W19411   8.173  30.432   3.852
47119W        W19412  42.489  31.637   3.640
47120W        W19413  33.107  37.999  14.806
47121W        W19414  22.023  21.113  11.923
47122W        W19415   6.688  39.425   2.673
47123W        W19416   3.402  16.580  14.869
47124W        W19417   2.236   5.374   3.322
47125W        W19418  43.952  18.740  12.353
47126W        W19419  14.239  39.045   0.818
47127W        W19420  35.902  18.073   1.354
47128W        W19421  44.501  41.800  11.984
47129W        W19422  13.836   9.170   4.599
47130W        W19423  18.672   1.900   0.394
47131W        W19424   2.285   5.733   0.800
47132W        W19425  23.169   0.975  11.123
47133W        W19426  28.144  10.739  14.765
47134W        W19427  36.451  15.102  11.925
47135W        W19428  24.480  44.273   3.790
47136W        W19429   2.810  22.055   0.735
47137W        W19430  38.993  35.409  12.424
47138W        W19431  38.931  37.364   1.443
47139W        W19432  14.757  18.123   1.270
47140W        W19433  29.522  27.003  12.449
47141W        W19434   5.722  41.006  14.918
47142W        W19435   0.317   7.356   3.722
47143W        W19436   9.266  39.350   3.644
47144W        W19437  35.898  17.648   0.454
47145W        W19438  20.148  24.191  10.611
47146W        W19439  11.701  29.469  13.912
47147W        W19440   3.235  44.979  12.422
47148W        W19441   3.390  37.838   5.288
47149W        W19442  22.185  41.040   4.346
47150W        W19443  28.446  11.215  11.493
47151W        W19444  14.109  39.504  13.407
47152W        W19445  13.801  31.585   2.666
47153W        W19446  34.923  16.306   0.276
47154W        W19447   1.959  15.252  13.002
47155W        W19448   4.343  27.092   1.777
47156W        W19449  15.619   0.855  11.064
47157W        W19450  23.503  16.774  12.368
47158W        W19451   6.750  41.537   0.865
47159W        W19452  14.325  14.681  14.857
47160W        W19453  42.500  34.863   4.714
47161W        W19454  28.077  35.052   2.402
47162W        W19455  27.029  38.863  14.778
47163W        W19456  22.664  22.542   1.786
47164W        W19457  43.924  31.529   2.368
47165W        W19458  31.061  42.417   0.257
47166W        W19459  37.461  30.612   3.690
47167W        W19460  35.037   6.264  12.351
47168W        W19461  41.880   0.346   1.833
47169W        W19462  22.158  35.928   4.127
47170W        W19463   4.330  16.121   4.174
47171W        W19464  21.233  18.772   5.308
47172W        W19465  34.377  43.276  11.456
47173W        W19466  18.671  37.851  12.975
47174W        W19467  10.306   5.391  12.940
47175W        W19468  21.108  28.158  12.493
47176W        W19469  27.588  26.165   0.958
47177W        W19470  38.864  37.977   4.349
47178W        W19471  31.940   3.380   4.347
47179W        W19472  44.960  20.759  13.850
47180W        W19473  24.036  21.222   5.292
47181W        W19474   2.246   5.332  11.861
47182W        W19475  36.583  44.954  12.843
47183W        W19476  35.409  24.655  12.023
47184W        W19477  15.267  11.149   0.387
47185W        W19478  27.942   7.809  12.937
47186W        W19479  12.269  24.608   0.825
47187W        W19480   5.332  34.990   0.325
47188W        W19481  14.676   1.296  14.450
47189W        W19482  13.629  12.812   4.712
47190W        W19483  11.770   7.336   0.419
47191W        W19484  39.945  15.320   3.826
47192W        W19485  17.630  17.572   0.318
47193W        W19486  17.079   2.902   3.861
47194W        W19487  10.766   6.842   4.263
47195W        W19488  43.329   4.778   0.732
47196W        W19489  27.133  26.675  13.432
47197W        W19490   4.782  42.352   2.202
47198W        W19491  36.528  34.415  13.480
47199W        W19492  33.405   0.913   0.727
47200W        W19493  22.730  21.155   2.684
47201W        W19494  26.095  33.525   1.694
47202W        W19495   9.205  43.863  14.927
47203W        W19496  40.988  24.525  13.514
47204W        W19497   8.305   7.297  13.056
47205W        W19498  43.306  23.636   5.174
47206W        W19499  25.999  44.771  10.596
47207W        W19500  10.719   1.924   4.667
47208W        W19501  21.052  10.344   0.837
47209W        W19502  24.098  34.955   1.283
47210W        W19503  39.885  14.829  13.028
47211W        W19504  14.214  15.608  12.552
47212W        W19505   6.330  16.694  14.999
47213W        W19506  11.823  37.545  10.935
47214W        W19507  21.599  22.719   1.392
47215W        W19508  15.720  27.128  14.782
47216W        W19509   6.384  23.035   3.812
47217W        W19510  33.386  43.002   1.238
47218W        W19511   2.877  16.228  11.120
47219W        W19512   8.341  34.903  13.474
47220W        W19513  29.491  13.242   3.804
47221W        W19514  28.610  21.116   1.267
47222W        W19515  33.892  42.474   4.208
47223W        W19516  19.115  37.499  13.523
47224W        W19517  14.591  30.002   4.188
47225W        W19518  42.488  22.083   1.870
47226W        W19519  39.013  22.035  10.981
47227W        W19520  14.734  35.484   4.283
47228W        W19521   5.230   8.199  10.433
47229W        W19522  31.550  39.383   4.148
47230W        W19523  35.591  26.951  14.763
47231W        W19524  44.342  24.579  13.933
47232W        W19525  23.569  31.105  12.833
47233W        W19526   5.785   7.268  10.507
47234W        W19527   6.306  26.621  11.018
47235W        W19528   1.369  26.196  11.884
47236W        W19529  41.464  19.614   2.380
47237W        W19530  15.303  17.608   1.843
47238W        W19531   8.396  28.025  12.980
47239W        W19532  44.884  19.675  11.429
47240W        W19533  18.074  19.049  11.875
47241W        W19534  42.381  24.491   4.255
47242W        W19535  41.813  21.701   0.451
47243W        W19536  23.160  27.047  10.551
47244W        W19537  39.029  28.975  11.566
47245W        W19538   2.425  13.802   2.775
47246W        W19539  16.776  24.075   0.825
47247W        W19540  15.636   6.764  14.429
47248W        W19541  15.717  12.145  13.910
47249W        W19542  42.358   7.787   2.754
47250W        W19543  41.910  22.535   4.626
47251W        W19544  12.773  37.006   4.634
47252W        W19545  38.486  25.614  14.783
47253W        W19546  33.419  19.117  14.455
47254W        W19547  41.330  17.768  10.420
47255W        W19548   4.707  11.283  13.362
47256W        W19549  32.555  42.399   2.839
47257W        W19550  30.913  27.523   4.319
47258W        W19551  18.225  44.995  13.008
47259W        W19552   7.407  44.933   0.870
47260W        W19553   1.337  29.649   1.393
47261W        W19554   1.814   5.407   1.404
47262W        W19555  32.920  11.336   1.744
47263W        W19556   9.201  30.026  10.464
47264W        W19557  31.982  20.686   4.275
47265W        W19558   3.955   2.784   1.742
47266W        W19559  16.115  16.233   1.337
47267W        W19560   9.786   1.816  12.532
47268W        W19561  34.413   1.828   2.206
47269W        W19562   6.225  26.600   5.153
47270W        W19563  11.145  32.619   1.261
47271W        W19564  28.568  12.226   1.704
47272W        W19565   6.731  28.677  14.330
47273W        W19566   7.290  10.181  12.024
47274W        W19567  33.455  23.179  12.962
47275W        W19568  24.991  17.159   3.245
47276W        W19569  33.945   4.718  13.480
47277W        W19570  20.733  41.962   2.295
47278W        W19571   6.420   0.839   4.811
47279W        W19572  14.650  12.165   0.250
47280W        W19573   1.314  19.737   1.386
47281W        W19574  33.969   7.361  12.568
47282W        W19575  36.846  18.210   3.845
47283W        W19576  34.963   0.818   3.346
47284W        W19577  37.398  24.075   3.856
47285W        W19578  32.559  37.384  11.444
47286W        W19579  41.353   1.421  11.585
47287W        W19580  38.450  12.689   0.959
47288W        W19581   3.434   7.336  13.903
47289W        W19582  28.008   3.251  14.764
47290W        W19583   1.384   8.676  11.422
47291W        W19584  43.802  33.880   9.436
47292W        W19585  30.913  30.417  13.337
47293W        W19586  16.249   1.740  13.448
47294W        W19587  14.329  12.824  12.957
47295W        W19588   2.297  24.721   1.305
47296W        W19589  36.432  28.014  10.597
47297W        W19590  19.575  14.678  11.963
47298W        W19591   4.792  15.625   5.161
47299W        W19592  16.144   0.838  13.348
47300W        W19593  21.600  37.915  10.563
47301W        W19594   2.833  39.419   0.851
47302W        W19595  14.325   9.762  11.858
47303W        W19596  27.648   3.849  12.998
47304W        W19597   1.263  11.624   3.377
47305W        W19598  25.985  13.703  13.496
47306W        W19599  30.600  44.364   4.191
47307W        W19600  23.676   0.273  14.779
47308W        W19601  22.057  39.363   0.960
47309W        W19602  28.104  18.749   4.217
47310W        W19603  13.236  27.968  10.434
47311W        W19604   5.276  33.573   3.252
47312W        W19605   4.912   1.247  12.405
47313W        W19606  21.520  19.266  11.084
47314W        W19607  23.731  14.151   1.316
47315W        W19608  25.507  41.937  13.958
47316W        W19609  31.584  24.498   3.351
47317W        W19610   1.893  15.184   1.250
47318W        W19611  27.029  23.640   1.360
47319W        W19612  12.247   8.785  10.962
47320W        W19613  38.955  31.948  10.155
47321W        W19614  26.174   2.458  10.594
47322W        W19615  20.536   6.778   4.678
47323W        W19616  39.811  22.549   4.309
47324W        W19617  20.651  38.951  12.082
47325W        W19618  15.170  13.753  13.405
47326W        W19619  38.928  19.201  11.883
47327W        W19620  31.551  28.075   3.378
47328W        W19621   5.340   5.851   3.373
47329W        W19622  32.136  31.097  12.364
47330W        W19623  18.231   3.431   2.227
47331W        W19624  20.245  18.179   4.153
47332W        W19625  28.130  28.058   4.124
47333W        W19626  36.593  40.035   4.155
47334W        W19627  31.557  32.441  12.534
47335W        W19628  30.153  26.085   2.210
47336W        W19629  16.799  15.656   1.327
47337W        W19630   4.435  29.935  12.570
47338W        W19631  41.416  21.046  13.440
47339W        W19632  35.931  14.620   3.669
47340W        W19633  26.565   8.813   3.252
47341W        W19634  27.492  42.024  12.948
47342W        W19635  15.650   4.225  14.027
47343W        W19636  37.489  31.908   4.247
47344W        W19637  38.892  44.494  14.975
47345W        W19638   3.250   1.791   3.287
47346W        W19639  15.655  36.494  12.010
47347W        W19640   6.820  32.926   3.658
47348W        W19641  19.176   8.787  12.506
47349W        W19642  18.766  34.495   4.133
47350W        W19643  10.785  27.652  14.883
47351W        W19644   0.445  20.236   3.695
47352W        W19645  42.350   3.712   1.922
47353W        W19646  37.836  33.942  13.332
47354W        W19647  29.006  29.174  10.493
47355W        W19648  30.983   9.681  14.794
47356W        W19649  25.671  39.417  12.458
47357W        W19650   6.677   5.740  11.058
47358W        W19651  22.734  30.563   1.415
47359W        W19652  42.477  13.751   1.368
47360W        W19653  36.514  36.935  11.603
47361W        W19654  25.690  20.094   1.228
47362W        W19655   5.231  36.007  12.049
47363W        W19656   6.897  16.605  14.435
47364W        W19657  30.589  22.185  12.981
47365W        W19658   4.440  44.480   0.397
47366W        W19659  37.406   5.883  10.079
47367W        W19660  34.947  10.280  12.030
47368W        W19661  32.522  10.788  12.877
47369W        W19662   7.235  38.361   2.412
47370W        W19663  42.512  23.535   4.641
47371W        W19664  24.218  40.836  11.402
47372W        W19665   7.338  20.264  14.292
47373W        W19666   2.826  18.171   1.814
47374W        W19667   9.331  29.944   0.753
47375W        W19668  29.467  29.075   2.314
47376W        W19669  36.019  30.914   0.315
47377W        W19670  23.180  19.656   0.267
47378W        W19671   2.746  19.268  12.477
47379W        W19672   4.884  38.963   2.662
47380W        W19673  34.406  43.001   0.915
47381W        W19674  31.437  41.356  14.900
47382W        W19675  11.644  19.252  10.530
47383W        W19676  11.846  43.986  10.487
47384W        W19677  27.571   4.327  12.081
47385W        W19678  29.666  24.480  10.534
47386W        W19679  18.665  12.339   3.797
47387W        W19680   4.273  43.281   4.791
47388W        W19681   6.220  30.580   4.231
47389W        W19682  38.058  27.606   3.354
47390W        W19683  34.462  10.143  10.422
47391W        W19684   2.779  20.236  13.797
47392W        W19685   6.205  29.621   9.976
47393W        W19686   5.273   9.689   4.301
47394W        W19687  36.452   0.462   2.774
47395W        W19688  18.696   3.421   2.884
47396W        W19689  16.137  18.663   3.812
47397W        W19690   6.328   7.348   4.663
47398W        W19691  10.299  25.989   2.262
47399W        W19692  10.801  19.220   0.812
47400W        W19693  19.670  15.644   2.854
47401W        W19694  30.505  13.178   4.242
47402W        W19695  42.979  29.965  10.997
47403W        W19696  16.140  12.352  14.947
47404W        W19697  29.593  17.145   3.308
47405W        W19698  23.586   1.735   1.250
47406W        W19699  15.595   4.231  13.434
47407W        W19700   2.351  26.025  12.357
47408W        W19701  34.002   8.385  11.861
47409W        W19702   5.284  30.495   4.174
47410W        W19703  26.193  17.213   4.829
47411W        W19704   1.423  41.954   3.301
47412W        W19705  41.854   2.924  14.863
47413W        W19706  33.471  37.035   1.270
47414W        W19707   5.742  16.598   0.345
47415W        W19708  23.080  42.321   0.841
47416W        W19709  30.996  39.348   1.787
47417W        W19710  38.962  30.054  13.000
47418W        W19711   0.899  36.017  12.986
47419W        W19712  17.641   3.901  11.075
47420W        W19713  22.090  32.474   3.353
47421W        W19714  33.481  15.670  14.913
47422W        W19715  16.178  19.062   4.823
47423W        W19716  39.857   8.669  11.058
47424W        W19717   0.457  13.170   1.295
47425W        W19718  14.312  16.783  12.852
47426W        W19719  28.493  21.028   0.263
47427W        W19720  42.283  20.631  10.606
47428W        W19721  16.081   8.695   3.353
47429W        W19722  43.938   4.300  10.407
47430W        W19723   4.245   0.481  11.535
47431W        W19724  38.457  34.398   0.933
47432W        W19725  14.143   3.325  11.592
47433W        W19726   4.916  33.992   2.901
47434W        W19727  36.092  41.501   3.316
47435W        W19728   9.317  41.454  13.990
47436W        W19729  30.533  38.901  10.600
47437W        W19730  41.492  33.426  11.495
47438W        W19731  14.756  37.489   5.152
47439W        W19732  31.601  42.299  12.538
47440W        W19733  25.710   2.230  12.086
47441W        W19734  16.204  22.055  13.442
47442W        W19735  24.004  35.412  11.504
47443W        W19736  12.713  31.520   1.700
47444W        W19737  28.552  15.664  12.051
47445W        W19738   2.314  29.116   0.961
47446W        W19739   7.292  33.498  12.512
47447W        W19740  20.600  23.996   1.886
47448W        W19741  44.465  22.659   2.718
47449W        W19742  22.654   2.922   4.208
47450W        W19743  38.431  44.371  14.394
47451W        W19744   9.885  16.237  11.540
47452W        W19745   3.335  25.110   0.955
47453W        W19746   0.742   1.331   4.138
47454W        W19747   8.243  44.755   3.679
47455W        W19748  40.508  12.147  14.999
47456W        W19749  39.463  10.360   4.335
47457W        W19750  10.815  42.972   4.694
47458W        W19751  44.788   0.962  11.450
47459W        W19752  20.154  28.612   1.699
47460W        W19753  30.075  42.380   0.344
47461W        W19754  39.501  43.969   0.460
47462W        W19755  43.359  40.938  11.042
47463W        W19756   4.822   5.344  12.015
47464W        W19757  39.356  13.749   2.772
47465W        W19758  42.282  16.276   2.330
47466W        W19759   5.869  30.001  13.933
47467W        W19760   6.742  38.028   0.781
47468W        W19761   5.919  31.941  10.934
47469W        W19762  42.448  11.355   3.825
47470W        W19763  24.117  39.395  14.469
47471W        W19764  33.439   7.711  11.930
47472W        W19765   7.241  36.471   1.822
47473W        W19766  18.084  17.252   0.735
47474W        W19767  28.110  31.896   4.231
47475W        W19768  24.002  41.006  14.318
47476W        W19769   6.836  34.551  10.443
47477W        W19770  40.003  29.106  11.491
47478W        W19771  34.461   2.465  12.041
47479W        W19772   6.758  19.710  12.541
47480W        W19773  23.680   3.369  13.449
47481W        W19774  23.148   8.747  11.590
47482W        W19775  27.562  14.790  14.507
47483W        W19776  35.475  18.178  12.564
47484W        W19777  42.963  23.047  12.553
47485W        W19778  30.924  40.020  12.090
47486W        W19779  17.297   4.371  11.008
47487W        W19780  15.100  32.940   2.708
47488W        W19781  34.491  42.837   3.633
47489W        W19782  38.346  39.498   1.251
47490W        W19783  13.753   3.323  10.627
47491W        W19784  21.206   3.954   4.646
47492W        W19785  36.982  12.751   1.403
47493W        W19786  28.477  11.742   0.761
47494W        W19787  44.280   4.921   4.666
47495W        W19788   4.366  23.724   1.721
47496W        W19789  32.139   3.779  14.471
47497W        W19790  44.302   2.763  13.043
47498W        W19791  32.453  33.433  11.871
47499W        W19792  44.374  35.586  11.529
47500W        W19793   7.848  19.160   2.197
47501W        W19794   1.434  11.683  10.992
47502W        W19795  19.211  28.474   0.291
47503W        W19796  10.766  19.537  10.948
47504W        W19797   6.885  27.956   1.832
47505W        W19798  26.489   2.362  13.798
47506W        W19799  21.728  37.056   2.770
47507W        W19800  27.681   5.314  14.896
47508W        W19801  10.181  26.183   1.296
47509W        W19802  17.576  22.703   2.875
47510W        W19803   5.426  36.988  11.591
47511W        W19804  29.593  17.105  11.455
47512W        W19805  16.210  38.873   0.766
47513W        W19806  29.972  37.861  13.373
47514W        W19807   6.903  13.205   0.405
47515W        W19808  33.979  41.855  13.883
47516W        W19809   0.359  17.280   4.809
47517W        W19810  23.684  10.283  13.542
47518W        W19811  21.728  30.601   3.694
47519W        W19812  42.282   9.762  11.456
47520W        W19813   4.413  36.537  13.802
47521W        W19814  42.513  16.636  13.492
47522W        W19815  24.063  28.159  10.553
47523W        W19816  29.084  15.271   2.299
47524W        W19817   5.726  38.561  11.377
47525W        W19818  20.683   3.724  13.857
47526W        W19819   4.237  19.594  13.324
47527W        W19820   4.233  44.475   1.753
47528W        W19821  29.664  37.433   0.793
47529W        W19822  31.066  13.162   2.207
47530W        W19823  11.313  38.349  13.326
47531W        W19824  13.333  24.996   3.355
47532W        W19825  34.499   8.799  11.970
47533W        W19826  40.385  37.048  11.580
47534W        W19827  19.657  34.020  14.022
47535W        W19828   6.737  22.182  14.906
47536W        W19829  40.457  33.101   2.332
47537W        W19830  21.252  36.031  13.311
47538W        W19831   0.778  36.470  12.952
47539W        W19832  34.489  24.045   0.255
47540W        W19833   8.391  14.738   4.138
47541W        W19834  12.264  33.064  12.550
47542W        W19835  25.079   7.320  12.435
47543W        W19836  32.040  12.656   0.455
47544W        W19837  43.884   5.845   4.245
47545W        W19838  31.403  32.084  14.931
47546W        W19839  31.540  29.922   3.204
47547W        W19840  26.568  41.484  14.864
47548W        W19841  28.549  27.571   1.411
47549W        W19842  12.325  25.048  12.958
47550W        W19843  10.643  43.286   4.182
47551W        W19844  29.453  23.624  11.405
47552W        W19845   6.750  10.343   2.668
47553W        W19846  13.320  21.666  12.943
47554W        W19847  21.584  20.193   1.386
47555W        W19848  41.534  31.980   5.262
47556W        W19849   7.332   9.797   2.754
47557W        W19850  40.429  38.445  13.956
47558W        W19851  44.474  31.021   4.773
47559W        W19852  18.107  21.679  12.891
47560W        W19853  13.121  22.588   4.693
47561W        W19854  16.793  30.425   2.270
47562W        W19855   3.826  24.161  11.524
47563W        W19856  27.467  26.117  11.938
47564W        W19857  27.152   7.719   2.888
47565W        W19858  32.399  21.737  12.514
47566W        W19859  44.297   7.274  10.052
47567W        W19860  21.150  24.693   1.923
47568W        W19861  23.721  41.315  13.032
47569W        W19862  35.070  37.839   0.462
47570W        W19863   7.704  32.060  12.027
47571W        W19864   8.721   5.199  12.057
47572W        W19865  32.509  24.189   3.719
47573W        W19866  13.772  41.526   4.693
47574W        W19867  30.039   3.388   1.705
47575W        W19868  40.994  34.888   1.403
47576W        W19869  29.536  34.892   1.766
47577W        W19870   2.751  12.850   3.348
47578W        W19871  31.140  35.359  11.019
47579W        W19872  39.483  34.410   2.194
47580W        W19873   8.303  23.650  13.313
47581W        W19874  22.536   8.275   2.233
47582W        W19875   7.814   0.986  11.421
47583W        W19876  38.485  10.225  14.483
47584W        W19877  37.955  19.719  11.963
47585W        W19878   0.291  15.299  12.450
47586W        W19879   6.253  22.743   3.256
47587W        W19880  23.730  33.986   2.895
47588W        W19881  42.003  13.649  13.819
47589W        W19882  17.726  40.415   1.254
47590W        W19883   3.382   2.371  12.384
47591W        W19884  41.358   5.740  11.105
47592W        W19885  31.005  15.241  12.409
47593W        W19886  23.159  12.778  12.075
47594W        W19887  17.800  16.635   0.776
47595W        W19888  13.841   3.860   2.763
47596W        W19889  42.948  30.149   2.866
47597W        W19890   1.338  18.561   1.932
47598W        W19891  37.886  20.063  10.443
47599W        W19892  32.574  22.716   2.335
47600W        W19893  13.147  36.876   3.376
47601W        W19894  29.425  25.665  10.413
47602W        W19895  26.536   4.781  12.430
47603W        W19896  22.691  12.715   1.920
47604W        W19897  32.563  28.584  11.124
47605W        W19898  17.225  28.062  11.025
47606W        W19899   5.921  15.107  13.967
47607W        W19900   3.352  40.875   3.847
47608W        W19901  35.463  35.909  14.791
47609W        W19902  26.522  36.396   2.685
47610W        W19903  41.334  43.512  10.119
47611W        W19904  32.607  14.263   5.182
47612W        W19905  19.749  36.859   1.448
47613W        W19906  28.944  34.968  12.483
47614W        W19907  35.892  40.446  10.457
47615W        W19908  19.671  16.231  14.999
47616W        W19909  17.084  12.355  14.811
47617W        W19910  39.880  35.444   0.470
47618W        W19911  43.978   4.757   3.701
47619W        W19912  15.231   1.930   2.745
47620W        W19913  44.843  15.214  10.537
47621W        W19914  37.539  32.476  11.122
47622W        W19915  40.989  31.087  13.040
47623W        W19916  31.424   7.362  14.010
47624W        W19917  34.382  29.469   3.286
47625W        W19918  42.482   4.431  12.433
47626W        W19919   6.833   5.351  10.426
47627W        W19920  13.179  21.240  11.880
47628W        W19921  42.971  34.560  13.875
47629W        W19922  30.534  43.849   0.900
47630W        W19923  14.340  29.083   1.369
47631W        W19924  21.541  20.180  10.478
47632W        W19925  23.005  20.703  11.959
47633W        W19926   5.876   6.257   2.687
47634W        W19927   1.267   5.837  14.886
47635W        W19928   3.731  17.720  11.037
47636W        W19929  17.579  25.172  14.856
47637W        W19930  28.592  18.081   1.386
47638W        W19931  25.586  31.545   4.744
47639W        W19932  14.281   8.888   1.932
47640W        W19933   3.762  43.988   3.195
47641W        W19934  29.645  39.540  11.468
47642W        W19935  33.625  22.590   4.645
47643W        W19936   2.240  27.963  11.551
47644W        W19937   8.773  10.814  14.444
47645W        W19938  31.557  31.576  13.543
47646W        W19939  27.990   6.778  14.870
47647W        W19940  38.466  42.022  13.832
47648W        W19941  16.267   9.743   1.393
47649W        W19942  20.538  24.491  11.101
47650W        W19943  33.405  14.772  13.005
47651W        W19944  15.222  10.315  11.940
47652W        W19945  37.417  26.188   3.262
47653W        W19946  20.064  28.502  12.935
47654W        W19947   5.692  43.367  11.605
47655W        W19948  15.240  32.027   2.784
47656W        W19949  41.483  36.414   2.674
47657W        W19950  38.548  39.012   0.895
47658W        W19951  12.311  30.651   2.239
47659W        W19952  39.913  40.461   4.796
47660W        W19953  16.153  34.004  14.390
47661W        W19954  38.840  33.475   3.863
47662W        W19955  22.633  15.734   3.219
47663W        W19956   1.877   7.761   3.293
47664W        W19957  30.556  24.480   2.866
47665W        W19958   8.251  29.530   2.293
47666W        W19959  11.193  42.428   3.153
47667W        W19960  22.647  41.510  11.904
47668W        W19961  40.828   6.887  13.809
47669W        W19962  41.845  43.406  11.551
47670W        W19963  31.972  19.539   1.279
47671W        W19964  13.136  12.163   1.743
47672W        W19965  42.316  22.097   4.612
47673W        W19966  21.645  37.071   2.273
47674W        W19967  20.741  17.738  13.844
47675W        W19968  27.470  10.852  11.892
47676W        W19969  27.676  27.675  13.381
47677W        W19970   3.754  21.091  10.630
47678W        W19971   8.211  40.955   1.698
47679W        W19972   5.400   4.326   3.327
47680W        W19973   0.764   6.699   0.436
47681W        W19974  26.157  27.986   0.397
47682W        W19975  25.536  37.438  12.081
47683W        W19976  33.403  34.870  12.022
47684W        W19977  11.291  22.584  14.484
47685W        W19978  38.055  19.708  14.957
47686W        W19979  18.662  34.886  14.819
47687W        W19980  11.706  18.161   4.685
47688W        W19981  34.114  38.831  14.358
47689W        W19982  28.023  40.857   2.804
47690W        W19983   2.921  44.342  12.845
47691W        W19984  13.190  28.522  11.500
47692W        W19985   3.234  42.826  10.964
47693W        W19986  43.326  18.574  12.441
47694W        W19987  32.074  24.652  12.917
47695W        W19988  27.679  18.249  10.522
47696W        W19989   8.700  31.402   2.373
47697W        W19990  40.489  41.042   4.290
47698W        W19991  31.510  39.531  11.382
47699W        W19992  38.032  34.437   1.920
47700W        W19993  43.777  30.073  12.093
47701W        W19994  36.540   3.869   4.337
47702W        W19995  38.458  33.381   4.242
47703W        W19996  19.649  11.320  12.873
47704W        W19997  36.038  39.940   4.743
47705W        W19998  20.629  23.588  10.526
47706W        W19999  29.498  42.826  13.376
47707W        W20000   1.239  44.987   1.739
47708W        W20001  39.021  26.578  13.817
47709W        W20002  12.348   4.925   3.315
47710W        W20003  13.649  21.123  10.898
47711W        W20004   7.256  34.391   3.711
47712W        W20005  44.965  34.113   9.564
47713W        W20006  43.875  16.222  13.830
47714W        W20007   2.390  37.472  14.404
47715W        W20008  11.257  17.268   4.257
47716W        W20009  15.171  39.874  14.899
47717W        W20010  30.446  21.525   3.830
47718W        W20011  19.154   2.317  13.544
47719W        W20012   3.360  26.100  11.072
47720W        W20013  14.237  20.545   3.261
47721W        W20014  23.070  12.663   1.911
47722W        W20015  12.799  43.296  12.877
47723W        W20016  25.566  32.947  13.399
47724W        W20017   5.821  14.299  12.449
47725W        W20018   9.823  18.293   0.334
47726W        W20019   4.214  15.227   3.205
47727W        W20020  39.502  11.288  12.387
47728W        W20021  13.272  17.772  11.375
47729W        W20022  19.700   5.900   4.152
47730W        W20023  12.793  10.764   0.834
47731W        W20024  31.146  22.596   1.431
47732W        W20025  43.827  18.717   5.278
47733W        W20026  33.999  36.532  10.545
47734W        W20027  25.163  29.996  14.973
47735W        W20028  30.968  13.175  14.935
47736W        W20029  43.449  41.914   2.290
47737W        W20030   5.271  38.029   1.920
47738W        W20031  33.103  10.383   0.776
47739W        W20032  21.758  17.636  11.414
47740W        W20033  22.022  41.422   4.129
47741W        W20034  40.907  24.219  14.423
47742W        W20035  21.033   6.188   3.379
47743W        W20036  17.662  35.975  12.561
47744W        W20037  11.299  25.118   3.843
47745W        W20038  36.961  21.153   4.811
47746W        W20039  30.095  43.970   4.225
47747W        W20040  33.590  20.034  11.511
47748W        W20041  32.992  39.534   0.375
47749W        W20042  23.524  19.704   2.385
47750W        W20043  39.347  16.796   1.351
47751W        W20044  18.554   2.782   3.168
47752W        W20045  38.524  25.982  11.484
47753W        W20046  35.918  27.644  10.932
47754W        W20047   9.871   7.317  10.630
47755W        W20048  28.035   5.893   2.231
47756W        W20049  27.956   3.918   4.725
47757W        W20050   7.326  44.417  11.023
47758W        W20051  27.082   5.874  11.039
47759W        W20052  25.098  29.537   0.813
47760W        W20053  29.556  18.710   1.393
47761W        W20054  16.581  42.931  10.479
47762W        W20055  14.292  19.707   0.808
47763W        W20056  18.082  10.303  13.384
47764W        W20057  16.090   7.896   2.662
47765W        W20058  31.017  10.361  10.928
47766W        W20059  31.595  31.620  10.988
47767W        W20060  12.847  15.150  14.442
47768W        W20061  32.985  14.727   2.900
47769W        W20062  18.552  18.063   1.367
47770W        W20063  33.961  33.933  11.484
47771W        W20064   1.352  26.625   2.894
47772W        W20065  29.999  29.568   4.808
47773W        W20066  39.472  20.742  13.371
47774W        W20067  27.659  33.023   4.221
47775W        W20068   1.442   6.270   0.950
47776W        W20069   6.192   2.791   0.732
47777W        W20070   0.949  34.926   0.948
47778W        W20071  24.648  34.609   2.334
47779W        W20072  11.186  41.786  13.365
47780W        W20073  13.624  26.959  11.997
47781W        W20074  22.177  37.549  11.443
47782W        W20075  34.903   9.726   1.708
47783W        W20076  30.487  10.636   3.805
47784W        W20077  39.362  42.815  11.080
47785W        W20078  13.830  18.556   2.790
47786W        W20079  32.891   2.417  14.467
47787W        W20080  12.225  30.557   1.895
47788W        W20081  30.152  33.411   3.352
47789W        W20082  21.619  21.129   1.308
47790W        W20083  23.547  35.392   0.364
47791W        W20084  13.658   8.755   0.867
47792W        W20085  10.768  43.297  13.446
47793W        W20086  28.490   8.776   4.349
47794W        W20087   6.798  17.172  12.518
47795W        W20088  31.114  14.292   4.284
47796W        W20089  26.099  15.688   2.415
47797W        W20090  33.606  30.132  13.496
47798W        W20091  33.575  35.375   4.259
47799W        W20092  24.023  14.593   1.857
47800W        W20093  32.935   4.225   2.182
47801W        W20094  16.230  21.238   4.192
47802W        W20095  22.142  25.478  12.512
47803W        W20096  35.578  10.731   4.710
47804W        W20097  30.975  34.389  13.919
47805W        W20098  23.173  14.164  14.393
47806W        W20099   6.715  36.575   0.883
47807W        W20100   4.439   6.727  10.586
47808W        W20101  34.369  27.585  11.933
47809W        W20102  24.185   0.459   2.297
47810W        W20103  13.797  24.082  11.043
47811W        W20104   1.797  18.187  10.909
47812W        W20105  15.809  31.427  14.284
47813W        W20106  27.032  44.329   2.689
47814W        W20107   6.320  21.234   2.343
47815W        W20108  12.346  32.597   3.683
47816W        W20109  34.880  18.146   2.799
47817W        W20110   9.393  25.549  12.436
47818W        W20111  15.606  40.346   3.748
47819W        W20112  41.373   8.738   1.820
47820W        W20113  39.056   4.743  10.617
47821W        W20114  35.044  14.222   0.808
47822W        W20115   0.893  27.958  10.017
47823W        W20116  32.626  10.216   5.294
47824W        W20117  28.603   6.740  10.427
47825W        W20118  36.574  20.610  10.532
47826W        W20119   2.947  41.826  14.865
47827W        W20120  36.439   2.252  12.563
47828W        W20121  37.539   7.751   1.419
47829W        W20122  16.077  28.476   4.782
47830W        W20123  11.752  20.642   1.845
47831W        W20124  44.857  31.033  14.335
47832W        W20125  40.878  31.981   3.634
47833W        W20126   8.894  31.954  13.924
47834W        W20127  17.233  38.960   2.267
47835W        W20128  26.492  24.523   0.874
47836W        W20129  26.175   5.800  10.619
47837W        W20130  17.582   3.726   3.268
47838W        W20131   5.807  28.112  10.922
47839W        W20132  24.678  36.550   2.789
47840W        W20133   4.238   3.226  13.394
47841W        W20134  22.642  29.594  10.623
47842W        W20135  33.940  12.717  11.002
47843W        W20136  36.523  42.403   1.279
47844W        W20137  38.370  26.507  10.489
47845W        W20138   4.411  40.387  14.505
47846W        W20139  40.318   6.820   2.318
47847W        W20140  32.502  26.972   2.185
47848W        W20141  34.057   5.207   0.795
47849W        W20142  30.496  32.043   3.379
47850W        W20143   2.721  20.209   3.630
47851W        W20144  42.884  35.993   5.154
47852W        W20145   4.808  34.953  11.488
47853W        W20146  17.128  15.153   1.226
47854W        W20147   1.344  21.664   4.117
47855W        W20148  38.441   7.221   3.651
47856W        W20149   3.447  29.437  11.074
47857W        W20150   1.291  19.609   1.762
47858W        W20151  27.069  23.091  14.820
47859W        W20152  33.901   5.743   2.292
47860W        W20153   1.257  10.739   2.792
47861W        W20154  23.564  11.327   1.896
47862W        W20155   2.794  34.031  11.982
47863W        W20156   2.284  18.653  10.922
47864W        W20157  22.683  31.478   3.836
47865W        W20158  10.646  11.229  10.408
47866W        W20159  18.263   9.362   4.230
47867W        W20160  38.836  13.686  10.482
47868W        W20161  38.349  37.375   3.781
47869W        W20162  44.978   6.866   2.822
47870W        W20163   7.406  19.609  11.064
47871W        W20164  12.710   1.789   5.087
47872W        W20165   9.270  41.906  14.883
47873W        W20166  43.398  21.231  12.000
47874W        W20167  42.354  14.227   3.377
47875W        W20168  31.562   9.159  12.865
47876W        W20169  11.630   6.901  12.853
47877W        W20170  17.693   9.337   2.191
47878W        W20171  19.619   4.212  13.381
47879W        W20172   3.404  17.219  12.396
47880W        W20173  29.064  11.177  13.449
47881W        W20174  26.638  29.141  10.921
47882W        W20175  39.989  33.026  12.471
47883W        W20176  21.570   0.848  12.990
47884W        W20177  38.002  40.838  12.040
47885W        W20178  36.456   6.920   1.843
47886W        W20179  43.363  15.658   2.281
47887W        W20180  21.694   5.762  12.038
47888W        W20181  20.130  27.999  12.880
47889W        W20182  25.111  15.296  11.556
47890W        W20183  36.948  34.989   3.659
47891W        W20184  15.774  14.603   0.410
47892W        W20185   4.274  13.820   1.926
47893W        W20186  13.606  41.433   1.707
47894W        W20187  44.781  15.117  11.934
47895W        W20188  41.867  23.132  13.314
47896W        W20189  39.851  40.916   3.849
47897W        W20190  21.728  37.357   1.378
47898W        W20191   1.402  32.629  12.528
47899W        W20192  24.990  43.803   2.662
47900W        W20193  37.001  18.746  12.538
47901W        W20194  34.558  24.649   1.801
47902W        W20195  35.580  29.627  12.401
47903W        W20196  11.839  39.865   0.769
47904W        W20197  33.545  41.429  10.532
47905W        W20198   6.407  27.159  12.968
47906W        W20199  20.638  30.560   4.351
47907W        W20200  29.469  36.369   1.353
47908W        W20201  25.148   9.657  10.489
47909W        W20202   7.207  12.718  10.418
47910W        W20203   8.398  17.149   0.408
47911W        W20204   5.337   2.276  13.320
47912W        W20205  40.856  42.369   3.655
47913W        W20206  16.265  39.547   0.422
47914W        W20207  27.455  26.657   0.452
47915W        W20208  34.053  31.585   2.251
47916W        W20209   0.836  43.355  11.066
47917W        W20210  37.032  12.194   3.778
47918W        W20211  23.616   9.344  10.930
47919W        W20212   8.682  24.009  12.017
47920W        W20213   8.182  17.700  14.468
47921W        W20214  42.297  31.571  11.035
47922W        W20215  25.129  28.155   3.783
47923W        W20216  32.604  24.203   0.262
47924W        W20217  36.957  11.626   2.260
47925W        W20218  36.056  23.726  13.480
47926W        W20219  20.118  42.388   1.874
47927W        W20220  21.678  18.108  13.420
47928W        W20221  14.183  44.501   1.883
47929W        W20222   0.830  39.988   3.179
47930W        W20223  11.680  15.671   2.896
47931W        W20224  33.418  35.976   1.447
47932W        W20225   5.854  19.704  14.907
47933W        W20226  24.492  31.497  13.936
47934W        W20227  38.561  36.926  14.960
47935W        W20228   9.168  31.417   0.464
47936W        W20229  14.251  38.475   0.759
47937W        W20230  16.121  19.696  13.406
47938W        W20231   3.875  40.527  11.527
47939W        W20232  26.957  29.934   0.775
47940W        W20233  28.183  33.075  11.420
47941W        W20234  24.183  42.482   3.631
47942W        W20235   5.221  14.672  12.011
47943W        W20236   6.677   5.870   4.755
47944W        W20237   4.271  19.685  14.471
47945W        W20238  39.372  30.642  12.857
47946W        W20239   7.883   1.827  13.015
47947W        W20240  36.435  20.690  13.947
47948W        W20241   2.333  41.957  13.003
47949W        W20242   0.956   0.421   1.369
47950W        W20243  40.869   2.915   2.823
47951W        W20244  38.977  26.127   3.738
47952W        W20245  44.885  24.039  10.600
47953W        W20246   9.825  29.652  10.611
47954W        W20247  26.147  16.736  14.286
47955W        W20248  28.043  19.698   2.331
47956W        W20249  18.609  18.076   3.668
47957W        W20250   6.405  11.307   0.460
47958W        W20251  34.581  34.958  12.878
47959W        W20252  34.002   7.394   1.828
47960W        W20253  18.593  40.837  11.557
47961W        W20254  10.179  21.565   2.197
47962W        W20255  30.611  21.678  14.951
47963W        W20256  18.124   0.808   1.391
47964W        W20257  28.504  38.981  13.864
47965W        W20258  39.469   4.734   3.244
47966W        W20259  28.440   1.782  10.514
47967W        W20260  37.033  28.646   3.160
47968W        W20261   0.339  28.435   4.208
47969W        W20262  42.956  15.124   0.800
47970W        W20263  36.553  15.277   3.777
47971W        W20264   0.836  10.221  12.473
47972W        W20265   2.893  31.091   2.340
47973W        W20266  23.220  34.971  10.419
47974W        W20267  34.500   2.903  11.893
47975W        W20268  10.335  26.654  12.910
47976W        W20269   0.809  10.360   0.912
47977W        W20270  39.364  23.215  12.542
47978W        W20271  16.317  16.725   4.728
47979W        W20272  26.582  35.440  10.479
47980W        W20273  43.333  10.837  14.336
47981W        W20274  40.457  32.048   3.647
47982W        W20275  15.198  21.623  11.607
47983W        W20276  44.431  12.161   3.668
47984W        W20277  13.170  32.465  11.895
47985W        W20278   9.807  43.414   3.792
47986W        W20279  14.663   5.821   1.379
47987W        W20280  14.111  41.960   1.932
47988W        W20281  13.626  26.125  14.309
47989W        W20282  22.694   2.448   4.219
47990W        W20283  36.082   2.270  11.054
47991W        W20284  18.154  24.213   9.462
47992W        W20285  36.858   8.810  10.906
47993W        W20286  17.605  10.833   2.668
47994W        W20287  43.859  41.899  13.308
47995W        W20288  30.968  15.186   0.427
47996W        W20289  23.681  43.007  13.412
47997W        W20290   9.377  43.857  12.895
47998W        W20291  13.669   1.274   9.521
47999W        W20292  12.626  20.570   4.749
48000W        W20293  33.043  10.724   0.828
48001W        W20294  35.453  18.271  12.038
48002W        W20295   3.403   7.810  10.611
48003W        W20296  26.951  14.679  14.399
48004W        W20297  22.672  14.786  14.296
48005W        W20298  39.523  30.428  11.483
48006W        W20299  29.162  25.563  14.330
48007W        W20300   1.826  13.283   3.306
48008W        W20301  24.021  10.717   2.209
48009W        W20302   3.344   6.853  12.962
48010W        W20303   3.298  19.703  12.861
48011W        W20304  34.942  36.874  11.059
48012W        W20305   7.683   8.705  14.276
48013W        W20306  11.654   7.695  12.924
48014W        W20307  24.568  40.323  11.015
48015W        W20308  41.353   2.337  13.868
48016W        W20309  30.932  42.441  13.978
48017W        W20310  19.551  41.369  14.460
48018W        W20311  41.303  18.618  12.890
48019W        W20312   3.926  16.770  13.376
48020W        W20313   6.416  33.911   1.705
48021W        W20314  29.983  43.400   4.729
48022W        W20315  13.180   3.722   0.942
48023W        W20316  40.904  44.982  10.916
48024W        W20317   1.464  13.633  13.850
48025W        W20318  26.186  23.705  14.475
48026W        W20319  37.059  15.762   3.793
48027W        W20320  28.068  41.009  13.367
48028W        W20321  36.032  33.120  12.372
48029W        W20322   4.391  10.760  10.407
48030W        W20323   7.291  44.399  14.999
48031W        W20324  38.910  25.491  12.485
48032W        W20325  31.642  20.155  14.992
48033W        W20326   7.808  26.084  11.902
48034W        W20327  26.597  18.188   4.344
48035W        W20328  40.042  19.252   0.434
48036W        W20329  42.918  24.039  12.868
48037W        W20330   7.695  16.703   1.446
48038W        W20331   6.740  24.047  14.408
48039W        W20332  42.969   9.250   4.341
48040W        W20333  10.233  15.324   0.294
48041W        W20334  13.770  23.523   4.188
48042W        W20335   2.721   2.322  11.444
48043W        W20336  24.180  18.751  11.959
48044W        W20337  42.376  35.024  10.586
48045W        W20338   0.346   8.280  11.425
48046W        W20339  34.953  23.559   0.744
48047W        W20340  18.251  17.571  12.506
48048W        W20341  19.133  11.637   2.187
48049W        W20342  15.650  42.513   4.691
48050W        W20343  31.035  19.109  11.565
48051W        W20344  29.462  38.840   0.293
48052W        W20345   0.803   6.780   4.192
48053W        W20346  39.946  41.908  10.593
48054W        W20347  27.094   8.772   0.333
48055W        W20348  11.238  41.944  14.028
48056W        W20349  40.446  12.259   4.297
48057W        W20350  33.874  23.174   2.889
48058W        W20351   5.420  12.628  12.955
48059W        W20352  36.570  33.518   2.800
48060W        W20353  15.782  43.768  11.526
48061W        W20354  41.950  12.809  12.996
48062W        W20355  21.570  12.750  13.498
48063W        W20356   3.310  26.206  12.413
48064W        W20357   2.840  11.784   3.258
48065W        W20358  33.563  25.616   4.192
48066W        W20359   9.239  17.591  10.950
48067W        W20360  39.009   3.223  12.846
48068W        W20361  35.107  39.503  14.994
48069W        W20362  22.736  25.077  11.108
48070W        W20363  20.669  35.105   3.243
48071W        W20364  14.288  24.004   2.208
48072W        W20365  18.110  26.685   3.176
48073W        W20366   8.741  25.607   2.328
48074W        W20367  13.803  25.987   0.887
48075W        W20368  24.504  37.974   0.827
48076W        W20369  12.839  41.437  11.035
48077W        W20370  28.071  33.559  13.435
48078W        W20371  11.149  18.693  12.468
48079W        W20372  17.711   6.305  13.861
48080W        W20373  13.283  12.684  13.959
48081W        W20374   4.795  44.898   1.784
48082W        W20375   7.180  13.269  13.883
48083W        W20376  20.109   7.310   1.442
48084W        W20377  38.828   6.851  11.961
48085W        W20378  44.326  41.395   9.970
48086W        W20379  34.607  29.100   0.360
48087W        W20380  34.986  35.856   1.348
48088W        W20381   8.730  21.023   3.298
48089W        W20382  28.102  12.625   2.263
48090W        W20383  36.452  37.423  10.460
48091W        W20384  41.960  12.246  12.065
48092W        W20385   2.876  13.699   1.279
48093W        W20386  10.197  30.917  10.635
48094W        W20387  34.401  43.347  12.347
48095W        W20388  14.315  11.734   5.210
48096W        W20389  12.124   8.252  11.004
48097W        W20390  40.501  41.974  10.897
48098W        W20391  10.302  10.161   0.894
48099W        W20392  38.010  22.107  12.027
48100W        W20393  10.380  42.829   1.312
48101W        W20394  24.579   6.684   1.270
48102W        W20395  25.500  37.361   4.230
48103W        W20396  24.572  14.261  13.350
48104W        W20397  37.439  16.218  13.483
48105W        W20398  15.309  20.663  13.862
48106W        W20399  26.512   0.913   2.255
48107W        W20400  20.684  22.158  10.542
48108W        W20401   6.839  40.935   4.140
48109W        W20402  25.966  42.912   2.295
48110W        W20403   8.238  15.768  10.980
48111W        W20404   7.274  15.803  14.329
48112W        W20405  22.223   1.336  14.322
48113W        W20406  23.688  19.141   4.788
48114W        W20407  25.128  32.540   1.695
48115W        W20408  28.011  18.556   1.796
48116W        W20409  12.155  28.681   2.856
48117W        W20410  40.425  36.442  10.479
48118W        W20411  44.494   7.812  13.361
48119W        W20412  30.062  35.066   3.177
48120W        W20413  34.397  14.692   1.888
48121W        W20414  39.010  29.441   3.851
48122W        W20415  30.659  25.025   2.776
48123W        W20416  10.639  38.048  10.471
48124W        W20417  23.526   4.321   9.954
48125W        W20418   5.764  19.568   0.749
48126W        W20419  24.647  12.659   2.402
48127W        W20420  41.940   6.409   3.664
48128W        W20421  44.282  42.340   2.399
48129W        W20422  33.583   6.848   3.663
48130W        W20423  25.497  29.472   0.287
48131W        W20424  10.838  22.042  14.782
48132W        W20425   1.739  24.559  11.093
48133W        W20426   3.353  31.582  13.319
48134W        W20427  22.601  32.059  10.412
48135W        W20428  42.891  30.550  14.355
48136W        W20429   0.276  27.547   3.327
48137W        W20430   0.438  36.864  10.411
48138W        W20431   3.901   0.344  13.990
48139W        W20432   1.470  12.335  11.075
48140W        W20433  21.575  27.075   2.253
48141W        W20434  18.116  32.073  11.437
48142W        W20435  21.241   8.856   0.364
48143W        W20436  20.259  21.037   1.264
48144W        W20437   3.875   0.804   0.953
48145W        W20438  14.615   5.198   3.313
48146W        W20439  43.982  21.167  11.032
48147W        W20440  29.128  22.151  11.883
48148W        W20441  27.627   4.905   4.637
48149W        W20442  16.644  11.807  11.544
48150W        W20443   1.248  40.808  10.914
48151W        W20444   7.262  24.992  12.451
48152W        W20445  22.586  39.536  10.524
48153W        W20446  15.774  22.199  14.002
48154W        W20447  41.342  20.116   4.249
48155W        W20448   7.697  43.933   1.904
48156W        W20449   8.194  24.168   3.303
48157W        W20450  34.426  44.859  14.802
48158W        W20451   6.759  12.661   0.822
48159W        W20452  33.071   3.414  12.435
48160W        W20453  41.394  11.854   5.231
48161W        W20454  16.629  18.640  12.411
48162W        W20455  29.524  42.795   0.331
48163W        W20456  11.153  33.080   1.730
48164W        W20457  37.351  10.378  12.854
48165W        W20458  23.205  38.869   3.634
48166W        W20459  18.672  23.025  12.883
48167W        W20460  39.448  25.184   1.700
48168W        W20461  32.009  16.232   3.814
48169W        W20462  32.021  31.935  12.959
48170W        W20463  25.489  20.164   3.746
48171W        W20464  42.339  38.525  11.119
48172W        W20465  44.454  37.391  14.348
48173W        W20466   3.340  23.644  14.417
48174W        W20467   4.849   3.782  12.988
48175W        W20468  41.948  32.114   1.730
48176W        W20469  21.164   7.294   2.733
48177W        W20470  23.020   4.710  10.968
48178W        W20471  15.165  37.899   4.303
48179W        W20472   1.732  19.753  11.538
48180W        W20473   9.150   5.849  11.457
48181W        W20474  25.638  35.466  10.424
48182W        W20475  40.405  42.849  14.991
48183W        W20476   5.815  16.274   4.268
48184W        W20477   0.272   9.820   4.672
48185W        W20478  15.770   5.921  12.414
48186W        W20479   6.376  27.965  14.846
48187W        W20480  15.697  25.070  10.965
48188W        W20481   6.732  24.547  11.884
48189W        W20482  40.391   6.724  12.865
48190W        W20483  30.514   1.917   3.348
48191W        W20484  14.213  24.138   0.316
48192W        W20485  43.869  22.132  13.480
48193W        W20486   8.809  13.820   3.803
48194W        W20487  14.150  42.985   3.763
48195W        W20488  42.523  18.750  14.378
48196W        W20489  25.194  15.165   0.953
48197W        W20490  19.190   0.303   1.412
48198W        W20491  34.378  12.116   3.358
48199W        W20492  26.566  41.819  12.531
48200W        W20493  37.896  23.004   4.797
48201W        W20494  18.548  26.513  11.971
48202W        W20495   4.938  23.157  13.408
48203W        W20496   7.361  20.236  10.464
48204W        W20497   7.212  10.812  10.519
48205W        W20498  10.798   2.910  11.485
48206W        W20499  12.642  32.934  10.424
48207W        W20500   7.784  40.035  12.399
48208W        W20501  22.050  12.771  13.383
48209W        W20502  11.663  12.302  14.475
48210W        W20503  41.359  28.661  14.919
48211W        W20504  15.131  42.300   1.441
48212W        W20505   7.370  17.585   0.758
48213W        W20506  36.893  40.938  12.569
48214W        W20507  43.853   6.793   4.778
48215W        W20508  37.833  32.007  14.393
48216W        W20509  34.532   4.428  10.957
48217W        W20510  15.577  35.087  13.050
48218W        W20511   4.214   9.767   4.315
48219W        W20512  40.400   8.246  11.604
48220W        W20513  30.082  16.806   2.799
48221W        W20514  40.323  32.046   4.343
48222W        W20515  11.179  20.593   1.256
48223W        W20516  24.066   2.337   4.834
48224W        W20517  23.142  28.109   1.740
48225W        W20518  27.181  12.320  14.866
48226W        W20519  17.559  13.240   2.731
48227W        W20520  31.007  12.766   2.880
48228W        W20521   4.305  38.977  13.905
48229W        W20522  40.304  30.093   1.758
48230W        W20523  38.865  33.888  13.482
48231W        W20524  21.711   1.898  12.053
48232W        W20525  44.930  42.955   0.244
48233W        W20526  27.468  40.006   1.337
48234W        W20527  40.405  39.451  14.767
48235W        W20528  31.090  14.159   0.371
48236W        W20529  43.794  17.222  10.553
48237W        W20530   0.951  14.626   2.739
48238W        W20531   6.204   1.835  11.376
48239W        W20532   4.749   7.319   5.159
48240W        W20533   3.850  36.461  14.296
48241W        W20534   9.179  27.098   3.273
48242W        W20535   4.430  25.100  14.920
48243W        W20536  24.542  26.545   0.284
48244W        W20537  26.967   9.716  10.587
48245W        W20538  13.842   3.344  14.801
48246W        W20539  32.578  29.509  13.963
48247W        W20540  31.403  30.981  14.441
48248W        W20541  36.972  24.543  12.400
48249W        W20542  39.534  17.220  14.293
48250W        W20543  23.563  32.453   2.338
48251W        W20544   1.255   1.294  14.988
48252W        W20545  11.186  21.691  11.553
48253W        W20546  20.207   1.274   2.216
48254W        W20547  12.301   5.783  14.026
48255W        W20548  29.053  15.624   1.845
48256W        W20549  18.567  43.341  12.363
48257W        W20550   2.319  44.936   2.850
48258W        W20551   1.920   9.736  10.491
48259W        W20552   7.786  21.697  12.371
48260W        W20553  18.706  29.140   1.694
48261W        W20554  29.482  38.026  13.479
48262W        W20555   9.267  38.065   4.247
48263W        W20556   3.289  28.013  12.429
48264W        W20557   9.285   5.368   0.396
48265W        W20558  19.776  36.377   0.760
48266W        W20559  32.449   9.853   4.144
48267W        W20560  15.769  18.784   0.285
48268W        W20561  35.452   6.861   4.719
48269W        W20562  13.302  12.797  10.058
48270W        W20563  34.889   6.266   0.439
48271W        W20564  11.192  37.488   1.286
48272W        W20565  25.559  18.646   1.237
48273W        W20566  23.191   0.494  14.813
48274W        W20567  11.221  29.443  10.494
48275W        W20568  35.970  35.054   2.293
48276W        W20569  20.576  31.142   9.608
48277W        W20570  12.355  10.337  14.921
48278W        W20571  14.641  23.631  13.938
48279W        W20572  41.394  24.627   3.702
48280W        W20573  30.498   9.197   3.163
48281W        W20574  40.471   8.170  13.430
48282W        W20575   5.217  14.099  14.866
48283W        W20576  37.463  33.403   1.300
48284W        W20577  15.605  22.571   3.655
48285W        W20578  35.522  34.085  14.341
48286W        W20579  37.391  30.566   1.340
48287W        W20580  25.084  11.162  14.402
48288W        W20581   0.305  11.319  14.309
48289W        W20582  39.524   4.401   0.370
48290W        W20583   0.389   3.431   1.409
48291W        W20584   8.187   9.265   0.853
48292W        W20585  40.881   5.840   0.300
48293W        W20586  15.609  21.166  10.443
48294W        W20587   7.357   3.224  12.025
48295W        W20588  11.781  33.526   5.134
48296W        W20589  10.305  21.725   4.341
48297W        W20590  12.674  34.394  10.895
48298W        W20591  12.686  20.152  11.896
48299W        W20592  24.188  36.436  11.901
48300W        W20593  33.039  39.870   2.250
48301W        W20594   6.818  21.152   4.330
48302W        W20595   2.887  26.646   1.325
48303W        W20596  19.654  31.105  14.826
48304W        W20597   6.773   1.906   3.815
48305W        W20598  38.544  20.592   2.769
48306W        W20599  33.943  39.049   1.745
48307W        W20600  14.634  14.276  11.894
48308W        W20601  34.046   0.967  12.359
48309W        W20602  27.006  24.669   0.915
48310W        W20603  23.576  21.258   2.379
48311W        W20604  29.462  27.071  10.582
48312W        W20605  27.484   1.468  11.945
48313W        W20606  18.612  27.674  14.862
48314W        W20607  42.795  44.783  11.536
48315W        W20608   9.757  24.066   2.333
48316W        W20609  34.036  27.130  11.380
48317W        W20610  39.542  27.146  11.124
48318W        W20611  19.139  25.651   2.227
48319W        W20612  37.867  12.686   2.247
48320W        W20613  42.961  38.555  14.394
48321W        W20614  26.150  13.339  14.901
48322W        W20615  31.059   3.230   5.136
48323W        W20616   7.806   7.381   9.925
48324W        W20617  14.102  43.299   0.829
48325W        W20618  17.164  19.163   2.735
48326W        W20619  32.066  41.791   3.361
48327W        W20620  12.786  26.680  12.341
48328W        W20621  23.665  16.278  13.021
48329W        W20622  38.835   2.789   2.806
48330W        W20623  16.607  27.029   2.881
48331W        W20624  44.806  41.317   2.718
48332W        W20625   1.479  40.385  13.959
48333W        W20626   5.807  14.600  14.996
48334W        W20627  19.545  30.039   9.528
48335W        W20628  17.767  40.812  13.393
48336W        W20629   0.864   8.350  14.980
48337W        W20630  20.059   5.413  11.931
48338W        W20631  23.180  38.398  12.911
48339W        W20632   0.876   9.319  14.500
48340W        W20633  17.709   9.214   1.401
48341W        W20634  32.575  21.603  11.033
48342W        W20635   8.314  33.518  13.958
48343W        W20636  38.010  39.430   1.720
48344W        W20637  38.439  33.088   3.361
48345W        W20638  16.209  24.516   0.931
48346W        W20639   5.764   6.371  12.901
48347W        W20640  44.487  23.142   0.335
48348W        W20641   6.416   6.771   2.228
48349W        W20642  40.909  38.375   0.354
48350W        W20643  14.120  16.107  13.441
48351W        W20644  12.749  33.578  11.018
48352W        W20645   6.342   8.231   3.692
48353W        W20646  35.458  10.346  14.468
48354W        W20647  20.118  34.046   5.265
48355W        W20648  32.547  32.952   1.291
48356W        W20649  39.477  34.070   2.862
48357W        W20650  25.519  31.945   1.377
48358W        W20651   8.764   0.422   2.795
48359W        W20652   1.315  26.565   9.968
48360W        W20653  14.220  27.957  11.931
48361W        W20654  20.624  34.553   3.318
48362W        W20655  27.087  36.463   2.284
48363W        W20656  14.123   6.292  13.338
48364W        W20657  24.529  19.079   1.446
48365W        W20658  20.127  17.168   3.167
48366W        W20659  24.674  21.025   3.870
48367W        W20660  28.443  34.538  13.967
48368W        W20661  31.912   2.797   3.238
48369W        W20662  35.022  19.703   2.188
48370W        W20663   1.800  42.982   1.306
48371W        W20664  24.491  20.764  13.911
48372W        W20665  18.774  29.469  11.042
48373W        W20666  17.201  44.345   0.753
48374W        W20667  36.551  14.764   1.344
48375W        W20668   8.726  37.362  10.420
48376W        W20669  25.086  37.346  12.367
48377W        W20670  41.948  28.089  11.565
48378W        W20671  25.134   6.273  11.481
48379W        W20672   1.359  43.016   5.157
48380W        W20673  44.454  17.230   0.300
48381W        W20674  40.419  40.498   0.901
48382W        W20675   7.898  43.372   2.197
48383W        W20676  10.375   8.236  14.882
48384W        W20677  23.539  33.601  14.433
48385W        W20678  38.048  44.487  11.518
48386W        W20679   9.723   7.773   2.665
48387W        W20680   5.232  39.861  13.896
48388W        W20681   3.303  19.601   0.482
48389W        W20682  27.043  21.228  13.417
48390W        W20683  34.564  27.611  14.372
48391W        W20684  43.333  29.517   2.706
48392W        W20685  22.650  28.047   4.796
48393W        W20686   3.385  27.543  11.095
48394W        W20687   9.737   0.343   0.903
48395W        W20688  10.724  39.061   4.174
48396W        W20689  27.541  29.122   3.332
48397W        W20690  22.153   0.340   2.809
48398W        W20691   0.453  14.712   2.699
48399W        W20692  33.927  37.565  13.525
48400W        W20693  30.026  23.728  11.071
48401W        W20694  11.348  31.554  13.408
48402W        W20695  37.058  24.168   3.802
48403W        W20696  13.629  37.339  13.491
48404W        W20697  23.024  41.364  11.446
48405W        W20698  38.382  41.872  14.883
48406W        W20699  29.065   9.766  13.029
48407W        W20700   7.358   7.877  11.975
48408W        W20701  42.895  31.907  13.978
48409W        W20702  11.679  14.315   2.700
48410W        W20703  36.870   4.288   1.296
48411W        W20704  24.577   0.779  14.915
48412W        W20705  31.460   6.704   3.859
48413W        W20706  12.327   6.889  12.526
48414W        W20707   8.824  20.703   4.269
48415W        W20708   9.261   0.964   0.962
48416W        W20709  10.686   3.327  12.411
48417W        W20710   6.223  19.193   2.276
48418W        W20711  30.985  10.147   4.237
48419W        W20712  27.451  35.438   0.735
48420W        W20713  35.914   9.336   2.325
48421W        W20714  12.679  14.294   1.840
48422W        W20715  27.683  20.142  13.377
48423W        W20716  43.930  23.018  11.473
48424W        W20717   6.804   5.398  14.509
48425W        W20718   9.249  18.693   0.395
48426W        W20719  22.158  29.525  13.425
48427W        W20720  30.497  10.858  11.929
48428W        W20721  35.094   7.216  12.387
48429W        W20722  37.846  25.975  13.931
48430W        W20723  32.612   0.874   3.358
48431W        W20724  10.808   0.817   2.279
48432W        W20725  32.942  44.437   3.680
48433W        W20726  27.010  41.939  10.990
48434W        W20727  18.638  33.422  14.500
48435W        W20728  15.211  22.144   0.413
48436W        W20729  35.383   6.684  14.477
48437W        W20730  35.862  12.758   4.642
48438W        W20731  36.909  32.093  12.835
48439W        W20732  41.333  33.116  13.853
48440W        W20733  23.188   4.225  14.839
48441W        W20734  33.452   5.774   1.442
48442W        W20735   6.404   1.936  14.297
48443W        W20736  29.459  17.299  13.854
48444W        W20737   2.407  11.292   4.136
48445W        W20738  11.164  44.780   1.439
48446W        W20739  26.124  10.808  12.507
48447W        W20740  27.564  13.708  10.905
48448W        W20741  36.367  28.648  12.847
48449W        W20742   8.855   3.956   1.233
48450W        W20743  14.832  30.967  10.901
48451W        W20744  25.613   5.807  10.890
48452W        W20745   4.266  30.606   1.444
48453W        W20746  30.469   1.408  10.910
48454W        W20747   3.740  43.994  13.981
48455W        W20748  12.674  30.121  14.370
48456W        W20749  16.659   2.248  10.508
48457W        W20750  39.941   1.947   3.159
48458W        W20751  10.222  44.373   5.238
48459W        W20752  36.045  11.669  13.867
48460W        W20753   2.941  18.167   2.269
48461W        W20754  27.647   3.459   4.688
48462W        W20755  10.792  36.055   1.330
48463W        W20756  36.408  17.584   3.368
48464W        W20757  28.564   0.861   2.315
48465W        W20758   9.836  35.450  11.119
48466W        W20759  21.585  16.099   4.630
48467W        W20760  36.881  39.547   0.328
48468W        W20761  17.154  34.528  12.993
48469W        W20762  42.438  38.327   3.175
48470W        W20763   6.708  25.975   1.260
48471W        W20764   1.266  20.672  11.524
48472W        W20765  23.609   1.472  12.344
48473W        W20766  39.856  25.202   1.781
48474W        W20767  40.407  19.149  14.776
48475W        W20768  10.827   0.813   4.228
48476W        W20769  19.722  42.984   0.362
48477W        W20770  15.604   6.710   0.248
48478W        W20771  32.973  13.717  14.993
48479W        W20772  23.127  35.885   2.665
48480W        W20773  37.484  18.193  13.798
48481W        W20774   3.443  33.504   5.306
48482W        W20775  32.996  22.586   3.839
48483W        W20776  14.817  27.163  12.358
48484W        W20777  21.569   0.883  10.466
48485W        W20778  18.244   6.303   2.674
48486W        W20779  36.032  18.179  14.900
48487W        W20780  34.513  11.305   2.409
48488W        W20781   9.715  35.444   5.686
48489W        W20782  13.845  42.828  13.059
48490W        W20783   0.874  11.291   0.374
48491W        W20784   9.333  22.096  11.446
48492W        W20785  41.460  43.321   1.211
48493W        W20786  40.454  19.606   2.379
48494W        W20787  36.455  35.435  11.918
48495W        W20788   0.777  14.600   2.320
48496W        W20789  24.074   8.357   0.315
48497W        W20790  27.494  10.637  12.535
48498W        W20791   3.755   5.797  10.979
48499W        W20792  24.508  20.051   0.873
48500W        W20793  43.800  37.985  12.573
48501W        W20794   9.207  13.191   2.797
48502W        W20795  17.732  33.990  13.051
48503W        W20796  20.072  41.992   3.160
48504W        W20797  17.719  42.915  13.947
48505W        W20798   8.790  10.654  11.042
48506W        W20799   2.291  35.037   2.209
48507W        W20800   2.463  32.109   3.645
48508W        W20801  15.118   3.287   3.631
48509W        W20802  24.040   0.263  14.810
48510W        W20803  21.748   6.746  14.424
48511W        W20804  28.169  24.503   5.770
48512W        W20805  35.506  17.576  11.492
48513W        W20806  29.582  15.686   5.176
48514W        W20807  13.114  38.914  14.399
48515W        W20808  23.225  15.819  11.399
48516W        W20809  43.380  30.592  12.920
48517W        W20810  40.494  44.313  11.965
48518W        W20811  34.384  31.488  14.004
48519W        W20812  34.007   6.830   3.792
48520W        W20813   2.346   8.316  10.990
48521W        W20814  31.952  25.013   0.257
48522W        W20815  41.907  36.978  14.507
48523W        W20816  10.210  19.609  13.454
48524W        W20817  32.992  26.609   3.328
48525W        W20818  43.877  37.028   1.843
48526W        W20819  14.132  29.989   3.844
48527W        W20820  19.662  41.801   3.371
48528W        W20821  43.383  23.071   2.860
48529W        W20822  16.228  35.397  14.968
48530W        W20823  43.986  27.988  12.528
48531W        W20824   8.854   9.726  11.021
48532W        W20825  44.497  23.610   0.850
48533W        W20826  40.303  40.381   3.733
48534W        W20827  22.019   3.851  11.437
48535W        W20828   9.686  12.742   1.754
48536W        W20829   0.428   6.414  12.966
48537W        W20830  43.492  22.029  12.508
48538W        W20831  35.411  17.690  14.429
48539W        W20832  14.797  29.560  11.505
48540W        W20833  40.384  11.271  13.801
48541W        W20834  26.971   8.706  12.486
48542W        W20835   8.701   2.257  11.376
48543W        W20836  44.841  22.143  10.533
48544W        W20837  44.844  30.567   1.767
48545W        W20838  42.415   6.769  12.042
48546W        W20839   0.877  20.578   0.455
48547W        W20840   4.428   5.388  14.025
48548W        W20841   2.283  16.680   3.354
48549W        W20842  37.060   6.200   3.214
48550W        W20843  38.405  36.407   2.701
48551W        W20844   1.978   8.317   0.788
48552W        W20845  14.224  13.602   1.795
48553W        W20846  37.557  43.412  13.313
48554W        W20847  23.226  22.622  12.909
48555W        W20848  44.453  14.131  14.490
48556W        W20849  38.017   2.855  12.446
48557W        W20850  14.705  26.169  11.398
48558W        W20851  32.079  11.835  12.993
48559W        W20852   0.839  35.397  10.601
48560W        W20853   7.198   7.779  10.924
48561W        W20854  25.608  15.690   3.329
48562W        W20855  37.523  12.198  14.334
48563W        W20856  31.144  35.021  10.438
48564W        W20857  44.934  36.940   3.703
48565W        W20858  10.748   2.874  10.893
48566W        W20859  40.946  12.339   1.711
48567W        W20860  39.029  29.494   1.325
48568W        W20861  11.268   7.841  13.840
48569W        W20862  44.865  11.648  11.514
48570W        W20863  41.961  37.515   3.261
48571W        W20864  15.711  44.838   4.652
48572W        W20865   0.289  14.829  13.480
48573W        W20866  10.763   6.413   3.233
48574W        W20867  41.915  34.555   9.981
48575W        W20868  28.613  44.802  10.944
48576W        W20869  24.621   4.879   2.311
48577W        W20870   3.407  28.518   1.836
48578W        W20871  25.656  28.140  12.009
48579W        W20872   8.814  10.696  11.476
48580W        W20873   7.193  25.086  12.871
48581W        W20874   0.386  17.664  10.517
48582W        W20875  39.973  25.178  12.400
48583W        W20876  40.362  14.262  12.847
48584W        W20877  41.491  23.011  12.434
48585W        W20878  33.593   3.896   4.177
48586W        W20879  10.801  38.846  13.056
48587W        W20880   8.669   8.379   0.478
48588W        W20881  35.551   5.368  11.899
48589W        W20882   5.729  29.525   4.648
48590W        W20883  37.004  21.668   4.818
48591W        W20884  24.503   7.413   2.685
48592W        W20885   4.248  15.233  12.352
48593W        W20886   8.191  41.511   1.801
48594W        W20887   9.348  28.658  14.309
48595W        W20888   8.380  11.697   0.801
48596W        W20889  37.456  16.179  12.389
48597W        W20890  16.719   3.302   0.744
48598W        W20891   4.919  27.651  14.960
48599W        W20892  41.986  37.444   2.734
48600W        W20893   7.690   1.368  14.782
48601W        W20894  35.477   3.370  10.988
48602W        W20895   3.851  15.636   3.175
48603W        W20896  40.362  11.244   4.604
48604W        W20897  32.532   6.425   2.787
48605W        W20898  21.136  44.886  13.036
48606W        W20899  40.858   3.328   1.712
48607W        W20900  38.978  23.594   1.708
48608W        W20901  42.499  41.012  11.115
48609W        W20902  25.983  20.557   2.405
48610W        W20903  18.736  28.144   2.798
48611W        W20904  35.997  26.507   1.775
48612W        W20905  11.247  17.278   0.923
48613W        W20906  10.763  31.480   1.440
48614W        W20907   1.298  21.059   3.367
48615W        W20908  39.444   7.888  11.963
48616W        W20909  43.473  11.237   3.281
48617W        W20910  17.093  40.022   3.646
48618W        W20911  19.724  31.934   2.233
48619W        W20912  32.395  14.611   2.745
48620W        W20913  24.524   9.158   1.746
48621W        W20914   6.352   7.795   0.853
48622W        W20915  13.786  29.136  14.406
48623W        W20916   1.263  21.054  14.019
48624W        W20917   6.277  33.492  13.929
48625W        W20918  44.324  32.418   4.646
48626W        W20919  44.960  39.471  14.886
48627W        W20920   1.385  39.380   3.808
48628W        W20921  33.478  23.493   1.918
48629W        W20922  11.282  19.247   0.246
48630W        W20923  13.746  29.528  10.488
48631W        W20924  10.786   2.447  12.444
48632W        W20925  27.458  30.150   4.336
48633W        W20926  32.523  30.450   0.357
48634W        W20927  35.574  25.147   1.888
48635W        W20928  44.429  29.014  13.062
48636W        W20929  14.806  36.094  13.313
48637W        W20930  44.375  39.407   3.864
48638W        W20931   0.286  38.473  12.445
48639W        W20932   7.396  30.483  12.446
48640W        W20933  43.460   7.183  12.579
48641W        W20934  41.360   6.706  14.382
48642W        W20935   3.350  32.963   4.705
48643W        W20936   5.363  27.642  12.966
48644W        W20937  39.015  36.020  11.964
48645W        W20938  35.586  34.959  14.508
48646W        W20939  11.178  21.211  14.871
48647W        W20940  37.993  38.423  14.788
48648W        W20941  33.511  37.858   2.405
48649W        W20942  19.117   0.885   1.362
48650W        W20943  35.410  13.642  14.350
48651W        W20944   2.949  34.608  12.536
48652W        W20945  29.143  37.576  14.317
48653W        W20946   0.756   7.868  13.453
48654W        W20947   3.785  38.056   2.376
48655W        W20948  14.620  17.745  12.878
48656W        W20949  16.602  23.197  14.804
48657W        W20950   7.868  43.402  13.856
48658W        W20951  16.106  42.929   3.643
48659W        W20952  35.968  30.476   4.780
48660W        W20953  15.775   9.653   2.396
48661W        W20954  28.053  12.760   3.820
48662W        W20955  43.371  18.758  14.433
48663W        W20956   3.272  43.789   0.922
48664W        W20957  26.976  22.221   2.186
48665W        W20958  17.142  29.488   0.305
48666W        W20959   3.716  44.790  14.897
48667W        W20960  40.863  24.720  11.471
48668W        W20961  16.669  23.987   1.868
48669W        W20962   7.791  19.687   9.972
48670W        W20963  12.234  39.914   0.283
48671W        W20964  28.989   7.899   4.280
48672W        W20965  11.811  17.568   1.365
48673W        W20966   6.815  38.072   2.320
48674W        W20967  16.113  38.563   4.204
48675W        W20968  36.057  18.609  10.948
48676W        W20969   9.377   4.824  10.103
48677W        W20970   1.404  27.591  10.994
48678W        W20971  21.106  31.954  10.968
48679W        W20972  23.525   7.674  14.856
48680W        W20973  22.545  17.617  12.979
48681W        W20974  26.980   7.299  12.343
48682W        W20975  36.960   8.387  13.447
48683W        W20976   7.707   9.802  11.568
48684W        W20977  35.361  24.593  12.365
48685W        W20978   3.770  26.085  14.932
48686W        W20979  39.556   7.374   1.270
48687W        W20980   2.236  14.591  10.900
48688W        W20981  23.087   2.292   2.293
48689W        W20982  28.638  24.197   4.775
48690W        W20983  35.428  44.982   2.418
48691W        W20984  29.566   2.319  13.461
48692W        W20985  10.274  44.961  14.858
48693W        W20986   1.296   1.326  12.001
48694W        W20987  39.429  41.943   2.270
48695W        W20988  11.747  30.573  11.406
48696W        W20989  15.696  19.744   4.223
48697W        W20990  26.517  16.279   2.865
48698W        W20991  29.540  31.142  13.354
48699W        W20992   5.428   4.862  12.937
48700W        W20993  15.765  29.144  11.550
48701W        W20994  24.566  23.235  14.321
48702W        W20995  35.081  28.175  12.511
48703W        W20996  32.637  15.815  11.387
48704W        W20997  41.867  21.532  14.885
48705W        W20998  44.887  43.322   1.216
48706W        W20999  23.690  24.681  11.538
48707W        W21000  21.523  41.336   4.264
48708W        W21001  13.735  14.704  11.894
48709W        W21002  21.147  24.114  13.042
48710W        W21003  15.723  43.874  14.285
48711W        W21004  24.588  10.199  10.944
48712W        W21005   7.835   2.790   0.949
48713W        W21006  27.611   7.387   0.397
48714W        W21007  26.594  13.719   0.308
48715W        W21008  40.399   0.760  14.809
48716W        W21009  40.535  38.917  13.484
48717W        W21010   6.705   6.205  12.561
48718W        W21011  41.839  32.480  11.418
48719W        W21012   8.399  22.096  14.851
48720W        W21013  11.134  40.999  12.924
48721W        W21014  12.772   8.183   2.858
48722W        W21015  21.244   8.395   5.184
48723W        W21016   9.888  24.203  13.020
48724W        W21017   0.291  35.374   1.865
48725W        W21018  34.575   1.732   2.735
48726W        W21019   0.438  33.402   1.741
48727W        W21020  25.081   9.777   2.868
48728W        W21021   4.441   3.272   2.274
48729W        W21022   0.350  24.210   1.790
48730W        W21023  15.654  21.139   3.743
48731W        W21024  21.155  20.118  11.056
48732W        W21025  26.034  42.968   1.319
48733W        W21026  14.729  40.358  13.848
48734W        W21027  18.078  18.757  13.495
48735W        W21028  42.438  36.916   1.437
48736W        W21029   6.192  18.657  11.995
48737W        W21030  30.618  18.199   1.248
48738W        W21031  25.665   2.244  14.971
48739W        W21032   2.369   3.447   9.978
48740W        W21033   0.749  13.238   1.767
48741W        W21034   9.231  37.087   4.613
48742W        W21035  39.386  39.907   1.890
48743W        W21036  33.940  27.155   3.643
48744W        W21037  11.866  30.925  11.409
48745W        W21038  27.185  27.980   2.901
48746W        W21039  11.345   6.423   4.335
48747W        W21040  29.176  44.361   3.732
48748W        W21041  16.636  41.950   4.837
48749W        W21042  34.400  14.246  10.923
48750W        W21043  24.668  32.966  13.402
48751W        W21044  21.185   7.324  13.850
48752W        W21045  33.095  14.210  14.868
48753W        W21046  29.640  32.936  12.018
48754W        W21047  41.026  18.601  11.082
48755W        W21048   8.831  15.104  13.902
48756W        W21049  36.054  40.539  13.345
48757W        W21050  19.152  17.744  14.914
48758W        W21051  19.092  18.235  14.877
48759W        W21052   3.937  13.614  10.475
48760W        W21053   1.916  21.578  14.019
48761W        W21054  37.879  43.374   4.153
48762W        W21055  20.552  39.996  12.080
48763W        W21056  16.592   1.354   1.424
48764W        W21057  31.486  21.044   1.226
48765W        W21058   7.411  27.525   2.838
48766W        W21059  10.376  19.776   0.742
48767W        W21060  28.939  23.091  14.937
48768W        W21061  19.100  30.455  13.974
48769W        W21062  28.992  35.106   2.763
48770W        W21063  30.595  38.048   0.946
48771W        W21064  44.966  18.737  10.896
48772W        W21065  21.126   4.233   1.821
48773W        W21066  16.701  30.095  14.758
48774W        W21067   3.900   7.227  13.403
48775W        W21068  20.589  15.787   1.324
48776W        W21069  15.773  17.302  11.536
48777W        W21070  25.699   9.835   1.777
48778W        W21071  33.957   9.704   3.647
48779W        W21072   8.857  17.262   3.236
48780W        W21073  14.793  15.788   3.716
48781W        W21074  15.231  13.721  12.419
48782W        W21075   0.856  42.386  14.394
48783W        W21076  40.876  42.030  10.887
48784W        W21077  10.235  13.292   1.335
48785W        W21078   8.376  11.215  12.392
48786W        W21079  16.756  14.786  14.906
48787W        W21080  39.553  22.098  13.920
48788W        W21081  13.272  35.439   1.334
48789W        W21082  27.603  35.910   0.469
48790W        W21083  14.645   4.388  10.543
48791W        W21084  23.141  35.945  11.440
48792W        W21085   5.427  15.118  14.280
48793W        W21086   6.700  39.539   1.852
48794W        W21087  21.602  43.920   0.393
48795W        W21088  11.127  27.030   4.181
48796W        W21089  36.012  44.851   0.323
48797W        W21090  40.383  14.103   1.343
48798W        W21091  28.528  31.977  14.788
48799W        W21092   1.887  19.074  13.802
48800W        W21093  18.697  42.990  10.465
48801W        W21094   4.346   7.812   2.818
48802W        W21095  30.911  18.137   4.118
48803W        W21096  24.017  40.809   4.166
48804W        W21097  17.270  16.141   1.736
48805W        W21098  43.779  13.146   1.760
48806W        W21099  33.920  38.515   1.400
48807W        W21100  10.168  29.083  11.603
48808W        W21101  34.874   5.846  10.140
48809W        W21102  23.082   9.150  14.879
48810W        W21103   4.392  21.174   4.657
48811W        W21104   0.972  43.360   2.274
48812W        W21105  17.263   9.861  11.964
48813W        W21106  19.169  11.236   3.763
48814W        W21107   8.661  36.970   3.373
48815W        W21108  20.140  30.098   3.631
48816W        W21109   1.422  23.524   1.916
48817W        W21110  37.083  30.975   3.776
48818W        W21111   3.888  18.236   9.981
48819W        W21112  37.014   5.927  14.821
48820W        W21113  11.211  28.528  11.055
48821W        W21114   7.184  37.541   5.314
48822W        W21115  13.206   2.357   3.355
48823W        W21116  37.921  35.888  10.601
48824W        W21117  36.574   3.850  12.953
48825W        W21118  29.985  27.118  12.939
48826W        W21119  36.384  35.389   1.789
48827W        W21120  13.700   9.334  11.972
48828W        W21121  44.951   3.878  13.393
48829W        W21122  27.170   2.914  14.471
48830W        W21123  43.808  32.571   0.842
48831W        W21124  44.296  33.928  13.331
48832W        W21125   0.977   2.374   0.319
48833W        W21126   7.340  33.396   0.327
48834W        W21127  17.074  39.866  11.118
48835W        W21128   5.431  11.689  12.366
48836W        W21129   0.885  23.719   4.805
48837W        W21130  43.426  19.748   3.154
48838W        W21131  44.490  25.673  13.932
48839W        W21132  44.851  24.610  14.893
48840W        W21133   4.372  22.175  11.378
48841W        W21134  32.136  29.121  12.480
48842W        W21135  34.373  27.453  12.473
48843W        W21136  33.520  40.513   4.818
48844W        W21137   2.888  24.645  13.402
48845W        W21138  34.006  42.881   1.268
48846W        W21139  12.655  15.681   4.349
48847W        W21140  19.550  36.868   2.187
48848W        W21141  34.037  37.914   3.793
48849W        W21142  14.829   6.832  14.997
48850W        W21143  21.691  29.442   4.330
48851W        W21144  10.249  43.515  13.952
48852W        W21145  36.015  23.562   4.281
48853W        W21146  16.077  27.166   3.188
48854W        W21147   9.278  31.510   3.865
48855W        W21148   9.737  27.005  11.463
48856W        W21149  12.277  10.711  13.884
48857W        W21150  35.498   6.337   2.363
48858W        W21151  44.351  29.176  12.457
48859W        W21152  19.616  21.156  14.865
48860W        W21153  13.656  39.819  14.319
48861W        W21154   2.745  21.063   4.131
48862W        W21155  28.445  25.971  11.947
48863W        W21156  43.321  32.560   0.950
48864W        W21157  29.599  37.389   0.312
48865W        W21158  12.700  23.172   4.281
48866W        W21159  38.426  44.325  13.893
48867W        W21160  21.047   9.363   2.864
48868W        W21161   0.799  18.251  14.874
48869W        W21162  19.113  29.443   0.942
48870W        W21163  42.473   3.347  12.566
48871W        W21164  22.504  25.710  14.278
48872W        W21165  18.079   1.460  11.106
48873W        W21166  36.396   5.229  14.459
48874W        W21167  44.339  12.787   2.858
48875W        W21168  22.702   6.246  10.620
48876W        W21169   4.701  21.172  14.354
48877W        W21170  36.064  34.521  10.519
48878W        W21171  13.652  22.720   2.294
48879W        W21172  40.835  38.044  12.948
48880W        W21173  39.433  14.658   0.912
48881W        W21174  24.205  38.518  11.969
48882W        W21175  32.927  33.570   1.218
48883W        W21176  13.270  24.980   0.749
48884W        W21177  41.822  41.363   5.168
48885W        W21178  20.765  18.609  14.915
48886W        W21179  17.685  32.004  10.073
48887W        W21180   6.378  14.102  14.932
48888W        W21181  12.702  41.889  12.965
48889W        W21182  30.649  44.286   2.800
48890W        W21183  10.285  20.038  14.887
48891W        W21184  10.360  10.248  13.332
48892W        W21185  38.435   4.370   0.276
48893W        W21186  11.647  27.087  14.825
48894W        W21187  26.072  34.421  12.081
48895W        W21188  32.925  34.016  11.900
48896W        W21189  17.196  33.911  10.997
48897W        W21190  12.185  33.131  13.353
48898W        W21191  21.715  42.433  11.418
48899W        W21192   6.184  36.083  13.831
48900W        W21193   1.820  28.631  13.804
48901W        W21194  32.116  23.716  12.477
48902W        W21195  35.490  36.974  13.953
48903W        W21196  36.348  16.591   1.855
48904W        W21197  43.851  43.831   0.923
48905W        W21198   8.831  38.328   3.240
48906W        W21199  26.467  44.797   2.238
48907W        W21200  34.077  40.549   0.738
48908W        W21201  26.636  40.485  13.887
48909W        W21202  44.289  43.443   1.247
48910W        W21203  37.447  37.540   4.350
48911W        W21204  42.800  15.628   4.670
48912W        W21205  18.578  40.421  14.901
48913W        W21206  21.543  42.838  14.979
48914W        W21207   6.795  25.003   2.728
48915W        W21208  36.877  43.422   3.353
48916W        W21209  16.217   6.351   3.181
48917W        W21210  19.597   8.823  11.452
48918W        W21211  30.960  35.910   4.352
48919W        W21212  30.945  35.540  12.900
48920W        W21213   8.784  22.723  10.891
48921W        W21214   5.780  15.312   2.891
48922W        W21215  17.094   5.252   4.113
48923W        W21216  44.327  14.184   1.350
48924W        W21217  18.694   5.265   1.247
48925W        W21218  35.361  38.862  13.793
48926W        W21219  24.545  24.004   2.255
48927W        W21220  18.683  41.026   1.252
48928W        W21221  43.995   7.274   2.900
48929W        W21222  21.093  23.092  10.638
48930W        W21223   2.912  43.791   3.671
48931W        W21224  36.943  37.434   0.327
48932W        W21225   8.770  43.888   4.623
48933W        W21226   5.249  35.861   0.879
48934W        W21227  40.875  24.710   0.366
48935W        W21228  11.835  26.979   4.804
48936W        W21229   8.207   9.858  10.600
48937W        W21230  26.024  34.019  14.436
48938W        W21231  30.049  22.017   9.933
48939W        W21232   5.403   7.417  13.880
48940W        W21233  26.646  16.684  14.815
48941W        W21234  33.940  13.639   4.140
48942W        W21235  23.496  40.474  11.111
48943W        W21236  40.434  29.121   2.898
48944W        W21237   5.863  38.009   4.235
48945W        W21238  34.496  15.677   3.672
48946W        W21239  24.977   5.753  10.471
48947W        W21240  13.282  19.611  13.501
48948W        W21241  26.195   5.737   4.126
48949W        W21242  23.726  44.444  10.150
48950W        W21243  43.977  13.772   1.696
48951W        W21244  42.486  26.485   2.199
48952W        W21245  26.020  21.019  14.385
48953W        W21246   5.221  27.187  11.530
48954W        W21247  28.649  38.361  10.497
48955W        W21248  25.602  23.220  13.982
48956W        W21249  17.751  42.997  11.594
48957W        W21250  21.646   3.897   2.789
48958W        W21251   9.299  40.320  14.488
48959W        W21252  19.540  28.989   3.206
48960W        W21253  37.567  13.757   0.786
48961W        W21254  37.900   3.949  10.451
48962W        W21255  41.507   5.413   0.254
48963W        W21256   0.972  44.962  13.408
48964W        W21257  22.606  22.661   2.720
48965W        W21258  13.244  19.262   3.692
48966W        W21259   9.252  12.681   4.238
48967W        W21260  14.799   3.869   1.378
48968W        W21261  32.575  24.719  13.013
48969W        W21262   6.351  27.682   4.303
48970W        W21263   8.778  33.006   4.818
48971W        W21264  44.983  42.297  14.889
48972W        W21265  15.220  21.085  11.091
48973W        W21266  42.285  33.607  10.626
48974W        W21267  39.432  37.907  11.609
48975W        W21268  38.017  17.627  10.601
48976W        W21269  29.990  32.973  11.411
48977W        W21270  26.157   4.925  13.468
48978W        W21271   9.173  27.674  13.443
48979W        W21272  42.428  36.466  14.799
48980W        W21273   2.275   1.903   4.722
48981W        W21274  23.216  29.594  14.361
48982W        W21275  38.982  29.465   0.447
48983W        W21276  29.627  32.066  11.129
48984W        W21277  27.081   8.791   1.747
48985W        W21278   8.752  11.133  12.033
48986W        W21279  19.631  29.101   2.181
48987W        W21280   6.841  21.253  14.863
48988W        W21281  40.972  41.911  11.977
48989W        W21282  18.202  19.157  14.022
48990W        W21283  36.872  30.650   4.632
48991W        W21284   6.786   2.244   1.238
48992W        W21285  12.676  14.117  14.362
48993W        W21286  39.941  20.730  11.593
48994W        W21287   8.379  42.953  12.415
48995W        W21288  17.098  17.576  14.408
48996W        W21289  19.175  20.263  12.018
48997W        W21290  18.253  22.036  11.491
48998W        W21291  39.032  34.088   3.710
48999W        W21292  15.704   1.461  14.963
49000W        W21293   9.677  25.476  10.889
49001W        W21294  31.048  29.052   4.313
49002W        W21295  16.648  27.566   1.333
49003W        W21296  35.490  31.564  11.857
49004W        W21297  40.874  43.952  11.033
49005W        W21298  26.208  40.987   3.665
49006W        W21299  32.398  30.652  10.989
49007W        W21300   9.359  19.562  14.823
49008W        W21301  29.514   4.816  11.410
49009W        W21302   7.786  42.960   3.369
49010W        W21303  37.947  16.274   2.344
49011W        W21304  35.010  32.561   3.299
49012W        W21305  40.361  15.329   4.319
49013W        W21306   0.970  22.116   0.314
49014W        W21307   5.809   3.378  13.315
49015W        W21308  26.148  17.575  14.404
49016W        W21309  42.336  40.393   1.276
49017W        W21310  33.485  15.771  10.023
49018W        W21311  40.930  24.489   2.849
49019W        W21312  22.594   6.840   2.736
49020W        W21313  12.738  44.860  13.463
49021W        W21314  26.088  26.563  10.936
49022W        W21315  36.000  41.879   0.782
49023W        W21316  44.001  25.179  13.836
49024W        W21317   2.467  36.093   0.856
49025W        W21318   7.399  15.225   4.670
49026W        W21319  26.603  34.564  13.536
49027W        W21320   5.714  25.970  10.583
49028W        W21321   5.425  14.209   3.864
49029W        W21322  12.735  29.054   3.212
49030W        W21323  40.849  16.136   4.150
49031W        W21324   8.806  18.701   1.226
49032W        W21325  33.576   6.416   3.715
49033W        W21326  41.312  30.514   2.759
49034W        W21327  23.098  25.496   2.886
49035W        W21328  31.467   7.708  14.771
49036W        W21329  20.194  40.506  12.378
49037W        W21330  22.114   4.772   0.257
49038W        W21331  40.522  33.503   0.783
49039W        W21332  16.601  28.088   4.113
49040W        W21333  38.397  25.672  11.064
49041W        W21334   7.754  20.752   3.708
49042W        W21335  23.642  28.590  13.045
49043W        W21336  11.841  23.086   3.691
49044W        W21337  16.107  38.492   3.740
49045W        W21338   3.851  11.268   4.230
49046W        W21339   3.261   9.863   1.295
49047W        W21340  44.993  32.414  10.623
49048W        W21341  38.039   7.403   4.678
49049W        W21342  18.713  42.803   1.234
49050W        W21343  16.297   1.814  14.993
49051W        W21344   0.782  39.335  10.509
49052W        W21345  39.870  16.155  13.504
49053W        W21346  29.669  10.317   4.126
49054W        W21347  29.923   6.682   0.458
49055W        W21348  44.838  19.200   9.955
49056W        W21349  41.872  13.131   1.259
49057W        W21350  17.555  13.127  12.838
49058W        W21351   4.317   1.781   3.844
49059W        W21352   2.855   5.882  12.030
49060W        W21353   9.288  20.273   4.167
49061W        W21354  26.991  42.968   4.702
49062W        W21355  19.141   9.204  11.608
49063W        W21356  21.211  36.559  13.879
49064W        W21357  31.614  35.856   0.338
49065W        W21358  37.339  21.580   1.257
49066W        W21359  34.511  30.598  13.794
49067W        W21360  22.636   3.896   0.894
49068W        W21361   8.679  38.459   2.667
49069W        W21362   0.962  18.223   4.672
49070W        W21363  14.757  29.459  12.356
49071W        W21364  20.234  32.975  13.322
49072W        W21365  25.557  17.070  14.306
49073W        W21366  10.239  31.646  10.445
49074W        W21367  18.710  18.713   1.298
49075W        W21368  35.110  24.517   3.840
49076W        W21369   5.693  34.549   4.762
49077W        W21370  26.112  28.559  12.394
49078W        W21371  33.907  43.332   2.367
49079W        W21372  43.337   8.270  11.473
49080W        W21373   7.397  37.439   0.423
49081W        W21374  43.403  30.640  10.062
49082W        W21375  39.811  43.485   3.763
49083W        W21376  21.220  10.815   0.911
49084W        W21377  10.258  25.710  11.874
49085W        W21378  43.857  14.696   4.337
49086W        W21379  28.615   2.877   0.826
49087W        W21380  21.022  13.270   0.350
49088W        W21381  31.434  32.574   4.115
49089W        W21382  23.100  23.675  12.911
49090W        W21383   1.762   6.333  14.460
49091W        W21384  23.184  41.470  11.864
49092W        W21385  22.739  36.943   2.821
49093W        W21386  14.601  12.181   2.193
49094W        W21387  32.914   3.864  11.595
49095W        W21388  44.937  22.563   2.317
49096W        W21389  13.696  12.306   1.276
49097W        W21390   3.731  32.433   1.252
49098W        W21391  17.257  30.468   1.883
49099W        W21392  32.419  38.564  14.961
49100W        W21393  38.562  14.704   0.253
49101W        W21394  28.143  40.537  14.989
49102W        W21395  13.764  10.658  12.485
49103W        W21396  25.484  32.613  11.125
49104W        W21397  25.506  18.296   5.308
49105W        W21398  29.658   5.876   0.352
49106W        W21399   0.413  40.037   2.189
49107W        W21400  28.034  42.818  10.537
49108W        W21401  37.008  20.080   0.310
49109W        W21402   3.353   7.382  14.948
49110W        W21403  17.625   7.351   4.130
49111W        W21404   4.734  30.964   1.298
49112W        W21405  15.805  38.891   0.402
49113W        W21406   6.902  38.394  10.979
49114W        W21407  12.125  30.976   2.183
49115W        W21408  22.742  38.879   1.846
49116W        W21409  15.589  30.965  10.410
49117W        W21410   4.243   6.832   4.689
49118W        W21411  24.721   1.821   2.692
49119W        W21412  15.270  42.523  11.077
49120W        W21413  11.627  17.235   0.329
49121W        W21414  41.399  25.133   4.768
49122W        W21415   2.264  26.486  10.431
49123W        W21416  18.231  44.899  10.429
49124W        W21417   8.772  20.264  11.507
49125W        W21418  44.478  33.533  12.019
49126W        W21419  38.424  41.376  14.831
49127W        W21420  34.023  17.210   1.433
49128W        W21421   3.377   0.365  11.911
49129W        W21422   1.808  27.112   1.801
49130W        W21423  24.219  16.260  13.006
49131W        W21424   0.792   9.174   2.789
49132W        W21425   8.222  32.889  11.104
49133W        W21426   9.864  31.973   1.716
49134W        W21427  41.033  42.860   5.207
49135W        W21428  33.036  39.403  14.863
49136W        W21429  24.107  32.413  10.459
49137W        W21430  36.924  27.956  12.443
49138W        W21431   7.180  10.291   0.884
49139W        W21432  39.929  20.040   0.345
49140W        W21433  11.309  33.565   2.855
49141W        W21434  38.865  16.601  14.293
49142W        W21435  34.045   3.783  12.460
49143W        W21436  18.168   0.272   2.666
49144W        W21437  29.605  15.681   3.813
49145W        W21438  38.351  39.505   0.368
49146W        W21439   7.670   3.248  10.405
49147W        W21440  18.662  12.677   0.735
49148W        W21441  12.633  25.481  11.014
49149W        W21442  43.010   2.418  11.523
49150W        W21443  17.738  22.176  14.470
49151W        W21444  34.952  36.014  11.537
49152W        W21445   0.989  11.343   2.179
49153W        W21446  32.926  31.569  12.969
49154W        W21447  44.797  39.355   1.760
49155W        W21448  38.459  24.130  11.952
49156W        W21449  37.914  39.819  11.434
49157W        W21450   2.832  37.363  13.046
49158W        W21451  33.428  24.226  14.878
49159W        W21452  41.345  44.380   0.864
49160W        W21453  34.909  31.033  12.521
49161W        W21454  16.754  17.209   0.397
49162W        W21455  20.660  42.470   1.260
49163W        W21456  35.449  44.323  11.583
49164W        W21457   7.192  38.538   4.698
49165W        W21458  43.947  23.157  11.041
49166W        W21459  14.203  27.115  10.582
49167W        W21460  15.133  18.272   2.280
49168W        W21461  25.704  43.488   1.438
49169W        W21462  25.640  40.528  12.485
49170W        W21463  33.061  19.118   2.743
49171W        W21464  29.455  36.549  11.068
49172W        W21465   9.795  18.278   3.208
49173W        W21466  21.725  28.034   0.367
49174W        W21467   7.196  23.528  13.807
49175W        W21468  31.978  30.034  10.600
49176W        W21469  32.021  16.601   4.276
49177W        W21470   6.739  40.975   0.809
49178W        W21471   4.768   8.786  13.025
49179W        W21472  41.911  43.997   1.809
49180W        W21473  19.276  21.175  13.472
49181W        W21474  34.439  22.116   3.256
49182W        W21475   2.884  38.037  14.390
49183W        W21476  12.356  41.348  11.547
49184W        W21477  35.472   6.379   1.721
49185W        W21478   7.888  39.029   0.753
49186W        W21479   9.331  34.483  10.071
49187W        W21480  17.267  39.898   2.774
49188W        W21481   7.258  41.509  12.453
49189W        W21482  33.876  22.252  12.363
49190W        W21483  14.636  11.676   4.728
49191W        W21484  12.149  37.894  12.345
49192W        W21485  31.559  39.991  12.520
49193W        W21486  25.169  37.355   3.740
49194W        W21487  30.072  23.098   1.343
49195W        W21488   6.304   2.760  14.980
49196W        W21489  15.639  17.621   4.200
49197W        W21490  13.145   6.863  11.066
49198W        W21491  38.475  26.587  10.095
49199W        W21492  33.098   0.911  11.373
49200W        W21493   7.285   9.795  11.091
49201W        W21494  39.320  41.032   2.784
49202W        W21495  41.365  19.183   5.148
49203W        W21496  32.925  39.381  13.378
49204W        W21497  10.259   6.232  10.586
49205W        W21498  25.660   0.476  13.971
49206W        W21499  18.054  19.259  12.561
49207W        W21500   9.679  40.530  11.385
49208W        W21501   9.159  17.178  10.594
49209W        W21502  19.198  10.747   1.723
49210W        W21503  10.688  19.743   2.231
49211W        W21504  41.446  13.689   1.897
49212W        W21505  19.183  24.054   1.284
49213W        W21506  28.551  25.057   4.624
49214W        W21507  21.173  18.236   3.171
49215W        W21508  10.670   7.813   4.179
49216W        W21509  41.870  39.416  12.871
49217W        W21510  11.851  14.267  12.411
49218W        W21511   3.293  12.822   2.868
49219W        W21512  34.396  27.446   3.310
49220W        W21513  10.668  19.264  10.984
49221W        W21514  18.548  42.943  11.559
49222W        W21515   3.740  17.601  11.440
49223W        W21516  24.560  13.749  13.837
49224W        W21517  14.227   6.795  14.932
49225W        W21518   5.224  29.029  11.929
49226W        W21519  37.518  34.935   3.671
49227W        W21520   3.286  14.825  13.899
49228W        W21521  42.857  14.161   0.300
49229W        W21522   7.388  43.892   1.319
49230W        W21523  25.612  30.917   0.824
49231W        W21524   3.866  18.200   3.768
49232W        W21525  21.165   6.922   3.177
49233W        W21526  19.219   6.362   3.722
49234W        W21527  44.358  20.193  10.086
49235W        W21528   1.300  33.579  11.906
49236W        W21529   6.811  30.423   0.830
49237W        W21530  13.298  23.492  14.399
49238W        W21531  26.523  41.349   3.182
49239W        W21532  21.085  33.499   1.282
49240W        W21533  23.115  21.668  12.056
49241W        W21534  43.404   6.222  11.021
49242W        W21535  36.373  25.127  10.971
49243W        W21536  43.481  16.265   2.256
49244W        W21537  36.557  25.144  11.389
49245W        W21538   7.193  23.216   1.437
49246W        W21539   0.315  23.115   3.673
49247W        W21540  26.006  10.788   4.784
49248W        W21541  31.512  21.159   4.752
49249W        W21542  20.576  34.931   2.285
49250W        W21543  13.705  30.434   3.654
49251W        W21544  41.293  34.927  14.306
49252W        W21545   2.403   1.772  10.905
49253W        W21546  28.575  42.867   1.914
49254W        W21547  44.333  42.813   2.711
49255W        W21548  16.733   7.382   3.639
49256W        W21549   2.270   7.392   3.688
49257W        W21550  40.866  20.267  11.382
49258W        W21551  30.107  17.295   4.352
49259W        W21552  32.400  23.991  11.025
49260W        W21553  18.233  36.912  13.897
49261W        W21554  18.682   2.928   2.278
49262W        W21555  42.800  33.043   4.114
49263W        W21556  42.446   0.418  14.798
49264W        W21557  23.042  41.501   4.723
49265W        W21558  24.697  24.055   3.352
49266W        W21559  28.036  24.481   4.698
49267W        W21560   0.787  22.570   2.847
49268W        W21561   8.730  34.558   1.695
49269W        W21562  11.777  38.550  14.766
49270W        W21563  10.337   0.746  10.911
49271W        W21564   8.161  16.230   2.401
49272W        W21565   6.302  39.045   4.745
49273W        W21566  12.692  44.950  11.097
49274W        W21567  15.583  41.406   2.223
49275W        W21568   4.279  24.091  10.979
49276W        W21569   6.847  28.150   4.240
49277W        W21570  15.122  32.613   1.918
49278W        W21571  15.674   6.401   0.439
49279W        W21572  21.135  25.679  13.396
49280W        W21573  32.571  34.920   0.346
49281W        W21574  26.104  40.457  14.759
49282W        W21575  19.236  27.546   0.894
49283W        W21576   6.821  23.510  11.478
49284W        W21577  40.510  27.183   4.336
49285W        W21578  31.008  25.565   3.185
49286W        W21579  43.360   6.755   4.661
49287W        W21580  40.427   3.797  11.121
49288W        W21581  20.056  40.984   3.205
49289W        W21582  10.252  28.517  12.077
49290W        W21583  16.721  16.729  12.550
49291W        W21584  39.541   2.868  10.607
49292W        W21585  18.290   1.876  10.575
49293W        W21586  34.958  41.430  10.498
49294W        W21587   4.252  38.014  14.446
49295W        W21588  32.014  19.149   3.263
49296W        W21589   4.845  20.646   1.903
49297W        W21590  30.004   3.332   2.413
49298W        W21591   3.746   6.364  14.281
49299W        W21592   8.674  39.519   1.746
49300W        W21593  29.991  29.024   0.915
49301W        W21594  16.214  11.697  12.405
49302W        W21595  15.700  14.779  13.365
49303W        W21596   4.943  34.000   0.772
49304W        W21597  36.375   3.290   1.263
49305W        W21598  19.731  13.265   3.724
49306W        W21599  22.536  10.635   3.354
49307W        W21600  24.636  13.601  14.871
49308W        W21601  30.561  35.109   4.764
49309W        W21602  12.226  25.073   1.215
49310W        W21603   7.363  23.516  14.874
49311W        W21604  37.350  30.941  14.775
49312W        W21605  30.958  14.723   0.850
49313W        W21606  40.488  20.529   2.693
49314W        W21607  44.334  31.131  12.499
49315W        W21608  32.921   1.735   0.777
49316W        W21609  27.971  13.284   1.400
49317W        W21610  15.303  13.835  12.943
49318W        W21611  44.790  13.599  12.015
49319W        W21612  40.527  38.478  12.906
49320W        W21613   8.341  12.615   1.237
49321W        W21614  30.501   4.402  12.415
49322W        W21615  30.959  33.055   3.855
49323W        W21616  27.477   4.840   1.767
49324W        W21617  18.608  22.235   4.664
49325W        W21618  25.007  23.025  10.537
49326W        W21619  32.084  28.008   2.352
49327W        W21620  44.267  13.753  14.383
49328W        W21621  36.349  23.622   2.818
49329W        W21622  24.686  16.078   1.364
49330W        W21623  10.262  38.459   3.772
49331W        W21624  20.685  30.473  13.936
49332W        W21625   2.723  16.135  14.855
49333W        W21626  42.956  16.711  11.386
49334W        W21627  25.576  42.993   0.384
49335W        W21628  37.478   8.240  12.095
49336W        W21629  34.376   5.695   2.706
49337W        W21630  17.138   5.758   0.827
49338W        W21631  36.496  44.838  13.341
49339W        W21632  18.611  23.732   5.301
49340W        W21633  13.657  43.896   1.714
49341W        W21634  17.660  15.236   2.874
49342W        W21635  34.967  31.124   2.831
49343W        W21636  26.524   4.884   2.755
49344W        W21637  22.545  25.082  13.309
49345W        W21638  34.089   0.456   3.702
49346W        W21639  37.454  31.562  11.483
49347W        W21640  42.458   2.793  12.863
49348W        W21641  28.948  43.822   0.907
49349W        W21642  28.624  43.498  10.580
49350W        W21643  40.458   9.259   0.857
49351W        W21644  25.120  39.849  10.495
49352W        W21645  30.648  33.034   1.250
49353W        W21646  12.273  36.572  11.942
49354W        W21647   6.827   1.978  11.449
49355W        W21648  31.004   4.731  12.059
49356W        W21649   7.692   0.892  14.498
49357W        W21650  17.615  38.417  10.630
49358W        W21651  44.800  30.113   4.837
49359W        W21652  11.682  41.999   4.831
49360W        W21653  15.583  27.944  10.003
49361W        W21654  37.980  42.948  11.376
49362W        W21655  18.156  29.118   0.892
49363W        W21656  15.218  30.041   1.744
49364W        W21657  19.684  38.534  10.434
49365W        W21658  11.195  20.543   3.692
49366W        W21659  19.217  23.217  10.076
49367W        W21660  41.952  38.336   4.159
49368W        W21661  36.952  34.448  13.995
49369W        W21662  17.597  44.856  12.349
49370W        W21663   5.337  26.457  12.873
49371W        W21664  26.610  23.679   0.311
49372W        W21665   1.775  15.669   3.189
49373W        W21666  27.952  14.161  11.862
49374W        W21667  18.721   1.879  10.583
49375W        W21668   4.352  29.037  12.981
49376W        W21669   7.350  33.108   1.780
49377W        W21670  39.873  25.113  13.965
49378W        W21671  42.927  44.914   1.433
49379W        W21672   2.856  22.689   2.683
49380W        W21673  42.413  14.621  13.811
49381W        W21674  14.591  19.045  12.092
49382W        W21675   4.778   6.186  11.953
49383W        W21676   5.292  25.184  14.823
49384W        W21677  19.268   9.259   4.697
49385W        W21678   8.809   4.920   2.716
49386W        W21679  39.441  40.815   2.332
49387W        W21680   2.400  36.431  12.500
49388W        W21681   5.793   4.429   2.260
49389W        W21682   9.200  12.813   0.262
49390W        W21683   4.348  29.507  11.603
49391W        W21684  17.178  24.506  12.576
49392W        W21685   6.747  28.095   2.380
49393W        W21686  29.509   2.402   0.318
49394W        W21687  22.630  31.041   4.168
49395W        W21688  35.905  43.984  11.038
49396W        W21689  20.627  38.897  10.487
49397W        W21690  18.647  40.943   1.861
49398W        W21691   9.744  27.981   4.224
49399W        W21692  35.442  31.041  12.493
49400W        W21693  20.632   3.369   4.822
49401W        W21694  30.627   4.292   3.752
49402W        W21695  14.599  23.646  11.532
49403W        W21696  40.841  18.162   1.908
49404W        W21697  33.015  34.427   4.771
49405W        W21698  41.420   1.406   5.241
49406W        W21699  24.108  18.151   0.337
49407W        W21700  40.372  41.942  10.597
49408W        W21701  31.557   6.413   0.408
49409W        W21702  41.420  44.264  11.077
49410W        W21703   7.313  14.703   3.264
49411W        W21704  22.737  26.040  14.830
49412W        W21705  33.566   4.347  13.849
49413W        W21706  20.528  16.086   0.385
49414W        W21707   2.430  15.699  13.966
49415W        W21708   7.213  27.535  14.285
49416W        W21709  42.337  36.509  12.450
49417W        W21710  42.371   8.258  14.398
49418W        W21711  21.580   2.232  12.573
49419W        W21712  28.489  41.913  10.490
49420W        W21713  33.537   0.338   0.469
49421W        W21714  29.630  20.211   1.447
49422W        W21715  41.340   0.845  13.341
49423W        W21716  29.975  18.758   4.211
49424W        W21717  13.162   6.700  13.396
49425W        W21718  43.509  44.915  12.950
49426W        W21719  13.158  43.990  12.007
49427W        W21720  18.702  37.378   0.766
49428W        W21721  41.998   6.827  11.473
49429W        W21722  18.092  28.038   0.738
49430W        W21723  16.650  34.607  10.643
49431W        W21724  39.983  35.077   1.776
49432W        W21725  12.176  42.283  11.419
49433W        W21726  43.897  23.148  14.438
49434W        W21727  11.208  34.017   0.954
49435W        W21728   4.787  26.957  11.027
49436W        W21729  12.719  25.058  13.547
49437W        W21730   8.220  41.536   2.841
49438W        W21731  33.382   8.890   3.297
49439W        W21732  43.424  21.113   1.400
49440W        W21733   0.922  25.500  14.789
49441W        W21734  41.833  37.421  10.996
49442W        W21735  31.988  38.360  13.950
49443W        W21736  19.089  19.598  12.064
49444W        W21737   8.332  32.934   4.755
49445W        W21738   0.906  41.300   2.256
49446W        W21739   6.372  38.540   2.805
49447W        W21740  27.951  33.612   4.253
49448W        W21741  12.171  27.949  12.863
49449W        W21742   0.486  42.950  14.946
49450W        W21743  10.863  15.695  14.808
49451W        W21744   2.303  39.912   4.342
49452W        W21745   0.411  38.443   4.352
49453W        W21746  34.414  23.660   4.833
49454W        W21747  42.916  43.795  13.471
49455W        W21748  31.487  12.157  12.375
49456W        W21749   9.769  13.163   0.372
49457W        W21750  41.856  16.111  14.018
49458W        W21751  18.645  18.700  14.412
49459W        W21752  29.467  12.829  14.947
49460W        W21753   1.326  11.137   3.806
49461W        W21754  31.010  10.216  11.420
49462W        W21755   0.967  24.574  10.942
49463W        W21756  26.681   4.389   4.650
49464W        W21757  31.025   1.774  12.987
49465W        W21758  36.916  40.335   0.965
49466W        W21759  44.309  15.149  10.543
49467W        W21760  33.101  43.350   0.294
49468W        W21761  22.725  44.472  11.606
49469W        W21762  20.550  28.986  14.906
49470W        W21763   4.255  11.651  14.021
49471W        W21764  17.213  37.874  10.525
49472W        W21765  27.132   6.681   3.632
49473W        W21766   1.313  39.066  12.906
49474W        W21767  29.995   1.860   1.779
49475W        W21768  14.118  21.120  12.408
49476W        W21769  12.626  30.437  11.536
49477W        W21770  37.894   4.316  13.954
49478W        W21771  26.163  14.678  12.395
49479W        W21772  38.956  13.148  13.920
49480W        W21773  26.001   4.426  13.791
49481W        W21774  42.009  25.553   3.787
49482W        W21775  15.195   3.428  14.357
49483W        W21776   2.252   3.820   3.376
49484W        W21777  33.571   9.736  14.847
49485W        W21778  33.444  36.420  14.878
49486W        W21779  37.070  25.072   4.652
49487W        W21780  35.036  29.993  14.797
49488W        W21781  19.566  40.344   2.291
49489W        W21782   4.745  35.540  10.626
49490W        W21783  12.189  41.501   1.902
49491W        W21784  27.052  41.457  12.002
49492W        W21785  28.147   6.765   3.743
49493W        W21786  39.984  40.967  11.488
49494W        W21787  31.979  22.041   2.824
49495W        W21788   1.767   7.780   1.773
49496W        W21789   0.748  14.683  14.325
49497W        W21790   4.218  16.193   1.734
49498W        W21791   7.385  21.130  11.878
49499W        W21792   8.213  11.752  13.501
49500W        W21793   8.388  11.179   3.256
49501W        W21794  12.653  19.646   4.292
49502W        W21795  24.080  30.522   4.772
49503W        W21796   2.402   7.786   1.404
49504W        W21797   4.399   9.306  12.908
49505W        W21798  30.467  18.222  13.546
49506W        W21799  36.523  40.802  12.448
49507W        W21800  24.079   8.262   2.673
49508W        W21801   4.849  34.479  13.843
49509W        W21802   9.360  27.522   3.267
49510W        W21803  29.123  24.658   4.749
49511W        W21804  16.676  43.826  11.461
49512W        W21805  38.382  29.112  12.353
49513W        W21806  34.001  28.644   4.298
49514W        W21807  37.576   3.924  13.391
49515W        W21808   8.838  14.166  11.070
49516W        W21809  32.529  29.429  14.974
49517W        W21810  28.169  38.888  12.448
49518W        W21811   4.321   3.362   4.817
49519W        W21812  27.122  43.880   1.230
49520W        W21813  10.738   0.405   2.889
49521W        W21814  22.075  21.081   4.354
49522W        W21815  16.611  41.323   4.296
49523W        W21816   4.849  30.946   2.280
49524W        W21817  20.570  43.886  11.552
49525W        W21818  34.881  10.359   3.682
49526W        W21819   5.301  37.488   4.727
49527W        W21820  34.434  25.056  12.527
49528W        W21821  11.638   0.276  12.034
49529W        W21822  33.015   0.798   3.164
49530W        W21823  23.726  44.263   2.720
49531W        W21824  39.042   3.814  13.962
49532W        W21825  24.541  21.525   4.664
49533W        W21826  30.573   2.332   4.805
49534W        W21827  11.831  37.909   4.121
49535W        W21828  41.917   5.405  10.584
49536W        W21829  42.521  26.552   0.302
49537W        W21830  38.835  27.073  10.461
49538W        W21831  28.110   6.809   0.736
49539W        W21832  24.028   1.787   3.345
49540W        W21833  30.578  30.638  11.899
49541W        W21834  42.953   3.256  10.982
49542W        W21835  27.070  16.568   2.793
49543W        W21836   3.854  17.595   0.832
49544W        W21837   5.387  19.165   0.450
49545W        W21838  20.593  36.490   3.685
49546W        W21839   9.715  10.649  12.059
49547W        W21840   4.880  43.797   1.762
49548W        W21841   5.902  20.051  14.486
49549W        W21842  13.693  15.300   0.268
49550W        W21843   5.930  31.630   4.769
49551W        W21844  43.948  13.301   1.279
49552W        W21845   7.358  38.536   3.738
49553W        W21846  32.569  26.624   1.835
49554W        W21847   3.864  29.022   0.844
49555W        W21848   7.910  32.947  10.069
49556W        W21849  35.419  31.539  11.480
49557W        W21850  21.163   7.828  12.509
49558W        W21851  27.042  25.092   2.325
49559W        W21852   0.383  14.269   4.287
49560W        W21853  30.618  29.970  12.428
49561W        W21854  35.901  31.977   3.812
49562W        W21855  35.473  37.502   0.286
49563W        W21856   9.777  25.688   1.228
49564W        W21857  38.442   9.226   1.796
49565W        W21858  25.696   2.373   5.169
49566W        W21859  14.210   1.380   5.694
49567W        W21860  29.093   8.185   0.782
49568W        W21861  35.377  42.358  10.469
49569W        W21862   5.827  43.470   4.270
49570W        W21863  17.624  34.979   1.418
49571W        W21864  44.302  39.959  13.983
49572W        W21865  10.749  32.993  13.327
49573W        W21866  34.504   4.830   2.760
49574W        W21867  42.824   3.797   5.147
49575W        W21868   2.333  19.625  14.914
49576W        W21869   5.699  11.732  14.851
49577W        W21870  23.217  41.855  13.370
49578W        W21871  17.229  34.429   1.911
49579W        W21872  20.749  31.423  10.002
49580W        W21873  14.242  24.222  10.529
49581W        W21874   4.408  13.773  12.452
49582W        W21875  29.625  24.186   4.758
49583W        W21876  39.467   0.284  12.989
49584W        W21877  26.022   3.919   0.369
49585W        W21878   7.739  12.690  11.452
49586W        W21879  10.867   4.825  10.513
49587W        W21880  10.175  22.146  11.071
49588W        W21881   7.871   2.832  10.483
49589W        W21882  19.086  10.784   0.462
49590W        W21883  22.231  41.835  14.919
49591W        W21884  21.140  41.309  12.545
49592W        W21885  41.002  12.838   1.305
49593W        W21886   7.262  36.989  12.975
49594W        W21887  11.814  14.262  13.388
49595W        W21888  21.733  13.630  10.934
49596W        W21889  15.667  34.473  13.826
49597W        W21890  42.351  11.628  14.931
49598W        W21891   3.306  40.923   1.886
49599W        W21892   6.765  29.474  13.793
49600W        W21893  25.472  13.790  13.920
49601W        W21894  39.015  29.089   1.871
49602W        W21895  27.130  21.193  14.949
49603W        W21896  25.009  40.426  12.064
49604W        W21897   8.718   8.721  10.447
49605W        W21898   8.170  12.745  14.306
49606W        W21899  44.454  12.190   2.755
49607W        W21900  38.332  40.815  11.525
49608W        W21901   2.889  30.101   0.455
49609W        W21902  34.372  28.074  12.923
49610W        W21903  11.753  40.916  11.524
49611W        W21904   8.832   8.744   1.816
49612W        W21905  44.301  44.969   1.819
49613W        W21906  43.360  40.002  14.992
49614W        W21907  16.588   5.821   3.789
49615W        W21908  23.543  13.775  14.276
49616W        W21909  42.487  23.167  10.575
49617W        W21910  33.113   4.289   2.870
49618W        W21911  33.021  19.662  13.987
49619W        W21912  42.775   8.847  12.826
49620W        W21913  28.570   4.930   2.201
49621W        W21914  10.707  34.567   2.249
49622W        W21915  40.469  21.539   2.414
49623W        W21916   9.266   6.324   0.286
49624W        W21917  24.696   8.364  10.937
49625W        W21918  11.201   1.375  14.475
49626W        W21919  37.853   0.366  13.992
49627W        W21920   7.246  39.531   0.244
49628W        W21921  23.729  32.042   0.255
49629W        W21922  13.606  30.091  10.977
49630W        W21923  36.381  13.603  12.384
49631W        W21924  20.575  39.497  13.406
49632W        W21925   5.925  14.828   0.843
49633W        W21926  20.079  25.182   4.815
49634W        W21927   5.295   1.922  14.346
49635W        W21928  43.427  22.192   4.304
49636W        W21929   0.861  29.498  14.448
49637W        W21930  16.732  43.010  12.086
49638W        W21931  25.605  27.985   2.333
49639W        W21932  30.917  30.913  14.791
49640W        W21933  12.657  23.651   4.244
49641W        W21934   1.829  19.165   0.915
49642W        W21935  18.151  42.815   4.118
49643W        W21936  19.056  34.910   0.855
49644W        W21937   7.703  31.132  13.804
49645W        W21938   9.708  34.478   3.734
49646W        W21939  25.085   4.238  12.390
49647W        W21940   7.187  29.026  13.034
49648W        W21941  44.873  12.765   4.741
49649W        W21942   6.683  36.575  14.960
49650W        W21943  16.258  11.631   1.865
49651W        W21944   9.821  36.933  12.451
49652W        W21945  29.641  18.772  13.355
49653W        W21946   4.859  19.622   0.415
49654W        W21947  30.534   8.367   5.094
49655W        W21948  23.142  26.469  13.037
49656W        W21949   0.430  39.555  12.395
49657W        W21950  41.391  25.548   3.274
49658W        W21951   4.243   2.445   4.177
49659W        W21952   1.328  30.924   1.766
49660W        W21953  29.466  27.642   0.959
49661W        W21954   9.877  12.628  11.587
49662W        W21955  40.329   0.882  10.547
49663W        W21956  44.829  15.686   1.796
49664W        W21957   6.228  15.164  14.500
49665W        W21958  25.617   5.432  11.008
49666W        W21959  25.648  22.735  12.442
49667W        W21960  24.519   7.251  12.574
49668W        W21961  32.468   0.916  14.360
49669W        W21962  40.455   6.840  14.425
49670W        W21963   5.330  36.561  13.023
49671W        W21964   7.738  33.453   2.820
49672W        W21965  33.049  12.791  14.983
49673W        W21966  14.108  13.840  12.001
49674W        W21967  10.291  12.701  13.398
49675W        W21968  38.443  18.133   3.291
49676W        W21969  15.653  15.751   3.840
49677W        W21970  25.144  43.411   2.683
49678W        W21971   3.433   7.300   3.242
49679W        W21972  35.937  28.525   1.382
49680W        W21973  14.171  39.500  14.829
49681W        W21974  18.788   0.930   1.877
49682W        W21975   5.877  17.697  10.896
49683W        W21976  23.587  24.607   3.272
49684W        W21977   5.846  14.142   2.274
49685W        W21978   3.730  20.619   2.793
49686W        W21979  31.552  23.619   0.414
49687W        W21980  10.863  23.050  14.021
49688W        W21981   6.742  30.090  10.506
49689W        W21982  19.765  10.313   3.260
49690W        W21983  31.938  28.951  13.005
49691W        W21984  21.101  35.394   1.344
49692W        W21985  30.040   0.319  12.471
49693W        W21986  22.152  11.357   2.779
49694W        W21987  31.515  25.570  13.045
49695W        W21988  17.158   8.381   0.335
49696W        W21989   9.266   7.375  11.906
49697W        W21990  43.461  24.526   3.355
49698W        W21991  42.841  22.160  10.932
49699W        W21992  23.229  44.415  11.557
49700W        W21993  44.429  33.538   0.760
49701W        W21994  14.318  34.996   3.662
49702W        W21995   0.298  32.015  13.820
49703W        W21996  23.621  13.231  11.601
49704W        W21997  15.794  11.156  10.599
49705W        W21998   7.678  15.318   2.762
49706W        W21999  16.777   9.186   0.764
49707W        W22000  36.377   0.928  11.983
49708W        W22001  30.539   6.308  10.493
49709W        W22002   1.913  14.262  11.531
49710W        W22003  13.609  43.878   4.786
49711W        W22004  38.561   3.864  13.911
49712W        W22005  10.251   7.269   1.867
49713W        W22006   8.212  35.505  10.063
49714W        W22007  32.450  41.986  14.018
49715W        W22008  34.498   3.955  11.949
49716W        W22009  36.522  34.971   1.211
49717W        W22010  37.565  26.982   3.248
49718W        W22011  22.055  35.034   1.859
49719W        W22012   5.371  26.016   2.271
49720W        W22013  30.575   5.880   1.894
49721W        W22014  36.408  36.547  11.017
49722W        W22015   2.281  27.121   2.812
49723W        W22016  28.441  27.482  10.533
49724W        W22017  32.624  21.674  12.902
49725W        W22018  38.482  35.935   2.708
49726W        W22019   5.757  28.064  11.885
49727W        W22020  26.471  36.451   4.684
49728W        W22021  29.021   9.260  14.362
49729W        W22022  41.341  38.051   3.718
49730W        W22023  30.589  28.945  14.918
49731W        W22024  27.561  31.601   1.855
49732W        W22025  40.052   6.291  11.888
49733W        W22026  40.325  26.967   4.636
49734W        W22027   5.275  18.285  13.311
49735W        W22028  13.211  18.233  14.474
49736W        W22029   7.188  32.961   2.893
49737W        W22030  29.548  40.489  13.450
49738W        W22031  13.771   8.170   4.317
49739W        W22032  27.029  21.569   3.636
49740W        W22033  21.728  32.086   4.217
49741W        W22034  31.559  28.994   2.689
49742W        W22035  13.841   5.329   9.610
49743W        W22036  35.064  15.112   0.859
49744W        W22037   6.849  42.890   2.347
49745W        W22038   4.322  15.326  11.566
49746W        W22039  20.614   0.458   4.637
49747W        W22040  20.616  36.381  11.907
49748W        W22041   9.253  42.801  13.007
49749W        W22042  42.390  44.408  12.036
49750W        W22043  19.710  10.775  10.915
49751W        W22044   6.821  40.925  11.916
49752W        W22045   3.853  11.356  12.488
49753W        W22046  12.646   9.183   5.271
49754W        W22047  11.305   3.862  10.614
49755W        W22048   4.241  13.618   1.307
49756W        W22049  42.364  40.313   2.221
49757W        W22050  17.771  22.739   0.428
49758W        W22051   5.401  14.802   0.250
49759W        W22052  37.877  20.717   1.838
49760W        W22053  31.467  15.143   2.394
49761W        W22054   4.837  21.584   2.355
49762W        W22055  40.430   1.897   3.165
49763W        W22056   0.399   0.854   0.796
49764W        W22057  29.597   2.907  12.979
49765W        W22058  25.712  34.390   3.678
49766W        W22059   6.689  43.810  11.039
49767W        W22060   0.306  34.882  11.964
49768W        W22061  31.017  40.391   2.242
49769W        W22062  32.085  15.258  14.329
49770W        W22063  23.717  18.207   4.290
49771W        W22064  11.735  13.180  10.632
49772W        W22065  28.085  33.893  13.793
49773W        W22066  18.585  32.110  12.883
49774W        W22067   0.795  44.501  12.548
49775W        W22068   8.679   1.442  11.033
49776W        W22069  42.931  38.441   1.858
49777W        W22070  26.470  40.353  13.520
49778W        W22071  23.570  20.608  12.872
49779W        W22072  12.294   8.350  13.979
49780W        W22073  24.574  31.634  10.592
49781W        W22074  13.628  26.057   3.153
49782W        W22075   5.280  17.631  13.976
49783W        W22076   8.200  22.709   4.240
49784W        W22077  20.580  39.860  12.417
49785W        W22078  19.102  26.974  10.508
49786W        W22079  44.443  11.846   4.353
49787W        W22080  33.398   6.264  10.022
49788W        W22081  13.294   5.815   0.943
49789W        W22082  42.312  10.369   9.966
49790W        W22083  19.238  14.158  11.612
49791W        W22084  33.965  27.636  10.910
49792W        W22085  44.331  19.132   0.910
49793W        W22086  15.583  32.969  14.349
49794W        W22087  10.837   6.846   2.213
49795W        W22088  23.146   6.273   3.680
49796W        W22089  12.816   5.298  10.553
49797W        W22090  42.462   1.423  12.910
49798W        W22091  16.653  20.644   3.184
49799W        W22092  16.142  33.029  13.462
49800W        W22093   6.782   6.768  14.301
49801W        W22094  36.578  25.141   5.083
49802W        W22095  24.035  27.619  10.943
49803W        W22096  12.840  22.063   3.183
49804W        W22097  10.337   9.767  14.338
49805W        W22098  35.037  29.171  12.076
49806W        W22099   8.806  21.520   1.264
49807W        W22100  35.092  22.070   2.717
49808W        W22101  38.934  23.538  13.820
49809W        W22102  10.296   7.184   0.384
49810W        W22103  39.349  34.562  13.515
49811W        W22104  18.622  37.369   0.466
49812W        W22105  18.212  42.954  14.783
49813W        W22106   1.842  33.926  14.845
49814W        W22107  31.039  43.000  10.598
49815W        W22108  27.160  23.633   0.457
49816W        W22109  25.163   2.775   3.759
49817W        W22110  16.739   0.903   3.709
49818W        W22111   9.149   1.325  10.922
49819W        W22112  23.678   7.312  11.054
49820W        W22113  30.656  36.452   1.340
49821W        W22114  35.927  10.231   3.856
49822W        W22115  18.070  20.032  13.949
49823W        W22116  17.796  30.577  14.286
49824W        W22117  38.363  39.336  11.508
49825W        W22118  20.243  13.337  11.968
49826W        W22119  29.500  19.557   4.720
49827W        W22120  35.599  41.361  10.529
49828W        W22121  17.587  21.592   2.729
49829W        W22122  27.544  20.083  12.001
49830W        W22123  38.893  20.568  13.398
49831W        W22124  16.637  30.431  12.492
49832W        W22125  40.306  10.775   0.763
49833W        W22126  16.165  42.994   0.429
49834W        W22127  15.197   2.412  13.932
49835W        W22128  12.286   2.868   4.692
49836W        W22129  28.131  24.653  12.371
49837W        W22130  23.514   4.720  12.939
49838W        W22131  15.162  39.817  13.995
49839W        W22132  14.144  18.114  10.421
49840W        W22133  30.994  41.799  11.382
49841W        W22134   5.924   1.266   1.452
49842W        W22135  23.563  30.593   0.260
49843W        W22136  23.591  32.886  10.639
49844W        W22137  13.199  41.986  10.615
49845W        W22138  31.591  17.226  13.953
49846W        W22139  26.646  13.181   1.288
49847W        W22140   3.302  25.063  10.630
49848W        W22141  15.770   8.774   0.433
49849W        W22142  16.153  37.581   4.698
49850W        W22143  16.188  39.451  14.842
49851W        W22144  13.169   9.679   0.743
49852W        W22145  24.662   3.737  14.473
49853W        W22146   7.406  41.025   4.722
49854W        W22147  37.944  24.593   1.263
49855W        W22148  44.266  24.089  13.005
49856W        W22149   1.454  40.911   3.154
49857W        W22150  31.083  41.384   0.816
49858W        W22151  17.610  10.755   4.746
49859W        W22152  30.477  15.652   4.354
49860W        W22153  42.341  27.522   0.932
49861W        W22154  18.123  35.473   0.829
49862W        W22155  28.070  15.581   4.772
49863W        W22156  44.005  43.923   1.435
49864W        W22157  19.150  28.183  13.368
49865W        W22158   1.838  42.526   1.284
49866W        W22159  38.881  33.988  11.444
49867W        W22160  12.846  27.644  14.780
49868W        W22161  36.367  26.522   5.260
49869W        W22162  15.212  26.684   3.719
49870W        W22163  11.862  24.035  11.552
49871W        W22164  34.083   6.378  13.912
49872W        W22165  32.948  27.977  14.447
49873W        W22166  26.953   6.196   2.182
49874W        W22167  28.068  44.812  11.993
49875W        W22168  38.507   1.749  14.444
49876W        W22169  24.054  16.784  14.355
49877W        W22170  41.989  42.941   3.195
49878W        W22171  25.212  29.942   1.850
49879W        W22172  41.866  43.478   2.236
49880W        W22173  31.420  25.538  11.400
49881W        W22174  15.729   3.380   0.375
49882W        W22175   5.853  33.489  13.510
49883W        W22176  31.129  38.468   4.798
49884W        W22177   7.265   2.466  13.489
49885W        W22178  37.469  11.784  12.431
49886W        W22179  19.675  15.201   4.750
49887W        W22180   1.883  37.949  11.522
49888W        W22181  16.196  33.083  13.831
49889W        W22182  32.995  29.119   4.137
49890W        W22183  39.951  28.591  12.996
49891W        W22184  14.628  21.134   3.162
49892W        W22185  35.472   3.273   0.256
49893W        W22186   0.274  15.762  11.559
49894W        W22187   0.279   7.813   0.437
49895W        W22188  17.590   6.392   0.372
49896W        W22189   5.781  43.368  11.028
49897W        W22190  42.419  17.264   1.924
49898W        W22191  32.604  22.686   4.291
49899W        W22192  37.055   4.701  11.967
49900W        W22193   4.376   8.820   1.718
49901W        W22194   0.321  29.588  14.335
49902W        W22195   9.324  32.938   1.787
49903W        W22196  24.490   1.902   1.846
49904W        W22197  34.909  23.080  14.870
49905W        W22198   0.827  39.491  14.293
49906W        W22199   8.882  31.449   2.689
49907W        W22200  12.358  40.844  12.484
49908W        W22201  23.197  15.580   1.230
49909W        W22202  16.616  20.766   1.227
49910W        W22203  22.564   2.338   0.739
49911W        W22204   9.701   7.295   1.447
49912W        W22205  18.249  10.184  13.023
49913W        W22206  14.174  44.440   4.216
49914W        W22207   9.381  32.601  10.442
49915W        W22208  18.173   5.349   2.272
49916W        W22209  33.428  20.246   3.840
49917W        W22210  39.944   5.736   4.757
49918W        W22211   9.374   1.300  10.527
49919W        W22212  42.936  18.569  10.640
49920W        W22213  34.062  40.814  13.329
49921W        W22214  19.142  39.864  10.441
49922W        W22215  24.611  41.527   1.764
49923W        W22216  14.781   8.869   0.827
49924W        W22217  40.970  11.320  14.415
49925W        W22218   6.194  31.473   3.736
49926W        W22219  43.017  32.513  10.409
49927W        W22220  43.335   5.895   1.721
49928W        W22221  27.597  30.069   3.355
49929W        W22222  16.307  33.407   3.366
49930W        W22223  37.350   2.471   2.793
49931W        W22224  33.054  37.011   1.896
49932W        W22225  41.852  13.783   4.606
49933W        W22226  36.347  43.439  13.923
49934W        W22227  42.299  25.676  13.355
49935W        W22228  41.955   9.302  13.972
49936W        W22229  29.012  26.519   1.913
49937W        W22230  10.673  34.547  11.123
49938W        W22231  19.753  21.667   0.824
49939W        W22232  16.145  31.479  14.941
49940W        W22233  26.134  28.532   4.780
49941W        W22234  20.228  16.681   2.833
49942W        W22235  44.429  39.359   4.604
49943W        W22236   4.310  28.604  14.857
49944W        W22237  34.491  26.009  14.380
49945W        W22238  23.209  11.187  10.588
49946W        W22239  14.809  23.525  10.010
49947W        W22240  24.974  42.332   2.820
49948W        W22241  26.527  18.175  14.935
49949W        W22242  28.481   9.271   3.366
49950W        W22243  24.566  33.583   4.778
49951W        W22244   7.792  17.776   3.243
49952W        W22245  27.561   3.940   0.443
49953W        W22246  16.667   6.238   4.239
49954W        W22247  44.783   7.403   1.276
49955W        W22248  12.801  23.158   3.652
49956W        W22249  31.959  20.083  13.033
49957W        W22250  30.091  38.420   4.275
49958W        W22251  23.613  38.494  14.779
49959W        W22252   2.457  10.226  14.450
49960W        W22253  12.339  15.598  10.478
49961W        W22254  38.540  17.649  14.995
49962W        W22255  29.571   9.278  11.015
49963W        W22256  41.510  42.398   4.729
49964W        W22257  27.049   8.673   3.660
49965W        W22258   8.849  37.977   0.827
49966W        W22259   8.193  38.894  14.768
49967W        W22260  11.353   3.283  11.595
49968W        W22261   2.831   4.255   3.677
49969W        W22262  31.564   2.934  10.441
49970W        W22263  41.852   5.402  13.519
49971W        W22264  19.132  32.020  10.444
49972W        W22265  43.502  37.387  10.528
49973W        W22266   1.316   3.752  11.473
49974W        W22267  24.973  19.048  12.980
49975W        W22268  27.534   3.274   4.171
49976W        W22269   2.409   9.305   1.865
49977W        W22270  39.975  44.442  12.544
49978W        W22271  22.660  11.629   0.942
49979W        W22272   8.874   5.907  10.920
49980W        W22273  12.848   7.826  12.935
49981W        W22274  25.574   2.839  10.003
49982W        W22275   2.722   5.219  14.792
49983W        W22276  41.477  26.132   0.952
49984W        W22277  42.468  29.944  12.458
49985W        W22278  42.002   2.788  12.462
49986W        W22279  28.438  35.047  11.113
49987W        W22280  19.152  16.760   3.300
49988W        W22281  20.616   0.789  14.295
49989W        W22282  14.715  14.237  10.901
49990W        W22283  25.145  37.487  11.913
49991W        W22284  43.355  39.523   0.294
49992W        W22285  43.961  26.591   5.081
49993W        W22286   2.230   7.206   1.784
49994W        W22287  16.614  16.686   0.916
49995W        W22288  42.953  30.932  10.587
49996W        W22289  17.595  24.723  11.553
49997W        W22290  30.651  17.067   2.225
49998W        W22291  39.877  26.550  13.016
49999W        W22292   9.645  43.969   4.778
50000W        W22293  44.305  34.109   9.623
50001W        W22294  12.787  19.199  12.370
50002W        W22295  23.731  37.067  14.322
50003W        W22296  24.513   5.887  14.997
50004W        W22297  23.525   3.941   4.127
50005W        W22298  27.526  21.134   3.344
50006W        W22299  37.997  11.642  11.894
50007W        W22300  12.238  11.648   1.374
50008W        W22301   2.819   6.231  12.007
50009W        W22302  17.284   9.341  13.538
50010W        W22303   4.427   2.324  12.024
50011W        W22304  27.489  30.133  11.978
50012W        W22305  36.051  31.603   3.646
50013W        W22306   0.301  18.140   1.744
50014W        W22307  30.458  16.298  11.964
50015W        W22308  44.442  38.013  14.833
50016W        W22309  16.210  33.592   0.412
50017W        W22310  40.875   8.363  11.514
50018W        W22311  39.974  14.674   4.232
50019W        W22312  43.303  14.829   1.874
50020W        W22313  25.557  37.459   1.722
50021W        W22314  22.165   1.418   1.848
50022W        W22315   0.293   6.676  11.567
50023W        W22316  18.211  35.880  13.429
50024W        W22317  11.791  41.453  13.325
50025W        W22318  32.396  11.163  10.090
50026W        W22319  42.458  37.960  11.071
50027W        W22320  15.178  44.426  13.389
50028W        W22321   9.837  18.176   1.318
50029W        W22322  14.646  33.884  12.003
50030W        W22323  32.117   7.400   4.235
50031W        W22324  35.598  10.210  10.543
50032W        W22325   8.273  13.219  14.032
50033W        W22326  31.018  31.069  14.422
50034W        W22327  43.506  29.607  13.969
50035W        W22328   6.826  37.027  10.436
50036W        W22329  26.585  17.139  12.031
50037W        W22330  41.845  29.070  13.500
50038W        W22331  10.332  11.740   5.141
50039W        W22332  33.443  38.519  14.808
50040W        W22333  30.961  15.666   2.748
50041W        W22334  11.725  42.920   1.835
50042W        W22335  29.981  24.114  13.841
50043W        W22336  23.508  23.728  12.939
50044W        W22337  33.381  16.313  14.801
50045W        W22338  18.127  43.970   1.878
50046W        W22339  26.078  41.454  10.436
50047W        W22340   8.370  38.048   1.839
50048W        W22341  12.660  42.847  12.840
50049W        W22342  40.923  44.918  13.020
50050W        W22343   8.711  42.306   2.725
50051W        W22344  43.019  22.239  14.369
50052W        W22345  35.068  39.948  14.416
50053W        W22346  24.713  21.695   0.800
50054W        W22347   3.789  20.165  13.545
50055W        W22348  24.083  11.243   1.783
50056W        W22349  29.061  19.684  14.845
50057W        W22350  34.896   6.370  11.088
50058W        W22351  25.216   6.716   3.277
50059W        W22352  24.589  37.050  10.551
50060W        W22353  44.311   1.808   3.744
50061W        W22354  24.650  20.107   4.223
50062W        W22355  41.355  37.461  10.639
50063W        W22356  41.819  16.103  10.491
50064W        W22357  33.587  12.772  10.407
50065W        W22358  24.535  37.430  13.846
50066W        W22359  42.322  32.520   1.357
50067W        W22360  44.768  11.161  10.914
50068W        W22361  16.259   0.466  11.515
50069W        W22362  41.524   7.742   0.339
50070W        W22363   2.319   4.204   1.276
50071W        W22364  23.198   2.246  12.405
50072W        W22365  15.699  10.699   4.701
50073W        W22366  15.822  30.596  11.064
50074W        W22367  22.507  30.649   2.895
50075W        W22368   6.289  31.950   5.210
50076W        W22369  33.950  12.277   4.619
50077W        W22370   9.195   2.364   2.799
50078W        W22371  44.837  31.914   2.340
50079W        W22372  38.427   9.807   0.252
50080W        W22373  35.388  17.298   2.243
50081W        W22374  41.292  42.433  10.446
50082W        W22375   5.284  19.658  13.907
50083W        W22376  43.006  36.469  12.832
50084W        W22377  35.100  41.435   2.254
50085W        W22378  37.084   7.671  10.551
50086W        W22379   1.821   3.776  10.414
50087W        W22380  41.010   8.329   2.235
50088W        W22381  33.927  20.567   0.929
50089W        W22382  29.430   1.945   4.830
50090W        W22383   5.213  36.460  10.922
50091W        W22384  13.612   6.694   3.790
50092W        W22385  18.751  30.488   1.826
50093W        W22386   4.732   9.272   1.389
50094W        W22387  37.922  20.674  12.396
50095W        W22388  18.128  41.973  11.510
50096W        W22389  17.780  10.363   2.409
50097W        W22390  20.091  14.720   4.613
50098W        W22391  26.502   6.859   0.820
50099W        W22392  32.500  19.225   4.214
50100W        W22393  23.127   1.787   3.665
50101W        W22394  23.699  37.497   1.434
50102W        W22395  38.951  37.335   2.709
50103W        W22396  34.598  36.073  10.951
50104W        W22397  16.189  33.545  10.063
50105W        W22398  35.527   0.430   4.350
50106W        W22399  32.043  34.040   0.391
50107W        W22400  35.518   2.359  14.879
50108W        W22401   9.357  34.969   0.888
50109W        W22402  38.027  25.707  14.872
50110W        W22403  15.299  40.352  14.299
50111W        W22404  39.855  16.171   1.789
50112W        W22405  27.634   7.381   1.427
50113W        W22406  40.865   6.700   3.229
50114W        W22407  43.433  28.468   4.667
50115W        W22408  20.643   9.673   1.776
50116W        W22409  32.578  36.517  14.440
50117W        W22410   2.369  35.089  10.977
50118W        W22411  25.689  39.992  11.858
50119W        W22412  26.701   3.333   5.266
50120W        W22413  13.260  40.431   1.818
50121W        W22414  10.267  31.545   4.243
50122W        W22415   7.303  11.842   1.885
50123W        W22416  28.981   3.765   3.661
50124W        W22417  31.114  35.999  13.881
50125W        W22418  30.961  43.883  10.406
50126W        W22419  40.441   1.345   1.304
50127W        W22420  13.206   5.356   4.761
50128W        W22421  14.276  35.428   3.802
50129W        W22422  12.843  21.070  12.847
50130W        W22423  16.589   7.236  12.923
50131W        W22424  19.641  11.360   4.826
50132W        W22425  25.683  35.004   2.366
50133W        W22426   2.336   7.365   2.784
50134W        W22427  36.587   1.481  11.395
50135W        W22428   1.824  41.321  10.620
50136W        W22429  30.985   6.849   1.233
50137W        W22430   4.381  35.527   0.839
50138W        W22431   1.810  33.593   0.251
50139W        W22432  25.496   0.428   1.704
50140W        W22433  30.951  17.125  11.017
50141W        W22434  39.454  40.998  14.508
50142W        W22435  37.031  33.548  13.928
50143W        W22436   4.834  15.281  11.507
50144W        W22437  44.452   7.392   0.265
50145W        W22438  42.401  28.080   4.825
50146W        W22439  14.234  15.821   2.255
50147W        W22440  39.327  18.060  14.939
50148W        W22441  44.773  10.140   3.195
50149W        W22442  28.629  44.871   0.287
50150W        W22443  22.128  43.832  10.602
50151W        W22444   3.874   8.884   4.128
50152W        W22445  30.542  42.970  12.019
50153W        W22446  23.721  42.033   1.787
50154W        W22447  35.071   8.241   4.141
50155W        W22448  34.512  42.354  14.930
50156W        W22449   3.889  13.196   1.378
50157W        W22450  34.896  13.781  14.886
50158W        W22451  41.971  38.968   5.310
50159W        W22452   8.694  29.119  10.972
50160W        W22453   1.744  32.416  10.530
50161W        W22454  20.747  28.941   3.851
50162W        W22455  25.025  39.442   2.221
50163W        W22456  14.108  33.589  12.574
50164W        W22457  17.108   3.385   4.277
50165W        W22458  31.532  27.089   4.173
50166W        W22459   7.794  41.357   5.278
50167W        W22460   9.267   6.705  11.461
50168W        W22461  20.725  44.428   2.791
50169W        W22462  14.662   2.392  13.016
50170W        W22463   0.412  19.135  14.396
50171W        W22464  15.163  21.139   2.717
50172W        W22465  30.413  15.147   2.183
50173W        W22466  10.872  13.634   0.284
50174W        W22467  40.950  35.481   0.362
50175W        W22468  43.813  43.390   4.750
50176W        W22469  13.643  31.965   3.262
50177W        W22470   4.404   6.782  11.431
50178W        W22471  37.424  39.485   0.348
50179W        W22472  14.814  34.517   4.653
50180W        W22473   3.944  33.065  13.503
50181W        W22474  44.909  36.088  10.109
50182W        W22475  20.723  10.873  13.961
50183W        W22476   0.464  39.553   3.787
50184W        W22477  26.133  19.226  10.609
50185W        W22478  18.726  38.371  14.448
50186W        W22479  12.254  39.363  14.901
50187W        W22480  17.604   2.820   3.820
50188W        W22481  30.960  25.179  11.513
50189W        W22482  32.625  19.216   3.211
50190W        W22483   9.813   5.337  10.969
50191W        W22484  21.188  41.512   4.647
50192W        W22485  37.351  40.465  12.361
50193W        W22486  22.704   5.931  13.903
50194W        W22487  14.724  10.737   0.291
50195W        W22488  25.219  36.931   1.308
50196W        W22489  23.098  19.577  14.922
50197W        W22490   0.376  15.722  14.957
50198W        W22491  42.932  15.626   1.339
50199W        W22492  29.039  14.658   3.868
50200W        W22493   6.190  21.754  12.395
50201W        W22494  38.048  14.645   0.911
50202W        W22495  38.403  32.966  14.906
50203W        W22496  12.824   3.405  11.384
50204W        W22497  24.498   5.689  11.571
50205W        W22498  16.168  14.638  10.612
50206W        W22499  15.647  14.813   2.709
50207W        W22500  23.727  26.678   0.785
50208W        W22501  17.253  13.713  13.852
50209W        W22502  25.670  30.908   1.225
50210W        W22503  25.127  25.121  13.464
50211W        W22504   9.824  35.943   5.209
50212W        W22505  29.026   0.917   4.597
50213W        W22506  34.912   6.271  14.949
50214W        W22507  32.449  33.879   4.597
50215W        W22508  35.575  10.138   1.316
50216W        W22509  18.130  29.606  10.920
50217W        W22510   4.874   0.282  10.517
50218W        W22511  15.775   2.797  11.861
50219W        W22512  37.501  39.502   1.902
50220W        W22513  17.764  10.300   1.889
50221W        W22514  37.371   5.758   2.280
50222W        W22515  37.450   8.674   2.733
50223W        W22516   6.780  20.719  12.399
50224W        W22517  14.774  33.610  12.508
50225W        W22518   2.780  32.128   2.882
50226W        W22519  34.593   0.445   3.630
50227W        W22520  13.194  41.887   2.262
50228W        W22521  11.792  19.546   3.752
50229W        W22522  44.873  19.166  13.871
50230W        W22523   2.407  38.494  13.480
50231W        W22524   4.707  20.718   3.299
50232W        W22525   3.790  13.169   0.780
50233W        W22526   5.382  38.498  10.511
50234W        W22527  13.807  26.469   3.375
50235W        W22528  41.511  42.487  11.000
50236W        W22529  17.199  23.687   2.307
50237W        W22530  43.957  10.318   3.689
50238W        W22531  10.240  20.053   2.331
50239W        W22532  28.106   8.317   3.245
50240W        W22533  26.999   0.340  13.975
50241W        W22534   4.245  20.735   3.770
50242W        W22535  13.656   3.422   2.737
50243W        W22536  31.975  21.050  12.843
50244W        W22537  27.006  38.930  13.956
50245W        W22538   0.321  34.402  12.390
50246W        W22539   4.706  12.835   4.631
50247W        W22540  43.809  28.643  10.956
50248W        W22541  26.695  21.667   3.660
50249W        W22542  32.559  20.148   1.228
50250W        W22543  32.921  25.147   1.835
50251W        W22544  39.393  41.823  14.394
50252W        W22545  41.854  13.713  12.078
50253W        W22546  19.738  42.498   0.400
50254W        W22547  27.106   6.379   3.772
50255W        W22548  43.834  19.152   0.748
50256W        W22549  40.908  18.593   0.474
50257W        W22550   6.195  24.646   2.763
50258W        W22551  44.895  10.639   0.941
50259W        W22552  14.643  42.982  12.940
50260W        W22553  14.133  38.571   1.780
50261W        W22554  12.239   3.770   3.691
50262W        W22555  17.087  35.533  14.983
50263W        W22556   7.685  17.275   5.305
50264W        W22557   0.306  16.249  14.391
50265W        W22558  14.135  26.689   0.816
50266W        W22559   4.847   5.875   2.280
50267W        W22560  10.658  32.062   0.480
50268W        W22561  42.340  20.732  12.452
50269W        W22562  25.633  32.982  14.349
50270W        W22563   1.305  33.092  14.876
50271W        W22564  42.882   6.767   1.905
50272W        W22565  14.214  22.029  14.963
50273W        W22566  39.456  32.446   2.795
50274W        W22567  22.649  42.005  12.485
50275W        W22568  21.542  32.914   2.715
50276W        W22569  28.648  31.403  11.459
50277W        W22570  30.558  15.723   3.381
50278W        W22571  35.460   9.747  14.472
50279W        W22572  41.998  19.747   5.294
50280W        W22573  36.399  30.503   2.314
50281W        W22574  25.058  28.575   2.188
50282W        W22575  42.942   4.430  12.066
50283W        W22576  30.575  40.321   3.732
50284W        W22577  10.689  38.881  10.415
50285W        W22578  41.304   4.341  10.971
50286W        W22579  13.830   2.441  11.951
50287W        W22580   5.900  26.469   4.714
50288W        W22581   8.740  19.135  11.534
50289W        W22582   1.823  17.271   2.818
50290W        W22583  36.467  27.994   2.731
50291W        W22584  31.017  23.576  14.866
50292W        W22585  19.616  19.542   0.245
50293W        W22586   2.313   4.926   3.273
50294W        W22587  35.368  44.405  13.431
50295W        W22588  15.122  14.223  13.047
50296W        W22589   3.765  13.685   0.920
50297W        W22590  16.100  17.767  12.832
50298W        W22591  40.355  13.137   3.283
50299W        W22592  12.774  42.958   4.765
50300W        W22593  34.984   7.801  13.337
50301W        W22594  11.754  16.724   3.813
50302W        W22595  17.077  17.782   2.863
50303W        W22596  26.628  33.530   1.750
50304W        W22597   4.442  27.183   4.279
50305W        W22598  37.073  41.968  12.344
50306W        W22599  44.357  20.740  13.879
50307W        W22600  25.993  27.168   3.237
50308W        W22601  32.949  38.559   2.195
50309W        W22602  21.631   1.440  12.554
50310W        W22603  33.454   1.446   3.691
50311W        W22604   7.822   1.859   3.228
50312W        W22605  21.142   3.347  14.320
50313W        W22606  37.342  34.948   0.928
50314W        W22607  38.534  11.179   3.766
50315W        W22608  38.523  31.591  14.451
50316W        W22609  34.110  16.139   2.307
50317W        W22610  34.514  27.677   2.871
50318W        W22611  40.441  26.089   1.870
50319W        W22612  10.726  18.596  14.932
50320W        W22613   0.309  13.325   2.231
50321W        W22614   7.257  33.983  12.432
50322W        W22615  20.207  36.845   2.381
50323W        W22616  36.998  11.235   1.753
50324W        W22617   1.878  24.485  10.626
50325W        W22618  39.439   1.751   3.821
50326W        W22619  15.686  23.045  11.036
50327W        W22620  23.166  24.671  13.542
50328W        W22621  23.150   9.867  14.430
50329W        W22622  38.012  33.391   4.185
50330W        W22623   2.469  43.008   5.244
50331W        W22624  20.220  23.167   0.340
50332W        W22625   4.750  16.143  14.334
50333W        W22626   4.388  27.946  12.830
50334W        W22627  35.944  10.742   0.456
50335W        W22628  14.225  23.190   3.758
50336W        W22629  10.155  38.426  14.924
50337W        W22630  27.559  12.761   3.784
50338W        W22631  27.115  19.550  12.916
50339W        W22632  38.879  25.518  11.976
50340W        W22633  12.257  19.185   3.364
50341W        W22634  15.117  38.051  10.934
50342W        W22635   2.317  11.191   4.750
50343W        W22636  42.807  39.555  10.971
50344W        W22637  30.947  13.695  14.439
50345W        W22638   0.387  44.795  13.494
50346W        W22639  13.618  31.960   2.816
50347W        W22640  44.277  17.091  12.374
50348W        W22641  18.663   9.341  12.044
50349W        W22642  25.989  32.941  13.862
50350W        W22643   8.779  39.426   4.673
50351W        W22644  12.635  19.719   0.801
50352W        W22645  28.970  15.235  13.336
50353W        W22646  28.597   7.825  10.983
50354W        W22647   4.251   0.769  13.908
50355W        W22648  10.669   0.818  13.868
50356W        W22649  19.098  22.582   1.709
50357W        W22650   8.685  17.636   1.396
50358W        W22651   2.273  31.406  12.350
50359W        W22652  26.588  42.995  12.962
50360W        W22653  23.671  31.949  11.990
50361W        W22654  30.119  28.979   0.352
50362W        W22655  23.241  35.975   3.253
50363W        W22656  24.980  28.023  14.872
50364W        W22657  40.804  28.642  10.632
50365W        W22658  44.387  17.231   3.654
50366W        W22659  26.633  21.023  10.564
50367W        W22660  29.483  21.098   0.328
50368W        W22661  26.654   4.336   2.305
50369W        W22662  32.463  20.234  11.944
50370W        W22663  41.871  36.993  12.579
50371W        W22664  35.548  16.600  14.301
50372W        W22665  18.684  32.570  13.005
50373W        W22666  39.880  25.000  12.846
50374W        W22667  26.561  42.523   3.184
50375W        W22668  39.352  43.933  11.002
50376W        W22669  10.181   7.672  12.973
50377W        W22670  24.125  40.327   5.284
50378W        W22671  27.174  23.699  13.514
50379W        W22672  18.631  16.812  14.310
50380W        W22673  44.850  30.558   2.835
50381W        W22674  29.668  10.333  10.059
50382W        W22675  16.736  20.631  12.057
50383W        W22676  29.430  36.366   4.801
50384W        W22677  29.493   2.397   1.743
50385W        W22678  34.384  31.544  14.478
50386W        W22679   5.763  28.155   4.349
50387W        W22680  27.175  36.440   4.833
50388W        W22681  29.621  32.447   4.807
50389W        W22682  16.812  38.540  14.851
50390W        W22683  37.834  33.885  12.513
50391W        W22684  10.877  37.921   4.347
50392W        W22685   6.292   3.441   3.667
50393W        W22686  17.097  23.233   4.720
50394W        W22687  36.025  22.616   3.198
50395W        W22688  31.483   0.434  13.031
50396W        W22689  10.311  41.431   4.127
50397W        W22690   9.186  17.581   0.807
50398W        W22691  19.212   2.901  10.528
50399W        W22692  22.226  30.441  12.870
50400W        W22693  40.950   2.889   0.362
50401W        W22694   1.301  29.094  11.037
50402W        W22695  30.447  28.487   3.795
50403W        W22696  23.180  32.506   4.205
50404W        W22697  24.193  36.072   0.888
50405W        W22698  44.000  42.829  13.864
50406W        W22699  36.844  20.084  13.933
50407W        W22700  34.499  43.785  12.952
50408W        W22701   4.910  19.145   2.330
50409W        W22702  23.619  33.527   1.447
50410W        W22703  17.606  31.005  12.364
50411W        W22704   6.709  10.721  12.348
50412W        W22705  32.898  28.039   1.758
50413W        W22706  16.269  12.212  11.039
50414W        W22707  27.555  10.783  10.555
50415W        W22708  21.645  18.586  13.979
50416W        W22709  32.932   9.328   2.711
50417W        W22710  37.515  38.391   1.296
50418W        W22711  10.229  29.989  10.628
50419W        W22712  10.640  17.280  13.827
50420W        W22713  26.676  30.118   3.700
50421W        W22714   6.417   2.324  14.882
50422W        W22715  34.599   4.905  13.400
50423W        W22716  38.879  20.624  14.445
50424W        W22717  40.813  38.537  12.952
50425W        W22718  36.003   2.414   1.761
50426W        W22719  21.081  37.059  10.639
50427W        W22720  38.985  23.564   3.329
50428W        W22721  26.092   0.977  11.608
50429W        W22722  33.512  25.618   1.450
50430W        W22723  26.496  44.891   4.183
50431W        W22724  36.031  41.312  11.404
50432W        W22725  44.421  44.991  13.424
50433W        W22726  18.550   9.357   1.334
50434W        W22727  19.100  13.739   3.731
50435W        W22728   5.424   0.822  14.925
50436W        W22729   7.755   7.197   3.283
50437W        W22730  31.028  32.630  11.519
50438W        W22731  27.043  10.841  13.454
50439W        W22732  27.449  38.563  12.003
50440W        W22733   9.367  38.948   3.323
50441W        W22734  17.212  29.547  12.454
50442W        W22735  11.287   7.711   1.262
50443W        W22736  14.813   0.473   2.375
50444W        W22737  33.912  32.989  12.023
50445W        W22738  10.847  10.162  14.508
50446W        W22739  30.075  40.335   0.732
50447W        W22740   3.444  38.975  13.438
50448W        W22741   0.251  29.443  13.895
50449W        W22742  12.157  39.988   2.762
50450W        W22743  11.271  33.948  11.515
50451W        W22744  23.068  17.296   4.256
50452W        W22745  21.156  22.019  10.946
50453W        W22746  10.327  26.050   0.468
50454W        W22747  24.226   4.209   4.682
50455W        W22748  23.019  38.350  13.996
50456W        W22749  14.192   7.370   2.785
50457W        W22750  42.020   3.908  11.067
50458W        W22751  40.884  28.530   4.284
50459W        W22752   2.457  37.939  14.401
50460W        W22753   1.282  28.182  13.921
50461W        W22754  10.777  31.509   2.397
50462W        W22755   1.260  35.875  13.327
50463W        W22756  32.398  27.497   2.196
50464W        W22757  43.337  31.996   3.386
50465W        W22758  31.032  38.471   0.915
50466W        W22759  19.770  25.187  13.423
50467W        W22760  33.984  38.540  14.903
50468W        W22761  24.104   6.707   1.908
50469W        W22762  29.451   2.448  11.469
50470W        W22763  11.669  14.332   0.266
50471W        W22764  17.629  19.562  12.062
50472W        W22765  23.545  29.055   0.402
50473W        W22766  24.572  26.018   2.670
50474W        W22767   8.322  29.552  13.510
50475W        W22768  25.636  26.092  13.369
50476W        W22769  14.170   3.720  10.094
50477W        W22770  18.100  16.105  14.384
50478W        W22771  17.145   4.310   2.767
50479W        W22772   3.758   9.319  14.306
50480W        W22773  16.174  32.933  14.863
50481W        W22774  32.036  23.196  13.465
50482W        W22775  11.349  28.443   0.286
50483W        W22776   6.192  44.381   1.387
50484W        W22777  44.453  20.189  11.887
50485W        W22778  44.980   5.318  11.045
50486W        W22779  28.072  32.897  14.917
50487W        W22780  27.093  44.986  11.006
50488W        W22781   1.844  29.930  12.043
50489W        W22782  40.832  18.681  13.329
50490W        W22783  32.936  24.073  13.533
50491W        W22784  12.805   4.828   0.299
50492W        W22785  28.968  44.760   3.638
50493W        W22786  11.177  22.996   0.930
50494W        W22787   4.340  44.365  13.348
50495W        W22788  27.093   0.972  11.882
50496W        W22789  36.348  23.029  11.129
50497W        W22790   5.258  19.774  11.108
50498W        W22791  28.475   0.860  10.518
50499W        W22792   7.733  29.994  12.507
50500W        W22793  29.049  25.638  13.493
50501W        W22794  37.470   3.258   4.677
50502W        W22795  13.740  23.633  12.386
50503W        W22796  20.652  33.517   3.641
50504W        W22797   4.786  23.591   2.876
50505W        W22798   1.792   7.749  14.397
50506W        W22799   3.876  30.473  11.395
50507W        W22800  42.303  31.636  11.982
50508W        W22801  31.929  35.886   2.710
50509W        W22802   6.762  15.798  10.629
50510W        W22803  12.658  29.588  14.315
50511W        W22804  26.498  11.249   3.169
50512W        W22805  40.534  15.589   3.234
50513W        W22806  39.366  37.533  11.898
50514W        W22807  18.071  42.939   3.815
50515W        W22808  34.094  29.500   0.848
50516W        W22809  32.505  40.511  11.446
50517W        W22810  17.110   8.308   3.651
50518W        W22811   6.698   2.940   2.888
50519W        W22812   9.326  15.280   1.913
50520W        W22813  16.206  21.570  10.625
50521W        W22814   8.757  25.494   3.288
50522W        W22815   2.818  26.999  13.443
50523W        W22816  22.106  30.577  12.008
50524W        W22817   8.199   7.818   3.251
50525W        W22818  25.033  31.127   2.667
50526W        W22819  31.564  36.531  13.903
50527W        W22820   6.810  43.416  13.423
50528W        W22821  15.587   7.298  10.566
50529W        W22822  39.386  39.554  13.546
50530W        W22823  32.481  39.342   2.852
50531W        W22824  37.075  34.590   2.668
50532W        W22825  31.969  19.702   2.705
50533W        W22826   0.419  18.145  14.477
50534W        W22827  35.555   5.812  12.066
50535W        W22828  22.605   2.399  10.454
50536W        W22829  16.187  33.582  14.767
50537W        W22830  18.194  14.720  13.410
50538W        W22831  31.933  26.589  10.040
50539W        W22832  31.569  43.457   0.376
50540W        W22833  14.741  40.816  12.974
50541W        W22834  28.136   7.406   2.327
50542W        W22835  11.741   6.287  14.480
50543W        W22836   7.789  33.587   1.380
50544W        W22837  40.513  30.509  12.459
50545W        W22838  25.705  12.139  10.998
50546W        W22839  16.646  36.382   0.337
50547W        W22840  24.632  21.182   4.333
50548W        W22841   0.381  20.037  14.979
50549W        W22842  31.942   6.894  13.336
50550W        W22843  38.547  27.688   3.309
50551W        W22844   9.758   4.386  11.587
50552W        W22845  28.175  22.084   3.792
50553W        W22846  29.529  43.808  13.845
50554W        W22847  26.078  22.598  13.525
50555W        W22848  29.643  22.117  12.519
50556W        W22849  10.189  23.541   4.662
50557W        W22850  28.546   3.430  12.884
50558W        W22851  33.980  30.489   2.254
50559W        W22852  43.331  32.941   1.210
50560W        W22853  26.064  33.000   1.830
50561W        W22854   3.763   6.347  11.002
50562W        W22855   6.707  20.042  14.852
50563W        W22856  32.000  13.839   1.698
50564W        W22857  20.558  30.046  12.468
50565W        W22858  12.186  16.148  10.913
50566W        W22859   7.229  39.813   4.352
50567W        W22860  41.857  41.346   0.290
50568W        W22861  37.859   6.244  13.438
50569W        W22862  36.868  14.617  10.624
50570W        W22863  32.571  35.370  13.864
50571W        W22864  33.554  32.111  10.642
50572W        W22865  30.496  22.158  10.538
50573W        W22866  44.863  42.978   1.836
50574W        W22867  31.972   4.328   2.838
50575W        W22868   7.231  40.042  14.302
50576W        W22869  27.972   8.383  11.057
50577W        W22870   8.669  26.176   1.371
50578W        W22871   6.306  39.938  13.546
50579W        W22872  22.701  18.548  13.042
50580W        W22873  35.519  37.384   2.413
50581W        W22874  28.635  30.932   2.715
50582W        W22875  35.550  14.303   3.183
50583W        W22876  23.143  22.031   2.273
50584W        W22877  23.069   3.422  11.570
50585W        W22878  43.313  40.018   0.752
50586W        W22879  35.435  37.574  14.862
50587W        W22880  27.653  37.413  14.305
50588W        W22881  35.904  36.441  10.632
50589W        W22882   6.366  14.654   4.219
50590W        W22883  38.498  43.344   0.855
50591W        W22884  28.003  21.554  13.921
50592W        W22885  28.057  36.356   2.223
50593W        W22886  40.545  42.854   2.833
50594W        W22887  34.965  29.665  14.762
50595W        W22888   3.373  37.997   3.203
50596W        W22889  28.093  19.210  12.460
50597W        W22890  30.920  14.737   3.195
50598W        W22891  26.594  14.625   3.646
50599W        W22892   8.390   4.448   3.195
50600W        W22893  31.948   7.218  11.895
50601W        W22894  35.931  43.956   4.717
50602W        W22895  22.208  37.871   1.422
50603W        W22896   3.236  12.285   0.281
50604W        W22897   0.856  19.587  13.019
50605W        W22898   2.928  26.163  14.469
50606W        W22899  30.104   4.810   4.685
50607W        W22900  13.689   4.717   4.639
50608W        W22901  15.768   2.914   3.287
50609W        W22902  38.031  11.332  10.572
50610W        W22903  30.971  43.344  11.483
50611W        W22904   2.282  18.290  11.588
50612W        W22905   0.769   3.805  11.604
50613W        W22906  24.144  11.728   5.120
50614W        W22907  28.581  41.906  14.019
50615W        W22908  11.868  18.545   1.298
50616W        W22909  32.084   9.698  12.873
50617W        W22910  14.775  35.463   3.236
50618W        W22911  21.629  10.869   1.821
50619W        W22912  42.480   5.272   3.366
50620W        W22913  42.025   1.929   4.275
50621W        W22914  16.085   5.766   4.642
50622W        W22915  41.026   1.916   4.320
50623W        W22916  32.393  22.521   3.687
50624W        W22917  39.484  41.423   1.237
50625W        W22918  23.133  38.432  14.284
50626W        W22919  34.020  36.533   3.311
50627W        W22920   9.207  34.051   0.357
50628W        W22921  19.200  29.100   1.259
50629W        W22922  37.021  23.229   2.331
50630W        W22923  29.162   6.416  12.040
50631W        W22924  42.833  35.497  14.304
50632W        W22925   4.391  20.132   0.343
50633W        W22926   5.747  42.961   0.806
50634W        W22927   3.448  41.294  11.505
50635W        W22928  21.120  13.296  13.824
50636W        W22929  10.285  37.450  14.346
50637W        W22930  19.184  15.811  11.030
50638W        W22931   9.293   4.270   2.405
50639W        W22932   8.839  39.338   4.238
50640W        W22933  37.470  19.247  14.813
50641W        W22934  35.917  21.136  13.864
50642W        W22935   2.259  11.350  14.413
50643W        W22936  40.019  19.146  12.933
50644W        W22937   7.195  29.952   2.312
50645W        W22938  39.057  34.485   2.194
50646W        W22939  29.970   2.234  12.549
50647W        W22940  33.958  34.475   4.597
50648W        W22941   6.277  29.446  12.836
50649W        W22942  44.494  27.050   1.301
50650W        W22943   8.752   5.287  14.486
50651W        W22944   1.354  13.191   3.234
50652W        W22945   4.297  25.631  11.896
50653W        W22946  27.510  29.649  13.038
50654W        W22947   7.752  35.005  10.905
50655W        W22948  27.499  29.543   2.215
50656W        W22949  24.553   7.284  13.059
50657W        W22950  43.961  44.456   2.409
50658W        W22951  36.034  22.232   1.783
50659W        W22952  44.758  42.904  13.910
50660W        W22953   8.739   2.321  12.356
50661W        W22954  24.560  18.064   0.475
50662W        W22955  36.499   9.695  14.917
50663W        W22956  43.883   9.181   3.319
50664W        W22957  13.154  37.937  13.009
50665W        W22958  32.555   4.941   4.641
50666W        W22959  30.422  33.030  13.827
50667W        W22960   4.755  15.195   0.776
50668W        W22961  39.925  27.488   0.434
50669W        W22962  29.611  29.627  14.836
50670W        W22963  10.168  24.144   0.800
50671W        W22964  12.633  28.620   4.320
50672W        W22965  15.775  39.810   1.290
50673W        W22966  25.701  38.850   2.223
50674W        W22967   8.277   0.934   2.386
50675W        W22968  33.503  35.515   0.419
50676W        W22969  13.257  11.856   1.771
50677W        W22970  21.563   8.340   1.300
50678W        W22971  32.520  44.489   3.169
50679W        W22972  30.944  15.632   0.320
50680W        W22973   8.805  15.116   3.744
50681W        W22974  12.160  11.199   2.895
50682W        W22975  19.669  31.585   2.828
50683W        W22976  43.297   6.196   1.373
50684W        W22977   4.243  43.497  12.952
50685W        W22978  33.406  10.684  12.470
50686W        W22979  13.611  38.940   2.899
50687W        W22980  41.453  30.983   3.349
50688W        W22981  19.214  40.015   4.187
50689W        W22982   2.721  42.452  14.388
50690W        W22983  12.645  33.955  12.833
50691W        W22984  26.201  10.270  12.491
50692W        W22985  20.685   0.319  12.347
50693W        W22986   9.178  39.384  13.452
50694W        W22987   0.433  34.028   0.421
50695W        W22988  43.275  43.407   2.316
50696W        W22989  19.213  26.601  11.498
50697W        W22990  33.566  21.237   4.131
50698W        W22991  33.096  28.001   0.904
50699W        W22992  10.227  31.026   3.748
50700W        W22993   3.769   8.873   1.432
50701W        W22994  15.769  19.128   3.222
50702W        W22995  35.493  13.218   1.925
50703W        W22996  24.643  39.050  10.533
50704W        W22997   3.944   7.401   3.864
50705W        W22998   4.375  43.995  13.393
50706W        W22999   4.397  39.556  12.542
50707W        W23000   3.716   8.868   0.872
50708W        W23001   0.888  32.396   2.304
50709W        W23002  13.332  38.449  10.959
50710W        W23003  44.303  28.943   2.225
50711W        W23004  33.501  11.671  10.938
50712W        W23005   9.345  39.947  14.512
50713W        W23006  28.652   0.385   0.784
50714W        W23007   6.679  36.065   1.825
50715W        W23008  27.955  20.611   9.981
50716W        W23009  41.301   7.670   4.284
50717W        W23010  17.292  27.637   0.472
50718W        W23011  41.425   6.742   0.249
50719W        W23012  21.186  33.981  13.530
50720W        W23013  25.121  26.037   0.804
50721W        W23014  26.630  15.226  14.378
50722W        W23015  29.496  12.292  12.339
50723W        W23016  25.477   4.823   5.298
50724W        W23017  35.964   5.830  13.311
50725W        W23018   8.781   4.363  14.326
50726W        W23019   8.673   9.770   3.641
50727W        W23020   3.349  28.102  14.785
50728W        W23021   2.965   6.698   0.250
50729W        W23022  30.113  28.562  11.960
50730W        W23023  27.466  35.403   4.653
50731W        W23024  37.871  14.135  13.535
50732W        W23025  23.659  21.115  11.527
50733W        W23026   4.736  12.803  12.026
50734W        W23027  42.469  43.408  10.926
50735W        W23028   9.375  35.001   1.284
50736W        W23029  28.494  27.988   2.673
50737W        W23030  35.989   8.678   4.232
50738W        W23031  43.391   2.254  14.400
50739W        W23032  27.572  41.368   3.634
50740W        W23033   4.816  36.882  13.921
50741W        W23034  13.821  40.360  12.561
50742W        W23035  32.038  30.116   1.283
50743W        W23036  30.128   0.419  11.455
50744W        W23037  43.508  32.080   3.702
50745W        W23038  28.178   7.249  14.508
50746W        W23039  12.225  22.611   3.640
50747W        W23040  18.231  30.413   3.155
50748W        W23041   8.661  14.097  12.441
50749W        W23042   8.889   9.701  14.309
50750W        W23043  43.329  37.971  13.941
50751W        W23044  23.542  14.137  13.337
50752W        W23045  21.529   9.323   3.866
50753W        W23046  10.321  26.504   9.949
50754W        W23047  22.548  31.502   1.283
50755W        W23048  23.538  42.834  12.458
50756W        W23049  27.169  16.280  10.943
50757W        W23050  22.653  24.067  14.971
50758W        W23051   0.280  39.065  13.539
50759W        W23052  10.825  27.148   0.797
50760W        W23053  31.103  30.450  10.581
50761W        W23054   3.346  30.453  10.975
50762W        W23055  37.006  21.263  11.450
50763W        W23056  28.521  17.126   4.254
50764W        W23057   1.356  41.327   2.310
50765W        W23058  36.432  35.500   0.728
50766W        W23059   9.819   0.937   3.182
50767W        W23060   7.689  13.334  10.893
50768W        W23061   6.410  21.654  11.412
50769W        W23062  14.783  43.302   4.684
50770W        W23063  32.563  16.638   3.270
50771W        W23064  24.650   2.733  11.484
50772W        W23065  14.224   6.347   4.244
50773W        W23066  24.505  14.289   4.227
50774W        W23067  38.942  23.216   1.424
50775W        W23068  10.827   1.847  11.868
50776W        W23069   5.866  16.632  11.932
50777W        W23070  20.596  43.022  12.348
50778W        W23071   9.242  21.151   1.928
50779W        W23072   4.328  31.491   4.335
50780W        W23073  15.101   6.799   2.283
50781W        W23074  29.668  31.538   3.224
50782W        W23075   0.907   5.832  14.884
50783W        W23076   4.435  21.623   4.810
50784W        W23077  20.573   7.354   0.373
50785W        W23078  33.076   5.204   2.711
50786W        W23079  35.871  15.769   2.677
50787W        W23080  11.218  34.977  10.584
50788W        W23081  43.995   2.892   0.882
50789W        W23082   0.478  15.220   3.344
50790W        W23083  20.673  19.741  12.547
50791W        W23084   3.446  11.219   0.733
50792W        W23085  40.499  42.345  14.760
50793W        W23086  12.351  31.586   1.286
50794W        W23087  25.663  33.909   2.751
50795W        W23088  16.583   8.756   0.424
50796W        W23089  38.430   4.296   3.682
50797W        W23090  36.507  10.285   0.449
50798W        W23091  42.835  29.450  13.936
50799W        W23092  40.976  18.245  11.076
50800W        W23093  40.547  34.436   2.401
50801W        W23094  15.699  39.875   1.855
50802W        W23095  10.379  43.894   0.831
50803W        W23096   5.215   9.315  10.995
50804W        W23097  27.950   6.858   1.415
50805W        W23098  35.367  23.128  12.911
50806W        W23099  20.685  14.598  11.401
50807W        W23100  16.230  19.763   2.252
50808W        W23101  24.638  26.631   4.282
50809W        W23102  26.497  27.550   4.131
50810W        W23103  31.485   1.460  11.017
50811W        W23104  35.074   2.358   2.312
50812W        W23105  24.018  39.894   1.213
50813W        W23106   7.231  36.545  13.014
50814W        W23107  14.237  12.301  13.802
50815W        W23108   6.235  11.772   0.781
50816W        W23109   2.387  19.270  13.945
50817W        W23110  23.102   9.781   3.706
50818W        W23111  24.599  17.688   1.890
50819W        W23112  40.860  16.240  11.125
50820W        W23113  39.892  43.377  14.309
50821W        W23114  17.660   1.406   4.114
50822W        W23115  21.131  39.415   2.392
50823W        W23116  40.895  28.085  11.994
50824W        W23117  29.657  28.010   0.955
50825W        W23118  43.304   1.818  14.381
50826W        W23119  41.383  11.676   1.730
50827W        W23120   9.244  15.299  10.468
50828W        W23121  19.056  30.655  10.443
50829W        W23122  16.306  30.424   1.213
50830W        W23123  30.638  17.709  10.567
50831W        W23124   5.275  30.546   1.273
50832W        W23125   4.290  29.429  11.076
50833W        W23126  10.180   4.270   2.818
50834W        W23127  15.099  44.882  12.467
50835W        W23128  30.552  16.318  11.522
50836W        W23129  30.627  34.466  12.546
50837W        W23130  36.587   4.818  13.335
50838W        W23131   8.858  32.448  12.954
50839W        W23132  34.562  41.491   1.842
50840W        W23133  25.049  24.999   1.918
50841W        W23134  44.775  40.922  13.976
50842W        W23135  43.846  10.213  11.607
50843W        W23136  41.823  22.135  13.050
50844W        W23137  20.742  14.647  12.887
50845W        W23138  10.178  24.196  10.615
50846W        W23139  37.500  24.693  13.025
50847W        W23140   3.248  11.679  13.535
50848W        W23141  39.030  23.192  11.096
50849W        W23142  12.655   7.209   3.724
50850W        W23143  39.331  20.247  12.094
50851W        W23144  30.487  17.137  13.974
50852W        W23145   6.286   5.689  12.007
50853W        W23146  14.593  30.589  12.064
50854W        W23147   6.853  33.388  13.860
50855W        W23148  36.854  22.110   3.322
50856W        W23149   9.329  37.457   2.320
50857W        W23150  36.379  11.298  14.288
50858W        W23151  28.521  42.502  14.951
50859W        W23152  15.094  32.437  14.466
50860W        W23153  32.475  38.870   4.261
50861W        W23154  35.023  31.494   0.418
50862W        W23155  34.466  21.523  11.107
50863W        W23156  28.644  21.673  11.106
50864W        W23157  16.078  15.689  14.498
50865W        W23158   8.741  25.058   2.322
50866W        W23159  12.239  24.651   1.737
50867W        W23160   8.231  19.055  11.515
50868W        W23161   9.328  41.865   0.467
50869W        W23162  12.141  42.812   3.678
50870W        W23163  17.639  31.617   9.987
50871W        W23164  15.159  44.954   3.369
50872W        W23165   0.919  27.131   4.286
50873W        W23166  26.134  29.100  14.837
50874W        W23167   1.861  31.487   3.203
50875W        W23168   2.318   1.409  13.925
50876W        W23169   3.384  30.964   4.199
50877W        W23170  22.693  16.085  11.507
50878W        W23171  26.698  16.191   1.742
50879W        W23172  11.325  33.455  10.889
50880W        W23173  25.534  37.846   3.864
50881W        W23174  38.892  28.553   0.821
50882W        W23175  36.587  10.184   3.630
50883W        W23176  43.012  37.983  13.324
50884W        W23177   2.408  34.573  12.964
50885W        W23178   6.216  22.551  14.879
50886W        W23179  33.508   7.249  14.825
50887W        W23180  23.216  11.324  12.512
50888W        W23181  28.083  35.423   4.181
50889W        W23182   1.249  28.605  13.388
50890W        W23183   0.865  17.783   0.825
50891W        W23184  13.680  14.131   0.281
50892W        W23185  44.929  33.586   9.478
50893W        W23186   9.233  44.376   0.736
50894W        W23187  25.011  11.627  10.507
50895W        W23188  13.724  39.464  14.930
50896W        W23189  41.918  42.814  12.437
50897W        W23190  10.868   6.852  10.562
50898W        W23191  35.537  41.373  14.027
50899W        W23192  26.659  12.687   2.294
50900W        W23193  24.135   4.229   3.162
50901W        W23194  37.861   8.735  10.013
50902W        W23195  32.982  10.853   4.177
50903W        W23196   4.867  13.602   4.186
50904W        W23197  37.509   7.681   2.341
50905W        W23198  19.273  33.477  11.111
50906W        W23199  15.238  24.070  14.507
50907W        W23200  37.986   6.243  11.055
50908W        W23201  39.369  20.666   3.169
50909W        W23202   8.391  27.075  14.939
50910W        W23203  10.311  23.662  14.026
50911W        W23204  41.324  39.912  12.917
50912W        W23205   4.371  16.615   3.279
50913W        W23206  30.088   2.940   4.231
50914W        W23207   7.857   5.208  12.971
50915W        W23208  20.606  43.950   2.792
50916W        W23209   7.190   6.681  13.422
50917W        W23210  17.759  15.618  14.781
50918W        W23211  15.802  15.146  10.536
50919W        W23212  30.641  26.111   2.293
50920W        W23213   0.969  12.610   3.677
50921W        W23214  12.694  10.875  13.437
50922W        W23215  18.586  28.043  13.037
50923W        W23216  34.873   7.735   0.468
50924W        W23217  34.447  26.063  11.056
50925W        W23218  40.932  24.986  10.514
50926W        W23219  22.250  15.168  14.807
50927W        W23220  37.521  40.320   0.252
50928W        W23221  12.335  17.694   1.738
50929W        W23222  41.438  10.719  12.829
50930W        W23223  39.502  35.097  14.997
50931W        W23224  25.216  31.563  13.850
50932W        W23225  23.687  31.948  11.505
50933W        W23226  32.497  22.016  10.970
50934W        W23227  16.222  12.228   3.304
50935W        W23228  37.920  16.096  12.890
50936W        W23229  24.536  15.249   1.847
50937W        W23230  17.627  27.583   0.301
50938W        W23231  36.030  20.548   2.848
50939W        W23232  31.083  11.310  12.384
50940W        W23233  33.113  15.735   5.283
50941W        W23234  19.124  39.030  12.351
50942W        W23235  27.942  23.646  12.439
50943W        W23236  43.320   4.863  10.127
50944W        W23237   4.930  27.948   2.416
50945W        W23238  15.198  24.012  10.622
50946W        W23239   7.397   8.334  12.440
50947W        W23240  19.621  12.664  14.307
50948W        W23241   9.653   4.376  14.281
50949W        W23242  31.975  25.672   1.390
50950W        W23243   0.821  27.959   4.232
50951W        W23244  40.446  41.912   2.371
50952W        W23245   1.405  22.520  13.946
50953W        W23246  15.282   4.802  12.966
50954W        W23247  29.962  15.086   1.421
50955W        W23248  27.611  29.550   4.330
50956W        W23249  42.379  38.959  12.571
50957W        W23250  23.512  35.898  12.482
50958W        W23251   2.943  25.061  12.861
50959W        W23252  38.440   0.844  12.354
50960W        W23253   8.239  29.126   1.717
50961W        W23254  23.124  33.528  12.862
50962W        W23255  25.991  26.065   2.683
50963W        W23256  14.338  15.296  10.451
50964W        W23257  32.542  38.418   1.701
50965W        W23258  39.970  18.097  11.004
50966W        W23259  37.008   7.325  11.419
50967W        W23260  31.635  16.230  14.463
50968W        W23261  14.745  31.138   4.135
50969W        W23262  10.734  12.147   1.304
50970W        W23263  39.537  20.680  10.898
50971W        W23264  13.170  10.224  11.562
50972W        W23265  22.705  36.481  14.379
50973W        W23266  31.915  42.305  11.869
50974W        W23267   0.844  18.286   3.345
50975W        W23268  34.374  15.226  14.336
50976W        W23269  21.716  28.574  13.545
50977W        W23270  39.906  43.823  10.080
50978W        W23271  16.721  33.924   0.251
50979W        W23272  40.013  18.141   2.382
50980W        W23273  19.202   2.471  13.918
50981W        W23274  15.303  37.367  14.473
50982W        W23275  24.720  18.593   3.801
50983W        W23276  22.108  32.425   1.380
50984W        W23277   0.910   8.249   2.412
50985W        W23278  35.581   3.315   5.260
50986W        W23279  15.223  37.399  12.417
50987W        W23280   7.707  42.909   1.365
50988W        W23281  16.632  26.029   0.353
50989W        W23282   0.417  19.068  10.641
50990W        W23283  17.572  37.442   1.389
50991W        W23284  36.389  14.687   3.308
50992W        W23285  11.663  29.159   0.334
50993W        W23286  21.040  21.230  12.390
50994W        W23287   5.237  34.453  11.044
50995W        W23288  17.635   7.403  13.511
50996W        W23289  28.153  27.030  13.436
50997W        W23290   0.857  21.645  10.454
50998W        W23291  12.654   2.839  12.402
50999W        W23292  26.018  26.586   0.261
51000W        W23293  30.565   8.733  12.413
51001W        W23294  36.999   2.814   4.690
51002W        W23295  18.574   2.294   2.845
51003W        W23296  42.860  19.629   3.835
51004W        W23297  25.639  22.659   0.321
51005W        W23298   0.816   8.298   3.360
51006W        W23299  19.125   3.261  11.575
51007W        W23300  25.028  26.188  12.881
51008W        W23301  17.562  24.223   1.775
51009W        W23302  42.416  21.573  14.284
51010W        W23303  20.667   9.889  10.968
51011W        W23304  12.663  25.191  12.447
51012W        W23305  24.987  36.032   4.135
51013W        W23306  44.829  44.819   0.414
51014W        W23307   9.273  28.628  10.515
51015W        W23308  16.671  28.592   2.698
51016W        W23309  29.497  19.697  13.913
51017W        W23310  40.410   5.741  14.394
51018W        W23311  35.863  39.854  12.392
51019W        W23312  17.559   0.341  13.035
51020W        W23313  17.255   7.256   4.636
51021W        W23314  35.568  20.578  14.496
51022W        W23315  40.304  28.166   0.764
51023W        W23316  13.134   4.894   1.366
51024W        W23317  18.168  29.628  12.341
51025W        W23318  18.765  36.059   0.821
51026W        W23319   7.214   9.239  14.431
51027W        W23320  16.156  37.894   0.345
51028W        W23321  29.960   1.880   2.737
51029W        W23322  12.275  15.162   1.887
51030W        W23323  33.393  14.252  13.826
51031W        W23324   7.907  23.720  12.850
51032W        W23325  15.256  18.193   3.363
51033W        W23326  39.034  24.150   0.765
51034W        W23327  40.001   5.213  14.428
51035W        W23328  10.858  19.655  14.462
51036W        W23329  24.197  19.275  14.009
51037W        W23330  15.672  25.198   0.346
51038W        W23331   9.723  37.463  13.946
51039W        W23332  17.133   9.259  14.379
51040W        W23333   6.723  37.055  11.401
51041W        W23334  42.989  34.556   1.762
51042W        W23335  29.607  22.541   2.407
51043W        W23336   8.857  27.088   4.114
51044W        W23337  44.334  24.030  13.924
51045W        W23338   8.717  15.318   2.849
51046W        W23339  32.120  30.497   1.817
51047W        W23340  34.575  10.158  11.486
51048W        W23341  29.538  33.472  14.319
51049W        W23342  43.415  35.466   0.862
51050W        W23343   6.413  34.923   4.295
51051W        W23344  28.438  15.611   3.374
51052W        W23345  44.439  42.834   4.815
51053W        W23346  21.142  37.468  14.317
51054W        W23347  11.236  27.605   4.722
51055W        W23348   7.377  16.609  10.980
51056W        W23349  11.172  27.967  12.999
51057W        W23350   2.838  33.903   1.897
51058W        W23351  30.991  40.477  12.390
51059W        W23352  38.977  33.498   5.240
51060W        W23353  28.979  40.947  14.799
51061W        W23354   9.823  26.115   1.820
51062W        W23355  11.133  39.439   2.365
51063W        W23356  19.564  22.711   0.273
51064W        W23357  16.574  39.025   2.379
51065W        W23358  13.817  11.217   0.924
51066W        W23359  16.245   3.224  13.469
51067W        W23360  21.662  17.719  14.877
51068W        W23361  12.794  26.982   4.650
51069W        W23362  38.441   8.786   0.813
51070W        W23363  41.957  39.906   0.965
51071W        W23364  27.070  15.130  13.427
51072W        W23365  42.982   0.343   0.941
51073W        W23366  13.845  21.198   9.959
51074W        W23367  40.905   1.437   3.343
51075W        W23368  25.582  26.507  12.055
51076W        W23369   9.323  30.139  14.502
51077W        W23370  40.820  25.489   4.615
51078W        W23371  13.350  21.136   0.893
51079W        W23372   0.401  38.348  10.594
51080W        W23373  27.625  27.445  13.000
51081W        W23374  28.930  39.964  12.911
51082W        W23375  40.311  15.700   4.186
51083W        W23376  24.975  22.223  14.925
51084W        W23377   2.271  23.703  10.054
51085W        W23378  13.327  14.819   3.754
51086W        W23379  34.544  28.590  12.350
51087W        W23380   2.464   8.833   3.710
51088W        W23381  14.777  12.705   0.771
51089W        W23382  19.712   4.930   3.195
51090W        W23383  15.205  37.480   1.313
51091W        W23384   3.371  34.571   3.182
51092W        W23385  11.260  30.952   3.283
51093W        W23386  19.226   1.896  14.764
51094W        W23387  35.063  38.973  13.903
51095W        W23388  44.838  35.458  14.910
51096W        W23389  11.770  14.823  10.608
51097W        W23390  43.997  13.108   0.470
51098W        W23391  38.554  15.330  11.571
51099W        W23392  34.544  34.541  12.039
51100W        W23393  27.453  21.185  14.896
51101W        W23394  34.888  43.839  11.081
51102W        W23395  38.010   7.346   1.848
51103W        W23396  25.520  39.461  14.363
51104W        W23397   4.810   5.354   1.787
51105W        W23398  28.595   8.245   0.816
51106W        W23399   3.417  30.120  11.009
51107W        W23400   2.321  44.761  12.988
51108W        W23401  39.859   6.262   1.223
51109W        W23402   1.832  37.487  11.534
51110W        W23403   3.326  15.252  11.393
51111W        W23404  18.544  24.176   0.846
51112W        W23405  22.537  28.145  11.947
51113W        W23406  24.603  43.473   2.366
51114W        W23407  27.587   3.334   1.222
51115W        W23408   8.761  41.966   4.232
51116W        W23409  23.698  38.449   2.241
51117W        W23410  34.090   8.164  14.790
51118W        W23411   6.703  26.552  14.396
51119W        W23412  21.580  11.345   1.776
51120W        W23413   7.755   6.381   1.808
51121W        W23414  36.001   0.823  10.560
51122W        W23415   1.801  28.532  12.905
51123W        W23416   1.359  13.755   0.749
51124W        W23417  42.776  32.934  14.455
51125W        W23418  16.089   6.247  10.455
51126W        W23419  27.043   7.725   0.964
51127W        W23420   9.265   1.279  12.966
51128W        W23421   1.944  11.151  11.532
51129W        W23422  43.771   1.869   4.253
51130W        W23423   9.256  17.704   1.265
51131W        W23424  18.269  13.187   4.187
51132W        W23425  37.492  33.920   0.366
51133W        W23426  12.711  11.757  11.564
51134W        W23427   6.181  43.985   3.231
51135W        W23428   5.930   6.317  14.975
51136W        W23429  30.144  26.630  10.954
51137W        W23430   6.839  36.893   1.359
51138W        W23431  21.635  12.328   1.705
51139W        W23432  36.858   9.359   0.828
51140W        W23433  21.255  25.636   0.859
51141W        W23434  14.724  19.743  14.469
51142W        W23435  17.214  27.990   0.363
51143W        W23436  19.179  25.187   3.246
51144W        W23437  25.658  21.211  13.336
51145W        W23438  36.535  32.588  10.583
51146W        W23439  11.759  20.608  12.342
51147W        W23440  20.568   2.295   1.848
51148W        W23441   7.830  36.912   5.253
51149W        W23442  42.308  34.093   2.182
51150W        W23443  39.353  20.210   3.722
51151W        W23444   8.855  43.939  11.489
51152W        W23445   0.444   1.301   2.370
51153W        W23446  38.021   0.487  12.854
51154W        W23447   7.851   1.436   1.443
51155W        W23448  26.202  39.535   4.326
51156W        W23449   8.191  31.468  12.416
51157W        W23450   0.360  18.610   4.760
51158W        W23451  19.269   1.949   0.918
51159W        W23452  25.706   4.930   4.203
51160W        W23453   3.738  18.287  13.004
51161W        W23454  35.004  33.903   4.618
51162W        W23455   2.358  41.828   1.707
51163W        W23456  42.012  15.727  11.018
51164W        W23457  41.323  14.635  11.029
51165W        W23458  25.988  28.185  14.865
51166W        W23459  25.171  29.520  11.539
51167W        W23460  43.356  26.590  11.373
51168W        W23461  18.709   0.445  13.334
51169W        W23462  24.040  42.492   4.607
51170W        W23463   0.947  11.843   2.184
51171W        W23464   6.779  33.984   2.769
51172W        W23465  16.126  14.298  12.408
51173W        W23466   7.228  10.310  13.023
51174W        W23467  15.131  27.691   4.281
51175W        W23468   4.420   9.701   1.861
51176W        W23469   4.351   4.840   3.677
51177W        W23470  11.212  28.669  12.417
51178W        W23471  40.333   6.275   0.954
51179W        W23472  20.249  34.067  14.868
51180W        W23473   4.908  30.104  13.397
51181W        W23474  44.309  19.169  10.486
51182W        W23475   2.743  31.967   3.778
51183W        W23476  26.508  26.642   0.891
51184W        W23477  16.291  42.298  14.284
51185W        W23478  44.954  43.868  14.359
51186W        W23479  18.223   3.763   0.907
51187W        W23480   9.163  22.689   1.877
51188W        W23481   1.461  42.462  12.910
51189W        W23482  36.954  23.005  11.083
51190W        W23483  29.433   8.800   2.393
51191W        W23484   6.921   7.701  10.919
51192W        W23485  32.552  39.333   4.713
51193W        W23486  29.518   9.395  14.410
51194W        W23487  19.145  44.461  13.500
51195W        W23488  44.291  35.940  14.306
51196W        W23489  21.246  14.288   1.286
51197W        W23490  20.145   9.328   4.627
51198W        W23491  28.007  31.030  13.464
51199W        W23492  29.127  18.169  14.874
51200W        W23493   9.378  22.207   3.860
51201W        W23494  11.194   9.188   1.448
51202W        W23495  36.032  40.943   3.268
51203W        W23496  25.134  40.539   1.873
51204W        W23497  19.213  41.380  10.437
51205W        W23498   3.715  23.520  12.849
51206W        W23499   1.259  42.426  11.055
51207W        W23500   2.828  25.158   2.763
51208W        W23501   7.278  44.279  11.483
51209W        W23502  24.214  35.953  10.933
51210W        W23503   1.358  43.804  12.543
51211W        W23504  22.067  12.251  10.599
51212W        W23505  14.307   8.384   3.837
51213W        W23506  41.801  19.552   2.349
51214W        W23507   9.785  16.190  14.830
51215W        W23508  37.843  11.658   4.605
51216W        W23509   5.330  37.000   4.256
51217W        W23510  28.174  42.515  14.452
51218W        W23511   5.281  13.650   2.247
51219W        W23512  21.587  14.229   1.398
51220W        W23513   7.724  36.847  10.562
51221W        W23514  22.150   2.948  12.500
51222W        W23515  44.910  28.658  10.925
51223W        W23516  24.565   4.311   5.126
51224W        W23517  13.828  38.898  12.436
51225W        W23518   1.964  10.372   2.218
51226W        W23519   7.873  33.413  11.492
51227W        W23520  34.371  33.442  12.462
51228W        W23521  41.338  16.571  10.158
51229W        W23522  35.568   7.196  12.034
51230W        W23523  15.210  35.475   1.376
51231W        W23524  21.626  19.227  12.929
51232W        W23525  22.052   0.478   1.406
51233W        W23526  37.381  40.858  12.060
51234W        W23527  11.168  31.125  11.053
51235W        W23528  33.389   5.288  12.972
51236W        W23529  44.789  10.311   0.812
51237W        W23530  12.231  37.888   2.707
51238W        W23531   9.704  33.077   1.256
51239W        W23532  34.544  36.569  10.933
51240W        W23533   0.418  24.041  14.833
51241W        W23534  21.523  20.176   4.759
51242W        W23535  38.495  23.732   3.158
51243W        W23536   9.204  21.162  10.114
51244W        W23537  44.775  14.670   0.352
51245W        W23538  27.078  43.769  13.842
51246W        W23539  35.510  10.357   2.783
51247W        W23540  30.113  25.488  11.089
51248W        W23541   0.296   5.847   4.333
51249W        W23542   4.846  23.037   3.703
51250W        W23543  41.968   1.828   2.665
51251W        W23544   2.264   2.759  12.568
51252W        W23545  35.382  12.317   1.278
51253W        W23546  29.484  38.937   2.296
51254W        W23547   9.827  16.309   4.826
51255W        W23548  36.497  22.081   3.674
51256W        W23549   5.391  44.321   9.950
51257W        W23550  37.574  37.031  14.344
51258W        W23551  40.902  21.531   0.383
51259W        W23552  15.725  12.221  10.975
51260W        W23553   9.840  24.706  14.030
51261W        W23554   7.696  29.500   5.282
51262W        W23555  20.590   9.279   1.705
51263W        W23556  17.273   6.746   3.651
51264W        W23557   4.334  44.921   0.863
51265W        W23558  25.183  34.472  12.958
51266W        W23559  25.137  33.529   1.734
51267W        W23560  13.672  25.132   4.340
51268W        W23561  24.619  27.944  13.500
51269W        W23562  32.492   6.348  12.008
51270W        W23563  14.670   4.726   9.964
51271W        W23564   5.290  29.152  14.513
51272W        W23565  26.625   0.769  12.559
51273W        W23566  29.458  36.053   5.113
51274W        W23567  19.243  39.366  11.440
51275W        W23568  31.988   1.920  11.393
51276W        W23569  40.881   4.945  13.537
51277W        W23570  38.002  31.095   2.754
51278W        W23571  35.878  31.129   4.230
51279W        W23572  34.597  24.214   2.668
51280W        W23573  26.550   9.734   4.832
51281W        W23574  28.515  43.435  14.785
51282W        W23575  29.119  30.642  14.867
51283W        W23576  19.238  31.526   0.748
51284W        W23577  35.407  39.945   4.341
51285W        W23578  27.975  37.980   0.277
51286W        W23579   5.910  20.266   2.685
51287W        W23580  22.027  40.397   1.918
51288W        W23581  13.844  44.408   3.740
51289W        W23582  15.577  34.923   3.776
51290W        W23583   9.293   0.913  13.365
51291W        W23584  14.715  16.310  12.082
51292W        W23585  22.092  28.452  13.988
51293W        W23586  27.513   1.265   3.369
51294W        W23587  27.131  35.583   2.673
51295W        W23588   8.346  20.081   4.308
51296W        W23589   5.302  38.903  11.429
51297W        W23590  44.304  27.102  11.003
51298W        W23591  10.734  11.351  14.763
51299W        W23592  37.353  27.152  13.004
51300W        W23593  23.130  32.457  11.881
51301W        W23594  13.775   7.898   2.241
51302W        W23595   6.889  44.354  13.429
51303W        W23596  33.918  43.937   4.222
51304W        W23597  42.931  18.738   0.790
51305W        W23598  20.197  25.007  12.381
51306W        W23599  37.337  14.795  13.401
51307W        W23600  30.611  18.630   3.871
51308W        W23601  25.980  11.283   2.245
51309W        W23602   3.320  23.546  13.375
51310W        W23603  39.809   8.402   0.441
51311W        W23604   1.775  31.410  12.036
51312W        W23605  11.365  44.368  10.458
51313W        W23606   1.425  11.309  11.939
51314W        W23607  44.927   3.230  14.957
51315W        W23608  22.726  33.086   4.682
51316W        W23609  26.624   9.365   3.806
51317W        W23610  21.060   7.894  12.908
51318W        W23611  25.110  12.629   3.371
51319W        W23612  14.674  42.305   1.354
51320W        W23613  33.941   6.223   4.266
51321W        W23614  21.528  35.925  13.958
51322W        W23615   2.461  32.108  12.892
51323W        W23616  17.138  35.510   4.700
51324W        W23617  32.015  22.225  11.939
51325W        W23618   8.306  31.516   1.288
51326W        W23619  38.886  24.155  14.951
51327W        W23620  15.109  32.484  11.911
51328W        W23621   4.706  19.244   1.793
51329W        W23622  43.979   3.375   4.258
51330W        W23623  24.164  39.466  13.884
51331W        W23624  17.299  24.119   2.205
51332W        W23625   7.864  12.785   1.716
51333W        W23626   6.369   1.857   4.678
51334W        W23627   1.974  14.314  11.038
51335W        W23628  37.449  27.154   4.744
51336W        W23629   3.350  28.123   1.929
51337W        W23630  20.673  15.322   1.703
51338W        W23631   7.731  14.129  10.405
51339W        W23632   5.790   4.778  10.641
51340W        W23633   8.325  24.480  12.428
51341W        W23634  32.913  42.437   2.178
51342W        W23635   4.851  26.457   4.350
51343W        W23636  40.944  20.680  14.451
51344W        W23637  27.566  15.119   0.276
51345W        W23638   1.828  22.039   2.714
51346W        W23639  12.344  39.479   2.811
51347W        W23640   3.921  17.746  14.958
51348W        W23641  33.452  29.485  11.045
51349W        W23642  41.927   4.702   3.205
51350W        W23643   9.243  11.332  14.993
51351W        W23644  42.374  15.130  11.889
51352W        W23645  25.053   2.380   1.708
51353W        W23646  17.104  42.474  10.032
51354W        W23647  17.677  35.982   3.796
51355W        W23648   1.354   5.224  12.560
51356W        W23649  34.989  22.730   3.661
51357W        W23650  32.108  36.989  11.938
51358W        W23651  42.430  44.410   4.703
51359W        W23652  33.001  30.652   1.434
51360W        W23653  29.086  10.236   4.173
51361W        W23654  11.342  43.482   4.728
51362W        W23655   4.704  30.521  14.968
51363W        W23656  27.681  25.697  13.365
51364W        W23657  42.888  25.520   1.718
51365W        W23658  23.664   2.248   3.304
51366W        W23659  31.585  16.591  14.324
51367W        W23660  39.421   8.895   0.341
51368W        W23661  26.129   7.786   2.272
51369W        W23662  37.344  11.672   1.364
51370W        W23663  35.035  15.158   3.870
51371W        W23664  17.701  34.003  10.535
51372W        W23665  42.338  17.612   1.870
51373W        W23666  24.225  25.085   1.742
51374W        W23667  37.026  11.723   2.772
51375W        W23668  14.809  21.744  12.015
51376W        W23669  22.069  27.975   1.694
51377W        W23670  44.785   8.194   3.329
51378W        W23671  31.546  15.679  10.618
51379W        W23672  35.973  15.622  13.473
51380W        W23673   4.887  19.727   3.358
51381W        W23674  40.987  24.608  14.791
51382W        W23675  31.016  41.408   5.216
51383W        W23676  37.911  43.867  11.566
51384W        W23677  26.173  18.724   0.426
51385W        W23678  36.991  25.540  13.877
51386W        W23679  38.868  26.659  14.449
51387W        W23680  10.705  18.601  11.976
51388W        W23681  13.760   5.377  12.429
51389W        W23682  25.153   2.879  11.582
51390W        W23683  19.579  35.514  14.450
51391W        W23684   7.816  32.006  12.445
51392W        W23685  36.467  44.429   3.279
51393W        W23686  24.718  16.158   2.407
51394W        W23687  27.552  14.315   4.760
51395W        W23688  19.076  18.274   3.701
51396W        W23689  29.516  13.336   1.878
51397W        W23690  15.270  41.878   3.237
51398W        W23691  31.903  41.977   3.851
51399W        W23692   0.351  43.784   1.772
51400W        W23693  44.828  11.666  12.829
51401W        W23694  19.274  24.583   3.275
51402W        W23695  15.813  24.164  12.853
51403W        W23696  29.987  35.449   2.301
51404W        W23697   6.716  10.792   2.277
51405W        W23698  29.564   8.255  11.428
51406W        W23699  36.589  36.905   2.360
51407W        W23700  42.368   2.831   3.194
51408W        W23701  38.904  10.766   0.305
51409W        W23702  22.132   8.229   4.343
51410W        W23703  36.845   4.763  14.901
51411W        W23704   1.859  15.718  13.807
51412W        W23705  18.209  22.672  10.127
51413W        W23706   1.240  27.971  13.528
51414W        W23707  21.725  42.834  12.826
51415W        W23708  34.983  27.121   4.612
51416W        W23709   7.335  35.012  11.962
51417W        W23710  29.046  20.618  11.886
51418W        W23711   3.428   7.695   5.227
51419W        W23712  23.735  15.206  13.942
51420W        W23713  26.105  12.785   3.366
51421W        W23714  20.129   5.315   1.246
51422W        W23715  29.111  43.911  13.415
51423W        W23716   2.452   6.363   4.716
51424W        W23717   4.892  40.303   5.241
51425W        W23718  40.938  29.660   2.271
51426W        W23719   1.405  44.793   0.874
51427W        W23720  11.321  43.865  10.529
51428W        W23721   1.239   5.277  11.470
51429W        W23722  25.159   2.749  10.037
51430W        W23723  34.879  21.263   0.819
51431W        W23724  40.938  14.804  13.942
51432W        W23725  23.134  38.023  14.337
51433W        W23726   8.833  29.534  10.643
51434W        W23727  38.851  10.742  12.900
51435W        W23728   5.419  37.936   1.335
51436W        W23729  10.315  39.022  14.325
51437W        W23730   3.763  23.141   3.733
51438W        W23731   7.211  18.574  12.044
51439W        W23732  10.810   3.341   0.243
51440W        W23733  20.190  12.339   2.304
51441W        W23734  37.063  21.148   1.275
51442W        W23735  10.273  40.382  10.936
51443W        W23736  21.632  12.823   3.368
51444W        W23737  14.714  38.960   4.686
51445W        W23738  26.164   1.312   0.756
51446W        W23739  32.552  20.667   0.955
51447W        W23740  42.923   4.364  13.346
51448W        W23741  22.673  42.898   4.608
51449W        W23742  38.862  11.351   3.338
51450W        W23743  32.600  10.190   3.675
51451W        W23744  33.590  41.961   1.861
51452W        W23745  11.732  44.406  14.462
51453W        W23746   5.254  20.185   1.803
51454W        W23747  42.329  28.474   2.689
51455W        W23748  10.677  29.072   0.911
51456W        W23749  20.643   2.933   2.251
51457W        W23750  36.867  24.649  12.846
51458W        W23751  36.854  31.976   1.390
51459W        W23752  12.643  39.332   1.733
51460W        W23753  22.083   3.798   9.649
51461W        W23754   2.387   7.372   3.148
51462W        W23755   1.780  24.651  13.908
51463W        W23756  16.750  34.462   4.710
51464W        W23757  35.452  30.947  14.855
51465W        W23758  31.624   0.761  14.452
51466W        W23759   7.181  13.211  13.314
51467W        W23760  28.929   1.849  14.840
51468W        W23761  44.920  24.053  12.942
51469W        W23762  30.604  18.748  10.954
51470W        W23763  16.752  20.708  13.522
51471W        W23764  27.470  13.842   1.222
51472W        W23765  10.153  20.684  10.420
51473W        W23766  22.020  27.476   0.366
51474W        W23767  44.896  19.704  10.459
51475W        W23768  39.502  26.015  11.064
51476W        W23769  27.471  35.460   1.443
51477W        W23770  33.000  11.339   2.792
51478W        W23771   7.185  44.787   4.181
51479W        W23772  16.809  18.651   0.295
51480W        W23773  40.304  29.154   1.898
51481W        W23774   1.868   4.781  10.129
51482W        W23775  14.743  43.352   3.200
51483W        W23776  29.080  43.272  13.391
51484W        W23777  21.090  13.744  14.327
51485W        W23778  30.545  27.195  11.857
51486W        W23779   1.339  40.363  10.453
51487W        W23780  26.010  38.399  14.434
51488W        W23781  26.045  15.259   4.175
51489W        W23782  23.497  19.644  11.101
51490W        W23783   2.857  18.175  12.537
51491W        W23784  25.518  27.546  13.391
51492W        W23785  13.651  22.547   4.688
51493W        W23786  12.215   1.776   0.476
51494W        W23787  29.145  37.877  14.446
51495W        W23788  25.613  20.247  10.938
51496W        W23789  11.764  42.321   0.957
51497W        W23790   2.949   5.299  11.936
51498W        W23791  43.473   9.277  13.930
51499W        W23792  16.724  33.448   1.884
51500W        W23793  26.187  16.808  14.987
51501W        W23794   4.705  24.118   3.701
51502W        W23795  20.042  14.280   5.291
51503W        W23796  18.130  41.829   3.814
51504W        W23797  21.535  10.180  14.348
51505W        W23798  38.366  20.613  12.944
51506W        W23799  33.526  36.943  12.905
51507W        W23800  32.028  44.935   3.779
51508W        W23801  31.092  22.717  12.557
51509W        W23802  23.490   9.661  13.360
51510W        W23803  33.476  39.029  10.913
51511W        W23804  16.306   2.798  12.546
51512W        W23805  21.691   2.758   4.132
51513W        W23806  43.826  26.624  12.081
51514W        W23807   5.229  36.872  13.483
51515W        W23808  28.530  20.527   0.841
51516W        W23809   5.867   5.338   1.757
51517W        W23810  17.652  34.519  11.949
51518W        W23811  13.733  29.150  11.903
51519W        W23812  34.065  41.307   2.405
51520W        W23813  20.629   6.246  10.606
51521W        W23814  37.984  39.894  10.635
51522W        W23815  27.559  26.952  11.937
51523W        W23816  44.420  25.025   2.270
51524W        W23817  43.473  38.998  12.360
51525W        W23818  29.477  20.267  13.942
51526W        W23819   2.799  24.122  11.929
51527W        W23820  10.239   2.961   4.623
51528W        W23821  10.845  19.079  12.958
51529W        W23822   2.327  22.061  11.427
51530W        W23823  23.155  11.729   0.297
51531W        W23824  43.797  37.339  11.405
51532W        W23825  20.763   9.240  14.008
51533W        W23826  39.544  29.089  12.516
51534W        W23827   5.316   8.663   4.173
51535W        W23828  22.614  11.715   4.675
51536W        W23829  31.558  14.122   1.323
51537W        W23830   9.354  20.674  12.830
51538W        W23831  14.302  40.516  10.936
51539W        W23832  16.159  22.729  12.350
51540W        W23833   8.196   5.390  11.921
51541W        W23834  40.042   1.899   0.311
51542W        W23835  22.052  29.554  11.542
51543W        W23836  16.726  38.052  14.489
51544W        W23837  25.030  30.160   4.737
51545W        W23838  20.095  22.999   2.744
51546W        W23839   8.874   3.793  11.878
51547W        W23840  26.631  35.555   0.901
51548W        W23841  18.762   8.716   5.188
51549W        W23842  42.371  16.680   1.854
51550W        W23843  13.321  21.166   2.304
51551W        W23844   6.277  40.503  12.369
51552W        W23845  43.369  41.525   4.287
51553W        W23846   4.384  14.229  13.911
51554W        W23847   4.879  36.845   1.341
51555W        W23848  30.000  20.235   4.251
51556W        W23849  19.263   4.273  14.979
51557W        W23850  34.107  42.988  12.067
51558W        W23851  23.581  38.022  13.826
51559W        W23852  41.347  14.290  11.373
51560W        W23853   0.931   4.894  10.462
51561W        W23854   5.877  11.682   3.294
51562W        W23855   1.955  23.623   3.219
51563W        W23856  41.354  36.452  12.478
51564W        W23857  35.602  30.530  11.461
51565W        W23858  35.586  37.556  12.377
51566W        W23859  29.565  42.000   1.420
51567W        W23860  19.557   2.471  14.277
51568W        W23861  34.975  19.277   3.319
51569W        W23862  18.593   9.798  12.949
51570W        W23863  39.417  44.440  13.863
51571W        W23864  23.166   7.819   0.888
51572W        W23865  12.705  35.093  12.532
51573W        W23866  23.180  14.757  12.014
51574W        W23867  24.604  43.788  12.027
51575W        W23868  34.022   3.323   3.708
51576W        W23869  43.393  43.860  13.541
51577W        W23870  35.421  14.285   1.799
51578W        W23871  17.721  43.804  10.970
51579W        W23872  21.566  22.233   1.735
51580W        W23873  17.171   3.253   3.851
51581W        W23874  21.569   7.233   2.854
51582W        W23875  17.787  27.151   1.808
51583W        W23876  15.692  44.816   4.254
51584W        W23877  32.616  35.526  11.512
51585W        W23878  27.990  21.514   1.723
51586W        W23879  25.076  13.838  10.544
51587W        W23880  19.632  16.788  12.456
51588W        W23881  22.137  34.988  10.457
51589W        W23882  41.000  14.728   1.380
51590W        W23883  40.311   8.702  13.926
51591W        W23884  32.580  26.158  14.416
51592W        W23885  41.445   3.294   4.156
51593W        W23886  17.218  42.527  12.478
51594W        W23887  26.101  22.087   9.471
51595W        W23888  38.045   8.332  14.312
51596W        W23889   3.294   6.727  14.903
51597W        W23890  37.072  18.096  11.469
51598W        W23891  12.220  10.297   2.393
51599W        W23892  20.105  37.961  12.389
51600W        W23893  25.630   2.356  10.972
51601W        W23894  43.830   7.687   0.415
51602W        W23895  35.995  18.617  13.908
51603W        W23896  44.265   2.345  11.589
51604W        W23897  26.554   3.815  14.308
51605W        W23898  40.351   3.374   3.158
51606W        W23899  40.825  18.087  11.874
51607W        W23900  42.967  20.144  12.940
51608W        W23901  24.149   4.361  12.412
51609W        W23902  42.494   6.331   2.756
51610W        W23903  40.539   4.429   0.474
51611W        W23904  27.664   3.862  14.859
51612W        W23905   5.265   2.236   1.916
51613W        W23906  41.432  26.152   4.146
51614W        W23907  14.093  11.738  14.418
51615W        W23908  15.686  17.205   4.131
51616W        W23909  43.879   5.207  12.020
51617W        W23910   5.329  41.381  11.102
51618W        W23911  40.008  29.515  14.827
51619W        W23912   2.275  25.631   4.724
51620W        W23913  38.488   7.834  11.942
51621W        W23914  15.656  41.018   2.790
51622W        W23915  25.512  16.787   1.401
51623W        W23916  24.004  18.266  12.355
51624W        W23917  18.078   2.378   0.873
51625W        W23918  43.882  14.104   0.362
51626W        W23919  31.947  21.604  11.061
51627W        W23920  26.461  22.518   0.761
51628W        W23921  40.843  39.419  14.785
51629W        W23922  37.923  22.169   1.349
51630W        W23923  26.188   0.345  12.559
51631W        W23924  23.119  16.184   2.241
51632W        W23925   6.738  13.803  14.905
51633W        W23926  34.474  11.246  14.324
51634W        W23927  15.191  33.998  13.846
51635W        W23928   5.360  43.396   4.768
51636W        W23929   2.413  13.341   3.352
51637W        W23930  10.684  33.905  14.506
51638W        W23931  25.573  15.298  13.855
51639W        W23932  19.670  18.758  13.412
51640W        W23933   3.243   9.800  11.865
51641W        W23934  43.279  30.507   4.816
51642W        W23935   5.757  39.846  12.408
51643W        W23936  17.655   5.420   1.845
51644W        W23937   6.714  28.549  13.849
51645W        W23938   9.282  31.592   1.886
51646W        W23939  31.922  14.098  12.339
51647W        W23940  35.596   6.823  13.035
51648W        W23941  44.890  36.969   5.673
51649W        W23942  16.144  17.095   3.851
51650W        W23943  25.171  37.034  12.409
51651W        W23944  10.189  19.211   0.825
51652W        W23945  20.182  20.259   3.321
51653W        W23946   6.195  15.084  11.444
51654W        W23947  34.112  19.149   2.249
51655W        W23948  39.482  21.081   1.836
51656W        W23949  28.457  24.716   5.626
51657W        W23950  32.998   8.403   4.174
51658W        W23951  20.036  31.626  13.455
51659W        W23952  22.615  20.107  11.494
51660W        W23953  34.586  40.396   3.257
51661W        W23954  25.122  13.129  14.931
51662W        W23955  41.409  21.693   3.803
51663W        W23956  27.452  10.185  11.936
51664W        W23957  37.901  20.606   2.274
51665W        W23958  37.530  20.632   4.336
51666W        W23959  35.373  31.453   0.739
51667W        W23960  32.044  41.313   0.291
51668W        W23961   7.413  18.117   4.721
51669W        W23962   4.705  25.494   1.312
51670W        W23963  23.206  44.483   1.324
51671W        W23964  30.089   1.821  11.969
51672W        W23965  35.853  20.044  10.965
51673W        W23966  21.239  39.542   0.371
51674W        W23967  12.228  33.894  12.002
51675W        W23968  29.451   3.930   3.346
51676W        W23969  18.176  41.517   0.430
51677W        W23970  12.194  22.717  14.427
51678W        W23971   0.778  40.379   0.731
51679W        W23972  36.366  39.920   1.896
51680W        W23973  24.542  31.923  10.102
51681W        W23974  16.184  13.616  14.929
51682W        W23975  33.934   3.882  14.411
51683W        W23976  17.163  44.371   1.780
51684W        W23977  24.131  19.042   4.149
51685W        W23978   5.721  40.394  13.949
51686W        W23979  19.064   1.835   0.422
51687W        W23980  26.081  17.661   4.616
51688W        W23981  40.352  31.559  12.944
51689W        W23982  26.586   2.836  10.980
51690W        W23983  44.950  41.924  11.949
51691W        W23984  18.163   0.364  11.054
51692W        W23985  37.538   1.735  14.333
51693W        W23986  38.447  33.068   0.443
51694W        W23987  21.513  25.642   4.611
51695W        W23988   0.859   3.432  10.126
51696W        W23989  31.047   3.446  13.059
51697W        W23990   4.436  37.033  14.328
51698W        W23991   8.677   3.935  12.966
51699W        W23992   1.959  40.530  12.014
51700W        W23993  32.933  19.055  10.630
51701W        W23994  23.229  10.738   0.897
51702W        W23995  10.715  26.006   0.460
51703W        W23996  23.625  43.850   1.217
51704W        W23997  19.259  15.701  10.579
51705W        W23998  41.497  17.212  13.962
51706W        W23999   5.371  31.437   0.319
51707W        W24000  39.028   1.741  10.132
51708W        W24001  16.643   1.303   3.209
51709W        W24002  32.948  41.797   1.817
51710W        W24003   9.326  34.424  13.374
51711W        W24004  17.633  26.014  11.963
51712W        W24005  12.149  26.670  13.481
51713W        W24006  40.980   7.749  11.913
51714W        W24007   0.301   8.317   2.230
51715W        W24008  23.237  39.333  14.807
51716W        W24009  15.117   9.645  10.592
51717W        W24010  22.055   5.775   4.727
51718W        W24011  34.411  32.124   0.323
51719W        W24012  41.523  17.271   3.230
51720W        W24013  42.390  14.802   2.230
51721W        W24014  24.669  27.446   0.954
51722W        W24015  39.479  37.838  10.605
51723W        W24016  36.542   7.312   1.286
51724W        W24017   1.290   2.809  10.924
51725W        W24018   8.225  10.305  14.285
51726W        W24019  19.600  26.959   0.437
51727W        W24020   2.944  13.184  13.399
51728W        W24021   0.743  30.518   0.727
51729W        W24022  35.046  21.153   3.707
51730W        W24023  43.469   3.272  12.357
51731W        W24024  43.819   2.441  11.118
51732W        W24025  15.811  17.771   1.393
51733W        W24026   7.281  24.111  13.393
51734W        W24027  22.580  17.584  14.828
51735W        W24028  35.884  16.643   4.141
51736W        W24029  43.904  40.390  14.288
51737W        W24030  40.024   8.324  11.110
51738W        W24031   7.692   3.759   4.274
51739W        W24032  10.841   4.707  12.501
51740W        W24033  10.833   1.800  13.512
51741W        W24034  17.757   9.660  11.488
51742W        W24035  12.251   0.370   2.270
51743W        W24036  22.620  12.701   4.661
51744W        W24037  41.429  40.379  13.991
51745W        W24038   1.920  26.965  14.401
51746W        W24039  34.399  39.554  14.021
51747W        W24040  17.265  20.592   0.324
51748W        W24041  35.477  30.942  10.437
51749W        W24042  31.582  18.153  12.960
51750W        W24043  11.740  20.184  13.860
51751W        W24044  27.194  12.819   2.676
51752W        W24045  30.142  23.599   5.642
51753W        W24046  38.457  44.842   3.283
51754W        W24047  18.104  40.436  11.932
51755W        W24048  28.081  14.786  13.393
51756W        W24049   5.391  44.864  11.108
51757W        W24050  44.820  15.237  14.968
51758W        W24051  17.689  24.645  14.867
51759W        W24052  32.512  44.264  10.599
51760W        W24053  30.455  34.463   3.226
51761W        W24054  20.723   1.429   3.815
51762W        W24055   8.870  13.731  13.331
51763W        W24056  36.501   2.850  10.414
51764W        W24057  18.272  34.005  11.872
51765W        W24058  26.604  33.976   2.765
51766W        W24059  20.605  11.235  11.509
51767W        W24060  35.962  28.153   0.762
51768W        W24061   6.391  18.269   4.722
51769W        W24062  22.237  31.578   3.329
51770W        W24063  38.072  41.390  10.450
51771W        W24064  12.292  31.551  10.973
51772W        W24065  15.170  24.065  13.411
51773W        W24066  13.640  26.684   2.341
51774W        W24067   6.336  43.368  12.049
51775W        W24068  18.753  38.382  13.057
51776W        W24069   6.403   8.228   1.289
51777W        W24070  35.027  14.697   2.775
51778W        W24071  16.795  32.481   1.725
51779W        W24072   5.217  25.600  10.492
51780W        W24073  14.217   0.409  13.349
51781W        W24074  23.538  14.661   4.777
51782W        W24075  38.066   9.683   2.353
51783W        W24076  40.466  32.012   5.291
51784W        W24077  18.570   5.349   4.826
51785W        W24078  26.481   5.765  13.532
51786W        W24079  29.485  28.527  11.896
51787W        W24080  30.129  38.006  14.421
51788W        W24081   0.476  24.045   4.771
51789W        W24082   0.895  24.105  11.000
51790W        W24083  38.330  38.386   0.930
51791W        W24084   9.879  32.474   0.966
51792W        W24085  31.565  18.171  11.934
51793W        W24086  36.066   3.239  12.856
51794W        W24087  40.512  30.069   1.344
51795W        W24088   1.263  33.385   2.289
51796W        W24089  31.551   9.758  10.949
51797W        W24090  34.101  19.695   1.705
51798W        W24091  16.219   7.811  12.019
51799W        W24092  33.043  12.638   4.293
51800W        W24093   3.759   4.324   1.745
51801W        W24094  35.552  38.449   1.708
51802W        W24095  26.162  39.437   2.321
51803W        W24096  36.881   3.428  13.532
51804W        W24097   1.910  27.475  13.887
51805W        W24098  41.980  42.521   4.605
51806W        W24099  44.339  38.961   4.119
51807W        W24100  39.336   7.412  10.509
51808W        W24101   9.304  40.380  10.536
51809W        W24102  17.557  41.803  13.947
51810W        W24103  35.045  42.930   5.194
51811W        W24104   9.321  36.399   5.729
51812W        W24105  39.943  17.592  12.425
51813W        W24106  28.011   7.774  13.890
51814W        W24107  23.554  14.816  12.497
51815W        W24108  29.502  17.734  11.045
51816W        W24109   8.369   6.288  11.585
51817W        W24110   2.726  16.258  12.027
51818W        W24111  19.115  18.549  11.468
51819W        W24112   6.321  35.008   0.920
51820W        W24113   1.927  37.395   2.299
51821W        W24114  15.308  10.311  14.315
51822W        W24115   7.246   0.869   3.168
51823W        W24116   7.173  26.684  13.527
51824W        W24117  36.909   6.188  10.889
51825W        W24118   8.287  17.787   1.799
51826W        W24119  19.559   3.854  10.549
51827W        W24120   8.313  32.028   0.272
51828W        W24121  29.465   3.798   2.863
51829W        W24122  14.719  28.086   3.716
51830W        W24123  42.856  24.119   2.767
51831W        W24124  13.703   1.877  14.466
51832W        W24125  42.911   5.384  12.483
51833W        W24126  13.796  34.927   1.829
51834W        W24127  22.078  30.513  11.380
51835W        W24128   3.443   4.821   4.144
51836W        W24129  43.825  37.527   2.860
51837W        W24130   4.925  21.189   3.368
51838W        W24131  32.450  22.532   1.878
51839W        W24132  36.001  35.471   0.464
51840W        W24133   8.876  35.432   1.353
51841W        W24134  17.573   0.382   3.347
51842W        W24135  40.353  25.545   0.794
51843W        W24136  27.661  33.407   0.255
51844W        W24137  29.019  30.433  13.885
51845W        W24138  19.546  32.102  13.904
51846W        W24139  40.506  40.395  12.432
51847W        W24140  36.996  13.154  11.054
51848W        W24141   8.724  35.508  14.459
51849W        W24142   6.424  23.117   0.810
51850W        W24143  39.374   7.843  14.888
51851W        W24144   6.883  41.522  12.539
51852W        W24145  27.537  19.044   4.677
51853W        W24146  24.570  27.067  11.922
51854W        W24147  31.016   1.877   1.259
51855W        W24148  30.001  18.221  12.088
51856W        W24149  11.709  41.002   3.831
51857W        W24150  38.551  39.025   2.265
51858W        W24151  17.580  23.635  14.953
51859W        W24152  13.231  32.998  14.419
51860W        W24153  37.540  29.001   2.349
51861W        W24154  40.340  28.619  12.056
51862W        W24155  23.720  34.597  11.579
51863W        W24156  11.243   1.877  13.389
51864W        W24157  13.714  42.845  10.453
51865W        W24158  20.151   3.424  10.015
51866W        W24159  27.064  26.108   2.267
51867W        W24160   3.417  35.027  11.107
51868W        W24161  40.443   1.887  13.867
51869W        W24162  10.162   8.307  10.549
51870W        W24163  41.311  34.053   1.312
51871W        W24164  42.879   9.661  12.531
51872W        W24165  10.185   0.775  13.418
51873W        W24166  26.107  38.028   1.748
51874W        W24167  36.962  12.343  13.496
51875W        W24168  12.274   0.263   1.412
51876W        W24169  39.868  17.728   2.846
51877W        W24170  10.384  27.057   1.297
51878W        W24171  40.514  29.600  10.900
51879W        W24172  12.688  12.647  11.466
51880W        W24173  36.449  27.108   2.277
51881W        W24174  23.091   4.790   4.648
51882W        W24175   9.233  18.659  13.401
51883W        W24176  42.391  40.419  12.482
51884W        W24177  12.711  17.084  11.997
51885W        W24178  33.439  16.203   0.824
51886W        W24179   6.895  30.046  14.389
51887W        W24180  13.672  19.043   1.877
51888W        W24181  29.059  28.007   3.220
51889W        W24182  42.803  14.325  11.093
51890W        W24183  14.229   5.262   5.781
51891W        W24184  14.308  19.177  10.470
51892W        W24185  20.569  23.671  13.380
51893W        W24186   0.385   4.420  11.572
51894W        W24187  40.343  26.465   2.407
51895W        W24188  22.658  40.502   4.605
51896W        W24189   3.303  10.181   3.352
51897W        W24190  13.812  37.896  13.007
51898W        W24191  14.831  33.883  13.362
51899W        W24192  11.817  39.904   3.158
51900W        W24193  28.640  37.557   3.701
51901W        W24194  29.039  39.003   4.350
51902W        W24195  33.483  31.485   0.398
51903W        W24196  21.117  10.176  12.535
51904W        W24197   0.961  22.012   2.234
51905W        W24198  43.285  25.509  14.320
51906W        W24199  29.593  28.602  13.794
51907W        W24200  35.938  21.567  11.972
51908W        W24201  40.896  11.778  11.004
51909W        W24202  10.290  35.437   1.745
51910W        W24203   4.220  36.485   3.355
51911W        W24204   8.324  15.093  11.473
51912W        W24205   9.292   2.834  11.970
51913W        W24206  29.646  11.209   1.806
51914W        W24207  40.455  10.156   2.725
51915W        W24208  44.756   3.838   3.292
51916W        W24209   7.359  18.746   3.739
51917W        W24210  43.784   0.480  14.454
51918W        W24211  35.974  21.660  13.033
51919W        W24212  16.202  13.621   4.644
51920W        W24213  44.287   5.378   3.815
51921W        W24214  20.681   0.912  12.855
51922W        W24215  31.487  27.970   0.254
51923W        W24216   0.343  20.542  13.934
51924W        W24217  43.516  19.616   3.754
51925W        W24218   0.401   7.171  14.796
51926W        W24219  29.146  16.301   0.797
51927W        W24220  27.089  14.243  11.933
51928W        W24221  32.991  12.353   4.249
51929W        W24222  18.607  40.410   3.209
51930W        W24223  18.594  41.359   4.138
51931W        W24224  35.540  30.618  13.498
51932W        W24225  19.273   1.366   0.818
51933W        W24226  23.064   3.265   3.305
51934W        W24227  16.572  37.406   1.295
51935W        W24228  17.588  38.899  11.884
51936W        W24229  13.334  38.421  12.386
51937W        W24230  36.955  21.691  14.925
51938W        W24231  28.452  20.223  10.408
51939W        W24232   2.391  28.561  14.440
51940W        W24233   3.778  34.599  12.925
51941W        W24234  12.135  42.417  13.395
51942W        W24235  43.802   2.946   4.726
51943W        W24236  34.531   5.720  11.959
51944W        W24237   6.809  37.034   4.696
51945W        W24238   1.786  37.528  14.428
51946W        W24239  37.073  41.802   1.266
51947W        W24240  16.105  13.846   2.788
51948W        W24241   9.199   4.912   2.267
51949W        W24242   1.762  34.427  12.895
51950W        W24243  12.735   9.871  10.930
51951W        W24244  14.830  13.698   0.848
51952W        W24245   9.857  42.951   1.744
51953W        W24246   6.391  33.417   2.312
51954W        W24247  23.152  37.078   1.356
51955W        W24248  14.332  21.215   3.168
51956W        W24249  34.560   3.412  10.490
51957W        W24250  35.503  23.627  12.883
51958W        W24251  38.430   0.288   2.322
51959W        W24252  16.183  39.558   4.175
51960W        W24253  36.003   2.821   4.800
51961W        W24254  38.840  39.974   5.317
51962W        W24255   4.881  43.954   3.644
51963W        W24256   2.915  19.111  13.871
51964W        W24257  37.527  20.146  11.559
51965W        W24258  36.386  27.637  12.406
51966W        W24259  29.427  24.202  10.958
51967W        W24260   8.782  19.574   2.733
51968W        W24261  34.484  12.188  11.374
51969W        W24262  24.558  13.189   3.851
51970W        W24263  42.495  34.050   0.345
51971W        W24264  29.648   8.864  13.050
51972W        W24265  19.267  15.284   2.826
51973W        W24266  28.079   2.251  11.410
51974W        W24267  23.046   3.403   4.202
51975W        W24268  19.269  41.043  13.486
51976W        W24269  25.610  36.558   1.699
51977W        W24270  38.941  18.235  12.913
51978W        W24271  30.152   1.743  12.390
51979W        W24272  18.167  21.036  11.018
51980W        W24273  31.134  34.074   3.774
51981W        W24274  34.449  14.591   2.888
51982W        W24275  22.578  42.362   1.250
51983W        W24276  29.562  18.241   0.750
51984W        W24277  23.607   5.851  10.634
51985W        W24278  31.594  17.100   3.766
51986W        W24279   1.427  11.829  14.319
51987W        W24280  26.666  33.953  14.891
51988W        W24281  25.516  18.634  10.427
51989W        W24282   7.398  22.530   3.789
51990W        W24283   4.873  36.564   0.927
51991W        W24284   0.348   2.874  13.430
51992W        W24285   5.773  22.720   4.213
51993W        W24286  35.548  10.139  13.366
51994W        W24287  15.299  15.643  11.065
51995W        W24288  26.530  32.900  10.969
51996W        W24289  38.368  13.601   1.227
51997W        W24290  32.116  39.455  12.522
51998W        W24291  20.691  22.111   2.219
51999W        W24292  22.700  42.910   0.952
52000W        W24293  33.090  14.143   3.699
52001W        W24294  35.394  12.720   0.293
52002W        W24295  21.182  41.972   4.691
52003W        W24296  40.820  16.782  13.431
52004W        W24297  22.533   4.783  13.961
52005W        W24298  42.806  34.045  14.335
52006W        W24299  21.186  41.895   3.301
52007W        W24300  10.739  21.026  11.595
52008W        W24301  37.522  28.071   0.337
52009W        W24302  13.782  18.626   3.749
52010W        W24303  41.846  18.264  12.939
52011W        W24304  21.223  18.557   2.208
52012W        W24305  44.925  43.385  11.050
52013W        W24306  37.873  32.061   3.799
52014W        W24307  12.321   9.170  13.535
52015W        W24308  19.119  43.915   0.483
52016W        W24309  24.196  15.323   2.373
52017W        W24310  11.786  11.777  14.490
52018W        W24311  23.540   7.715  13.053
52019W        W24312   0.292  16.773  13.021
52020W        W24313  10.174   7.378  11.925
52021W        W24314  26.694  17.087   3.306
52022W        W24315  34.024  42.802   1.708
52023W        W24316  43.299  17.789  13.308
52024W        W24317  36.856  21.515   4.279
52025W        W24318  23.710   2.885  11.904
52026W        W24319   2.299  40.358  10.899
52027W        W24320   1.868  11.720   3.255
52028W        W24321  33.584  12.187   1.318
52029W        W24322  22.659  14.259  13.470
52030W        W24323  41.972  27.666   4.801
52031W        W24324  16.281  29.126  11.944
52032W        W24325   8.264   0.332  14.911
52033W        W24326   1.427  35.555   4.325
52034W        W24327  31.966  32.636   4.173
52035W        W24328  21.213  33.566  14.945
52036W        W24329  10.746  20.195   4.194
52037W        W24330  33.618  14.598  11.406
52038W        W24331  42.432   9.383   4.788
52039W        W24332  24.069  24.205   4.776
52040W        W24333  40.531  40.520  10.948
52041W        W24334  33.087  11.706  11.419
52042W        W24335  11.852  10.780  11.879
52043W        W24336  39.020   1.358   0.421
52044W        W24337  38.443  40.036  12.864
52045W        W24338  15.105  27.055   2.217
52046W        W24339  15.685  40.843   3.676
52047W        W24340  39.459  28.496  12.510
52048W        W24341  43.440   8.885  11.008
52049W        W24342  32.012   1.343  11.036
52050W        W24343  20.037  19.187   0.474
52051W        W24344  13.827   3.230  12.030
52052W        W24345   7.687  14.317   4.175
52053W        W24346  24.067  14.275  12.836
52054W        W24347  14.812  42.938   2.396
52055W        W24348  31.416  12.701  13.955
52056W        W24349  41.817  28.597   3.788
52057W        W24350  33.578  42.402  14.951
52058W        W24351  29.129  43.871   3.686
52059W        W24352   7.703   7.197  11.124
52060W        W24353  38.560  43.285  12.971
52061W        W24354  10.156  34.997   2.687
52062W        W24355  13.845  39.316   2.265
52063W        W24356   3.866  10.796  14.499
52064W        W24357  32.137  44.889   1.255
52065W        W24358  11.763   1.792  12.423
52066W        W24359  28.071  32.125   5.206
52067W        W24360  23.090  31.142   3.343
52068W        W24361  39.019  21.238  12.579
52069W        W24362  41.361  32.026  10.586
52070W        W24363  13.152  34.515  11.412
52071W        W24364  12.699   4.889  14.491
52072W        W24365  12.620  32.452  13.961
52073W        W24366  27.083   4.375   4.344
52074W        W24367  35.543  44.459   0.406
52075W        W24368  39.030  15.168   4.277
52076W        W24369  19.245  10.636   2.252
52077W        W24370  16.115  32.971  11.995
52078W        W24371   1.900  34.546  11.004
52079W        W24372  23.653  21.758  12.907
52080W        W24373  43.421  19.252   2.733
52081W        W24374  11.156   2.411   1.730
52082W        W24375  23.529  14.231  13.882
52083W        W24376  44.491  32.983   4.316
52084W        W24377  21.094  37.993   3.662
52085W        W24378  24.578  10.753  11.022
52086W        W24379  31.125  11.849   2.194
52087W        W24380  23.655  13.820  13.958
52088W        W24381   4.934  42.785  14.472
52089W        W24382  22.180  14.631   4.172
52090W        W24383  25.150  33.889  13.325
52091W        W24384   5.217  41.425  13.041
52092W        W24385  24.146  29.065  10.439
52093W        W24386  41.023  14.287   2.852
52094W        W24387  24.624  19.620   2.804
52095W        W24388   6.830  42.320  10.412
52096W        W24389  13.119  40.482   3.279
52097W        W24390  16.100  20.193   4.193
52098W        W24391  40.906  23.208   3.343
52099W        W24392   2.864  23.140   0.881
52100W        W24393   0.958  37.046  14.443
52101W        W24394   9.735  12.237   3.648
52102W        W24395  40.845  36.942   2.818
52103W        W24396  12.220  30.121   1.880
52104W        W24397  35.371  29.018   1.910
52105W        W24398  27.613  37.903  11.995
52106W        W24399   2.952  15.109   1.729
52107W        W24400  44.396   0.905  14.338
52108W        W24401  31.934  35.392  12.561
52109W        W24402  44.313  31.122  14.496
52110W        W24403  23.228  13.791   1.749
52111W        W24404  41.044  38.900   4.661
52112W        W24405   3.722  28.968  12.431
52113W        W24406   8.334  16.654   3.661
52114W        W24407   4.807  22.136  11.460
52115W        W24408  28.546  20.566  12.508
52116W        W24409  32.981  16.648  12.444
52117W        W24410   3.362  29.957  11.544
52118W        W24411  39.352  27.451   2.223
52119W        W24412  20.734  12.235  11.897
52120W        W24413  16.741  11.843  12.410
52121W        W24414  30.080  26.055  10.897
52122W        W24415   3.844  28.661   2.876
52123W        W24416  36.068  37.867   0.748
52124W        W24417  32.582  18.702  14.007
52125W        W24418  40.947  36.438  12.475
52126W        W24419  31.109  25.213   0.270
52127W        W24420  30.072   4.799   3.181
52128W        W24421   3.311  13.148  11.555
52129W        W24422  23.173  44.770   2.802
52130W        W24423  28.469   1.400  11.042
52131W        W24424  29.106  33.491   1.789
52132W        W24425   6.382  29.952  14.955
52133W        W24426  21.205  31.051   5.150
52134W        W24427  25.686  18.697   4.816
52135W        W24428  19.168  10.858   2.665
52136W        W24429   1.462   1.973   4.342
52137W        W24430  34.479  32.901  13.991
52138W        W24431  10.666  39.911  12.568
52139W        W24432  19.229  37.834   3.313
52140W        W24433   7.764  13.601  13.952
52141W        W24434   8.367  33.055   0.943
52142W        W24435  12.161  16.779   0.307
52143W        W24436   1.825  10.793   2.801
52144W        W24437  43.868  43.011   2.819
52145W        W24438   6.203  28.994   3.814
52146W        W24439  33.492  27.573  14.347
52147W        W24440  32.563  29.968  11.869
52148W        W24441  18.166  19.160   3.778
52149W        W24442  39.928  31.033   4.597
52150W        W24443  14.190  10.738   4.773
52151W        W24444   6.355  11.794  10.891
52152W        W24445   8.708   7.689   4.310
52153W        W24446   3.233   9.371  13.405
52154W        W24447  11.272  17.170  12.911
52155W        W24448   2.260  28.938  10.485
52156W        W24449   8.388  30.430   4.720
52157W        W24450   6.405  18.682  14.384
52158W        W24451   0.413  39.399   0.293
52159W        W24452  12.270  22.122   3.193
52160W        W24453  31.573  17.227  11.450
52161W        W24454  44.008  12.142   2.786
52162W        W24455  29.964  19.588  13.924
52163W        W24456  44.276  14.748   0.864
52164W        W24457   7.775   9.322   1.364
52165W        W24458   8.389  11.323  12.998
52166W        W24459  35.903  11.154  13.042
52167W        W24460   7.772  34.558  14.972
52168W        W24461  26.176  32.944  11.481
52169W        W24462  30.429   8.327  10.480
52170W        W24463   3.461  12.720  13.843
52171W        W24464  22.515  32.397   3.338
52172W        W24465  37.526  43.987   2.736
52173W        W24466   9.367  17.657  11.572
52174W        W24467  15.767  35.529  13.429
52175W        W24468   9.882  20.559  14.822
52176W        W24469   2.302  12.763   2.680
52177W        W24470   9.218  19.582  12.362
52178W        W24471  21.541  43.443   3.366
52179W        W24472  25.644  35.401  14.282
52180W        W24473  23.634  19.710  11.488
52181W        W24474  16.085  34.570   2.203
52182W        W24475  34.907  20.255  13.880
52183W        W24476  30.045   6.768  10.939
52184W        W24477  16.677  41.910  11.460
52185W        W24478  32.605  12.817  11.885
52186W        W24479  34.096  29.061   2.298
52187W        W24480  25.065  23.063   3.299
52188W        W24481  16.638  37.001   1.779
52189W        W24482  13.711  34.512   3.222
52190W        W24483  35.585  28.182  14.464
52191W        W24484  15.207  30.006  12.354
52192W        W24485  43.452  44.880   9.651
52193W        W24486  34.938  10.866  14.355
52194W        W24487  37.512  21.631   3.311
52195W        W24488  44.754  21.728   2.839
52196W        W24489  10.340  35.103  13.055
52197W        W24490  20.188  18.267   1.770
52198W        W24491  13.322  40.397  11.102
52199W        W24492   3.912  15.775   1.894
52200W        W24493  42.419  24.047  12.578
52201W        W24494  42.789  36.557  12.487
52202W        W24495  22.028  14.211   4.203
52203W        W24496  40.892  16.802   0.788
52204W        W24497  41.416  22.201   3.702
52205W        W24498  40.545  27.965   2.386
52206W        W24499  36.871   8.809  11.471
52207W        W24500  37.885  32.020  11.021
52208W        W24501   5.910   7.252  11.922
52209W        W24502  11.818  36.454  12.896
52210W        W24503  43.353   0.824   0.452
52211W        W24504  12.330  34.965   3.735
52212W        W24505  33.553  42.791   3.835
52213W        W24506   4.368  15.241   4.226
52214W        W24507  31.906   8.318   5.170
52215W        W24508  42.906   4.902   0.760
52216W        W24509  12.724  38.561  10.516
52217W        W24510   0.866  18.716  11.042
52218W        W24511  40.812  10.192  10.009
52219W        W24512   0.870   5.236  12.082
52220W        W24513   9.777  41.535   3.821
52221W        W24514  24.689  16.590  12.405
52222W        W24515  28.443  44.420  10.977
52223W        W24516  28.959  38.890  13.512
52224W        W24517   3.953  25.675  13.481
52225W        W24518  27.678  42.834   3.801
52226W        W24519   9.272  24.668  13.364
52227W        W24520  24.628  28.081   4.244
52228W        W24521  43.943  27.066   4.760
52229W        W24522   8.827  34.034  14.807
52230W        W24523  12.201  34.018   4.257
52231W        W24524  22.009  41.826  12.029
52232W        W24525  17.734  15.751   4.707
52233W        W24526  28.670  27.946  10.557
52234W        W24527  25.065  19.544   1.300
52235W        W24528  16.604  11.653   0.831
52236W        W24529  37.577  37.351   4.669
52237W        W24530  20.069  18.054  12.844
52238W        W24531  35.104   7.793   2.227
52239W        W24532  44.936   5.893  14.335
52240W        W24533   7.883  30.463  14.494
52241W        W24534  19.757   0.826  11.445
52242W        W24535  21.023  19.184  10.456
52243W        W24536  33.112   2.746  11.026
52244W        W24537  27.167  38.442  10.502
52245W        W24538   1.430  37.949  13.320
52246W        W24539  15.283  44.258   2.223
52247W        W24540  21.182  22.730   0.263
52248W        W24541  15.257  20.171   0.456
52249W        W24542  16.659  18.126  12.893
52250W        W24543  10.151   4.874  12.432
52251W        W24544   4.865  33.503   3.672
52252W        W24545  34.402   5.728   3.175
52253W        W24546   6.835  38.422  11.952
52254W        W24547  11.338  38.498  11.992
52255W        W24548  22.585  13.800   0.903
52256W        W24549  39.371  32.141  12.051
52257W        W24550  27.043  44.297   4.723
52258W        W24551  42.487  16.132   4.325
52259W        W24552  44.438  19.725  14.966
52260W        W24553  17.776  29.515   1.894
52261W        W24554   1.858  26.687   4.262
52262W        W24555  40.041  15.806  10.513
52263W        W24556  14.155  24.586  14.513
52264W        W24557  40.548  23.519   2.773
52265W        W24558  16.689  14.665   2.807
52266W        W24559   6.239   8.233  10.945
52267W        W24560  43.356  40.340  12.956
52268W        W24561  42.779  41.384   1.310
52269W        W24562   6.808  14.289  11.079
52270W        W24563  24.523  33.420   0.470
52271W        W24564  23.986  36.533  14.425
52272W        W24565  33.905  40.805   1.820
52273W        W24566  35.973  32.111   3.244
52274W        W24567  38.960  35.460   2.264
52275W        W24568  18.759  14.195  12.044
52276W        W24569   8.371  27.173  11.876
52277W        W24570   0.979  10.878  10.494
52278W        W24571  42.465  16.659  14.827
52279W        W24572   0.481   6.284   1.794
52280W        W24573  28.090  24.173  12.949
52281W        W24574  28.006   8.715   4.751
52282W        W24575  39.468  32.480   1.838
52283W        W24576  26.030  39.491  14.342
52284W        W24577   2.255   2.857  11.003
52285W        W24578  33.428  41.400   0.353
52286W        W24579  14.116  16.766   4.687
52287W        W24580  11.320  44.410  13.834
52288W        W24581  16.576  35.480   0.827
52289W        W24582  39.024  33.058  12.038
52290W        W24583  23.995  20.126  13.984
52291W        W24584  40.404   9.878   3.703
52292W        W24585  34.455   9.669  12.578
52293W        W24586   3.901   6.421  12.037
52294W        W24587   3.787  39.863  11.505
52295W        W24588   3.326  19.087  12.521
52296W        W24589  29.648  16.601  14.995
52297W        W24590  19.687  22.555  11.107
52298W        W24591  17.698   5.921  10.556
52299W        W24592   4.267   5.257   1.931
52300W        W24593   5.710  36.422  14.028
52301W        W24594  41.795  41.344   4.739
52302W        W24595  11.213  16.640   2.840
52303W        W24596   4.823  39.404  12.555
52304W        W24597  19.555  35.555  14.860
52305W        W24598   9.870  12.727  14.787
52306W        W24599   5.924  39.003   2.337
52307W        W24600  12.826  35.073   0.734
52308W        W24601  44.897  14.165  12.901
52309W        W24602  13.294  35.866   3.771
52310W        W24603  22.033  16.617   0.465
52311W        W24604  36.378  33.430  12.029
52312W        W24605  22.253  19.746   2.180
52313W        W24606   2.382  34.560   4.822
52314W        W24607  13.191  38.440   1.351
52315W        W24608  18.778   3.759   1.258
52316W        W24609  44.861  30.509   0.747
52317W        W24610  24.157  23.614   3.245
52318W        W24611   6.240  29.054  10.419
52319W        W24612  15.705   8.898   4.151
52320W        W24613  36.369  11.841   2.866
52321W        W24614   3.245  13.327   0.886
52322W        W24615  12.700  10.270  12.426
52323W        W24616  17.278   7.300  11.936
52324W        W24617  35.481  40.515   3.307
52325W        W24618  41.450  42.438   3.220
52326W        W24619  14.278  16.311   3.338
52327W        W24620  20.219  16.767  10.621
52328W        W24621   7.742  17.701   1.324
52329W        W24622  13.656   2.800   1.753
52330W        W24623  37.051   7.208   0.316
52331W        W24624  39.815   5.885  11.537
52332W        W24625  44.390  15.715   0.365
52333W        W24626  25.541  19.660  11.536
52334W        W24627   7.260   6.794   3.823
52335W        W24628  33.007  43.777   2.718
52336W        W24629  23.194  11.145   2.851
52337W        W24630  17.072  25.201  12.550
52338W        W24631  31.924  27.001   0.391
52339W        W24632   0.795  28.947   0.899
52340W        W24633  40.434  10.331   3.170
52341W        W24634  41.831  28.977  10.606
52342W        W24635  30.518  42.364   4.195
52343W        W24636  19.253  16.796  11.448
52344W        W24637  14.715   4.246   5.249
52345W        W24638  41.398  34.953   2.760
52346W        W24639  11.366  31.544   0.911
52347W        W24640   4.781  20.737   1.299
52348W        W24641   7.209   1.940  11.946
52349W        W24642  25.180  12.186   3.265
52350W        W24643  17.288  12.706   4.267
52351W        W24644  11.157  11.290   2.259
52352W        W24645  40.950  32.489  13.020
52353W        W24646  18.560  15.786  14.302
52354W        W24647  44.366  28.008  12.081
52355W        W24648  37.468   4.858   4.321
52356W        W24649   8.353  43.923   0.896
52357W        W24650  42.285  42.297   2.209
52358W        W24651  21.701  44.778   3.289
52359W        W24652   3.290  30.964   4.749
52360W        W24653  13.284  43.467  11.103
52361W        W24654  17.281  40.992   2.388
52362W        W24655  16.318  25.973   2.260
52363W        W24656   8.223   7.794   0.465
52364W        W24657  25.537  32.561   2.316
52365W        W24658   5.197  38.820  12.006
52366W        W24659  35.045  20.068  10.643
52367W        W24660  15.599  19.727   1.270
52368W        W24661  24.701  14.623   0.928
52369W        W24662  41.439  14.120   1.247
52370W        W24663  20.535  38.052  14.483
52371W        W24664   0.758  37.487  14.031
52372W        W24665   3.232   8.665   0.756
52373W        W24666  32.497  31.642  13.871
52374W        W24667  36.396  42.838  11.862
52375W        W24668   0.988  27.677  13.023
52376W        W24669  19.540  12.307  14.764
52377W        W24670  37.857  16.076  14.409
52378W        W24671   7.392   3.413   2.274
52379W        W24672   0.308  17.722   1.234
52380W        W24673  23.665   1.797   4.353
52381W        W24674  43.965  23.151   0.467
52382W        W24675  44.818   3.334  10.475
52383W        W24676  32.075  34.949  14.943
52384W        W24677   4.377  37.359  11.104
52385W        W24678  44.360  28.150   2.849
52386W        W24679   7.180  23.114   2.281
52387W        W24680  19.646  30.466  14.982
52388W        W24681  23.098  41.866   2.256
52389W        W24682  44.486  34.469  13.940
52390W        W24683  33.387   1.453   0.928
52391W        W24684  13.660  13.235   2.283
52392W        W24685  41.525  42.359  12.839
52393W        W24686   6.395  22.551   1.309
52394W        W24687  35.038   0.314  11.934
52395W        W24688   2.912  43.856  11.930
52396W        W24689  39.862  22.731  13.307
52397W        W24690  40.437  43.016  10.479
52398W        W24691  29.921  34.371  11.996
52399W        W24692  28.020  17.256   0.483
52400W        W24693  38.465  11.335  11.101
52401W        W24694  36.375  28.999  14.341
52402W        W24695  40.381  30.159   4.797
52403W        W24696  37.964  40.824  14.944
52404W        W24697  41.994   8.713   1.841
52405W        W24698  31.487  38.409  14.418
52406W        W24699   1.243  38.965  11.868
52407W        W24700  20.587  19.548   0.827
52408W        W24701   6.794  19.252  11.030
52409W        W24702  41.839   2.463   1.415
52410W        W24703  43.815  44.400   1.347
52411W        W24704   8.673  37.545  12.393
52412W        W24705  36.966  33.574   0.451
52413W        W24706  37.087   9.386   1.442
52414W        W24707  27.059  29.091  11.993
52415W        W24708   3.310  13.626   3.203
52416W        W24709   2.428  32.426  11.047
52417W        W24710  25.564  41.848   1.228
52418W        W24711  42.307  35.965  13.517
52419W        W24712  16.752  22.637  10.892
52420W        W24713  27.964  41.943  14.390
52421W        W24714  31.095  21.252   1.448
52422W        W24715  27.096   1.379   0.855
52423W        W24716  39.905  18.789  12.852
52424W        W24717  19.719  12.634   3.372
52425W        W24718  11.657  25.173  14.362
52426W        W24719  12.697  15.269  11.887
52427W        W24720  29.492   9.737   0.792
52428W        W24721  42.022   2.873   0.941
52429W        W24722   0.391  31.002  11.608
52430W        W24723  11.158  26.006  12.011
52431W        W24724  13.107   0.815  14.808
52432W        W24725  35.937  31.126  12.374
52433W        W24726  34.610   1.951   0.247
52434W        W24727  36.558   0.316  10.462
52435W        W24728  43.506  39.455   3.702
52436W        W24729  41.360  19.278   4.243
52437W        W24730  32.395  26.641  12.509
52438W        W24731  28.637  22.074  14.865
52439W        W24732   9.792   4.940  11.980
52440W        W24733  44.793  18.076   2.402
52441W        W24734  11.772   0.331  12.993
52442W        W24735  35.454  19.673   3.649
52443W        W24736  10.809  20.540  13.963
52444W        W24737   5.331  13.706   1.776
52445W        W24738  31.563  44.918   1.857
52446W        W24739  21.635  11.176  11.910
52447W        W24740  21.195   5.728   3.231
52448W        W24741  18.251  30.077   2.342
52449W        W24742  24.083  41.407   4.199
52450W        W24743  43.018  36.090  11.900
52451W        W24744   5.228  32.972   1.305
52452W        W24745  36.019  44.907   2.874
52453W        W24746  25.704  13.648   4.228
52454W        W24747  13.163  32.955   0.399
52455W        W24748   9.288  33.566   1.241
52456W        W24749  43.765  42.292   2.353
52457W        W24750  36.467  37.892   0.289
52458W        W24751  40.432  35.518   4.234
52459W        W24752  30.486  24.004   2.261
52460W        W24753  37.452  27.953  10.483
52461W        W24754  15.739  20.187   0.420
52462W        W24755  33.998  26.630   4.737
52463W        W24756  18.670   2.249  10.917
52464W        W24757  25.149  22.622   2.890
52465W        W24758  35.392  34.437   0.453
52466W        W24759  38.845  33.580  14.015
52467W        W24760   3.920   0.254   4.771
52468W        W24761  27.543  12.362   1.886
52469W        W24762  10.776  28.065  12.379
52470W        W24763   5.898  16.218   0.788
52471W        W24764  21.537  13.777  11.607
52472W        W24765  20.611  28.643  14.985
52473W        W24766  35.512   4.358   2.323
52474W        W24767  24.022  11.686   3.269
52475W        W24768  25.497  36.973  10.634
52476W        W24769  27.090  43.424  13.979
52477W        W24770   0.347  16.187   4.703
52478W        W24771  42.383  36.408  10.419
52479W        W24772  38.522  43.513  12.546
52480W        W24773  20.538  36.001  10.579
52481W        W24774  24.624  28.053  11.048
52482W        W24775  44.902  28.105   0.766
52483W        W24776  20.677  44.340   4.305
52484W        W24777  28.567  39.465  11.541
52485W        W24778  36.945  26.471   2.672
52486W        W24779  37.485   3.313   3.164
52487W        W24780  26.621  17.206  12.987
52488W        W24781  35.054  16.205   1.797
52489W        W24782  28.599   9.768   4.182
52490W        W24783  25.111  21.084   2.407
52491W        W24784  32.090   2.735  11.414
52492W        W24785   9.743  11.738  11.042
52493W        W24786  38.954  10.380  11.005
52494W        W24787  25.604  44.464  12.987
52495W        W24788   6.676  32.102  12.459
52496W        W24789   5.732   3.951  10.985
52497W        W24790  32.611  42.949   2.343
52498W        W24791  16.801  17.178  13.531
52499W        W24792   2.375  18.666  13.845
52500W        W24793  13.648   5.218   2.802
52501W        W24794   5.220   8.235   4.764
52502W        W24795  14.114   7.785  12.835
52503W        W24796  33.557   9.769   3.724
52504W        W24797  27.583  30.109   1.837
52505W        W24798  43.515   8.321   0.255
52506W        W24799  36.067  11.273   3.714
52507W        W24800   6.917  18.196   4.311
52508W        W24801   0.863  18.611   4.338
52509W        W24802  39.546  43.349   1.777
52510W        W24803  39.815   5.836  13.493
52511W        W24804  23.129   6.716  14.855
52512W        W24805   1.910  35.373   3.729
52513W        W24806  38.495  12.638  14.299
52514W        W24807  17.110  34.499  12.555
52515W        W24808   7.353   9.772  14.790
52516W        W24809  28.508  28.938  11.558
52517W        W24810  42.994   7.752  12.852
52518W        W24811  30.106  14.171  12.374
52519W        W24812  37.042  41.884   3.225
52520W        W24813  42.396  18.100   1.925
52521W        W24814  20.678  33.994   4.637
52522W        W24815  43.022  10.202   5.303
52523W        W24816  10.813   7.713  14.766
52524W        W24817  22.576   8.219  12.080
52525W        W24818   2.911   9.316  14.278
52526W        W24819   5.863  42.797  10.958
52527W        W24820  22.583  17.103   0.476
52528W        W24821  13.665  42.407  14.013
52529W        W24822  25.657   6.731  12.919
52530W        W24823  32.458  24.529  10.507
52531W        W24824  25.165  15.292   1.930
52532W        W24825  27.126   0.764  10.062
52533W        W24826  16.637  32.523  11.428
52534W        W24827  31.521  17.145   1.283
52535W        W24828  25.081   7.285  12.010
52536W        W24829  41.962  14.100   1.302
52537W        W24830  18.558  17.663  10.530
52538W        W24831  27.665   5.215   1.281
52539W        W24832  39.839  32.606   0.329
52540W        W24833  20.172  28.642  10.973
52541W        W24834   4.813   4.819  10.158
52542W        W24835  40.870   2.340  14.760
52543W        W24836  39.010   5.345   4.239
52544W        W24837  21.236  24.575   4.317
52545W        W24838  43.914  17.219   5.319
52546W        W24839   5.837  13.721   4.744
52547W        W24840  40.862  33.452   0.254
52548W        W24841   6.881  40.511   3.336
52549W        W24842  34.522  42.814  13.889
52550W        W24843  13.277  43.996  12.862
52551W        W24844  28.617  32.456  11.067
52552W        W24845  20.230  18.566   1.402
52553W        W24846  23.672  27.077   4.617
52554W        W24847  17.077  19.280   3.198
52555W        W24848  26.634  24.108   3.264
52556W        W24849  43.432  40.935  14.840
52557W        W24850  16.726  23.120   1.217
52558W        W24851  19.579  33.046  14.865
52559W        W24852   4.406  39.462   1.835
52560W        W24853   7.243  22.238   4.343
52561W        W24854  40.890  37.865  13.467
52562W        W24855   5.414  24.109  13.514
52563W        W24856  27.555   3.348  10.590
52564W        W24857  43.767  22.615  10.984
52565W        W24858   1.444  15.247   3.267
52566W        W24859  27.594   0.977  11.062
52567W        W24860  31.959  35.944  10.020
52568W        W24861  22.742  34.987  11.914
52569W        W24862  40.531   9.707   4.190
52570W        W24863  24.102  41.534  12.828
52571W        W24864   1.359   7.805  11.611
52572W        W24865  16.270  44.322   2.401
52573W        W24866   1.408  31.990  10.563
52574W        W24867  35.944   7.764  10.520
52575W        W24868  39.368  16.590   0.778
52576W        W24869   5.428   2.954  10.416
52577W        W24870  37.561  17.801   0.764
52578W        W24871   5.350  44.823  14.373
52579W        W24872  18.637  10.378   2.818
52580W        W24873  28.458  19.260   3.332
52581W        W24874  13.655  28.631  13.425
52582W        W24875  22.568   6.241  13.894
52583W        W24876  10.168  43.443  12.476
52584W        W24877   2.828   9.167   0.811
52585W        W24878  31.023  10.806  10.971
52586W        W24879  16.754  21.560   3.724
52587W        W24880  22.694  20.549  10.928
52588W        W24881  31.585  44.344  12.028
52589W        W24882  41.353  43.337   4.129
52590W        W24883  15.256   5.283   0.393
52591W        W24884   2.288  18.746  14.997
52592W        W24885  21.570  33.481   0.410
52593W        W24886   5.216  40.917  12.932
52594W        W24887  36.966   7.204   2.851
52595W        W24888  20.593  37.499  12.567
52596W        W24889   4.238  34.995   0.867
52597W        W24890   9.264  18.649   4.606
52598W        W24891  13.810  10.241   4.145
52599W        W24892  40.864  30.472   4.190
52600W        W24893  37.013  19.550   2.248
52601W        W24894  40.055   1.348   2.260
52602W        W24895  27.510  12.708   3.267
52603W        W24896  22.672  24.064   2.285
52604W        W24897   8.334   3.764   0.768
52605W        W24898  14.594  28.986   0.404
52606W        W24899   2.338  35.392   3.295
52607W        W24900  33.907   6.786  12.925
52608W        W24901   5.262  16.582  10.565
52609W        W24902  25.125  22.706  10.461
52610W        W24903  39.005  24.148  13.841
52611W        W24904  42.781  43.913  11.486
52612W        W24905  42.933  42.921   0.857
52613W        W24906  18.708  33.929  11.582
52614W        W24907  24.596   2.439   5.085
52615W        W24908  21.595  43.998  14.410
52616W        W24909  25.558  27.572   2.381
52617W        W24910   3.386  33.949  11.104
52618W        W24911  20.590  38.021   0.920
52619W        W24912  10.697   5.922  10.635
52620W        W24913  18.139   9.719  10.425
52621W        W24914   2.378  14.732  12.405
52622W        W24915   5.778   5.278   1.397
52623W        W24916   8.238  44.766  12.960
52624W        W24917  24.986   1.352   2.827
52625W        W24918  31.004  40.870  13.800
52626W        W24919  33.026  40.425   1.242
52627W        W24920  29.503  10.788  13.358
52628W        W24921  27.943  23.505  11.863
52629W        W24922  11.282  42.456  11.990
52630W        W24923  43.420   5.200  10.490
52631W        W24924  30.654   3.732  13.969
52632W        W24925  13.146   2.380  10.445
52633W        W24926  39.384  35.511  11.463
52634W        W24927  33.992  42.969   2.878
52635W        W24928  19.203  16.257  12.872
52636W        W24929  44.326   9.378  14.417
52637W        W24930  12.736   5.399   3.372
52638W        W24931  36.931  25.680  14.807
52639W        W24932  41.937  17.307   0.742
52640W        W24933  33.527  15.208   3.691
52641W        W24934  31.445   2.918  11.440
52642W        W24935  21.065  42.987   0.915
52643W        W24936  25.142  17.220  10.613
52644W        W24937   0.431  17.562   3.281
52645W        W24938  25.023   0.753  11.581
52646W        W24939  28.967  39.398  12.454
52647W        W24940  41.375  28.455   4.331
52648W        W24941  28.013  21.633   5.260
52649W        W24942  40.542  41.902  14.397
52650W        W24943  10.739  39.815  14.983
52651W        W24944   2.837  26.996  12.495
52652W        W24945  17.269  20.238   3.851
52653W        W24946  31.553   1.763  13.976
52654W        W24947  43.507  30.915   2.771
52655W        W24948  29.996  42.840  14.385
52656W        W24949  10.645  18.178  14.889
52657W        W24950  30.994  30.995  11.559
52658W        W24951  25.082  36.975   4.183
52659W        W24952  36.411  26.593  10.980
52660W        W24953  34.381  35.496   2.419
52661W        W24954  42.856  26.983   0.797
52662W        W24955   1.354  30.158   3.326
52663W        W24956  41.430  23.132   2.300
52664W        W24957  23.554  37.896  14.503
52665W        W24958  39.933  11.634   1.781
52666W        W24959  44.390   6.241   2.190
52667W        W24960  36.022  15.643   5.234
52668W        W24961  26.203  13.703  13.894
52669W        W24962  11.702  16.129   0.411
52670W        W24963  19.074  22.725   4.784
52671W        W24964  17.784   5.359   2.731
52672W        W24965  12.304  38.379   0.744
52673W        W24966  29.945   5.227  10.444
52674W        W24967  38.990  11.331  12.543
52675W        W24968  36.380  31.550   2.670
52676W        W24969   8.870  40.870  10.945
52677W        W24970   7.749  36.950  10.982
52678W        W24971  19.670  21.731   4.803
52679W        W24972  11.740  35.460  11.100
52680W        W24973  17.627  21.660  10.481
52681W        W24974  31.037  21.732   4.824
52682W        W24975  38.951  19.189   5.094
52683W        W24976  18.708  36.887   4.777
52684W        W24977   7.793  21.539  13.397
52685W        W24978   3.949  12.134   0.830
52686W        W24979  41.031  42.016  12.837
52687W        W24980  34.934   9.381   1.314
52688W        W24981  24.692  25.521   4.205
52689W        W24982  12.223  22.671   0.407
52690W        W24983  34.120  16.211  12.964
52691W        W24984  37.838  21.680   0.840
52692W        W24985  35.091   5.202   0.753
52693W        W24986  18.609   0.339   4.351
52694W        W24987  34.988  38.865   4.288
52695W        W24988  30.509  32.426   0.276
52696W        W24989  36.361  28.946   1.747
52697W        W24990  31.071   6.759  13.307
52698W        W24991  38.396  42.413   1.266
52699W        W24992  22.660  21.084  13.444
52700W        W24993  37.849  42.474   3.208
52701W        W24994  41.363  37.537  10.989
52702W        W24995  24.519  44.479  13.444
52703W        W24996  27.100  41.939  12.994
52704W        W24997  26.142   6.709   3.179
52705W        W24998  25.605   6.425   3.324
52706W        W24999  16.570  41.515   0.393
52707W        W25000   9.168   5.849  10.583
52708W        W25001  38.500  37.851  11.564
52709W        W25002   8.189  25.053   4.234
52710W        W25003  38.073  42.912  14.956
52711W        W25004  31.113  42.413  11.048
52712W        W25005  42.427  25.963  13.373
52713W        W25006  27.020  11.372   1.214
52714W        W25007  19.042   5.383   3.790
52715W        W25008  10.173  23.648   4.315
52716W        W25009   7.228  16.755   0.280
52717W        W25010   9.169   0.916  10.517
52718W        W25011  27.504  16.226   4.267
52719W        W25012  14.732  19.077   3.685
52720W        W25013   7.346  39.514   4.322
52721W        W25014  35.458  36.462   2.405
52722W        W25015  31.958   9.818   1.362
52723W        W25016  20.712  38.377   3.652
52724W        W25017  12.208  26.081   0.289
52725W        W25018  39.448  22.062   4.137
52726W        W25019  38.988  17.117  12.995
52727W        W25020   7.783  11.626   4.320
52728W        W25021  11.228  44.289  12.010
52729W        W25022   8.319   3.912   0.260
52730W        W25023  24.514  42.019  13.830
52731W        W25024   5.405  42.526   0.852
52732W        W25025   4.352   0.256  12.840
52733W        W25026  16.120   1.318  11.443
52734W        W25027  12.164  27.552  13.513
52735W        W25028  30.550  42.890  14.786
52736W        W25029   4.779  19.200   4.838
52737W        W25030  31.100   8.355   4.342
52738W        W25031  41.840  25.088  14.954
52739W        W25032  13.845  34.999   3.738
52740W        W25033  31.018  21.149  11.019
52741W        W25034  32.436  42.484   0.380
52742W        W25035   9.768  25.079  11.096
52743W        W25036   5.282   0.413   1.366
52744W        W25037  44.455  32.465   3.190
52745W        W25038  41.396  38.848  13.819
52746W        W25039  32.999   1.791  11.895
52747W        W25040   4.740  17.736   0.825
52748W        W25041  42.365  31.534   2.365
52749W        W25042  15.100  27.555   1.872
52750W        W25043  22.087  19.614  11.956
52751W        W25044  30.976  28.088   2.692
52752W        W25045   5.362  31.599  12.404
52753W        W25046  26.176  41.995   1.210
52754W        W25047  39.859  17.143  13.811
52755W        W25048  13.713  11.154   4.788
52756W        W25049  26.204   3.236   1.412
52757W        W25050  40.826  13.191  13.333
52758W        W25051  12.652  16.115   4.739
52759W        W25052  23.154  19.544  14.016
52760W        W25053  43.270  39.380   2.805
52761W        W25054  40.404  11.801   0.344
52762W        W25055  30.645  18.767   0.740
52763W        W25056  33.074  13.829  13.035
52764W        W25057  37.482  38.367   1.883
52765W        W25058   4.405  24.529   2.862
52766W        W25059  20.685  21.241  11.382
52767W        W25060  23.663  35.940   4.165
52768W        W25061   2.800  32.952  10.930
52769W        W25062  34.954   3.243   1.447
52770W        W25063  41.920   0.450  13.978
52771W        W25064  17.154  38.967  10.910
52772W        W25065  20.738  16.312   2.389
52773W        W25066  26.505  43.782   0.474
52774W        W25067   0.869  37.914   4.718
52775W        W25068   2.454  32.966   4.260
52776W        W25069  37.872  37.580  11.526
52777W        W25070  42.281  39.873  13.372
52778W        W25071  13.264  17.229   2.792
52779W        W25072   7.229  15.301   2.211
52780W        W25073  29.027  18.733   3.711
52781W        W25074   7.864  17.669  13.371
52782W        W25075  29.503  12.240  11.063
52783W        W25076  28.026   0.448   1.404
52784W        W25077  39.928   1.319  10.605
52785W        W25078  36.089   5.411  14.286
52786W        W25079  31.605  31.448  11.498
52787W        W25080  22.543   5.820   0.287
52788W        W25081  19.202  42.812   0.335
52789W        W25082  29.120  25.167  14.289
52790W        W25083  37.933   2.275  10.640
52791W        W25084  13.685  29.589   2.410
52792W        W25085  23.016  20.042  11.533
52793W        W25086  18.232  37.507  12.080
52794W        W25087   5.416  30.973   1.873
52795W        W25088   5.911  29.554   1.777
52796W        W25089  14.135   1.300   9.924
52797W        W25090  44.834  11.767   2.260
52798W        W25091  17.171  35.887   0.862
52799W        W25092  19.676  18.714   2.236
52800W        W25093  19.083  42.007  14.858
52801W        W25094  38.861  21.520   4.741
52802W        W25095  38.940  11.737  13.383
52803W        W25096  30.570  41.865  11.481
52804W        W25097   3.361   0.795   4.260
52805W        W25098  36.928  14.242   0.732
52806W        W25099  15.267   0.936   0.321
52807W        W25100  40.391   9.251   1.925
52808W        W25101   1.329  35.393   0.905
52809W        W25102  12.825  23.609  12.011
52810W        W25103  12.701  43.389   3.172
52811W        W25104   8.371  15.754  12.392
52812W        W25105  41.374  14.695  14.866
52813W        W25106  36.359  37.449   9.980
52814W        W25107   5.238  10.157  10.947
52815W        W25108  44.812  43.433   3.819
52816W        W25109  20.204  18.606  11.464
52817W        W25110   4.361  16.576  13.874
52818W        W25111  37.351  33.428   0.966
52819W        W25112  14.221   3.327   1.335
52820W        W25113  41.501  28.111  11.491
52821W        W25114  21.026  13.729  10.968
52822W        W25115  41.788   3.724   3.741
52823W        W25116  17.071  21.233  10.499
52824W        W25117  29.494  24.033   0.767
52825W        W25118  18.685  32.430   1.430
52826W        W25119   1.260  13.616  11.876
52827W        W25120  44.852  37.539   0.258
52828W        W25121  23.107  11.642  12.897
52829W        W25122  11.754  19.273  13.912
52830W        W25123  33.046  43.319   4.187
52831W        W25124  39.888  36.405  12.536
52832W        W25125  23.598  43.003   4.643
52833W        W25126  39.025  31.417   1.257
52834W        W25127  28.166  14.167  11.106
52835W        W25128   7.859   1.887  11.385
52836W        W25129   1.369  19.243  12.408
52837W        W25130  20.229   1.480  12.392
52838W        W25131  31.153  31.615  14.760
52839W        W25132  12.836  16.213   3.764
52840W        W25133  37.364   3.369   2.698
52841W        W25134   2.809  16.094  11.393
52842W        W25135   3.795  35.563  13.922
52843W        W25136  43.351  34.049   1.435
52844W        W25137  11.252  24.994   2.791
52845W        W25138  43.828   0.484   4.288
52846W        W25139  40.969  36.413   3.246
52847W        W25140  38.372  13.136   0.913
52848W        W25141  24.693   6.374  12.003
52849W        W25142   6.836   9.183  12.350
52850W        W25143   8.741  40.447   5.116
52851W        W25144   5.297  42.386  11.082
52852W        W25145   4.297   8.200  13.493
52853W        W25146  32.960  13.694  11.888
52854W        W25147   8.734  43.450  11.477
52855W        W25148   3.339  38.928   2.406
52856W        W25149   5.823  41.410   3.332
52857W        W25150  42.816  33.529  12.446
52858W        W25151  28.679   6.321  10.410
52859W        W25152  42.008  11.341  14.445
52860W        W25153   9.684  13.649  14.314
52861W        W25154   1.736   7.837  12.987
52862W        W25155  38.017  36.377  11.607
52863W        W25156  39.492   5.317  13.536
52864W        W25157   9.700  40.506   0.834
52865W        W25158  13.767   9.360  14.858
52866W        W25159  40.312  24.537   2.667
52867W        W25160  36.364   4.417  10.506
52868W        W25161   5.438  27.603   4.214
52869W        W25162  11.195  17.729   1.782
52870W        W25163  18.261  19.614  14.326
52871W        W25164  10.260  36.952   3.231
52872W        W25165  30.593  35.871   2.342
52873W        W25166  21.239  16.091  13.471
52874W        W25167  16.160  17.307  12.964
52875W        W25168  17.114   8.301  13.858
52876W        W25169   9.154  15.133   2.777
52877W        W25170  40.925   8.783   4.781
52878W        W25171  31.569  24.612   2.225
52879W        W25172   7.200  40.493  14.416
52880W        W25173  42.985   0.403   1.857
52881W        W25174  40.382  17.600   3.765
52882W        W25175  32.552  38.934   0.313
52883W        W25176   7.224  38.912  13.057
52884W        W25177  22.207   1.792   5.098
52885W        W25178   8.821  32.547  13.316
52886W        W25179  22.666  11.694  10.042
52887W        W25180   6.898  15.205  11.603
52888W        W25181  15.302  19.774   4.670
52889W        W25182  41.326  31.016  13.916
52890W        W25183  13.765  18.155  13.405
52891W        W25184  41.416   7.268   3.219
52892W        W25185  35.579  37.011  13.505
52893W        W25186   6.864  40.367  12.399
52894W        W25187   9.250  13.612   3.241
52895W        W25188  30.644   5.886   4.257
52896W        W25189  16.194   0.336  11.030
52897W        W25190  10.361   6.857  13.428
52898W        W25191   9.260   4.739  14.435
52899W        W25192   8.283   4.290  11.911
52900W        W25193  19.095  20.083   4.810
52901W        W25194  37.558  40.516  13.535
52902W        W25195  14.674  26.624   0.964
52903W        W25196  42.787  37.863  12.085
52904W        W25197  38.412  30.133   2.715
52905W        W25198  28.602  37.497  10.152
52906W        W25199  38.338  42.943  13.865
52907W        W25200  28.059  29.627   0.788
52908W        W25201  25.088  33.059  14.428
52909W        W25202   6.354  40.442   3.282
52910W        W25203  40.016  19.755   1.914
52911W        W25204  21.077  39.387  11.456
52912W        W25205  39.063  21.688  11.460
52913W        W25206  44.491  29.621   3.824
52914W        W25207   4.347  40.377  12.469
52915W        W25208  43.504   3.876  12.437
52916W        W25209  16.593  38.828   3.241
52917W        W25210  27.951  11.250   3.285
52918W        W25211  29.639  33.528   0.457
52919W        W25212   7.347  43.887   3.730
52920W        W25213  10.264  15.239   3.274
52921W        W25214  21.019  14.750  13.480
52922W        W25215  12.801  17.183  10.510
52923W        W25216  23.194  15.089   1.779
52924W        W25217  30.502  34.991  11.882
52925W        W25218  19.043  31.505  14.964
52926W        W25219  42.472  34.939  12.570
52927W        W25220  15.196  14.151   3.171
52928W        W25221  42.527   7.776  13.416
52929W        W25222  24.114   1.442   3.240
52930W        W25223  14.761  41.476  11.921
52931W        W25224  25.504  44.995  12.907
52932W        W25225  17.185   7.884  10.478
52933W        W25226  14.713  23.568   4.777
52934W        W25227  36.013   3.797  13.473
52935W        W25228  12.798   0.897  12.861
52936W        W25229   1.270  24.193  13.356
52937W        W25230   6.849  41.880  14.505
52938W        W25231  16.689  10.696   2.809
52939W        W25232  34.497  41.895  11.555
52940W        W25233  24.489  19.764  10.959
52941W        W25234  32.891   4.819   0.905
52942W        W25235  31.527  33.583  12.530
52943W        W25236  44.908  20.123  12.407
52944W        W25237  18.660  36.500  10.458
52945W        W25238  35.926   6.309   1.430
52946W        W25239   3.815  39.389  11.956
52947W        W25240  21.076  26.112  10.416
52948W        W25241  34.608  13.680   2.807
52949W        W25242  43.385  12.838   1.229
52950W        W25243  18.676  44.485  13.037
52951W        W25244  16.762  41.341  11.537
52952W        W25245  30.142  20.107  12.966
52953W        W25246  42.521   6.221  11.395
52954W        W25247   0.467  30.919  10.624
52955W        W25248  40.041  26.651   0.479
52956W        W25249  27.649  25.659  14.460
52957W        W25250  12.250  28.950  14.808
52958W        W25251  31.484  41.797  13.450
52959W        W25252  33.381  10.683   3.282
52960W        W25253  28.538  33.421  13.493
52961W        W25254  12.631  39.978   2.682
52962W        W25255  23.535   6.415   4.626
52963W        W25256  17.584  41.536  13.478
52964W        W25257  31.079   2.463   3.691
52965W        W25258  27.582  41.450   1.769
52966W        W25259  41.885  35.502   0.268
52967W        W25260  32.053  37.342  14.906
52968W        W25261  36.847   1.861   1.259
52969W        W25262  44.476  43.398  14.452
52970W        W25263   0.426   3.242   3.718
52971W        W25264  15.136  39.983  11.416
52972W        W25265  39.511  20.122  11.123
52973W        W25266  26.624   5.201  11.405
52974W        W25267  21.244  21.238   2.891
52975W        W25268  36.977  42.509   3.816
52976W        W25269  42.343  38.488  10.482
52977W        W25270  34.981   4.819   3.352
52978W        W25271  28.020   9.204   4.599
52979W        W25272  17.299  41.969   2.362
52980W        W25273   8.349   4.898  11.882
52981W        W25274  37.023  17.304  12.509
52982W        W25275  13.328  40.896  12.992
52983W        W25276  33.396   9.845   2.408
52984W        W25277   0.837  40.954  12.857
52985W        W25278  35.857  18.722  12.547
52986W        W25279  37.346  18.163  11.585
52987W        W25280  11.142   1.956   4.836
52988W        W25281  22.151  22.600   1.362
52989W        W25282  18.614   5.224   4.293
52990W        W25283  20.685   7.826   0.752
52991W        W25284  13.824  24.150   0.482
52992W        W25285  23.525  27.171   2.819
52993W        W25286  17.163  19.047   2.379
52994W        W25287  17.285   1.294  12.425
52995W        W25288  34.989   6.786  11.573
52996W        W25289  35.979   8.849   2.275
52997W        W25290  27.540   8.394  12.397
52998W        W25291  19.655  37.900  10.630
52999W        W25292  13.775  36.946  14.872
53000W        W25293  26.060  13.190   3.638
53001W        W25294   1.289   9.884  12.500
53002W        W25295   6.391   3.775  10.480
53003W        W25296   7.298  25.976  11.556
53004W        W25297  19.270  41.850   4.276
53005W        W25298  11.822  13.719   1.833
53006W        W25299  10.841   9.673  13.315
53007W        W25300  12.768  20.585   3.339
53008W        W25301  16.260  15.257   3.354
53009W        W25302  14.783  34.441   3.277
53010W        W25303   4.297  20.629   4.682
53011W        W25304  13.711  31.042   0.440
53012W        W25305  35.479   8.299  13.330
53013W        W25306  41.999  10.258  12.525
53014W        W25307  24.975  27.176   3.252
53015W        W25308  37.563  24.565  14.820
53016W        W25309   2.375  28.497   1.764
53017W        W25310  37.969   2.228  14.413
53018W        W25311  38.909  30.423   1.410
53019W        W25312  12.362  25.188  13.510
53020W        W25313   5.885   9.388   1.271
53021W        W25314  27.687   1.381  10.942
53022W        W25315  27.537   7.888   4.123
53023W        W25316  43.280   5.295   2.273
53024W        W25317  26.959  37.464   0.432
53025W        W25318   0.936  37.080  13.032
53026W        W25319  26.110  37.868  13.434
53027W        W25320  25.026  11.141  11.439
53028W        W25321  39.477   8.250  13.930
53029W        W25322  44.872   7.873   1.788
53030W        W25323   6.912  16.266   0.805
53031W        W25324  22.666   9.154  10.016
53032W        W25325  15.728  36.021  11.416
53033W        W25326  22.516  10.699  14.769
53034W        W25327  30.093  43.003  11.119
53035W        W25328  25.697   4.445  11.012
53036W        W25329  15.789  27.172   3.275
53037W        W25330  35.091   1.296  14.977
53038W        W25331  24.529  39.335  13.408
53039W        W25332  41.293  17.217  11.947
53040W        W25333   5.426  26.502   4.631
53041W        W25334  28.166  44.377   1.842
53042W        W25335  18.097   3.882   1.272
53043W        W25336  31.540  28.093   1.740
53044W        W25337  25.118  38.514   0.904
53045W        W25338   6.220  19.628  13.417
53046W        W25339  13.118  14.228  12.056
53047W        W25340  41.481   5.417   3.852
53048W        W25341  19.714  44.772   0.865
53049W        W25342  42.331  11.848   4.618
53050W        W25343  17.082  40.403  11.884
53051W        W25344  41.466  39.367  14.810
53052W        W25345  24.148   5.200   2.329
53053W        W25346  44.363  28.643  13.983
53054W        W25347  21.228  10.857  10.938
53055W        W25348  30.095  33.543  12.897
53056W        W25349  29.060  26.967   0.260
53057W        W25350  38.995  18.158   9.936
53058W        W25351   7.700   5.883   4.243
53059W        W25352  41.529  25.596   4.789
53060W        W25353  31.143  34.489   3.855
53061W        W25354  39.360  34.062  11.606
53062W        W25355  30.143   9.169   4.331
53063W        W25356  22.017   8.288   4.713
53064W        W25357  11.369  30.085   1.743
53065W        W25358  27.527  30.642  14.978
53066W        W25359  43.441  27.097   3.250
53067W        W25360  12.348   4.316  10.404
53068W        W25361  16.613  14.805   3.649
53069W        W25362  18.184  17.574   1.921
53070W        W25363  29.075  18.573  11.872
53071W        W25364  14.653  31.533   0.365
53072W        W25365  30.137  44.312   3.744
53073W        W25366  33.001  22.091   0.321
53074W        W25367  41.014  29.611   4.208
53075W        W25368  16.120  34.995   0.276
53076W        W25369   5.753  34.551  13.399
53077W        W25370  38.363   1.353   2.318
53078W        W25371  35.056  36.884  14.779
53079W        W25372  25.687  26.576   4.233
53080W        W25373  16.683   5.193  13.465
53081W        W25374  26.612  10.152   0.246
53082W        W25375  42.414  38.571   0.797
53083W        W25376  34.555  15.149  14.020
53084W        W25377  42.971  15.327   1.378
53085W        W25378  22.145  21.561  13.942
53086W        W25379  35.880  31.907   4.348
53087W        W25380   5.711  32.889  10.930
53088W        W25381  40.524  38.827  14.788
53089W        W25382  22.171  44.800   4.145
53090W        W25383   8.676  16.668  10.952
53091W        W25384  20.222   2.915   4.748
53092W        W25385  39.439   6.888  13.385
53093W        W25386  28.450  33.486  13.022
53094W        W25387   9.869  35.975  14.987
53095W        W25388  40.425   8.692   3.312
53096W        W25389   5.243  44.890   0.435
53097W        W25390  43.780  35.485   3.228
53098W        W25391  14.336   3.448  13.338
53099W        W25392  42.929  30.600   2.696
53100W        W25393   4.862  42.406   5.092
53101W        W25394  10.672  34.995  13.357
53102W        W25395   5.831  35.485   0.247
53103W        W25396  23.064  44.460   3.370
53104W        W25397   9.772  15.117   3.742
53105W        W25398   9.752  26.069   2.666
53106W        W25399   3.352  29.021  10.502
53107W        W25400  14.683   2.346   2.229
53108W        W25401  18.707   8.235  11.603
53109W        W25402  35.467  23.212  10.499
53110W        W25403  25.114   6.728   2.308
53111W        W25404  32.438  31.925  13.017
53112W        W25405  23.529  17.139   0.744
53113W        W25406  27.689  18.227  14.806
53114W        W25407  20.668  16.569  11.383
53115W        W25408  13.683  14.224   4.304
53116W        W25409   3.454  42.408   4.197
53117W        W25410  37.914   5.345   4.729
53118W        W25411   6.698  42.398   2.810
53119W        W25412  37.032  18.723  10.438
53120W        W25413   7.858  13.276  12.569
53121W        W25414  10.837  15.736   3.282
53122W        W25415  26.546  14.132  14.905
53123W        W25416  17.195  11.759  12.930
53124W        W25417  33.613  41.889   4.138
53125W        W25418  13.634  10.787   2.886
53126W        W25419  32.085  10.355  12.887
53127W        W25420   1.421  10.706   4.650
53128W        W25421   6.727  13.694   2.759
53129W        W25422  39.506  20.704   3.721
53130W        W25423   3.871  29.508   3.304
53131W        W25424  23.068  32.929   2.805
53132W        W25425  38.543  40.370  14.882
53133W        W25426  21.021  20.034   0.349
53134W        W25427  14.131  13.658   2.321
53135W        W25428  23.508  10.318   4.123
53136W        W25429  37.932   8.672   5.180
53137W        W25430   3.259   3.290   1.262
53138W        W25431  15.208  18.142   1.925
53139W        W25432  31.910   4.265  11.492
53140W        W25433  18.233  22.216   3.154
53141W        W25434  39.548  27.632  12.876
53142W        W25435  22.729  25.075   5.132
53143W        W25436  21.652  24.093   0.864
53144W        W25437   4.238   5.760   2.314
53145W        W25438   7.737  29.616   0.791
53146W        W25439  15.243   3.773   9.495
53147W        W25440   2.330  31.475  14.903
53148W        W25441   2.293  13.120  11.534
53149W        W25442  18.703  16.152   2.281
53150W        W25443  17.616   3.884  11.603
53151W        W25444  26.539  34.898   3.703
53152W        W25445  32.618  30.647  13.023
53153W        W25446  44.802  21.753  11.924
53154W        W25447  26.477   2.869   2.317
53155W        W25448  36.360   7.291  14.288
53156W        W25449  36.003  38.478   3.705
53157W        W25450   8.224  28.647  12.864
53158W        W25451  34.019  33.380   4.635
53159W        W25452  17.218   8.671  14.406
53160W        W25453  42.967  14.668  11.375
53161W        W25454  26.196  25.048  13.997
53162W        W25455   3.430   0.435   0.855
53163W        W25456  21.053  10.339   9.925
53164W        W25457  43.272  29.069  12.498
53165W        W25458  17.268  12.795   3.834
53166W        W25459  44.455  30.639  12.925
53167W        W25460   9.694  34.114  11.105
53168W        W25461  38.040  30.461   4.189
53169W        W25462   1.404  28.605  14.940
53170W        W25463  26.956  44.365  14.336
53171W        W25464   3.923  30.989   4.799
53172W        W25465  15.268  13.128   1.359
53173W        W25466   7.391  10.644  13.935
53174W        W25467   1.310  43.785   1.279
53175W        W25468  27.178  32.904  11.953
53176W        W25469   0.925  32.496   3.655
53177W        W25470  34.451  34.400   1.255
53178W        W25471  34.109   2.329   1.434
53179W        W25472  26.510  38.055   2.673
53180W        W25473  40.955  41.849   1.242
53181W        W25474  13.133   5.735  12.861
53182W        W25475  33.073  40.809  10.616
53183W        W25476  24.601  25.009   3.717
53184W        W25477  25.482  36.965  10.976
53185W        W25478  19.648  12.204  12.929
53186W        W25479  36.504  23.068  11.553
53187W        W25480  22.244   4.933  14.463
53188W        W25481  14.180   3.408  14.479
53189W        W25482  33.540  27.145  12.578
53190W        W25483  37.026   5.828  12.949
53191W        W25484  18.569  10.325   1.794
53192W        W25485  27.644  21.043   9.448
53193W        W25486   1.952  38.434  12.470
53194W        W25487  32.425  38.880  14.388
53195W        W25488  27.660  27.131  12.909
53196W        W25489  41.919  39.864   2.217
53197W        W25490  18.063   8.788   3.354
53198W        W25491  36.592  28.979  11.893
53199W        W25492  30.964  18.648   4.755
53200W        W25493  33.581  34.432  13.934
53201W        W25494   8.254  31.461   3.749
53202W        W25495  37.053  17.092  11.478
53203W        W25496  17.273  26.560   4.763
53204W        W25497  15.279  43.990   4.671
53205W        W25498  31.904  41.333  10.553
53206W        W25499  29.597  34.866  13.469
53207W        W25500  24.624  35.521  13.928
53208W        W25501  31.913  15.647   1.281
53209W        W25502  14.677   2.726   4.813
53210W        W25503  19.263  36.985   2.741
53211W        W25504  31.520   2.847   3.862
53212W        W25505  12.778  33.487  14.361
53213W        W25506  12.614  21.535   3.757
53214W        W25507  20.061   5.280  12.971
53215W        W25508  35.982  34.494   3.768
53216W        W25509   8.657   4.410  12.457
53217W        W25510  19.099   1.411   1.886
53218W        W25511  24.220   6.713  14.485
53219W        W25512  35.483   9.372  13.797
53220W        W25513   9.213  21.755  14.495
53221W        W25514  38.940  28.595   1.794
53222W        W25515  27.054  22.244  10.000
53223W        W25516  37.081  26.489   1.928
53224W        W25517   7.692  44.779  12.489
53225W        W25518  35.461  38.989  11.428
53226W        W25519  37.561  36.922  11.593
53227W        W25520  15.726  43.017   2.377
53228W        W25521   0.353   2.727   4.187
53229W        W25522  12.837  20.094   3.357
53230W        W25523  44.318   9.835   1.274
53231W        W25524  28.107   0.330  13.031
53232W        W25525  26.647  16.239  13.346
53233W        W25526  36.930  12.776   4.795
53234W        W25527  37.918   6.886   2.849
53235W        W25528   6.785  26.698  14.837
53236W        W25529  11.861  27.473  10.071
53237W        W25530  37.561  14.822   0.947
53238W        W25531  31.066  36.037   1.806
53239W        W25532  12.162   9.663  14.906
53240W        W25533  23.664  26.616  12.979
53241W        W25534  32.564  35.044  14.915
53242W        W25535  12.842  21.628  14.895
53243W        W25536  14.799   1.355  10.431
53244W        W25537   4.392  22.552   2.283
53245W        W25538   3.802  35.974  10.987
53246W        W25539   3.937  31.496   1.441
53247W        W25540  34.408  28.973   0.893
53248W        W25541  44.465  18.704   3.759
53249W        W25542  43.867  33.051   5.792
53250W        W25543  34.518   3.866   1.212
53251W        W25544   6.286  34.499  10.960
53252W        W25545   3.904  21.098  12.084
53253W        W25546  43.850  15.767   0.408
53254W        W25547  28.584  11.852   1.372
53255W        W25548   0.371  34.517   4.751
53256W        W25549  38.911   7.386  10.550
53257W        W25550  36.579  32.047   2.813
53258W        W25551  34.095  31.473  11.064
53259W        W25552  14.834  37.425  13.466
53260W        W25553  21.625  17.303  13.945
53261W        W25554  24.151   5.305   9.945
53262W        W25555  40.325  37.958  12.942
53263W        W25556  44.292  36.007   3.666
53264W        W25557  24.155   1.920  11.097
53265W        W25558   2.826  25.622   1.228
53266W        W25559   4.890   7.780  14.794
53267W        W25560  13.177   1.815  13.959
53268W        W25561  14.325  29.532   4.782
53269W        W25562  20.093   7.716   4.141
53270W        W25563  44.006  39.353  13.879
53271W        W25564  23.536   2.829  14.414
53272W        W25565  22.160  12.805   4.772
53273W        W25566  33.979  34.477   1.310
53274W        W25567  38.006   2.750   1.751
53275W        W25568  43.882  23.725  10.631
53276W        W25569  29.598  28.976   3.749
53277W        W25570  28.579   2.310  11.078
53278W        W25571  38.019  37.051  14.028
53279W        W25572  11.180  11.664   4.740
53280W        W25573  34.897  37.485   3.337
53281W        W25574  29.949  33.953   4.140
53282W        W25575   3.256  36.984  10.484
53283W        W25576  20.127  28.474  13.801
53284W        W25577   6.375  40.904   1.327
53285W        W25578  13.158  15.606   2.262
53286W        W25579  11.225   8.726   3.673
53287W        W25580  13.726   8.741   1.385
53288W        W25581  11.327  11.676   1.841
53289W        W25582   8.818  41.024   2.694
53290W        W25583  40.546   7.188   5.178
53291W        W25584   1.474  26.478   0.823
53292W        W25585  28.943  34.598  10.537
53293W        W25586  17.067   8.814   1.222
53294W        W25587  19.234  27.474  11.573
53295W        W25588   5.415  42.870   1.813
53296W        W25589   2.287   1.262  13.534
53297W        W25590   8.813   1.864  10.419
53298W        W25591  39.415   8.736   2.797
53299W        W25592   1.814  43.770  11.410
53300W        W25593   6.897  29.502   2.358
53301W        W25594  29.137  37.441  13.845
53302W        W25595  35.513   7.327   3.325
53303W        W25596  10.299  44.433   3.811
53304W        W25597   4.806   5.349   4.792
53305W        W25598  13.630  13.657   0.283
53306W        W25599  16.737   3.899   3.856
53307W        W25600   5.802  38.833   1.277
53308W        W25601  36.488  30.467   1.786
53309W        W25602  37.503  14.267  10.527
53310W        W25603  31.622  15.161   3.175
53311W        W25604  20.245  31.456   4.199
53312W        W25605  21.701  41.946  13.453
53313W        W25606   5.741  35.576  14.344
53314W        W25607  40.530  35.915   5.291
53315W        W25608  38.475  22.589  14.299
53316W        W25609  39.431  12.645   3.846
53317W        W25610  10.754  13.293   2.299
53318W        W25611  33.017  18.212  12.828
53319W        W25612  27.068  13.345  11.882
53320W        W25613  27.040  24.044   0.951
53321W        W25614  36.450  11.735   0.773
53322W        W25615  16.150  14.250  13.368
53323W        W25616  22.069  15.261   1.849
53324W        W25617  33.595  18.281   1.263
53325W        W25618  34.959  37.486   5.233
53326W        W25619  43.317  39.003  13.891
53327W        W25620   5.826   0.964   4.697
53328W        W25621   5.715  25.496   4.221
53329W        W25622  15.221  37.384  13.858
53330W        W25623  40.960  41.865   0.775
53331W        W25624  43.376  37.403   9.987
53332W        W25625  27.464  30.910   0.259
53333W        W25626  13.125  33.497   3.322
53334W        W25627  34.555  26.489   1.703
53335W        W25628   2.386  29.606  10.155
53336W        W25629  25.995  37.061  13.529
53337W        W25630  30.002  33.967   3.752
53338W        W25631   9.202   9.728  11.076
53339W        W25632  36.871  14.684  14.019
53340W        W25633  32.908   2.808   0.808
53341W        W25634  31.061  44.810   1.767
53342W        W25635  21.025  40.497  12.981
53343W        W25636  21.070   3.756  13.993
53344W        W25637  30.052  34.049   0.944
53345W        W25638  39.422  42.416   1.430
53346W        W25639  27.988   1.360  12.906
53347W        W25640  27.037  20.671   3.638
53348W        W25641  30.553   8.257  12.566
53349W        W25642  37.423  26.626  14.283
53350W        W25643  43.310  20.151   3.353
53351W        W25644  43.473  44.950   2.404
53352W        W25645  16.609  26.683   4.614
53353W        W25646  12.845  14.217   4.799
53354W        W25647  10.336  39.970   4.598
53355W        W25648  39.954  38.064   4.643
53356W        W25649   0.836  17.759   2.308
53357W        W25650  35.505   8.247  13.933
53358W        W25651  41.872  24.216  12.367
53359W        W25652  20.534  21.589  11.605
53360W        W25653  17.617  20.636  10.487
53361W        W25654   8.173   7.870  11.544
53362W        W25655  43.304  27.554   1.699
53363W        W25656  21.098  12.126   2.711
53364W        W25657   0.774  18.586  13.046
53365W        W25658  42.448  26.599   2.835
53366W        W25659   5.692  19.775  12.537
53367W        W25660  24.061  14.335   0.727
53368W        W25661  30.992   1.780  11.487
53369W        W25662  37.486  15.229  12.091
53370W        W25663  37.367  27.629   2.413
53371W        W25664  13.168  17.105   2.246
53372W        W25665   2.786  36.463   0.446
53373W        W25666  17.589  31.061  11.420
53374W        W25667  15.235   0.816   4.253
53375W        W25668  10.789  15.294   0.361
53376W        W25669  44.902  41.910  14.978
53377W        W25670  14.299  26.457  13.797
53378W        W25671  35.065  25.706   0.382
53379W        W25672  33.526   9.714   0.342
53380W        W25673  32.098  15.814   1.810
53381W        W25674  40.039  24.489  11.495
53382W        W25675  14.139  11.653   3.632
53383W        W25676  40.329  30.414   5.311
53384W        W25677  41.825  35.538   3.212
53385W        W25678   0.815  30.596  11.502
53386W        W25679  17.718  10.869  12.378
53387W        W25680  28.629  40.882   0.318
53388W        W25681  13.326  44.332   4.180
53389W        W25682   4.836  20.760  13.947
53390W        W25683   5.820   6.827   2.848
53391W        W25684  31.920  20.633   2.872
53392W        W25685  17.183  12.180  13.030
53393W        W25686  34.058   4.757   3.652
53394W        W25687  11.760   1.906  13.811
53395W        W25688  12.727  20.232  13.445
53396W        W25689   3.351  17.282  13.320
53397W        W25690  35.987  44.934  14.453
53398W        W25691  44.767  29.544  13.923
53399W        W25692  13.142   0.405   5.221
53400W        W25693   5.812  21.227  12.505
53401W        W25694  16.586   1.450   4.631
53402W        W25695   7.802  44.292  11.012
53403W        W25696  29.015  18.119   4.715
53404W        W25697  40.373  25.645  12.983
53405W        W25698   5.737  12.788   3.643
53406W        W25699  18.096  14.623   1.764
53407W        W25700  40.372  12.274   2.384
53408W        W25701  13.133  35.072   1.311
53409W        W25702  20.627  40.959   1.379
53410W        W25703  16.700  28.050   2.390
53411W        W25704   3.406  28.173   3.218
53412W        W25705   5.308  32.530   4.620
53413W        W25706   7.729  13.667  11.466
53414W        W25707  21.671  33.978  12.363
53415W        W25708  34.061  23.659   3.244
53416W        W25709  12.295   4.834   2.664
53417W        W25710  20.107  30.437   0.421
53418W        W25711  16.085  41.494   2.265
53419W        W25712  40.835  15.622  14.908
53420W        W25713  24.138  41.030  13.867
53421W        W25714  14.692  10.214   3.637
53422W        W25715  19.603   1.934   2.385
53423W        W25716   9.194  31.961   0.846
53424W        W25717  12.315  25.677  12.417
53425W        W25718  28.462   5.405  13.336
53426W        W25719  12.702   5.735  11.563
53427W        W25720  15.196  12.352  14.847
53428W        W25721   7.303   2.884  11.098
53429W        W25722  43.471  15.685   0.943
53430W        W25723  40.993  22.017  14.431
53431W        W25724  38.850  11.177  13.996
53432W        W25725  36.001  22.211   4.766
53433W        W25726  18.096  33.088  12.345
53434W        W25727  18.552   3.734   2.741
53435W        W25728  26.142  31.123  13.474
53436W        W25729  40.803  42.330  10.417
53437W        W25730   1.468  34.386  11.941
53438W        W25731  42.413  44.923  12.855
53439W        W25732  15.661  41.353   9.990
53440W        W25733   0.874  36.523  13.904
53441W        W25734  10.716   2.802  14.775
53442W        W25735   0.981   2.792  11.486
53443W        W25736  33.562   6.904  11.119
53444W        W25737  42.504  23.713   1.324
53445W        W25738   5.711  38.058  11.522
53446W        W25739  17.083   2.859  12.986
53447W        W25740  13.129  15.154   3.381
53448W        W25741   8.710  35.971   1.419
53449W        W25742  22.701   3.259  10.430
53450W        W25743  21.085  22.501  12.518
53451W        W25744  12.817  44.303  10.431
53452W        W25745  18.163   2.243  12.543
53453W        W25746  25.177  20.252  11.041
53454W        W25747   8.347  24.046  13.406
53455W        W25748  30.474  40.023   3.689
53456W        W25749  38.345  38.045  11.875
53457W        W25750  39.824   3.866   1.778
53458W        W25751  20.064  11.828  12.963
53459W        W25752  33.478  41.498  13.013
53460W        W25753  37.494  14.665   1.831
53461W        W25754  20.046  31.595  11.576
53462W        W25755  16.236   4.741  14.844
53463W        W25756  34.086  28.668  14.463
53464W        W25757  34.881  34.401   1.782
53465W        W25758  40.825   7.707   0.475
53466W        W25759  19.176  15.620  13.308
53467W        W25760  28.506  27.181  14.440
53468W        W25761  29.038  20.091  10.609
53469W        W25762  31.611  12.246   2.265
53470W        W25763   5.881  34.499   2.189
53471W        W25764  38.894  31.123   4.257
53472W        W25765  35.494  32.624   3.355
53473W        W25766   7.904  35.358  10.585
53474W        W25767  38.005  38.908  11.496
53475W        W25768   0.475  37.437  12.535
53476W        W25769  21.633   0.291  14.353
53477W        W25770   2.369  38.989  14.960
53478W        W25771  32.619  40.477   1.832
53479W        W25772  21.560  28.964  12.893
53480W        W25773   4.426  11.201   2.869
53481W        W25774  16.140   2.246  12.877
53482W        W25775  44.805  30.020  14.993
53483W        W25776  27.535   6.421  11.937
53484W        W25777  33.599  17.617   0.849
53485W        W25778  23.052  38.055  11.968
53486W        W25779  22.731   9.273   0.346
53487W        W25780   9.323  16.206   3.169
53488W        W25781  15.755  44.337  11.079
53489W        W25782  38.480   8.402   2.227
53490W        W25783  11.730  12.775   4.813
53491W        W25784  11.835  21.746   3.309
53492W        W25785   8.230  26.602  14.760
53493W        W25786  37.445   4.447   3.788
53494W        W25787  34.030  44.862  12.898
53495W        W25788  22.714  18.720   2.879
53496W        W25789  27.015  21.551   4.710
53497W        W25790  25.687  38.998   1.839
53498W        W25791   2.919  13.748   3.201
53499W        W25792  41.471  40.355  10.497
53500W        W25793   7.281  14.643   2.242
53501W        W25794   0.380  29.969   4.830
53502W        W25795  22.614  17.691   3.161
53503W        W25796  21.129  30.470   1.718
53504W        W25797  12.732  15.808  12.395
53505W        W25798  18.154  22.647  14.339
53506W        W25799  25.214  21.124  10.533
53507W        W25800  28.019  31.630   2.352
53508W        W25801   4.818   3.923   3.756
53509W        W25802  28.158  42.921   0.803
53510W        W25803  32.583  13.707  14.020
53511W        W25804  40.966  34.566  13.350
53512W        W25805   0.839  32.066  12.947
53513W        W25806  20.245   8.293  13.896
53514W        W25807  15.207  42.894  10.480
53515W        W25808  29.135   4.850   4.645
53516W        W25809   1.818  44.503  11.476
53517W        W25810   3.880  19.662  10.503
53518W        W25811  25.051  22.164  13.334
53519W        W25812   1.381  24.565  11.907
53520W        W25813  19.102  10.701  10.509
53521W        W25814  12.213  40.391  14.403
53522W        W25815  18.660  34.046  13.847
53523W        W25816   4.702  30.526   2.281
53524W        W25817   2.886  20.571   4.667
53525W        W25818   5.880  10.239   0.454
53526W        W25819  26.573  31.031   3.806
53527W        W25820  38.562  27.470   1.743
53528W        W25821  30.506  32.454  10.621
53529W        W25822   5.317  44.792   4.786
53530W        W25823  35.445  41.319   3.318
53531W        W25824  34.501  29.545   2.413
53532W        W25825   5.798   6.752  11.031
53533W        W25826  40.414  29.149   4.674
53534W        W25827  31.611   7.694   9.453
53535W        W25828   9.769  36.902   3.287
53536W        W25829   7.669  44.345   3.155
53537W        W25830   1.267  20.207   0.467
53538W        W25831  22.660  22.697   4.124
53539W        W25832  42.988  31.103  12.994
53540W        W25833  14.148  24.127   4.336
53541W        W25834   4.903  10.200  13.915
53542W        W25835   0.443  19.709   0.908
53543W        W25836  27.590   7.375  11.117
53544W        W25837  30.414  19.156   0.357
53545W        W25838   5.412  10.862  12.064
53546W        W25839  26.992   7.690   3.824
53547W        W25840  26.586  44.493  14.007
53548W        W25841   9.192   3.392   1.751
53549W        W25842  11.629  31.914   9.988
53550W        W25843  13.300  11.361   4.783
53551W        W25844  34.120  11.642  12.022
53552W        W25845  38.372  39.412   4.301
53553W        W25846   6.788   8.303   1.909
53554W        W25847  44.349  12.622  13.843
53555W        W25848   0.378  35.094  14.865
53556W        W25849  38.495  35.598   1.398
53557W        W25850  37.510  30.962  13.377
53558W        W25851  25.555  12.826  11.527
53559W        W25852  20.600  35.938  10.916
53560W        W25853   5.369  42.518  12.557
53561W        W25854  15.687   7.841   1.372
53562W        W25855  30.129  13.339  10.954
53563W        W25856  39.888  29.453  12.528
53564W        W25857   9.779  41.351  12.094
53565W        W25858  17.585  17.712   1.389
53566W        W25859  32.516   6.837  14.310
53567W        W25860  26.079  13.636   4.266
53568W        W25861  30.064   9.233   3.676
53569W        W25862  15.760  41.041  13.313
53570W        W25863  27.506  28.565  11.561
53571W        W25864  25.214  10.209  12.467
53572W        W25865  15.785  24.486  11.055
53573W        W25866  37.984  26.645   3.375
53574W        W25867  44.962  32.039   0.730
53575W        W25868  42.375  43.775   3.222
53576W        W25869  33.563  44.437   1.404
53577W        W25870  43.919  36.478   2.311
53578W        W25871   8.671   2.453   3.149
53579W        W25872   7.872  43.308   3.191
53580W        W25873  41.426  21.678   3.276
53581W        W25874   1.474  20.546  12.881
53582W        W25875   5.853  14.660  13.357
53583W        W25876   6.319   9.811  14.274
53584W        W25877  32.454  31.470  12.045
53585W        W25878  12.727  19.260  11.907
53586W        W25879   9.811   5.888   2.285
53587W        W25880   8.837   7.245  10.112
53588W        W25881  30.414  19.174   2.334
53589W        W25882  34.872  40.939  12.841
53590W        W25883   3.286  20.560  12.918
53591W        W25884  27.457  19.275   0.911
53592W        W25885  32.058  18.078   0.746
53593W        W25886  22.073   8.328  14.843
53594W        W25887  37.957  14.834  13.022
53595W        W25888   4.327  20.549  11.502
53596W        W25889  37.939  10.313  10.588
53597W        W25890  15.113  35.511  11.523
53598W        W25891  25.591  28.681   0.416
53599W        W25892  34.920  28.160  11.880
53600W        W25893   7.675  33.969  13.864
53601W        W25894  34.054   1.824  11.897
53602W        W25895  44.466   0.386  10.035
53603W        W25896   9.884   8.752  10.559
53604W        W25897   4.920  29.478   1.888
53605W        W25898  32.489  23.107  10.537
53606W        W25899  16.124  27.093   4.805
53607W        W25900   4.736  17.724  13.410
53608W        W25901  26.957  22.029  12.425
53609W        W25902  18.064  18.148  14.282
53610W        W25903  25.663   8.735   3.793
53611W        W25904  25.687  11.157   2.707
53612W        W25905  41.972   1.787  12.494
53613W        W25906  31.568  42.823   4.731
53614W        W25907  38.948   6.288   2.815
53615W        W25908  44.918  43.866  11.053
53616W        W25909  26.195  21.656  14.393
53617W        W25910  16.731  28.000   0.384
53618W        W25911  40.526   5.307   1.381
53619W        W25912  40.802  24.100   2.893
53620W        W25913   7.408  37.028   2.186
53621W        W25914   3.317  41.845  13.894
53622W        W25915  43.819   1.917   2.310
53623W        W25916  23.122  42.359  12.484
53624W        W25917  11.227  35.911  14.941
53625W        W25918  38.848  16.212  11.971
53626W        W25919  31.036  28.977   5.229
53627W        W25920  32.613  22.209  14.352
53628W        W25921  14.749  14.297  10.076
53629W        W25922  22.686  10.335  11.116
53630W        W25923   0.812  26.012   0.342
53631W        W25924  34.925  40.884   2.393
53632W        W25925  17.152  30.498  13.898
53633W        W25926   7.787  38.529   3.283
53634W        W25927   6.355  27.012   0.840
53635W        W25928  18.761  33.594  12.852
53636W        W25929  21.516  35.035  14.899
53637W        W25930  14.158   9.327  12.914
53638W        W25931   8.874   0.772   1.315
53639W        W25932  18.153  23.118   2.827
53640W        W25933  33.951  19.139  12.445
53641W        W25934  41.867   4.866   1.358
53642W        W25935  35.594  22.639  12.029
53643W        W25936  20.028   8.167   0.433
53644W        W25937  43.314  23.684   1.931
53645W        W25938  26.458  20.569   4.719
53646W        W25939   9.253   7.837   2.257
53647W        W25940  44.370  29.025   0.810
53648W        W25941  15.699  17.151  11.042
53649W        W25942  13.248  16.709   2.662
53650W        W25943  16.780  13.775   3.796
53651W        W25944  35.015  14.112  13.849
53652W        W25945  31.643  10.185   1.889
53653W        W25946  40.000   0.791   4.152
53654W        W25947   2.845  10.743  12.553
53655W        W25948  18.556  29.149   4.821
53656W        W25949  14.332   2.847   0.428
53657W        W25950  26.608   4.872   5.153
53658W        W25951  25.489  23.528   5.151
53659W        W25952  44.461  37.006  13.493
53660W        W25953  38.486  41.011   4.170
53661W        W25954  44.336   3.440  13.014
53662W        W25955  26.090  10.319  14.938
53663W        W25956   9.710  43.811   1.707
53664W        W25957  33.110   6.214   3.725
53665W        W25958  42.435  42.799   0.328
53666W        W25959   3.417  13.823  14.304
53667W        W25960   9.192  38.826   1.860
53668W        W25961   1.904  42.396   0.751
53669W        W25962  32.992  24.108   2.828
53670W        W25963  19.662   1.328   2.881
53671W        W25964  15.169  28.146  14.449
53672W        W25965  41.840  16.631  10.984
53673W        W25966  15.777  33.959  11.856
53674W        W25967  28.498  18.073  11.894
53675W        W25968  19.754  37.395  11.127
53676W        W25969  10.673  28.494   4.242
53677W        W25970  33.123  25.487   0.876
53678W        W25971  35.480  16.209   2.187
53679W        W25972  20.579  35.962  12.571
53680W        W25973  32.545   5.923  14.398
53681W        W25974  28.955   4.768  12.881
53682W        W25975   3.838   8.215  14.859
53683W        W25976  41.463   4.346   2.765
53684W        W25977   4.863  13.329   2.187
53685W        W25978  26.012  44.441   4.149
53686W        W25979  41.851  16.684   0.818
53687W        W25980  39.338   1.819   0.959
53688W        W25981  15.662   8.401   0.886
53689W        W25982  32.608  42.957   2.701
53690W        W25983  17.256  34.931  10.481
53691W        W25984  16.767  15.820   0.806
53692W        W25985  44.424  39.846  10.014
53693W        W25986   1.425   7.833   2.183
53694W        W25987   3.264  31.445   0.862
53695W        W25988  22.567   8.396  10.526
53696W        W25989  25.472  23.669   3.855
53697W        W25990  19.575  12.627   2.828
53698W        W25991  30.153  30.160  13.422
53699W        W25992  28.125  43.908  13.527
53700W        W25993  23.116  19.192   4.231
53701W        W25994  27.502  31.614   0.340
53702W        W25995  14.299  34.459   1.289
53703W        W25996  13.239  10.729  12.458
53704W        W25997   7.870  34.015   5.612
53705W        W25998  13.668  34.488  11.924
53706W        W25999   2.796  32.444  13.546
53707W        W26000  25.051  41.469   0.922
53708W        W26001  21.177  37.564  13.938
53709W        W26002  37.548   6.842   4.312
53710W        W26003  43.327  24.668  10.633
53711W        W26004  15.580  32.896  10.067
53712W        W26005  42.484   8.722   2.721
53713W        W26006  31.431  22.038   4.628
53714W        W26007  14.792  34.387  12.010
53715W        W26008   8.798  13.845  11.445
53716W        W26009  25.002  10.357   3.364
53717W        W26010  38.944   7.293   4.152
53718W        W26011  31.402   2.850   1.888
53719W        W26012  34.500  43.965  10.633
53720W        W26013  38.981   1.361  14.441
53721W        W26014   8.657   6.198   4.309
53722W        W26015  15.280  36.866  10.437
53723W        W26016  20.541  41.333   1.380
53724W        W26017  42.281  19.764   4.666
53725W        W26018   1.946   2.829  13.454
53726W        W26019  43.380  11.154   0.391
53727W        W26020  40.537  21.559   3.754
53728W        W26021  34.103  23.139   3.330
53729W        W26022  29.175  13.178  11.979
53730W        W26023  22.556  17.298   2.756
53731W        W26024  19.565  14.210  12.843
53732W        W26025  23.732  16.080   3.293
53733W        W26026   2.238  41.844  11.376
53734W        W26027  38.380  32.627  11.437
53735W        W26028  28.986   8.655  11.556
53736W        W26029   4.297  18.764  12.831
53737W        W26030  25.032  44.384   3.209
53738W        W26031  18.590  22.558  12.828
53739W        W26032  22.667  38.048  12.901
53740W        W26033   6.684   3.435  11.372
53741W        W26034  41.918   3.337  13.491
53742W        W26035  36.363  43.430  10.598
53743W        W26036  43.994  42.842  11.886
53744W        W26037  19.628  25.615  10.926
53745W        W26038  18.665   3.782  12.510
53746W        W26039   3.928  11.637  11.592
53747W        W26040   4.806  28.500  12.876
53748W        W26041  38.063   1.954   3.211
53749W        W26042  18.217  25.119   2.803
53750W        W26043  25.077  38.847   4.228
53751W        W26044   4.430  31.944  13.319
53752W        W26045  34.044  18.244   2.838
53753W        W26046  36.547  23.029   3.642
53754W        W26047  30.450  16.278   1.885
53755W        W26048  25.606  35.436   0.905
53756W        W26049  15.777   8.322   2.868
53757W        W26050  43.342  32.590   0.384
53758W        W26051  33.045  42.326   4.249
53759W        W26052  22.085   2.812   9.623
53760W        W26053  21.136   2.900   1.927
53761W        W26054  40.421   3.403  11.029
53762W        W26055   9.751  36.519  10.993
53763W        W26056  41.521  24.675   2.847
53764W        W26057  16.228  26.051  10.544
53765W        W26058  32.944  42.835  11.505
53766W        W26059  27.457  25.590  12.572
53767W        W26060  41.446  39.981   0.843
53768W        W26061  16.627  35.359  12.869
53769W        W26062  24.198  36.883  13.048
53770W        W26063  12.721  16.718  13.903
53771W        W26064   4.405   8.317   0.935
53772W        W26065  26.684  25.188  10.506
53773W        W26066   9.688  23.506   1.365
53774W        W26067  25.079  30.474   4.213
53775W        W26068  28.089  38.922   0.463
53776W        W26069  41.528  27.611  14.899
53777W        W26070  31.526  26.679  11.452
53778W        W26071  31.492  35.881  12.947
53779W        W26072  13.260  15.589   1.273
53780W        W26073  30.528   4.801   0.259
53781W        W26074  33.082  22.667   2.182
53782W        W26075  40.015  21.709  12.526
53783W        W26076  43.388  16.800  12.858
53784W        W26077  26.647  27.037   0.245
53785W        W26078  42.371  40.981  10.531
53786W        W26079   4.914  23.546   2.359
53787W        W26080  32.038  19.071  11.448
53788W        W26081  33.130  12.222  14.768
53789W        W26082  35.900  22.252   3.778
53790W        W26083  17.079   7.349  11.509
53791W        W26084  19.229  27.485  14.008
53792W        W26085  14.801   3.438  11.089
53793W        W26086  24.634  41.870   4.336
53794W        W26087   8.754  27.563  11.418
53795W        W26088  41.524  12.649  11.874
53796W        W26089  20.732  21.078  10.999
53797W        W26090  26.616  22.660   0.477
53798W        W26091  11.355  42.873   2.226
53799W        W26092   6.327   6.903   4.633
53800W        W26093  43.016  28.448   4.697
53801W        W26094  36.460   7.842  13.490
53802W        W26095  14.289   1.913   0.259
53803W        W26096  38.963  20.062   3.718
53804W        W26097  30.479  31.002   2.241
53805W        W26098   3.428   8.882   4.209
53806W        W26099  37.337  23.565   9.946
53807W        W26100  27.978  13.752  12.921
53808W        W26101   6.361  13.840  13.407
53809W        W26102  41.042  30.004   2.868
53810W        W26103  14.631  39.975  11.972
53811W        W26104  20.116  31.070  12.872
53812W        W26105  27.027   9.717  13.032
53813W        W26106  35.067  36.982  12.480
53814W        W26107   1.316  10.803   0.962
53815W        W26108   9.710  32.899  12.091
53816W        W26109   3.404  10.212  13.407
53817W        W26110   0.416  20.118   2.679
53818W        W26111  15.783   3.899  13.878
53819W        W26112  16.203  23.692   2.763
53820W        W26113  39.514  26.134  12.074
53821W        W26114  13.301  38.918   3.294
53822W        W26115  16.257  11.212   1.844
53823W        W26116  29.918  20.703   1.854
53824W        W26117  42.380  23.056   2.735
53825W        W26118  38.527  18.647  14.448
53826W        W26119  39.371  10.379   3.691
53827W        W26120  15.207  41.832   4.182
53828W        W26121  19.161   0.866   0.968
53829W        W26122  23.572  20.712  14.455
53830W        W26123  35.371  12.732   3.193
53831W        W26124  13.248  10.365   2.697
53832W        W26125   1.788  22.653  12.434
53833W        W26126   0.290  31.142   0.428
53834W        W26127  43.850  39.472   4.179
53835W        W26128  32.597  16.697   2.900
53836W        W26129  17.770  24.569   0.391
53837W        W26130   2.330  24.011   1.714
53838W        W26131  41.814  40.043  14.468
53839W        W26132  41.951  27.096  11.998
53840W        W26133  26.650  43.919   2.191
53841W        W26134  39.354  17.207   3.808
53842W        W26135  11.788   3.897   1.225
53843W        W26136  12.836  42.479   0.949
53844W        W26137  42.916  23.678   0.926
53845W        W26138  15.128  12.278   4.602
53846W        W26139   9.825   6.871  10.643
53847W        W26140  32.941  38.331  11.877
53848W        W26141  43.985  27.495  11.601
53849W        W26142  39.530  30.909   1.818
53850W        W26143  23.612  15.117   3.203
53851W        W26144  21.693  10.840  13.382
53852W        W26145  38.027  25.174  11.966
53853W        W26146  18.630  32.023   3.262
53854W        W26147   4.869   6.819   4.136
53855W        W26148  31.005   2.778   1.747
53856W        W26149  34.061   5.926  14.782
53857W        W26150  20.244  24.098  13.034
53858W        W26151   7.177  30.949   4.736
53859W        W26152  43.514  32.889  12.900
53860W        W26153  31.049  23.181   1.433
53861W        W26154   6.719  15.694   0.303
53862W        W26155  28.648  27.170  12.956
53863W        W26156  42.953  29.129   4.703
53864W        W26157   5.747   5.739  12.844
53865W        W26158  23.166   5.895  10.599
53866W        W26159  20.680  30.591   2.394
53867W        W26160  35.496   3.790   0.800
53868W        W26161  18.685  23.108  11.974
53869W        W26162  17.227  35.096  10.958
53870W        W26163  30.917  22.609   0.731
53871W        W26164   0.939  29.061   1.771
53872W        W26165  36.417  23.668   0.310
53873W        W26166  44.389  18.108   5.309
53874W        W26167  32.011  29.108  11.977
53875W        W26168  28.596   3.918   4.213
53876W        W26169   5.277  10.778   3.336
53877W        W26170  19.141   7.884   1.863
53878W        W26171  16.124  36.406  10.539
53879W        W26172  24.673   0.321  13.469
53880W        W26173  32.528  35.005   2.231
53881W        W26174   7.279  36.538  11.410
53882W        W26175  39.478  25.683   3.372
53883W        W26176  15.682  31.026  13.998
53884W        W26177  41.534   4.451   3.860
53885W        W26178  11.331   2.766   4.134
53886W        W26179  37.482   9.832  11.400
53887W        W26180   8.794   1.386  14.490
53888W        W26181  42.522  42.432   1.335
53889W        W26182  14.666   3.838  14.951
53890W        W26183  27.503   3.804   2.812
53891W        W26184   7.299   3.881   2.855
53892W        W26185  41.509  44.786  10.971
53893W        W26186  37.845  39.366  13.330
53894W        W26187  22.029   9.326   1.229
53895W        W26188  21.571   2.745   2.319
53896W        W26189  14.682  27.973   0.326
53897W        W26190  35.480  14.192  12.096
53898W        W26191  26.641  17.115   4.281
53899W        W26192  11.656  36.545   4.160
53900W        W26193  39.436   7.754   4.296
53901W        W26194   2.751  11.275   2.214
53902W        W26195  13.829  27.685   0.365
53903W        W26196  22.514   2.929  13.407
53904W        W26197  24.186  36.994  11.094
53905W        W26198  23.657  33.604   1.697
53906W        W26199  14.709  27.688  11.430
53907W        W26200  25.130   9.359   2.729
53908W        W26201  27.128  17.230   4.255
53909W        W26202   5.306  43.378   1.220
53910W        W26203  20.240  35.401  12.958
53911W        W26204  16.579  16.316  14.864
53912W        W26205  41.454  40.969   2.681
53913W        W26206  12.335  12.634   2.279
53914W        W26207  22.628  34.495  13.875
53915W        W26208  42.996   6.884  11.063
53916W        W26209  11.725  17.629  13.894
53917W        W26210   2.772  44.874   4.773
53918W        W26211  28.656   4.837   1.263
53919W        W26212  35.488  31.030  13.355
53920W        W26213   7.886  17.578  10.644
53921W        W26214  42.934  19.660  10.115
53922W        W26215  38.466  38.417   4.319
53923W        W26216  26.102  42.792  12.996
53924W        W26217  23.092  35.388  13.907
53925W        W26218   2.770  11.325  14.428
53926W        W26219  43.001  23.089   1.392
53927W        W26220  43.303   8.176  12.515
53928W        W26221  24.997  22.163  11.881
53929W        W26222  15.743  38.025   4.814
53930W        W26223  13.176   7.739  12.040
53931W        W26224  39.007  17.622   1.318
53932W        W26225  22.522  32.140   2.855
53933W        W26226  17.598  20.721   3.231
53934W        W26227   6.218   7.866  11.028
53935W        W26228  35.023   2.956   3.172
53936W        W26229  42.807   8.677   0.749
53937W        W26230  37.860  12.764  14.995
53938W        W26231   0.903  28.627  14.319
53939W        W26232  17.210  12.693  11.923
53940W        W26233  30.518  37.851  12.084
53941W        W26234   9.324   9.359   3.837
53942W        W26235  25.080  28.510  11.479
53943W        W26236   0.750  44.423   0.902
53944W        W26237  15.128  30.157   3.335
53945W        W26238  23.092  20.118   1.825
53946W        W26239  24.666  13.704  10.585
53947W        W26240  14.219  29.025  13.344
53948W        W26241  28.617  34.445  11.433
53949W        W26242  11.803  33.006  10.491
53950W        W26243  24.187  27.196  10.893
53951W        W26244  33.007   3.810   3.243
53952W        W26245   7.728  41.880   1.363
53953W        W26246  13.618  13.327  13.379
53954W        W26247   8.238  23.699   3.207
53955W        W26248   9.880  29.953   1.352
53956W        W26249   4.387  20.165  13.792
53957W        W26250  39.548  40.887  12.941
53958W        W26251  28.590  42.909   9.926
53959W        W26252  23.078  22.678  14.384
53960W        W26253  36.090  20.718   0.377
53961W        W26254   8.275  34.982  10.409
53962W        W26255  16.099   5.704  11.435
53963W        W26256   8.683  39.420  11.526
53964W        W26257  32.047  21.678   3.712
53965W        W26258  24.718   8.822  12.980
53966W        W26259  30.018  21.752   2.261
53967W        W26260  19.585  34.509   4.159
53968W        W26261  31.957  30.001  14.851
53969W        W26262  40.029  43.895  14.891
53970W        W26263  15.617  39.021  11.442
53971W        W26264  10.260  30.445   3.649
53972W        W26265  22.635  14.200   9.978
53973W        W26266  16.294  17.647  11.040
53974W        W26267   1.977   7.217   4.306
53975W        W26268  44.480  32.955  14.456
53976W        W26269  42.866  22.641   2.738
53977W        W26270   3.762  22.661  13.873
53978W        W26271  22.712  26.691  13.808
53979W        W26272  25.666  29.072  14.276
53980W        W26273  10.171  34.946   5.302
53981W        W26274  14.310  17.767  13.049
53982W        W26275  12.260  28.140   2.829
53983W        W26276   9.187  27.508  11.017
53984W        W26277  10.169  26.191  14.337
53985W        W26278  29.474   6.258   2.738
53986W        W26279  25.218   8.797  13.836
53987W        W26280  29.988  38.058   3.775
53988W        W26281  44.928  36.955   9.515
53989W        W26282  42.821   7.227  12.373
53990W        W26283  10.844  10.736   2.361
53991W        W26284  11.285  42.432   4.175
53992W        W26285  18.122  34.119   0.395
53993W        W26286  44.287  22.010   0.953
53994W        W26287  42.298  13.662  12.418
53995W        W26288   3.294  30.554   4.274
53996W        W26289  28.669   7.267   0.296
53997W        W26290  37.064   6.680   2.753
53998W        W26291  14.212  26.672  11.432
53999W        W26292  27.653  25.574   2.747
54000W        W26293  33.564  15.198  13.889
54001W        W26294  14.150  26.562   1.703
54002W        W26295  29.036  32.901  11.397
54003W        W26296  10.306  27.646   2.179
54004W        W26297   8.176  40.008  13.933
54005W        W26298  21.098  38.068   3.189
54006W        W26299  28.655   1.295  12.078
54007W        W26300  44.889   4.855   0.936
54008W        W26301   6.702   9.669   4.188
54009W        W26302   0.405   8.344  11.000
54010W        W26303  21.222   5.819  10.590
54011W        W26304  15.641  31.037  12.075
54012W        W26305  20.684  22.097  11.558
54013W        W26306  36.861  30.587  12.007
54014W        W26307   2.918  15.253  14.927
54015W        W26308  10.360  28.016  12.379
54016W        W26309  15.798  24.161  12.431
54017W        W26310   8.403  25.075  12.972
54018W        W26311   9.808  10.798   0.797
54019W        W26312  11.278  29.928   2.180
54020W        W26313  10.234   4.281  12.917
54021W        W26314  10.290   9.767   9.933
54022W        W26315   6.370  16.149  12.360
54023W        W26316   5.296  31.054  12.006
54024W        W26317  38.462  25.141   0.900
54025W        W26318  31.518  17.247  12.339
54026W        W26319  36.523  34.380  10.931
54027W        W26320  41.024  23.039  14.001
54028W        W26321  32.931   1.421  10.553
54029W        W26322   1.316   2.348  11.973
54030W        W26323  20.625  13.199   0.838
54031W        W26324   4.217  20.551  13.944
54032W        W26325  38.509   6.864  10.896
54033W        W26326  19.648  32.445   2.253
54034W        W26327  29.010   4.786  10.929
54035W        W26328  11.263   7.313  11.412
54036W        W26329   5.278  34.468  14.483
54037W        W26330  25.981   6.296  12.429
54038W        W26331  18.063   1.380   4.764
54039W        W26332  41.386   6.312  13.972
54040W        W26333  40.324  11.285  14.376
54041W        W26334  31.403   8.882  14.359
54042W        W26335  31.147  26.013  13.815
54043W        W26336  29.617  22.230  10.928
54044W        W26337  35.852  23.009   3.644
54045W        W26338  10.256  34.585  12.361
54046W        W26339  10.279   4.930  13.944
54047W        W26340  22.242   2.363   0.731
54048W        W26341  30.084   9.318  10.618
54049W        W26342  42.287  25.606   4.752
54050W        W26343  35.018   9.244  13.480
54051W        W26344  20.573  31.642  10.406
54052W        W26345  35.383  15.679  11.118
54053W        W26346  12.255  15.788   4.808
54054W        W26347  36.981  20.229   1.314
54055W        W26348   4.230   7.721   4.143
54056W        W26349  11.805  42.909   9.925
54057W        W26350  28.480  33.534  14.403
54058W        W26351  36.993  43.845   0.796
54059W        W26352  16.724   1.412   3.748
54060W        W26353  29.598  30.976  14.968
54061W        W26354  42.899   2.805   2.853
54062W        W26355  31.593   7.750  14.498
54063W        W26356   7.712  29.466   2.846
54064W        W26357   1.783   4.878  11.094
54065W        W26358  33.130  29.603  10.507
54066W        W26359   2.472  42.930   0.823
54067W        W26360  38.866   2.434  12.878
54068W        W26361  11.155  34.410  12.571
54069W        W26362  31.474   3.915   3.383
54070W        W26363  23.135  44.408  13.043
54071W        W26364  44.464  43.772   1.837
54072W        W26365  16.314   8.359  11.048
54073W        W26366   5.865   0.958  14.453
54074W        W26367  44.400  31.463   3.863
54075W        W26368  32.011  38.823   5.233
54076W        W26369  32.101  39.505   2.282
54077W        W26370   2.758  31.962  14.960
54078W        W26371  28.680   4.394   0.388
54079W        W26372  27.546  19.608  10.440
54080W        W26373  31.437  21.100  11.048
54081W        W26374  34.440  43.019   4.643
54082W        W26375  39.954  41.964  12.884
54083W        W26376  37.960  28.575   3.842
54084W        W26377  38.002  33.618  14.853
54085W        W26378  44.451  36.412   2.851
54086W        W26379  41.525  32.410  14.515
54087W        W26380  24.509  16.182  13.400
54088W        W26381  37.930  18.070  11.987
54089W        W26382  32.466  15.580   4.184
54090W        W26383  40.462  25.096   0.763
54091W        W26384  32.432  44.303   4.820
54092W        W26385  43.388  33.039   3.242
54093W        W26386  42.837  34.030   0.864
54094W        W26387  26.647  28.113  14.481
54095W        W26388  22.576  34.066  13.015
54096W        W26389  11.237  18.703   3.679
54097W        W26390  22.672  10.344   3.720
54098W        W26391  34.954  10.214   1.806
54099W        W26392  26.567   5.883   2.674
54100W        W26393  17.665  25.641   1.347
54101W        W26394  19.652  40.420  11.901
54102W        W26395  17.775   4.369  11.090
54103W        W26396  32.566  27.957   2.242
54104W        W26397  19.099   5.348  14.882
54105W        W26398  26.992  15.133   0.854
54106W        W26399  42.469   6.679  13.547
54107W        W26400  12.621  30.571   1.818
54108W        W26401   5.426  22.122  12.063
54109W        W26402  42.945  27.670   4.285
54110W        W26403  15.133  16.794   3.782
54111W        W26404  20.561  38.969   1.880
54112W        W26405   2.451  15.235   0.865
54113W        W26406   9.793  15.731   2.739
54114W        W26407  36.353  11.671   4.275
54115W        W26408  16.747   5.216  10.605
54116W        W26409  41.844   7.257   3.158
54117W        W26410  15.293  15.262   4.233
54118W        W26411  33.436  13.273   3.658
54119W        W26412  18.550  41.415  13.513
54120W        W26413  35.035  30.973   1.234
54121W        W26414  26.695  20.174  13.343
54122W        W26415   6.356   7.789  14.030
54123W        W26416   5.728   5.710   3.728
54124W        W26417  20.582   2.466  12.468
54125W        W26418  36.413  26.513  13.044
54126W        W26419  23.669  43.827  11.995
54127W        W26420  38.982  38.464   0.410
54128W        W26421   5.331   3.273   3.172
54129W        W26422  38.561  38.408  10.424
54130W        W26423  38.541  25.611  12.487
54131W        W26424   4.903  19.538  14.357
54132W        W26425  24.490  16.753  13.830
54133W        W26426  36.960  10.295  11.948
54134W        W26427  28.530  15.266   1.834
54135W        W26428  17.067  28.126  14.392
54136W        W26429  12.306  41.315  14.956
54137W        W26430  38.048   6.698   0.852
54138W        W26431  14.650  41.843   0.343
54139W        W26432  38.476  35.983   0.452
54140W        W26433   5.289  40.876   1.918
54141W        W26434  10.848   9.280  11.584
54142W        W26435  27.552   0.270   1.932
54143W        W26436   4.284  29.952   0.887
54144W        W26437  44.878   3.916  11.000
54145W        W26438  15.680  31.984   3.252
54146W        W26439  15.685  22.027  14.290
54147W        W26440   9.690  10.283   3.335
54148W        W26441  29.056  19.672   0.913
54149W        W26442  30.031  35.002   4.682
54150W        W26443  25.083  27.576  10.473
54151W        W26444  41.308  25.676   0.937
54152W        W26445  13.316  16.601   1.301
54153W        W26446  15.104   9.315  12.423
54154W        W26447  42.312   6.208   2.348
54155W        W26448   2.822  16.723   1.764
54156W        W26449   2.360  23.014  10.451
54157W        W26450  25.570  27.659   0.295
54158W        W26451  16.152  11.640  10.562
54159W        W26452  22.174   2.965   1.359
54160W        W26453  28.102  36.069   4.731
54161W        W26454  22.701   6.715   0.267
54162W        W26455   8.882  21.553  13.516
54163W        W26456   9.735  22.109  11.074
54164W        W26457   6.422  26.591  14.956
54165W        W26458  44.371  17.572   1.911
54166W        W26459  21.732  29.438   1.870
54167W        W26460  33.088  15.684  12.976
54168W        W26461  11.226   7.397   1.708
54169W        W26462  28.581  28.140   3.192
54170W        W26463  11.793  20.272   0.871
54171W        W26464  30.921  26.586  12.062
54172W        W26465  24.023  19.269  12.964
54173W        W26466  44.335  36.912   5.805
54174W        W26467  28.967  29.036   4.116
54175W        W26468   5.712  20.113  11.023
54176W        W26469  40.436   4.701  10.606
54177W        W26470  31.150  40.875  12.992
54178W        W26471   7.852  40.008   0.810
54179W        W26472  24.992  24.682  11.870
54180W        W26473   5.810  31.092  11.011
54181W        W26474  16.305  14.094  13.799
54182W        W26475   6.893   7.715   3.853
54183W        W26476   5.221  37.530  10.588
54184W        W26477  36.971  28.097   4.690
54185W        W26478  44.361  38.450   3.697
54186W        W26479  21.720  31.637  14.393
54187W        W26480   5.379  33.543   1.219
54188W        W26481   4.783  19.227   4.314
54189W        W26482  33.951  33.961  14.874
54190W        W26483   3.805   6.742  13.384
54191W        W26484  20.734   0.269  14.808
54192W        W26485   0.901   2.382  14.373
54193W        W26486   5.199  20.132  13.385
54194W        W26487  25.178  17.275   0.777
54195W        W26488  10.861  26.116   3.837
54196W        W26489  22.700  18.075  13.947
54197W        W26490  29.932  33.015   0.938
54198W        W26491  42.993  16.186  10.010
54199W        W26492  42.921  41.871   3.866
54200W        W26493  35.487   8.256   3.717
54201W        W26494  23.572  36.021   1.242
54202W        W26495  39.361  26.686  12.574
54203W        W26496  35.431  27.193  11.546
54204W        W26497   9.848  31.405   2.859
54205W        W26498  12.847  24.556  10.934
54206W        W26499  15.790  20.573  12.355
54207W        W26500  20.635  15.728  13.479
54208W        W26501  15.639   5.216  10.160
54209W        W26502   5.271  29.144  10.632
54210W        W26503  22.182  28.137   3.729
54211W        W26504  41.930  15.155  14.351
54212W        W26505  22.746  36.882  12.861
54213W        W26506   1.249   1.475   2.389
54214W        W26507  28.538   9.310  12.986
54215W        W26508   7.256   0.341   2.200
54216W        W26509  10.794   8.824   4.712
54217W        W26510  36.537  36.358   4.820
54218W        W26511  14.249  35.955  11.114
54219W        W26512  24.501   8.726   3.661
54220W        W26513  15.266  42.015   4.767
54221W        W26514   4.937  38.537   4.275
54222W        W26515  20.150  32.981  12.553
54223W        W26516  16.702  14.792   4.148
54224W        W26517  38.490  30.439   4.193
54225W        W26518  28.115  19.196   4.235
54226W        W26519  38.839  42.857   3.286
54227W        W26520  26.699   7.786   2.410
54228W        W26521  12.789  33.100   0.250
54229W        W26522  37.355  32.031   0.732
54230W        W26523   0.302  23.620  14.440
54231W        W26524  10.685   0.305   3.697
54232W        W26525  33.522  15.215   5.283
54233W        W26526  40.864  38.498  10.406
54234W        W26527  13.282   3.796  11.487
54235W        W26528  31.526   1.859  14.433
54236W        W26529  38.520  18.275   1.835
54237W        W26530  11.208  39.464   4.328
54238W        W26531  11.180   4.705   2.414
54239W        W26532   1.912  37.460  13.465
54240W        W26533   4.880  21.586   3.311
54241W        W26534   5.310  13.262  12.049
54242W        W26535  41.885  28.498  13.347
54243W        W26536   4.372  14.263   3.181
54244W        W26537  26.496  13.762  10.941
54245W        W26538  24.030   1.797   0.457
54246W        W26539   0.936  15.723   0.923
54247W        W26540  31.997   2.312  14.894
54248W        W26541  44.006  20.752   4.673
54249W        W26542   8.174   3.367   0.279
54250W        W26543   8.198   1.902  14.302
54251W        W26544  44.413  19.055   9.498
54252W        W26545  23.651  29.535  10.542
54253W        W26546  38.849  28.121   3.776
54254W        W26547  20.709  27.088   0.362
54255W        W26548   1.459   0.355   2.364
54256W        W26549  24.652   7.198   2.207
54257W        W26550  37.046  11.638   3.241
54258W        W26551  21.044   4.366  14.370
54259W        W26552  19.048  30.443   2.340
54260W        W26553  13.692   4.738   3.689
54261W        W26554  21.175   9.680  11.920
54262W        W26555   1.240   9.224  13.336
54263W        W26556  21.644  39.434  13.823
54264W        W26557  10.207   0.386   0.932
54265W        W26558  28.115   4.867   4.284
54266W        W26559  25.668  32.020   0.355
54267W        W26560   4.762  25.700  11.462
54268W        W26561  41.468  30.084  13.879
54269W        W26562  30.529  35.421  13.358
54270W        W26563  31.024  40.495   4.781
54271W        W26564  33.558  36.472   3.814
54272W        W26565  40.952  19.150   3.350
54273W        W26566  34.905  36.568   3.317
54274W        W26567   8.899  31.960  14.904
54275W        W26568   6.348  30.940   4.230
54276W        W26569  34.031  33.621  11.567
54277W        W26570  41.361  18.054   0.928
54278W        W26571  15.114  16.576   2.410
54279W        W26572  28.081  36.585  13.543
54280W        W26573  41.311   0.887  11.048
54281W        W26574  25.101  27.140   4.351
54282W        W26575  24.567  42.292  14.994
54283W        W26576  23.608  44.401  11.409
54284W        W26577  44.491  20.742  12.010
54285W        W26578  22.561  43.859  14.846
54286W        W26579  35.979  31.992  13.912
54287W        W26580   7.219  42.807  13.488
54288W        W26581  28.017  24.179   5.805
54289W        W26582  28.605  20.222  11.066
54290W        W26583  33.070  12.141   0.327
54291W        W26584  21.100  35.586   4.667
54292W        W26585  37.371   8.229  12.381
54293W        W26586  12.192   7.696  10.890
54294W        W26587  36.852  44.429   4.721
54295W        W26588  25.035  18.064  12.019
54296W        W26589  13.161  21.238   3.215
54297W        W26590   5.406  32.525  13.886
54298W        W26591  43.895  32.596   3.733
54299W        W26592  20.615  19.653   5.108
54300W        W26593  27.056  12.705   3.835
54301W        W26594  14.147  19.615   2.381
54302W        W26595  13.126   1.475   0.807
54303W        W26596  13.171  24.608  12.947
54304W        W26597  10.847  44.395   0.795
54305W        W26598  20.594  15.141  10.600
54306W        W26599   3.425  10.260   3.835
54307W        W26600   8.783  15.308  14.988
54308W        W26601  14.614  12.220  14.348
54309W        W26602  30.501  27.681   0.278
54310W        W26603  42.033  37.349   2.233
54311W        W26604  14.332   4.297   3.235
54312W        W26605   8.179  14.782  12.874
54313W        W26606  34.442  11.223   4.767
54314W        W26607  20.197  31.998  11.876
54315W        W26608  17.782  19.227   2.301
54316W        W26609  26.601   7.724  11.890
54317W        W26610  15.744  30.041   4.140
54318W        W26611  25.470  25.071  11.442
54319W        W26612  27.599  41.914   2.366
54320W        W26613  18.136  39.372  14.347
54321W        W26614  28.144  33.006   1.871
54322W        W26615  30.463  43.984  14.907
54323W        W26616   4.879   6.321   4.624
54324W        W26617   0.257  42.428  11.866
54325W        W26618  15.771   5.821   3.188
54326W        W26619  25.150  28.505   2.724
54327W        W26620  36.510  23.071   0.835
54328W        W26621  43.924  16.160   4.231
54329W        W26622  34.997  44.962  10.488
54330W        W26623  17.236  31.060  14.812
54331W        W26624  30.082  29.016   3.225
54332W        W26625  33.035  23.617   0.284
54333W        W26626  14.640  34.490  14.327
54334W        W26627   1.438   1.279  13.975
54335W        W26628  36.874  20.760  12.574
54336W        W26629   1.377  40.946   0.764
54337W        W26630  44.903  35.371   3.230
54338W        W26631   9.291  12.233  14.471
54339W        W26632  40.851   3.729  10.542
54340W        W26633  15.196   4.384   0.872
54341W        W26634  37.033  15.256  13.973
54342W        W26635  24.019  37.365   0.379
54343W        W26636  10.254  11.736   2.749
54344W        W26637  14.134  15.596   0.413
54345W        W26638  16.139  36.045  14.973
54346W        W26639  35.393  23.696   2.819
54347W        W26640  43.012  20.258  14.310
54348W        W26641  37.968   4.351  11.048
54349W        W26642   0.799  40.963  14.884
54350W        W26643   1.325  36.564   3.807
54351W        W26644  14.753  10.203   2.239
54352W        W26645   5.846  44.887  13.910
54353W        W26646  39.322  38.480   4.224
54354W        W26647  20.548  39.412   2.841
54355W        W26648  19.192  10.723  12.532
54356W        W26649  37.539  42.490   1.340
54357W        W26650   6.719  18.091   3.855
54358W        W26651  30.155  18.760   4.688
54359W        W26652  25.583  28.969   3.676
54360W        W26653  35.567  37.426   3.731
54361W        W26654  34.112  43.497   3.166
54362W        W26655  43.430   7.316  11.397
54363W        W26656  18.152  41.414  11.927
54364W        W26657  15.651  16.612  10.087
54365W        W26658  29.537  12.684  10.534
54366W        W26659  33.876  23.002  11.899
54367W        W26660  33.396  15.646  13.803
54368W        W26661  35.979  38.473  13.791
54369W        W26662  17.287  16.585   3.730
54370W        W26663   4.871  26.145   1.747
54371W        W26664   8.184  44.778  11.478
54372W        W26665  28.590  44.956  13.491
54373W        W26666  23.136  15.599  13.390
54374W        W26667   7.244  27.692   1.698
54375W        W26668  14.278   3.353  14.825
54376W        W26669  17.166   0.480  10.090
54377W        W26670   8.287   2.906   3.190
54378W        W26671  16.160  38.476   0.920
54379W        W26672  44.788  11.834  10.572
54380W        W26673  17.181   4.700  14.865
54381W        W26674   5.328  20.228   4.301
54382W        W26675  34.411  10.369  14.516
54383W        W26676  24.135   0.333   3.278
54384W        W26677  40.458  10.261   1.828
54385W        W26678  25.532  25.600  10.449
54386W        W26679  24.719  41.973   3.330
54387W        W26680   8.658  14.227   0.821
54388W        W26681   5.886  10.312   2.289
54389W        W26682   0.937  25.651  10.558
54390W        W26683  17.797  42.925   2.692
54391W        W26684  14.244  18.112   4.634
54392W        W26685   8.846   7.910   1.863
54393W        W26686  17.285  37.860   0.258
54394W        W26687   0.365  42.995   2.206
54395W        W26688   0.450   6.694  14.982
54396W        W26689   1.931  23.589   2.782
54397W        W26690  21.070  18.269  11.873
54398W        W26691  29.521  16.676  11.989
54399W        W26692  35.425  41.042  13.492
54400W        W26693  30.010  23.205  12.960
54401W        W26694  11.697   8.709   0.762
54402W        W26695  43.348  27.145  14.425
54403W        W26696  27.021  44.987  12.933
54404W        W26697   2.789  25.111   4.692
54405W        W26698  27.127  28.600  14.935
54406W        W26699  14.685  12.649  11.528
54407W        W26700  16.121  26.589   0.458
54408W        W26701  31.490  21.524   3.668
54409W        W26702  11.706   4.322  14.008
54410W        W26703  35.997   0.296  10.540
54411W        W26704   6.686  43.969  11.591
54412W        W26705  19.549  18.694   3.164
54413W        W26706   4.758  17.709  12.008
54414W        W26707   4.418  42.847  11.605
54415W        W26708  31.053  43.286   1.886
54416W        W26709   4.433   0.909   1.762
54417W        W26710  43.857  35.977   2.663
54418W        W26711  16.080  12.750  11.014
54419W        W26712  44.458  15.628  11.072
54420W        W26713   2.757  18.204   2.876
54421W        W26714  38.819  31.024  13.428
54422W        W26715   7.888   9.386  10.637
54423W        W26716  36.949  36.390  13.496
54424W        W26717   1.847  42.978   1.733
54425W        W26718  28.170   1.952  11.400
54426W        W26719   3.399  23.048  12.482
54427W        W26720  37.449  41.304  12.898
54428W        W26721   5.860   3.864  14.466
54429W        W26722  39.964  13.172   4.602
54430W        W26723  25.547  44.981  11.100
54431W        W26724  36.004  17.227  10.924
54432W        W26725  22.623  34.392   0.962
54433W        W26726  14.614   6.319   4.206
54434W        W26727   8.759   8.672   3.306
54435W        W26728  31.901  39.919  11.512
54436W        W26729  38.328  31.108   4.671
54437W        W26730   6.677  15.740   1.328
54438W        W26731  39.383  36.394   2.878
54439W        W26732  40.476   8.683   0.853
54440W        W26733  16.787  21.578  13.855
54441W        W26734  33.875  31.538   0.932
54442W        W26735  35.086  26.159  14.499
54443W        W26736   0.976  12.706  11.473
54444W        W26737   1.329  14.595   1.372
54445W        W26738  25.067   3.888  14.306
54446W        W26739  20.531  38.420   3.205
54447W        W26740  26.672  31.515   3.642
54448W        W26741   0.809  40.027   2.270
54449W        W26742   6.186  20.676  10.541
54450W        W26743  31.916   2.839   2.219
54451W        W26744  19.646  25.653  11.523
54452W        W26745  11.665  10.337   1.219
54453W        W26746   0.371   2.873   1.282
54454W        W26747  23.145  23.645  12.460
54455W        W26748  29.965   5.371   3.215
54456W        W26749   7.278  41.977   0.377
54457W        W26750  21.667  34.440  11.371
54458W        W26751  22.996  25.629  14.028
54459W        W26752  34.924  33.534  11.464
54460W        W26753  29.933  32.617   2.767
54461W        W26754   8.249   2.748   4.260
54462W        W26755   9.796   6.713  10.998
54463W        W26756  11.349  22.554   3.708
54464W        W26757  39.846   3.951   4.279
54465W        W26758  22.565   4.426  11.097
54466W        W26759  12.611  31.479  12.439
54467W        W26760  22.028  43.823  13.014
54468W        W26761  11.781  38.994   3.153
54469W        W26762  26.143   1.849  14.466
54470W        W26763  26.616   3.747   3.281
54471W        W26764  37.075  24.090  13.542
54472W        W26765  32.930  30.618   3.775
54473W        W26766   2.916  43.924   1.297
54474W        W26767  10.212  42.962   0.955
54475W        W26768  11.182  21.261   1.712
54476W        W26769  33.971  21.661  10.967
54477W        W26770   4.928  23.172   0.289
54478W        W26771  38.388  22.723   0.809
54479W        W26772  23.238  19.627  13.447
54480W        W26773  13.224  38.983  14.872
54481W        W26774   6.384  39.885  12.890
54482W        W26775  42.954   0.889  14.890
54483W        W26776  15.284  12.358   4.319
54484W        W26777  35.998  26.116   0.875
54485W        W26778  26.650  31.110  10.930
54486W        W26779   4.220  23.997   2.283
54487W        W26780  41.827  22.132  11.027
54488W        W26781   0.282  30.131  10.967
54489W        W26782   4.321  21.233  11.437
54490W        W26783  43.355  25.052   4.685
54491W        W26784  32.902  10.196   4.660
54492W        W26785  41.900  28.078   1.374
54493W        W26786  16.758   1.307   0.853
54494W        W26787  36.514  27.011  11.083
54495W        W26788  17.079  32.122  11.090
54496W        W26789  37.973  22.170  14.345
54497W        W26790  16.204  43.962  10.933
54498W        W26791   8.733   9.738   0.250
54499W        W26792  23.578  18.123   0.727
54500W        W26793  42.031  43.996   3.758
54501W        W26794   8.387   5.377  14.353
54502W        W26795  24.066  12.221   3.852
54503W        W26796   4.378  15.120  14.922
54504W        W26797  29.584  32.579  14.418
54505W        W26798  39.831  22.703   3.288
54506W        W26799  22.215   7.665  13.830
54507W        W26800  21.533  12.199  13.945
54508W        W26801  31.435  18.754   2.868
54509W        W26802  43.798  23.611  11.457
54510W        W26803   9.325  32.584   1.430
54511W        W26804   0.328  21.254  12.936
54512W        W26805   0.321  41.884   4.604
54513W        W26806  28.176  27.973  14.849
54514W        W26807  13.650  41.483  13.918
54515W        W26808  42.030  17.709   3.287
54516W        W26809   4.803  26.095  13.859
54517W        W26810   9.226  28.972  11.550
54518W        W26811  38.421  42.991   3.747
54519W        W26812  16.098   1.344   1.299
54520W        W26813  37.489   1.873   1.316
54521W        W26814  39.940  17.579  11.479
54522W        W26815  22.238   9.836  10.907
54523W        W26816  14.758  13.197  12.447
54524W        W26817  43.379   8.852   0.781
54525W        W26818  30.513  27.180   2.229
54526W        W26819  38.838  26.170   0.753
54527W        W26820   5.705  32.909  12.556
54528W        W26821   8.298  26.572  14.404
54529W        W26822  24.160  20.138  14.503
54530W        W26823  41.793  14.774   3.217
54531W        W26824  42.954  31.458  14.894
54532W        W26825  19.651  33.389  12.498
54533W        W26826  27.993  29.670  12.508
54534W        W26827   5.268  20.696   3.215
54535W        W26828  32.964  44.840  13.547
54536W        W26829  41.437   5.242  13.492
54537W        W26830  33.992  34.375  13.500
54538W        W26831  40.899   1.735  12.091
54539W        W26832  32.912  21.113  10.558
54540W        W26833  11.212  38.961  14.026
54541W        W26834   4.835   6.317   0.454
54542W        W26835  10.358  27.457   5.321
54543W        W26836  14.141  33.486   3.689
54544W        W26837  35.492  39.054  13.015
54545W        W26838  22.148  37.950  11.392
54546W        W26839  29.089  15.704  11.608
54547W        W26840   5.391  10.852   4.786
54548W        W26841  43.440  26.591   5.301
54549W        W26842  14.648  18.213  11.858
54550W        W26843  10.160  37.023  13.490
54551W        W26844  30.430  15.734   5.186
54552W        W26845  33.576  41.425   3.754
54553W        W26846   9.243  17.271  12.013
54554W        W26847  27.130  26.615   4.622
54555W        W26848  16.149  35.565   2.379
54556W        W26849  39.492   6.263   2.856
54557W        W26850  39.447  19.597   4.738
54558W        W26851  37.399  20.249   2.830
54559W        W26852  29.122  40.843  10.948
54560W        W26853   9.356   3.425  14.810
54561W        W26854  12.643  33.595   2.816
54562W        W26855  32.064  22.059  10.536
54563W        W26856  25.699  43.466   3.831
54564W        W26857  31.039  17.266  11.482
54565W        W26858  10.285  27.568  12.453
54566W        W26859   0.987  41.874   2.796
54567W        W26860  41.808  19.701  10.902
54568W        W26861  28.456   2.362   1.432
54569W        W26862  36.497  24.634   1.248
54570W        W26863  28.523   8.186   1.819
54571W        W26864  20.594  23.626   3.330
54572W        W26865  28.125  42.517  11.543
54573W        W26866  44.769  33.587  12.345
54574W        W26867   3.779  11.856   1.292
54575W        W26868  20.689   3.847   4.119
54576W        W26869  24.504  27.025  13.868
54577W        W26870   9.654  20.752   3.705
54578W        W26871  16.203  41.939  14.464
54579W        W26872  29.487  24.584   1.263
54580W        W26873  28.975  43.275   3.727
54581W        W26874  30.118  21.511   1.295
54582W        W26875  42.441  29.636  14.370
54583W        W26876   5.926  12.354  13.057
54584W        W26877   5.790  40.341  13.472
54585W        W26878  22.636  19.644   4.610
54586W        W26879  25.094  11.863   3.178
54587W        W26880  33.399  18.196   3.267
54588W        W26881  22.136  31.074  14.322
54589W        W26882  13.178   7.677  13.465
54590W        W26883  29.491   7.716  11.068
54591W        W26884   7.288  30.581   4.299
54592W        W26885   0.447  11.283  12.516
54593W        W26886  43.386   9.345   2.816
54594W        W26887  17.771  37.913  10.551
54595W        W26888  40.801  13.750  10.629
54596W        W26889  28.517  27.146   3.378
54597W        W26890  23.232  13.833   4.155
54598W        W26891  43.823   2.931  12.406
54599W        W26892  14.209   0.846  13.887
54600W        W26893   0.474  38.524   2.219
54601W        W26894   5.713  23.197   1.447
54602W        W26895  22.105  10.322   0.374
54603W        W26896   4.823  31.449  10.585
54604W        W26897  21.112  22.205   0.917
54605W        W26898   7.187  26.054  12.842
54606W        W26899  27.103   4.909   4.614
54607W        W26900  35.019  43.299  11.031
54608W        W26901  17.592   9.754   2.414
54609W        W26902  38.531  43.336   4.334
54610W        W26903  12.650  14.253   3.309
54611W        W26904  32.993  15.205   4.710
54612W        W26905  40.464   7.902   0.457
54613W        W26906  19.688  22.048   0.910
54614W        W26907  35.360  11.137  11.551
54615W        W26908  31.951  20.156   0.773
54616W        W26909  36.469  11.136   2.665
54617W        W26910   0.761   8.803  12.540
54618W        W26911  30.042  43.792   4.696
54619W        W26912  28.183  32.979  13.842
54620W        W26913  41.845   1.455   1.718
54621W        W26914   4.831  15.104  13.061
54622W        W26915  30.568  42.846   1.920
54623W        W26916   0.325   2.361  14.885
54624W        W26917  25.587   9.771   2.199
54625W        W26918  32.112  22.742  10.599
54626W        W26919  12.301   7.794   3.367
54627W        W26920  25.036  43.277  11.515
54628W        W26921  38.554  40.003   4.812
54629W        W26922  43.306  29.554   4.775
54630W        W26923  31.452  40.406   1.292
54631W        W26924  17.768  39.541   3.213
54632W        W26925  12.666  25.143   1.211
54633W        W26926  21.734  13.317  11.443
54634W        W26927   8.725  32.477   0.951
54635W        W26928   2.266  40.963   1.351
54636W        W26929   5.887  10.828   2.249
54637W        W26930  38.888  28.136  12.388
54638W        W26931  35.535  19.214  11.537
54639W        W26932  41.292   7.768   3.367
54640W        W26933  26.019  29.048   0.305
54641W        W26934  26.137  13.299  13.814
54642W        W26935   6.885   9.321  11.518
54643W        W26936   7.379  18.595  14.843
54644W        W26937  36.558  41.043   3.166
54645W        W26938  18.710   0.392  12.495
54646W        W26939  15.783  27.155   0.411
54647W        W26940  11.759   9.155  10.888
54648W        W26941  41.521   6.916   4.610
54649W        W26942  23.031  17.305  10.937
54650W        W26943  12.133  20.562  14.871
54651W        W26944   7.673  44.992   0.815
54652W        W26945  31.152  30.097  12.410
54653W        W26946  24.711  25.004   1.317
54654W        W26947   1.401  12.170   0.750
54655W        W26948  25.576  37.487  14.930
54656W        W26949  16.611  44.906   1.286
54657W        W26950   2.945  31.645  12.834
54658W        W26951  22.507  37.429  12.933
54659W        W26952  43.004  37.013  11.110
54660W        W26953   1.954   8.873   2.716
54661W        W26954  11.190  10.814   4.318
54662W        W26955  31.462   8.296  11.506
54663W        W26956  29.076  21.085   3.803
54664W        W26957  13.176  28.945  12.037
54665W        W26958  24.706  22.241  12.460
54666W        W26959  33.999  11.238   3.764
54667W        W26960  22.164  33.033  14.336
54668W        W26961   7.330  38.485  12.928
54669W        W26962   5.294  36.958   4.826
54670W        W26963  28.447  38.449   1.264
54671W        W26964  44.317  23.528  14.938
54672W        W26965   5.349  39.915  14.930
54673W        W26966  16.118  30.164  10.508
54674W        W26967  11.753  32.125   5.203
54675W        W26968  44.386   3.937  10.625
54676W        W26969  23.009   9.729   3.189
54677W        W26970  28.658  22.243   4.834
54678W        W26971  35.054  23.558   2.307
54679W        W26972  22.226  30.102   3.349
54680W        W26973  14.667  25.124  11.416
54681W        W26974   0.945  30.069   3.212
54682W        W26975  30.581   3.225   0.893
54683W        W26976  40.318  34.894   1.876
54684W        W26977  35.030   1.760   0.269
54685W        W26978  31.132  27.966  12.522
54686W        W26979  32.957  32.565   4.210
54687W        W26980   4.246  43.839   4.179
54688W        W26981   3.798  43.319  12.982
54689W        W26982  25.210  31.952  14.962
54690W        W26983  22.056  30.021  12.431
54691W        W26984  18.119  30.463  14.870
54692W        W26985  33.912  37.904  13.451
54693W        W26986   4.866   2.918  11.935
54694W        W26987  19.660  11.352   4.312
54695W        W26988  23.192  18.662  12.007
54696W        W26989   5.705  41.891  11.443
54697W        W26990   3.830   1.752  12.949
54698W        W26991   1.440  30.041  14.781
54699W        W26992  32.074  13.138  14.470
54700W        W26993  16.280  33.028   2.704
54701W        W26994  19.249  26.042  13.533
54702W        W26995  18.775  24.558   1.779
54703W        W26996  19.553  14.724  14.438
54704W        W26997   2.872  37.459  11.498
54705W        W26998  23.101   8.382  12.416
54706W        W26999  28.054  27.181  12.554
54707W        W27000  32.116  43.980  12.545
54708W        W27001  27.445  10.188   4.225
54709W        W27002   2.927   1.477   4.760
54710W        W27003  43.844  40.910   1.742
54711W        W27004  34.087  35.467   1.447
54712W        W27005  39.547  39.342   4.736
54713W        W27006  15.821   8.263  10.967
54714W        W27007  37.337  39.912   4.235
54715W        W27008  43.514  10.854   2.226
54716W        W27009   4.715  36.434   0.348
54717W        W27010  19.210   4.445  14.427
54718W        W27011   4.753  41.333   4.291
54719W        W27012  43.772  36.528  13.373
54720W        W27013  42.799  44.999  12.516
54721W        W27014  43.395  15.230   4.350
54722W        W27015  33.097  14.688  11.475
54723W        W27016  19.197  11.288  13.942
54724W        W27017  10.666   0.368  13.481
54725W        W27018  38.514  15.580   2.890
54726W        W27019  24.649  18.677  14.385
54727W        W27020  21.544  41.028   4.141
54728W        W27021  15.663  10.287   5.189
54729W        W27022  34.540  30.426   2.413
54730W        W27023  44.944  29.529   4.287
54731W        W27024  13.300  21.151  12.481
54732W        W27025   0.822  22.718  14.442
54733W        W27026   4.384  30.116   4.794
54734W        W27027  36.841  33.614  13.509
54735W        W27028  34.487  40.806   2.884
54736W        W27029  10.226  44.950  12.045
54737W        W27030   2.379  28.481  13.047
54738W        W27031   3.903  42.968   2.268
54739W        W27032  22.511   5.741  12.567
54740W        W27033  14.649  39.052  12.869
54741W        W27034  32.516   4.346   2.359
54742W        W27035   6.302  10.140   2.289
54743W        W27036  14.652  11.708   0.783
54744W        W27037  18.696   8.273  14.334
54745W        W27038  33.968  14.663  11.123
54746W        W27039  42.479  40.816  12.988
54747W        W27040   4.805   4.218   0.962
54748W        W27041  37.044  22.586  10.414
54749W        W27042  39.920   7.173   0.802
54750W        W27043  32.940  15.750   0.945
54751W        W27044  21.053  26.480   9.992
54752W        W27045  36.091  31.432  10.583
54753W        W27046  11.364  13.120  13.035
54754W        W27047  38.363  36.404  10.607
54755W        W27048  20.768  40.908  12.055
54756W        W27049  13.332  32.465   3.740
54757W        W27050  30.020   8.733   2.411
54758W        W27051  33.036  25.088   2.235
54759W        W27052  28.125  19.553  10.615
54760W        W27053  18.057  19.705  10.473
54761W        W27054   8.206  11.336   2.824
54762W        W27055  15.229  22.638   4.794
54763W        W27056  42.901  43.773   4.697
54764W        W27057  41.476  37.411  14.913
54765W        W27058  43.838  43.800  13.400
54766W        W27059  24.221  25.703   2.391
54767W        W27060  15.764  28.456  13.028
54768W        W27061   2.805  34.120   0.306
54769W        W27062  16.799  27.459  11.021
54770W        W27063  11.654  24.005  12.444
54771W        W27064  37.905  29.636  12.013
54772W        W27065  44.781  21.573  13.862
54773W        W27066   2.242  37.336  14.997
54774W        W27067   7.787  33.555   3.736
54775W        W27068  25.564  27.500  11.607
54776W        W27069   4.362   7.708   4.637
54777W        W27070  34.592  35.011   2.367
54778W        W27071  23.503   6.889   4.194
54779W        W27072  35.551  26.584   0.297
54780W        W27073   8.367   4.741   1.737
54781W        W27074   4.855   9.263   2.379
54782W        W27075  16.796  34.613  11.027
54783W        W27076   6.688   5.312  14.989
54784W        W27077  21.538  12.252  14.423
54785W        W27078  20.195   1.745   2.324
54786W        W27079  27.969   2.323  12.981
54787W        W27080   4.922  40.026  14.964
54788W        W27081  33.580  14.277  12.875
54789W        W27082  12.821  28.449  10.595
54790W        W27083  38.431  30.954  11.418
54791W        W27084  43.304   7.368   3.829
54792W        W27085  14.743  11.844   2.410
54793W        W27086  31.512  42.305   1.910
54794W        W27087  21.572  32.039   2.883
54795W        W27088  40.416  16.609  10.978
54796W        W27089  20.153  29.986  13.019
54797W        W27090   0.370  34.059  14.953
54798W        W27091  22.643   5.220  11.092
54799W        W27092  23.528  31.049   3.640
54800W        W27093   3.252  27.619  11.442
54801W        W27094  33.108  34.587   4.293
54802W        W27095   2.917  39.979  12.351
54803W        W27096  26.590  35.936  13.405
54804W        W27097   4.829  44.400   4.617
54805W        W27098  12.226   6.328   2.702
54806W        W27099   5.331  28.637  12.445
54807W        W27100  43.444  12.218   1.918
54808W        W27101  12.143  28.055  11.018
54809W        W27102  12.766  10.759  12.339
54810W        W27103  42.340  29.424  11.083
54811W        W27104  34.580  12.323   2.806
54812W        W27105  23.725  15.717   0.410
54813W        W27106  30.070  10.327  12.541
54814W        W27107  31.944  43.913   2.186
54815W        W27108  30.056  41.893   2.762
54816W        W27109  44.463  12.170   3.290
54817W        W27110   1.976  42.919  13.501
54818W        W27111  21.170  39.957   0.401
54819W        W27112  28.142   0.841  12.400
54820W        W27113   9.386  23.633  13.896
54821W        W27114  35.095  38.820   4.677
54822W        W27115  36.924  13.625   0.735
54823W        W27116  22.553  12.666   1.321
54824W        W27117  21.669  24.497  11.917
54825W        W27118   1.940  28.440   4.610
54826W        W27119   7.741  40.383   0.742
54827W        W27120  33.466  27.096  11.980
54828W        W27121  36.466  43.877   4.272
54829W        W27122  18.549  17.573   1.856
54830W        W27123   7.350  38.849   2.699
54831W        W27124  11.231  12.708  13.325
54832W        W27125   3.828  35.397   1.744
54833W        W27126  27.610  21.753   2.278
54834W        W27127  18.252   6.429  14.924
54835W        W27128  44.816  37.551   2.221
54836W        W27129  36.462  17.233   5.302
54837W        W27130  24.540  30.003   2.319
54838W        W27131  38.490  21.745  13.806
54839W        W27132  28.089  41.897  13.001
54840W        W27133  19.550   3.795   1.725
54841W        W27134  29.084  24.692  13.008
54842W        W27135  12.223  28.084  14.770
54843W        W27136  38.020  14.174  12.890
54844W        W27137  38.516  15.598   3.752
54845W        W27138  33.421  39.065   0.935
54846W        W27139  31.923  28.015   4.722
54847W        W27140  33.092  35.911   4.334
54848W        W27141   9.228  17.756  12.396
54849W        W27142  10.733  23.576  12.981
54850W        W27143  29.587  19.268   4.804
54851W        W27144  20.728   7.840  12.562
54852W        W27145   1.892   6.720  11.554
54853W        W27146  22.544  31.071  10.442
54854W        W27147  34.557  16.280  13.376
54855W        W27148  29.636  29.165   5.116
54856W        W27149  25.975  34.083   2.851
54857W        W27150  24.576  14.249  11.075
54858W        W27151   5.900  13.291   2.288
54859W        W27152  28.141  11.207  14.872
54860W        W27153  12.788  30.963  13.848
54861W        W27154  29.992   0.464   2.411
54862W        W27155  16.568  34.001   1.355
54863W        W27156  11.761  42.455  14.424
54864W        W27157   3.769  10.652   1.735
54865W        W27158  28.134  26.657   5.205
54866W        W27159   7.896  35.082   4.670
54867W        W27160  12.740   4.800   4.303
54868W        W27161  43.828   9.255  11.067
54869W        W27162   2.815   8.774  11.518
54870W        W27163  39.063  23.197   2.212
54871W        W27164  21.073  21.079  12.890
54872W        W27165  25.647  28.078  14.011
54873W        W27166  13.600  17.678  12.502
54874W        W27167   6.782  22.679   2.875
54875W        W27168  24.991  17.061  13.935
54876W        W27169  22.116   0.745   3.748
54877W        W27170  20.695  28.079  14.022
54878W        W27171  17.079  39.395   1.254
54879W        W27172  24.064   1.834  13.347
54880W        W27173  39.829  11.323  10.468
54881W        W27174  17.770  40.530  11.965
54882W        W27175  16.804  44.461   4.185
54883W        W27176   4.888  19.663  11.898
54884W        W27177  15.788  38.903   2.375
54885W        W27178  22.641  32.555  11.597
54886W        W27179  43.318  37.538   0.344
54887W        W27180  17.611   3.831   2.789
54888W        W27181  25.560  36.896  13.355
54889W        W27182  43.951  31.551   3.829
54890W        W27183   7.253  30.538  14.822
54891W        W27184   4.301  33.094  12.511
54892W        W27185   4.374  17.584   4.777
54893W        W27186  37.915  32.558   3.221
54894W        W27187  33.385  29.941   4.823
54895W        W27188  44.831  16.248  12.450
54896W        W27189  35.999  21.038  10.143
54897W        W27190  27.067   3.368  10.427
54898W        W27191  40.878  44.383   0.425
54899W        W27192   4.267   6.196  10.497
54900W        W27193   0.454  35.007  10.099
54901W        W27194   9.719  18.236   4.720
54902W        W27195  13.347  27.002  12.011
54903W        W27196   8.380  13.698  13.790
54904W        W27197  23.561  34.610   1.931
54905W        W27198  15.230  15.257  11.097
54906W        W27199   8.379  35.521   0.934
54907W        W27200   2.943  25.633   4.798
54908W        W27201  28.549  44.799  10.526
54909W        W27202  23.067  35.858  14.380
54910W        W27203  24.606   2.339  14.483
54911W        W27204   3.766  15.221  10.620
54912W        W27205  25.086  35.505  11.378
54913W        W27206  41.475  14.732   2.410
54914W        W27207  18.100  42.796  13.935
54915W        W27208  19.670   1.328   1.759
54916W        W27209   6.752  29.658   3.818
54917W        W27210   6.390  14.332   3.174
54918W        W27211   8.860  44.997  13.490
54919W        W27212  19.767   1.272  11.872
54920W        W27213  41.980  41.462  10.624
54921W        W27214  24.075   5.405   1.712
54922W        W27215  13.660  33.929   3.202
54923W        W27216  10.831  21.048  14.899
54924W        W27217  23.058  17.262  14.381
54925W        W27218  24.156  42.851  10.497
54926W        W27219   1.774   1.849  14.949
54927W        W27220   8.814  27.507  12.823
54928W        W27221   5.318  27.063  10.474
54929W        W27222   2.241  35.461  11.026
54930W        W27223  15.151  34.562  13.031
54931W        W27224  39.822  43.970   1.284
54932W        W27225  33.110  13.807  10.418
54933W        W27226  11.189  17.290  14.832
54934W        W27227  32.537   3.398  11.876
54935W        W27228  40.946   5.198  14.982
54936W        W27229  27.106  25.068   3.262
54937W        W27230  26.470  32.088   1.326
54938W        W27231  27.160   9.250  12.577
54939W        W27232  16.141  32.080  11.095
54940W        W27233  35.043  39.003  13.001
54941W        W27234  39.505   4.882   0.280
54942W        W27235  13.318   2.808   4.214
54943W        W27236  17.740  27.611   4.171
54944W        W27237  39.891  38.855  10.407
54945W        W27238  35.992  14.642   4.117
54946W        W27239  42.455   8.188  10.559
54947W        W27240  41.884   4.785   1.705
54948W        W27241  44.808  27.470  13.911
54949W        W27242  22.039  42.916  11.505
54950W        W27243  20.249  44.826  13.316
54951W        W27244  19.637   6.347   2.832
54952W        W27245   2.431  14.156  10.453
54953W        W27246  40.478  11.350  13.477
54954W        W27247   9.661   5.379  11.439
54955W        W27248  17.580   0.792   0.410
54956W        W27249  30.643   3.922   4.278
54957W        W27250  27.107  21.595  14.502
54958W        W27251  16.693  40.321   3.296
54959W        W27252  12.135  33.123   3.853
54960W        W27253  41.997  41.916  12.466
54961W        W27254  33.410  14.113   1.812
54962W        W27255  43.456  16.225   5.633
54963W        W27256   0.933  10.642   1.911
54964W        W27257  25.499  41.799   2.193
54965W        W27258  11.304  25.162  14.821
54966W        W27259  41.863  32.134   2.356
54967W        W27260  44.850  17.729  13.858
54968W        W27261  24.482  20.266  14.819
54969W        W27262  18.628   4.709   2.819
54970W        W27263  44.476  35.881  11.892
54971W        W27264   3.269  21.117  14.381
54972W        W27265  32.887  35.857   1.425
54973W        W27266   3.307   3.925  11.917
54974W        W27267  10.340   5.240  14.303
54975W        W27268  23.039   3.801  10.601
54976W        W27269  10.167  41.408  11.494
54977W        W27270  30.454  17.199  10.635
54978W        W27271  33.457  42.972   2.360
54979W        W27272  28.599  18.295  13.391
54980W        W27273  23.144  33.901   1.747
54981W        W27274   0.367  44.769   0.361
54982W        W27275  23.027  39.396  11.913
54983W        W27276  12.225   2.457   4.719
54984W        W27277  25.558   2.814  13.885
54985W        W27278   2.906  28.113   3.848
54986W        W27279   9.214  41.373  12.460
54987W        W27280  32.920   3.233  14.349
54988W        W27281  43.291  43.394   9.633
54989W        W27282  17.786   2.880  10.583
54990W        W27283  24.655  43.811  11.055
54991W        W27284  13.658  40.044   4.619
54992W        W27285   5.233  21.131  13.376
54993W        W27286  24.643  13.199  14.467
54994W        W27287  38.334  17.588  14.415
54995W        W27288  36.953   3.860  13.798
54996W        W27289  32.526  16.288  10.957
54997W        W27290  36.462   2.876  12.568
54998W        W27291   9.743  43.942  12.488
54999W        W27292   3.799  25.621   4.725
55000W        W27293  26.983   8.886  11.990
55001W        W27294  39.984  33.008   4.334
55002W        W27295  43.445   1.804  14.852
55003W        W27296  25.975  41.905  11.914
55004W        W27297   3.772   3.809   4.609
55005W        W27298  41.810   8.787  10.901
55006W        W27299  36.032  10.748  13.521
55007W        W27300  40.485  15.247  13.028
55008W        W27301   0.936  17.285   2.204
55009W        W27302   7.337  33.428  14.948
55010W        W27303  35.582  31.935  13.443
55011W        W27304  38.042  44.873  12.431
55012W        W27305   0.885  19.638   0.777
55013W        W27306   7.744  44.905   1.391
55014W        W27307  22.546  16.232  10.577
55015W        W27308   9.210   5.258   2.772
55016W        W27309  28.586  14.832  11.454
55017W        W27310  25.218  34.103   4.338
55018W        W27311  44.944   1.744  11.471
55019W        W27312  32.589  16.106   2.809
55020W        W27313  15.657  44.907  14.356
55021W        W27314  39.498  37.352   4.200
55022W        W27315  19.779  18.139  13.927
55023W        W27316  42.491  35.855  10.987
55024W        W27317  23.129   6.202   0.306
55025W        W27318  18.695   6.825  14.995
55026W        W27319  42.964  30.156  10.489
55027W        W27320  23.518  41.311  11.865
55028W        W27321  14.313  11.854   2.253
55029W        W27322  19.676  15.632   4.826
55030W        W27323  43.807  23.507   0.460
55031W        W27324   6.230  36.987  14.371
55032W        W27325   1.427  16.767   2.278
55033W        W27326  16.787  19.193   2.357
55034W        W27327  30.087  11.706   0.336
55035W        W27328  33.015  15.773   1.712
55036W        W27329  16.122  36.467  14.427
55037W        W27330   7.388   7.391  13.967
55038W        W27331  12.800  39.541  13.059
55039W        W27332   2.776  43.364   3.239
55040W        W27333  42.352   0.357   5.619
55041W        W27334   8.695  18.696  13.449
55042W        W27335  19.636   9.211  12.091
55043W        W27336   4.302  29.998  13.440
55044W        W27337  30.609  10.162  14.001
55045W        W27338  12.363  11.639  14.907
55046W        W27339  18.763   7.226  14.330
55047W        W27340  14.743   1.938   2.784
55048W        W27341  20.708  30.935  11.102
55049W        W27342  27.618  20.741  11.389
55050W        W27343  25.635  19.764  10.934
55051W        W27344  20.734   2.741  12.025
55052W        W27345   7.208  43.901  10.595
55053W        W27346  32.129  33.039   3.858
55054W        W27347   7.855   4.894   1.241
55055W        W27348  11.339  19.753  14.870
55056W        W27349  27.681  26.953   0.281
55057W        W27350  37.843   8.796  14.439
55058W        W27351  33.579  33.418   4.680
55059W        W27352  23.557  10.710  14.950
55060W        W27353  31.959  33.067  14.812
55061W        W27354  28.541  37.533   3.350
55062W        W27355  14.141  39.515   0.867
55063W        W27356  22.094  35.550   2.288
55064W        W27357  43.803   0.799  11.916
55065W        W27358  18.667   0.795   3.769
55066W        W27359  29.075  20.589   4.229
55067W        W27360   8.201  29.963   2.345
55068W        W27361  29.530   9.802   3.380
55069W        W27362   6.198  10.654   1.700
55070W        W27363   7.762  15.703  14.432
55071W        W27364  34.002  30.061  13.516
55072W        W27365  44.273  37.047  14.389
55073W        W27366  34.097   8.875  12.095
55074W        W27367   7.859   3.317  13.325
55075W        W27368  28.574   8.695  12.355
55076W        W27369  30.592  29.590   2.810
55077W        W27370  26.002  29.989  11.377
55078W        W27371  18.708  12.354  13.979
55079W        W27372   6.792  31.587  11.569
55080W        W27373  35.885  14.821  13.357
55081W        W27374  12.139  38.546  14.338
55082W        W27375  11.852  27.971  12.532
55083W        W27376  25.123  11.769  11.400
55084W        W27377  37.840  35.907   0.732
55085W        W27378   9.838  14.336  12.407
55086W        W27379   4.428  35.422   4.770
55087W        W27380   3.343  14.117  12.986
55088W        W27381  28.610  20.216  13.825
55089W        W27382  14.217  28.155  10.930
55090W        W27383  29.173  33.602   2.365
55091W        W27384   1.431   3.307  13.940
55092W        W27385  28.526   1.415  13.004
55093W        W27386  16.592  20.255  12.065
55094W        W27387  16.161  26.574   1.389
55095W        W27388   3.900   7.704   0.477
55096W        W27389   2.341  10.219   3.825
55097W        W27390  21.551  26.000  13.887
55098W        W27391  15.280   5.371  13.462
55099W        W27392  39.435  13.748  10.895
55100W        W27393   1.314  36.983   3.198
55101W        W27394  17.195   0.895  13.930
55102W        W27395  44.971  34.507  11.395
55103W        W27396  39.015  44.881   1.358
55104W        W27397  35.980  40.025   1.263
55105W        W27398  23.039  32.141  12.470
55106W        W27399  12.199  41.792   2.744
55107W        W27400  19.136  32.528  11.432
55108W        W27401  29.522   9.850  14.493
55109W        W27402  11.206  12.748  10.919
55110W        W27403  26.133   8.695   4.249
55111W        W27404  41.987   8.761  12.469
55112W        W27405  32.959  21.748   4.293
55113W        W27406  17.188   3.339   4.693
55114W        W27407  38.371   4.793   0.418
55115W        W27408  29.569   8.326  14.362
55116W        W27409   7.290  23.580   3.354
55117W        W27410  31.577  38.559  14.023
55118W        W27411  33.590   8.399   5.236
55119W        W27412  19.754  18.616  11.000
55120W        W27413   9.799  38.877  14.810
55121W        W27414  21.206  39.000   0.792
55122W        W27415  33.928  12.703   0.363
55123W        W27416  19.280  11.225  13.392
55124W        W27417  30.046  43.307  11.515
55125W        W27418  26.624  37.045  12.471
55126W        W27419  22.606   5.717   1.729
55127W        W27420  31.079  18.235   0.779
55128W        W27421  23.502  16.225  10.529
55129W        W27422  40.914  35.552   3.832
55130W        W27423  34.873  21.042  13.053
55131W        W27424   2.445  17.742  11.000
55132W        W27425  39.958  13.153  10.471
55133W        W27426  38.834  36.456  11.105
55134W        W27427  29.148   9.672  11.994
55135W        W27428   6.844  36.356  10.133
55136W        W27429  28.956  42.811  11.048
55137W        W27430  16.629   0.356   3.763
55138W        W27431  20.721   8.891   4.136
55139W        W27432   8.694  27.674  14.967
55140W        W27433   6.795  15.736   2.178
55141W        W27434  19.283  37.982   1.703
55142W        W27435  14.646  11.293   3.640
55143W        W27436   5.427  39.814   1.448
55144W        W27437  30.105  24.035  12.578
55145W        W27438   4.253  33.999  12.523
55146W        W27439  11.310  42.527   3.631
55147W        W27440  21.710  26.057  13.508
55148W        W27441  16.767  22.611  12.382
55149W        W27442  17.242   4.849  13.316
55150W        W27443  20.596  12.746  13.314
55151W        W27444  21.625   7.362  14.317
55152W        W27445   7.255   8.237  13.359
55153W        W27446  27.668  42.460   4.117
55154W        W27447   1.437  21.582  11.955
55155W        W27448  32.116  12.638  10.429
55156W        W27449  39.505  40.543   4.338
55157W        W27450  26.127  21.076   2.776
55158W        W27451  35.454  39.879   0.272
55159W        W27452   1.286  18.064  12.549
55160W        W27453  32.094  14.321   3.677
55161W        W27454  32.576  22.169   2.869
55162W        W27455  39.933  18.130   4.672
55163W        W27456   1.954  31.967  12.991
55164W        W27457  37.388  40.864  11.528
55165W        W27458   9.356  13.768  10.442
55166W        W27459  15.708  17.761   2.387
55167W        W27460   7.829  42.828  10.473
55168W        W27461  17.228  36.972  13.497
55169W        W27462  37.957   2.904   2.706
55170W        W27463  12.165  29.626   4.149
55171W        W27464  31.972  34.046   4.275
55172W        W27465  38.997  20.623   4.295
55173W        W27466  38.990  28.498  11.561
55174W        W27467   4.894  33.385  11.113
55175W        W27468  43.958   7.799  11.894
55176W        W27469  44.807  16.175   0.371
55177W        W27470  13.256  18.149   9.962
55178W        W27471  12.719  16.714   1.839
55179W        W27472  18.754   5.929  10.485
55180W        W27473  16.651   9.318  11.513
55181W        W27474   1.470  40.463   0.364
55182W        W27475   6.909  27.503  14.509
55183W        W27476  26.669  35.952   3.660
55184W        W27477  41.411  44.936   0.761
55185W        W27478  40.949  22.649  12.547
55186W        W27479   7.304  29.504  12.579
55187W        W27480   6.388  41.914   3.663
55188W        W27481  14.765   2.813   3.239
55189W        W27482  16.289   4.898  14.331
55190W        W27483   3.395  10.782   3.789
55191W        W27484  40.458   7.356  11.459
55192W        W27485  26.058  30.972  14.380
55193W        W27486  43.003  11.697   3.682
55194W        W27487  21.526  18.775  14.391
55195W        W27488  24.039  35.559  13.335
55196W        W27489  25.139   2.380   2.684
55197W        W27490   9.757  25.475   2.752
55198W        W27491  36.874   4.934  13.058
55199W        W27492  25.611  34.088  11.007
55200W        W27493  14.146  44.812  12.553
55201W        W27494  23.730  29.469  14.892
55202W        W27495  27.507  19.610  12.530
55203W        W27496  42.957   2.420   3.854
55204W        W27497   5.263  21.614   3.344
55205W        W27498  30.937  18.550   2.794
55206W        W27499  33.116  26.544  14.508
55207W        W27500  18.714  30.563   1.250
55208W        W27501   4.923  23.717   0.342
55209W        W27502  20.141  39.492   0.433
55210W        W27503  39.521  39.366  11.452
55211W        W27504  12.774   6.753  12.929
55212W        W27505  15.767  30.426   3.177
55213W        W27506  19.757   8.287  10.481
55214W        W27507  29.666  25.011  14.979
55215W        W27508   8.657  44.409   0.482
55216W        W27509  14.206  36.471  13.406
55217W        W27510   2.950  27.155   3.229
55218W        W27511  24.230  15.226   2.792
55219W        W27512  31.452  17.278   3.267
55220W        W27513  18.619  23.700  14.877
55221W        W27514  32.132  29.088   2.776
55222W        W27515  13.640  23.049  14.314
55223W        W27516  35.091  19.616   0.845
55224W        W27517  27.664  25.550  11.437
55225W        W27518   7.234  12.352   2.869
55226W        W27519  40.884  43.769  13.880
55227W        W27520  12.120  38.854  14.890
55228W        W27521  41.493   8.213   0.836
55229W        W27522  16.304  30.574   4.117
55230W        W27523  19.120  15.207  11.590
55231W        W27524  34.445  22.623  12.488
55232W        W27525   8.197   2.452   0.258
55233W        W27526   8.893  29.541  14.383
55234W        W27527  30.132  31.564  12.443
55235W        W27528  21.054   4.766   0.313
55236W        W27529  14.589   5.906   4.349
55237W        W27530  19.187  13.269   4.706
55238W        W27531  42.812  34.471   1.320
55239W        W27532  33.613  26.124   1.400
55240W        W27533   4.715  21.563   4.334
55241W        W27534  36.848  25.182  14.455
55242W        W27535  12.648   0.936  12.547
55243W        W27536  26.596  28.665   0.248
55244W        W27537   5.223  17.068  10.925
55245W        W27538  29.476  20.183  14.495
55246W        W27539  39.014   7.386   3.353
55247W        W27540  21.757  13.126   0.747
55248W        W27541   1.856  16.187   4.748
55249W        W27542  23.721  24.497  12.387
55250W        W27543  14.331   0.449  14.374
55251W        W27544  40.841  32.482   0.818
55252W        W27545  13.698  23.632   3.655
55253W        W27546  38.462  41.834  13.336
55254W        W27547   0.915   9.690  13.406
55255W        W27548  36.051  15.311   1.300
55256W        W27549  23.718  11.276   3.830
55257W        W27550  16.720  33.130   2.748
55258W        W27551  24.533  30.160  14.470
55259W        W27552  19.075   5.856   3.808
55260W        W27553   7.843  24.543   2.821
55261W        W27554  13.695   7.271  12.420
55262W        W27555  38.477   9.686  14.346
55263W        W27556   0.291  30.604  14.867
55264W        W27557  34.925  13.320   3.236
55265W        W27558  36.866   4.299  11.422
55266W        W27559  22.678  33.512   4.128
55267W        W27560   3.455  12.671   1.799
55268W        W27561  28.129  26.077   2.800
55269W        W27562  44.777  42.834  12.893
55270W        W27563  30.542   9.707   4.138
55271W        W27564  18.656  28.511   0.321
55272W        W27565  20.753  29.561   0.430
55273W        W27566  15.597  38.049   3.671
55274W        W27567  43.464  38.454   2.367
55275W        W27568  16.122  32.013  11.408
55276W        W27569  25.486   8.801   1.771
55277W        W27570   1.458  18.189   1.879
55278W        W27571  33.526  25.683  12.889
55279W        W27572  34.019  20.088  13.012
55280W        W27573  23.172   4.347   5.313
55281W        W27574   0.299  30.602  13.507
55282W        W27575  39.002   6.350   1.210
55283W        W27576   5.399  39.410  10.957
55284W        W27577  43.285   4.867  14.882
55285W        W27578  29.525  27.091  14.793
55286W        W27579  44.841  37.513   3.308
55287W        W27580  24.092  30.126  13.862
55288W        W27581  22.150  44.922  11.582
55289W        W27582  32.108  37.439  13.955
55290W        W27583  26.623  44.415   1.842
55291W        W27584  38.842  33.406   1.921
55292W        W27585  11.316   7.861   3.354
55293W        W27586  13.635  35.089   3.217
55294W        W27587  36.889  39.369   1.917
55295W        W27588  37.563  39.465  14.875
55296W        W27589  42.352  18.060   0.440
55297W        W27590  41.317  12.649   3.721
55298W        W27591   8.660  42.812   3.306
55299W        W27592   1.416  34.601  14.947
55300W        W27593   5.751  21.096   4.608
55301W        W27594  44.316   7.849   0.856
55302W        W27595  27.006   4.843   3.653
55303W        W27596  19.542  35.407  10.889
55304W        W27597  19.251  28.085   1.735
55305W        W27598  20.687  33.052   5.770
55306W        W27599   7.216  30.015  12.933
55307W        W27600  19.151  40.447  12.885
55308W        W27601  26.996  24.138   2.324
55309W        W27602  31.404  17.222  12.949
55310W        W27603  11.665  43.004   4.741
55311W        W27604  36.524  35.568  11.110
55312W        W27605  25.518   8.200   2.874
55313W        W27606  17.626  25.651  12.570
55314W        W27607   6.215  16.698   4.265
55315W        W27608  29.023   7.878  11.378
55316W        W27609  28.001   2.264   1.269
55317W        W27610  32.112  35.010  11.540
55318W        W27611  13.128  16.724   1.928
55319W        W27612  28.949  31.143  10.965
55320W        W27613  14.253  30.034  11.391
55321W        W27614   9.249  33.566  10.142
55322W        W27615  22.565  26.619   5.286
55323W        W27616  44.326  33.592   4.673
55324W        W27617   0.327   3.937  10.624
55325W        W27618  33.548  12.673   2.826
55326W        W27619  33.616   2.295  13.997
55327W        W27620   4.933  20.229   0.932
55328W        W27621  14.647  12.196  10.898
55329W        W27622   1.283  20.275  13.342
55330W        W27623  43.814  11.183  10.583
55331W        W27624  12.356   5.873  13.439
55332W        W27625  14.231  22.642  11.400
55333W        W27626   0.289  32.402   0.876
55334W        W27627  18.258  19.084  10.469
55335W        W27628  29.579  13.116   0.330
55336W        W27629  34.457  25.586  14.787
55337W        W27630  43.322   0.432  14.378
55338W        W27631  22.527  40.452   0.778
55339W        W27632   6.780  22.568   3.148
55340W        W27633  36.425  14.119   5.272
55341W        W27634   1.338  41.387   0.890
55342W        W27635  41.017   6.876   1.835
55343W        W27636   2.411  12.275   3.733
55344W        W27637  23.090  32.016   2.323
55345W        W27638  24.698  23.104   0.452
55346W        W27639  37.513  32.027   2.397
55347W        W27640  44.481  39.385   2.849
55348W        W27641  43.809  43.480  12.093
55349W        W27642  42.441   0.989   1.301
55350W        W27643   6.379   3.286   5.124
55351W        W27644  41.859  26.142  13.822
55352W        W27645  17.680  15.650  10.970
55353W        W27646  23.049   1.316  11.036
55354W        W27647  25.487   3.353  10.602
55355W        W27648  43.938   1.853  12.945
55356W        W27649  24.505  10.836   1.303
55357W        W27650  36.360  37.504  13.857
55358W        W27651   7.756  22.559   5.284
55359W        W27652  29.614  10.635   3.637
55360W        W27653  16.776  36.019  11.469
55361W        W27654  29.544   0.421  12.065
55362W        W27655  14.605  41.906   4.168
55363W        W27656  22.590  19.072  11.972
55364W        W27657  20.108  19.536   4.682
55365W        W27658  16.693   9.884   1.435
55366W        W27659   3.391  37.523   0.925
55367W        W27660  20.568  13.833  11.431
55368W        W27661   8.823  37.050  11.493
55369W        W27662  27.944  32.974   2.740
55370W        W27663   7.285  13.742  14.290
55371W        W27664   3.324  22.031   0.267
55372W        W27665  17.587  22.048  12.028
55373W        W27666  14.771  24.566   4.625
55374W        W27667  39.559  13.259  11.519
55375W        W27668  14.748  19.645  11.969
55376W        W27669  36.576   0.975   1.398
55377W        W27670   2.400  27.470   1.798
55378W        W27671  26.139  32.404   0.910
55379W        W27672  29.169   2.332   1.776
55380W        W27673  33.962  37.932   0.436
55381W        W27674  24.562  39.916  11.900
55382W        W27675  23.221   4.392  14.483
55383W        W27676  33.579  29.999   2.740
55384W        W27677  28.073  11.176  11.982
55385W        W27678  34.417  35.396  11.404
55386W        W27679  19.547   3.884   4.211
55387W        W27680   1.851  35.899  10.621
55388W        W27681  15.599  37.356  14.905
55389W        W27682  10.638  21.257   3.705
55390W        W27683  38.827   6.773  14.933
55391W        W27684   6.192  38.350  11.000
55392W        W27685  36.509  10.378  11.974
55393W        W27686   4.801   2.292  12.344
55394W        W27687  17.188  26.573   2.211
55395W        W27688  25.569  42.923  13.374
55396W        W27689  38.366  31.575   1.819
55397W        W27690   9.360  25.213  12.399
55398W        W27691  23.117  30.621  12.988
55399W        W27692  13.770  39.969  10.642
55400W        W27693  34.373  24.527   0.452
55401W        W27694  12.347  36.381  10.514
55402W        W27695  26.576   3.253  12.432
55403W        W27696  33.108  44.957   1.886
55404W        W27697   2.354   0.863  11.393
55405W        W27698  39.874  33.396  12.942
55406W        W27699  40.957  44.492   1.852
55407W        W27700  12.800  25.556  11.498
55408W        W27701  14.593  38.922   3.834
55409W        W27702  37.354  17.116   4.293
55410W        W27703  14.778  24.175  13.944
55411W        W27704  35.098  28.591  10.443
55412W        W27705  19.664  24.532   1.397
55413W        W27706  35.573  19.243  13.544
55414W        W27707   4.900  35.553  12.987
55415W        W27708  12.807   8.238  11.872
55416W        W27709  34.034  21.626   1.780
55417W        W27710  34.409  37.519   4.330
55418W        W27711  19.116   8.857  13.870
55419W        W27712  13.159  27.025   0.411
55420W        W27713  14.110  13.333   2.804
55421W        W27714  40.523  15.177   0.248
55422W        W27715  11.341  35.413   2.797
55423W        W27716  16.757  28.487  12.400
55424W        W27717   1.971   5.758  12.012
55425W        W27718   0.402  36.921   4.701
55426W        W27719  30.446   0.933  10.630
55427W        W27720  41.465   3.392  14.011
55428W        W27721  11.733   5.290  14.392
55429W        W27722  17.179  44.403   1.274
55430W        W27723  43.349  34.917  12.955
55431W        W27724  17.761  18.771  10.926
55432W        W27725  36.463  23.534  12.900
55433W        W27726   3.388  11.234   4.763
55434W        W27727  38.026  34.439   1.389
55435W        W27728  40.488  43.364   4.712
55436W        W27729  36.587  44.480   0.419
55437W        W27730  20.072  29.941  11.016
55438W        W27731  35.462  42.782   1.285
55439W        W27732   5.736   1.470   2.719
55440W        W27733  14.287   8.726   2.369
55441W        W27734  37.441  27.607  14.829
55442W        W27735  33.624  32.008   4.249
55443W        W27736  40.834  10.823  13.928
55444W        W27737  38.416   4.706   2.187
55445W        W27738  37.030  16.642   0.815
55446W        W27739  22.728  38.919   2.796
55447W        W27740  18.774  19.102  10.889
55448W        W27741  19.566  37.939  14.362
55449W        W27742  20.766  39.929  13.818
55450W        W27743   5.371  23.010   2.239
55451W        W27744  43.438  12.815   4.680
55452W        W27745  13.323  33.445   2.736
55453W        W27746  22.706   2.782  12.931
55454W        W27747  21.246   3.311  12.905
55455W        W27748  18.062  35.599   4.658
55456W        W27749  21.625  40.980  10.579
55457W        W27750  33.964  19.585   2.262
55458W        W27751  23.675   1.951   1.745
55459W        W27752  34.420  35.089   0.898
55460W        W27753   6.221   5.847  14.821
55461W        W27754  30.967   7.872   1.808
55462W        W27755   3.922  21.111  12.347
55463W        W27756  32.561   0.749   2.861
55464W        W27757   5.690  40.372  14.988
55465W        W27758  21.614  39.028   3.820
55466W        W27759   2.339  21.124   1.321
55467W        W27760  24.036   8.877  11.377
55468W        W27761  25.098  39.032  11.976
55469W        W27762  36.448  24.053  11.097
55470W        W27763  27.103  11.753  10.888
55471W        W27764  13.844  37.460   4.825
55472W        W27765  40.461  45.000  13.381
55473W        W27766  19.222  33.886  10.614
55474W        W27767   6.339   0.425   0.439
55475W        W27768  22.157  36.508   3.342
55476W        W27769  15.120   9.758   4.607
55477W        W27770  15.301  34.087  12.373
55478W        W27771  38.345   8.364  13.963
55479W        W27772  31.582   0.862   4.280
55480W        W27773   7.266  18.705   1.238
55481W        W27774   2.383   7.304  12.430
55482W        W27775  33.462   2.888  10.917
55483W        W27776   3.791  35.469  12.909
55484W        W27777  13.290   8.679  11.411
55485W        W27778  15.808  16.152   0.457
55486W        W27779  20.200  44.753   2.749
55487W        W27780  34.387  17.590  11.112
55488W        W27781   0.848   1.901  11.380
55489W        W27782  14.186   1.466   3.265
55490W        W27783  24.180  18.161  14.832
55491W        W27784  40.329  30.141  14.902
55492W        W27785  23.605   6.814  14.498
55493W        W27786  33.545  20.272   0.806
55494W        W27787  19.136  44.444   2.821
55495W        W27788  12.707  24.019   3.267
55496W        W27789   3.773  11.668   3.300
55497W        W27790   7.242  38.457  12.477
55498W        W27791   3.717  25.056   5.130
55499W        W27792   0.349  11.343  10.445
55500W        W27793  19.578  38.922   3.810
55501W        W27794  15.777   0.912   2.180
55502W        W27795  14.264  36.360  11.990
55503W        W27796  33.532   9.885  12.842
55504W        W27797  30.996  28.547   4.192
55505W        W27798   2.430  42.971   0.403
55506W        W27799  23.187  29.038  13.494
55507W        W27800  25.641  37.375  10.093
55508W        W27801  40.389  34.455  12.575
55509W        W27802   6.737  33.066  12.864
55510W        W27803   6.225  44.456   3.323
55511W        W27804   4.925  42.318  12.489
55512W        W27805   7.398  44.302  10.444
55513W        W27806   8.842  29.553   4.774
55514W        W27807   0.341  28.950   4.640
55515W        W27808  41.363  20.174  13.797
55516W        W27809   0.817  43.822  14.895
55517W        W27810  29.629  33.596   2.267
55518W        W27811  24.984  35.959  14.376
55519W        W27812   0.935   8.792  11.506
55520W        W27813  39.409  24.203  14.767
55521W        W27814  31.495   9.775   0.881
55522W        W27815   0.889  25.965   1.848
55523W        W27816  42.323  20.080   3.245
55524W        W27817  25.165  31.565  10.046
55525W        W27818  24.699  42.953  12.426
55526W        W27819   3.456   7.413  14.392
55527W        W27820  12.137  31.140   3.315
55528W        W27821  11.288  24.012  13.499
55529W        W27822  35.598  23.145  11.385
55530W        W27823  37.456  23.166   4.838
55531W        W27824  30.606  24.593  13.490
55532W        W27825  12.621  26.078   2.249
55533W        W27826  17.206  19.637   2.712
55534W        W27827  26.457  13.245  13.450
55535W        W27828   0.794  27.491  14.958
55536W        W27829   8.893   4.383   2.326
55537W        W27830  29.646  24.230  11.949
55538W        W27831  31.464  15.612  13.411
55539W        W27832  22.509  23.164  14.760
55540W        W27833  35.864  15.805   0.909
55541W        W27834  38.557  21.093  12.565
55542W        W27835  13.259   9.388   3.349
55543W        W27836  13.684   0.478   2.816
55544W        W27837   5.310  43.916  13.389
55545W        W27838  39.992  10.190  13.372
55546W        W27839  43.390   7.266   2.222
55547W        W27840   1.754  42.488   3.870
55548W        W27841  30.548  13.350   4.770
55549W        W27842  31.560  19.668  14.847
55550W        W27843  36.039  31.974  13.407
55551W        W27844  35.575  41.792  11.587
55552W        W27845  15.326  39.420   2.372
55553W        W27846  15.777  28.174  11.554
55554W        W27847   5.376   1.427  13.810
55555W        W27848  11.253  26.496   4.613
55556W        W27849   9.380  25.552   1.737
55557W        W27850   2.899   3.237  11.398
55558W        W27851  19.608  13.138   2.346
55559W        W27852  34.058   4.710   1.375
55560W        W27853  31.645  14.695   2.262
55561W        W27854   2.861  33.895   1.281
55562W        W27855   8.369  29.991   1.379
55563W        W27856  23.730  26.128  11.468
55564W        W27857  18.201  30.036  12.507
55565W        W27858  22.699  12.214  13.363
55566W        W27859  44.832  10.651   3.310
55567W        W27860   7.267  34.092   2.349
55568W        W27861  11.660  30.565   0.727
55569W        W27862  25.590   8.171   2.402
55570W        W27863  42.903   2.396  13.833
55571W        W27864  25.044  10.367  13.889
55572W        W27865  12.361  42.336  14.337
55573W        W27866  41.295   0.259  12.349
55574W        W27867  36.051  35.575   3.378
55575W        W27868   4.822  14.674  12.928
55576W        W27869  36.356  26.566   4.600
55577W        W27870  24.054  22.634  13.832
55578W        W27871  26.673  40.896  14.387
55579W        W27872  22.735  18.227  12.976
55580W        W27873  29.125  23.573   0.469
55581W        W27874   0.962   8.880   3.318
55582W        W27875  25.063  33.424  14.997
55583W        W27876  17.115  30.028   3.856
55584W        W27877   7.261  31.000   3.711
55585W        W27878   8.718  21.531   4.278
55586W        W27879  37.353  11.859   0.779
55587W        W27880  33.461  22.506  12.389
55588W        W27881  27.143  42.459   0.472
55589W        W27882  16.728   3.760  12.080
55590W        W27883   8.197  40.409   2.885
55591W        W27884  39.948  40.519   4.239
55592W        W27885  29.454  32.959   0.315
55593W        W27886  21.222  33.463   3.771
55594W        W27887  37.548  38.497   4.790
55595W        W27888  31.103   9.867   4.818
55596W        W27889   8.300  23.210   2.208
55597W        W27890  10.641  41.982  11.578
55598W        W27891  35.360   0.875  11.864
55599W        W27892   1.873   8.732   2.202
55600W        W27893  10.704  43.369   3.679
55601W        W27894  36.527   7.380   4.113
55602W        W27895  41.842  33.412  11.125
55603W        W27896  37.948  11.772  12.352
55604W        W27897  37.536  25.987   3.681
55605W        W27898  42.368   2.228   4.282
55606W        W27899  43.391  13.644   1.820
55607W        W27900  19.694   5.424  11.438
55608W        W27901  16.606  40.363   2.731
55609W        W27902  22.248  32.612   2.296
55610W        W27903  26.693  13.755  13.962
55611W        W27904   9.842  25.188   3.810
55612W        W27905  41.509  23.664   2.186
55613W        W27906  26.993  16.695   1.924
55614W        W27907   3.421  36.951   1.902
55615W        W27908  19.161  23.064   1.696
55616W        W27909  24.194  31.039   4.718
55617W        W27910   3.376   8.172  10.522
55618W        W27911  11.163  26.620   3.216
55619W        W27912  22.180   4.393  13.395
55620W        W27913  19.613  16.621   2.223
55621W        W27914  12.285  11.695  12.565
55622W        W27915   3.280  33.386   2.400
55623W        W27916  11.715   3.910  13.908
55624W        W27917  20.124  39.495   4.804
55625W        W27918   8.865  15.149  10.918
55626W        W27919   6.772  43.512  11.399
55627W        W27920  39.873  32.077  11.966
55628W        W27921  20.190   2.432  14.413
55629W        W27922  16.231   8.347  13.048
55630W        W27923   4.448   2.423   2.810
55631W        W27924  43.368  24.024  13.473
55632W        W27925  23.507  28.977   2.262
55633W        W27926  30.944  35.857  12.469
55634W        W27927   7.848   8.208   3.366
55635W        W27928  12.851   8.843  12.842
55636W        W27929  28.946  15.170  14.495
55637W        W27930  12.830   5.763  14.468
55638W        W27931  36.590  28.991   3.380
55639W        W27932  39.441  32.139  12.939
55640W        W27933   0.271  36.467   0.394
55641W        W27934   1.758  25.134   4.310
55642W        W27935  40.542  40.519   5.106
55643W        W27936   9.663   0.483  10.902
55644W        W27937  27.121  22.221   5.290
55645W        W27938  26.488  33.497  14.393
55646W        W27939  35.545  39.922   1.318
55647W        W27940  38.537  28.947  14.829
55648W        W27941   2.274  20.228   2.851
55649W        W27942  35.509   5.897   2.329
55650W        W27943  29.501  13.726  13.343
55651W        W27944  24.702  34.416  13.487
55652W        W27945  13.616  12.650   3.155
55653W        W27946  32.055  28.115  12.380
55654W        W27947  31.029   7.249  14.943
55655W        W27948   7.360  31.986   4.192
55656W        W27949  25.705  15.256  14.773
55657W        W27950  38.472  16.073  14.380
55658W        W27951  11.705  26.500  11.937
55659W        W27952  19.636  41.975  13.981
55660W        W27953   1.795  36.587   1.429
55661W        W27954  33.878  16.805  12.437
55662W        W27955  39.943  35.435  14.436
55663W        W27956  23.160  17.170  14.812
55664W        W27957  39.928   5.426   3.248
55665W        W27958  43.423  30.647   0.412
55666W        W27959   5.343  14.712  13.869
55667W        W27960   3.422  19.226   0.941
55668W        W27961   5.879  34.024   3.273
55669W        W27962  11.740   0.256   1.253
55670W        W27963   4.914   4.825  13.902
55671W        W27964  12.200  40.342   4.665
55672W        W27965   6.738  33.541  14.307
55673W        W27966  26.550  38.453   2.224
55674W        W27967  32.439  13.146  11.957
55675W        W27968  42.409  16.081   9.500
55676W        W27969  25.617  38.516   3.233
55677W        W27970  27.623  44.358  11.463
55678W        W27971   2.408  43.998   1.751
55679W        W27972  13.172  31.908   1.807
55680W        W27973  16.796  11.240   1.299
55681W        W27974   2.441  10.341   9.948
55682W        W27975  42.345  22.587   1.222
55683W        W27976  22.507  34.077   4.304
55684W        W27977   0.252   1.961   1.363
55685W        W27978   5.768   0.753   4.312
55686W        W27979  30.491   7.903   1.317
55687W        W27980  39.013  20.195  12.927
55688W        W27981   3.733   7.295  10.896
55689W        W27982  10.275  23.495  10.644
55690W        W27983  39.821   0.804  10.493
55691W        W27984   2.235  18.618  11.526
55692W        W27985  36.418  15.622  10.563
55693W        W27986  18.560   7.712  11.381
55694W        W27987  13.820   3.898   9.981
55695W        W27988  33.029   2.283   0.951
55696W        W27989  12.345  14.717   0.428
55697W        W27990  23.018   9.394  14.420
55698W        W27991  43.296   1.908   3.769
55699W        W27992   3.928   1.305   4.148
55700W        W27993   2.390  21.730   2.826
55701W        W27994   5.746   3.387  12.387
55702W        W27995  14.597  14.829  14.949
55703W        W27996  32.432  41.982  12.089
55704W        W27997   6.282   5.703  13.533
55705W        W27998  12.336  11.838   2.258
55706W        W27999  13.176   0.367  14.802
55707W        W28000   9.212  26.533   5.139
55708W        W28001  30.515   8.326   1.837
55709W        W28002   9.849  19.585   0.312
55710W        W28003  25.559  38.364  10.550
55711W        W28004   1.346  21.040  13.399
55712W        W28005  22.564  37.433  14.478
55713W        W28006  35.974   9.148  12.456
55714W        W28007  31.957  16.618  11.879
55715W        W28008  19.114  15.252   0.875
55716W        W28009  36.582  43.278   4.280
55717W        W28010  27.669   2.315  10.985
55718W        W28011  21.146  26.067  11.607
55719W        W28012  14.768  37.889  14.353
55720W        W28013  26.071  16.299  13.881
55721W        W28014   4.246  17.253   2.815
55722W        W28015   7.397  38.864   3.719
55723W        W28016  37.388   8.297  13.862
55724W        W28017  29.643  32.004   2.266
55725W        W28018   4.794   6.195  12.988
55726W        W28019  33.989  15.604  12.841
55727W        W28020  41.499  26.627   0.439
55728W        W28021  28.070  34.383  13.483
55729W        W28022   1.330  11.827  13.508
55730W        W28023  14.141  32.111  10.001
55731W        W28024  20.071  37.381   2.771
55732W        W28025   7.734  11.291  14.295
55733W        W28026   0.272  18.625  12.464
55734W        W28027  36.484  15.197   4.725
55735W        W28028  43.353  27.948   2.784
55736W        W28029  11.168  29.592  11.029
55737W        W28030  29.061  10.823   1.408
55738W        W28031  17.622  36.011   0.311
55739W        W28032  28.947  40.012  10.936
55740W        W28033   4.926   9.780  11.935
55741W        W28034  34.421  34.959  10.585
55742W        W28035  43.828  16.579   5.262
55743W        W28036  35.528  17.209  10.439
55744W        W28037  16.133  27.011   1.217
55745W        W28038  34.967  10.859  14.983
55746W        W28039  17.655  24.163   0.327
55747W        W28040  15.771   3.729  10.431
55748W        W28041  34.908  41.306  14.956
55749W        W28042  33.043  24.116  10.568
55750W        W28043  25.073  36.022   3.326
55751W        W28044  11.252  36.517  10.539
55752W        W28045  18.739  37.857  11.553
55753W        W28046  11.187  43.372  13.501
55754W        W28047  43.924  38.389  14.943
55755W        W28048   1.853  17.068  10.427
55756W        W28049  32.936  34.962  11.928
55757W        W28050  12.187  32.887   0.966
55758W        W28051  18.257  27.479   4.172
55759W        W28052   8.676  19.537   3.181
55760W        W28053  40.848  27.085  10.959
55761W        W28054  30.053  20.105   4.806
55762W        W28055  24.650  23.061  11.590
55763W        W28056  34.981  35.872   2.334
55764W        W28057  32.517  14.138  12.495
55765W        W28058   2.386   5.785  13.451
55766W        W28059  29.513  26.660   2.410
55767W        W28060  44.889  37.465  12.493
55768W        W28061  11.705  43.354   3.845
55769W        W28062  22.196  14.604  10.450
55770W        W28063  11.841  22.221   1.852
55771W        W28064   2.908  11.774  11.053
55772W        W28065  40.924  37.937  12.070
55773W        W28066  20.114  42.910   3.212
55774W        W28067   1.785  17.754   1.807
55775W        W28068  11.776   9.155  13.855
55776W        W28069  10.764   6.250   2.685
55777W        W28070  38.823  15.251   1.778
55778W        W28071  34.009  20.726  13.860
55779W        W28072  16.572  29.145   4.138
55780W        W28073  19.100   9.807   1.768
55781W        W28074  28.605  21.248   5.292
55782W        W28075  25.978   8.840  14.027
55783W        W28076  20.196  37.077   0.844
55784W        W28077   4.721  15.293   0.433
55785W        W28078   2.965  31.510  13.804
55786W        W28079  30.958  27.042   2.885
55787W        W28080  28.482  41.298   2.838
55788W        W28081   3.868  31.541   2.235
55789W        W28082  24.694  39.499  12.856
55790W        W28083   7.772  17.276   3.180
55791W        W28084   2.289  25.208   0.451
55792W        W28085  32.029  22.995   1.358
55793W        W28086  16.114  35.381   2.822
55794W        W28087   3.837  23.066   2.350
55795W        W28088  24.207  23.710   0.855
55796W        W28089  31.117   5.282   0.934
55797W        W28090   6.249   8.251  13.901
55798W        W28091  17.684  30.990  13.383
55799W        W28092   0.348  41.485  13.391
55800W        W28093  39.849   4.370   4.172
55801W        W28094  43.942  26.679  11.603
55802W        W28095   0.412   2.369   2.715
55803W        W28096  39.420  20.699  10.479
55804W        W28097  31.475  14.818   2.682
55805W        W28098  42.008  13.769   0.409
55806W        W28099   5.738   2.724  12.094
55807W        W28100  13.766  41.001   3.710
55808W        W28101  37.902   1.899  11.529
55809W        W28102  12.139  33.049   1.238
55810W        W28103   8.237  22.176  14.306
55811W        W28104   2.759   5.722  13.869
55812W        W28105   1.968  29.022  10.554
55813W        W28106  20.248  31.463  10.893
55814W        W28107   3.836  18.254   4.755
55815W        W28108  17.795   5.202  14.492
55816W        W28109  43.473   7.735  11.954
55817W        W28110  27.570  25.567   3.674
55818W        W28111   1.244  23.499   0.374
55819W        W28112  41.850   3.335  12.532
55820W        W28113   7.226  33.604   2.253
55821W        W28114  29.032  18.234   2.191
55822W        W28115  29.127  14.208   3.637
55823W        W28116  26.583  37.011   4.200
55824W        W28117  15.657  41.329   3.290
55825W        W28118  35.568  42.437  11.405
55826W        W28119  24.559  24.174   1.778
55827W        W28120  25.065  14.265  11.429
55828W        W28121  44.470  40.413   0.361
55829W        W28122  42.391  13.653   0.277
55830W        W28123   4.390   2.418  10.615
55831W        W28124  41.299  43.474  10.447
55832W        W28125  31.996  38.982  13.421
55833W        W28126  12.161   1.952  14.826
55834W        W28127  11.339   4.319  14.398
55835W        W28128   9.365  40.935  13.333
55836W        W28129  16.140  12.740   1.736
55837W        W28130   7.191  18.749  13.503
55838W        W28131  40.053  31.914  10.495
55839W        W28132  44.871   3.274  13.021
55840W        W28133   3.911  41.531   0.257
55841W        W28134  30.137  20.741  11.427
55842W        W28135  13.822   5.889  14.384
55843W        W28136  43.795   4.257  14.842
55844W        W28137  21.512  15.098   0.728
55845W        W28138  37.573  31.953  14.780
55846W        W28139  17.616  21.022  14.312
55847W        W28140   3.276  24.573   3.224
55848W        W28141   0.843  34.895  13.522
55849W        W28142  26.041  24.635  10.503
55850W        W28143  39.378  11.240   4.195
55851W        W28144  30.532  42.836   3.239
55852W        W28145  41.441  10.379  11.012
55853W        W28146   2.728   9.819   3.231
55854W        W28147  32.069  30.141   1.921
55855W        W28148  20.538  38.441  12.578
55856W        W28149  27.100  40.415  12.909
55857W        W28150  14.736  26.634   4.273
55858W        W28151  27.081  25.063  13.901
55859W        W28152  22.082  35.426  14.503
55860W        W28153  29.096  27.471   0.261
55861W        W28154  20.046  32.978  14.992
55862W        W28155  44.395  11.695  13.922
55863W        W28156  42.938  26.976   0.315
55864W        W28157  40.510   0.460  12.892
55865W        W28158  37.911  38.397   4.292
55866W        W28159  43.504  18.254   3.218
55867W        W28160  12.243   1.869  10.042
55868W        W28161  21.559  35.993  11.897
55869W        W28162  33.540  23.026   2.251
55870W        W28163  25.983  18.131  12.884
55871W        W28164   1.390  11.743  14.947
55872W        W28165  28.099  18.788   1.352
55873W        W28166  26.526  11.253  14.447
55874W        W28167  30.907  24.655   2.751
55875W        W28168  19.237  36.368  13.407
55876W        W28169  14.760   2.344   1.885
55877W        W28170  15.281  11.166  13.354
55878W        W28171  41.365  44.822   1.236
55879W        W28172  19.200  40.032  13.465
55880W        W28173  27.955  30.100  11.023
55881W        W28174  36.968   4.875  14.020
55882W        W28175  13.174  14.763  13.014
55883W        W28176  13.833  26.490  13.454
55884W        W28177  21.555  26.041   0.838
55885W        W28178   3.271  30.651   2.378
55886W        W28179  38.866  41.335  14.954
55887W        W28180  24.509  17.130   0.847
55888W        W28181  11.668  32.919  10.889
55889W        W28182  43.859  21.219   0.458
55890W        W28183  18.268  38.926   2.805
55891W        W28184  16.744  26.144   3.158
55892W        W28185  16.613   6.204   3.326
55893W        W28186   1.340  38.067  10.928
55894W        W28187  26.042   9.865  14.866
55895W        W28188   3.940   9.875   4.297
55896W        W28189  19.120  35.073  12.984
55897W        W28190  16.144  36.956  14.440
55898W        W28191  30.001  27.569  12.439
55899W        W28192  44.316  27.589   3.686
55900W        W28193  44.868  28.086  14.966
55901W        W28194  33.584  17.123   2.314
55902W        W28195  38.521   2.357  12.462
55903W        W28196  12.344  29.985   1.430
55904W        W28197  40.385  15.165  10.993
55905W        W28198  44.996  24.206   1.697
55906W        W28199  33.105  44.405  14.432
55907W        W28200  32.026  37.961  13.024
55908W        W28201  30.999  19.646  13.024
55909W        W28202  44.918  16.805  14.281
55910W        W28203  23.158  32.972   2.328
55911W        W28204  35.470  13.215   3.694
55912W        W28205  17.596   6.822   4.648
55913W        W28206  24.702  36.980  13.960
55914W        W28207   0.764  38.057   0.321
55915W        W28208  11.198  20.643   2.196
55916W        W28209   3.945   1.371  14.440
55917W        W28210  27.643  28.576   4.122
55918W        W28211  16.589  33.462  12.515
55919W        W28212  14.096   9.837   0.787
55920W        W28213   9.258   6.271   1.310
55921W        W28214  15.212  12.181   3.747
55922W        W28215   5.320  42.467  12.983
55923W        W28216   5.748  27.018  14.411
55924W        W28217  24.685  28.452  12.481
55925W        W28218  18.673  26.570   5.273
55926W        W28219  35.969  34.521  13.891
55927W        W28220  25.155  11.688   1.789
55928W        W28221  16.304  41.994  12.982
55929W        W28222  29.529   1.395  13.966
55930W        W28223  25.047   2.403  14.986
55931W        W28224  19.634  39.348  14.300
55932W        W28225  10.328  22.084  11.396
55933W        W28226  15.141   5.342   3.209
55934W        W28227  16.595  43.976  10.584
55935W        W28228   1.312  40.851   4.675
55936W        W28229  34.461   8.350   4.241
55937W        W28230  14.789  25.710  11.530
55938W        W28231   8.254   7.842  13.834
55939W        W28232  18.296  11.215  10.911
55940W        W28233  41.509  41.474   1.434
55941W        W28234  32.506  17.162  10.578
55942W        W28235  45.000   3.380   4.834
55943W        W28236  44.780  32.509   3.822
55944W        W28237  19.611  26.674  14.300
55945W        W28238  31.480  16.094  11.481
55946W        W28239   0.913  40.464   4.643
55947W        W28240   2.778  39.525   1.354
55948W        W28241   7.314  30.519   0.849
55949W        W28242  44.316  38.407  14.803
55950W        W28243  36.438  43.885  13.443
55951W        W28244  33.561  40.304  11.416
55952W        W28245  34.505  30.560  14.952
55953W        W28246  29.489  44.896  13.824
55954W        W28247   7.690  21.171   3.637
55955W        W28248  21.059  22.655   2.222
55956W        W28249  37.084   4.813   3.327
55957W        W28250   5.879  38.418  12.933
55958W        W28251   6.239  37.393  12.961
55959W        W28252  32.626  41.953   2.693
55960W        W28253   7.834  37.933  13.507
55961W        W28254  36.891   7.714  12.373
55962W        W28255  24.166  44.809   1.894
55963W        W28256   2.276  44.900  10.893
55964W        W28257  13.719  19.143  11.078
55965W        W28258  20.060   9.223  13.465
55966W        W28259  13.677  42.449   1.926
55967W        W28260   6.771   8.896   3.821
55968W        W28261   7.812  35.591  11.497
55969W        W28262  44.841  42.328  12.385
55970W        W28263  18.781  41.426   0.835
55971W        W28264   5.888  18.235   3.248
55972W        W28265  16.190  14.767  11.065
55973W        W28266  22.534  37.839  14.778
55974W        W28267  20.235  37.926   0.833
55975W        W28268  13.714  32.056  13.913
55976W        W28269  40.823   5.335   3.280
55977W        W28270   2.966   9.747  14.514
55978W        W28271   2.403  42.484  14.771
55979W        W28272  39.901  28.029   4.819
55980W        W28273  15.110  36.013  12.869
55981W        W28274  37.980  21.034   2.333
55982W        W28275   5.764  20.189  13.960
55983W        W28276  40.052   8.810  13.968
55984W        W28277  23.509  43.396  13.540
55985W        W28278  37.857  15.634   3.333
55986W        W28279   0.984   9.763   4.791
55987W        W28280  12.722  11.822   2.361
55988W        W28281  13.295  44.449  13.463
55989W        W28282  13.655  39.440   2.784
55990W        W28283  32.494  31.541   2.236
55991W        W28284  39.501   6.240   0.460
55992W        W28285  39.337   8.184   1.869
55993W        W28286   7.354   7.890  11.402
55994W        W28287  31.489  12.121  12.934
55995W        W28288  21.111  28.533   1.323
55996W        W28289   5.701  12.256  14.999
55997W        W28290  44.391  10.203  13.371
55998W        W28291   6.782  37.963  14.318
55999W        W28292  27.104  32.468  11.965
56000W        W28293  23.635  21.088  10.407
56001W        W28294   4.907  36.913   2.756
56002W        W28295  20.071  31.024   2.756
56003W        W28296  38.853  22.083   2.354
56004W        W28297  29.487  33.527  11.484
56005W        W28298  14.615  22.146  14.343
56006W        W28299   9.845  23.672  14.327
56007W        W28300  34.946  29.079   2.803
56008W        W28301   3.908  35.003  12.961
56009W        W28302   7.704  43.778  14.827
56010W        W28303  13.830  35.995  13.820
56011W        W28304  29.136  29.497   4.195
56012W        W28305   3.333  15.083   0.404
56013W        W28306  19.124   5.312   2.697
56014W        W28307  44.317   3.789   1.822
56015W        W28308   8.800  43.943   0.936
56016W        W28309  42.471  24.686   3.239
56017W        W28310  13.195  15.623   3.343
56018W        W28311   6.212  41.869   1.718
56019W        W28312  27.507  36.025  10.478
56020W        W28313  25.704   5.875  10.430
56021W        W28314  15.797  22.586  12.577
56022W        W28315  17.203  34.390  13.408
56023W        W28316  36.018  28.659  10.562
56024W        W28317  32.059   4.214   1.416
56025W        W28318   8.774  10.210  13.527
56026W        W28319  11.250   3.358  10.510
56027W        W28320  17.262  34.034  13.957
56028W        W28321  37.837   8.400  14.843
56029W        W28322  11.636  22.134  13.346
56030W        W28323  40.961  39.970   4.314
56031W        W28324  18.710  30.514   3.830
56032W        W28325  37.035  28.167   1.336
56033W        W28326  38.461  23.027   3.786
56034W        W28327  32.890   2.355  11.933
56035W        W28328  17.617  34.082  11.572
56036W        W28329  21.754  41.995  14.324
56037W        W28330  25.695  39.880   4.838
56038W        W28331  40.829  42.462  14.021
56039W        W28332  11.712  11.184   2.219
56040W        W28333  44.843  39.518   2.740
56041W        W28334  12.694   1.424  12.576
56042W        W28335   8.307   6.249   0.277
56043W        W28336  44.779  25.125  11.907
56044W        W28337  16.164  41.328  14.334
56045W        W28338  21.105  10.709  11.418
56046W        W28339  22.663  28.015  13.837
56047W        W28340  16.805  17.677  10.480
56048W        W28341  22.155  19.686  11.388
56049W        W28342  15.283  18.654   4.128
56050W        W28343  23.188  19.062   1.349
56051W        W28344  39.451  21.234   4.321
56052W        W28345  28.592   0.855  13.902
56053W        W28346  44.879  14.796  14.924
56054W        W28347   4.392  35.906   3.289
56055W        W28348  37.964  35.883   3.198
56056W        W28349   0.463  42.396   1.877
56057W        W28350  23.000  43.971   3.721
56058W        W28351  36.552  34.894  13.996
56059W        W28352  17.155  21.586  11.438
56060W        W28353   9.356   8.822  11.944
56061W        W28354  11.750  32.093  14.031
56062W        W28355   9.769  30.590  12.015
56063W        W28356  37.919  33.481  13.485
56064W        W28357  20.040  36.518   2.698
56065W        W28358   7.876  13.264   2.284
56066W        W28359  14.665  27.038  14.975
56067W        W28360  18.641  37.498  13.015
56068W        W28361  40.547   7.417   3.865
56069W        W28362  35.359  35.074  12.977
56070W        W28363  28.044  33.410   5.200
56071W        W28364   6.382   5.772  11.026
56072W        W28365  39.395  34.498  14.323
56073W        W28366  18.185  26.530   4.302
56074W        W28367  20.053  44.350  12.359
56075W        W28368  15.238  19.583  14.851
56076W        W28369   2.926  41.353  10.926
56077W        W28370  32.137  35.506  11.095
56078W        W28371  20.146  19.596  12.922
56079W        W28372  28.116   7.746  10.123
56080W        W28373  39.938  35.361   3.243
56081W        W28374  44.463  17.152  11.088
56082W        W28375   2.946  33.983   3.674
56083W        W28376   6.215   6.258  10.536
56084W        W28377  11.199  24.160   2.796
56085W        W28378  15.819   2.450  13.861
56086W        W28379  33.392  22.150   9.961
56087W        W28380  10.332  40.494  14.486
56088W        W28381  17.272  12.192   2.209
56089W        W28382  26.658  10.770   4.679
56090W        W28383  13.805  14.656   4.833
56091W        W28384  35.533  34.522   2.391
56092W        W28385  20.134   5.895   4.142
56093W        W28386  23.641  40.482  13.999
56094W        W28387  33.536  29.021  14.467
56095W        W28388   8.265  33.932  10.469
56096W        W28389  11.133  36.389  13.034
56097W        W28390  22.518  36.098   3.716
56098W        W28391  38.057  13.757  11.482
56099W        W28392   4.251  42.397  12.570
56100W        W28393  42.457  34.387   2.736
56101W        W28394  28.161  33.907   0.734
56102W        W28395  28.470  28.099  12.947
56103W        W28396  27.077   0.965  14.880
56104W        W28397  11.657  23.155   3.364
56105W        W28398  17.087  15.096   1.695
56106W        W28399  25.044  44.464  14.764
56107W        W28400  41.434  18.282   2.880
56108W        W28401  13.201  42.448  14.920
56109W        W28402  43.863  32.977  11.997
56110W        W28403  17.097  24.582   2.206
56111W        W28404  37.957  32.047   2.261
56112W        W28405   4.306  43.820   0.856
56113W        W28406  44.342  35.576  10.945
56114W        W28407  35.459  21.065  13.806
56115W        W28408  21.581   4.358   0.335
56116W        W28409  38.488  24.089  11.568
56117W        W28410  30.079  37.838   1.735
56118W        W28411  38.821  41.950   2.820
56119W        W28412  23.101  14.278   5.112
56120W        W28413  29.097   8.737  10.562
56121W        W28414  28.175  25.502  10.583
56122W        W28415  20.141  32.973  11.899
56123W        W28416  18.109  27.620   4.827
56124W        W28417  29.980  18.780  11.558
56125W        W28418  36.054   3.841   1.768
56126W        W28419  27.464  10.788  14.787
56127W        W28420  21.688  19.107   4.692
56128W        W28421  10.290  30.018  13.489
56129W        W28422   9.806   3.850  14.464
56130W        W28423  37.917  13.294  13.000
56131W        W28424  18.560  15.705  10.022
56132W        W28425  30.152  12.132  12.449
56133W        W28426  23.639  17.082  13.469
56134W        W28427  33.962   3.730  12.951
56135W        W28428  22.686   0.928  11.863
56136W        W28429  18.238  29.535   2.295
56137W        W28430  10.197   7.867  14.825
56138W        W28431   7.685  35.456  14.786
56139W        W28432  44.462  23.064   3.157
56140W        W28433   5.195  23.228   1.219
56141W        W28434  43.389  16.791  10.426
56142W        W28435  34.049  36.086  14.831
56143W        W28436  41.375   8.824  11.585
56144W        W28437  41.918  22.024  13.506
56145W        W28438   7.280   8.310  11.893
56146W        W28439  27.997  38.412  13.961
56147W        W28440  37.025  10.367  12.950
56148W        W28441  39.858  29.530  14.382
56149W        W28442  14.175  17.785  10.546
56150W        W28443   0.410  26.123   1.247
56151W        W28444  23.591   6.233   0.869
56152W        W28445  31.567  29.149  14.759
56153W        W28446  13.347  12.345   1.235
56154W        W28447  38.871  30.526  13.819
56155W        W28448  17.254  15.821   3.344
56156W        W28449  42.874  16.270  14.990
56157W        W28450  17.235  22.697   1.296
56158W        W28451   3.829  13.180  14.432
56159W        W28452  26.603   8.767  11.599
56160W        W28453  31.459  19.571   4.296
56161W        W28454  17.127   2.832   2.408
56162W        W28455  10.660  35.514  13.447
56163W        W28456  39.351  44.286  11.482
56164W        W28457   1.323  12.175   2.415
56165W        W28458   3.864  33.401  11.894
56166W        W28459  25.065  22.249  12.414
56167W        W28460  10.267  19.757  11.521
56168W        W28461   4.899   7.289  13.830
56169W        W28462  11.867  37.458  12.841
56170W        W28463   8.676  10.173   2.241
56171W        W28464  21.066  15.604   0.781
56172W        W28465  37.032  36.898   3.713
56173W        W28466   6.847  31.491  14.766
56174W        W28467  35.975   3.450  10.607
56175W        W28468  12.780  18.123  13.957
56176W        W28469   0.793   3.745   3.230
56177W        W28470  41.326  36.393  12.054
56178W        W28471  32.951  39.399   4.629
56179W        W28472  33.398  20.583  12.559
56180W        W28473  21.072   0.479  12.345
56181W        W28474  18.151  26.208   4.217
56182W        W28475  38.999  28.976   2.682
56183W        W28476  12.688  41.440   3.751
56184W        W28477  43.341  12.797   5.104
56185W        W28478   4.435  15.164   2.397
56186W        W28479  24.225  33.414   4.746
56187W        W28480  29.128  14.265  11.104
56188W        W28481  43.428  34.993  10.535
56189W        W28482  17.796  31.535   4.307
56190W        W28483  30.455  35.968   2.776
56191W        W28484   2.268  29.000   2.354
56192W        W28485   4.888  32.992  10.444
56193W        W28486  43.278  44.796  10.103
56194W        W28487  35.891   7.722   4.269
56195W        W28488  18.230  15.089   1.448
56196W        W28489   0.857   9.718   1.380
56197W        W28490  29.478  37.494   1.332
56198W        W28491  18.078   3.328  11.087
56199W        W28492   3.955  28.639  11.891
56200W        W28493  39.453  36.584  11.890
56201W        W28494  25.544  35.004   4.782
56202W        W28495  40.007  21.740   3.826
56203W        W28496  33.440  32.023   3.813
56204W        W28497  30.533  28.968   3.182
56205W        W28498  31.517  16.074   0.304
56206W        W28499  32.956  25.469  14.862
56207W        W28500  41.349   8.801   2.837
56208W        W28501   7.793  18.757   2.677
56209W        W28502  38.961  30.032  14.488
56210W        W28503  11.165  29.976  13.966
56211W        W28504  42.478  38.490  13.525
56212W        W28505   0.860   6.837   3.759
56213W        W28506  25.608  32.013  11.550
56214W        W28507   5.842  35.542   5.708
56215W        W28508  22.712  27.122  13.466
56216W        W28509  31.084   0.290   1.294
56217W        W28510  30.958   3.876  11.418
56218W        W28511  39.477   1.269   1.273
56219W        W28512  13.266  42.852   0.281
56220W        W28513  33.564  16.294   2.806
56221W        W28514  14.643   8.786   3.304
56222W        W28515  42.404   6.312   0.871
56223W        W28516  42.802  26.597   1.282
56224W        W28517  39.348  21.573   3.735
56225W        W28518  31.594   6.295  12.050
56226W        W28519   4.856  44.821  13.797
56227W        W28520   3.254  12.629  12.403
56228W        W28521  19.549  39.346  11.503
56229W        W28522  28.435  25.987  14.758
56230W        W28523  21.648   2.438   2.179
56231W        W28524  17.225   5.369   2.366
56232W        W28525  30.920  24.231  12.976
56233W        W28526  29.030  27.484   4.665
56234W        W28527  25.693  42.890   4.191
56235W        W28528  27.484  31.483   2.799
56236W        W28529  30.098  24.695  11.100
56237W        W28530  31.948  35.603  10.501
56238W        W28531   8.878   5.781   3.868
56239W        W28532  25.173  31.404   0.916
56240W        W28533   2.949   0.494  14.977
56241W        W28534  37.546  31.432   4.767
56242W        W28535  14.833  31.574   1.846
56243W        W28536  20.079  18.698   2.189
56244W        W28537  16.138  22.027   1.214
56245W        W28538  30.078  39.866  13.013
56246W        W28539  32.936  21.027  13.359
56247W        W28540  33.569   9.353  12.513
56248W        W28541  41.328  43.890   2.868
56249W        W28542  13.661  37.086  10.935
56250W        W28543  19.126  24.692  14.477
56251W        W28544  19.756  34.529  13.434
56252W        W28545  29.995  35.097   1.382
56253W        W28546  30.524   8.311  13.458
56254W        W28547  38.514  19.085  10.427
56255W        W28548  19.601  12.658  11.383
56256W        W28549  17.178  10.674   4.787
56257W        W28550  28.495   6.872  11.949
56258W        W28551  31.908   9.758  13.871
56259W        W28552  22.659  13.297  10.591
56260W        W28553  42.830   4.760   2.795
56261W        W28554  23.681  18.577   3.852
56262W        W28555  17.131  32.109  12.550
56263W        W28556   4.895   1.321   2.276
56264W        W28557  41.975  24.622   4.137
56265W        W28558   6.213   5.304   2.720
56266W        W28559  27.959  36.394  10.614
56267W        W28560   4.869  12.787  10.987
56268W        W28561  30.028  22.225   1.354
56269W        W28562  33.381  16.689   4.785
56270W        W28563  27.546  16.711  14.923
56271W        W28564  22.064  22.167   0.437
56272W        W28565   1.763  12.252   3.182
56273W        W28566  12.852  38.997  10.473
56274W        W28567  30.531  17.075   0.311
56275W        W28568  36.482  33.485   4.275
56276W        W28569  41.922  44.930   1.451
56277W        W28570  43.918  18.647  13.999
56278W        W28571  20.068   0.918   4.616
56279W        W28572  37.445  41.939  14.304
56280W        W28573  15.215  19.712  10.568
56281W        W28574   0.277  21.259   1.317
56282W        W28575  31.983  21.699  13.835
56283W        W28576  14.596  18.069   4.333
56284W        W28577  33.117  15.793  12.033
56285W        W28578  43.407  13.635  11.057
56286W        W28579  33.906   5.903   0.403
56287W        W28580  24.120   7.834  12.988
56288W        W28581   5.715   2.887   2.336
56289W        W28582   4.399  13.801   2.396
56290W        W28583  25.703  39.949  13.876
56291W        W28584   5.390  41.415   3.804
56292W        W28585  17.100  40.527  10.543
56293W        W28586  36.434  17.107   0.254
56294W        W28587   4.353  39.507   3.761
56295W        W28588   7.213  10.304   4.781
56296W        W28589  32.567  24.629  14.992
56297W        W28590  23.169  41.294  10.590
56298W        W28591  14.783   6.796   2.333
56299W        W28592   8.685  14.156   2.345
56300W        W28593  17.197  28.533  13.015
56301W        W28594   7.852  38.336  13.010
56302W        W28595  40.333   6.326   3.751
56303W        W28596  13.818   0.342   1.423
56304W        W28597  40.951  23.030   0.960
56305W        W28598   4.370  25.572  14.816
56306W        W28599  13.339  27.455  13.902
56307W        W28600   8.673  23.196  12.356
56308W        W28601  39.829  26.017  11.437
56309W        W28602  33.380  17.562  10.519
56310W        W28603  12.816  16.150   3.383
56311W        W28604  43.823  20.675  14.476
56312W        W28605  14.828  36.952   0.305
56313W        W28606   1.945  35.464   4.835
56314W        W28607   4.329  42.474  13.862
56315W        W28608   2.270  25.040   0.830
56316W        W28609   6.898  17.122   1.825
56317W        W28610  29.934  39.853  14.023
56318W        W28611  37.980  12.696   0.951
56319W        W28612  27.684  13.260  10.965
56320W        W28613  11.811  31.587  13.965
56321W        W28614   2.369  23.111   1.880
56322W        W28615  41.338  25.038   3.799
56323W        W28616  28.154  29.666   4.698
56324W        W28617  12.833  35.870  14.873
56325W        W28618  36.890  16.656  13.320
56326W        W28619  41.315  37.023   1.255
56327W        W28620  11.225  24.188  14.879
56328W        W28621  43.512  29.981   0.848
56329W        W28622  15.199  19.218  14.491
56330W        W28623  21.653  11.634   4.191
56331W        W28624  14.793   7.307   2.783
56332W        W28625   4.271  23.205  13.541
56333W        W28626  41.467  21.716  13.930
56334W        W28627  43.772   8.392  12.909
56335W        W28628  34.995  24.052  11.901
56336W        W28629  37.436   4.352  13.358
56337W        W28630   4.703   1.358   1.432
56338W        W28631  23.720  40.853   1.358
56339W        W28632   5.255  16.135  14.835
56340W        W28633   6.334  34.008  12.557
56341W        W28634  33.561  42.351  12.835
56342W        W28635  21.161  27.017  12.884
56343W        W28636  36.904   6.356   0.883
56344W        W28637  15.082  30.466   4.745
56345W        W28638   2.461  11.172   2.285
56346W        W28639  11.292   5.406  10.943
56347W        W28640  24.572  25.999  14.902
56348W        W28641   3.934   5.770  10.499
56349W        W28642  32.087  44.438  13.399
56350W        W28643  36.987  28.965  12.472
56351W        W28644   7.281  19.578   3.687
56352W        W28645   8.290  11.663   2.240
56353W        W28646  26.098  13.686  14.824
56354W        W28647  16.718  12.171  11.931
56355W        W28648  24.100   0.403  14.473
56356W        W28649  13.730  26.660   0.897
56357W        W28650  28.171  22.070  10.039
56358W        W28651  40.542  37.850   1.857
56359W        W28652  24.062  31.423   1.320
56360W        W28653  29.043   2.723   3.382
56361W        W28654   6.377  27.629  14.886
56362W        W28655  20.056  39.910  12.956
56363W        W28656  40.309  29.159  13.441
56364W        W28657   5.256  38.359  13.547
56365W        W28658   2.406  44.488   1.402
56366W        W28659  11.707  15.251  13.026
56367W        W28660  24.088  32.423   2.415
56368W        W28661  37.361   4.819  12.568
56369W        W28662  30.137  35.989  12.944
56370W        W28663  41.858   0.844   9.540
56371W        W28664  30.438   2.817  12.442
56372W        W28665  42.919  35.874  12.543
56373W        W28666  43.434  41.323  11.857
56374W        W28667  31.574  15.602   4.255
56375W        W28668  32.061  28.986   4.701
56376W        W28669  32.550   4.345   1.278
56377W        W28670  26.032  24.537  12.548
56378W        W28671  43.463   1.347   4.234
56379W        W28672  44.426  23.709  13.418
56380W        W28673   5.379  25.061   2.278
56381W        W28674  27.544  22.712   4.808
56382W        W28675  17.253  39.857   3.162
56383W        W28676  43.285  27.578  14.499
56384W        W28677   0.805  17.206   4.655
56385W        W28678  19.156  29.991  10.601
56386W        W28679  18.747  23.028  10.051
56387W        W28680  29.037  41.982   0.942
56388W        W28681   8.322  15.098  14.981
56389W        W28682  39.868  40.996   2.290
56390W        W28683  39.512  38.458   1.782
56391W        W28684   1.248  24.071  10.486
56392W        W28685   5.774  21.526   1.342
56393W        W28686  23.017   9.340   2.182
56394W        W28687  41.879  30.565   2.312
56395W        W28688   2.250   5.801   3.808
56396W        W28689  38.872   0.894   2.309
56397W        W28690   4.829  15.617  14.481
56398W        W28691   0.410  40.393   4.721
56399W        W28692  17.705   9.295  11.613
56400W        W28693  20.587  27.556   0.262
56401W        W28694  17.255   3.280  12.072
56402W        W28695  38.430  19.664  10.898
56403W        W28696  36.033  28.160  13.927
56404W        W28697  44.926  21.558   1.816
56405W        W28698   1.807  24.217  11.104
56406W        W28699  19.558  31.102   0.287
56407W        W28700  30.624  18.599   2.755
56408W        W28701  21.152  41.021   0.312
56409W        W28702  19.594  19.067  12.444
56410W        W28703  15.193   5.711   4.720
56411W        W28704  35.058  22.591  11.083
56412W        W28705  10.170  17.105  10.900
56413W        W28706  32.939  15.094   1.699
56414W        W28707  41.910  11.810  12.376
56415W        W28708  19.556  43.502   0.768
56416W        W28709  38.874   6.877  10.576
56417W        W28710  25.967   7.339   4.268
56418W        W28711  19.736   4.255   1.436
56419W        W28712  26.178  37.903   4.651
56420W        W28713  14.332   9.370  12.058
56421W        W28714  20.075  20.755   9.437
56422W        W28715  23.063  43.986   0.750
56423W        W28716   5.335  12.801   4.327
56424W        W28717  28.953  26.701   1.268
56425W        W28718  22.654  14.727  11.037
56426W        W28719  14.698  12.349  11.504
56427W        W28720  22.047   6.197   1.935
56428W        W28721   1.793  20.591   3.351
56429W        W28722  20.094  31.593  13.009
56430W        W28723  22.198  33.975  13.327
56431W        W28724  11.356  10.849   2.214
56432W        W28725   6.300   7.236  11.432
56433W        W28726  10.649  39.494   4.182
56434W        W28727   3.855  31.015   3.158
56435W        W28728  35.023   8.774   2.786
56436W        W28729   1.932  10.230  13.348
56437W        W28730  37.035  20.116  14.306
56438W        W28731  25.118  29.159  13.932
56439W        W28732  11.675  40.320   2.794
56440W        W28733  35.872  22.186   3.262
56441W        W28734  20.529  34.370   0.248
56442W        W28735  23.111   2.783  13.855
56443W        W28736  40.873  35.018  10.582
56444W        W28737  15.128  25.082   2.332
56445W        W28738  21.740  36.447   3.363
56446W        W28739  26.205   3.836  10.409
56447W        W28740   1.807  19.732   3.852
56448W        W28741  21.653  17.265   9.981
56449W        W28742  23.165  20.228   3.822
56450W        W28743  28.454  34.048   4.117
56451W        W28744  21.666  26.464  12.006
56452W        W28745  29.555  30.467  11.427
56453W        W28746   5.311  37.391   0.943
56454W        W28747  23.509  25.006   4.785
56455W        W28748  34.608   7.818   2.830
56456W        W28749   9.203  17.064  11.600
56457W        W28750  14.661  13.333   1.444
56458W        W28751  24.994   4.770  11.019
56459W        W28752  40.013  27.979  11.064
56460W        W28753  43.372  20.208   0.342
56461W        W28754  28.505  34.998  12.544
56462W        W28755  12.273   4.361   1.375
56463W        W28756  44.906  44.857  10.952
56464W        W28757  32.962  24.551  12.380
56465W        W28758  37.956   0.391   1.432
56466W        W28759  18.065  22.995  11.115
56467W        W28760  36.548  22.726   0.953
56468W        W28761  33.082  41.947   0.821
56469W        W28762  17.126  23.631  11.453
56470W        W28763  36.861  10.652  12.875
56471W        W28764   1.375  10.202  10.569
56472W        W28765  25.625  37.523   1.375
56473W        W28766   2.261   4.297  11.098
56474W        W28767  33.997  28.657   2.373
56475W        W28768  32.919  17.635   3.710
56476W        W28769  14.603  27.655  12.385
56477W        W28770   7.675  32.904  12.950
56478W        W28771   0.341   2.466   1.916
56479W        W28772  27.110  26.191   0.945
56480W        W28773  41.299   4.816  13.517
56481W        W28774  44.363   1.372   3.250
56482W        W28775  15.265  16.263  14.507
56483W        W28776  26.501   8.882  13.340
56484W        W28777  12.225  32.995  10.567
56485W        W28778  39.972  37.015   0.857
56486W        W28779  11.805  11.290  10.992
56487W        W28780  17.701  28.469   4.324
56488W        W28781  18.605  28.445   3.385
56489W        W28782  36.025  28.636   0.866
56490W        W28783   2.890  13.127   1.880
56491W        W28784  36.990  21.632  10.437
56492W        W28785  26.208   3.313  14.302
56493W        W28786   9.182  36.520   3.783
56494W        W28787  13.146  22.118   4.778
56495W        W28788  23.677   9.794   2.693
56496W        W28789   6.699  42.384  10.949
56497W        W28790   9.755  19.708  14.942
56498W        W28791  36.097  33.125   0.474
56499W        W28792  37.083  31.461   1.799
56500W        W28793  15.738  11.305   3.162
56501W        W28794  17.601  25.021  13.026
56502W        W28795  24.661  25.694  14.931
56503W        W28796   7.675  12.829  11.046
56504W        W28797  37.866  27.088  11.109
56505W        W28798  17.759   2.429  12.525
56506W        W28799   2.400   6.281  13.491
56507W        W28800   2.333  14.150  10.028
56508W        W28801  28.084  26.081  11.547
56509W        W28802  44.290  12.215  12.507
56510W        W28803  19.706  43.436   4.251
56511W        W28804  25.488   3.379  12.543
56512W        W28805   3.359  43.512  10.428
56513W        W28806  23.152  32.941  11.525
56514W        W28807  17.726  13.289   1.927
56515W        W28808  13.732  42.883   2.835
56516W        W28809  18.784  44.289   4.150
56517W        W28810   6.901   0.969  10.570
56518W        W28811  23.692  15.222  10.632
56519W        W28812  40.509  11.354   4.347
56520W        W28813   3.241  35.926  10.494
56521W        W28814  38.394  14.280  13.848
56522W        W28815   5.436  28.488   1.872
56523W        W28816   9.844  40.396  12.340
56524W        W28817  23.067   4.717  12.047
56525W        W28818  40.509  36.067   4.341
56526W        W28819  24.497  12.226   1.387
56527W        W28820  16.183  31.146   1.367
56528W        W28821  10.228  36.038  14.969
56529W        W28822  12.747  29.989  12.553
56530W        W28823   9.207  23.531   0.374
56531W        W28824  32.610  30.559  13.398
56532W        W28825  28.002  44.385  11.898
56533W        W28826  17.224  33.068   1.854
56534W        W28827   2.802  10.379   3.284
56535W        W28828   1.326  18.268  14.416
56536W        W28829   7.203   1.967  14.856
56537W        W28830  42.813  19.591   4.688
56538W        W28831  25.112   3.437   5.091
56539W        W28832  17.208   4.944  10.405
56540W        W28833  23.529  29.570   4.617
56541W        W28834   1.335  17.639   3.326
56542W        W28835   3.395  16.688   1.266
56543W        W28836  42.828   8.323  14.902
56544W        W28837  30.615  10.663   0.361
56545W        W28838  36.965  11.146  11.993
56546W        W28839   0.875  32.090   1.881
56547W        W28840  13.747  16.126  12.559
56548W        W28841  15.801  17.791   2.780
56549W        W28842  36.937  24.024  11.931
56550W        W28843  23.162  17.219   1.917
56551W        W28844  11.217  28.985   0.788
56552W        W28845   5.880   2.363   3.283
56553W        W28846   7.907  34.901   3.871
56554W        W28847  25.116   4.263   1.807
56555W        W28848  21.024   9.744  12.342
56556W        W28849  21.621  28.654  11.946
56557W        W28850  15.746   9.768   0.326
56558W        W28851  31.997  26.183  11.935
56559W        W28852  27.606  25.648   1.708
56560W        W28853  31.152  27.637  14.365
56561W        W28854  32.066   5.692   4.766
56562W        W28855  29.155  22.579   1.396
56563W        W28856  13.162  41.292  12.435
56564W        W28857  40.339  31.446   1.398
56565W        W28858   9.287   7.268  14.285
56566W        W28859   8.794  43.425   4.755
56567W        W28860  17.675  18.254   1.332
56568W        W28861  44.295  11.657   5.219
56569W        W28862  28.601  15.171  13.471
56570W        W28863  26.188   6.789  11.064
56571W        W28864  10.168  25.169   2.225
56572W        W28865  20.028  16.287  12.962
56573W        W28866  35.881  36.988  10.579
56574W        W28867  19.565   2.354  13.019
56575W        W28868  18.052  32.526  13.488
56576W        W28869  31.088  44.361   2.281
56577W        W28870  18.786  29.570  14.931
56578W        W28871   9.667  41.998   4.238
56579W        W28872   5.306  35.100   3.713
56580W        W28873   0.249  11.260   1.360
56581W        W28874   5.323  42.448   0.341
56582W        W28875  14.717  43.409  12.924
56583W        W28876   7.200  30.446   1.222
56584W        W28877  38.981  17.658  13.866
56585W        W28878  24.578  32.480   2.858
56586W        W28879  14.682  38.998  14.319
56587W        W28880  30.003  11.854  10.997
56588W        W28881   1.256  33.898  14.768
56589W        W28882  24.113  43.439   0.453
56590W        W28883  39.536  33.091   4.661
56591W        W28884  34.970  35.047   4.767
56592W        W28885  30.516  25.160   4.336
56593W        W28886  32.490  40.979   3.853
56594W        W28887  10.834  12.305  14.814
56595W        W28888  27.975  40.519   4.827
56596W        W28889  34.887  38.042  11.922
56597W        W28890   2.423  27.515  13.878
56598W        W28891  42.512  23.646  12.414
56599W        W28892  42.032   3.945   0.902
56600W        W28893  12.754  26.519  13.373
56601W        W28894  29.161  44.950  11.103
56602W        W28895  36.912  36.412  13.028
56603W        W28896  43.401   9.183  10.476
56604W        W28897  27.663  41.325  12.063
56605W        W28898   8.326  33.885   5.668
56606W        W28899  23.565  37.474  11.389
56607W        W28900  26.688   5.246   2.845
56608W        W28901  19.060  25.633  14.490
56609W        W28902  14.698  34.913  11.514
56610W        W28903  44.306  20.602   2.822
56611W        W28904  44.952  22.160   3.638
56612W        W28905  36.890  23.685  10.973
56613W        W28906   8.160  44.448  13.003
56614W        W28907  29.622   8.401  13.496
56615W        W28908  24.050  23.228  13.045
56616W        W28909  39.531  33.542   4.749
56617W        W28910  12.209  41.811  14.782
56618W        W28911  24.139  33.510   1.754
56619W        W28912  44.778  12.799  11.950
56620W        W28913  22.220  34.939  14.313
56621W        W28914  20.692   7.172  10.536
56622W        W28915  34.975  42.016  10.955
56623W        W28916  39.885  40.466  14.783
56624W        W28917  33.976  14.812  12.061
56625W        W28918  13.751  31.445   4.658
56626W        W28919  40.982   5.865  11.586
56627W        W28920  20.061  36.052  10.892
56628W        W28921  12.666  34.105   3.352
56629W        W28922  36.025  25.988  11.517
56630W        W28923  24.603   9.799   0.478
56631W        W28924  44.462  13.237  12.070
56632W        W28925  23.630  25.021   4.284
56633W        W28926  30.506  31.449  14.283
56634W        W28927  30.996   1.767   3.725
56635W        W28928  44.441  27.022   1.763
56636W        W28929  39.450  33.997   4.157
56637W        W28930  14.637  17.081   0.379
56638W        W28931  15.248   8.214   1.331
56639W        W28932   9.195  35.452   2.792
56640W        W28933   8.790  34.912   5.198
56641W        W28934  30.449  41.417   1.846
56642W        W28935  29.442  12.643   4.639
56643W        W28936  17.724  29.020   2.901
56644W        W28937  27.548  43.859  13.315
56645W        W28938  35.358   1.393   4.346
56646W        W28939  13.676  14.103  13.516
56647W        W28940  21.564  26.631  13.543
56648W        W28941  36.470  15.316   0.455
56649W        W28942   6.902   0.473  12.992
56650W        W28943  16.631  22.516  11.391
56651W        W28944   5.227  17.254  10.477
56652W        W28945  37.387  37.938   0.245
56653W        W28946   3.955  11.737  12.894
56654W        W28947  38.024  32.632   3.803
56655W        W28948  44.391  39.961   1.261
56656W        W28949  19.618  32.411   3.174
56657W        W28950  26.646  40.483   0.344
56658W        W28951  42.967   2.368   2.723
56659W        W28952  26.005   6.417  14.940
56660W        W28953   6.330   3.298  10.960
56661W        W28954  43.477  26.622  13.833
56662W        W28955   2.227  17.132   0.394
56663W        W28956   6.910  21.648   3.174
56664W        W28957  43.426  15.281  12.453
56665W        W28958  34.412   8.350   1.777
56666W        W28959   8.710  21.244  14.870
56667W        W28960  44.858  23.531  10.930
56668W        W28961   6.319  21.556  11.071
56669W        W28962  12.178  10.718  12.533
56670W        W28963  31.460  37.930   0.909
56671W        W28964  17.272  22.662   0.316
56672W        W28965   8.793   8.871   1.214
56673W        W28966  22.727   0.266   1.795
56674W        W28967   2.952   8.721  13.913
56675W        W28968   1.821   3.848   0.730
56676W        W28969  30.132  11.288   0.260
56677W        W28970  44.816  38.969  13.338
56678W        W28971  41.851  34.963  14.981
56679W        W28972  20.138   7.227  10.611
56680W        W28973   1.471  16.291  10.469
56681W        W28974  26.160   4.257   9.575
56682W        W28975  11.842  13.230   0.310
56683W        W28976   9.326  38.488   3.178
56684W        W28977  21.055  22.200  12.463
56685W        W28978  43.812  24.492  14.005
56686W        W28979   4.719   8.272   2.868
56687W        W28980  31.506  41.389   3.645
56688W        W28981  41.331  10.154   2.242
56689W        W28982  12.843  35.562  10.547
56690W        W28983  23.239  35.963   2.419
56691W        W28984  33.976   8.207   3.305
56692W        W28985  43.413  38.034   0.250
56693W        W28986  12.165   0.948   1.915
56694W        W28987  36.916  15.240  14.867
56695W        W28988  41.411   8.320   0.288
56696W        W28989  28.101  15.813  14.290
56697W        W28990   0.305  32.462  13.388
56698W        W28991  26.530  11.332  13.544
56699W        W28992  26.108  42.520   0.312
56700W        W28993  26.038   7.213  12.086
56701W        W28994  29.536   6.737  12.354
56702W        W28995  42.881  38.433   3.795
56703W        W28996  13.180  31.637   3.651
56704W        W28997  26.564  34.077   0.753
56705W        W28998  22.059  29.121   2.348
56706W        W28999  31.004  22.058   3.386
56707W        W29000  14.103  37.076  12.066
56708W        W29001  19.096  22.503  11.033
56709W        W29002  30.162  21.024  11.958
56710W        W29003  19.690   2.306   0.906
56711W        W29004  41.796  42.483   2.737
56712W        W29005  35.572  41.905  13.829
56713W        W29006  11.661  17.117   0.966
56714W        W29007  44.784   6.394  12.845
56715W        W29008  35.604   2.901  13.902
56716W        W29009  21.713  31.420   0.894
56717W        W29010  28.614  38.434  11.125
56718W        W29011  28.496  13.773  14.771
56719W        W29012  18.269  13.175   0.306
56720W        W29013  21.758  19.670   4.727
56721W        W29014  18.765   7.700   2.811
56722W        W29015  18.583  40.839   4.744
56723W        W29016   1.394  15.763   0.964
56724W        W29017  41.490  37.046  10.901
56725W        W29018  35.376  10.734  10.509
56726W        W29019  35.930  10.654  11.984
56727W        W29020  32.462   9.767  11.461
56728W        W29021   4.289  22.168   4.165
56729W        W29022  26.140  36.000   2.831
56730W        W29023  43.867  35.369   4.775
56731W        W29024  19.238  25.474  13.354
56732W        W29025  39.551  11.772   0.331
56733W        W29026  15.281  43.458   2.798
56734W        W29027   9.231  11.745  11.862
56735W        W29028  24.064  43.515  14.977
56736W        W29029  30.533   5.834  12.896
56737W        W29030  35.384  41.457  14.945
56738W        W29031  26.011  15.283  11.931
56739W        W29032   5.253  28.124  10.466
56740W        W29033  20.747   8.824  12.957
56741W        W29034  32.138  42.958   4.169
56742W        W29035  28.540   2.944   0.456
56743W        W29036  21.239  43.965  12.511
56744W        W29037  23.175  34.021   4.656
56745W        W29038  20.123  15.314   3.632
56746W        W29039  19.285  13.845  14.498
56747W        W29040  20.724  28.974  14.433
56748W        W29041  20.657  40.982  11.453
56749W        W29042  23.197  28.164  10.981
56750W        W29043   4.863  16.231  10.455
56751W        W29044   8.314  30.999  11.026
56752W        W29045  10.214   3.848  11.382
56753W        W29046  11.799  15.763  11.585
56754W        W29047  22.084  39.325  13.327
56755W        W29048  21.155   0.940   0.391
56756W        W29049  23.162  38.405   0.274
56757W        W29050  34.020  42.523  12.979
56758W        W29051   7.275   2.801  12.004
56759W        W29052  35.531  14.732   4.284
56760W        W29053  26.973  38.511   0.357
56761W        W29054  20.131  13.284  10.599
56762W        W29055  36.067  38.960  13.412
56763W        W29056  19.284  25.072   1.371
56764W        W29057   9.330  38.863  12.522
56765W        W29058  34.993   3.320  12.053
56766W        W29059  41.351  26.179  12.065
56767W        W29060  33.490  39.320   0.962
56768W        W29061  29.462   9.666  12.550
56769W        W29062  38.481   6.382   2.261
56770W        W29063  33.953  36.894  14.387
56771W        W29064  43.848   2.751  10.896
56772W        W29065   4.873  18.083   3.838
56773W        W29066  43.300  21.542   0.401
56774W        W29067   3.892  24.199   2.723
56775W        W29068   5.916  36.099   2.836
56776W        W29069  33.106  38.060   0.764
56777W        W29070  36.366  40.916  14.892
56778W        W29071  32.902  15.238   4.125
56779W        W29072  41.900   2.747  11.094
56780W        W29073  31.099  30.025   0.906
56781W        W29074   2.734  17.683  13.940
56782W        W29075  40.416  31.940  13.441
56783W        W29076  28.524  31.024   2.290
56784W        W29077  38.544  24.195  13.890
56785W        W29078  17.669  18.235   3.706
56786W        W29079  43.325  32.094  11.609
56787W        W29080   7.790  14.713  12.972
56788W        W29081  41.429  28.061   2.241
56789W        W29082  24.638   2.906   2.203
56790W        W29083  29.041  27.583   2.790
56791W        W29084  27.660  26.700   1.700
56792W        W29085  21.021  22.060  11.403
56793W        W29086   6.191  25.113   4.208
56794W        W29087  29.500  15.107  10.481
56795W        W29088  39.347  13.222   2.309
56796W        W29089  29.562  44.823  10.889
56797W        W29090  27.572   3.264  12.564
56798W        W29091  27.594  25.576  11.903
56799W        W29092  13.322  42.863  10.551
56800W        W29093  14.316  42.399   1.225
56801W        W29094  10.310  38.909  11.459
56802W        W29095  43.393  30.163   4.116
56803W        W29096  36.998  24.588   0.916
56804W        W29097  29.492  14.811   2.760
56805W        W29098  44.403  13.147   1.356
56806W        W29099  27.006  29.976   4.758
56807W        W29100  23.525  19.631   1.394
56808W        W29101  10.197  24.688   3.322
56809W        W29102  32.007  16.611  12.442
56810W        W29103   8.318  15.580  11.583
56811W        W29104   0.916  34.530  12.015
56812W        W29105  16.296  35.034  10.575
56813W        W29106  12.768   3.395  13.454
56814W        W29107  35.019  27.953   1.907
56815W        W29108   1.416   1.940  14.946
56816W        W29109   0.300  16.120  10.918
56817W        W29110  12.183  13.698   3.733
56818W        W29111  29.667   6.376   5.190
56819W        W29112  18.198  33.007  14.982
56820W        W29113  19.724   1.773   0.753
56821W        W29114  33.978  11.270   0.370
56822W        W29115  44.468  17.726  10.038
56823W        W29116   1.845  39.399  10.452
56824W        W29117   5.264  39.821  12.407
56825W        W29118  37.455  30.040   0.448
56826W        W29119  35.480  16.210  14.394
56827W        W29120  31.408   6.794  11.092
56828W        W29121   1.820   0.475   1.398
56829W        W29122  29.012   7.300  11.583
56830W        W29123   9.851  30.152  10.980
56831W        W29124  23.047  23.142   2.336
56832W        W29125  19.230  33.993   4.282
56833W        W29126  37.940   9.294  14.872
56834W        W29127   7.741   7.222   4.148
56835W        W29128  23.698  11.819   0.891
56836W        W29129   4.282   0.252   4.233
56837W        W29130  40.837  26.514  13.987
56838W        W29131  23.625  29.489  11.374
56839W        W29132   3.375  25.006  12.521
56840W        W29133   9.168  16.115  14.893
56841W        W29134  32.466  41.952  13.382
56842W        W29135  43.424  37.040  10.428
56843W        W29136  33.506   1.392   0.318
56844W        W29137  14.809  39.488   2.808
56845W        W29138  36.026  30.139  14.874
56846W        W29139  30.091  27.566  11.026
56847W        W29140  33.922  44.345   0.771
56848W        W29141  32.548  33.939  13.008
56849W        W29142  13.630  44.892  11.067
56850W        W29143  21.671   2.800  12.991
56851W        W29144  26.190  38.010   2.339
56852W        W29145  21.171   1.241  12.456
56853W        W29146  43.320   9.745  11.011
56854W        W29147  38.424  24.635   4.675
56855W        W29148  22.646   0.305  11.991
56856W        W29149  33.480  29.944  11.999
56857W        W29150  27.568  20.547   3.845
56858W        W29151   9.669  22.145   1.932
56859W        W29152  25.477  38.918   5.158
56860W        W29153  43.786   0.794  12.449
56861W        W29154  25.171  20.236  13.528
56862W        W29155   6.769  27.083   3.352
56863W        W29156  17.155  11.716   4.613
56864W        W29157  31.565  27.135  13.941
56865W        W29158  43.510  24.494   3.737
56866W        W29159   4.828   1.861  10.022
56867W        W29160  11.818  26.543  13.488
56868W        W29161  12.712  11.274  11.561
56869W        W29162   9.763  21.713   0.273
56870W        W29163  30.063  23.100   5.217
56871W        W29164   8.878  43.932  13.451
56872W        W29165   3.725   6.814  12.023
56873W        W29166  22.598  29.076   2.755
56874W        W29167  37.531  17.560   2.757
56875W        W29168  43.498  13.649  14.275
56876W        W29169  17.623  33.909   1.312
56877W        W29170  36.490   2.357  11.923
56878W        W29171   1.838  44.342   3.309
56879W        W29172  44.931  24.511   2.670
56880W        W29173  24.699   8.663  11.493
56881W        W29174  33.430  29.158   0.960
56882W        W29175  19.645  27.136   1.736
56883W        W29176  19.656   9.163  12.404
56884W        W29177  35.488  31.494  13.977
56885W        W29178  18.105   4.880   1.310
56886W        W29179  12.140   2.348   0.906
56887W        W29180  27.518   0.837  12.947
56888W        W29181  25.710  38.543  11.092
56889W        W29182  31.069  34.549   9.922
56890W        W29183  24.644  22.024  11.004
56891W        W29184  25.476  11.226   3.254
56892W        W29185   7.758  39.418  10.932
56893W        W29186  42.912   3.310  11.453
56894W        W29187  11.182  39.028  10.954
56895W        W29188  41.854  37.079  12.862
56896W        W29189  16.709  29.029   2.840
56897W        W29190  26.115  17.754   3.662
56898W        W29191  16.137  35.432  12.406
56899W        W29192   7.381  24.624  14.869
56900W        W29193  22.205   3.230  11.102
56901W        W29194  32.417  25.160   3.264
56902W        W29195  43.416  36.365   2.812
56903W        W29196  28.089  42.931   1.279
56904W        W29197  37.349  22.109   2.731
56905W        W29198  21.576  19.243  13.494
56906W        W29199  44.846   6.197   1.251
56907W        W29200  39.918  29.024   4.688
56908W        W29201  16.753  25.192   0.890
56909W        W29202   6.863  14.656  14.491
56910W        W29203  44.004  27.688   1.780
56911W        W29204  44.791  42.501   2.886
56912W        W29205  35.090  31.132  13.408
56913W        W29206  28.485  13.217  12.360
56914W        W29207  38.506  39.863  12.077
56915W        W29208  21.102  15.129  12.035
56916W        W29209  38.928  25.083   4.721
56917W        W29210  17.556  19.704  13.857
56918W        W29211  19.754   3.878  10.957
56919W        W29212  30.627  23.090  12.000
56920W        W29213  11.748   0.412   0.473
56921W        W29214  31.076  44.388  14.332
56922W        W29215  34.466  36.916   4.793
56923W        W29216  43.354  39.967   1.441
56924W        W29217  16.587  16.757  14.951
56925W        W29218   8.698  15.175  11.946
56926W        W29219  28.561  39.958  11.513
56927W        W29220   9.833  10.811  13.547
56928W        W29221  17.675  19.064   1.906
56929W        W29222   1.443  24.562  14.976
56930W        W29223  38.456  12.694  12.354
56931W        W29224  32.956  33.435  12.514
56932W        W29225   7.846  18.668  14.885
56933W        W29226   6.723  27.184  12.465
56934W        W29227  26.505  33.544  11.507
56935W        W29228   1.868  42.494  13.049
56936W        W29229  19.699  31.991  10.905
56937W        W29230  14.125  38.859   3.665
56938W        W29231  20.068  13.228  14.302
56939W        W29232  11.646  18.055  10.917
56940W        W29233  19.765   2.321  10.435
56941W        W29234  38.448   1.393  12.070
56942W        W29235  20.721   4.832  10.588
56943W        W29236  30.561  23.703   0.464
56944W        W29237  18.072  31.509  13.530
56945W        W29238  14.256  40.357   4.607
56946W        W29239  27.589  19.231   3.739
56947W        W29240  37.379   7.290   4.822
56948W        W29241  17.623   0.748   1.430
56949W        W29242  26.158  44.347   1.412
56950W        W29243  38.383  10.843   0.271
56951W        W29244  21.690  35.402   1.853
56952W        W29245  32.577   0.763   0.375
56953W        W29246   8.226  20.250  12.353
56954W        W29247  25.479  25.655  11.124
56955W        W29248   8.714  36.968  14.398
56956W        W29249  27.545   9.162  11.473
56957W        W29250  36.488   3.404   3.231
56958W        W29251  10.666  22.109  11.555
56959W        W29252  44.290  27.615  13.425
56960W        W29253   2.757  25.101   0.402
56961W        W29254  42.492  34.990   1.323
56962W        W29255  17.566   4.252  13.954
56963W        W29256  42.930  29.662  13.540
56964W        W29257  42.357  20.124  12.523
56965W        W29258  10.196  39.404  13.906
56966W        W29259  14.166  22.127   1.874
56967W        W29260  38.570  40.345  12.373
56968W        W29261  17.614  17.227  14.432
56969W        W29262  39.458  18.747  14.804
56970W        W29263  36.933   5.764   3.299
56971W        W29264  30.119  10.669   4.327
56972W        W29265   8.309  35.884  11.585
56973W        W29266  26.001  21.642  13.959
56974W        W29267   8.287   8.312  13.967
56975W        W29268  11.804  10.324  13.352
56976W        W29269  39.019  41.419   0.821
56977W        W29270   5.788  23.234  14.275
56978W        W29271  15.120   3.216  10.574
56979W        W29272  43.928   8.402  13.326
56980W        W29273  19.593  38.992  10.482
56981W        W29274  11.837  14.190   1.932
56982W        W29275  15.622   3.335   2.780
56983W        W29276   5.733  14.122  12.850
56984W        W29277  31.591   1.905   2.350
56985W        W29278  16.250  14.798   3.662
56986W        W29279  30.477  19.672   2.811
56987W        W29280  31.485  35.560   0.752
56988W        W29281  17.117  40.045  14.498
56989W        W29282  28.182  41.959   0.960
56990W        W29283   6.301  26.517   3.165
56991W        W29284   1.972  19.552   2.743
56992W        W29285  14.099   9.803   2.186
56993W        W29286  26.684  15.172  13.022
56994W        W29287  24.711  44.896  12.498
56995W        W29288  22.635  39.451   4.680
56996W        W29289  13.646  38.452  10.570
56997W        W29290   0.343  41.531  12.561
56998W        W29291  40.384   0.786   5.161
56999W        W29292  43.438  28.943   3.857
57000W        W29293  31.043  33.915   2.876
57001W        W29294  18.272  44.891   0.730
57002W        W29295  20.621  34.446  13.060
57003W        W29296  10.308  32.424  13.497
57004W        W29297  41.536   0.386   0.457
57005W        W29298  19.568  25.205   3.669
57006W        W29299   7.252  11.668  11.883
57007W        W29300  14.116  26.132  12.532
57008W        W29301  40.863  39.811  14.921
57009W        W29302  32.886  23.620  11.985
57010W        W29303  38.359  23.185   3.308
57011W        W29304   3.221  13.733   4.679
57012W        W29305  26.583  33.995  11.115
57013W        W29306  35.909  39.962  10.891
57014W        W29307   4.793  40.543   3.335
57015W        W29308  30.104  15.662  10.089
57016W        W29309  41.507  41.027  13.976
57017W        W29310  21.620  16.080  10.534
57018W        W29311  38.856  43.980   3.856
57019W        W29312  42.462  40.431  13.528
57020W        W29313  30.961  41.912   0.932
57021W        W29314  15.134  29.446   3.228
57022W        W29315  18.738  34.481  12.992
57023W        W29316   6.699  34.905  11.066
57024W        W29317   6.848  11.288   2.239
57025W        W29318  36.484  14.633   4.342
57026W        W29319  26.973  23.998   5.621
57027W        W29320   7.290  30.610   1.857
57028W        W29321  38.074  10.226   2.205
57029W        W29322  29.992  28.125   4.828
57030W        W29323  38.823  31.547   2.877
57031W        W29324  23.533  37.031   2.717
57032W        W29325  28.115  16.675  13.448
57033W        W29326  36.966  10.230  14.939
57034W        W29327   0.917   1.757   1.287
57035W        W29328  29.938  31.981  13.458
57036W        W29329  34.049   1.750   3.702
57037W        W29330   8.759   9.196  14.878
57038W        W29331  37.377  22.555   5.259
57039W        W29332  40.890  14.659  10.910
57040W        W29333  20.176  33.876  12.479
57041W        W29334  23.054  25.035   2.245
57042W        W29335  10.299  17.288   3.633
57043W        W29336  43.359  12.197   0.827
57044W        W29337  39.877  36.065   0.258
57045W        W29338  11.140  44.498  14.489
57046W        W29339  25.654   3.261   3.767
57047W        W29340  34.002  31.027   2.366
57048W        W29341  12.770  25.527  13.815
57049W        W29342   3.245   2.365  10.569
57050W        W29343  22.579  16.228  11.955
57051W        W29344  18.554  31.494  14.793
57052W        W29345  35.978  12.730   0.753
57053W        W29346  19.598  17.100  12.908
57054W        W29347  38.065  13.327  11.012
57055W        W29348   5.224   2.944  14.463
57056W        W29349  43.770  31.582   1.757
57057W        W29350  13.651  24.650  13.333
57058W        W29351  40.865  32.136  13.796
57059W        W29352  41.982  27.023   2.689
57060W        W29353   9.882  18.550   0.402
57061W        W29354  18.065  13.300   3.225
57062W        W29355  10.370  18.136  14.915
57063W        W29356   4.922  23.052   1.932
57064W        W29357  30.604  18.092  14.455
57065W        W29358  14.759  18.055   2.317
57066W        W29359  39.966  14.214   5.272
57067W        W29360  10.737  30.989   1.235
57068W        W29361   3.852  33.431  13.428
57069W        W29362  40.449   9.700  11.035
57070W        W29363  41.399   1.970   1.373
57071W        W29364   8.253  38.069  12.966
57072W        W29365  23.048  30.437   0.468
57073W        W29366  21.515  28.574  14.929
57074W        W29367  37.995   2.434   4.165
57075W        W29368  29.098   8.397  12.865
57076W        W29369  42.915   9.313   2.690
57077W        W29370  16.100  41.381   3.264
57078W        W29371  30.021   0.854  13.542
57079W        W29372  29.142   4.835  14.891
57080W        W29373  38.052  44.296   3.249
57081W        W29374  28.567  15.739   3.792
57082W        W29375  43.887  17.623   1.759
57083W        W29376  42.463   5.767   0.350
57084W        W29377  44.477  25.697   3.242
57085W        W29378  17.217  33.959   4.731
57086W        W29379   4.280   1.332  14.866
57087W        W29380  41.366   4.267  10.521
57088W        W29381  25.154  22.995   1.432
57089W        W29382  24.087  34.989  10.035
57090W        W29383  32.963  29.959   3.172
57091W        W29384  34.967  35.899  14.965
57092W        W29385  38.432  10.298   0.904
57093W        W29386  15.270  17.651   2.375
57094W        W29387   9.171   6.738  11.074
57095W        W29388  37.885  13.744  12.416
57096W        W29389   3.761  16.693  14.991
57097W        W29390   9.704  27.585   3.241
57098W        W29391  42.508  20.553   1.830
57099W        W29392  35.853   5.934   3.296
57100W        W29393  28.124  16.704  13.023
57101W        W29394  19.557  41.393   2.230
57102W        W29395  12.796  29.567   2.879
57103W        W29396  31.468   9.885  12.974
57104W        W29397  25.643  24.075   4.760
57105W        W29398   2.379  31.114  11.860
57106W        W29399   6.872  41.800  12.566
57107W        W29400  13.671  44.310  12.480
57108W        W29401   0.414  39.882   0.892
57109W        W29402   7.812  14.094  13.508
57110W        W29403  43.461  43.857   0.437
57111W        W29404  28.057   2.950   3.278
57112W        W29405  15.609  10.204   3.839
57113W        W29406  30.630  18.710  11.870
57114W        W29407   6.822  41.365  10.923
57115W        W29408  13.220   2.451  14.371
57116W        W29409  11.632  27.484  10.990
57117W        W29410  32.592  25.156  10.066
57118W        W29411  27.661  23.985  11.532
57119W        W29412   1.298  37.876   3.313
57120W        W29413   5.844  32.041   2.385
57121W        W29414   3.439  39.052   5.213
57122W        W29415  33.521  32.394  13.805
57123W        W29416  33.553   7.772   0.290
57124W        W29417  43.307  18.621   3.652
57125W        W29418  32.108  41.873  12.374
57126W        W29419  10.637  24.168  12.574
57127W        W29420   8.334  11.682  10.973
57128W        W29421  24.607  26.673   1.283
57129W        W29422  21.257  10.879  13.352
57130W        W29423  10.707  32.974   2.285
57131W        W29424  19.755  37.984   0.881
57132W        W29425   5.796  35.546   2.334
57133W        W29426  41.955  35.540  12.883
57134W        W29427   3.845  10.838  11.418
57135W        W29428  18.226  35.955  14.975
57136W        W29429  33.015  32.116   2.889
57137W        W29430  21.745   9.699  14.032
57138W        W29431  42.502  13.176  10.961
57139W        W29432  34.476  18.293  12.342
57140W        W29433  20.054  22.515  14.282
57141W        W29434   7.355  36.083   0.901
57142W        W29435  29.633   4.401   1.838
57143W        W29436  38.508  11.688   1.793
57144W        W29437   5.265  17.124   3.645
57145W        W29438  29.964  42.776   3.381
57146W        W29439  18.141  11.802   3.691
57147W        W29440  17.615  24.064  10.993
57148W        W29441  10.173  13.811  12.558
57149W        W29442  34.083   3.449   4.238
57150W        W29443  19.238   0.460   2.866
57151W        W29444  28.015  32.405  14.461
57152W        W29445   3.723   9.357  13.812
57153W        W29446  34.599  24.144  11.404
57154W        W29447  24.204  12.689   1.861
57155W        W29448  43.938  21.228  11.983
57156W        W29449  33.453   4.772   0.744
57157W        W29450  29.610   9.302   1.441
57158W        W29451  21.047  34.909  12.459
57159W        W29452  35.532   9.840  12.968
57160W        W29453  15.121  38.896  13.801
57161W        W29454  16.737  22.092   9.662
57162W        W29455  19.100  28.671  14.387
57163W        W29456   6.876   7.858  14.798
57164W        W29457  43.806  16.097  13.315
57165W        W29458   9.815  23.613   0.882
57166W        W29459  41.893   0.271  10.477
57167W        W29460  10.856  12.785   4.638
57168W        W29461  22.163  37.554  12.425
57169W        W29462  34.971  43.498  14.354
57170W        W29463   3.366   2.316  14.308
57171W        W29464  28.994  10.757   0.951
57172W        W29465   6.814  14.144  11.545
57173W        W29466   5.827  17.275  12.899
57174W        W29467  15.715  37.494   2.793
57175W        W29468   1.823  26.577  12.079
57176W        W29469  33.406  41.416  14.905
57177W        W29470   2.782  29.517  12.456
57178W        W29471  14.098  16.176   4.278
57179W        W29472  41.992  28.476   0.781
57180W        W29473  40.804  34.381  14.863
57181W        W29474   1.875   8.814   4.658
57182W        W29475  44.825  12.307   2.664
57183W        W29476  18.085  35.553  11.121
57184W        W29477   3.721  10.190   1.221
57185W        W29478  42.021  15.275  10.915
57186W        W29479  43.385   2.340  13.993
57187W        W29480  13.758   4.840   1.425
57188W        W29481  39.842  33.488  10.460
57189W        W29482  35.532  38.331  11.870
57190W        W29483   6.895  42.824   3.684
57191W        W29484   8.731  15.729   1.272
57192W        W29485  32.088  37.913  11.019
57193W        W29486  22.106   3.911   0.748
57194W        W29487  20.102  19.254   1.337
57195W        W29488  19.765  13.607   1.886
57196W        W29489  30.582   8.249  11.028
57197W        W29490   9.193  16.107  11.972
57198W        W29491   9.160   9.382  13.368
57199W        W29492  24.159  40.347  13.430
57200W        W29493  22.046   7.417   0.289
57201W        W29494  28.680  21.256  10.045
57202W        W29495  36.550  24.633  13.523
57203W        W29496   9.168  12.204   0.477
57204W        W29497  44.482  43.281   3.205
57205W        W29498  43.351   1.842   4.216
57206W        W29499  26.673  22.051  12.912
57207W        W29500  32.923  38.905  13.510
57208W        W29501  31.091  20.086   0.442
57209W        W29502  30.646  20.252   0.771
57210W        W29503  16.633  15.150  13.963
57211W        W29504   7.903  29.510  12.891
57212W        W29505  11.168  25.523   1.885
57213W        W29506  43.882  21.692   2.365
57214W        W29507  26.971  26.511  12.973
57215W        W29508  36.567  27.195   4.254
57216W        W29509  16.294  12.211   3.836
57217W        W29510  41.373   6.381  12.016
57218W        W29511  36.490  21.746   2.787
57219W        W29512  25.676  44.447   4.679
57220W        W29513   0.871  18.611  10.642
57221W        W29514  35.485  34.388   1.896
57222W        W29515  10.349  42.960   2.734
57223W        W29516  12.841  39.433  14.947
57224W        W29517   6.415  18.135   3.211
57225W        W29518  18.565  29.030   2.692
57226W        W29519  44.793  36.502   2.675
57227W        W29520  30.030  41.429   4.738
57228W        W29521  17.147  24.190  14.410
57229W        W29522  29.532  14.282   3.666
57230W        W29523  32.588  23.501  13.387
57231W        W29524  34.421  17.224  12.938
57232W        W29525  18.712  12.179   0.848
57233W        W29526  35.468  18.082   2.702
57234W        W29527  21.109  37.005  12.089
57235W        W29528  29.980  35.408   4.139
57236W        W29529  21.233   5.887  14.891
57237W        W29530  41.384  39.983  12.083
57238W        W29531   9.259  14.334   5.316
57239W        W29532  14.669  41.311  12.921
57240W        W29533   6.194  44.966   1.868
57241W        W29534  35.426   8.350  12.984
57242W        W29535   2.371  28.444  11.123
57243W        W29536  23.598  26.050   2.801
57244W        W29537  26.091  28.631  14.896
57245W        W29538  43.854  10.142   0.418
57246W        W29539  14.754  28.021   5.223
57247W        W29540  19.210   5.875   0.442
57248W        W29541  10.370   6.680   1.928
57249W        W29542   1.961   6.831   2.734
57250W        W29543  29.608  28.035   2.822
57251W        W29544   9.284  11.849  15.000
57252W        W29545  16.257   9.744   0.471
57253W        W29546   7.682  21.671   0.471
57254W        W29547  34.937  36.523   4.801
57255W        W29548  34.106  12.176   1.240
57256W        W29549  38.494  12.210   0.812
57257W        W29550  42.995   6.306   2.870
57258W        W29551   8.785   6.780  11.037
57259W        W29552  40.510  21.168   1.426
57260W        W29553  31.949  43.889   1.762
57261W        W29554  11.810   3.914   3.309
57262W        W29555   7.846  40.913   2.847
57263W        W29556  20.224  14.290   1.734
57264W        W29557  14.339   5.359   3.157
57265W        W29558  43.802   3.404   2.747
57266W        W29559  27.553   2.755  10.467
57267W        W29560  13.269  17.801   2.792
57268W        W29561  20.045  18.197  14.832
57269W        W29562  14.698  15.694  11.927
57270W        W29563  38.902  23.717   5.216
57271W        W29564  30.069   9.201   2.390
57272W        W29565  12.776  24.074   1.304
57273W        W29566   7.827  18.253   4.121
57274W        W29567  39.362  11.666  14.998
57275W        W29568  39.520   3.935   2.253
57276W        W29569  24.180  28.991   2.393
57277W        W29570   2.923   9.255  10.969
57278W        W29571  42.819  23.992  11.519
57279W        W29572  44.420  19.039   5.657
57280W        W29573   9.807  25.646   0.460
57281W        W29574  33.549  10.201  12.496
57282W        W29575  15.217   8.405  12.065
57283W        W29576  11.643  39.354   4.172
57284W        W29577  11.229  35.073  11.393
57285W        W29578  24.481  43.957   1.271
57286W        W29579  37.026  16.178  13.335
57287W        W29580  29.501  18.746  10.560
57288W        W29581  39.964   7.865  11.016
57289W        W29582   6.409   1.238   0.436
57290W        W29583  19.721  22.721   0.827
57291W        W29584  12.749  14.266  12.843
57292W        W29585  30.607  36.027  10.467
57293W        W29586   3.454   8.829  13.453
57294W        W29587  40.909   6.338  13.005
57295W        W29588  20.710   4.249   1.333
57296W        W29589  39.809  37.961  13.349
57297W        W29590  44.401   2.915   0.371
57298W        W29591  32.913  17.656  12.425
57299W        W29592   2.246  38.863   3.852
57300W        W29593   4.705  30.462  11.570
57301W        W29594   2.926  17.195  14.988
57302W        W29595  34.396  26.972  12.380
57303W        W29596   4.424  24.607  12.988
57304W        W29597  13.726  37.863  11.480
57305W        W29598  21.629  19.099   3.715
57306W        W29599   7.906   4.358  13.861
57307W        W29600  21.671  35.932   0.893
57308W        W29601  32.545   2.295   3.843
57309W        W29602   2.932  14.167   0.742
57310W        W29603   8.831  13.244  10.601
57311W        W29604  38.494   9.342  11.573
57312W        W29605  27.569  26.206   3.695
57313W        W29606   5.717  44.995  12.476
57314W        W29607  27.992  22.160   4.782
57315W        W29608  24.593  23.687  13.925
57316W        W29609  17.664  22.652  11.419
57317W        W29610  30.610   5.719  10.937
57318W        W29611  27.973   6.807  13.994
57319W        W29612  44.916  11.782  13.399
57320W        W29613  24.586  22.746   2.278
57321W        W29614  30.538  10.383   0.823
57322W        W29615  38.567  13.808  13.882
57323W        W29616  43.468   8.235  10.574
57324W        W29617   1.418  23.553   0.925
57325W        W29618  39.020  18.090   2.803
57326W        W29619  30.090  29.548   0.323
57327W        W29620  30.531   8.246  12.855
57328W        W29621   0.869   6.360  13.483
57329W        W29622   1.951   9.834  14.874
57330W        W29623   1.885  38.860   0.346
57331W        W29624  24.644   5.389   1.721
57332W        W29625  25.179  36.071  11.600
57333W        W29626  36.373  30.640  11.396
57334W        W29627  43.378  10.830  10.479
57335W        W29628   6.868   3.366   4.344
57336W        W29629  12.147   7.184  12.512
57337W        W29630  41.417  28.514   2.749
57338W        W29631   5.860   3.926   3.696
57339W        W29632  26.203  40.536  12.939
57340W        W29633  15.189  23.643  12.532
57341W        W29634  15.134   7.720  13.416
57342W        W29635  21.670  11.205  13.987
57343W        W29636  15.695  34.934  14.869
57344W        W29637  17.304  43.328   0.414
57345W        W29638  33.586  30.144  14.003
57346W        W29639  20.541  17.307   4.310
57347W        W29640  31.072  26.007   1.921
57348W        W29641  42.829  40.546   0.437
57349W        W29642  24.065   6.820   0.826
57350W        W29643  44.278  43.951  11.881
57351W        W29644  33.539  39.397  13.058
57352W        W29645  43.391  42.886  11.999
57353W        W29646  36.486  27.630  13.025
57354W        W29647  42.392  37.975   1.702
57355W        W29648  21.514  34.439   1.697
57356W        W29649   9.216  27.475   2.394
57357W        W29650  12.674   2.393   1.289
57358W        W29651  10.653   6.725  12.032
57359W        W29652  30.140   1.336   4.119
57360W        W29653   6.900   0.878   0.823
57361W        W29654  14.281  40.894   2.802
57362W        W29655  25.124  39.497   0.468
57363W        W29656   7.327  32.062  13.484
57364W        W29657   9.275  18.151  14.767
57365W        W29658  17.576   0.281   3.850
57366W        W29659   3.258  38.533  12.050
57367W        W29660  26.113  21.599  14.894
57368W        W29661  27.109  11.229   4.129
57369W        W29662   5.927  39.415   2.357
57370W        W29663  19.263  44.388   1.434
57371W        W29664   5.833  39.949  14.887
57372W        W29665  39.470  18.128   0.862
57373W        W29666   1.973  29.659  11.952
57374W        W29667   8.184  25.009   4.826
57375W        W29668  42.787  39.417   0.861
57376W        W29669   1.744   6.802  10.494
57377W        W29670  10.789  30.444  12.055
57378W        W29671   3.307  35.522   3.634
57379W        W29672  24.526  36.396   2.332
57380W        W29673   3.222  24.685  14.295
57381W        W29674  38.560  17.272  14.900
57382W        W29675   2.423  20.688   0.804
57383W        W29676  33.538   4.898  12.548
57384W        W29677  21.563  29.648  14.294
57385W        W29678  23.531  16.595  14.915
57386W        W29679  39.389  10.876   0.902
57387W        W29680  11.340  26.167  10.987
57388W        W29681  23.234   2.388  14.934
57389W        W29682  44.948  25.193  12.570
57390W        W29683  22.242  40.838  13.823
57391W        W29684  37.439  40.826  13.918
57392W        W29685  25.628   6.231  14.461
57393W        W29686  39.977  33.506  14.352
57394W        W29687   6.216  39.989   0.746
57395W        W29688  37.890  14.808  10.539
57396W        W29689   2.889  10.732   2.761
57397W        W29690  20.583  21.221   1.900
57398W        W29691  10.272  13.704  10.586
57399W        W29692  36.852  27.079   4.314
57400W        W29693  32.598  41.823   1.405
57401W        W29694   2.400  24.492   1.725
57402W        W29695  28.069  20.164   2.895
57403W        W29696  14.336   4.750   4.771
57404W        W29697  40.450  44.362  12.845
57405W        W29698  30.500  18.758   1.719
57406W        W29699   6.709  36.010  10.891
57407W        W29700   2.442  36.566   2.338
57408W        W29701  20.252  42.015  14.870
57409W        W29702   0.894  35.021  13.926
57410W        W29703  22.675  29.103  11.404
57411W        W29704  28.083  44.909  10.476
57412W        W29705  36.365  36.933  10.953
57413W        W29706  40.043  16.618   1.377
57414W        W29707  32.958  11.629  14.280
57415W        W29708  21.563  27.457   4.658
57416W        W29709  13.241  32.111  13.841
57417W        W29710  36.992  10.194   4.723
57418W        W29711  34.958  36.525   0.780
57419W        W29712  12.177   7.706  10.556
57420W        W29713  11.195  10.351   3.768
57421W        W29714  27.579  28.592  10.565
57422W        W29715  13.214  27.516   2.354
57423W        W29716  38.842  33.594  10.524
57424W        W29717  18.270  30.152  11.969
57425W        W29718  44.470  30.426  11.101
57426W        W29719  25.605  17.670  13.895
57427W        W29720  41.298  23.047   3.718
57428W        W29721   7.259  20.058   1.856
57429W        W29722  43.496  39.330   1.294
57430W        W29723  28.581  33.518  10.441
57431W        W29724   4.214   7.398  10.945
57432W        W29725  37.955  42.846  14.338
57433W        W29726  33.123   6.911  11.530
57434W        W29727  44.872  26.954  11.883
57435W        W29728  39.837   8.750   4.636
57436W        W29729  26.522  27.946  13.847
57437W        W29730   8.374  39.817  12.451
57438W        W29731  38.357  30.538  12.481
57439W        W29732   6.733   5.778   3.245
57440W        W29733  41.353   4.827   3.711
57441W        W29734  30.975  20.549   1.783
57442W        W29735  22.621  13.283  12.851
57443W        W29736  12.676  28.452   3.274
57444W        W29737  34.947  23.508   1.420
57445W        W29738  39.515   9.652   2.903
57446W        W29739   4.705  13.779  10.951
57447W        W29740  16.177  41.884  10.560
57448W        W29741  39.469  43.425  13.308
57449W        W29742  12.773  37.017   2.662
57450W        W29743   7.409  20.697  14.449
57451W        W29744   7.787  43.274   0.307
57452W        W29745   0.826  27.970   1.914
57453W        W29746   3.424  31.106   0.337
57454W        W29747  17.154  16.736   0.244
57455W        W29748  33.547  34.944  13.479
57456W        W29749   6.701  43.489  12.536
57457W        W29750  36.883  33.414   2.383
57458W        W29751  19.546  40.520  14.840
57459W        W29752  24.130  22.165  14.806
57460W        W29753  42.840  19.060   0.850
57461W        W29754   8.690  29.052  12.945
57462W        W29755  38.399  13.174   4.223
57463W        W29756  22.733  24.612   2.298
57464W        W29757  35.973  26.614  11.958
57465W        W29758  28.513  20.087   3.293
57466W        W29759   4.211  27.515   2.700
57467W        W29760  41.868  33.490  11.882
57468W        W29761  35.473   9.280   4.336
57469W        W29762  19.780  40.902   1.912
57470W        W29763   9.354  30.540  14.821
57471W        W29764  35.024  32.630   3.657
57472W        W29765  10.634  23.559   0.311
57473W        W29766   6.270  32.921   0.756
57474W        W29767  24.595  24.565  13.859
57475W        W29768  12.135   7.816   0.968
57476W        W29769  44.760   7.803  14.843
57477W        W29770  42.354  34.594  10.033
57478W        W29771   3.339  31.638  10.626
57479W        W29772  27.146  27.505   3.331
57480W        W29773  23.047   9.382  13.864
57481W        W29774   1.392  44.892   2.253
57482W        W29775   1.250  11.251   0.426
57483W        W29776  14.230  24.186  14.473
57484W        W29777  25.494  42.994  14.763
57485W        W29778  34.475  19.595   3.731
57486W        W29779  23.136  41.924   3.662
57487W        W29780  32.108  39.357  13.005
57488W        W29781  22.663   1.838  11.861
57489W        W29782  21.666  42.286   0.426
57490W        W29783  34.869  41.388  12.879
57491W        W29784  40.549  17.713   0.955
57492W        W29785  44.756  13.634   1.323
57493W        W29786   6.354  24.561  12.974
57494W        W29787  25.067  29.058   1.787
57495W        W29788  44.944  17.745   4.645
57496W        W29789  38.023  28.519  13.386
57497W        W29790  10.793  41.426  14.355
57498W        W29791   2.941   6.238  13.518
57499W        W29792  29.564  23.638  11.115
57500W        W29793  44.369   7.669   1.814
57501W        W29794  12.362  40.991   2.724
57502W        W29795  42.920   7.827   3.656
57503W        W29796  28.108  25.687   2.844
57504W        W29797   7.335   7.749   0.824
57505W        W29798   6.183  16.139  11.434
57506W        W29799  12.326  18.136   3.793
57507W        W29800  17.127  33.128   4.675
57508W        W29801  38.404  27.177  11.465
57509W        W29802  10.249  43.777  11.560
57510W        W29803  12.263  21.200   2.695
57511W        W29804   4.362  42.976   0.394
57512W        W29805  22.711  35.477  11.560
57513W        W29806   6.905   9.316   1.755
57514W        W29807   9.643   1.474   2.892
57515W        W29808  19.659  28.472  13.503
57516W        W29809  12.822   0.365  11.077
57517W        W29810  40.935   5.380  13.358
57518W        W29811  23.119   7.754  11.890
57519W        W29812   6.842   2.410   2.845
57520W        W29813  15.637  29.640   3.267
57521W        W29814  38.358  25.544   2.222
57522W        W29815  30.425  42.420  14.416
57523W        W29816   1.897   4.810   0.410
57524W        W29817  40.890  13.806   4.339
57525W        W29818   7.787  32.970  10.612
57526W        W29819  24.195   2.398   4.267
57527W        W29820   9.283  17.646   0.280
57528W        W29821  26.557  38.927  13.802
57529W        W29822  36.562  26.056   2.793
57530W        W29823  39.012  25.217   2.405
57531W        W29824   8.248   2.437   3.864
57532W        W29825  19.534  43.788   2.901
57533W        W29826   9.753  11.213  11.500
57534W        W29827   8.823   3.385   2.770
57535W        W29828  33.562  16.646   3.691
57536W        W29829   2.941  43.772  13.040
57537W        W29830  14.718  38.879   2.667
57538W        W29831  30.442  11.240  14.460
57539W        W29832  42.826   7.333   0.909
57540W        W29833   3.719  10.168  14.772
57541W        W29834  38.871  41.844  10.430
57542W        W29835   1.797  26.098   4.799
57543W        W29836  24.063   1.239   0.321
57544W        W29837  37.558   9.692  14.397
57545W        W29838  21.747  28.662   2.332
57546W        W29839  10.640  25.071  11.375
57547W        W29840   2.797  28.637  10.565
57548W        W29841  41.490  38.881  14.365
57549W        W29842  42.780  30.568  11.018
57550W        W29843  34.546  42.331  13.533
57551W        W29844   5.382  29.923  13.513
57552W        W29845  39.539  29.595   3.156
57553W        W29846  13.618  17.700   3.635
57554W        W29847  41.925  10.255   2.751
57555W        W29848  26.583   2.459  13.447
57556W        W29849  38.984  43.435  14.886
57557W        W29850  22.242  35.912  11.911
57558W        W29851  28.583  43.817   0.261
57559W        W29852  14.769  18.555   3.182
57560W        W29853  20.055  44.842  13.889
57561W        W29854  10.319   8.259   0.864
57562W        W29855   6.732   8.708   3.184
57563W        W29856  31.492  34.422   2.353
57564W        W29857  13.287  35.879   9.984
57565W        W29858  22.127  44.828  10.569
57566W        W29859  32.426  43.782   3.848
57567W        W29860  20.718  37.989  13.513
57568W        W29861   6.213  23.717   1.372
57569W        W29862  23.236  10.694  14.306
57570W        W29863  32.060  42.508  13.020
57571W        W29864  28.606  15.180  13.898
57572W        W29865  31.135  32.427   4.633
57573W        W29866  17.610  25.579   2.834
57574W        W29867   1.327  27.572  12.934
57575W        W29868   4.716   7.793   4.234
57576W        W29869  26.142  31.559  11.101
57577W        W29870  12.825  26.032  10.450
57578W        W29871  31.593  31.637   0.910
57579W        W29872  16.658  43.944   3.712
57580W        W29873  41.930  21.026  11.104
57581W        W29874   1.465  20.182  14.793
57582W        W29875  20.565  21.654   4.150
57583W        W29876   0.868  16.122   0.844
57584W        W29877  43.823  12.615   4.768
57585W        W29878   0.351  27.044  14.283
57586W        W29879  34.990   7.345   0.398
57587W        W29880  20.657   7.750   2.208
57588W        W29881  39.395  27.015  12.901
57589W        W29882  35.930  32.133  10.539
57590W        W29883   2.365  11.349  12.554
57591W        W29884  10.353   5.209   2.765
57592W        W29885   3.428  35.102   1.822
57593W        W29886  28.657  30.135  12.568
57594W        W29887  16.753  13.722   4.674
57595W        W29888   2.748  32.512  11.546
57596W        W29889   4.860  41.472   4.615
57597W        W29890   5.352  13.671  13.534
57598W        W29891  31.535  33.498  12.024
57599W        W29892   3.880   1.820   1.269
57600W        W29893   8.234  11.697   2.714
57601W        W29894   9.342  26.113   4.674
57602W        W29895  18.169  18.212  14.896
57603W        W29896  31.607   5.808  11.883
57604W        W29897   2.296   4.811  10.037
57605W        W29898  22.053  13.170   0.402
57606W        W29899  25.600  43.981  11.580
57607W        W29900  26.683  23.534  12.456
57608W        W29901  23.490  43.504  14.307
57609W        W29902  18.178  26.583   1.813
57610W        W29903   6.906  16.696  13.957
57611W        W29904  36.948  37.356   4.775
57612W        W29905  44.376  11.194  13.322
57613W        W29906  26.990  28.989  10.996
57614W        W29907  25.498   3.330   1.815
57615W        W29908   3.842  37.385   0.469
57616W        W29909  18.626  18.126   3.294
57617W        W29910  13.107  11.787  11.423
57618W        W29911  15.627  28.443   3.821
57619W        W29912   3.424   0.364  12.997
57620W        W29913  16.161  10.826   1.744
57621W        W29914  24.482  31.517   3.649
57622W        W29915  18.630  23.212   4.672
57623W        W29916  32.580  36.021   3.309
57624W        W29917  30.487   5.435   1.886
57625W        W29918   6.813   8.403  13.421
57626W        W29919  32.112   6.382  11.517
57627W        W29920  42.011  26.104  11.423
57628W        W29921   3.407   0.789   0.332
57629W        W29922  11.784  20.208   0.335
57630W        W29923   7.715  31.926   0.805
57631W        W29924  24.071  24.605  13.308
57632W        W29925   1.865  19.546  13.969
57633W        W29926  43.311  27.091   0.749
57634W        W29927  20.048  31.029  10.098
57635W        W29928  11.258  10.657  10.953
57636W        W29929  15.781  34.557   1.890
57637W        W29930  44.313   1.816   0.281
57638W        W29931  35.090  10.837   2.399
57639W        W29932  14.802  19.612   0.337
57640W        W29933  16.802  40.372   0.333
57641W        W29934  22.188  12.638   4.167
57642W        W29935   2.332  40.378  10.415
57643W        W29936  23.184  40.353  14.804
57644W        W29937  14.590  31.075  12.550
57645W        W29938   1.955  22.083   1.776
57646W        W29939  39.412  44.953   1.725
57647W        W29940  32.615   3.303   3.737
57648W        W29941  14.623  30.652   2.267
57649W        W29942  33.128  27.626   2.213
57650W        W29943  33.896   3.895   1.262
57651W        W29944   1.805  40.448  10.957
57652W        W29945   3.448   2.895  11.426
57653W        W29946  35.094  12.730  10.467
57654W        W29947   9.353  30.115   0.244
57655W        W29948  31.636  11.219   2.726
57656W        W29949  21.170   0.397   3.686
57657W        W29950  22.610  44.263   3.830
57658W        W29951  11.725  23.992   0.731
57659W        W29952  20.557  22.585  14.899
57660W        W29953  44.833  23.096  13.006
57661W        W29954  15.236  43.460   1.726
57662W        W29955  10.188   9.225  13.500
57663W        W29956  23.612  19.250   1.406
57664W        W29957  32.493  32.581  11.065
57665W        W29958   1.861  29.516   2.258
57666W        W29959  36.473  16.265  14.304
57667W        W29960  30.548   4.855  11.010
57668W        W29961  25.531  15.781   0.771
57669W        W29962  14.748  21.124   2.768
57670W        W29963  11.225   7.297   2.208
57671W        W29964  36.446  21.732   3.814
57672W        W29965  31.151  44.794   4.621
57673W        W29966  42.941  22.071  11.492
57674W        W29967  24.680  44.381   3.360
57675W        W29968  21.703  32.049   4.725
57676W        W29969   3.900  29.156   0.464
57677W        W29970  18.156  22.688   3.355
57678W        W29971  36.037  36.592   0.858
57679W        W29972  27.021  44.449   1.697
57680W        W29973   9.673   8.853   4.602
57681W        W29974  31.938  39.873   1.352
57682W        W29975  29.664  12.829   3.670
57683W        W29976  22.642   8.824  12.494
57684W        W29977   0.437  43.293  11.484
57685W        W29978  33.465  15.673   4.206
57686W        W29979  24.494  18.615   4.282
57687W        W29980  31.913   8.228   4.785
57688W        W29981  22.124  10.375   4.160
57689W        W29982  21.615   0.282  11.578
57690W        W29983  39.983  11.228  12.446
57691W        W29984  42.291  17.268   2.801
57692W        W29985   6.283  21.204   1.428
57693W        W29986   1.295  37.056   1.330
57694W        W29987   8.240  37.450  10.632
57695W        W29988  36.424  27.102   0.273
57696W        W29989  36.070  21.027   4.705
57697W        W29990  27.641  20.210   3.783
57698W        W29991  14.615   6.291  14.471
57699W        W29992  31.110  34.044   1.756
57700W        W29993  40.345   3.728   2.362
57701W        W29994  43.361   4.712   4.651
57702W        W29995   7.760  33.610  13.812
57703W        W29996  14.233  33.930   2.318
57704W        W29997  23.145  21.523  12.477
57705W        W29998  40.392  18.177  14.478
57706W        W29999  11.833  30.617   1.732
57707W        W30000   7.785  24.641   3.858
57708W        W30001   1.302   6.182   1.872
57709W        W30002   8.800  22.074  10.609
57710W        W30003  22.127  26.151  13.428
57711W        W30004  44.479  17.589  12.081
57712W        W30005  20.107  11.357   0.344
57713W        W30006  28.527  38.039  13.034
57714W        W30007  44.451  24.008  11.405
57715W        W30008  39.013  44.340   2.857
57716W        W30009   6.413  21.250  14.013
57717W        W30010  31.948  30.068  13.324
57718W        W30011  15.205  18.715   2.715
57719W        W30012  19.069   5.314  13.434
57720W        W30013  19.671  36.523  13.513
57721W        W30014  32.404   3.712   1.343
57722W        W30015  28.001  27.563   4.148
57723W        W30016   6.735   3.834  12.941
57724W        W30017  28.144   7.867   2.411
57725W        W30018  44.878  33.122   4.819
57726W        W30019  29.474  37.036  10.404
57727W        W30020  11.786  30.982  12.940
57728W        W30021  39.540  26.688  14.760
57729W        W30022  10.765  16.126  14.783
57730W        W30023  32.515  25.043  14.899
57731W        W30024  17.276  43.349  10.470
57732W        W30025  18.274   1.914  14.319
57733W        W30026  16.568  15.247  13.339
57734W        W30027  24.556  36.937   3.193
57735W        W30028  28.534  31.472   4.239
57736W        W30029  38.402  32.898  10.997
57737W        W30030  37.999  11.279   2.756
57738W        W30031  41.311  34.459  14.349
57739W        W30032   7.383  41.458   4.198
57740W        W30033  38.537  43.931  13.405
57741W        W30034   9.743  37.886  10.609
57742W        W30035  20.140   6.330   1.697
57743W        W30036   6.842  16.623   0.900
57744W        W30037   4.811  11.731   2.303
57745W        W30038  15.225  19.054   1.910
57746W        W30039  20.219  23.233   3.278
57747W        W30040   8.400  23.497   2.417
57748W        W30041   3.731  19.202   3.172
57749W        W30042  35.086   0.301   2.765
57750W        W30043  19.095  37.882   0.423
57751W        W30044  37.880  19.282  12.490
57752W        W30045  19.096  44.996   2.675
57753W        W30046  29.610  32.987  13.541
57754W        W30047  20.677  35.946   3.760
57755W        W30048  26.659  11.703  12.453
57756W        W30049   3.292  39.006  12.554
57757W        W30050  14.333  33.130   2.418
57758W        W30051   2.252  22.141  12.519
57759W        W30052   7.820   0.843  10.939
57760W        W30053  44.452  20.629  14.469
57761W        W30054  18.252  15.256  13.324
57762W        W30055  25.077   0.951   0.904
57763W        W30056  22.625  39.443   4.261
57764W        W30057   4.422  12.737   4.735
57765W        W30058  28.017  23.203   9.943
57766W        W30059  25.146  44.475   5.268
57767W        W30060  32.998  12.186  11.543
57768W        W30061   3.920   8.236  11.425
57769W        W30062  41.299  41.475   0.734
57770W        W30063  39.512  22.734  14.936
57771W        W30064  15.716   6.425  13.332
57772W        W30065  20.086  44.840   0.459
57773W        W30066   4.829  42.943   1.810
57774W        W30067  25.968  42.370  12.511
57775W        W30068   7.753  35.033   2.373
57776W        W30069  42.430  12.839  11.536
57777W        W30070  31.515  17.570  12.542
57778W        W30071  41.898  23.658  12.366
57779W        W30072   5.223   0.946   4.185
57780W        W30073   4.700  11.854   1.279
57781W        W30074  32.510  44.849  12.500
57782W        W30075  23.673  18.218   2.245
57783W        W30076   3.765  28.130  10.018
57784W        W30077   3.378  41.439   0.866
57785W        W30078  10.262  19.281  14.903
57786W        W30079  20.594   6.332  12.386
57787W        W30080  20.118   8.877   4.261
57788W        W30081   9.663   6.841  11.935
57789W        W30082   4.450  39.056   0.733
57790W        W30083  16.610  24.525  11.393
57791W        W30084  39.996  36.501  12.920
57792W        W30085  35.995   8.237   2.899
57793W        W30086  31.422  44.290  12.581
57794W        W30087  23.231   4.208   2.781
57795W        W30088  36.444  12.784   2.706
57796W        W30089  42.517  20.146   1.267
57797W        W30090  22.525  38.545  12.837
57798W        W30091  11.176  22.533   1.370
57799W        W30092  25.607  18.783   1.791
57800W        W30093  12.327  30.626  12.011
57801W        W30094   2.826  17.630  12.490
57802W        W30095   2.414  27.601  13.320
57803W        W30096   5.757  40.044  13.483
57804W        W30097   6.693  20.572  11.957
57805W        W30098   1.898  27.137  12.409
57806W        W30099  29.445   3.326   0.294
57807W        W30100  29.125  26.142   0.742
57808W        W30101  29.093  11.368  11.443
57809W        W30102  29.950  10.872   5.316
57810W        W30103   3.949  39.884   2.228
57811W        W30104   6.295   9.229   0.309
57812W        W30105  36.543  37.477   0.869
57813W        W30106  12.706  21.184   1.446
57814W        W30107   8.246  21.025   2.393
57815W        W30108   2.790  40.384   3.867
57816W        W30109   8.249  32.465   0.898
57817W        W30110  11.311  22.210   3.254
57818W        W30111   7.270  44.363   0.800
57819W        W30112  31.934  20.197   4.622
57820W        W30113  25.663  32.581   3.746
57821W        W30114  42.436  12.641  11.946
57822W        W30115  36.544   3.876   2.275
57823W        W30116   4.421  17.711  14.364
57824W        W30117  14.131  13.771   1.313
57825W        W30118  18.209  23.632   0.348
57826W        W30119   1.814   5.431   3.337
57827W        W30120  28.116  36.562   1.848
57828W        W30121  34.117  39.843  10.552
57829W        W30122   8.181   6.748  13.318
57830W        W30123   8.278   8.712   2.862
57831W        W30124  10.143  17.179   0.852
57832W        W30125  15.311  25.467  11.883
57833W        W30126  28.629   6.377  11.376
57834W        W30127  30.546  26.954  14.773
57835W        W30128   5.738  17.206   1.805
57836W        W30129   7.901   1.415   0.483
57837W        W30130   3.233  40.878   0.911
57838W        W30131  43.984  18.289   4.793
57839W        W30132   0.784  40.359  10.575
57840W        W30133  39.059  37.886  11.114
57841W        W30134  37.568  33.956   3.302
57842W        W30135   5.865  40.467   0.796
57843W        W30136  22.053  36.451  13.524
57844W        W30137  15.768   2.404  14.860
57845W        W30138   4.799   5.691   3.792
57846W        W30139   3.447  33.598  10.632
57847W        W30140  17.566   0.764   2.299
57848W        W30141  10.170  35.533  14.930
57849W        W30142  16.213  13.322  11.426
57850W        W30143  42.420   3.361   2.188
57851W        W30144  29.459  38.389  13.350
57852W        W30145  17.158  24.080   3.297
57853W        W30146  26.515  36.584   3.182
57854W        W30147   8.836  38.958   4.810
57855W        W30148   8.401  18.191  14.816
57856W        W30149   5.312   9.869  12.909
57857W        W30150   3.433  36.025   4.794
57858W        W30151  33.994  29.959   3.348
57859W        W30152   0.764  38.055  10.404
57860W        W30153  11.319  25.645  14.407
57861W        W30154  27.124  31.032  14.506
57862W        W30155  38.350   7.186  13.418
57863W        W30156  34.477  10.268  14.765
57864W        W30157  43.772  26.105   0.318
57865W        W30158  30.424  25.011  11.900
57866W        W30159   8.369  23.544   3.818
57867W        W30160  25.032  27.626  11.606
57868W        W30161  15.320  35.410   2.819
57869W        W30162  17.714  41.960  13.428
57870W        W30163  40.020  17.677   4.684
57871W        W30164   6.413  10.834   2.403
57872W        W30165   9.805   4.416   4.778
57873W        W30166  37.870  42.981   0.919
57874W        W30167  42.832  13.645   4.667
57875W        W30168   4.376  16.702  12.524
57876W        W30169   9.831   6.222   2.263
57877W        W30170  31.079  28.054   2.270
57878W        W30171  23.129  14.096  12.059
57879W        W30172  30.633  18.237  13.016
57880W        W30173   8.787  32.543   2.211
57881W        W30174  11.330  41.940   2.708
57882W        W30175  41.911   3.335  10.002
57883W        W30176  17.694   6.258  10.463
57884W        W30177  14.330  13.229   0.312
57885W        W30178  25.009   8.851  11.894
57886W        W30179   0.340  20.041   1.437
57887W        W30180  15.237   0.357   2.179
57888W        W30181  16.256  28.571  11.486
57889W        W30182  21.603  12.305  11.453
57890W        W30183   8.309  43.357  14.906
57891W        W30184  33.440   8.696   3.645
57892W        W30185  13.757  18.744  10.888
57893W        W30186   9.342  21.219  14.326
57894W        W30187  24.718  14.634   3.666
57895W        W30188  44.339  41.383   0.357
57896W        W30189  37.984  39.958  12.434
57897W        W30190  33.405  43.287   3.280
57898W        W30191  27.480  20.696  10.441
57899W        W30192   9.280   1.867   3.772
57900W        W30193  21.520  12.639  11.862
57901W        W30194  33.567  37.831  13.375
57902W        W30195  21.547  24.717  10.984
57903W        W30196  14.302   8.173  14.802
57904W        W30197  17.200   9.310   1.863
57905W        W30198   2.446  35.972  13.310
57906W        W30199   0.261  25.037  13.983
57907W        W30200  14.201  13.787  12.535
57908W        W30201  43.972  37.383   0.304
57909W        W30202  13.766  13.699  12.860
57910W        W30203  21.635  25.005  14.311
57911W        W30204  32.589  29.955  11.407
57912W        W30205   2.406  21.541   4.806
57913W        W30206  42.998  35.528   3.688
57914W        W30207  21.210   4.820  13.545
57915W        W30208  37.904   0.842  11.127
57916W        W30209   0.922  34.067  11.038
57917W        W30210  33.455  42.332   4.825
57918W        W30211  24.516  14.288   3.679
57919W        W30212   4.430   5.345  11.610
57920W        W30213  23.696  20.052   0.765
57921W        W30214   8.323   0.838   3.374
57922W        W30215  13.249  41.386  11.404
57923W        W30216  11.312   4.279   1.326
57924W        W30217  25.520  18.077   1.816
57925W        W30218  13.770  18.062  13.038
57926W        W30219   0.395  36.006  13.462
57927W        W30220   3.238   6.751  10.482
57928W        W30221  39.064  19.576   1.298
57929W        W30222   4.376   1.946   4.122
57930W        W30223  40.417  21.085   2.873
57931W        W30224  43.436  29.473  12.879
57932W        W30225  30.640  37.356   4.751
57933W        W30226   1.761   0.262  13.432
57934W        W30227  16.191  26.075   0.777
57935W        W30228   3.887  21.713   2.338
57936W        W30229   7.818  40.856  10.955
57937W        W30230  12.120   2.825   0.925
57938W        W30231  43.862  38.493   2.821
57939W        W30232  23.554  29.612  12.011
57940W        W30233  43.344   3.923   4.138
57941W        W30234   1.910  14.166  14.827
57942W        W30235  35.364  37.449  13.445
57943W        W30236  40.349   8.898   2.826
57944W        W30237  32.537   1.804   1.711
57945W        W30238  36.947   5.201  10.918
57946W        W30239  16.078  43.771   3.276
57947W        W30240  28.011  25.562   2.194
57948W        W30241   6.259  22.723  11.453
57949W        W30242   8.854   3.336   3.169
57950W        W30243  33.940  27.483   2.765
57951W        W30244  43.782  32.535   2.255
57952W        W30245  35.426  31.079   0.300
57953W        W30246  43.374   6.891   1.451
57954W        W30247  36.449  32.899  11.097
57955W        W30248   5.336   3.764  12.873
57956W        W30249  26.204   7.389  13.406
57957W        W30250  17.102  31.437  11.882
57958W        W30251  37.839  28.960   0.822
57959W        W30252  24.618  33.944  12.492
57960W        W30253  14.143  42.904  11.607
57961W        W30254  18.130   3.448  10.483
57962W        W30255  17.792  43.900  13.334
57963W        W30256  19.180  33.984   9.523
57964W        W30257  40.331  21.033  13.040
57965W        W30258  37.527  44.854  10.905
57966W        W30259  41.481  26.606  12.537
57967W        W30260  34.878  19.235  13.925
57968W        W30261  21.702  30.151  11.521
57969W        W30262  42.861  37.386   2.859
57970W        W30263   1.842  32.900   1.782
57971W        W30264  12.627  36.583   3.301
57972W        W30265  33.600  14.764   1.433
57973W        W30266  36.386  22.658   0.327
57974W        W30267  10.639  10.161  13.855
57975W        W30268  19.248  26.498   0.789
57976W        W30269  44.460  12.852   4.745
57977W        W30270   3.441  35.996   3.758
57978W        W30271  18.262  15.579   3.293
57979W        W30272  20.523   5.892   3.870
57980W        W30273  29.588  26.043   0.436
57981W        W30274  40.393   3.780  10.527
57982W        W30275   1.458  40.359   1.860
57983W        W30276  31.410   5.894  10.553
57984W        W30277  38.411  21.105   4.751
57985W        W30278  23.992   4.820   4.189
57986W        W30279  19.718  43.372  13.994
57987W        W30280  31.146  22.189  12.055
57988W        W30281  14.150  25.583  12.043
57989W        W30282   9.811  18.230   2.202
57990W        W30283  20.175  12.730   4.302
57991W        W30284  36.893  42.955  12.551
57992W        W30285  13.287  40.315  12.024
57993W        W30286  17.140  44.970   3.363
57994W        W30287  12.152  31.978   3.383
57995W        W30288   9.760  12.207  13.336
57996W        W30289  10.211  23.715   3.361
57997W        W30290  15.612  37.390   0.453
57998W        W30291  11.239  22.182   0.399
57999W        W30292  17.244  13.185  10.567
58000W        W30293  24.087  19.283  14.860
58001W        W30294  25.116  44.830  10.615
58002W        W30295  40.327  36.454   4.620
58003W        W30296  30.070  26.984  13.533
58004W        W30297  24.182   0.456   1.877
58005W        W30298   9.828  32.583  13.929
58006W        W30299  22.621  30.942  13.812
58007W        W30300   1.804  25.645  10.890
58008W        W30301  24.635  42.858  14.015
58009W        W30302   4.436  44.439  12.893
58010W        W30303  32.528  38.905   1.874
58011W        W30304  21.126  14.219  13.380
58012W        W30305  37.398  15.167   1.432
58013W        W30306  20.624  23.000  13.476
58014W        W30307  23.731  10.206   3.281
58015W        W30308  33.121   2.383   3.736
58016W        W30309  19.057   4.713  10.504
58017W        W30310  39.549  19.282   3.642
58018W        W30311  13.682   7.339  11.570
58019W        W30312  17.100  43.851   0.460
58020W        W30313  32.921   8.210   3.834
58021W        W30314  41.831  29.430   1.830
58022W        W30315  37.400  15.673  13.349
58023W        W30316   1.291  20.731   1.228
58024W        W30317   4.414  15.809  13.507
58025W        W30318  27.477  36.470  10.913
58026W        W30319   9.158  36.042   1.293
58027W        W30320  37.408  38.848  11.086
58028W        W30321  10.317  33.603   5.228
58029W        W30322  36.841  21.670   1.852
58030W        W30323   6.817  14.265   4.277
58031W        W30324  10.849  10.176   3.147
58032W        W30325  31.595  31.594   4.234
58033W        W30326  42.468  29.536  11.510
58034W        W30327  11.153   3.384   1.241
58035W        W30328  44.908   6.379  14.335
58036W        W30329  28.586  25.997  10.480
58037W        W30330  27.180  27.555   2.198
58038W        W30331  32.474  23.685   3.236
58039W        W30332   3.295  16.114  12.349
58040W        W30333  31.151  36.510  10.623
58041W        W30334  24.189   2.243   3.369
58042W        W30335  29.584  23.093   2.349
58043W        W30336  22.250   5.830   0.967
58044W        W30337  27.512  30.511  11.075
58045W        W30338  28.596   1.929  12.513
58046W        W30339  23.694  21.712  12.341
58047W        W30340   6.718  34.505   9.965
58048W        W30341  25.971  17.165  10.954
58049W        W30342  19.583   0.974   4.601
58050W        W30343  22.139  34.038   4.176
58051W        W30344  26.003  36.573  11.548
58052W        W30345  36.498  37.905   2.237
58053W        W30346   8.381  15.583  13.913
58054W        W30347  33.118  36.853   3.360
58055W        W30348  11.186  12.271  14.768
58056W        W30349  36.965  29.641   2.262
58057W        W30350  13.653   6.714  11.991
58058W        W30351   2.453   2.811   4.215
58059W        W30352  24.537  21.224  10.442
58060W        W30353  20.188   9.218  10.594
58061W        W30354  13.350   7.387   0.244
58062W        W30355  43.327  10.346  11.920
58063W        W30356  39.874  24.217   1.719
58064W        W30357   1.799   0.845  14.333
58065W        W30358  17.624  23.726   4.301
58066W        W30359  26.688   4.414  10.419
58067W        W30360  34.907  37.461  11.001
58068W        W30361  40.982  41.447   2.305
58069W        W30362  14.754   3.369  14.412
58070W        W30363   9.175  40.040   1.788
58071W        W30364   9.717  28.625  11.929
58072W        W30365  33.086   3.370  13.946
58073W        W30366  24.158  26.491  12.519
58074W        W30367   9.882   0.429  12.549
58075W        W30368   2.864  26.544   2.374
58076W        W30369  23.605  35.876  12.907
58077W        W30370   1.330  17.712   3.796
58078W        W30371  43.464  22.118  11.481
58079W        W30372  24.114  31.948   2.381
58080W        W30373  41.915  38.938  10.083
58081W        W30374   4.373  21.674  12.491
58082W        W30375  35.519  36.095   3.678
58083W        W30376  27.559   4.299   0.294
58084W        W30377   3.918   3.805  14.781
58085W        W30378  40.348  24.077   2.693
58086W        W30379  41.507   9.690  11.572
58087W        W30380  17.647   5.722  11.926
58088W        W30381  31.925  39.317   0.302
58089W        W30382  29.491  41.000   1.726
58090W        W30383  38.837  42.449   3.285
58091W        W30384  44.347  25.969  10.558
58092W        W30385  44.763  43.938   2.701
58093W        W30386  32.051  23.078  10.581
58094W        W30387  34.615  20.609  14.898
58095W        W30388  38.990  18.708   4.218
58096W        W30389  43.328  25.520   2.374
58097W        W30390  29.601  28.522   3.229
58098W        W30391  13.833   1.373   0.881
58099W        W30392  11.629   8.208  14.436
58100W        W30393   9.343  27.473  12.902
58101W        W30394  10.643  17.235  10.566
58102W        W30395   2.285  37.065  13.803
58103W        W30396  30.966  20.633   2.781
58104W        W30397  28.989   3.353   2.367
58105W        W30398   4.359  15.219   2.749
58106W        W30399   8.232  35.024  14.351
58107W        W30400  33.009  22.008   3.631
58108W        W30401  27.515   6.370   1.382
58109W        W30402  13.307  42.921   4.777
58110W        W30403  18.280   4.325   1.869
58111W        W30404  23.211  41.977   4.809
58112W        W30405  26.676   7.784   4.330
58113W        W30406  21.256  15.679   3.263
58114W        W30407  10.324   9.335   4.290
58115W        W30408  18.612   7.319   4.137
58116W        W30409  12.250  43.015  14.947
58117W        W30410  28.114   9.825   1.265
58118W        W30411  11.699  23.191   4.168
58119W        W30412   0.760   8.837  12.983
58120W        W30413   5.915  37.078   1.317
58121W        W30414  20.734  13.109  14.902
58122W        W30415  10.726   2.440  12.933
58123W        W30416  18.734   4.378   0.428
58124W        W30417  43.859  27.689   2.688
58125W        W30418  10.188  20.606   4.685
58126W        W30419  15.603   0.408   2.673
58127W        W30420  44.996  24.682  11.077
58128W        W30421   0.832  40.938  10.578
58129W        W30422  20.036  39.430  14.803
58130W        W30423  26.635  41.985  14.930
58131W        W30424  25.978  10.645  11.387
58132W        W30425   8.191  32.528  12.847
58133W        W30426  21.750  41.538  10.606
58134W        W30427  37.079  22.082   3.744
58135W        W30428   8.825   2.914  14.853
58136W        W30429  24.036  44.909  10.906
58137W        W30430   4.777  25.209  10.151
58138W        W30431   8.261  32.087  10.973
58139W        W30432   9.855  34.389  14.799
58140W        W30433   8.267  14.299   1.296
58141W        W30434   3.452   3.794   4.720
58142W        W30435  33.959  38.026   2.851
58143W        W30436   9.745   0.945   0.818
58144W        W30437  42.471   4.785   3.376
58145W        W30438   6.200  19.592  14.323
58146W        W30439  20.105  30.021   9.636
58147W        W30440  42.887  42.287   1.340
58148W        W30441  37.567  16.147  12.843
58149W        W30442  11.706  35.526   1.256
58150W        W30443  14.138  34.959   3.166
58151W        W30444   2.894  24.541  14.998
58152W        W30445   2.805  24.098   4.232
58153W        W30446  11.331  31.996   3.755
58154W        W30447   4.926  32.082  10.086
58155W        W30448  37.974  44.380   4.752
58156W        W30449  18.260  29.550   2.884
58157W        W30450  26.639  44.835   1.451
58158W        W30451   2.231  29.440  11.455
58159W        W30452  28.028   6.264   2.209
58160W        W30453  35.391  20.083  13.524
58161W        W30454   4.824  21.184  13.389
58162W        W30455   6.811   4.425   3.275
58163W        W30456  32.953  11.707   1.214
58164W        W30457  22.094  39.434   2.187
58165W        W30458  19.084   8.870   1.919
58166W        W30459  42.315  39.006   0.808
58167W        W30460  22.533  34.985  10.905
58168W        W30461  36.588  32.132   2.289
58169W        W30462  23.013   4.806   3.218
58170W        W30463   0.301  14.827  14.845
58171W        W30464  15.329  15.731   2.888
58172W        W30465  15.329  38.387   1.437
58173W        W30466   2.414  37.465   5.264
58174W        W30467  28.149   0.457  12.082
58175W        W30468  33.076  34.938  13.425
58176W        W30469  34.047   7.912  12.993
58177W        W30470  36.387  44.274  14.453
58178W        W30471  10.167  32.964   1.780
58179W        W30472  22.513  10.633  10.622
58180W        W30473   5.841  13.172  12.504
58181W        W30474  44.447   9.193  11.604
58182W        W30475  42.013  18.257  11.023
58183W        W30476  21.103  27.054   3.754
58184W        W30477  10.180   5.216  14.874
58185W        W30478  19.080  13.211  11.468
58186W        W30479  32.075  26.025  11.444
58187W        W30480  18.082  25.602   1.857
58188W        W30481  17.596  24.024  14.811
58189W        W30482   5.408  12.639  11.101
58190W        W30483  24.145  30.986  12.348
58191W        W30484   6.687  25.118   0.450
58192W        W30485  39.459   0.492  13.455
58193W        W30486  42.000  12.174  14.924
58194W        W30487  20.734   5.862  11.056
58195W        W30488   1.938  38.050  14.329
58196W        W30489   8.789  16.295  13.934
58197W        W30490  13.341   1.468   2.398
58198W        W30491  20.038  39.880   0.445
58199W        W30492  34.058  39.925  13.461
58200W        W30493  21.642  16.261  11.873
58201W        W30494   2.283  15.310   2.231
58202W        W30495  30.972   6.232   0.379
58203W        W30496  17.155   1.268   3.756
58204W        W30497  22.560  31.516  13.489
58205W        W30498  41.805  44.877  13.456
58206W        W30499   1.781  12.356  12.847
58207W        W30500  34.086  39.426   4.174
58208W        W30501  41.472  31.935   0.408
58209W        W30502  14.183   7.739  10.505
58210W        W30503  28.542  20.541  13.350
58211W        W30504  44.909  17.171   9.441
58212W        W30505   3.838   5.921  11.989
58213W        W30506  33.456  31.060  13.537
58214W        W30507  14.765  34.929   3.307
58215W        W30508   9.769  27.638  10.493
58216W        W30509  33.929  18.138   2.200
58217W        W30510  40.358  26.669  11.561
58218W        W30511  19.152  43.456  10.982
58219W        W30512  38.519  22.171  12.492
58220W        W30513  37.985   9.812   1.834
58221W        W30514   4.757  39.008  11.106
58222W        W30515  36.091  43.836  13.973
58223W        W30516  27.946  31.430   2.747
58224W        W30517   1.840  44.948   4.273
58225W        W30518  19.280  43.779  11.998
58226W        W30519  23.542  30.433   2.845
58227W        W30520  29.050  16.735   4.180
58228W        W30521  17.118  20.562   4.208
58229W        W30522  24.015  35.876  13.933
58230W        W30523  32.619  32.021   1.920
58231W        W30524  37.943  39.530   0.817
58232W        W30525  17.231  21.219   4.311
58233W        W30526  31.559  27.478  12.498
58234W        W30527  41.945  29.617  14.910
58235W        W30528  29.625   6.363   0.269
58236W        W30529  15.175  36.384  12.827
58237W        W30530  12.149  15.247  11.548
58238W        W30531  43.327  22.202   1.445
58239W        W30532  23.009   4.856  14.395
58240W        W30533  20.557  39.406   4.142
58241W        W30534  11.837  11.794   4.713
58242W        W30535  28.971  42.011   2.369
58243W        W30536   5.240   5.874  12.477
58244W        W30537  19.554  22.061   0.381
58245W        W30538  10.797  19.623  14.959
58246W        W30539  20.668  31.139   4.248
58247W        W30540  24.974  18.174   2.842
58248W        W30541  22.998  29.148   4.814
58249W        W30542  16.607  22.199   4.159
58250W        W30543  40.803  29.444   2.800
58251W        W30544  30.463   6.193  12.504
58252W        W30545  27.957  26.703   3.709
58253W        W30546  10.170  44.309   2.371
58254W        W30547  18.173  23.195   0.867
58255W        W30548   3.366  12.668  10.024
58256W        W30549   5.376  22.640  14.356
58257W        W30550   1.366  19.212  11.061
58258W        W30551  24.095  43.960  13.823
58259W        W30552  38.412  27.047   4.663
58260W        W30553  30.101  37.477   1.889
58261W        W30554  28.154  16.812   3.333
58262W        W30555   2.884   9.238  13.897
58263W        W30556  13.830  38.824   3.189
58264W        W30557  35.566  15.203  10.499
58265W        W30558  41.935   7.295  11.910
58266W        W30559  36.893  39.520  10.508
58267W        W30560  13.147  10.682  11.447
58268W        W30561   1.839  31.051  13.800
58269W        W30562  20.578  38.865   2.220
58270W        W30563  28.993  35.524   1.799
58271W        W30564  38.961   1.851   0.472
58272W        W30565  40.012  43.447   3.251
58273W        W30566  43.980   7.880   0.748
58274W        W30567  40.331   6.375   2.782
58275W        W30568  22.085  14.690  11.030
58276W        W30569   6.313   9.381   2.273
58277W        W30570  32.542   5.861  14.947
58278W        W30571  29.979   3.836   2.305
58279W        W30572  33.086  41.842   1.278
58280W        W30573  31.094   6.789  11.395
58281W        W30574  38.552  37.860   1.292
58282W        W30575  27.474  26.558   2.748
58283W        W30576  44.415  23.233   1.770
58284W        W30577   6.718  12.141  14.974
58285W        W30578  10.174  30.133   4.224
58286W        W30579  35.543  11.840  13.424
58287W        W30580  20.216   6.844  11.966
58288W        W30581  34.419  12.192  13.350
58289W        W30582  13.257   4.760   3.316
58290W        W30583  37.438  44.332  11.959
58291W        W30584  30.068  27.671   1.325
58292W        W30585  37.918  10.169   1.853
58293W        W30586  14.337  25.516  14.507
58294W        W30587  36.967  41.391  11.935
58295W        W30588   7.338  16.764  14.791
58296W        W30589  16.801  42.409  10.590
58297W        W30590  34.595   4.315   1.241
58298W        W30591  42.995  43.385   9.565
58299W        W30592  40.450   4.219  13.054
58300W        W30593   8.832  14.227  11.610
58301W        W30594  39.355  37.344   3.674
58302W        W30595  16.781   8.325  10.901
58303W        W30596  10.728  20.143   1.368
58304W        W30597   7.356  31.436  11.423
58305W        W30598  37.395   5.930  13.513
58306W        W30599  36.551  24.551  12.846
58307W        W30600   6.854  22.213  13.020
58308W        W30601  37.009   1.942   2.198
58309W        W30602   4.377  42.404   2.729
58310W        W30603  25.998  20.041   0.463
58311W        W30604  13.795  42.851   1.213
58312W        W30605  44.788  43.459   0.364
58313W        W30606  31.015  39.538  14.963
58314W        W30607  17.558  16.709   4.825
58315W        W30608  43.778   4.733  10.918
58316W        W30609  43.296  14.679  14.482
58317W        W30610  22.570  25.637  14.897
58318W        W30611  43.786  33.412  14.514
58319W        W30612  12.276  33.586  12.525
58320W        W30613   2.784  37.385  11.988
58321W        W30614   7.235  12.739   1.283
58322W        W30615  26.121  11.164  14.862
58323W        W30616  15.801  15.579  12.896
58324W        W30617  12.232  36.445  13.451
58325W        W30618   1.482  44.830  10.557
58326W        W30619  35.108  32.904   0.339
58327W        W30620  33.084  27.948  14.940
58328W        W30621  34.584  10.286  13.913
58329W        W30622  44.989  23.119   0.751
58330W        W30623   3.954  41.365  12.826
58331W        W30624   5.399  24.705  11.016
58332W        W30625  26.645  35.896   4.150
58333W        W30626  23.990  31.056  11.431
58334W        W30627  28.144  36.884   3.167
58335W        W30628   4.729  35.602   1.810
58336W        W30629   1.269  27.688  14.491
58337W        W30630  12.173   6.890  14.362
58338W        W30631  19.126  12.291  12.084
58339W        W30632  25.141   3.816   4.832
58340W        W30633  17.189   2.800   3.374
58341W        W30634   5.195  35.446   0.322
58342W        W30635  24.099  24.166  14.502
58343W        W30636  22.063  30.530   0.810
58344W        W30637  15.290   1.908  13.990
58345W        W30638  16.214  21.247   1.742
58346W        W30639  19.046  38.955  13.547
58347W        W30640  35.604  15.751  13.363
58348W        W30641  12.184  19.189   2.200
58349W        W30642  35.546  30.051   1.853
58350W        W30643  43.807  27.664   2.347
58351W        W30644  38.999  27.185   0.253
58352W        W30645  18.671  29.435  13.484
58353W        W30646  34.007  16.783   1.224
58354W        W30647  24.094   9.374   4.347
58355W        W30648  18.176   1.302  14.421
58356W        W30649   8.395  43.424   1.811
58357W        W30650  25.963  33.027   4.641
58358W        W30651  38.456   9.157  11.858
58359W        W30652   4.345  30.535   2.305
58360W        W30653   1.945   4.301  12.997
58361W        W30654  29.094  11.841  12.359
58362W        W30655  18.248  18.639   1.726
58363W        W30656  13.127  29.450  14.007
58364W        W30657  20.090  40.993   4.653
58365W        W30658   1.754  30.974   2.680
58366W        W30659  31.027   5.910   2.261
58367W        W30660  13.273  33.421  11.971
58368W        W30661  42.294  37.001   2.413
58369W        W30662  13.177  25.123   4.620
58370W        W30663  29.469  40.341   3.839
58371W        W30664  20.264  23.064  12.947
58372W        W30665   2.741  13.755   2.196
58373W        W30666  14.153  18.260  14.493
58374W        W30667  30.992   5.196  12.492
58375W        W30668  43.814  16.215   2.300
58376W        W30669  38.846   0.961   2.826
58377W        W30670  44.953  24.557   2.245
58378W        W30671  36.351   1.255   0.332
58379W        W30672  42.316  16.746  10.995
58380W        W30673  34.863  24.624   1.356
58381W        W30674  32.966  22.540  12.375
58382W        W30675   8.855   3.233   4.194
58383W        W30676  34.558  17.590   0.472
58384W        W30677  14.735   9.806  12.563
58385W        W30678   0.835  18.683   5.146
58386W        W30679  20.241   4.804  13.348
58387W        W30680   0.822   4.354  11.931
58388W        W30681   9.386   7.353   0.364
58389W        W30682  42.503  10.164   4.758
58390W        W30683  23.027   0.432  12.066
58391W        W30684  34.568   4.886   0.302
58392W        W30685   1.347   3.436  12.502
58393W        W30686  18.756  21.064  13.542
58394W        W30687  13.340  11.778   2.365
58395W        W30688   2.228  24.984  11.956
58396W        W30689  27.570  25.039  14.764
58397W        W30690   6.234  35.980  12.871
58398W        W30691  13.693  30.152   2.373
58399W        W30692   9.267  16.275   0.943
58400W        W30693  27.524   6.916  10.472
58401W        W30694   8.678   0.972   1.878
58402W        W30695  35.038  10.758   4.623
58403W        W30696  19.567  21.119  12.917
58404W        W30697  17.292   5.339   1.763
58405W        W30698   1.366  14.760  10.566
58406W        W30699  30.055  44.478   1.223
58407W        W30700  28.071   4.919   4.726
58408W        W30701  32.034   1.957  13.380
58409W        W30702  21.651  40.495   4.264
58410W        W30703  24.657  24.479   4.791
58411W        W30704  34.614  41.888  13.475
58412W        W30705  17.722  19.261  14.382
58413W        W30706  26.650  18.672  11.472
58414W        W30707  20.108  14.797  10.600
58415W        W30708  11.686  36.876  10.965
58416W        W30709  15.646  27.521   3.774
58417W        W30710  11.255  23.038  12.845
58418W        W30711  27.486   1.418   3.836
58419W        W30712  38.996  11.727  14.935
58420W        W30713  34.046  11.227   1.769
58421W        W30714  36.062   5.841  11.980
58422W        W30715  27.162  26.583   0.750
58423W        W30716  10.322   9.300  14.944
58424W        W30717  22.633  25.516   3.371
58425W        W30718  28.595   5.250   3.864
58426W        W30719  15.151  19.681   1.781
58427W        W30720  14.764  39.937   1.406
58428W        W30721   9.716  17.095   1.383
58429W        W30722  24.188  15.624  15.000
58430W        W30723  38.528  38.062   0.740
58431W        W30724  29.935  43.496   1.343
58432W        W30725  21.576  15.782  11.917
58433W        W30726  37.057  29.615  12.096
58434W        W30727   6.690  38.441  10.591
58435W        W30728   4.719  17.095   3.858
58436W        W30729  39.007  20.545   1.375
58437W        W30730  39.006  17.236  13.928
58438W        W30731  22.038  36.044   2.805
58439W        W30732  17.717  21.112  14.829
58440W        W30733   5.765  14.821   3.256
58441W        W30734   0.866  34.413  11.091
58442W        W30735  41.498  34.028   3.323
58443W        W30736  43.328  41.931   4.211
58444W        W30737  17.064  25.132  13.878
58445W        W30738  29.489  14.237   1.872
58446W        W30739  13.807  41.520   3.772
58447W        W30740  11.160   7.787  12.017
58448W        W30741  37.045  15.691  10.448
58449W        W30742  33.958  21.515   3.798
58450W        W30743  16.684  38.529  10.508
58451W        W30744  32.022  39.948  10.452
58452W        W30745  25.207   2.384  10.595
58453W        W30746  38.917  24.482   3.341
58454W        W30747   4.858  11.328   1.821
58455W        W30748  17.121  44.791  12.384
58456W        W30749  32.998  13.628   1.814
58457W        W30750  13.274  17.253  12.454
58458W        W30751  32.564  25.100   2.851
58459W        W30752  17.595   1.911   4.705
58460W        W30753  32.110   0.319  11.543
58461W        W30754  29.111  22.024   2.681
58462W        W30755  34.404  29.581  10.920
58463W        W30756  17.244  20.250  10.594
58464W        W30757  23.668  11.695  12.950
58465W        W30758  44.340  16.707  13.798
58466W        W30759   8.255   0.847  13.493
58467W        W30760  41.402  23.516   0.261
58468W        W30761  28.659  29.044  12.026
58469W        W30762  15.577  31.536  13.315
58470W        W30763  26.490  44.428   0.873
58471W        W30764  10.201   0.440  14.295
58472W        W30765  23.709  30.483  14.806
58473W        W30766  38.403  40.887   1.269
58474W        W30767   7.793  11.725   2.706
58475W        W30768  28.597  26.167   4.211
58476W        W30769  38.444  11.664   0.912
58477W        W30770  39.810  34.456  14.279
58478W        W30771  20.031  33.489  13.815
58479W        W30772  36.543  34.989   3.806
58480W        W30773  23.537  10.645  10.498
58481W        W30774  24.144  23.016  12.520
58482W        W30775  34.563  15.194   3.831
58483W        W30776  40.902  17.229   1.801
58484W        W30777  25.636  12.844  12.948
58485W        W30778  36.476   7.229   9.951
58486W        W30779  36.378   7.271  12.998
58487W        W30780  14.233  41.903   2.855
58488W        W30781  20.248  34.022   3.866
58489W        W30782  34.518  19.723  13.918
58490W        W30783   1.245  27.055  12.578
58491W        W30784  28.041  39.553  13.925
58492W        W30785  23.151  15.822  10.629
58493W        W30786  31.914  11.824  11.986
58494W        W30787  10.835  13.624  14.278
58495W        W30788  20.740  10.785   2.809
58496W        W30789  17.209  19.680  10.408
58497W        W30790   0.785  21.583   2.726
58498W        W30791  37.836  30.470   3.685
58499W        W30792  28.111   4.373  13.474
58500W        W30793  28.017  24.645  10.619
58501W        W30794   4.940  42.833   0.885
58502W        W30795   0.403  40.879   4.762
58503W        W30796  41.428  38.484  11.409
58504W        W30797  39.972   0.424  10.424
58505W        W30798  28.544   8.385   2.303
58506W        W30799  26.128  30.115   3.366
58507W        W30800  22.154   5.311  11.503
58508W        W30801  12.213  15.142  11.085
58509W        W30802  13.275  33.057   3.854
58510W        W30803  26.687  34.490   2.282
58511W        W30804  10.354  41.400   2.332
58512W        W30805  31.432  12.687   3.171
58513W        W30806  37.373  31.945   0.395
58514W        W30807  12.750   5.266  14.928
58515W        W30808  26.986  19.238  12.832
58516W        W30809  26.023   7.320  14.906
58517W        W30810  31.012   3.925   3.261
58518W        W30811   0.979  10.754   3.180
58519W        W30812  37.011  34.614   3.792
58520W        W30813  14.607  38.983  10.490
58521W        W30814  16.788  26.066   3.804
58522W        W30815   5.270   5.899  14.500
58523W        W30816  33.491  31.471  10.614
58524W        W30817  18.156  16.076   3.190
58525W        W30818  37.580  18.650   4.162
58526W        W30819   3.227  16.777  10.460
58527W        W30820  16.316  29.019   0.751
58528W        W30821  41.822  27.519  11.428
58529W        W30822  43.512  32.577  13.320
58530W        W30823  23.661   5.435   5.625
58531W        W30824  19.751  15.287   2.884
58532W        W30825  21.114  31.970   4.678
58533W        W30826   2.334  37.956   0.854
58534W        W30827  21.152  37.053  13.892
58535W        W30828   6.322  42.341  10.643
58536W        W30829  31.496  42.892  10.033
58537W        W30830  17.703  40.040  10.531
58538W        W30831  25.098   0.931  12.978
58539W        W30832  37.455  29.936  13.431
58540W        W30833  10.145  20.159   1.816
58541W        W30834  37.561  40.849  10.950
58542W        W30835   1.744  20.741   3.791
58543W        W30836  29.984  32.964  10.452
58544W        W30837  29.990  18.598   2.402
58545W        W30838   9.691  13.687   2.180
58546W        W30839  23.122  24.047  11.598
58547W        W30840  11.725  21.220  12.579
58548W        W30841  34.536  26.655   0.372
58549W        W30842  32.406  17.154  10.947
58550W        W30843  13.174  29.104   2.794
58551W        W30844  37.549  36.532  10.413
58552W        W30845  26.458  12.337   1.931
58553W        W30846   5.800  30.013   4.133
58554W        W30847  25.470  11.840  14.364
58555W        W30848   7.711  16.644   4.651
58556W        W30849  13.276   1.921  14.975
58557W        W30850  10.254  39.915   2.713
58558W        W30851  10.157  25.622  14.028
58559W        W30852   4.911  29.004   2.334
58560W        W30853   2.233  35.445   1.350
58561W        W30854  36.089  14.606   1.739
58562W        W30855  29.488  32.569   1.399
58563W        W30856   5.780  12.725   2.736
58564W        W30857  39.345  20.223  12.981
58565W        W30858  27.464  13.148   4.643
58566W        W30859  16.298  13.276  12.386
58567W        W30860  15.097  22.169  12.392
58568W        W30861  29.550   3.329  13.387
58569W        W30862  28.551  35.546   4.230
58570W        W30863  39.870  13.309   3.171
58571W        W30864  11.746  43.457   1.858
58572W        W30865  25.607   0.390  14.323
58573W        W30866  22.634  15.131  12.404
58574W        W30867  28.938  32.084   2.874
58575W        W30868  34.101  11.290  14.512
58576W        W30869   8.713  30.503  10.612
58577W        W30870   2.923  37.851   0.846
58578W        W30871  26.144  11.214   1.893
58579W        W30872  44.338  29.122  13.499
58580W        W30873   6.406   7.306   1.826
58581W        W30874  44.369  11.162   0.738
58582W        W30875  24.180   4.745   2.206
58583W        W30876  27.063  12.357   3.639
58584W        W30877   8.282   1.452  13.039
58585W        W30878  38.961  14.645  12.366
58586W        W30879  24.199  20.681   3.827
58587W        W30880   1.272   0.856   4.224
58588W        W30881  31.961  22.536   1.330
58589W        W30882  22.193  15.223  13.474
58590W        W30883  18.186   9.711  12.386
58591W        W30884  38.932  17.175  13.316
58592W        W30885   2.310  24.012  12.021
58593W        W30886   3.883  29.450  11.855
58594W        W30887  35.486  37.337   3.330
58595W        W30888  37.561   7.756  12.950
58596W        W30889   7.195  29.994   0.940
58597W        W30890  17.100  30.112  10.465
58598W        W30891  43.408   0.304   3.731
58599W        W30892  39.400  42.454  12.890
58600W        W30893  22.232  16.290  14.411
58601W        W30894  20.556  22.131   0.790
58602W        W30895  16.720  35.001   4.730
58603W        W30896  27.482   3.752  12.572
58604W        W30897  34.066  19.535   4.287
58605W        W30898   1.478  10.699  11.940
58606W        W30899   4.331  28.601   0.443
58607W        W30900  21.614  28.498  12.883
58608W        W30901  31.503  19.268   1.330
58609W        W30902  39.003   1.319   0.781
58610W        W30903   2.457  26.493  10.958
58611W        W30904  43.992  38.026  14.428
58612W        W30905   5.314  21.681   0.874
58613W        W30906  42.478  41.516  12.529
58614W        W30907  30.047  25.087  14.514
58615W        W30908  41.481   5.852  12.965
58616W        W30909   3.822  28.155   3.161
58617W        W30910  17.589  26.045  12.922
58618W        W30911  18.703  34.003  12.379
58619W        W30912   0.766  40.856   0.844
58620W        W30913  20.724  14.157  10.497
58621W        W30914  23.014   1.818   9.995
58622W        W30915   7.327  14.147   1.451
58623W        W30916  20.558  36.844  13.482
58624W        W30917  28.154  32.917  12.037
58625W        W30918  34.882  25.010  12.091
58626W        W30919  12.200  31.011  12.027
58627W        W30920  10.275  14.281   2.729
58628W        W30921  37.405  33.552  13.541
58629W        W30922  42.414  21.064   3.349
58630W        W30923  31.122  41.939  12.888
58631W        W30924  43.411   0.792   3.168
58632W        W30925  42.348  10.176  13.464
58633W        W30926  34.523  25.608  13.958
58634W        W30927  39.401   7.233  12.486
58635W        W30928  10.147  34.097  10.595
58636W        W30929  23.681   1.332   3.218
58637W        W30930  37.864   7.831   4.625
58638W        W30931   9.672  40.457  12.878
58639W        W30932  18.584  16.707   1.281
58640W        W30933  38.447  17.288  14.308
58641W        W30934  37.346  29.964  12.089
58642W        W30935  44.953  30.964   4.294
58643W        W30936   8.223  29.441   1.272
58644W        W30937  38.489  13.146  13.885
58645W        W30938   6.815  29.608  14.814
58646W        W30939   2.857  18.254  13.404
58647W        W30940   2.767  15.183   4.316
58648W        W30941  44.807  19.628   1.435
58649W        W30942   3.936  12.265  13.464
58650W        W30943  14.815  18.576  12.019
58651W        W30944   0.250  41.029  14.423
58652W        W30945  43.016  17.110  10.004
58653W        W30946  29.070  32.946  10.632
58654W        W30947  15.697   2.852   3.797
58655W        W30948   4.880  24.703   1.732
58656W        W30949   6.685  14.764  11.513
58657W        W30950   7.701  41.452  10.160
58658W        W30951  22.521  31.974  12.435
58659W        W30952  32.005  10.178  11.930
58660W        W30953  14.690  25.189  12.469
58661W        W30954  18.634  24.678   0.254
58662W        W30955  40.867  11.249  12.887
58663W        W30956  20.709  16.277  11.039
58664W        W30957  29.140  22.522  12.443
58665W        W30958  43.357  36.853   3.171
58666W        W30959  27.451   7.749   2.235
58667W        W30960  24.222   3.902   3.772
58668W        W30961  19.751   7.281  12.973
58669W        W30962   9.343  13.208   3.206
58670W        W30963  17.703  39.817  10.923
58671W        W30964   5.413  10.205   2.190
58672W        W30965  17.668   9.188  14.332
58673W        W30966  12.270  35.480   3.246
58674W        W30967  35.374  29.982  13.029
58675W        W30968  20.040  14.592  12.003
58676W        W30969  37.542  30.126   3.386
58677W        W30970  18.204  14.632   1.370
58678W        W30971  18.186  10.676   2.806
58679W        W30972  41.322  12.667   3.263
58680W        W30973  37.916  19.099   0.253
58681W        W30974  37.877  17.672   3.192
58682W        W30975  13.721  41.913  13.061
58683W        W30976  42.848  23.574  13.879
58684W        W30977  35.057  18.138   1.905
58685W        W30978   2.945  28.629  11.055
58686W        W30979  16.161  15.645   2.379
58687W        W30980  12.827  14.122  12.096
58688W        W30981  28.076  27.630  11.533
58689W        W30982  14.229  20.697   4.640
58690W        W30983  34.592  13.150   0.849
58691W        W30984  23.520  38.444  10.890
58692W        W30985  31.086  35.862  14.794
58693W        W30986  23.170  30.000   1.232
58694W        W30987  13.234  17.579  10.424
58695W        W30988  19.683  29.433   2.299
58696W        W30989  31.613  28.670  12.498
58697W        W30990  24.556   5.739  12.544
58698W        W30991  23.144  40.450  13.051
58699W        W30992  19.561  16.697   1.867
58700W        W30993  42.444   1.302   5.649
58701W        W30994  21.120  35.433  12.018
58702W        W30995  23.196  42.940   2.186
58703W        W30996  19.660  34.062   2.754
58704W        W30997   4.240  39.513   2.211
58705W        W30998  44.486  30.010   4.684
58706W        W30999  26.697  43.933  11.920
58707W        W31000  12.136   1.903   0.859
58708W        W31001  21.560  28.116   3.665
58709W        W31002  19.152  13.239  10.470
58710W        W31003  11.781  21.138  12.920
58711W        W31004  44.462   2.392  11.874
58712W        W31005   3.328  12.307   3.195
58713W        W31006  37.530  15.759  14.374
58714W        W31007  28.672   4.338  12.051
58715W        W31008  28.166  31.486  12.526
58716W        W31009  28.034  38.860   0.834
58717W        W31010  31.139  40.379   4.274
58718W        W31011   4.829  35.385  11.111
58719W        W31012  32.612  24.132   3.380
58720W        W31013  10.168  31.553   1.432
58721W        W31014  26.029  25.521  13.909
58722W        W31015  13.624  34.069  11.394
58723W        W31016  12.232   3.925   3.338
58724W        W31017  38.036  40.545   3.360
58725W        W31018  33.931  25.571  11.067
58726W        W31019  16.300  39.383  13.932
58727W        W31020  39.543  43.346   3.251
58728W        W31021   4.817  43.440   4.185
58729W        W31022   7.668  38.001  13.812
58730W        W31023  25.583  33.982   3.309
58731W        W31024  39.455  38.025   0.473
58732W        W31025  37.084   4.910   3.668
58733W        W31026  30.500  18.220  10.571
58734W        W31027  20.547  37.887   3.860
58735W        W31028  10.696  44.908  13.450
58736W        W31029  43.853  32.135  13.831
58737W        W31030  20.063  27.448   4.340
58738W        W31031  12.168  42.525   3.330
58739W        W31032  10.298  44.423  14.403
58740W        W31033  23.109  42.495  13.000
58741W        W31034  14.822  12.751   1.253
58742W        W31035  13.257  36.091   2.196
58743W        W31036  35.081  29.571  11.055
58744W        W31037  13.791  19.559  12.416
58745W        W31038   8.697  33.080   0.795
58746W        W31039  43.401  12.694  14.285
58747W        W31040   0.979  19.082   3.230
58748W        W31041  22.522  41.931  10.935
58749W        W31042  35.927  20.238   5.155
58750W        W31043  14.181  36.903   1.801
58751W        W31044  20.123  23.534   4.297
58752W        W31045  44.807  38.378  12.931
58753W        W31046  28.942   0.309   2.364
58754W        W31047   4.395  17.211   1.863
58755W        W31048  44.784  25.006   2.856
58756W        W31049   9.394  21.572  13.359
58757W        W31050  14.820  17.199  14.783
58758W        W31051  44.885  12.852   1.835
58759W        W31052  21.074   0.840  11.430
58760W        W31053  40.822   1.286  13.924
58761W        W31054  41.309  24.187   4.163
58762W        W31055   7.714  25.123   1.855
58763W        W31056  14.702  23.658  13.019
58764W        W31057  33.596  39.918   0.423
58765W        W31058  41.384  19.210   2.365
58766W        W31059  12.177   9.342  14.882
58767W        W31060  23.068  26.094   2.809
58768W        W31061  22.226  14.629   2.885
58769W        W31062   9.351  36.939  11.979
58770W        W31063  25.010  23.127  11.858
58771W        W31064  40.547  33.106  11.054
58772W        W31065  35.967  31.509  14.797
58773W        W31066  26.103   5.800   1.219
58774W        W31067  24.645   9.285  13.841
58775W        W31068  15.642  19.618   3.373
58776W        W31069   3.268   3.358   3.297
58777W        W31070  29.032  34.490   1.763
58778W        W31071  15.304   7.317   3.182
58779W        W31072  35.897  36.863  11.010
58780W        W31073  15.824  37.389  12.007
58781W        W31074  41.038  32.048  11.072
58782W        W31075  38.552  25.218   4.159
58783W        W31076  22.999  15.087  12.932
58784W        W31077  26.964  34.480  11.535
58785W        W31078  21.119  31.535   1.238
58786W        W31079  17.248  10.315   3.680
58787W        W31080   8.852   2.324   5.298
58788W        W31081   3.449  23.174  10.992
58789W        W31082  15.582  37.018  13.374
58790W        W31083   3.275  22.662  14.810
58791W        W31084  30.058  27.020  11.454
58792W        W31085   7.853   8.676  11.469
58793W        W31086  37.911  17.298  10.517
58794W        W31087  37.467  38.416  12.868
58795W        W31088  16.309  34.887   4.163
58796W        W31089  10.207  30.923  14.425
58797W        W31090  20.108  43.501   3.259
58798W        W31091   9.746  28.031  14.769
58799W        W31092  44.790  29.490  13.390
58800W        W31093  32.491   6.391  12.852
58801W        W31094  43.846  31.468   4.158
58802W        W31095  24.545  11.235  13.869
58803W        W31096  18.210   7.906   3.738
58804W        W31097  44.770  15.318  12.867
58805W        W31098  38.417  41.329   0.943
58806W        W31099   9.257  30.061   1.904
58807W        W31100  36.937   5.438   0.460
58808W        W31101  10.861  38.386  11.058
58809W        W31102  38.830  35.493   1.905
58810W        W31103   7.782   9.666   4.669
58811W        W31104  21.202  27.539  13.331
58812W        W31105  32.103   4.935   0.774
58813W        W31106  38.394  42.839   2.255
58814W        W31107  40.046   2.366  10.550
58815W        W31108   2.900   7.276   3.304
58816W        W31109  41.914  31.431  13.333
58817W        W31110  39.540   1.434  12.447
58818W        W31111  32.890  21.045   2.878
58819W        W31112   0.434  24.607   1.712
58820W        W31113  23.192  41.927   2.841
58821W        W31114  34.448  43.895  14.386
58822W        W31115   7.327  37.047  13.468
58823W        W31116  11.326   9.358  10.495
58824W        W31117  43.855  24.219  11.052
58825W        W31118  37.018  25.503   3.205
58826W        W31119  29.564  25.511  13.853
58827W        W31120   1.428  17.687   4.132
58828W        W31121   9.237  15.811   1.729
58829W        W31122  43.847  20.719  13.018
58830W        W31123  13.795  27.124   0.925
58831W        W31124  26.671  16.140  11.862
58832W        W31125  21.222  12.823   4.783
58833W        W31126  27.016  44.969   2.283
58834W        W31127  16.685   4.834   2.254
58835W        W31128  18.164  31.619   1.846
58836W        W31129  33.577  38.838   3.635
58837W        W31130   3.348  15.321  10.936
58838W        W31131  26.668  17.709  14.302
58839W        W31132  36.842   9.689   2.772
58840W        W31133  30.588  11.790  13.994
58841W        W31134  13.350  40.875  12.429
58842W        W31135  32.522  30.095   2.847
58843W        W31136  17.762   8.345  12.880
58844W        W31137  38.889   1.341   3.292
58845W        W31138  44.297  16.753  10.559
58846W        W31139  21.559  32.415  11.421
58847W        W31140  44.466  38.554   2.883
58848W        W31141  43.790  23.993   3.835
58849W        W31142  28.979   5.741  11.071
58850W        W31143  44.296  42.988  12.580
58851W        W31144  21.064  36.470  13.440
58852W        W31145  38.054  16.274  10.502
58853W        W31146  44.010  23.216  10.605
58854W        W31147  35.511   5.915  10.491
58855W        W31148  16.205   7.310   2.712
58856W        W31149  38.862   2.861   0.338
58857W        W31150  11.751  43.313   3.156
58858W        W31151  39.927  41.322   0.785
58859W        W31152   9.244   0.435   2.783
58860W        W31153  34.046   4.399   3.166
58861W        W31154  25.060  28.091  13.045
58862W        W31155  44.471  16.761   0.729
58863W        W31156  14.695  27.620   2.238
58864W        W31157   4.207  26.646   1.443
58865W        W31158  27.604  40.850   4.168
58866W        W31159  40.529  26.481  10.439
58867W        W31160  15.298  41.466  11.394
58868W        W31161  42.802  16.193   1.760
58869W        W31162  29.095  44.946   4.198
58870W        W31163  28.558  29.655  10.959
58871W        W31164  40.492  19.607   3.285
58872W        W31165  29.991  12.851   2.744
58873W        W31166  11.847   2.466   1.802
58874W        W31167  30.086  23.187   3.179
58875W        W31168  27.578   8.888   2.752
58876W        W31169  26.167  36.897  10.475
58877W        W31170  37.568  24.212   4.603
58878W        W31171  28.028  34.593  14.367
58879W        W31172  23.073   5.403   0.953
58880W        W31173  41.925   6.357  13.862
58881W        W31174   9.291  43.961  12.408
58882W        W31175  19.232  31.059  13.441
58883W        W31176  34.512  11.243   3.307
58884W        W31177   8.308   7.202  13.999
58885W        W31178  21.720  43.485  11.899
58886W        W31179  42.793   0.383   3.650
58887W        W31180  26.605  39.963  13.877
58888W        W31181  10.719  44.953   3.269
58889W        W31182  27.681  14.635   0.394
58890W        W31183  11.706  17.766   0.915
58891W        W31184  27.670  17.567  11.946
58892W        W31185  31.119  41.332  14.370
58893W        W31186  21.647  15.592   3.352
58894W        W31187   7.674  40.907   0.346
58895W        W31188  23.004  36.408  12.037
58896W        W31189  18.164  36.870   1.328
58897W        W31190   1.284  39.855  12.864
58898W        W31191  10.225   7.749  14.301
58899W        W31192  26.692  16.096   0.823
58900W        W31193  13.241  42.804  11.413
58901W        W31194  10.666  10.644  13.490
58902W        W31195  34.397   2.792  13.943
58903W        W31196  36.032   1.942   1.248
58904W        W31197  39.843  13.778   0.910
58905W        W31198  39.383  31.920  11.096
58906W        W31199   3.864  26.502   4.293
58907W        W31200  28.009  23.694  10.065
58908W        W31201  27.458   8.406   1.283
58909W        W31202   5.303  30.989   3.186
58910W        W31203  34.046   9.733  11.426
58911W        W31204  34.982   5.802  13.017
58912W        W31205  44.986  22.102  11.479
58913W        W31206   3.772  11.824   2.886
58914W        W31207   9.327  29.507  10.907
58915W        W31208  17.569  25.510  10.904
58916W        W31209  27.487  17.150  14.934
58917W        W31210  19.277  36.959   3.317
58918W        W31211  25.679  15.753   4.610
58919W        W31212  37.459  40.420  14.939
58920W        W31213  27.471  20.590  12.838
58921W        W31214  14.113  43.884  11.603
58922W        W31215  25.589  21.657  11.372
58923W        W31216  12.141   8.835   3.850
58924W        W31217  30.066   6.735   2.346
58925W        W31218  31.050  24.139  10.500
58926W        W31219  24.553  31.955   0.757
58927W        W31220   0.443   1.938  13.002
58928W        W31221  27.004  29.111  14.995
58929W        W31222  15.277  35.531  12.993
58930W        W31223  29.992  44.260   1.857
58931W        W31224   9.179  36.371  14.820
58932W        W31225  37.939  20.114  14.009
58933W        W31226  36.432   6.866   0.785
58934W        W31227   1.340  44.436   1.802
58935W        W31228   2.430  44.830  10.517
58936W        W31229  26.959  30.486   4.603
58937W        W31230  10.868   7.323   0.847
58938W        W31231  38.880  12.628   9.928
58939W        W31232  43.781  33.593   5.285
58940W        W31233  29.931  11.785  11.423
58941W        W31234  39.515  39.915  11.967
58942W        W31235  12.792  17.582   1.347
58943W        W31236  28.557   7.798   2.667
58944W        W31237  14.676  27.116   0.730
58945W        W31238  39.501   7.200   0.754
58946W        W31239  14.609   2.862  13.327
58947W        W31240  43.281   1.849   1.789
58948W        W31241  10.790   6.352  11.905
58949W        W31242  29.043  13.345   0.314
58950W        W31243  40.964  42.454  13.447
58951W        W31244  33.961  25.082  10.600
58952W        W31245   7.716  27.608   4.719
58953W        W31246  35.437  44.260  11.863
58954W        W31247  31.126  28.637  13.399
58955W        W31248  10.689  38.354  10.632
58956W        W31249   1.420  16.615   4.184
58957W        W31250  28.135  10.205   5.139
58958W        W31251  19.250  26.048   0.473
58959W        W31252  40.536  28.605  13.353
58960W        W31253   9.278   7.298  13.822
58961W        W31254  40.977  31.447   0.943
58962W        W31255   9.208  17.638   1.851
58963W        W31256  29.940   3.255   4.779
58964W        W31257  26.693  37.547   0.364
58965W        W31258  15.199   0.816  13.054
58966W        W31259  15.666  16.077  14.905
58967W        W31260  20.198   5.782   1.298
58968W        W31261   1.854  10.339  12.564
58969W        W31262  33.890  43.491  13.026
58970W        W31263  13.750   4.397  11.055
58971W        W31264  27.164   1.451   3.359
58972W        W31265  31.956  19.711  12.508
58973W        W31266  27.983  18.564  10.417
58974W        W31267  11.233  30.445  12.452
58975W        W31268  13.720   1.318  12.959
58976W        W31269  26.646  40.839  14.973
58977W        W31270  14.692  13.758  13.369
58978W        W31271   4.385  15.294  10.630
58979W        W31272   6.304  16.656   0.258
58980W        W31273   5.719   2.768   1.428
58981W        W31274  37.941  35.915   4.250
58982W        W31275  32.558   7.322   1.212
58983W        W31276  20.170  29.104  14.022
58984W        W31277   8.734  36.094  14.954
58985W        W31278  30.102  13.214   3.253
58986W        W31279  37.409  15.776   9.961
58987W        W31280  44.299  13.117   4.829
58988W        W31281  28.600  41.786  11.570
58989W        W31282  29.516  35.378   0.750
58990W        W31283  21.712  44.784  13.899
58991W        W31284  12.734  10.818  11.040
58992W        W31285  32.550   9.810   3.870
58993W        W31286  21.621  20.745   1.829
58994W        W31287  44.322   9.232  14.979
58995W        W31288  42.027  35.929   0.960
58996W        W31289   6.326  24.185   3.198
58997W        W31290  12.162  44.967  11.402
58998W        W31291  37.934  24.224  11.937
58999W        W31292  26.532   7.709  12.985
59000W        W31293  35.534   4.730   4.720
59001W        W31294  10.143  39.816   0.895
59002W        W31295  15.812  34.917   5.172
59003W        W31296  41.297   9.181   4.611
59004W        W31297  44.810  42.023   4.205
59005W        W31298   9.309  44.907   2.878
59006W        W31299  28.987   4.804   1.800
59007W        W31300  20.259  27.186   1.218
59008W        W31301  29.038  32.041   3.675
59009W        W31302  30.941   2.359   0.953
59010W        W31303  40.425   8.847   4.778
59011W        W31304  16.136  15.643  12.980
59012W        W31305  14.627  42.393   4.655
59013W        W31306  42.288   1.457   2.206
59014W        W31307  32.018  22.675   4.216
59015W        W31308  12.799  14.668   0.924
59016W        W31309  36.022  18.216   3.317
59017W        W31310  12.118  30.078  11.929
59018W        W31311  42.831  13.110  12.433
59019W        W31312  42.497   4.756  12.025
59020W        W31313   6.311  28.964   3.257
59021W        W31314  29.004  33.967  14.879
59022W        W31315  29.652  35.924  11.107
59023W        W31316   1.284  34.884  12.961
59024W        W31317   2.402  18.217  12.885
59025W        W31318  29.084  26.051  14.301
59026W        W31319   2.354  15.809  11.446
59027W        W31320  13.797   2.814  10.096
59028W        W31321  16.567  34.923   2.804
59029W        W31322   3.763  39.954   3.657
59030W        W31323  43.499  38.528  12.974
59031W        W31324  29.969  23.040   5.643
59032W        W31325  38.413  34.887  11.013
59033W        W31326  15.140  36.926   3.739
59034W        W31327  42.895  38.348  13.034
59035W        W31328  27.171  43.493  10.505
59036W        W31329  36.508   3.949   2.663
59037W        W31330   1.480   1.440   1.282
59038W        W31331  12.694  10.200  10.616
59039W        W31332  29.082  23.732   1.400
59040W        W31333  44.322  42.884   1.408
59041W        W31334  11.842  12.296   0.895
59042W        W31335  28.545   3.799  10.899
59043W        W31336  26.194  10.660  14.862
59044W        W31337  18.559   0.836  12.517
59045W        W31338  41.438   7.750  11.015
59046W        W31339  14.818  31.082  13.035
59047W        W31340  23.645   0.375  12.878
59048W        W31341  25.682   4.379   4.281
59049W        W31342  26.504  15.126   2.339
59050W        W31343  43.418   2.818  11.386
59051W        W31344  10.667  20.615  11.878
59052W        W31345  39.051  33.001   2.852
59053W        W31346   7.385  40.849   0.367
59054W        W31347  14.314  39.879  14.011
59055W        W31348  41.373  13.329  13.058
59056W        W31349   9.160  30.655   1.866
59057W        W31350  39.396   6.873  14.503
59058W        W31351  10.265  11.169   4.670
59059W        W31352  26.460  13.738   2.293
59060W        W31353  43.864  10.286  13.323
59061W        W31354  39.946  26.499  13.835
59062W        W31355   9.305  22.022  11.066
59063W        W31356  14.212   1.741   0.743
59064W        W31357  11.840  23.528  12.941
59065W        W31358  28.473  13.115  14.408
59066W        W31359  19.657  18.241  13.002
59067W        W31360   5.880   3.829   4.772
59068W        W31361   4.377   9.842   2.831
59069W        W31362  30.543  40.048  10.977
59070W        W31363  27.581   5.216  11.525
59071W        W31364   3.416  10.293   4.291
59072W        W31365   6.879  27.683  12.346
59073W        W31366   0.870  23.232   1.234
59074W        W31367  40.861  23.676  13.898
59075W        W31368  43.399  32.601  10.498
59076W        W31369  41.940  44.933   0.815
59077W        W31370   3.857  44.833   3.296
59078W        W31371  29.481  39.829  12.530
59079W        W31372   8.246  20.581   3.291
59080W        W31373  14.191  35.369  10.573
59081W        W31374  20.106  19.045   2.902
59082W        W31375  25.601   1.374   2.733
59083W        W31376   4.828  18.546  12.553
59084W        W31377  35.986  15.819   2.280
59085W        W31378  35.101  22.082  11.062
59086W        W31379  29.920  17.770  14.427
59087W        W31380  31.927  29.983  14.275
59088W        W31381   8.900  18.191   4.175
59089W        W31382  22.656  23.097  11.445
59090W        W31383  38.341   6.386  12.844
59091W        W31384  24.223  41.916  11.433
59092W        W31385  13.767   6.715   4.628
59093W        W31386   7.711   5.755  11.377
59094W        W31387  39.527  15.208   3.719
59095W        W31388  26.155   1.732   3.260
59096W        W31389  25.178  43.323   4.320
59097W        W31390  42.290   7.712   0.286
59098W        W31391   1.734  24.975  14.505
59099W        W31392  19.169  36.579  13.913
59100W        W31393   1.806  20.120  11.465
59101W        W31394  38.855  30.638  10.012
59102W        W31395  12.749  24.531  14.398
59103W        W31396  30.506  29.922  14.383
59104W        W31397  33.122  19.593   1.404
59105W        W31398  39.385  32.474  11.511
59106W        W31399  38.883   1.310  13.414
59107W        W31400  36.082  33.388  12.464
59108W        W31401  36.988  27.973  12.963
59109W        W31402  11.158  19.102   2.842
59110W        W31403  27.515  44.830   0.924
59111W        W31404  15.595  10.284   0.295
59112W        W31405  21.625  35.412   2.315
59113W        W31406  41.458  17.071  10.045
59114W        W31407  35.885   4.325   1.266
59115W        W31408  26.468  15.217   0.285
59116W        W31409  29.488  30.530   3.721
59117W        W31410  37.514   3.219   9.933
59118W        W31411  24.695  17.092  14.345
59119W        W31412  42.374  14.665   1.763
59120W        W31413  31.610  28.472   4.713
59121W        W31414  32.913  40.395  10.632
59122W        W31415  16.715  13.799   0.274
59123W        W31416  44.853  19.762   4.148
59124W        W31417  34.592  38.931  10.613
59125W        W31418  27.537  42.877   4.140
59126W        W31419  40.393  32.458  11.423
59127W        W31420  39.471   5.292   0.458
59128W        W31421  13.621  41.833   0.474
59129W        W31422  32.583  37.518   4.744
59130W        W31423  33.509  27.166   1.347
59131W        W31424  36.987  16.075   1.881
59132W        W31425  10.312  22.081  10.585
59133W        W31426  14.666  23.017  14.477
59134W        W31427  30.442  13.138   5.242
59135W        W31428  10.151  21.686  13.520
59136W        W31429  21.705  23.700  10.970
59137W        W31430   9.844   6.905   4.245
59138W        W31431   5.235   7.379   0.249
59139W        W31432  16.141  30.442  10.447
59140W        W31433   7.278   9.837  14.486
59141W        W31434  44.873  12.240  14.843
59142W        W31435  12.308  42.901   1.327
59143W        W31436  17.557  24.030  12.882
59144W        W31437   5.390   2.413  11.057
59145W        W31438  38.522  32.467   0.453
59146W        W31439  30.990   2.939  10.934
59147W        W31440   7.798  20.051   2.371
59148W        W31441  37.889  18.624  10.535
59149W        W31442   2.827  39.419   3.282
59150W        W31443  36.363  25.165  10.643
59151W        W31444  19.153   1.887  12.973
59152W        W31445  19.560  10.313   0.896
59153W        W31446  41.414  22.087  12.976
59154W        W31447  27.953  18.129  14.468
59155W        W31448  21.661  33.956   3.366
59156W        W31449  31.900  28.435   3.228
59157W        W31450  37.008   9.765   4.827
59158W        W31451  17.608  29.106   0.753
59159W        W31452  42.369  18.717  10.999
59160W        W31453  23.714  21.138   2.710
59161W        W31454  12.674  24.540   1.414
59162W        W31455  29.618  28.608  10.598
59163W        W31456   9.874  43.329  11.583
59164W        W31457  29.152  29.925  12.899
59165W        W31458   6.274   3.711   4.325
59166W        W31459  10.260   7.820   4.725
59167W        W31460  15.276  11.172  11.127
59168W        W31461  24.039  22.607   4.151
59169W        W31462  31.490  38.359  13.508
59170W        W31463  19.062  37.354   3.668
59171W        W31464  44.400   0.784  13.856
59172W        W31465   4.307   1.954   0.873
59173W        W31466  37.873  44.793  11.514
59174W        W31467  11.629   1.956   4.245
59175W        W31468  39.935  15.775  14.437
59176W        W31469  38.460  33.038   3.833
59177W        W31470  11.711  33.929  11.527
59178W        W31471  31.003  32.009  14.905
59179W        W31472   7.316   7.333  11.510
59180W        W31473  15.611  10.306  12.866
59181W        W31474  13.620  41.980   2.316
59182W        W31475  28.602   3.802   1.905
59183W        W31476  32.471  24.172   1.430
59184W        W31477  21.197  42.887  12.073
59185W        W31478  27.580  24.642   3.173
59186W        W31479  44.487  12.711  12.019
59187W        W31480  13.298  41.317  14.803
59188W        W31481  36.022   4.927  14.007
59189W        W31482  25.122  22.233   1.696
59190W        W31483  12.713  11.745  11.983
59191W        W31484   9.270  29.583  13.895
59192W        W31485  12.181  41.417   1.282
59193W        W31486   7.864  27.672  13.940
59194W        W31487  19.715  36.349  10.918
59195W        W31488   6.865   1.933  10.421
59196W        W31489  37.013  32.999  11.525
59197W        W31490  16.290  34.432   3.232
59198W        W31491  14.714  30.478   1.903
59199W        W31492  14.217   6.212  11.071
59200W        W31493  15.305  36.046   2.345
59201W        W31494  23.634  37.960  14.940
59202W        W31495  23.042  13.790   0.775
59203W        W31496  39.894  43.786  14.356
59204W        W31497  22.631  38.353   0.289
59205W        W31498  29.518  16.762   2.336
59206W        W31499   6.218  27.095  12.420
59207W        W31500  18.675  26.508   2.396
59208W        W31501  37.560  19.638  13.501
59209W        W31502   5.319  11.156   1.400
59210W        W31503  35.479  17.194   3.645
59211W        W31504  11.713  22.744  14.804
59212W        W31505  34.519  25.564   1.405
59213W        W31506  27.036  32.458  10.611
59214W        W31507  22.730  36.503  11.472
59215W        W31508  44.328  25.684  12.951
59216W        W31509   6.842  30.425  11.013
59217W        W31510  31.152  21.617   0.475
59218W        W31511   5.840  39.850  11.451
59219W        W31512  16.787   7.827  12.956
59220W        W31513  17.595  23.045   2.731
59221W        W31514  33.061  25.509  13.863
59222W        W31515   4.424  18.556  11.932
59223W        W31516  11.679  15.764  12.460
59224W        W31517  13.311  29.114   1.731
59225W        W31518  42.314  11.249   2.255
59226W        W31519  28.096   3.247  12.006
59227W        W31520  14.662  36.867  12.993
59228W        W31521  28.460  21.260   2.202
59229W        W31522  13.719   3.854  12.496
59230W        W31523  33.590  20.686   5.224
59231W        W31524   6.269   5.785  13.939
59232W        W31525  39.397   0.788  11.938
59233W        W31526  14.339  17.303   3.268
59234W        W31527   5.423   2.412   3.690
59235W        W31528  10.318  12.242   2.268
59236W        W31529   9.797  39.933   2.180
59237W        W31530   4.329  19.208   3.168
59238W        W31531  24.641   2.238  13.523
59239W        W31532  32.488  42.914  14.806
59240W        W31533  20.586   4.782  13.929
59241W        W31534  35.472  15.309   4.310
59242W        W31535  19.063   8.186   3.163
59243W        W31536   0.880  22.151  11.611
59244W        W31537   2.738  34.598   1.800
59245W        W31538  21.691  42.514  10.625
59246W        W31539  44.921  42.305  11.441
59247W        W31540  13.751  34.914   1.283
59248W        W31541  39.547  31.004   4.683
59249W        W31542   7.829  29.587  13.984
59250W        W31543  38.406  11.346   2.293
59251W        W31544  30.423   3.303   2.873
59252W        W31545  30.468  24.621  12.399
59253W        W31546  19.257   3.799   0.341
59254W        W31547  28.590  21.688   0.932
59255W        W31548  11.288  15.223  14.454
59256W        W31549   2.799  36.088  10.448
59257W        W31550  44.501   1.896   2.778
59258W        W31551   9.189  34.575   2.854
59259W        W31552  23.522   9.714  11.980
59260W        W31553  27.639   1.819  11.457
59261W        W31554  15.692  27.659   4.624
59262W        W31555   2.950  30.647   1.325
59263W        W31556  13.134  31.592   4.837
59264W        W31557  44.446  35.983   5.288
59265W        W31558  29.001   6.824   2.233
59266W        W31559  36.360  35.994  10.536
59267W        W31560  16.740  22.997   2.846
59268W        W31561  22.559  41.488  10.989
59269W        W31562  12.768  35.903  13.500
59270W        W31563  21.524  13.305  13.825
59271W        W31564   5.696  11.302   0.822
59272W        W31565   1.747  16.159   1.269
59273W        W31566  12.362   2.237  14.372
59274W        W31567  29.139  26.564  12.836
59275W        W31568  21.195  28.950   0.395
59276W        W31569  24.659  29.436  14.940
59277W        W31570   4.930  37.937  10.639
59278W        W31571  11.655  19.540  14.937
59279W        W31572  19.160  29.622   1.322
59280W        W31573  25.011  10.174   0.456
59281W        W31574  30.619  15.212  11.610
59282W        W31575   4.724  42.400  14.941
59283W        W31576  25.511  11.711  13.061
59284W        W31577  30.159   5.288  12.958
59285W        W31578   6.740   3.761  11.088
59286W        W31579  37.500  14.799   2.788
59287W        W31580  22.551  25.997   1.337
59288W        W31581   2.783   2.848   3.776
59289W        W31582   6.898  25.202   1.878
59290W        W31583   8.827  20.655   1.440
59291W        W31584  32.533  44.285  12.981
59292W        W31585   4.829  27.152  13.991
59293W        W31586  30.954  38.449   2.890
59294W        W31587  33.120   6.289  13.954
59295W        W31588   5.829  37.948  12.413
59296W        W31589   4.356  22.563  12.494
59297W        W31590  30.452  18.621  12.864
59298W        W31591  27.099  36.859   3.298
59299W        W31592  37.438   6.914   1.694
59300W        W31593  44.989  24.214  13.879
59301W        W31594  20.065  28.146   0.326
59302W        W31595   9.731  18.079   2.840
59303W        W31596  17.607  13.251  14.395
59304W        W31597  11.324   3.326   4.804
59305W        W31598   3.266   3.767   5.280
59306W        W31599   1.866  10.166   4.718
59307W        W31600  36.909  16.775  12.015
59308W        W31601  28.130  32.071  14.492
59309W        W31602  14.295  37.557  14.929
59310W        W31603  26.171   7.875  13.975
59311W        W31604  41.431  22.685  12.955
59312W        W31605  33.505  27.148  11.593
59313W        W31606   6.735  24.613   2.272
59314W        W31607  42.319  33.937  13.465
59315W        W31608  10.720  20.162   0.431
59316W        W31609   2.454  34.052   0.391
59317W        W31610  11.663  27.174  12.967
59318W        W31611  20.233  36.037  13.348
59319W        W31612  28.644  35.946  12.086
59320W        W31613  19.749  39.342   1.882
59321W        W31614  43.997  44.887  11.999
59322W        W31615   9.234   2.828   4.192
59323W        W31616  15.287  37.848   2.664
59324W        W31617   9.841  33.622   1.431
59325W        W31618  38.885  30.580   2.771
59326W        W31619  14.726  42.983  12.432
59327W        W31620   2.906   1.461   2.668
59328W        W31621   9.313  13.253   0.794
59329W        W31622  36.092  39.929   3.675
59330W        W31623  41.885  44.362  14.430
59331W        W31624   8.784  33.461  12.941
59332W        W31625  26.565  14.710   1.888
59333W        W31626   3.944  24.684   2.227
59334W        W31627  16.806  37.047  13.343
59335W        W31628  12.210   4.872   0.850
59336W        W31629   1.885  16.689   1.721
59337W        W31630  40.419  13.699   0.278
59338W        W31631  36.448  17.112  12.003
59339W        W31632   2.800  30.081   2.247
59340W        W31633  38.421  29.020  14.399
59341W        W31634  23.660   3.219   3.701
59342W        W31635   5.869  22.517  12.378
59343W        W31636   1.457   1.794  12.954
59344W        W31637  40.959   6.321   3.851
59345W        W31638  14.727   1.466  13.862
59346W        W31639  29.927  42.283  13.000
59347W        W31640  42.867  15.148  10.559
59348W        W31641   8.682  31.594  14.415
59349W        W31642  15.321   8.186  10.903
59350W        W31643  31.441  10.861   0.471
59351W        W31644  11.345  25.048  12.427
59352W        W31645   0.978  13.204   4.615
59353W        W31646  12.748  33.878  13.340
59354W        W31647  10.228  22.628   5.099
59355W        W31648  30.002  44.771  13.866
59356W        W31649  18.551  30.144   3.346
59357W        W31650  12.347  10.196  10.637
59358W        W31651  27.527   7.862  10.957
59359W        W31652  10.841  33.567  14.397
59360W        W31653  18.745  16.099  14.836
59361W        W31654  10.259  32.631   3.641
59362W        W31655  36.057  36.086  10.976
59363W        W31656  20.231  22.082   1.423
59364W        W31657   4.369  32.018   4.694
59365W        W31658  33.382  44.802   1.257
59366W        W31659   2.242  27.156  12.983
59367W        W31660   6.254  11.310  14.494
59368W        W31661   6.690  43.461   4.807
59369W        W31662  27.055   0.982  10.903
59370W        W31663  25.020  13.338  11.114
59371W        W31664   6.204  27.989   2.670
59372W        W31665   5.282   6.845   0.451
59373W        W31666  24.171  33.544  12.361
59374W        W31667  13.826  14.239   3.239
59375W        W31668  32.466  27.669  10.481
59376W        W31669  25.209  18.241  14.488
59377W        W31670   7.851  17.216  10.924
59378W        W31671  37.032  15.178  13.489
59379W        W31672  22.603   9.349  12.899
59380W        W31673  28.535  25.637   0.353
59381W        W31674  10.191  16.173  11.027
59382W        W31675  30.444  16.591   0.285
59383W        W31676   8.722  12.674   1.729
59384W        W31677  41.961   4.210   4.827
59385W        W31678  30.579  31.466  11.486
59386W        W31679  14.095  25.006  11.056
59387W        W31680  19.534  19.144  13.507
59388W        W31681  21.623  14.330   4.209
59389W        W31682   4.885   2.274  10.459
59390W        W31683  29.537  35.510  13.443
59391W        W31684  14.306  19.661   4.749
59392W        W31685  37.848   5.257  12.457
59393W        W31686   8.277  34.050   0.854
59394W        W31687  36.858  11.352   3.705
59395W        W31688  44.449  40.479  13.892
59396W        W31689  15.250  43.938   1.716
59397W        W31690   3.924  44.784  11.568
59398W        W31691  15.590  40.981  11.986
59399W        W31692  17.242   5.387   0.348
59400W        W31693  40.810  20.588  13.527
59401W        W31694   8.366  16.173   3.309
59402W        W31695   1.746  29.160   0.379
59403W        W31696  43.801  17.567  13.371
59404W        W31697   6.887  36.452   2.713
59405W        W31698  35.089  36.869   1.852
59406W        W31699  33.578  33.606  14.293
59407W        W31700  12.680   8.290  13.334
59408W        W31701  16.671   6.202  12.535
59409W        W31702  41.939  37.864   1.875
59410W        W31703  36.083  30.127  14.404
59411W        W31704  13.330  34.907  11.074
59412W        W31705   7.814  22.624   1.850
59413W        W31706  25.037  32.618  11.876
59414W        W31707  39.556  37.998  12.453
59415W        W31708  27.080  25.058   0.877
59416W        W31709  28.466   8.756   1.286
59417W        W31710  30.913  20.108   3.794
59418W        W31711  27.479  25.209  11.485
59419W        W31712  19.195  14.110   1.432
59420W        W31713  41.315  38.023   4.736
59421W        W31714  26.618  30.943   2.826
59422W        W31715  12.316  25.499  11.084
59423W        W31716  39.852  26.072   0.291
59424W        W31717  30.113  43.292  10.983
59425W        W31718  25.676  25.564  14.434
59426W        W31719   3.349  43.469   2.215
59427W        W31720   1.757   8.189  11.381
59428W        W31721  43.373   5.782   3.279
59429W        W31722  17.611  22.701  12.555
59430W        W31723  42.375  15.183   1.425
59431W        W31724  25.188  21.230  11.026
59432W        W31725  21.672   2.913   5.736
59433W        W31726   3.782  32.023  10.958
59434W        W31727  37.074  35.102  11.045
59435W        W31728  32.489  23.656   1.346
59436W        W31729  21.223  38.918  11.960
59437W        W31730  38.834  16.223  13.529
59438W        W31731  12.832  31.611   0.348
59439W        W31732  43.846   9.320   1.775
59440W        W31733  24.086  17.597   3.804
59441W        W31734   6.375  12.825  13.514
59442W        W31735  20.525   2.243  13.045
59443W        W31736  19.638  23.056   5.688
59444W        W31737  33.571  44.474  12.070
59445W        W31738  40.841  30.564  10.502
59446W        W31739  39.522  44.757  13.007
59447W        W31740   5.761  35.087  11.909
59448W        W31741  27.492  15.137  13.027
59449W        W31742  16.214  33.475  10.923
59450W        W31743  16.228  26.640  14.492
59451W        W31744   7.300  34.579   0.945
59452W        W31745   8.272   2.395  14.504
59453W        W31746   5.313   4.412  10.532
59454W        W31747  27.550  28.616  14.475
59455W        W31748  44.756   3.352  14.011
59456W        W31749  30.033  16.680   1.415
59457W        W31750  10.832  26.163  11.096
59458W        W31751   7.352   5.226  14.291
59459W        W31752  35.540   9.348   1.725
59460W        W31753  35.557   2.769  12.350
59461W        W31754  39.922  25.532   0.353
59462W        W31755   6.738  39.998   3.773
59463W        W31756  26.026  17.104   1.347
59464W        W31757   8.659  15.121  14.469
59465W        W31758  42.830  17.135  14.838
59466W        W31759  15.638  19.672   3.653
59467W        W31760  26.205  28.456  13.796
59468W        W31761  40.797  25.670  14.820
59469W        W31762  24.686   8.765   4.331
59470W        W31763  42.805  22.731   3.650
59471W        W31764  22.543  42.781   1.756
59472W        W31765  26.068  14.814  11.879
59473W        W31766  40.396  23.989   4.630
59474W        W31767  22.684  40.503  10.563
59475W        W31768  44.326  37.901  11.511
59476W        W31769  25.087  36.975   1.726
59477W        W31770  22.151  38.991  12.932
59478W        W31771  20.212  21.676  11.471
59479W        W31772   9.186  28.649   3.253
59480W        W31773  18.622   2.856   3.670
59481W        W31774  22.736  10.876  11.912
59482W        W31775  37.505  12.687  11.102
59483W        W31776  28.601  14.238   0.814
59484W        W31777  22.537  33.919  14.893
59485W        W31778  26.982   4.358  11.926
59486W        W31779  22.566  33.408   2.792
59487W        W31780  22.093  36.454  13.000
59488W        W31781  38.922  28.493   2.858
59489W        W31782  42.314  39.997  12.875
59490W        W31783  40.984  23.654  13.424
59491W        W31784  26.996  13.214  12.573
59492W        W31785  16.592  16.242   3.634
59493W        W31786  28.040  29.939  11.470
59494W        W31787   7.859  42.293   1.424
59495W        W31788  13.745  26.968  11.431
59496W        W31789  22.742   4.936  10.520
59497W        W31790  25.100   0.376   3.165
59498W        W31791  15.144  13.209  12.888
59499W        W31792  35.972  33.391   3.868
59500W        W31793  24.534  20.178  12.970
59501W        W31794  22.575   3.889   4.793
59502W        W31795  41.017  15.214   3.708
59503W        W31796  43.789  43.934   5.177
59504W        W31797  38.555  28.127   2.187
59505W        W31798  12.244  29.609  10.458
59506W        W31799   0.404  18.603   2.235
59507W        W31800   5.350  34.886   1.891
59508W        W31801  31.153   3.255   4.243
59509W        W31802  29.053   8.368   4.293
59510W        W31803  24.041  27.664   3.347
59511W        W31804  13.312  20.180  12.481
59512W        W31805  27.082  13.238   3.815
59513W        W31806  16.699   8.870  10.903
59514W        W31807   8.771  37.385   9.964
59515W        W31808  18.633  25.197  12.395
59516W        W31809  19.752  21.591   3.637
59517W        W31810  16.261  19.174  10.472
59518W        W31811  29.051   4.886  12.568
59519W        W31812  29.922  27.453   2.333
59520W        W31813  26.016  26.486   4.746
59521W        W31814  10.204  17.761  14.945
59522W        W31815  42.342  44.276   1.350
59523W        W31816  14.617   1.765  12.554
59524W        W31817  30.081  38.362  10.564
59525W        W31818  28.044  35.471   4.755
59526W        W31819  23.200  43.424  11.463
59527W        W31820  31.990   9.181  10.476
59528W        W31821  25.216  28.503   4.185
59529W        W31822  42.428  17.746  13.018
59530W        W31823  41.803  21.600   3.728
59531W        W31824  34.899  29.661  12.384
59532W        W31825  37.444  39.483   2.727
59533W        W31826   4.376   8.739  11.097
59534W        W31827  30.490   6.333   1.764
59535W        W31828  26.509   2.390  12.339
59536W        W31829   3.735  30.432  14.850
59537W        W31830  19.255  20.079   3.191
59538W        W31831  10.870  33.089  14.846
59539W        W31832  26.000  24.621  13.958
59540W        W31833   4.889  10.151  11.459
59541W        W31834   5.280   3.945  10.976
59542W        W31835  18.771  10.277   3.708
59543W        W31836  31.985  19.705  13.532
59544W        W31837   5.895  12.644  10.619
59545W        W31838  42.290  26.652  11.095
59546W        W31839   4.377  10.869   0.962
59547W        W31840  14.597  19.778  10.032
59548W        W31841   3.786  31.584  12.379
59549W        W31842  22.184  33.432  12.468
59550W        W31843  11.242  26.506  14.828
59551W        W31844  25.572   0.931  14.454
59552W        W31845   4.828  17.215   0.954
59553W        W31846  15.680   4.877  10.963
59554W        W31847  20.134   5.696  13.927
59555W        W31848  28.064   7.833   1.215
59556W        W31849  13.224  40.453   0.295
59557W        W31850   4.445   1.941   2.749
59558W        W31851  26.643  30.631   4.336
59559W        W31852  16.194  26.168  12.351
59560W        W31853  13.105  15.663  13.428
59561W        W31854  25.670  21.053   3.672
59562W        W31855   2.828  31.491   0.295
59563W        W31856   6.270  35.902   3.681
59564W        W31857   6.914  13.803   1.722
59565W        W31858  25.969  42.368   0.907
59566W        W31859   4.359  41.308  13.502
59567W        W31860  12.121   1.965  13.352
59568W        W31861   2.227  29.974  14.931
59569W        W31862  27.496  18.062   4.116
59570W        W31863  27.515  15.655   3.167
59571W        W31864  34.032  28.513  10.593
59572W        W31865  36.003  33.595   0.904
59573W        W31866  42.899  16.307   3.856
59574W        W31867  20.682  41.519  11.997
59575W        W31868   4.733  23.016   1.389
59576W        W31869  44.003  35.360  11.017
59577W        W31870   7.838  13.655   0.291
59578W        W31871  22.229  19.186  10.908
59579W        W31872   4.274  10.693   3.321
59580W        W31873  11.272   5.879  11.603
59581W        W31874   4.204  11.846  11.391
59582W        W31875  28.548   4.843  14.356
59583W        W31876   6.773  33.108  11.388
59584W        W31877  42.284  20.059  12.869
59585W        W31878  20.187  42.454  14.320
59586W        W31879  29.981  44.759  11.869
59587W        W31880  31.588  35.040   1.710
59588W        W31881  31.103  30.563  12.972
59589W        W31882  17.204   8.183   2.725
59590W        W31883  36.459  26.551   2.776
59591W        W31884  29.585  31.048  12.057
59592W        W31885   8.366  22.646   1.296
59593W        W31886   0.754  13.327   2.892
59594W        W31887   1.352  18.578  11.531
59595W        W31888  14.826  36.589  10.483
59596W        W31889  14.807  30.909   4.823
59597W        W31890  37.491  44.883   0.772
59598W        W31891   1.951  37.853   1.769
59599W        W31892  14.114  23.071   0.846
59600W        W31893  25.137  30.149   0.449
59601W        W31894  30.488  35.366   4.177
59602W        W31895  17.615  31.902  14.472
59603W        W31896  37.976  25.205  12.524
59604W        W31897  22.076  16.741   1.704
59605W        W31898  22.704  24.119   4.679
59606W        W31899   5.268   3.728  14.446
59607W        W31900  33.418  40.465   4.139
59608W        W31901  26.654  12.756   3.768
59609W        W31902  36.364  16.315   3.272
59610W        W31903   3.944  26.542   2.871
59611W        W31904  33.027  43.279  12.554
59612W        W31905  17.107   5.743   2.893
59613W        W31906  43.810   6.796   2.716
59614W        W31907   5.326  32.119  12.475
59615W        W31908   1.401  41.321   2.826
59616W        W31909  27.558   2.398  12.501
59617W        W31910  17.641  36.579   2.359
59618W        W31911  42.969  39.499   3.379
59619W        W31912  44.960  18.275   1.808
59620W        W31913  42.032  20.531   4.629
59621W        W31914  29.621  31.580   0.793
59622W        W31915  12.708  41.457  12.080
59623W        W31916   5.841  21.133  14.275
59624W        W31917   4.808  12.128   1.248
59625W        W31918  36.463   1.855   5.288
59626W        W31919  11.186   3.221  11.902
59627W        W31920  20.584  32.888  12.033
59628W        W31921  22.230  34.981   2.880
59629W        W31922  41.456   6.398  11.083
59630W        W31923   5.905  30.117  13.023
59631W        W31924  38.966  21.017  11.946
59632W        W31925   0.824  25.102   5.100
59633W        W31926  16.267  42.024  13.831
59634W        W31927  23.225  23.054  14.892
59635W        W31928  37.049   3.950   0.253
59636W        W31929   6.685   8.362   4.656
59637W        W31930   2.921  17.188   0.825
59638W        W31931  39.955  26.692   1.845
59639W        W31932  40.029  40.520   1.323
59640W        W31933  38.496   7.830  14.393
59641W        W31934  18.773   4.442   2.810
59642W        W31935  31.578  21.673   0.750
59643W        W31936  31.138  18.201  12.044
59644W        W31937  29.995  26.195   2.673
59645W        W31938  11.627  24.064   5.235
59646W        W31939   6.876  36.982  13.859
59647W        W31940   4.406  21.710  13.405
59648W        W31941  19.152  39.388   1.233
59649W        W31942  15.305   8.885   2.845
59650W        W31943  34.570  43.327  11.902
59651W        W31944  13.626   0.809   3.758
59652W        W31945  31.621   8.401   1.387
59653W        W31946  34.382   1.424   1.444
59654W        W31947  23.134  37.569  11.425
59655W        W31948  40.951  31.958  14.452
59656W        W31949  30.459   5.270  11.891
59657W        W31950   5.222   9.741  13.951
59658W        W31951  43.275  32.414  11.096
59659W        W31952  29.606   4.859   3.695
59660W        W31953  17.195  22.592   3.848
59661W        W31954   4.310  31.580  13.871
59662W        W31955  13.690  17.133   0.265
59663W        W31956  17.120  31.964  10.044
59664W        W31957  39.381  17.276   1.712
59665W        W31958  30.132  10.814  13.463
59666W        W31959   8.346  43.391   4.785
59667W        W31960   0.775  39.534   1.718
59668W        W31961  40.943  42.339   3.286
59669W        W31962  10.838  14.205  13.544
59670W        W31963   7.310  42.350   1.377
59671W        W31964  33.097   9.756  11.090
59672W        W31965  16.134  11.193   0.740
59673W        W31966  43.951  30.077   4.613
59674W        W31967  30.962  13.804   1.353
59675W        W31968  16.601  25.100  10.472
59676W        W31969  28.489  19.059   4.814
59677W        W31970  21.679   5.827   3.159
59678W        W31971  25.543   8.707  12.887
59679W        W31972  40.043   9.261   3.789
59680W        W31973  36.505  25.097   0.855
59681W        W31974  23.171  34.418  14.847
59682W        W31975  24.119  20.034   4.667
59683W        W31976  18.681  17.107  14.366
59684W        W31977  41.929  10.673  12.535
59685W        W31978  42.359  19.771  10.443
59686W        W31979   5.871  14.809   0.478
59687W        W31980  33.106  13.763   2.857
59688W        W31981  37.490  22.035  12.065
59689W        W31982  10.869   3.734  10.629
59690W        W31983   0.775  30.933   2.287
59691W        W31984  38.832  42.959   2.780
59692W        W31985  35.538  32.524   4.799
59693W        W31986  34.451   3.871   3.661
59694W        W31987  10.183  28.657  11.051
59695W        W31988  17.797  40.022   4.294
59696W        W31989  35.490  27.550   0.952
59697W        W31990  30.459  32.140   5.283
59698W        W31991  40.875  11.731  13.543
59699W        W31992   7.255  43.497   3.736
59700W        W31993  30.017  43.816  12.963
59701W        W31994   6.760   0.263  11.542
59702W        W31995  28.662   6.199  14.456
59703W        W31996   4.241  43.906  12.842
59704W        W31997  40.975  12.116  11.064
59705W        W31998  21.231  30.646   4.313
59706W        W31999  27.968  36.913  13.394
59707W        W32000  18.739  29.653  14.512
59708W        W32001   4.891  22.513   2.767
59709W        W32002   8.822  22.130  10.938
59710W        W32003  33.399  28.459  11.100
59711W        W32004  44.419  42.025   1.711
59712W        W32005   7.803  37.560   3.828
59713W        W32006   4.926  36.509  12.051
59714W        W32007  25.152   9.359  13.414
59715W        W32008  39.461  27.086   4.134
59716W        W32009  14.203  28.948  14.761
59717W        W32010  42.341   6.902   1.407
59718W        W32011  43.300  21.144  14.492
59719W        W32012  29.079  42.473   4.828
59720W        W32013  25.473  33.889   1.407
59721W        W32014  16.095   9.370   4.279
59722W        W32015  28.994  16.808   1.434
59723W        W32016   9.662  12.305   0.460
59724W        W32017  29.426  20.649  14.823
59725W        W32018  38.042  21.582  13.892
59726W        W32019   6.759  21.639   2.890
59727W        W32020   2.260  42.302   1.769
59728W        W32021   9.152   7.370   3.199
59729W        W32022  25.072  34.490  14.312
59730W        W32023  24.022  24.117  13.473
59731W        W32024  42.338  15.715  13.441
59732W        W32025  27.035  37.451  14.495
59733W        W32026  18.071  12.273  13.889
59734W        W32027  22.556  21.190   1.809
59735W        W32028  13.830  42.837  11.959
59736W        W32029  15.322  41.355   1.809
59737W        W32030  43.021  25.059   3.785
59738W        W32031  16.638  28.648   0.812
59739W        W32032  36.871   9.340   4.640
59740W        W32033  23.149   1.901   0.909
59741W        W32034  12.665  39.541  12.071
59742W        W32035   7.844   1.975  10.457
59743W        W32036  31.413  36.470   0.868
59744W        W32037  19.603  32.991   1.369
59745W        W32038  17.197  39.335  11.608
59746W        W32039  41.942  11.795   4.170
59747W        W32040  25.129  38.481  11.593
59748W        W32041  43.951  19.779  11.481
59749W        W32042  12.236  20.096   2.692
59750W        W32043  33.983   3.331  10.510
59751W        W32044  39.025  28.020   5.312
59752W        W32045  29.618  15.172   0.795
59753W        W32046   1.857  38.940   5.246
59754W        W32047   9.312  32.597  12.834
59755W        W32048  31.126  36.060   3.352
59756W        W32049  14.209  17.708   0.361
59757W        W32050  29.028  24.106  14.327
59758W        W32051  27.950  44.985  10.048
59759W        W32052   5.872  25.470   3.336
59760W        W32053  25.217  42.870  14.792
59761W        W32054   9.713  31.024  11.971
59762W        W32055  10.711   8.223  14.322
59763W        W32056   1.394  26.496  10.942
59764W        W32057  42.853  43.390   1.822
59765W        W32058  22.568   6.381   2.314
59766W        W32059  34.561  17.199   0.439
59767W        W32060  23.622  21.660   1.266
59768W        W32061  19.192  27.043  13.011
59769W        W32062   2.356  36.526  12.978
59770W        W32063  17.718  30.583  11.093
59771W        W32064   4.759  30.953  14.295
59772W        W32065  25.589   2.861   5.213
59773W        W32066  10.748  40.546  13.986
59774W        W32067  11.845  23.512  10.943
59775W        W32068  23.151   5.372  13.921
59776W        W32069  31.418  26.492  13.530
59777W        W32070  36.590  38.445   0.776
59778W        W32071  37.559  39.551   3.697
59779W        W32072  16.290   1.438   4.155
59780W        W32073   3.906  40.530  10.011
59781W        W32074  32.555   5.424  11.000
59782W        W32075   0.822  32.573   4.745
59783W        W32076   2.420   3.868   0.755
59784W        W32077   6.319  25.009  14.439
59785W        W32078  12.215   0.886   1.423
59786W        W32079  21.621  23.201  14.847
59787W        W32080  12.827  15.623   0.779
59788W        W32081  32.409  16.662   1.231
59789W        W32082  10.679  41.952  14.499
59790W        W32083   5.920  23.696   2.185
59791W        W32084  11.637  13.248  10.889
59792W        W32085  26.571   9.354  11.957
59793W        W32086   5.221   6.720   0.760
59794W        W32087  37.471  40.870   2.784
59795W        W32088   6.281  17.741   3.348
59796W        W32089  32.510  37.019   1.411
59797W        W32090  13.666  18.699   3.218
59798W        W32091  42.984  42.319   3.714
59799W        W32092  27.047  20.580   3.384
59800W        W32093  14.602  39.925  11.113
59801W        W32094  12.309   4.736  11.413
59802W        W32095  39.987  11.150  11.027
59803W        W32096  17.634  42.363  14.779
59804W        W32097  17.577   7.709  11.524
59805W        W32098  13.258   8.316   1.800
59806W        W32099  13.111  23.200   4.683
59807W        W32100  20.134  25.170   2.876
59808W        W32101  31.441  31.089   0.252
59809W        W32102  19.215  11.856   0.745
59810W        W32103   9.852  29.933   4.341
59811W        W32104  44.879  35.051   3.280
59812W        W32105  17.650  39.950  14.465
59813W        W32106  42.308   0.819   4.645
59814W        W32107  31.594  19.764   2.320
59815W        W32108   3.376   6.920  10.918
59816W        W32109  42.899  29.477  14.975
59817W        W32110  15.598  33.975  10.593
59818W        W32111  32.019   5.292   2.779
59819W        W32112  25.590  33.577  14.414
59820W        W32113  17.620   7.862   1.728
59821W        W32114  34.021  36.549  11.413
59822W        W32115  28.546   6.393  11.955
59823W        W32116  10.294   1.443   4.629
59824W        W32117   2.412  31.580   0.343
59825W        W32118  15.187  34.507  11.423
59826W        W32119  16.591  27.176  12.095
59827W        W32120  39.338   9.779   0.277
59828W        W32121   9.278  31.408  10.439
59829W        W32122  19.098  23.724   0.813
59830W        W32123   9.193   7.288   1.238
59831W        W32124  10.208  30.079  12.952
59832W        W32125   3.828  19.147  13.484
59833W        W32126  44.279  22.596   1.797
59834W        W32127   2.829  27.597  12.406
59835W        W32128  22.147  21.101  12.388
59836W        W32129  13.794  36.578   4.135
59837W        W32130  39.560   2.958   3.232
59838W        W32131  20.555  33.442   2.205
59839W        W32132  37.930   6.194   2.781
59840W        W32133  20.536  24.213  11.955
59841W        W32134  38.921   2.323   5.166
59842W        W32135  33.026  30.954   4.224
59843W        W32136  39.493  11.855   2.341
59844W        W32137  19.601  20.174   2.703
59845W        W32138  23.060  43.502  14.916
59846W        W32139  23.512  21.619  14.880
59847W        W32140  19.653  21.745   0.473
59848W        W32141   7.389  20.533   4.227
59849W        W32142  35.039  24.685  13.392
59850W        W32143  19.186  25.525   1.711
59851W        W32144  44.285  14.246   2.680
59852W        W32145  16.264   8.889  14.785
59853W        W32146  33.904   7.722   3.825
59854W        W32147  12.812  35.975   4.211
59855W        W32148  41.920  42.370   1.815
59856W        W32149  28.581   6.845  12.954
59857W        W32150   1.240  36.848   0.825
59858W        W32151   1.469  40.451   3.172
59859W        W32152   0.425  29.509   1.304
59860W        W32153  44.946  37.026  10.043
59861W        W32154  13.813  11.331   2.242
59862W        W32155  28.521  20.665   4.786
59863W        W32156  20.761   7.322  12.508
59864W        W32157   6.706   8.313   2.899
59865W        W32158  30.058   9.371  12.082
59866W        W32159  30.548  24.031   4.253
59867W        W32160  23.556  16.178  14.391
59868W        W32161  16.287  18.677  13.951
59869W        W32162   1.281  31.956   1.355
59870W        W32163  33.054  33.876   2.257
59871W        W32164  17.239  14.765   1.934
59872W        W32165  35.491  43.476   1.879
59873W        W32166  34.555   0.486  12.344
59874W        W32167  12.243   0.892  10.548
59875W        W32168   8.396  41.948   2.327
59876W        W32169   0.387  12.197   4.142
59877W        W32170   2.955  41.531  12.395
59878W        W32171  41.987  14.142   4.167
59879W        W32172  26.474  40.847  11.001
59880W        W32173  16.702   8.309   3.317
59881W        W32174  34.110  23.679  11.900
59882W        W32175  26.682  39.038   4.146
59883W        W32176  40.366  10.214   1.215
59884W        W32177  32.535  37.839   0.390
59885W        W32178  21.103  14.317  12.538
59886W        W32179  11.736  22.725  11.390
59887W        W32180  28.604  12.714  11.551
59888W        W32181  14.639   7.250   0.793
59889W        W32182   5.815   0.887  13.835
59890W        W32183  32.055  30.657  11.050
59891W        W32184  31.568   9.824  10.527
59892W        W32185  39.433  18.074  12.003
59893W        W32186  31.122   3.852  10.894
59894W        W32187  19.187  22.103  12.869
59895W        W32188  13.345  21.218   4.346
59896W        W32189  32.592   3.302  11.532
59897W        W32190  23.550   4.298   2.181
59898W        W32191  40.533   5.877   4.247
59899W        W32192  11.244  37.445   2.784
59900W        W32193  28.012  19.673  11.515
59901W        W32194   5.745   8.163  14.020
59902W        W32195   1.301  13.694  10.606
59903W        W32196  43.848  33.559   3.274
59904W        W32197   8.358  20.673   4.622
59905W        W32198  19.200  13.249   3.304
59906W        W32199   8.383  33.402   5.653
59907W        W32200  14.749  39.952   3.725
59908W        W32201  36.978  12.618   1.872
59909W        W32202  34.950  36.842   3.164
59910W        W32203   8.310  19.566   0.247
59911W        W32204  11.292  30.068  10.954
59912W        W32205   9.349   6.376  10.977
59913W        W32206  38.367  26.190  10.900
59914W        W32207  19.593  41.379   4.805
59915W        W32208  18.152  41.349  12.535
59916W        W32209  34.453  44.375  10.489
59917W        W32210   7.199   6.758   4.248
59918W        W32211   1.294  17.230   0.928
59919W        W32212  28.449  24.705  10.555
59920W        W32213  31.929  31.056   1.368
59921W        W32214  29.932  23.015   0.893
59922W        W32215  11.209  10.155   2.700
59923W        W32216  34.565   4.875  13.800
59924W        W32217  12.780  27.092  12.947
59925W        W32218  20.537  22.184  13.455
59926W        W32219  38.379  23.510   0.393
59927W        W32220  14.670  28.060  14.806
59928W        W32221  18.585  16.567  11.480
59929W        W32222  28.496  10.864  14.816
59930W        W32223  17.601   1.413   0.890
59931W        W32224   1.439   3.229   2.773
59932W        W32225  10.671   2.926   1.707
59933W        W32226   8.339  37.074  10.999
59934W        W32227   6.815   5.914   0.921
59935W        W32228  26.080  29.078   2.202
59936W        W32229  18.709  32.071   9.956
59937W        W32230  11.134  24.716   3.251
59938W        W32231  12.748  34.954   0.441
59939W        W32232  42.984  43.941  14.490
59940W        W32233  18.639  42.513  11.546
59941W        W32234   6.187  22.694   5.294
59942W        W32235  36.979   2.927  13.822
59943W        W32236  39.382  21.565  14.940
59944W        W32237   1.376  39.891  14.765
59945W        W32238   3.228  27.192   1.812
59946W        W32239   4.231  36.407   0.401
59947W        W32240  14.722   9.832  14.973
59948W        W32241  28.450  33.562   2.760
59949W        W32242   0.335  30.657  12.959
59950W        W32243  24.564  27.653  13.956
59951W        W32244  41.815   1.744  10.578
59952W        W32245  37.901  32.569  12.893
59953W        W32246  11.765  24.021   1.709
59954W        W32247  29.470   8.826   5.219
59955W        W32248  28.520  37.869  10.567
59956W        W32249  42.886  30.533  12.987
59957W        W32250  27.139  36.842   3.765
59958W        W32251  32.601  15.191  14.892
59959W        W32252  43.965  44.422   5.796
59960W        W32253  42.315   4.260  12.924
59961W        W32254  12.121  42.436  13.041
59962W        W32255  42.445  31.430   1.885
59963W        W32256  27.058   3.829  14.998
59964W        W32257  27.605  32.909  13.056
59965W        W32258  37.895  33.077  10.524
59966W        W32259  13.748  25.666   1.903
59967W        W32260   6.241   5.378  14.349
59968W        W32261  27.124   9.269  12.063
59969W        W32262  43.324  19.047  11.067
59970W        W32263   1.812  35.533  13.908
59971W        W32264  33.604   3.232  11.943
59972W        W32265  28.945  43.830  14.318
59973W        W32266  19.735  39.867  13.460
59974W        W32267   4.912   1.327   2.665
59975W        W32268  39.318  16.252  10.609
59976W        W32269  15.800  19.236  14.022
59977W        W32270   4.840  10.666   0.314
59978W        W32271   8.405  10.178  10.584
59979W        W32272  29.455   0.483   2.808
59980W        W32273   1.351  17.601  12.397
59981W        W32274  36.431  12.727  10.960
59982W        W32275  33.605  13.678   2.806
59983W        W32276  16.109   2.396  13.852
59984W        W32277   3.832  33.900   2.355
59985W        W32278  35.562  25.656   0.422
59986W        W32279  19.733   2.331   5.098
59987W        W32280  16.204   1.441   0.788
59988W        W32281  34.473  26.178  13.955
59989W        W32282   6.895  42.400  14.377
59990W        W32283  22.250  27.026  12.055
59991W        W32284  10.714   1.956   3.854
59992W        W32285  40.887  26.162   3.854
59993W        W32286   7.665  42.458  14.006
59994W        W32287  36.492  21.689  13.956
59995W        W32288  16.216  21.256   0.252
59996W        W32289   7.730  34.473  10.081
59997W        W32290  25.682  20.619  14.886
59998W        W32291  26.567  38.523   4.838
59999W        W32292   8.794  21.254  12.379
60000W        W32293  19.543  39.059  11.978
60001W        W32294   8.704   8.214  14.940
60002W        W32295   1.789   4.339   3.373
60003W        W32296  28.669  11.283  14.929
60004W        W32297  39.948  11.691   2.317
60005W        W32298  22.229  42.323  10.449
60006W        W32299  38.962  26.060  10.555
60007W        W32300  37.416  10.763  10.619
60008W        W32301  32.071  15.794  11.001
60009W        W32302  22.032  35.036  11.568
60010W        W32303  32.392  30.923  13.455
60011W        W32304  10.694  42.814   4.309
60012W        W32305   8.791  25.598  13.473
60013W        W32306   2.255  36.885  11.873
60014W        W32307  12.829  38.336   2.885
60015W        W32308  31.997  41.512   3.326
60016W        W32309  12.178  22.700   2.790
60017W        W32310  36.570  35.010   0.918
60018W        W32311  28.028   8.724  13.997
60019W        W32312  22.526  14.172   0.315
60020W        W32313  16.787  22.676   5.123
60021W        W32314  23.055  18.616  10.990
60022W        W32315   7.189  28.139  14.782
60023W        W32316  14.766  21.699   1.855
60024W        W32317  44.381  31.960   1.250
60025W        W32318   1.346  39.531   4.762
60026W        W32319  32.509   2.815  12.090
60027W        W32320  22.736  34.575  11.544
60028W        W32321  26.662  13.830   3.833
60029W        W32322  15.734  11.768   0.901
60030W        W32323  22.693  28.180   5.289
60031W        W32324  15.298  43.471   0.292
60032W        W32325   3.421  20.576   3.284
60033W        W32326  31.538   3.365   3.839
60034W        W32327  29.637  30.017   0.833
60035W        W32328  27.161  28.072   1.833
60036W        W32329   8.819  36.006   2.336
60037W        W32330   4.210  16.736   4.184
60038W        W32331  19.107   8.855  13.505
60039W        W32332   8.249  10.657  14.329
60040W        W32333  39.963   0.348   3.246
60041W        W32334   6.276  18.279  10.924
60042W        W32335  19.717  41.393  13.815
60043W        W32336  17.664  14.235  11.423
60044W        W32337  12.618  29.629  11.531
60045W        W32338  34.490  10.157   2.401
60046W        W32339  18.272  38.055  12.870
60047W        W32340  42.356  36.506   2.408
60048W        W32341  31.428  32.593  11.546
60049W        W32342   0.446   5.396   1.274
60050W        W32343  44.497  33.414  14.315
60051W        W32344  40.908  21.235   3.302
60052W        W32345  37.857   4.727  13.366
60053W        W32346  43.961  33.012   4.287
60054W        W32347  39.925  34.941   1.421
60055W        W32348  37.509  21.142   2.385
60056W        W32349  10.729  35.891   0.950
60057W        W32350  39.032  16.589  11.969
60058W        W32351   3.783  36.531  10.461
60059W        W32352  18.161  30.655   1.295
60060W        W32353  42.308  18.213  13.372
60061W        W32354  17.581  15.814  10.576
60062W        W32355  16.661  44.814  14.393
60063W        W32356   2.447   0.797   2.829
60064W        W32357  31.034  14.815   1.276
60065W        W32358  34.407  40.512  12.551
60066W        W32359   2.809  33.432  11.043
60067W        W32360   0.426  18.201  13.885
60068W        W32361  17.717  15.167   0.475
60069W        W32362  24.137  27.633   0.739
60070W        W32363  29.470   5.840  14.864
60071W        W32364  10.671  17.659   4.624
60072W        W32365   2.915  37.833  12.824
60073W        W32366  30.465  42.884  12.362
60074W        W32367  27.988  16.585   0.733
60075W        W32368  38.042  16.734   4.180
60076W        W32369  27.623  39.500   3.162
60077W        W32370  27.510   6.283   2.299
60078W        W32371  22.064  44.351   4.349
60079W        W32372  30.949  30.133  10.526
60080W        W32373  33.880   6.810   3.155
60081W        W32374  40.937  25.964   0.259
60082W        W32375   4.812   4.882  11.543
60083W        W32376  27.609  19.586  13.428
60084W        W32377  14.596  23.061   0.888
60085W        W32378  15.091  10.240   3.320
60086W        W32379  20.176  17.732   1.695
60087W        W32380  15.306  16.638   0.334
60088W        W32381  33.920  35.388  11.499
60089W        W32382  32.030   0.403   1.871
60090W        W32383  19.199   7.333   2.298
60091W        W32384  29.457  43.828   3.200
60092W        W32385   3.741  44.293  11.125
60093W        W32386  38.480  21.121   4.189
60094W        W32387   9.661  28.993  12.489
60095W        W32388  22.553  13.243  12.439
60096W        W32389  39.842  44.460  10.969
60097W        W32390   8.366  15.230  13.808
60098W        W32391  18.745   2.320  14.888
60099W        W32392  24.017  24.974  14.469
60100W        W32393  44.838  21.045   4.232
60101W        W32394  42.421  10.727   0.748
60102W        W32395  28.592  38.424   3.787
60103W        W32396  44.778   8.271  13.008
60104W        W32397  29.994  37.567   0.742
60105W        W32398  27.519   4.417   2.337
60106W        W32399  43.502   1.744  11.100
60107W        W32400  31.128  23.621   4.197
60108W        W32401  29.117   8.759   3.643
60109W        W32402  32.538  35.100  12.997
60110W        W32403  29.553  23.136   5.229
60111W        W32404  22.120  15.811   1.842
60112W        W32405   2.322  44.353   1.880
60113W        W32406   0.312  41.328  13.816
60114W        W32407  16.159  42.842   2.881
60115W        W32408  31.539  27.952   3.748
60116W        W32409  26.577  18.765   3.333
60117W        W32410  44.777   9.186  12.884
60118W        W32411  39.952  23.996  12.476
60119W        W32412  23.071  15.191   0.858
60120W        W32413   8.167   1.972   2.727
60121W        W32414  35.579  39.504  12.909
60122W        W32415  26.656  35.059   4.248
60123W        W32416  31.006   9.830  12.934
60124W        W32417  36.409  31.525  13.345
60125W        W32418   5.896  27.149   4.259
60126W        W32419  11.746  10.702   2.364
60127W        W32420  26.541  34.543  12.023
60128W        W32421   2.446  43.308   1.815
60129W        W32422  41.420  32.963   2.886
60130W        W32423  31.416  43.453   0.766
60131W        W32424  35.492  43.914  13.795
60132W        W32425  30.432  38.524   3.313
60133W        W32426   1.468  40.882  11.927
60134W        W32427  18.153  32.904   3.198
60135W        W32428  19.178  30.153  14.961
60136W        W32429   3.302   8.658  12.379
60137W        W32430  18.769  25.509  14.401
60138W        W32431   0.973  29.506  13.927
60139W        W32432  26.688  16.764   0.758
60140W        W32433   3.315  39.453   1.760
60141W        W32434  21.064  27.536  12.871
60142W        W32435  39.945  19.190   4.187
60143W        W32436  15.321   9.390  10.970
60144W        W32437  42.498  22.705  10.476
60145W        W32438  11.291  31.589   2.293
60146W        W32439  43.348  16.577   3.729
60147W        W32440  24.172   9.154  13.341
60148W        W32441  13.731  36.890  12.934
60149W        W32442  44.410  24.148  14.373
60150W        W32443  21.054  30.563  12.849
60151W        W32444  21.617  21.029  10.912
60152W        W32445  33.471  19.253   4.208
60153W        W32446  11.818  36.852  13.374
60154W        W32447  37.874  18.655   0.408
60155W        W32448   1.279  29.168   4.753
60156W        W32449  44.809   7.283  10.450
60157W        W32450  31.413  13.105   4.215
60158W        W32451  18.073  30.630   4.274
60159W        W32452   5.798  41.308   1.414
60160W        W32453   6.383  21.688   0.942
60161W        W32454  10.855   9.333  11.929
60162W        W32455   0.286  25.639  11.064
60163W        W32456  43.829  27.583   3.717
60164W        W32457  44.395   7.288   2.334
60165W        W32458  20.250  42.301  13.845
60166W        W32459  23.147  13.132  13.510
60167W        W32460  24.008  18.242   4.228
60168W        W32461  31.572   8.807  13.872
60169W        W32462  19.188  16.731   4.754
60170W        W32463  17.183  28.655   0.347
60171W        W32464  34.611   0.880   1.229
60172W        W32465   0.900  21.574  14.322
60173W        W32466  26.494  35.047  14.031
60174W        W32467  22.087  38.957  10.892
60175W        W32468  13.821  33.090  13.376
60176W        W32469  36.370  41.476   0.273
60177W        W32470  43.273  14.722  11.046
60178W        W32471   8.830  36.588   0.791
60179W        W32472   1.457  12.701   1.908
60180W        W32473  33.503  24.167   4.216
60181W        W32474  33.527  43.991   4.772
60182W        W32475  37.391  39.981  10.010
60183W        W32476   2.724  17.715   4.149
60184W        W32477  24.206  12.314  11.905
60185W        W32478  34.978   2.438  13.357
60186W        W32479  43.490  15.254   0.886
60187W        W32480  44.370  35.415  13.319
60188W        W32481  34.537  11.177  14.915
60189W        W32482   0.978  16.689   3.182
60190W        W32483  29.514  14.168  14.479
60191W        W32484  39.908  36.546  10.634
60192W        W32485  39.950  12.782   2.802
60193W        W32486  16.589  22.501   0.860
60194W        W32487  24.709   5.426   9.509
60195W        W32488  20.533  41.791   4.241
60196W        W32489  19.688  29.922   1.809
60197W        W32490  18.734   5.788   0.935
60198W        W32491  41.995  28.150  14.913
60199W        W32492  35.520  38.536   2.317
60200W        W32493   2.929   0.879   4.631
60201W        W32494  31.932  24.571   4.613
60202W        W32495  10.796  26.985   3.633
60203W        W32496  16.229  34.522  13.805
60204W        W32497  34.591   1.880  12.511
60205W        W32498   8.333  19.043  14.911
60206W        W32499  36.090  29.472  12.367
60207W        W32500  42.474  44.969  14.458
60208W        W32501  41.944   6.796  10.939
60209W        W32502  10.370   7.716  11.444
60210W        W32503  20.724  18.224   2.866
60211W        W32504  31.111   2.471   1.285
60212W        W32505  38.554  26.073   1.237
60213W        W32506  21.565  32.886  12.958
60214W        W32507   7.785  27.072  12.956
60215W        W32508   2.266  28.027  14.318
60216W        W32509  10.228  19.620   4.318
60217W        W32510  15.645  14.727   4.262
60218W        W32511  43.792  28.442   2.259
60219W        W32512  27.656  37.064  14.015
60220W        W32513  43.825  40.335  14.784
60221W        W32514  28.463  27.455  13.356
60222W        W32515  14.803  20.203  13.022
60223W        W32516  41.375   6.428   2.845
60224W        W32517   3.232   1.273  12.912
60225W        W32518  31.539  38.449  11.473
60226W        W32519  40.933  10.229   4.630
60227W        W32520   6.811  22.151   1.721
60228W        W32521  33.875  43.845  12.462
60229W        W32522  35.893  32.530   2.776
60230W        W32523  27.548   2.235   3.694
60231W        W32524   5.287  10.656   1.722
60232W        W32525  14.128  31.492  13.978
60233W        W32526  17.606  31.558   4.762
60234W        W32527  44.387  29.668  12.492
60235W        W32528  26.118  35.547  12.886
60236W        W32529   8.657   1.977  11.591
60237W        W32530  44.260  38.916  12.891
60238W        W32531   5.744   3.828   0.476
60239W        W32532  26.514   3.856  11.434
60240W        W32533  37.338  42.400  10.994
60241W        W32534  32.549  10.171   1.228
60242W        W32535  29.624  35.062   3.730
60243W        W32536  29.929  36.469   1.240
60244W        W32537  39.975  33.987   1.256
60245W        W32538  33.626  13.671   2.281
60246W        W32539  22.039  25.560  11.980
60247W        W32540   0.927   1.852  12.856
60248W        W32541  30.534  34.876  13.953
60249W        W32542  38.989  34.081   2.891
60250W        W32543  38.902  27.177  13.393
60251W        W32544  24.716   4.868  12.076
60252W        W32545  43.823   5.403  12.462
60253W        W32546  37.460  34.583  10.153
60254W        W32547   3.371  12.163   0.775
60255W        W32548   8.398   9.781   2.309
60256W        W32549  24.142  43.315   4.608
60257W        W32550  39.342   3.851  14.832
60258W        W32551  39.838   6.290  12.845
60259W        W32552   3.226   3.751  13.335
60260W        W32553  15.745  13.311  13.809
60261W        W32554   7.297  30.961   0.270
60262W        W32555  23.072  41.884  13.841
60263W        W32556  19.597  24.541  14.353
60264W        W32557  40.981  44.898   2.361
60265W        W32558  33.598   7.892  13.884
60266W        W32559  27.503  43.345   1.929
60267W        W32560  21.157  29.538   0.761
60268W        W32561  20.578  22.559  12.998
60269W        W32562  16.666  14.339   3.206
60270W        W32563  19.745  37.976  12.032
60271W        W32564  43.928   4.912   1.315
60272W        W32565  31.426  25.543  10.624
60273W        W32566  10.321  41.007  13.923
60274W        W32567  31.082  18.208   4.668
60275W        W32568  12.358  13.655   1.760
60276W        W32569   2.825  31.900   0.784
60277W        W32570  43.864  42.302  10.561
60278W        W32571  37.870   2.810  14.862
60279W        W32572  29.165  35.358  13.351
60280W        W32573  14.649   6.683   0.933
60281W        W32574  27.547  24.676  13.433
60282W        W32575  27.127  34.953  10.012
60283W        W32576  42.980   9.778   2.200
60284W        W32577   2.950  40.458  14.853
60285W        W32578  34.477  40.314   1.888
60286W        W32579  39.552  42.361  14.917
60287W        W32580  25.094  30.919   4.748
60288W        W32581  39.849  19.055   2.895
60289W        W32582  34.395  28.497  11.514
60290W        W32583  23.992  31.143  10.641
60291W        W32584  13.663   4.915   9.497
60292W        W32585  39.513  13.123   0.840
60293W        W32586  36.592  21.550  12.425
60294W        W32587   4.711  44.870   1.251
60295W        W32588  10.281   9.750  11.013
60296W        W32589  15.717  13.684   0.910
60297W        W32590  16.229  32.050   1.269
60298W        W32591  26.472  39.890  12.030
60299W        W32592   3.392  33.081  14.292
60300W        W32593  19.172  24.116   2.288
60301W        W32594  20.701  30.622   3.189
60302W        W32595  21.542   4.270   3.678
60303W        W32596   4.263  28.019   3.187
60304W        W32597  16.713  28.173   0.929
60305W        W32598  16.280  30.038   0.891
60306W        W32599  39.376  42.869  14.949
60307W        W32600  39.914  20.705   0.380
60308W        W32601  27.075  30.469  13.938
60309W        W32602  13.678  15.678   1.294
60310W        W32603   3.419   8.880  12.976
60311W        W32604  14.198  10.738  13.961
60312W        W32605  18.096   8.167   2.837
60313W        W32606  10.809  17.301   0.405
60314W        W32607  29.084  12.668   3.758
60315W        W32608   9.818  13.683  12.984
60316W        W32609  18.264  18.667   2.316
60317W        W32610  33.005  15.174   0.917
60318W        W32611  30.078  20.210   2.357
60319W        W32612  43.315  16.629   9.470
60320W        W32613  13.128  20.722   4.143
60321W        W32614  38.993  16.706  12.378
60322W        W32615  11.846  21.227  13.488
60323W        W32616  30.424  38.824   3.777
60324W        W32617  16.748  21.738  11.114
60325W        W32618  26.166  29.635   0.458
60326W        W32619  26.484  39.559  13.031
60327W        W32620  22.746  17.296  14.765
60328W        W32621  28.099  19.240  11.943
60329W        W32622  35.986   1.452   0.447
60330W        W32623  12.807   6.711   2.818
60331W        W32624  35.919   2.844   4.316
60332W        W32625  12.141   4.834   0.280
60333W        W32626  40.849  15.220   1.395
60334W        W32627  17.273  39.814   1.346
60335W        W32628  18.788  12.691   4.641
60336W        W32629  41.499   0.408   3.174
60337W        W32630  14.315  20.592  12.091
60338W        W32631  27.984   3.781  10.524
60339W        W32632  20.666   0.855  14.888
60340W        W32633   2.731  32.077  11.412
60341W        W32634  40.467  43.432  12.015
60342W        W32635  15.751   1.865  14.835
60343W        W32636  21.245   8.398   4.721
60344W        W32637  29.013  31.966  13.421
60345W        W32638  11.846  42.293   3.235
60346W        W32639  32.604   9.291   1.312
60347W        W32640  33.455  21.134  14.952
60348W        W32641  32.984  10.321  10.569
60349W        W32642  31.460  21.053   3.699
60350W        W32643   5.799   5.780   0.389
60351W        W32644  20.119  12.686   0.374
60352W        W32645   1.798  22.067   0.841
60353W        W32646  21.725  33.017  14.917
60354W        W32647  18.053  39.816   2.193
60355W        W32648  36.976  11.807  13.836
60356W        W32649   6.843  44.423   4.599
60357W        W32650  27.961  42.932   4.315
60358W        W32651   8.337   2.227   1.361
60359W        W32652  17.645  22.229  11.079
60360W        W32653  31.545  37.053   0.306
60361W        W32654  33.950  38.473  11.408
60362W        W32655   1.238   6.384  13.433
60363W        W32656  35.006   4.272   3.322
60364W        W32657  31.982  10.725  13.828
60365W        W32658  27.196  22.059   0.838
60366W        W32659  41.892  17.265   9.926
60367W        W32660   8.875  38.861   5.307
60368W        W32661  15.811   8.275   1.384
60369W        W32662  38.865  11.264   2.400
60370W        W32663  15.686  17.304   5.081
60371W        W32664   0.269  28.655   2.400
60372W        W32665   6.293  43.905  11.395
60373W        W32666   2.378  34.369  11.480
60374W        W32667   3.449   8.890  14.967
60375W        W32668  38.925  10.204   4.347
60376W        W32669  15.266  22.685   0.249
60377W        W32670   1.417  32.082  12.911
60378W        W32671   4.446  19.122   2.815
60379W        W32672  43.888   1.406  10.913
60380W        W32673  12.828  12.259  13.879
60381W        W32674  36.048   0.370  11.929
60382W        W32675  28.090   4.352   3.786
60383W        W32676  44.428  23.697  11.128
60384W        W32677  32.473   1.243   2.192
60385W        W32678  35.071   8.332  10.608
60386W        W32679  33.889   5.862  13.493
60387W        W32680  33.128  14.304   0.462
60388W        W32681  10.667  28.665   4.758
60389W        W32682  37.385  27.625  12.957
60390W        W32683  15.722  21.604  11.531
60391W        W32684   0.321   9.380  14.953
60392W        W32685  20.606   8.193  13.025
60393W        W32686   6.735  34.601   2.749
60394W        W32687  34.422   9.177   4.340
60395W        W32688  39.522   8.304   2.878
60396W        W32689  25.160  19.090  10.432
60397W        W32690  24.126  33.942   2.292
60398W        W32691  33.513  34.974   0.248
60399W        W32692  19.634  33.544   2.222
60400W        W32693  39.048  37.497   0.891
60401W        W32694  38.362  28.133   4.659
60402W        W32695   3.888   9.826  11.512
60403W        W32696  25.591  26.477  14.847
60404W        W32697  23.157  28.461  12.959
60405W        W32698   6.233  24.230   1.361
60406W        W32699  38.528  42.021  12.056
60407W        W32700  34.605  29.139   2.387
60408W        W32701   7.394   6.767   0.842
60409W        W32702  40.510  43.516  11.041
60410W        W32703  41.511  37.359   2.898
60411W        W32704  34.512  23.044  10.938
60412W        W32705   9.263  15.767  12.563
60413W        W32706  13.198  42.006  10.961
60414W        W32707  39.325  27.143  12.081
60415W        W32708  30.524   9.713  11.556
60416W        W32709  22.171  36.593   1.796
60417W        W32710  40.985  23.178  12.026
60418W        W32711  12.685  21.207   0.785
60419W        W32712  20.577  38.556  11.046
60420W        W32713   6.784  24.587  14.963
60421W        W32714  16.226  10.726   1.222
60422W        W32715  33.047   3.253   3.820
60423W        W32716   8.178   3.342  12.864
60424W        W32717  22.173  36.045   2.227
60425W        W32718  31.017  29.147  10.482
60426W        W32719   9.335  21.177   1.414
60427W        W32720   1.300  31.487  10.490
60428W        W32721  30.105   4.413   1.309
60429W        W32722  29.119  43.893  11.520
60430W        W32723  18.654   3.767  14.499
60431W        W32724  37.907  43.977   0.270
60432W        W32725  37.073  11.217   4.818
60433W        W32726  38.333  23.102  14.025
60434W        W32727  26.063   3.272  12.069
60435W        W32728   4.862  43.421  14.901
60436W        W32729  34.492  36.053   3.384
60437W        W32730  15.817   3.331  14.481
60438W        W32731   1.843  40.953  12.561
60439W        W32732   6.186  23.677  13.042
60440W        W32733  22.253  36.044   3.362
60441W        W32734  38.848  29.646   2.814
60442W        W32735   3.400  36.589  11.077
60443W        W32736  21.204  12.674  13.326
60444W        W32737  33.460  41.376   4.601
60445W        W32738   7.795  30.140  10.409
60446W        W32739  30.623  11.699  14.514
60447W        W32740   8.715  21.556   3.758
60448W        W32741  38.914  42.366  10.508
60449W        W32742  30.060  31.591  11.967
60450W        W32743  41.343  21.709   1.809
60451W        W32744  12.850   3.915  13.521
60452W        W32745  33.591   8.354  12.899
60453W        W32746  37.018  23.651   4.167
60454W        W32747  20.635  22.094   2.723
60455W        W32748  31.537  22.161   1.893
60456W        W32749   4.834   6.732   3.639
60457W        W32750  20.577  28.544  11.550
60458W        W32751  36.408   7.843  10.644
60459W        W32752  12.327  29.983  13.387
60460W        W32753  19.537   9.188  14.380
60461W        W32754  28.122  20.726   4.703
60462W        W32755   2.383  18.214  13.497
60463W        W32756  25.517  33.431  10.161
60464W        W32757  30.908  21.736   0.834
60465W        W32758   5.429   7.320  12.408
60466W        W32759  36.436  32.492  13.430
60467W        W32760  30.619   3.418   5.237
60468W        W32761  30.501  28.596   1.735
60469W        W32762  43.356  34.590  13.803
60470W        W32763  24.652  26.618   1.883
60471W        W32764  38.516  11.663  11.444
60472W        W32765  37.964  32.123   3.278
60473W        W32766  29.000  28.626  11.095
60474W        W32767   9.328   3.766   4.810
60475W        W32768  24.710  24.126  13.011
60476W        W32769  27.154   9.685  12.434
60477W        W32770   0.846   7.293   3.162
60478W        W32771  33.908   9.875  10.433
60479W        W32772  28.634   9.743   1.294
60480W        W32773  44.967  44.825  11.975
60481W        W32774  33.504  21.103   1.932
60482W        W32775   1.315   9.856  14.355
60483W        W32776  32.013  26.495  12.515
60484W        W32777  33.397   2.262  11.913
60485W        W32778  42.322  43.919  14.505
60486W        W32779  19.235   0.383  12.973
60487W        W32780  35.415  40.865  12.400
60488W        W32781  32.440  30.986  11.925
60489W        W32782  11.269  23.037   3.205
60490W        W32783   4.727  26.608   3.762
60491W        W32784  24.004  15.713   1.286
60492W        W32785  38.461  10.156  13.322
60493W        W32786  27.956  14.589   3.709
60494W        W32787  44.290  43.830  13.467
60495W        W32788  44.287  43.835   0.940
60496W        W32789  34.887  39.877  10.478
60497W        W32790   2.732   7.371   4.768
60498W        W32791  15.623  43.774  13.837
60499W        W32792  17.114  34.373  11.982
60500W        W32793  44.956   4.416  12.839
60501W        W32794   6.847  36.368  13.388
60502W        W32795  43.412  40.519  13.481
60503W        W32796   2.927  32.630  14.482
60504W        W32797  31.423  20.754  14.814
60505W        W32798  16.222  33.443  12.974
60506W        W32799  32.911  23.621  13.064
60507W        W32800  16.198  12.232  10.440
60508W        W32801  21.744  22.016   0.449
60509W        W32802  28.543   1.870   1.868
60510W        W32803  15.321   5.757   1.229
60511W        W32804  21.187  30.654  11.126
60512W        W32805   3.866  13.195  14.020
60513W        W32806   6.242  44.912  10.595
60514W        W32807  11.666  31.995  13.401
60515W        W32808  36.895  33.600  14.858
60516W        W32809   1.278  19.257   2.268
60517W        W32810  43.308  43.332   4.691
60518W        W32811   1.901  11.151   0.411
60519W        W32812   8.250  33.420  13.315
60520W        W32813  17.206   6.803  10.134
60521W        W32814  23.498  43.785   1.899
60522W        W32815  39.349  30.420  10.466
60523W        W32816   3.247  25.569  13.006
60524W        W32817   8.824   4.748  10.482
60525W        W32818   2.379  27.521  11.513
60526W        W32819  30.618  12.290   4.174
60527W        W32820  42.468   4.444   3.804
60528W        W32821  37.038  26.052  12.958
60529W        W32822  18.646  44.790  14.917
60530W        W32823   7.240   9.682   3.160
60531W        W32824  18.649  41.836   4.800
60532W        W32825  16.144  22.727  13.444
60533W        W32826  25.477  37.895   4.335
60534W        W32827  21.734  39.327   2.350
60535W        W32828  13.770  24.009  12.407
60536W        W32829  31.037  21.516  10.531
60537W        W32830  18.167  14.176   1.739
60538W        W32831  28.555   2.757   1.256
60539W        W32832   1.939  35.956  12.075
60540W        W32833  24.083  31.419  13.885
60541W        W32834  34.091   1.774  11.520
60542W        W32835  14.246  12.648  11.600
60543W        W32836  22.741  40.882  13.051
60544W        W32837  28.957  27.568   4.292
60545W        W32838   9.706  33.068   3.248
60546W        W32839  19.576  29.108  13.309
60547W        W32840  16.250  14.272   0.478
60548W        W32841   7.204  15.738  10.454
60549W        W32842  12.200   1.285   0.885
60550W        W32843  12.297  18.077   4.338
60551W        W32844  38.503  35.050  14.863
60552W        W32845   1.838   0.857  13.874
60553W        W32846  21.589  24.573  12.858
60554W        W32847  14.105   8.358  10.628
60555W        W32848  41.328  40.448  14.448
60556W        W32849  22.251  31.081  11.978
60557W        W32850   9.263  41.420  12.913
60558W        W32851  35.383  39.005   1.873
60559W        W32852  38.055   2.785  13.476
60560W        W32853  30.455  41.362   2.683
60561W        W32854  41.949  40.375  12.544
60562W        W32855  29.581  31.041  12.460
60563W        W32856  12.359   0.348  12.844
60564W        W32857   0.980   5.299   0.411
60565W        W32858  12.628  24.981   2.680
60566W        W32859  35.419  30.144  11.585
60567W        W32860   4.898  20.239  12.846
60568W        W32861  10.246   7.749  13.928
60569W        W32862  31.096  40.977   1.694
60570W        W32863  30.918  36.427   0.352
60571W        W32864  25.521  32.127  13.019
60572W        W32865  43.854  31.978   2.709
60573W        W32866   7.795  37.468   2.778
60574W        W32867  29.591  20.115  11.987
60575W        W32868  31.137  41.307  11.982
60576W        W32869  11.762  22.025   2.240
60577W        W32870  35.377  44.771  14.777
60578W        W32871  27.567  31.433  12.571
60579W        W32872   1.419  24.032   3.635
60580W        W32873   0.422  32.467   1.234
60581W        W32874   0.369   4.919  12.443
60582W        W32875  44.456  15.767   3.372
60583W        W32876  40.903  17.134  11.051
60584W        W32877   1.970  43.885   2.714
60585W        W32878  12.324  36.469   0.354
60586W        W32879  10.240  29.479   2.233
60587W        W32880  38.075   9.240  12.031
60588W        W32881   0.792   6.746  14.380
60589W        W32882  34.031   2.425  12.054
60590W        W32883  16.312  24.159   4.763
60591W        W32884  26.981  24.723   5.310
60592W        W32885   0.302  36.485  11.562
60593W        W32886  38.432  13.197  10.894
60594W        W32887   4.838   5.349  14.977
60595W        W32888  16.199   0.785   1.864
60596W        W32889  44.824  29.025  11.006
60597W        W32890   6.385  13.229   4.283
60598W        W32891  13.339  23.183   4.272
60599W        W32892  31.457   9.766  13.978
60600W        W32893  32.596  37.003  11.128
60601W        W32894  44.390  13.264   2.874
60602W        W32895  34.067  42.873   0.793
60603W        W32896  36.086  27.143   0.243
60604W        W32897   0.910   7.295   5.137
60605W        W32898  36.474  36.471  14.377
60606W        W32899  31.069  12.168  12.066
60607W        W32900  41.411   1.467  10.093
60608W        W32901  38.005  39.511  10.564
60609W        W32902  23.655  15.145   4.822
60610W        W32903  29.444  41.391  13.364
60611W        W32904  16.779   5.347  13.943
60612W        W32905  10.150  28.944  13.870
60613W        W32906   6.393  12.247   2.874
60614W        W32907  13.164  33.615   4.680
60615W        W32908  15.643  44.272   0.325
60616W        W32909  30.055  26.128  11.471
60617W        W32910  33.594   4.806   1.896
60618W        W32911  40.369  30.496   4.616
60619W        W32912   9.264  39.451  14.961
60620W        W32913  37.942  14.826  10.894
60621W        W32914  31.567  25.994   2.858
60622W        W32915  42.443   3.742   0.336
60623W        W32916  43.017  21.689  10.907
60624W        W32917  15.662  44.342  13.502
60625W        W32918  35.029   7.787   1.417
60626W        W32919  25.585   0.264  12.059
60627W        W32920  21.197  11.831  14.990
60628W        W32921  27.116  25.573  10.472
60629W        W32922  11.241  25.471  12.547
60630W        W32923  27.455  20.723   0.964
60631W        W32924  38.516   7.760   3.252
60632W        W32925  38.385  35.449  14.981
60633W        W32926  40.505  33.487  14.474
60634W        W32927   5.897  40.931  12.855
60635W        W32928  42.931  22.216   4.675
60636W        W32929  36.385  18.208   3.796
60637W        W32930  25.582  38.408   2.225
60638W        W32931  17.137  29.942  12.990
60639W        W32932  10.759  26.201  10.469
60640W        W32933  17.780  38.018   1.267
60641W        W32934  24.087  43.983   4.244
60642W        W32935   3.845  38.387   4.269
60643W        W32936  35.487  38.985  12.551
60644W        W32937  39.860  14.749  11.482
60645W        W32938  19.651  16.612  11.964
60646W        W32939   3.919  38.497   4.712
60647W        W32940  38.448  30.421  13.016
60648W        W32941  14.287   3.743   2.268
60649W        W32942  16.168   4.367  11.093
60650W        W32943  39.887   5.264   2.789
60651W        W32944  10.697   4.398   0.761
60652W        W32945  44.789  16.249  10.428
60653W        W32946   9.395  25.633   2.806
60654W        W32947  27.043  27.942  12.001
60655W        W32948  30.926  23.183   3.666
60656W        W32949  11.212  10.877   4.682
60657W        W32950   2.787  39.962  10.600
60658W        W32951  24.207   9.671   1.750
60659W        W32952  20.708  26.957  13.501
60660W        W32953  16.182  24.575   3.807
60661W        W32954   8.880  21.188   0.389
60662W        W32955  23.051  44.449   1.731
60663W        W32956  25.570  41.448   4.638
60664W        W32957  26.191   7.808  12.577
60665W        W32958  27.677  31.072   3.308
60666W        W32959   2.330   3.854  10.435
60667W        W32960  37.436  32.428  12.424
60668W        W32961   1.436   1.471  12.927
60669W        W32962  28.148  10.838   1.703
60670W        W32963  27.556  22.134   4.620
60671W        W32964  24.057  41.995   4.176
60672W        W32965  42.971   1.798   2.693
60673W        W32966  18.700  38.982  12.877
60674W        W32967   8.901   2.414   2.249
60675W        W32968  41.527  30.569   0.333
60676W        W32969  44.879   7.728   4.191
60677W        W32970  16.162   9.876   4.117
60678W        W32971  19.200   6.277  13.996
60679W        W32972  37.077   2.254  12.937
60680W        W32973   9.374  13.307  14.486
60681W        W32974   9.253  38.508  14.816
60682W        W32975  35.523  44.947  11.506
60683W        W32976  29.141  18.615   4.619
60684W        W32977  44.963  10.354   2.258
60685W        W32978  13.144  17.272   0.810
60686W        W32979  33.387  26.964   0.772
60687W        W32980  29.596  28.615  12.453
60688W        W32981  23.583  29.589   4.184
60689W        W32982   7.718  13.124   4.700
60690W        W32983  41.456   1.901  14.413
60691W        W32984   3.268  19.670  14.933
60692W        W32985  35.454  24.122   4.190
60693W        W32986  32.435  40.053  12.567
60694W        W32987  42.495  10.832  12.580
60695W        W32988  35.409  11.791  13.915
60696W        W32989  44.761   8.898  11.096
60697W        W32990  18.245  32.091   1.731
60698W        W32991  37.934  28.104   3.845
60699W        W32992  44.753  23.574   0.931
60700W        W32993   7.360  32.476  13.932
60701W        W32994  23.533  16.751  11.418
60702W        W32995  11.192  30.604   4.294
60703W        W32996  27.147  20.570   4.301
60704W        W32997  43.322   1.341  10.585
60705W        W32998  17.625   4.372  10.566
60706W        W32999  44.864   7.786   3.368
60707W        W33000  29.471  16.166  10.996
60708W        W33001   4.405  39.877  13.371
60709W        W33002  13.230   0.799   0.482
60710W        W33003   2.795  24.213  14.329
60711W        W33004  14.768  19.707   2.726
60712W        W33005   6.892  11.359  13.398
60713W        W33006  41.948   5.860  12.406
60714W        W33007  37.362   4.774   2.744
60715W        W33008  13.816  14.099   1.717
60716W        W33009   4.384  27.048   1.305
60717W        W33010  40.360  37.944   2.724
60718W        W33011  40.988   5.833   3.254
60719W        W33012  16.124   2.928   0.468
60720W        W33013  15.645  21.174  11.475
60721W        W33014  16.084  22.017   4.687
60722W        W33015   1.368  17.724  13.864
60723W        W33016  22.627  23.184  14.424
60724W        W33017   7.266   4.429  12.868
60725W        W33018  25.634  28.088   0.369
60726W        W33019  32.530  15.087  12.534
60727W        W33020   9.803  30.494   3.773
60728W        W33021  31.500   6.817  13.431
60729W        W33022  32.114  32.126   0.781
60730W        W33023   8.288   5.766   3.684
60731W        W33024  36.956  29.491   0.756
60732W        W33025  28.524  18.207  14.497
60733W        W33026  20.180  39.361   0.959
60734W        W33027  21.720   9.670  11.544
60735W        W33028  32.029  16.139   4.819
60736W        W33029   2.425  24.032  10.612
60737W        W33030  44.334  26.466   3.347
60738W        W33031   3.346  15.296   2.728
60739W        W33032  11.794  32.610   4.777
60740W        W33033   1.376  21.078  11.404
60741W        W33034  25.519  30.072  13.451
60742W        W33035   1.331  37.561   4.632
60743W        W33036   9.692  26.150  13.967
60744W        W33037  44.756   9.811  11.063
60745W        W33038  30.099  34.988  13.804
60746W        W33039  23.728   5.888   1.414
60747W        W33040  37.855  41.295  13.876
60748W        W33041  34.378  39.320   3.259
60749W        W33042   4.890  25.202   3.245
60750W        W33043  12.276   2.350   2.668
60751W        W33044  26.095   7.220  11.415
60752W        W33045  26.554  24.073   5.292
60753W        W33046  44.482  41.800  13.944
60754W        W33047  41.842   7.720  11.966
60755W        W33048   0.447   5.312  11.873
60756W        W33049  23.061  43.913  12.830
60757W        W33050  29.449   6.897  10.610
60758W        W33051  42.886  38.504  14.849
60759W        W33052  36.043  35.523  13.898
60760W        W33053  20.168  14.195  14.499
60761W        W33054  26.660  42.873   4.745
60762W        W33055  41.822  10.839   3.256
60763W        W33056  41.297  21.141   1.914
60764W        W33057   7.837  28.593   3.852
60765W        W33058  25.704  10.853   4.211
60766W        W33059   8.793  14.241  13.493
60767W        W33060  25.676   5.210  12.397
60768W        W33061  42.978  23.992  13.383
60769W        W33062   5.844  33.967  13.497
60770W        W33063  39.933  15.173   3.196
60771W        W33064  40.333  36.049   3.169
60772W        W33065  13.114  23.183   1.731
60773W        W33066  39.990   2.231   1.730
60774W        W33067  44.756  24.133  12.453
60775W        W33068  39.858   5.380   4.145
60776W        W33069   4.311  41.349  14.996
60777W        W33070  24.135  14.785  10.514
60778W        W33071  40.048   8.684   4.150
60779W        W33072  11.729  39.982  11.457
60780W        W33073  20.117  16.691   0.324
60781W        W33074  16.226   1.444  12.366
60782W        W33075  23.090   7.334   3.325
60783W        W33076  42.887  40.460   2.708
60784W        W33077  31.987  33.097   0.950
60785W        W33078   6.885  39.888  14.474
60786W        W33079  15.694  21.614  12.880
60787W        W33080  28.601  10.876  10.961
60788W        W33081  40.836   5.376  13.809
60789W        W33082  17.104  42.416  10.512
60790W        W33083   1.805  33.501   3.249
60791W        W33084  37.956   9.792  12.845
60792W        W33085   1.476   4.270  13.375
60793W        W33086  22.118  23.716   3.870
60794W        W33087  18.592  41.942   2.360
60795W        W33088  23.099  40.939   1.867
60796W        W33089  24.724  22.601   3.208
60797W        W33090  14.775  42.017   2.711
60798W        W33091  21.639  21.196  14.397
60799W        W33092  38.459  29.469   0.481
60800W        W33093  21.248  33.993  10.407
60801W        W33094  10.370  36.881   1.295
60802W        W33095  30.085  22.555   4.714
60803W        W33096   1.412   6.819  11.864
60804W        W33097  15.789  40.538   4.833
60805W        W33098  10.836   5.763   1.716
60806W        W33099   2.428  31.478  11.564
60807W        W33100   8.745   1.835   4.830
60808W        W33101   3.950   3.345  14.905
60809W        W33102  27.120  28.668   4.658
60810W        W33103  11.296  37.519  13.534
60811W        W33104  40.885  37.552   0.817
60812W        W33105  16.083  24.147  11.096
60813W        W33106   0.886  33.961  13.388
60814W        W33107  38.899  42.892  12.524
60815W        W33108   8.180   5.407  12.570
60816W        W33109  19.702  25.668   1.717
60817W        W33110  39.034  44.421   4.747
60818W        W33111  44.816  11.155  14.378
60819W        W33112  16.295  17.162  10.115
60820W        W33113   6.296   4.927  11.025
60821W        W33114  31.035  22.127  13.946
60822W        W33115  23.049   7.309  13.452
60823W        W33116   0.301  34.571   2.405
60824W        W33117  36.552   2.737  11.026
60825W        W33118  22.093   8.174   3.200
60826W        W33119   2.755  25.137   3.147
60827W        W33120   9.737  36.944  13.484
60828W        W33121  42.458  16.685   3.358
60829W        W33122  21.051  33.490  10.582
60830W        W33123  39.036  25.651   3.656
60831W        W33124  27.029  31.557   2.318
60832W        W33125  37.046  34.583  12.444
60833W        W33126  13.626  38.053   0.948
60834W        W33127  35.469   2.866   0.783
60835W        W33128  10.743  30.082  12.026
60836W        W33129  24.203   1.350  11.374
60837W        W33130  14.184  12.688   0.843
60838W        W33131  30.014  30.082   0.937
60839W        W33132   0.296  30.514   4.600
60840W        W33133  18.646  38.910   4.172
60841W        W33134  39.941  22.222   4.306
60842W        W33135  32.896   1.821   1.434
60843W        W33136  37.544  37.880  11.540
60844W        W33137  13.192  37.995   0.341
60845W        W33138  41.932  42.466  11.389
60846W        W33139  36.914  16.081   0.790
60847W        W33140  24.593  35.487  14.802
60848W        W33141  39.477  25.493   2.253
60849W        W33142   5.931  31.107   3.259
60850W        W33143  18.102  30.130  14.847
60851W        W33144  39.365  10.160   0.277
60852W        W33145  40.801  23.704  14.445
60853W        W33146  13.788   8.676   3.651
60854W        W33147  24.002   2.883   1.233
60855W        W33148  19.706  10.655   3.365
60856W        W33149  33.877  37.459  12.575
60857W        W33150  11.171   7.330  14.849
60858W        W33151   1.396  16.647   0.932
60859W        W33152  18.138  37.879   1.295
60860W        W33153  13.308  36.461   2.858
60861W        W33154  27.674  11.634  12.000
60862W        W33155  33.600  25.156   3.360
60863W        W33156   9.331  28.072   3.234
60864W        W33157  34.051  41.379   3.673
60865W        W33158  37.938  10.355  11.875
60866W        W33159  19.266  35.903   3.742
60867W        W33160  21.663  33.039   4.346
60868W        W33161   7.257  11.181  14.399
60869W        W33162  12.254   5.809   3.681
60870W        W33163  19.696  16.123  11.495
60871W        W33164  19.631   8.688  12.397
60872W        W33165  40.323   1.873  11.431
60873W        W33166  20.652  14.129   1.931
60874W        W33167  11.139  18.105  13.844
60875W        W33168  24.208  40.875   2.218
60876W        W33169   8.346  23.088   4.605
60877W        W33170   2.878  40.035   4.703
60878W        W33171  36.428   9.679   3.857
60879W        W33172  18.208  30.948  11.541
60880W        W33173  32.932   9.681   4.338
60881W        W33174  18.751  33.962  10.000
60882W        W33175  25.152  36.042   2.270
60883W        W33176   5.244   5.830   2.769
60884W        W33177   9.174  11.639  11.532
60885W        W33178  21.553  18.175   4.747
60886W        W33179  15.094   1.831  12.534
60887W        W33180   7.229  14.162   0.269
60888W        W33181   2.945  14.096  10.996
60889W        W33182  28.664  14.322  14.305
60890W        W33183  38.075  21.688   2.697
60891W        W33184  43.020  22.553   5.138
60892W        W33185   5.744  16.732  13.051
60893W        W33186  36.940  41.509   4.711
60894W        W33187  24.673   4.902   3.634
60895W        W33188   9.382  18.073   2.332
60896W        W33189  41.484  19.754  12.999
60897W        W33190  27.050  11.253  13.902
60898W        W33191  28.990  36.530  12.435
60899W        W33192   0.864  30.510   1.827
60900W        W33193  30.136  20.664   3.769
60901W        W33194  14.302  11.225   2.710
60902W        W33195   0.456   0.988   2.799
60903W        W33196   6.348  14.103   9.923
60904W        W33197  27.585   9.825  13.986
60905W        W33198  20.131  17.248  12.858
60906W        W33199  11.786   7.730   4.337
60907W        W33200  19.662   5.283   4.124
60908W        W33201  36.042   2.738   2.802
60909W        W33202   7.720  11.821  12.373
60910W        W33203   3.229  43.937  13.828
60911W        W33204  25.649   2.271  13.979
60912W        W33205   7.228  42.399   3.360
60913W        W33206  30.644   0.897  11.942
60914W        W33207   5.792  12.280  11.518
60915W        W33208  22.726  17.124   4.603
60916W        W33209  19.228  24.703   3.685
60917W        W33210  28.048  27.180  11.951
60918W        W33211  28.966  13.615   4.715
60919W        W33212  38.407  30.597   4.744
60920W        W33213  28.934  35.877   1.849
60921W        W33214  26.615  21.094   1.446
60922W        W33215  22.100  28.583   3.754
60923W        W33216   4.725   9.222   4.221
60924W        W33217  43.286  39.058  11.001
60925W        W33218  40.362  28.074   3.724
60926W        W33219  32.988  16.696   2.724
60927W        W33220  34.388   0.354  13.890
60928W        W33221  24.147  10.174  14.394
60929W        W33222  28.938  32.976   2.722
60930W        W33223   9.783  39.989  12.452
60931W        W33224  41.860  25.504  10.539
60932W        W33225  34.869  25.056   4.809
60933W        W33226  25.712  22.586   2.809
60934W        W33227   5.790  41.846   3.852
60935W        W33228   7.808  38.862  13.942
60936W        W33229  34.530   2.764   3.870
60937W        W33230  14.604   2.928   3.651
60938W        W33231   8.697  41.374   4.169
60939W        W33232   5.333   1.891  11.437
60940W        W33233  15.180  12.233  12.429
60941W        W33234   0.487   2.815  12.988
60942W        W33235  18.663   4.256  13.331
60943W        W33236  42.289   4.855  12.871
60944W        W33237  30.968   0.253   4.602
60945W        W33238   6.893  18.148  14.465
60946W        W33239  10.821  41.811  13.970
60947W        W33240  29.430  23.589   1.718
60948W        W33241  41.538  16.588  13.452
60949W        W33242  23.705  23.173  10.501
60950W        W33243   7.183  44.794  14.280
60951W        W33244  30.937  23.993   4.253
60952W        W33245  32.564  41.461   2.260
60953W        W33246  32.604  40.946  13.926
60954W        W33247   3.428  24.218  13.475
60955W        W33248   7.674  22.649   2.335
60956W        W33249  29.532  36.989  14.401
60957W        W33250  27.048  32.067   3.737
60958W        W33251  18.759   7.685  12.541
60959W        W33252  41.460  35.427  13.960
60960W        W33253  22.209  25.213   0.760
60961W        W33254  39.953  17.785   0.759
60962W        W33255  16.316  24.691  11.569
60963W        W33256  30.066  24.694  12.834
60964W        W33257  42.918  30.075  11.994
60965W        W33258  19.681  23.505  11.601
60966W        W33259  41.473  37.563   0.310
60967W        W33260  24.094   3.893   4.224
60968W        W33261  44.293  40.980   2.678
60969W        W33262  38.897  34.482  11.585
60970W        W33263  15.705  42.945  14.787
60971W        W33264  31.439  32.592   1.334
60972W        W33265  26.048   2.389   3.848
60973W        W33266  11.278  36.981   2.199
60974W        W33267  38.875  40.899   2.764
60975W        W33268   4.821  31.558   4.331
60976W        W33269  15.720  18.164   2.751
60977W        W33270  26.119  17.730  11.056
60978W        W33271  20.114  18.581  12.845
60979W        W33272  17.677  23.623   0.885
60980W        W33273  43.859  41.981  10.915
60981W        W33274   8.277  44.364   4.710
60982W        W33275   1.940  42.451   1.799
60983W        W33276  19.669  33.017  12.860
60984W        W33277  16.605   1.443  12.839
60985W        W33278   5.711  35.496  11.491
60986W        W33279   1.303  37.839   0.824
60987W        W33280  40.861  40.974  11.492
60988W        W33281   0.388   4.904  14.283
60989W        W33282  18.745  35.554  10.496
60990W        W33283  40.548  23.528  12.023
60991W        W33284  29.545  43.290   2.199
60992W        W33285  23.237  18.645  12.984
60993W        W33286   7.768  35.940   4.134
60994W        W33287  19.230   9.681  13.401
60995W        W33288  21.583   8.740   4.209
60996W        W33289  41.464  17.793   1.361
60997W        W33290   3.349   8.190   4.686
60998W        W33291  18.075  21.025  11.969
60999W        W33292  32.901   6.719  13.040
61000W        W33293  25.209  14.754   0.341
61001W        W33294  40.040  39.917   2.308
61002W        W33295  27.190   3.378   0.407
61003W        W33296   5.305  33.512  12.471
61004W        W33297  21.220  35.603  12.889
61005W        W33298  15.686  31.014   2.358
61006W        W33299   4.941  13.777   0.416
61007W        W33300  44.939   1.752  13.481
61008W        W33301  19.680   6.678   1.826
61009W        W33302  27.633  37.901   3.650
61010W        W33303  22.572  18.093   2.382
61011W        W33304  30.926  40.851   2.863
61012W        W33305  31.989   5.808  11.501
61013W        W33306  39.435  24.651  14.371
61014W        W33307  33.384  26.063   3.843
61015W        W33308  10.723  29.444  11.072
61016W        W33309  16.271   0.485  10.503
61017W        W33310   7.846  19.072   4.252
61018W        W33311  16.159  38.520  13.888
61019W        W33312  42.465  21.530   1.224
61020W        W33313  33.046  14.203  12.074
61021W        W33314  17.168  24.192   1.335
61022W        W33315  23.193  13.630   4.697
61023W        W33316  30.431   3.377  11.515
61024W        W33317   7.672  39.956  14.346
61025W        W33318  23.984  23.097   2.280
61026W        W33319  31.059  26.072  12.010
61027W        W33320  24.664  17.252  10.426
61028W        W33321  11.725  11.330   3.174
61029W        W33322  26.993   9.837   3.378
61030W        W33323  44.296  13.821   0.347
61031W        W33324   3.335  32.039   3.696
61032W        W33325  40.896  16.657  14.026
61033W        W33326  22.047  23.160  14.945
61034W        W33327  42.780   3.321   2.198
61035W        W33328  11.221   0.887   3.759
61036W        W33329  29.597  12.176  11.895
61037W        W33330  28.633  23.723   1.444
61038W        W33331  44.850   0.324  11.975
61039W        W33332  31.093  28.635   0.402
61040W        W33333  26.534  15.714  12.031
61041W        W33334  18.101  42.362   1.303
61042W        W33335  27.194  15.231   2.734
61043W        W33336  14.308  35.439   0.377
61044W        W33337  30.590  15.198   3.151
61045W        W33338  17.145  25.569  13.506
61046W        W33339  28.655   2.433  13.830
61047W        W33340  24.091   9.648  12.826
61048W        W33341   5.201  23.694   3.695
61049W        W33342   8.717   4.386  12.989
61050W        W33343  19.718  30.005  10.999
61051W        W33344   4.899   2.296  14.497
61052W        W33345  29.427  38.975   1.255
61053W        W33346  37.897   0.816   2.850
61054W        W33347  15.226   1.766  13.529
61055W        W33348  19.045  21.709   2.332
61056W        W33349   7.896   4.777  12.042
61057W        W33350  23.023  10.343  13.921
61058W        W33351  20.553   1.399   3.280
61059W        W33352  31.618  25.173   1.756
61060W        W33353  17.617   5.794   1.756
61061W        W33354  19.205   6.427   2.200
61062W        W33355  12.665   6.245   0.303
61063W        W33356  36.864   0.349   3.154
61064W        W33357  20.751  23.119   4.240
61065W        W33358  12.845  28.593  13.053
61066W        W33359  31.912   2.248  10.548
61067W        W33360  27.999   2.796   2.230
61068W        W33361   5.852  21.755   0.385
61069W        W33362  14.113  13.212   3.153
61070W        W33363  44.845  17.104   1.805
61071W        W33364  14.766   8.812  12.070
61072W        W33365  37.340  12.775   3.271
61073W        W33366  30.088  38.475   4.822
61074W        W33367  22.621  34.922   0.758
61075W        W33368  15.797  14.115   4.634
61076W        W33369  40.931  43.434   4.171
61077W        W33370  23.513  43.515   2.807
61078W        W33371  24.524  36.088  10.964
61079W        W33372  15.688  23.669  11.061
61080W        W33373  13.133  21.196  13.327
61081W        W33374  44.391  33.511  12.906
61082W        W33375  14.644   5.290  12.491
61083W        W33376  43.374  33.588   2.820
61084W        W33377  17.159   7.834  12.990
61085W        W33378  19.082  13.671  14.827
61086W        W33379  30.472  10.194  12.843
61087W        W33380  26.555  33.395  13.879
61088W        W33381  34.587  12.272   0.880
61089W        W33382  36.949   7.222   3.250
61090W        W33383  38.326  12.130   1.388
61091W        W33384  27.099   2.421   1.333
61092W        W33385   9.335  40.341  13.866
61093W        W33386  42.031  22.664  10.522
61094W        W33387  13.833  40.824  10.412
61095W        W33388  27.131  17.755   4.139
61096W        W33389   8.198  36.418   0.734
61097W        W33390  14.655  18.095  13.525
61098W        W33391  35.922  42.793   1.409
61099W        W33392  28.948  18.290  13.449
61100W        W33393  43.808  27.640  14.002
61101W        W33394   5.813  12.258   1.410
61102W        W33395  28.993  36.494  14.470
61103W        W33396  10.835  36.845   2.705
61104W        W33397  31.420   2.821  12.966
61105W        W33398  39.384   3.235  11.563
61106W        W33399  41.537  40.335   3.725
61107W        W33400   2.923  42.981   2.685
61108W        W33401  36.562   0.884   3.272
61109W        W33402   5.766  16.589  11.611
61110W        W33403  19.737  25.997   1.732
61111W        W33404   6.206  36.002   5.154
61112W        W33405  25.692  30.443  13.830
61113W        W33406  23.500  25.179  13.037
61114W        W33407   3.912  17.302   0.273
61115W        W33408  10.260  17.062   2.355
61116W        W33409   1.443  17.168   2.781
61117W        W33410  24.081   8.835  11.094
61118W        W33411   5.432  29.031   2.800
61119W        W33412  36.484  30.921   3.803
61120W        W33413  39.323   3.409   0.870
61121W        W33414  41.310  30.948   4.610
61122W        W33415  18.656  10.840   3.712
61123W        W33416  15.752  19.050   4.689
61124W        W33417  10.274  12.297  14.425
61125W        W33418  14.603  39.395   4.749
61126W        W33419  29.063  31.442  11.904
61127W        W33420  36.876   9.844  11.086
61128W        W33421  24.037  24.183  13.856
61129W        W33422  22.583   1.744   3.300
61130W        W33423   1.261  39.423  14.768
61131W        W33424  16.716  30.452  13.308
61132W        W33425  22.740  36.528  12.376
61133W        W33426  10.276  34.082  11.000
61134W        W33427  14.625  11.314   0.771
61135W        W33428  15.292  17.189  12.893
61136W        W33429  24.700  34.523  11.111
61137W        W33430  31.114   6.401   2.413
61138W        W33431  23.706  12.305   1.720
61139W        W33432   3.298  29.537   2.751
61140W        W33433  39.373  21.658  11.417
61141W        W33434  10.720   5.271  14.770
61142W        W33435  37.407  24.492   1.932
61143W        W33436  32.026   7.278   1.870
61144W        W33437  42.432  20.632  11.052
61145W        W33438  34.462   1.318  11.518
61146W        W33439   7.313  18.162  11.481
61147W        W33440  10.782  33.881  14.983
61148W        W33441  38.374  32.955   4.289
61149W        W33442  12.625  10.845   3.359
61150W        W33443  20.035  19.542   2.839
61151W        W33444  27.483  21.696  10.911
61152W        W33445  28.472   6.412  13.474
61153W        W33446  31.609   7.250   3.823
61154W        W33447  32.475  20.053  12.391
61155W        W33448  34.871  24.992  14.486
61156W        W33449   5.216   7.336   1.897
61157W        W33450  19.124   8.664  10.608
61158W        W33451  43.326  40.837  12.899
61159W        W33452  31.451  16.191  13.531
61160W        W33453   9.372  12.643  12.551
61161W        W33454  37.497   8.226   1.420
61162W        W33455  39.537   4.715   9.999
61163W        W33456  30.573  33.121   2.201
61164W        W33457  21.719  31.517   4.318
61165W        W33458  35.476  17.240   2.857
61166W        W33459  26.645  41.293  12.364
61167W        W33460  27.082   2.724  12.526
61168W        W33461  25.022  24.060  14.485
61169W        W33462  20.547  34.059   5.709
61170W        W33463   9.149  34.416   4.209
61171W        W33464   8.779   4.341  12.036
61172W        W33465  31.105   4.378  10.891
61173W        W33466   3.762   0.838  13.977
61174W        W33467   9.156  36.554  11.403
61175W        W33468  19.777  27.655   1.795
61176W        W33469  11.304  22.172   0.798
61177W        W33470   2.725  14.234  14.969
61178W        W33471  24.083   6.755   0.437
61179W        W33472   9.729  39.498   1.379
61180W        W33473  11.810  29.049  12.369
61181W        W33474  41.822  32.987   0.483
61182W        W33475   3.718   8.166  14.329
61183W        W33476  10.218   5.759   0.766
61184W        W33477  28.103  28.131   5.091
61185W        W33478  36.474  35.460  12.360
61186W        W33479  23.990  30.483   3.277
61187W        W33480  11.724  44.010   3.821
61188W        W33481  39.490  21.078   0.771
61189W        W33482  23.120  20.557   0.851
61190W        W33483  23.001  33.387   3.689
61191W        W33484  17.760  18.258   2.405
61192W        W33485  12.664  13.720   0.366
61193W        W33486  12.146   3.815   1.774
61194W        W33487  40.325  18.549  14.809
61195W        W33488  26.649  19.162   4.209
61196W        W33489  35.908  12.837   4.248
61197W        W33490  14.275  10.807  13.054
61198W        W33491  39.862  25.557   0.795
61199W        W33492  22.680  38.357   0.795
61200W        W33493   1.756   6.416  13.369
61201W        W33494  24.692   9.275  13.402
61202W        W33495  32.505  35.000   3.159
61203W        W33496  37.075   3.782   1.881
61204W        W33497  14.286  28.120   1.277
61205W        W33498  41.453  20.101   4.741
61206W        W33499  41.356  18.082   4.324
61207W        W33500  11.259   1.374  14.854
61208W        W33501   1.818  22.635   4.678
61209W        W33502  33.584  44.368   3.278
61210W        W33503   0.879  32.892   3.248
61211W        W33504  12.748  26.604   4.296
61212W        W33505  40.511  38.369   0.387
61213W        W33506  27.508  14.664   2.304
61214W        W33507  38.044  43.003   4.800
61215W        W33508  31.072  20.748  11.909
61216W        W33509  21.030   5.301   2.272
61217W        W33510  36.489  32.622  12.837
61218W        W33511  35.558  40.347  10.536
61219W        W33512   8.212  37.515   1.784
61220W        W33513  38.041  38.894   1.344
61221W        W33514  20.681  40.894  13.058
61222W        W33515  41.336  19.215   0.929
61223W        W33516  18.761  18.254  14.799
61224W        W33517  20.666  26.665   2.801
61225W        W33518  24.163  26.472  12.964
61226W        W33519  28.501  43.987   0.772
61227W        W33520  30.434  13.782   1.833
61228W        W33521   1.414  39.547   0.424
61229W        W33522   1.418  42.380   4.808
61230W        W33523  28.932  36.585  11.383
61231W        W33524  37.483  34.441  12.030
61232W        W33525  28.557  30.149   0.483
61233W        W33526  44.773  19.251   0.354
61234W        W33527  27.472  19.728  14.883
61235W        W33528  14.335  32.444   3.684
61236W        W33529  26.027   8.292   1.932
61237W        W33530  24.651  37.996   0.354
61238W        W33531   5.880  11.139  11.560
61239W        W33532  11.197  27.061   3.844
61240W        W33533  42.384   3.372   2.804
61241W        W33534   7.175  24.673   3.692
61242W        W33535  34.566  11.626   4.679
61243W        W33536  43.854  19.595   2.893
61244W        W33537  28.644   0.928  12.357
61245W        W33538   1.238  36.921   3.813
61246W        W33539  16.116  19.213  11.427
61247W        W33540   7.830  23.500  14.282
61248W        W33541  28.037  22.547   1.923
61249W        W33542  30.453  20.763  12.943
61250W        W33543  17.213  36.578   0.747
61251W        W33544  37.504  31.036  11.945
61252W        W33545  22.091  44.942   2.290
61253W        W33546  44.885  24.216  13.348
61254W        W33547   3.361  22.711  10.911
61255W        W33548  24.112  12.330  14.765
61256W        W33549  16.085  25.149  12.421
61257W        W33550  26.485   5.929  12.460
61258W        W33551  28.668  30.939  14.407
61259W        W33552  20.124   3.712   1.355
61260W        W33553  39.999  19.712  13.448
61261W        W33554  44.377   5.826   1.716
61262W        W33555  13.656   1.283  13.894
61263W        W33556   7.892  21.075  13.906
61264W        W33557  38.522  11.364  12.923
61265W        W33558  41.387   8.667   5.115
61266W        W33559   8.191  23.087   1.376
61267W        W33560  44.966   9.350  11.921
61268W        W33561  33.913  36.433  14.905
61269W        W33562  11.866   7.808   3.811
61270W        W33563   6.808  38.857  10.923
61271W        W33564  35.574   3.263  13.014
61272W        W33565  31.959  10.312  10.969
61273W        W33566  16.758  42.000  10.911
61274W        W33567  44.388  23.986   1.814
61275W        W33568  26.184  19.270   0.731
61276W        W33569  26.467  43.840   1.335
61277W        W33570   6.856  18.140  12.453
61278W        W33571  37.951  17.077   3.701
61279W        W33572  30.965  11.787   4.624
61280W        W33573  21.075  29.544  12.519
61281W        W33574  42.984  23.523  11.922
61282W        W33575  30.534  25.203  14.818
61283W        W33576  34.915  37.362  13.048
61284W        W33577   1.801  35.953  14.825
61285W        W33578  17.218  43.500  14.901
61286W        W33579  23.992  14.313   1.746
61287W        W33580  35.460   5.323   0.290
61288W        W33581  19.150  11.263   0.810
61289W        W33582  16.677  22.082  11.101
61290W        W33583  28.986   9.768  14.977
61291W        W33584  10.791  34.422  13.457
61292W        W33585   4.367  23.115   1.270
61293W        W33586  19.620  44.328   3.178
61294W        W33587  11.294   1.799   2.357
61295W        W33588  36.953  35.563   4.160
61296W        W33589  44.335   3.918  12.482
61297W        W33590  36.047  20.119  14.798
61298W        W33591  29.641  37.517  10.553
61299W        W33592  41.857  26.957   4.192
61300W        W33593  27.958  42.934  12.409
61301W        W33594  27.656   2.842  14.968
61302W        W33595   9.160   2.326  14.971
61303W        W33596  27.456  29.035   4.607
61304W        W33597  27.458  31.996  14.374
61305W        W33598  30.092  41.361   4.185
61306W        W33599  10.693  18.286  13.498
61307W        W33600   2.412  23.202  13.919
61308W        W33601  37.854  44.887   0.830
61309W        W33602  29.518  15.329  11.438
61310W        W33603  15.650  24.554   0.318
61311W        W33604  17.102  27.593  11.018
61312W        W33605  17.256  16.748  13.937
61313W        W33606  40.843  42.792   2.373
61314W        W33607   0.432  15.803   2.321
61315W        W33608   9.773  42.321   1.806
61316W        W33609  18.228  30.132  14.446
61317W        W33610  14.155  26.965  14.324
61318W        W33611   8.675   2.737   2.847
61319W        W33612  27.181   6.761  14.778
61320W        W33613  37.356  24.066  14.938
61321W        W33614  25.217  35.075  11.482
61322W        W33615  36.578  25.086   3.223
61323W        W33616  13.815  36.042  11.957
61324W        W33617  32.087  31.525  12.437
61325W        W33618  20.583  14.187  12.067
61326W        W33619  34.595   4.711  10.582
61327W        W33620  34.432  38.366  14.880
61328W        W33621   0.774  41.812   3.376
61329W        W33622   0.772   6.341   1.242
61330W        W33623  20.138  20.067   0.253
61331W        W33624  36.052  33.533  12.926
61332W        W33625  35.418   7.417  13.455
61333W        W33626  28.552   5.695  10.900
61334W        W33627  35.892  38.922   3.721
61335W        W33628  20.114  18.269  11.548
61336W        W33629  20.198   8.340  13.020
61337W        W33630  15.726  26.154   3.271
61338W        W33631  25.490  24.168   1.787
61339W        W33632  44.906  17.119  13.387
61340W        W33633  44.945  33.908   0.763
61341W        W33634  38.471   0.433   3.795
61342W        W33635  15.793   5.257   0.454
61343W        W33636   7.173  34.974  14.333
61344W        W33637  13.613  35.885   4.245
61345W        W33638   4.860   2.911   0.822
61346W        W33639  26.493  15.779   2.704
61347W        W33640  21.078  15.193  12.966
61348W        W33641   0.282  21.631   0.813
61349W        W33642   5.219  19.145   3.658
61350W        W33643  21.099  41.987   5.110
61351W        W33644  25.050   6.237  12.509
61352W        W33645  14.252   4.403   4.824
61353W        W33646  32.065   1.292  14.422
61354W        W33647  23.094  27.998   1.384
61355W        W33648  13.187  16.273   4.261
61356W        W33649  37.421   0.444   4.736
61357W        W33650   1.465  20.593   2.237
61358W        W33651  41.861  15.258  10.585
61359W        W33652  21.043  14.742   3.212
61360W        W33653  12.640  30.597  13.891
61361W        W33654  38.948   5.231   3.203
61362W        W33655   0.417  11.829  10.458
61363W        W33656  19.155  44.772  12.849
61364W        W33657  12.160   6.901  11.548
61365W        W33658  32.086  12.346   4.646
61366W        W33659  27.124  38.427   3.256
61367W        W33660   7.817  27.001   2.242
61368W        W33661  34.404   6.306   3.343
61369W        W33662  28.186   6.876  10.917
61370W        W33663  19.074  29.117  13.485
61371W        W33664   5.734  26.018  13.331
61372W        W33665  10.802  10.703  11.996
61373W        W33666  23.520  19.586   4.303
61374W        W33667  27.117  19.613   0.451
61375W        W33668  22.216   8.694  14.326
61376W        W33669   1.283  33.565   0.841
61377W        W33670  30.044  17.096   0.801
61378W        W33671  32.397   7.192   3.246
61379W        W33672  43.938   1.355  12.964
61380W        W33673  24.548  44.954   2.388
61381W        W33674  38.822  23.997  10.430
61382W        W33675   4.315   1.474  13.308
61383W        W33676  16.653  39.558  14.809
61384W        W33677  29.644  18.614   4.830
61385W        W33678  18.705   8.290   3.369
61386W        W33679  11.336  28.970   1.891
61387W        W33680   9.327  21.735  10.897
61388W        W33681  25.050  19.586  11.390
61389W        W33682  43.858  39.916  14.796
61390W        W33683  33.547  38.511   3.851
61391W        W33684  16.759  42.882   4.354
61392W        W33685  34.060  25.163   3.861
61393W        W33686  19.094  12.721   3.239
61394W        W33687  24.028  39.904  10.978
61395W        W33688  31.006  21.163  13.791
61396W        W33689  28.607   4.771  12.957
61397W        W33690  25.595  40.048  14.415
61398W        W33691  31.118  33.983   0.367
61399W        W33692  31.609  27.173  11.969
61400W        W33693  31.068  35.379  13.916
61401W        W33694  29.994  21.111  14.489
61402W        W33695  34.063   8.832   4.666
61403W        W33696  14.156   2.472   3.720
61404W        W33697  14.241  22.725  10.626
61405W        W33698   5.209  21.638   4.159
61406W        W33699   9.809  11.239   1.318
61407W        W33700  27.952   2.935  12.521
61408W        W33701  44.781  31.647   0.460
61409W        W33702  11.149  14.811  14.929
61410W        W33703  14.331  25.667   2.837
61411W        W33704  41.008  37.411   4.188
61412W        W33705  16.591  10.334   3.746
61413W        W33706  44.771  42.995   1.399
61414W        W33707  13.833  42.962  14.826
61415W        W33708   8.255  35.575   4.341
61416W        W33709  44.796  26.517  11.862
61417W        W33710  40.821   5.812   1.811
61418W        W33711  42.833  12.776   4.296
61419W        W33712  31.935  22.060   4.206
61420W        W33713  41.992  41.485   2.264
61421W        W33714  44.783  26.656  10.404
61422W        W33715  39.053  16.683   4.200
61423W        W33716  21.116  26.671   2.846
61424W        W33717  25.586   0.775  12.515
61425W        W33718  32.582  37.406   5.128
61426W        W33719  29.548  44.502   9.924
61427W        W33720   9.861  28.950   0.271
61428W        W33721  25.579  35.090  12.907
61429W        W33722   6.833  42.808  12.058
61430W        W33723   2.410  35.903   0.294
61431W        W33724  28.989   6.311   3.820
61432W        W33725   5.842   6.325  14.515
61433W        W33726   7.305  24.037   0.373
61434W        W33727  33.006  35.857  12.446
61435W        W33728  24.698  38.537  13.463
61436W        W33729  18.731   3.775  13.453
61437W        W33730  42.429  26.183  10.966
61438W        W33731   6.797  41.025   2.776
61439W        W33732  38.367  14.779  14.887
61440W        W33733  21.063  26.658   2.235
61441W        W33734   3.923  16.797   4.648
61442W        W33735   1.366   4.844   2.684
61443W        W33736  38.415   3.241   4.328
61444W        W33737  32.886   2.380   4.254
61445W        W33738  41.979  41.525  11.537
61446W        W33739  16.102  29.931  14.876
61447W        W33740  13.182  30.547  14.848
61448W        W33741  11.824  38.519   0.311
61449W        W33742  42.307   1.359   0.881
61450W        W33743  24.046  27.101   4.290
61451W        W33744   5.738  37.364  14.929
61452W        W33745  30.538  12.697  12.879
61453W        W33746   5.397   8.836  13.392
61454W        W33747  33.012  24.157  14.396
61455W        W33748  30.068  26.028  13.916
61456W        W33749  24.184   3.804   2.219
61457W        W33750  23.727  12.161   1.278
61458W        W33751  37.346   9.286   2.767
61459W        W33752  37.019  10.283   1.312
61460W        W33753  33.469  33.451  11.089
61461W        W33754   5.827  36.861   2.901
61462W        W33755   8.285  37.018   0.962
61463W        W33756   0.447   7.351   2.330
61464W        W33757  39.445  20.714  12.546
61465W        W33758  29.156  37.921  11.934
61466W        W33759  11.666   4.220   1.932
61467W        W33760  16.618  18.698  11.371
61468W        W33761  29.944  32.118   2.266
61469W        W33762  32.054  44.956  14.486
61470W        W33763  35.526   7.375   2.781
61471W        W33764  36.014  25.498  13.866
61472W        W33765   5.203  34.408   4.728
61473W        W33766  20.182  19.146  13.040
61474W        W33767   8.292  28.178   0.814
61475W        W33768  33.054  17.301   3.697
61476W        W33769   3.952  21.710  14.370
61477W        W33770  35.033  33.995  10.953
61478W        W33771   5.825  41.919   3.298
61479W        W33772  34.531  23.711  13.491
61480W        W33773  20.683  20.146   4.205
61481W        W33774  10.149   0.769   0.909
61482W        W33775   6.379  18.674   0.789
61483W        W33776   2.866  41.394  13.491
61484W        W33777  22.084   2.841  10.608
61485W        W33778  36.848  26.587   4.693
61486W        W33779   3.838  12.778   2.385
61487W        W33780  36.948  36.078   1.280
61488W        W33781  14.709  34.119   3.722
61489W        W33782  31.905  10.276  14.839
61490W        W33783  43.511   1.323  11.117
61491W        W33784  28.989  21.717  14.469
61492W        W33785   0.486  36.068   4.306
61493W        W33786  24.176  12.779  11.551
61494W        W33787  24.199   4.945   4.697
61495W        W33788   4.942   4.338  13.803
61496W        W33789  17.093  44.987  13.938
61497W        W33790  10.683   3.847  12.408
61498W        W33791  11.737  26.578  13.026
61499W        W33792   2.781  27.664   2.675
61500W        W33793  32.454  10.317  13.422
61501W        W33794  16.285  29.001   4.773
61502W        W33795  38.547  13.761   4.174
61503W        W33796  18.077  19.735   9.978
61504W        W33797  13.112   4.222  11.435
61505W        W33798  28.635  28.519  11.582
61506W        W33799  14.266   1.277  11.571
61507W        W33800  22.240  11.291   1.225
61508W        W33801  44.431  30.573   1.236
61509W        W33802  14.253  20.239   1.389
61510W        W33803  26.699  41.858  11.009
61511W        W33804  27.480  35.462  11.998
61512W        W33805   2.297  35.543   0.342
61513W        W33806  20.179  22.538  12.883
61514W        W33807  43.498  41.449  13.395
61515W        W33808  36.391  21.756  13.046
61516W        W33809  19.242  36.863  12.855
61517W        W33810   2.745  11.261   0.430
61518W        W33811  23.673   2.275   2.671
61519W        W33812  20.073  42.421   4.635
61520W        W33813  32.138  19.640  12.887
61521W        W33814  39.970  26.209   4.246
61522W        W33815  26.618  28.522   4.126
61523W        W33816  33.129  41.524  14.773
61524W        W33817  15.216  35.863   3.694
61525W        W33818  24.724  17.297  13.809
61526W        W33819  27.070  27.529   4.183
61527W        W33820  19.738   7.702   3.753
61528W        W33821  43.797  16.254  11.106
61529W        W33822  25.656  22.678   2.214
61530W        W33823  40.443  10.858  13.471
61531W        W33824  28.570  10.368  13.029
61532W        W33825  39.463   3.796  13.825
61533W        W33826  15.172  19.162  14.024
61534W        W33827  38.058  13.238  11.863
61535W        W33828  37.012  24.197   2.325
61536W        W33829   1.361  19.052  12.996
61537W        W33830  21.077  41.004  13.932
61538W        W33831  33.502  30.118   2.218
61539W        W33832  43.936  19.772   3.697
61540W        W33833  41.930  25.507  11.603
61541W        W33834  37.087   5.326   1.422
61542W        W33835  27.685   9.186   1.434
61543W        W33836   0.487  44.486   4.836
61544W        W33837  30.005  43.878  11.872
61545W        W33838  27.947  21.143  12.362
61546W        W33839  40.461  40.499  12.953
61547W        W33840  43.870  10.201  12.458
61548W        W33841  33.976  11.277   0.792
61549W        W33842  31.482   2.867   4.177
61550W        W33843  43.841  12.144   0.433
61551W        W33844  19.130  21.694   1.923
61552W        W33845  24.141   1.851  12.573
61553W        W33846  14.686   3.907   3.185
61554W        W33847  24.533  29.669  13.325
61555W        W33848  19.580  31.447  10.596
61556W        W33849  27.959  39.450   4.200
61557W        W33850  41.324   0.439   2.330
61558W        W33851  10.751  37.054  10.427
61559W        W33852   1.761  29.075   3.782
61560W        W33853  16.112  15.088  12.341
61561W        W33854  41.435  44.420  11.432
61562W        W33855   8.801   4.260   3.382
61563W        W33856  17.786   3.930  12.446
61564W        W33857  28.159  15.785  10.590
61565W        W33858  33.115   4.842   2.180
61566W        W33859  30.101   6.406   4.723
61567W        W33860  29.146  38.386   0.903
61568W        W33861  17.691   4.853  11.061
61569W        W33862  20.269  20.244  11.102
61570W        W33863  10.382  29.033  10.585
61571W        W33864  28.554  41.521  11.076
61572W        W33865   6.371   6.829  11.856
61573W        W33866  30.498   4.891   1.265
61574W        W33867  35.527  11.312  10.572
61575W        W33868  43.469  33.881  14.812
61576W        W33869  35.385  30.148  14.297
61577W        W33870  12.815  34.086  14.020
61578W        W33871  29.048  14.180   0.457
61579W        W33872  41.847  13.696  12.523
61580W        W33873  20.258  34.587  12.537
61581W        W33874  39.061  41.493  13.002
61582W        W33875  32.976  22.116   2.353
61583W        W33876  35.473  43.847   2.748
61584W        W33877   1.811  25.557  13.863
61585W        W33878   7.363  17.600   4.664
61586W        W33879  14.214   3.818  11.958
61587W        W33880   4.246   3.321   0.430
61588W        W33881  33.117  42.419  10.624
61589W        W33882   7.279   6.350   1.873
61590W        W33883  19.607  23.112   5.158
61591W        W33884  32.045   6.183  12.548
61592W        W33885  31.920   9.753  11.546
61593W        W33886  27.175   9.223   0.295
61594W        W33887   6.863  39.884   1.238
61595W        W33888   8.243  17.653   4.155
61596W        W33889   2.403  30.499  11.041
61597W        W33890  44.835   7.233  14.013
61598W        W33891   5.719  22.076   2.782
61599W        W33892  19.121   0.960  10.952
61600W        W33893  16.228  34.562  12.536
61601W        W33894  22.500  25.706  10.618
61602W        W33895   5.771  32.975   4.709
61603W        W33896  34.880   7.901   4.267
61604W        W33897  20.579   5.861   1.727
61605W        W33898   3.860  25.036  11.886
61606W        W33899   3.769  38.490   0.378
61607W        W33900  36.583  33.480  14.383
61608W        W33901  39.537  19.718   3.240
61609W        W33902  28.551  41.318   1.425
61610W        W33903  23.201  37.886   4.727
61611W        W33904   7.845  20.576  14.338
61612W        W33905  13.783  25.617   1.442
61613W        W33906  35.979  28.149  12.343
61614W        W33907   5.349  28.056   4.624
61615W        W33908  28.931  38.893  12.474
61616W        W33909  14.718  19.763  12.982
61617W        W33910  17.667  19.600   4.796
61618W        W33911   2.779   8.282   3.846
61619W        W33912  30.652   4.269  11.601
61620W        W33913   4.747  43.382   4.660
61621W        W33914  34.573  25.499   4.189
61622W        W33915  29.559  11.326  12.401
61623W        W33916  11.323  43.321   3.371
61624W        W33917   1.770   5.861   4.832
61625W        W33918  12.135  10.218   2.796
61626W        W33919  42.433  32.073  11.557
61627W        W33920  35.093  20.737  11.414
61628W        W33921  29.471  41.323  10.510
61629W        W33922  41.949   5.927   0.397
61630W        W33923  39.052  37.545  10.009
61631W        W33924  42.388  11.334   1.383
61632W        W33925  26.626  32.559   1.439
61633W        W33926  31.408  23.623  11.089
61634W        W33927  14.702  32.125   1.935
61635W        W33928  32.464  26.476   3.269
61636W        W33929   9.304  14.280   2.781
61637W        W33930  26.535  19.680   3.702
61638W        W33931  12.850  36.520  13.983
61639W        W33932   1.353   8.724   1.272
61640W        W33933   2.396   9.886   1.280
61641W        W33934  15.288  25.576   0.767
61642W        W33935   6.412  23.495   1.809
61643W        W33936  13.299  22.179  13.886
61644W        W33937  25.555  16.230  14.391
61645W        W33938  33.422   9.676   1.901
61646W        W33939  10.835  34.094  12.908
61647W        W33940  10.298  38.503   4.731
61648W        W33941  11.359  38.890  14.797
61649W        W33942  43.270  12.251   2.328
61650W        W33943   0.433  16.202  11.898
61651W        W33944  28.642   3.310   3.803
61652W        W33945  40.865  28.931   2.222
61653W        W33946  37.916  16.289  14.863
61654W        W33947   6.368  16.195   0.465
61655W        W33948  43.502   0.964   4.807
61656W        W33949  12.339  39.890  10.414
61657W        W33950  27.080   8.688  13.017
61658W        W33951  16.585  13.180   1.269
61659W        W33952  26.003  20.733   1.239
61660W        W33953  29.554  24.709  14.308
61661W        W33954  36.580  41.423  12.579
61662W        W33955  44.774  33.111  13.892
61663W        W33956  17.770  43.791   1.368
61664W        W33957  18.707   0.354   2.412
61665W        W33958  18.186  28.164  14.515
61666W        W33959  34.120   0.453   2.405
61667W        W33960  21.581  12.665  10.944
61668W        W33961  22.235  25.543  13.506
61669W        W33962  10.289   9.728   3.776
61670W        W33963   3.870  28.468   4.743
61671W        W33964  35.360  23.048   2.718
61672W        W33965  40.862  37.568  14.322
61673W        W33966  23.571  13.344  11.105
61674W        W33967  38.963  20.538  13.821
61675W        W33968  31.573  35.463  14.789
61676W        W33969   7.227  33.443  12.886
61677W        W33970  15.123  16.083   0.466
61678W        W33971  37.933  14.793   3.355
61679W        W33972  40.976  15.130  11.535
61680W        W33973  14.681  37.968  13.010
61681W        W33974  10.758   3.337   2.883
61682W        W33975  26.685  14.129   1.751
61683W        W33976  43.359  19.754   4.161
61684W        W33977  38.873   8.753   1.276
61685W        W33978  20.749  27.481   4.599
61686W        W33979  30.547  21.195  13.468
61687W        W33980   3.946   2.723  10.893
61688W        W33981  28.970  41.868  12.940
61689W        W33982  10.634  23.163  14.948
61690W        W33983   9.273  32.603  13.504
61691W        W33984  42.830  10.251   1.932
61692W        W33985   9.167  30.070  11.908
61693W        W33986  22.239   7.855   0.252
61694W        W33987  13.344  30.419   1.795
61695W        W33988  15.686  40.408  13.501
61696W        W33989  39.524  34.928   1.311
61697W        W33990  35.941  15.645  10.427
61698W        W33991  29.491  30.577  10.936
61699W        W33992  37.971  23.204   1.851
61700W        W33993  23.521  10.704   1.310
61701W        W33994  43.996   5.881   2.734
61702W        W33995  13.730   8.773  13.421
61703W        W33996   0.297  39.956  11.023
61704W        W33997  38.353  33.419  10.536
61705W        W33998   5.337  32.513   0.471
61706W        W33999  41.960  44.392   0.795
61707W        W34000  23.706   7.907   0.265
61708W        W34001   2.812   8.725   0.733
61709W        W34002  32.625  14.320  11.054
61710W        W34003  25.470  24.994   0.829
61711W        W34004  32.444   9.357   0.306
61712W        W34005   9.711  16.758  13.945
61713W        W34006  17.200  42.942  12.023
61714W        W34007  22.173   1.857   4.758
61715W        W34008  26.635  22.006  13.366
61716W        W34009  27.025  15.757   2.207
61717W        W34010   6.421  42.798   4.167
61718W        W34011  42.370  31.476  14.416
61719W        W34012  38.536   9.813  11.409
61720W        W34013  27.071  20.052  13.327
61721W        W34014  44.473  32.453   2.780
61722W        W34015  32.481  42.413  12.384
61723W        W34016   4.866  29.018  13.497
61724W        W34017  42.428   1.871   4.332
61725W        W34018  20.743   9.304   1.342
61726W        W34019  12.228  43.826   1.440
61727W        W34020  37.959  11.210  13.430
61728W        W34021  12.177  20.699   2.242
61729W        W34022  33.401  11.172   5.112
61730W        W34023  40.876  24.606   1.402
61731W        W34024   1.757   1.735  14.366
61732W        W34025   8.694  23.678   3.209
61733W        W34026  41.373  15.100   1.214
61734W        W34027  26.683  42.781  12.441
61735W        W34028  10.179   6.799  12.384
61736W        W34029  28.020  37.567  10.589
61737W        W34030  33.500   3.417  11.058
61738W        W34031  42.317  42.502   5.566
61739W        W34032  31.432   7.372  10.441
61740W        W34033  33.067  14.220   1.922
61741W        W34034  42.425   1.838   3.799
61742W        W34035   5.819  17.791  12.896
61743W        W34036  39.871  15.674   0.356
61744W        W34037  37.832  41.494   2.212
61745W        W34038   5.363  28.508  10.618
61746W        W34039  38.372   3.229   0.891
61747W        W34040  35.587  24.707  11.036
61748W        W34041  22.573  43.824   2.839
61749W        W34042  35.404  28.494   2.766
61750W        W34043  34.437  31.495   2.388
61751W        W34044  11.748  31.543  11.030
61752W        W34045  19.553  43.389   3.377
61753W        W34046  33.493  27.020  13.456
61754W        W34047  36.932  41.823  11.010
61755W        W34048  28.030   9.754   4.156
61756W        W34049   7.184  30.040  14.859
61757W        W34050  20.246  24.087   1.755
61758W        W34051   0.256  43.289  11.004
61759W        W34052   7.305  36.077   3.766
61760W        W34053  41.334  38.864  14.905
61761W        W34054  40.415  12.704  13.815
61762W        W34055  10.687  14.114  14.846
61763W        W34056  11.290  25.513  13.991
61764W        W34057  35.412  31.434   0.358
61765W        W34058  16.661  37.450  10.969
61766W        W34059   9.851  30.912   1.368
61767W        W34060  32.599  17.572  10.911
61768W        W34061   9.149  30.975  11.425
61769W        W34062  32.991   5.376   1.710
61770W        W34063  14.255  16.715   3.663
61771W        W34064  33.897   4.900  14.314
61772W        W34065  30.000   0.844   2.383
61773W        W34066  28.180   7.845  11.079
61774W        W34067  36.349  39.051  14.468
61775W        W34068   3.412  11.232   1.729
61776W        W34069  32.143  11.779  14.952
61777W        W34070  43.413  34.985  10.902
61778W        W34071  18.262  41.480  11.559
61779W        W34072  31.561  44.390  13.885
61780W        W34073  39.342  39.821   2.741
61781W        W34074  20.154  37.917  11.986
61782W        W34075  16.164  20.610   3.647
61783W        W34076  31.403  34.031  12.072
61784W        W34077  36.413  38.823  11.521
61785W        W34078   3.934  17.673  13.484
61786W        W34079  11.789  15.601  13.414
61787W        W34080  42.389  34.599   4.630
61788W        W34081  17.639  25.624  11.951
61789W        W34082  23.231  21.173   4.243
61790W        W34083  12.359  41.891   0.942
61791W        W34084  23.206   3.361  13.970
61792W        W34085   1.327  39.332   4.239
61793W        W34086  36.538  22.503  12.857
61794W        W34087  27.539  36.893  11.373
61795W        W34088  34.939  15.589  13.960
61796W        W34089  17.580  39.891  13.507
61797W        W34090  29.471  42.352  11.489
61798W        W34091   3.765  17.302  14.304
61799W        W34092  33.553   8.826  12.078
61800W        W34093   1.812   4.210  10.464
61801W        W34094  16.640  40.351   3.809
61802W        W34095  33.509   0.851  11.558
61803W        W34096  10.771  26.166   1.814
61804W        W34097  39.058   4.772   2.363
61805W        W34098  25.549  42.994   5.176
61806W        W34099  34.598   8.797  10.560
61807W        W34100  26.671  44.821  13.939
61808W        W34101  27.998  40.432   1.251
61809W        W34102  38.985  17.152   0.747
61810W        W34103   6.801  11.245  10.455
61811W        W34104   2.364  12.321  11.910
61812W        W34105  21.657  32.128  11.474
61813W        W34106  34.063  32.926   4.142
61814W        W34107  31.940   8.702   4.240
61815W        W34108  39.348  32.027   2.291
61816W        W34109  41.933  28.440  11.000
61817W        W34110   1.820  38.920   4.803
61818W        W34111   4.306  26.635   4.777
61819W        W34112  17.568  39.978   4.802
61820W        W34113  28.081   5.860   2.670
61821W        W34114   0.329  21.222   2.251
61822W        W34115   5.351  21.654  13.878
61823W        W34116  42.492   2.381   1.704
61824W        W34117  15.621  11.678  10.446
61825W        W34118  30.571  41.424  13.451
61826W        W34119   9.753  20.564   1.925
61827W        W34120  35.914  12.200  14.939
61828W        W34121  13.759  42.790   5.204
61829W        W34122  19.185  22.533   2.228
61830W        W34123   8.657  24.177  13.446
61831W        W34124   4.222  24.084   4.760
61832W        W34125  32.433   0.321   9.922
61833W        W34126  22.569   4.936  13.420
61834W        W34127  36.022  16.114   2.885
61835W        W34128  15.683  22.737   5.109
61836W        W34129  23.012  18.206   3.752
61837W        W34130  11.245   1.749  12.086
61838W        W34131  27.964  10.860  11.476
61839W        W34132  25.069  21.062  14.304
61840W        W34133  19.233  13.339   2.776
61841W        W34134  23.686  35.006  12.845
61842W        W34135  33.995   7.239  13.387
61843W        W34136  15.822   6.747   4.259
61844W        W34137   4.902  17.671  12.356
61845W        W34138   7.252  36.027  14.488
61846W        W34139  13.172  10.633   2.666
61847W        W34140  12.214  30.470  10.475
61848W        W34141  31.618  19.704  13.030
61849W        W34142  34.527  23.112   4.276
61850W        W34143  28.445  34.568   3.278
61851W        W34144  35.384   3.795   1.813
61852W        W34145  19.748  36.882   2.842
61853W        W34146   5.819  33.559   0.890
61854W        W34147   4.275  11.638  13.053
61855W        W34148  20.083  22.098   4.355
61856W        W34149  43.361  20.699  10.576
61857W        W34150   0.957  20.271   1.339
61858W        W34151  37.568  27.194   2.408
61859W        W34152  26.563  43.952  12.851
61860W        W34153  40.328  23.611   1.268
61861W        W34154  34.536  39.813  10.913
61862W        W34155  10.718  23.138   4.685
61863W        W34156  28.177  24.063   9.471
61864W        W34157  42.896   7.390  12.043
61865W        W34158  42.347  18.776  11.496
61866W        W34159  37.883  23.590  13.325
61867W        W34160   0.981   3.361  13.007
61868W        W34161  42.011   4.388   3.170
61869W        W34162  21.726  42.991  12.340
61870W        W34163  12.330  38.991   3.281
61871W        W34164  29.524  13.688   2.765
61872W        W34165   8.797  42.800  12.905
61873W        W34166  16.606   9.734  13.535
61874W        W34167  33.488  11.641   1.711
61875W        W34168  34.564  34.427  11.537
61876W        W34169  44.431  40.403   1.739
61877W        W34170  36.056   9.686   0.929
61878W        W34171  31.411  44.852   4.332
61879W        W34172  30.033  20.129  13.365
61880W        W34173  38.469   4.708   2.852
61881W        W34174   3.237  40.917   3.359
61882W        W34175  13.306  19.595   4.196
61883W        W34176  11.248  19.247   4.311
61884W        W34177   3.726  37.408  13.472
61885W        W34178  37.925  42.491   2.754
61886W        W34179  25.486  32.461  11.921
61887W        W34180  42.377  35.927   2.771
61888W        W34181  17.070  43.385   0.906
61889W        W34182  30.511  40.338  12.471
61890W        W34183  39.475  16.145   1.913
61891W        W34184  24.977  18.746   1.244
61892W        W34185  40.381   7.238  13.330
61893W        W34186  39.997  38.933   1.255
61894W        W34187  31.495  40.986  13.045
61895W        W34188   8.190  28.156  11.383
61896W        W34189  41.020  23.001   4.614
61897W        W34190  37.556  28.570   3.776
61898W        W34191  26.502  30.447  12.376
61899W        W34192  18.756  41.824  12.871
61900W        W34193   8.216  16.571  12.939
61901W        W34194   5.307  44.451  11.376
61902W        W34195  23.226  21.640  14.365
61903W        W34196  27.101   8.732   3.280
61904W        W34197  37.468  44.415  10.627
61905W        W34198  40.843  14.211   4.313
61906W        W34199   8.780  25.076  14.365
61907W        W34200  36.875  28.978  11.577
61908W        W34201  18.700   8.747   0.938
61909W        W34202  21.636  20.741  11.867
61910W        W34203  40.404  29.598   1.754
61911W        W34204  30.439   2.743  14.839
61912W        W34205  14.242  14.219   2.683
61913W        W34206   9.323  18.592   2.231
61914W        W34207  28.530  28.445   0.841
61915W        W34208   0.983   7.833  10.936
61916W        W34209   0.973   1.851   5.159
61917W        W34210  43.480  14.313  10.969
61918W        W34211  25.077  10.736   3.760
61919W        W34212  17.794   6.833   3.328
61920W        W34213   5.803  40.922   1.360
61921W        W34214  17.588  32.965  14.504
61922W        W34215   8.349   8.370   3.363
61923W        W34216   9.872  29.521  14.767
61924W        W34217  22.240   6.738  11.508
61925W        W34218   6.686  27.106   4.300
61926W        W34219   9.203  40.989   4.773
61927W        W34220  43.290  35.556   3.366
61928W        W34221  20.695  42.513  11.907
61929W        W34222  43.792  28.564  11.980
61930W        W34223  10.141   2.234   4.134
61931W        W34224  12.151  27.568   3.238
61932W        W34225  20.252  30.574  12.445
61933W        W34226   4.883  11.842   3.189
61934W        W34227  44.463  22.102  14.406
61935W        W34228  39.427  37.567  13.312
61936W        W34229  19.728  15.584  13.027
61937W        W34230  37.082  13.109   0.374
61938W        W34231  39.326   8.336  13.027
61939W        W34232  30.908  26.604   0.937
61940W        W34233  11.838  40.406   2.258
61941W        W34234  33.043   9.380  14.307
61942W        W34235  33.494  23.697  13.922
61943W        W34236  18.073   3.725  12.846
61944W        W34237  29.590  27.499  12.062
61945W        W34238  20.274  13.604   3.257
61946W        W34239  25.984  35.050   3.680
61947W        W34240  12.749  41.828   0.326
61948W        W34241  24.614  20.047   0.453
61949W        W34242  18.127  33.576   9.463
61950W        W34243  41.019  28.949  10.519
61951W        W34244   1.943  16.295  12.467
61952W        W34245  31.598   8.759  13.443
61953W        W34246  44.294   6.891   2.703
61954W        W34247   3.767   8.287  13.827
61955W        W34248  40.380   8.309  14.336
61956W        W34249  35.977  31.116  11.611
61957W        W34250  10.226   1.892   1.313
61958W        W34251  22.518  39.515  13.876
61959W        W34252  39.377  29.139  13.503
61960W        W34253   7.873   3.362   0.748
61961W        W34254   2.816  19.689  10.440
61962W        W34255  41.393  16.307  11.376
61963W        W34256  19.555  12.757  11.906
61964W        W34257   4.831  22.144  12.013
61965W        W34258  37.024  19.702   5.144
61966W        W34259  24.106   7.791   1.270
61967W        W34260  22.243  43.397   4.619
61968W        W34261  11.717  28.065  14.470
61969W        W34262  25.992  22.561   1.816
61970W        W34263   1.311  15.116  10.551
61971W        W34264   5.346   6.900   4.647
61972W        W34265  26.565  43.494  12.551
61973W        W34266  26.130  35.468   3.821
61974W        W34267   0.446  36.005   5.756
61975W        W34268  42.882  30.522   3.685
61976W        W34269   9.851  24.193  10.991
61977W        W34270  18.195   9.878   0.782
61978W        W34271  43.785  14.739   4.767
61979W        W34272  23.162  17.129   2.677
61980W        W34273  28.504  38.413   2.261
61981W        W34274  43.431  15.238  11.972
61982W        W34275  35.074  18.090  12.483
61983W        W34276   8.276  31.133   3.324
61984W        W34277  20.729  22.579  13.936
61985W        W34278   9.171  12.834   9.920
61986W        W34279  25.495  30.104   2.856
61987W        W34280  32.886  21.235   0.243
61988W        W34281  13.329   9.793  13.344
61989W        W34282  21.130   3.299  11.603
61990W        W34283  13.796  27.056   3.855
61991W        W34284   1.285   9.269  13.950
61992W        W34285  23.165   5.859  14.841
61993W        W34286   8.715   5.691   3.184
61994W        W34287  25.673  13.705  10.429
61995W        W34288   3.349  42.427   1.325
61996W        W34289  11.832   9.361  11.512
61997W        W34290  24.017  19.229  12.498
61998W        W34291  26.173  31.605  10.459
61999W        W34292  41.512   4.945   3.237
62000W        W34293  17.199  12.278   3.330
62001W        W34294  32.992  42.825   2.818
62002W        W34295  40.802  41.860   3.259
62003W        W34296  24.014  41.009   2.749
62004W        W34297  28.032  33.405   0.264
62005W        W34298  43.002  40.968  13.500
62006W        W34299  33.510  11.192   2.415
62007W        W34300  43.296   2.435   1.349
62008W        W34301  40.026  11.223   1.750
62009W        W34302  36.375   2.804  12.843
62010W        W34303  33.969  24.125  11.970
62011W        W34304  17.594   1.843  14.981
62012W        W34305  31.142  26.583  13.937
62013W        W34306  20.710  18.252   1.225
62014W        W34307  38.074   0.803   0.952
62015W        W34308  33.599  40.965  10.596
62016W        W34309  37.545  11.149   2.748
62017W        W34310  30.067   0.867   3.204
62018W        W34311  35.556  21.571  12.389
62019W        W34312  33.463  25.039   4.226
62020W        W34313  42.905  34.959  14.429
62021W        W34314   3.886  25.690  11.060
62022W        W34315  25.996   2.230  12.047
62023W        W34316  25.562  34.396  13.432
62024W        W34317  14.267  38.487  13.400
62025W        W34318  40.322  16.633   4.253
62026W        W34319  28.070   8.348   2.669
62027W        W34320  32.034  40.448  14.438
62028W        W34321  20.663  40.328   4.319
62029W        W34322  18.721  14.785   0.841
62030W        W34323   6.894   6.699   0.887
62031W        W34324  16.676  23.606   0.412
62032W        W34325  31.122   5.877   1.755
62033W        W34326   7.300   0.792   2.210
62034W        W34327  18.614  23.087  11.445
62035W        W34328  44.260  32.938   9.975
62036W        W34329  18.138   7.367  11.019
62037W        W34330  29.977   0.251   2.882
62038W        W34331   8.255  37.950   4.709
62039W        W34332  13.765  11.164  14.766
62040W        W34333  33.021  24.070   4.817
62041W        W34334  28.094  39.914  14.403
62042W        W34335  31.580  36.972  12.925
62043W        W34336  15.247   3.297   1.439
62044W        W34337  11.712  43.862  13.886
62045W        W34338  35.460  33.031   2.713
62046W        W34339   2.234   2.299  12.561
62047W        W34340  35.367   5.782  13.515
62048W        W34341  22.167  18.772   4.277
62049W        W34342  43.426  23.129  11.059
62050W        W34343  15.212  38.975   3.289
62051W        W34344  28.101  43.770  12.868
62052W        W34345   6.905  12.689  14.966
62053W        W34346  15.105  24.590   2.268
62054W        W34347  16.224  40.930  13.346
62055W        W34348   3.458  24.982  12.947
62056W        W34349  41.371   6.279  13.398
62057W        W34350  19.764  43.392  14.500
62058W        W34351  22.550  36.075   1.360
62059W        W34352   9.769  44.951   2.764
62060W        W34353   2.332  35.863  12.072
62061W        W34354   5.717   9.651   1.927
62062W        W34355  38.875  28.936   4.744
62063W        W34356   4.911  42.919   3.160
62064W        W34357  39.356  11.213   2.705
62065W        W34358  10.147  17.630   1.863
62066W        W34359  26.702  21.688  13.307
62067W        W34360  21.596   1.465  13.508
62068W        W34361  25.580  13.342  12.917
62069W        W34362  17.736  11.179  13.831
62070W        W34363  41.533   6.909  14.992
62071W        W34364   1.740   7.285  11.915
62072W        W34365  13.132   2.395   1.256
62073W        W34366  36.024   2.832   3.176
62074W        W34367  16.233  24.126  14.021
62075W        W34368  37.039  29.496   1.726
62076W        W34369   7.289  37.455  10.447
62077W        W34370  15.149  40.514   3.703
62078W        W34371  25.606  31.518   2.871
62079W        W34372  37.494  24.486   4.797
62080W        W34373   9.255  41.816  14.456
62081W        W34374  41.833  23.658   0.962
62082W        W34375   8.729  13.335   3.149
62083W        W34376  34.017  38.821   2.812
62084W        W34377  24.990  27.514   3.361
62085W        W34378  14.187  29.441   5.156
62086W        W34379  13.823  38.819   1.262
62087W        W34380  43.465  29.045  11.439
62088W        W34381  15.652  36.069   5.216
62089W        W34382  29.125   6.731  11.067
62090W        W34383   1.346  38.883  14.883
62091W        W34384  38.852  33.419   4.353
62092W        W34385  42.332  20.230   0.893
62093W        W34386  36.591   8.164   2.302
62094W        W34387  42.023   4.925  10.110
62095W        W34388  18.644  33.980   4.787
62096W        W34389  41.988  19.077   3.721
62097W        W34390  27.189   2.452  13.312
62098W        W34391  32.112   1.243   2.253
62099W        W34392  10.662  43.939   4.682
62100W        W34393  34.396  26.129   2.773
62101W        W34394   6.320  26.029   0.788
62102W        W34395  44.447   5.833  13.031
62103W        W34396  29.539  18.163   4.119
62104W        W34397   6.242   1.932   0.739
62105W        W34398  13.345  40.488  14.017
62106W        W34399  31.507   1.375  11.925
62107W        W34400  27.051  34.005  11.995
62108W        W34401  11.218  20.163   4.150
62109W        W34402   1.848  15.252   0.905
62110W        W34403   4.355  15.815  10.431
62111W        W34404  18.149  38.444   2.893
62112W        W34405  19.201  20.704   9.575
62113W        W34406  27.167  21.694   2.303
62114W        W34407   6.907  15.146  11.119
62115W        W34408  16.783  32.959  12.016
62116W        W34409  38.418  36.369  12.878
62117W        W34410  29.599  28.943   1.318
62118W        W34411  37.027  25.526   0.348
62119W        W34412   4.427   9.355   2.758
62120W        W34413   1.466  10.810  14.009
62121W        W34414   9.661  25.670  11.499
62122W        W34415  33.433  31.044  11.444
62123W        W34416   1.448  19.555  12.012
62124W        W34417  29.598  40.320   2.249
62125W        W34418  16.605   0.339   4.352
62126W        W34419  18.694  18.606   1.737
62127W        W34420  26.071  18.790  10.490
62128W        W34421   9.166  30.432   4.698
62129W        W34422  23.219  24.570   3.229
62130W        W34423  36.085  25.177   1.719
62131W        W34424   5.218  43.827  12.455
62132W        W34425  13.760  34.920  14.918
62133W        W34426  11.739  20.707   4.796
62134W        W34427   9.848  44.440  11.991
62135W        W34428  39.017  19.114   0.964
62136W        W34429  42.470  21.716  13.342
62137W        W34430  35.085  32.013   5.265
62138W        W34431   4.378  38.512  10.463
62139W        W34432  24.644  41.021   0.474
62140W        W34433  34.541  41.955   1.397
62141W        W34434  29.636  43.497   4.140
62142W        W34435  21.226  36.589  14.929
62143W        W34436  43.883  23.032   4.718
62144W        W34437   5.341   4.263  12.904
62145W        W34438  33.876  42.985   9.967
62146W        W34439  16.274   6.365  12.353
62147W        W34440   0.258  24.487   2.239
62148W        W34441  15.160   0.978  13.893
62149W        W34442  28.452  32.538   4.348
62150W        W34443  41.874   4.383  12.499
62151W        W34444  24.184  10.379   2.774
62152W        W34445  27.014  16.244   0.477
62153W        W34446  12.119  26.489   3.315
62154W        W34447  22.654  11.742   3.194
62155W        W34448  21.633  34.886   9.965
62156W        W34449   9.175  26.093  13.057
62157W        W34450  17.649  19.630  10.606
62158W        W34451   2.421   0.903   2.250
62159W        W34452  24.712   0.948  12.081
62160W        W34453   2.341  35.869  14.818
62161W        W34454  12.635  24.005  10.507
62162W        W34455  20.737  32.109  13.307
62163W        W34456  13.116   0.288  13.338
62164W        W34457  39.835  28.090   1.323
62165W        W34458  21.173   5.417  12.361
62166W        W34459  22.120  19.547  13.355
62167W        W34460  35.603   1.797  11.989
62168W        W34461  30.100   3.342   0.948
62169W        W34462  20.215   0.378  10.436
62170W        W34463  44.760  39.324  14.447
62171W        W34464  38.926  25.675   0.287
62172W        W34465  35.989  21.093   3.380
62173W        W34466   6.384  14.333   0.808
62174W        W34467  19.594  38.920  11.018
62175W        W34468  35.556  13.295  10.889
62176W        W34469   5.707  41.840  13.308
62177W        W34470  26.652   0.889  14.002
62178W        W34471  25.020  13.288   0.463
62179W        W34472  12.235  33.412  14.793
62180W        W34473  20.125   6.418   4.132
62181W        W34474  35.584  23.651  12.359
62182W        W34475  35.924  21.586   4.746
62183W        W34476  20.050  15.254  10.961
62184W        W34477  25.021  16.207  14.025
62185W        W34478  32.620  18.126  14.364
62186W        W34479  16.165   6.829  14.869
62187W        W34480  16.698   5.263  11.456
62188W        W34481   8.223  23.685  13.850
62189W        W34482   3.428  42.885  10.591
62190W        W34483   5.806   4.391   4.661
62191W        W34484  28.565  33.016   1.412
62192W        W34485   2.283  27.156   0.396
62193W        W34486   5.209  20.123  11.438
62194W        W34487  39.926  13.143  12.520
62195W        W34488  42.304   9.732  12.024
62196W        W34489  22.088  12.155   3.272
62197W        W34490  16.298  37.453   4.219
62198W        W34491  41.798  26.057  13.457
62199W        W34492  14.234  13.161   0.881
62200W        W34493  35.593  23.543   4.304
62201W        W34494  42.344  40.313   2.666
62202W        W34495  22.566  41.516   0.889
62203W        W34496  33.580   7.411   2.662
62204W        W34497   8.177  38.345   3.653
62205W        W34498  23.564  33.922   3.867
62206W        W34499  32.461  26.557  11.472
62207W        W34500   5.821  41.933   1.835
62208W        W34501  39.523  20.576   2.799
62209W        W34502  30.586  29.602  14.369
62210W        W34503  38.919  24.168  11.530
62211W        W34504  11.686  19.198   0.251
62212W        W34505  39.879  34.094  11.442
62213W        W34506  36.864   9.150   3.264
62214W        W34507   9.367  41.498   3.286
62215W        W34508   8.245   7.904   2.730
62216W        W34509  18.657   6.815   3.667
62217W        W34510  20.256   1.735  14.908
62218W        W34511   0.485  14.111   0.359
62219W        W34512   5.403  39.943  14.330
62220W        W34513  17.721  34.370  12.829
62221W        W34514  43.439   4.427  14.899
62222W        W34515  27.073  24.107  11.408
62223W        W34516  16.177  15.763  11.099
62224W        W34517  10.144  32.969  13.895
62225W        W34518  15.744  12.713  10.041
62226W        W34519  34.434   6.192  12.978
62227W        W34520  32.066  14.700  11.467
62228W        W34521   9.653  26.986  12.974
62229W        W34522   6.386  42.787  14.992
62230W        W34523  23.995  32.113   1.257
62231W        W34524   9.723  27.941   0.393
62232W        W34525  21.757   2.320  14.903
62233W        W34526   3.908  26.127   1.906
62234W        W34527  13.305  29.443  12.387
62235W        W34528  25.615  44.863  14.380
62236W        W34529  37.480  24.051   4.160
62237W        W34530  17.674  18.076  11.580
62238W        W34531   8.895   8.823  12.917
62239W        W34532  18.050  30.055  13.475
62240W        W34533  36.402   3.802  14.358
62241W        W34534   2.839  27.654  13.970
62242W        W34535  36.870  31.465  12.552
62243W        W34536   9.842  38.444   2.356
62244W        W34537   4.744  36.033  11.613
62245W        W34538   4.233  44.757  12.071
62246W        W34539  13.816  19.550  10.957
62247W        W34540  42.937   8.161   3.361
62248W        W34541   9.211  17.068  10.075
62249W        W34542   1.905  25.164   2.369
62250W        W34543  24.666  25.643   2.712
62251W        W34544   0.292   1.798  13.528
62252W        W34545  13.645  26.066   1.344
62253W        W34546  14.802  22.624   4.798
62254W        W34547  21.081   3.817   1.859
62255W        W34548  39.358  42.810   2.360
62256W        W34549  36.096  27.489  13.335
62257W        W34550  13.742  16.192  13.828
62258W        W34551  41.366  35.074  12.940
62259W        W34552   2.471  11.756  10.011
62260W        W34553  28.137   9.782   3.356
62261W        W34554  20.167   6.350  10.645
62262W        W34555  24.615  42.311  11.000
62263W        W34556  12.787  21.174   4.119
62264W        W34557  12.829  41.922  10.955
62265W        W34558  37.517  23.590   2.407
62266W        W34559  25.658  43.274  13.389
62267W        W34560  39.367   9.210   1.793
62268W        W34561  19.057  42.498   2.682
62269W        W34562  41.458   3.764  11.502
62270W        W34563  10.666  20.064   4.776
62271W        W34564  15.604   2.343   2.814
62272W        W34565  44.416  20.652   1.830
62273W        W34566  42.850  40.977   4.271
62274W        W34567  35.544  21.597  10.597
62275W        W34568  43.282  25.207  10.551
62276W        W34569   6.724  42.910  11.116
62277W        W34570  12.178  15.787  11.913
62278W        W34571   0.324  25.189   3.385
62279W        W34572  37.530  20.140   0.825
62280W        W34573   9.161  39.449   1.727
62281W        W34574  22.014   6.885   2.803
62282W        W34575  38.552  39.010  13.023
62283W        W34576  22.500   7.840  13.922
62284W        W34577  20.110  34.430   4.721
62285W        W34578  44.849  42.334   4.711
62286W        W34579  38.480   8.287  14.983
62287W        W34580  10.689  32.580   1.338
62288W        W34581  43.418   8.185   4.805
62289W        W34582  25.079  12.645  12.884
62290W        W34583   3.886   2.243   4.835
62291W        W34584   1.441   3.403   2.371
62292W        W34585  32.972  34.060  12.456
62293W        W34586  33.505  37.956   0.787
62294W        W34587  26.561  10.723  13.898
62295W        W34588  34.984  25.038  10.994
62296W        W34589  41.332   0.854  10.096
62297W        W34590  43.900  14.695  11.115
62298W        W34591  10.768   9.828   2.276
62299W        W34592  10.380   8.877   2.761
62300W        W34593   4.314  16.248  14.476
62301W        W34594   2.858  40.420   0.433
62302W        W34595  42.829  42.380  10.923
62303W        W34596  41.908  43.314   5.150
62304W        W34597   7.829   2.409  11.457
62305W        W34598  26.050  39.878  12.526
62306W        W34599  35.897   6.365   2.871
62307W        W34600  27.642   0.929   1.796
62308W        W34601  25.578  16.776   0.938
62309W        W34602   6.347   6.347   5.319
62310W        W34603   8.371   8.285  14.848
62311W        W34604  15.636   1.740  12.433
62312W        W34605  40.365  31.089  13.907
62313W        W34606   2.355  16.233   0.395
62314W        W34607  44.400  13.141   1.813
62315W        W34608  29.064  42.472   2.296
62316W        W34609  23.643  42.964  10.561
62317W        W34610  27.997  15.806   5.318
62318W        W34611  40.369  20.678   0.298
62319W        W34612  21.659   6.378   1.245
62320W        W34613   3.298  24.136  10.625
62321W        W34614  31.955   0.320   0.264
62322W        W34615  15.770   7.670   0.286
62323W        W34616  32.399  19.106  13.922
62324W        W34617  33.516  17.152  11.042
62325W        W34618  32.993   0.261   3.805
62326W        W34619  14.603  35.381  10.579
62327W        W34620  22.227  12.244  11.396
62328W        W34621  26.024  40.327   2.829
62329W        W34622  41.787  42.957  11.383
62330W        W34623  22.094  27.616  13.309
62331W        W34624   2.269   6.265  14.398
62332W        W34625  38.937  25.065  14.452
62333W        W34626  44.947  13.689   2.269
62334W        W34627  39.430  42.435   1.748
62335W        W34628  31.495  29.608  10.911
62336W        W34629  44.851   5.329   1.800
62337W        W34630  17.600  17.796  12.830
62338W        W34631  29.537  30.023  11.507
62339W        W34632  20.233  10.822  10.423
62340W        W34633   1.817  43.832  13.324
62341W        W34634  11.346  29.515  12.378
62342W        W34635   9.190  23.688  13.353
62343W        W34636  25.581  30.006  14.782
62344W        W34637  28.531  16.738   0.242
62345W        W34638  28.031  42.319   3.781
62346W        W34639   3.937   9.755  12.096
62347W        W34640  34.071  32.498  11.537
62348W        W34641  33.082  32.496  12.040
62349W        W34642  40.806  21.044  11.429
62350W        W34643  22.595  23.542  14.953
62351W        W34644  40.932  34.573   0.254
62352W        W34645  10.206  18.200  10.518
62353W        W34646  18.164  32.113   1.316
62354W        W34647  18.087  16.687   0.408
62355W        W34648  13.702  28.647  10.950
62356W        W34649  12.206  32.478  12.513
62357W        W34650  22.625  18.227  10.605
62358W        W34651  12.271  20.650  11.975
62359W        W34652  31.427  34.084   3.870
62360W        W34653  36.902   4.224  11.073
62361W        W34654  11.721   4.262   4.150
62362W        W34655  25.614  42.312  14.763
62363W        W34656  20.242  31.939  13.873
62364W        W34657  13.687   2.314   2.409
62365W        W34658  22.627  26.114   0.471
62366W        W34659  16.589  37.522   0.335
62367W        W34660  24.198  12.646  14.857
62368W        W34661  44.924  24.637   4.757
62369W        W34662   6.308  27.056  12.087
62370W        W34663   7.907  33.961  10.589
62371W        W34664  11.311  37.376  10.115
62372W        W34665  24.108  23.553  11.607
62373W        W34666   0.891  44.877   0.880
62374W        W34667  18.144  24.146   2.880
62375W        W34668  31.494  23.139  13.830
62376W        W34669  43.894   8.868   2.677
62377W        W34670   7.216  31.008  14.856
62378W        W34671  14.795  34.981  13.356
62379W        W34672   1.278  31.648  11.953
62380W        W34673  31.629  26.968  14.867
62381W        W34674  36.954  11.267   4.183
62382W        W34675   2.372  25.693   4.205
62383W        W34676   6.304  39.360   3.854
62384W        W34677  26.036   3.345   2.773
62385W        W34678  44.932  22.729   2.818
62386W        W34679  20.193   4.937   2.379
62387W        W34680  24.532  11.735   1.931
62388W        W34681   7.744  32.583  13.064
62389W        W34682  12.813  27.457   3.690
62390W        W34683  27.605  12.716  14.476
62391W        W34684   5.196  26.116  14.891
62392W        W34685  10.244  12.187  10.611
62393W        W34686   1.405  41.803  10.988
62394W        W34687  35.486  44.962  12.869
62395W        W34688  23.200  16.612  11.891
62396W        W34689  33.394   1.845  14.851
62397W        W34690  21.544  22.707  10.069
62398W        W34691  31.453   8.243  12.535
62399W        W34692  44.373  40.366  14.766
62400W        W34693  24.051   6.380   2.313
62401W        W34694  14.194  40.469  13.533
62402W        W34695   0.850  29.956   2.409
62403W        W34696  33.962  39.809   0.834
62404W        W34697  42.437   6.722   3.161
62405W        W34698  40.481   2.271  11.999
62406W        W34699  25.504  34.097   0.474
62407W        W34700  15.720  41.001  12.485
62408W        W34701  27.190   9.199   0.839
62409W        W34702  15.085  29.046  14.892
62410W        W34703  26.684  38.570  10.549
62411W        W34704   5.743   4.367  10.492
62412W        W34705  11.689   8.661  14.390
62413W        W34706   3.350  24.993   3.170
62414W        W34707   5.688  30.002   1.767
62415W        W34708  41.024  34.574  12.869
62416W        W34709  37.992  28.588   4.215
62417W        W34710  14.658  42.916   4.289
62418W        W34711  12.639  17.691   0.378
62419W        W34712   0.802  33.599  13.947
62420W        W34713  27.628  41.897  13.340
62421W        W34714  21.149  18.731   3.664
62422W        W34715  22.038  35.548   0.416
62423W        W34716  18.763  25.474   4.175
62424W        W34717   4.299   2.811   0.886
62425W        W34718  24.558  44.283   0.424
62426W        W34719   4.450  41.993  12.854
62427W        W34720  39.006  30.951   2.866
62428W        W34721  43.826   6.726  13.353
62429W        W34722  39.059  16.087  14.482
62430W        W34723  41.365  18.059  10.509
62431W        W34724  27.093  37.934  12.827
62432W        W34725  44.878  38.451  11.596
62433W        W34726   1.741  40.444  12.406
62434W        W34727  26.693  36.403  11.612
62435W        W34728   8.893  30.461  11.117
62436W        W34729  32.407  24.604   2.769
62437W        W34730  24.010  44.483   1.413
62438W        W34731  23.034  31.968  14.395
62439W        W34732  23.705   0.438  14.354
62440W        W34733  44.942   0.417   4.188
62441W        W34734  28.499  29.660  13.342
62442W        W34735  44.394  34.890  12.971
62443W        W34736  25.568   7.197  10.553
62444W        W34737  41.534  34.615  14.025
62445W        W34738  15.651   3.729   4.823
62446W        W34739  14.622  39.981   2.265
62447W        W34740  13.642  28.575  12.530
62448W        W34741  16.576  15.802   2.881
62449W        W34742  14.193   1.357   4.683
62450W        W34743  33.496  41.338  14.023
62451W        W34744  41.474  19.629  11.481
62452W        W34745   5.815  27.179  13.819
62453W        W34746  29.670  17.287  12.501
62454W        W34747  38.981  36.921   4.146
62455W        W34748   4.897  31.421  12.059
62456W        W34749  37.897  43.426   0.774
62457W        W34750  28.522  15.185   4.123
62458W        W34751   2.859  34.049  13.379
62459W        W34752  38.454   6.786   4.268
62460W        W34753  23.647  12.217   3.223
62461W        W34754  12.138  44.498  14.946
62462W        W34755  43.393  20.613  14.933
62463W        W34756  11.189  12.338   0.958
62464W        W34757  44.927  43.980   0.935
62465W        W34758  24.699  31.448  14.991
62466W        W34759  33.124  37.851   0.429
62467W        W34760   9.280   1.820   2.732
62468W        W34761  15.123  44.313  10.485
62469W        W34762   9.352  17.642  14.766
62470W        W34763  18.603  28.026   3.806
62471W        W34764  15.315  21.030   0.350
62472W        W34765  11.706  13.694  10.502
62473W        W34766  21.727   3.269  12.403
62474W        W34767  33.972  39.438  14.421
62475W        W34768  24.105   8.821   9.936
62476W        W34769  13.665   5.924  12.908
62477W        W34770  15.599   8.788   4.809
62478W        W34771  23.559  30.433   1.424
62479W        W34772  39.990  24.683   2.320
62480W        W34773  15.295  43.967  13.327
62481W        W34774  24.673   3.842   2.796
62482W        W34775  32.511  13.145   3.380
62483W        W34776  29.641  36.961  14.998
62484W        W34777  36.566  37.871   3.329
62485W        W34778  26.012   8.824  12.898
62486W        W34779   0.258  22.712  13.044
62487W        W34780  40.517  33.446   5.302
62488W        W34781  13.752  14.225   3.741
62489W        W34782  23.123  34.887   4.725
62490W        W34783   7.670  40.827  13.898
62491W        W34784  25.610  42.349   4.126
62492W        W34785   6.222  36.451   2.280
62493W        W34786  34.550   9.776  11.559
62494W        W34787  34.552   0.745  10.919
62495W        W34788  34.089  39.999   3.825
62496W        W34789  32.939  14.294   3.324
62497W        W34790   6.781  20.183   4.305
62498W        W34791  26.583  12.238  14.849
62499W        W34792  40.371  33.456   3.284
62500W        W34793  40.883   2.384  10.484
62501W        W34794  17.095  25.970  14.457
62502W        W34795  30.936  12.810  14.434
62503W        W34796  32.600  40.038   4.715
62504W        W34797  43.996  27.673  12.008
62505W        W34798  14.136   4.317   2.213
62506W        W34799  41.966  23.177  11.395
62507W        W34800  32.969   7.791   4.821
62508W        W34801  16.584  29.940   3.821
62509W        W34802  20.552  21.651  10.554
62510W        W34803   9.236  14.249   1.256
62511W        W34804   8.688  43.514   5.227
62512W        W34805  21.657  29.479   4.821
62513W        W34806  29.542  39.886   3.275
62514W        W34807  18.786  42.876   0.368
62515W        W34808   5.882  18.731  10.994
62516W        W34809  36.408  14.167   0.376
62517W        W34810  39.319   2.395   0.728
62518W        W34811  31.037  32.449  13.515
62519W        W34812  26.969  22.611  12.018
62520W        W34813   1.297   6.694   3.713
62521W        W34814  32.919  25.991  11.500
62522W        W34815  27.165  13.235   3.227
62523W        W34816  41.498  44.292   2.828
62524W        W34817   7.237  32.007  14.771
62525W        W34818  10.138  13.731  11.507
62526W        W34819  32.530   0.414  14.484
62527W        W34820  18.630   5.431  10.520
62528W        W34821  36.548   6.717  11.519
62529W        W34822  41.481  34.018  13.039
62530W        W34823   2.762  22.155  11.555
62531W        W34824  21.243  29.021  13.328
62532W        W34825  34.915  24.504  11.113
62533W        W34826  17.685  28.469   2.232
62534W        W34827  30.126  35.944   1.702
62535W        W34828  23.203  14.254   0.840
62536W        W34829   7.831  34.037   0.409
62537W        W34830   1.343  13.774  13.538
62538W        W34831  23.066  43.869   1.831
62539W        W34832  34.964   6.380   3.773
62540W        W34833  19.155  33.533  14.022
62541W        W34834   0.476  42.983  13.964
62542W        W34835  18.708  29.500   4.675
62543W        W34836  23.207  41.943  11.501
62544W        W34837  28.561  37.354   1.925
62545W        W34838  38.402  42.010   1.856
62546W        W34839  11.766  22.217  14.390
62547W        W34840  28.052  19.151   4.823
62548W        W34841  39.972  39.850  12.390
62549W        W34842  28.624  24.553   5.110
62550W        W34843  28.520  33.880  13.498
62551W        W34844   5.374   3.221  13.534
62552W        W34845  29.428  26.530  13.331
62553W        W34846  38.406  41.368   2.746
62554W        W34847   8.882   0.816   4.225
62555W        W34848   8.730   7.726  11.511
62556W        W34849  27.095   5.369  13.860
62557W        W34850   0.784   9.318  13.531
62558W        W34851  17.103  21.685  12.929
62559W        W34852  28.973   4.296  11.010
62560W        W34853  42.940  41.336   3.678
62561W        W34854   5.421  11.326  14.320
62562W        W34855  23.123  17.253   0.351
62563W        W34856   9.283   8.214  11.381
62564W        W34857  13.182  13.630  14.342
62565W        W34858  32.939  10.730   9.995
62566W        W34859  41.991  22.040  11.563
62567W        W34860   2.860   7.343  12.031
62568W        W34861  39.922  34.584   2.742
62569W        W34862  38.893  22.694  11.984
62570W        W34863  26.959  25.626   1.702
62571W        W34864  42.353  12.820  12.364
62572W        W34865   7.746   7.801   4.224
62573W        W34866  30.469  13.803  13.055
62574W        W34867  16.195   3.774  14.829
62575W        W34868  13.263   2.270  13.893
62576W        W34869  44.797  34.920   1.427
62577W        W34870  30.504   9.200  12.860
62578W        W34871  16.176  40.468   1.861
62579W        W34872   0.437  39.934  12.828
62580W        W34873  38.492  13.700  11.944
62581W        W34874  20.131   3.299  12.573
62582W        W34875   9.368  36.990  13.038
62583W        W34876   4.315  43.367   1.401
62584W        W34877  20.258  44.278   3.683
62585W        W34878   2.251   7.684  13.474
62586W        W34879  14.118   9.327   2.269
62587W        W34880  23.603  38.828  13.457
62588W        W34881  37.425   0.453  11.378
62589W        W34882   8.336  38.469  14.940
62590W        W34883  23.090  23.599   4.716
62591W        W34884  37.448  11.296  10.974
62592W        W34885   2.870   7.193   0.341
62593W        W34886  41.951  22.616   2.791
62594W        W34887  26.060   1.439  14.934
62595W        W34888  13.622  23.712   0.961
62596W        W34889  42.879  31.465   4.702
62597W        W34890  38.536  31.989   1.330
62598W        W34891  13.679  21.715   2.365
62599W        W34892  25.985  23.652  10.633
62600W        W34893  15.171  20.552   3.787
62601W        W34894  10.797   6.856  14.322
62602W        W34895  21.623   4.767  11.543
62603W        W34896   8.221  17.655   3.260
62604W        W34897  11.786  35.955  10.909
62605W        W34898  31.487  22.578   4.766
62606W        W34899  27.535  17.797   3.722
62607W        W34900  31.537   7.754   9.961
62608W        W34901  26.067  16.185   3.241
62609W        W34902  20.258  35.866  14.319
62610W        W34903   4.287  18.275  13.055
62611W        W34904  17.066  21.065  13.862
62612W        W34905  27.469   1.748  12.988
62613W        W34906   9.163   5.808  14.488
62614W        W34907   6.218  34.605  12.903
62615W        W34908  14.782  19.674  11.611
62616W        W34909  16.123  22.106   2.187
62617W        W34910  32.947  18.686  12.977
62618W        W34911  25.196  33.043  11.886
62619W        W34912   0.864   6.777   2.347
62620W        W34913   4.294  11.237  13.500
62621W        W34914   8.673  41.817  11.417
62622W        W34915  25.484   7.337  12.024
62623W        W34916  27.555  23.010  10.572
62624W        W34917  27.137  30.922  11.593
62625W        W34918  17.124  31.488   4.329
62626W        W34919  39.917  26.688  13.318
62627W        W34920   2.328  33.501  11.058
62628W        W34921  23.497  19.195   3.848
62629W        W34922  10.256  40.359  12.899
62630W        W34923   4.292  35.981  13.832
62631W        W34924   7.767  16.169  14.471
62632W        W34925  44.441  10.806  13.536
62633W        W34926  38.325  25.590  11.895
62634W        W34927  22.064   0.879  14.899
62635W        W34928  18.676   9.846  10.504
62636W        W34929  44.397  16.653   1.901
62637W        W34930  14.133   7.906   4.634
62638W        W34931   7.763  17.761  13.005
62639W        W34932   1.796  40.998   3.222
62640W        W34933  39.946  43.003  13.052
62641W        W34934  42.785   4.810   1.935
62642W        W34935   1.812  16.702  14.957
62643W        W34936  22.699  32.896   4.299
62644W        W34937  27.590  29.492   2.736
62645W        W34938  22.705   9.846  13.994
62646W        W34939  38.014  37.573  13.460
62647W        W34940   8.328  43.990   3.723
62648W        W34941  20.599  14.188  11.085
62649W        W34942  22.542  38.413  14.909
62650W        W34943   7.862  27.166   3.722
62651W        W34944  12.127  21.174   3.754
62652W        W34945  40.464   2.730   2.733
62653W        W34946  42.366  30.068   0.946
62654W        W34947  42.848  12.825  10.615
62655W        W34948  44.450   9.888   3.300
62656W        W34949  21.231  25.094   3.822
62657W        W34950  44.491  13.113  14.301
62658W        W34951  35.074  19.586  11.469
62659W        W34952  25.623  40.891  11.111
62660W        W34953   4.210  40.046   2.268
62661W        W34954  28.182  22.560  10.160
62662W        W34955  22.160  15.795  13.948
62663W        W34956  11.135  12.747  13.894
62664W        W34957  38.003   7.408   2.826
62665W        W34958  32.010  27.492  14.766
62666W        W34959  40.810  23.690   2.372
62667W        W34960  12.338  17.157   4.345
62668W        W34961  23.190  19.702  11.996
62669W        W34962  26.603  35.419  12.092
62670W        W34963  25.598  42.527  13.393
62671W        W34964   3.447  27.686   9.983
62672W        W34965  36.961  23.106   3.864
62673W        W34966  32.020  38.536  14.966
62674W        W34967   7.237  24.642   1.707
62675W        W34968  11.791  12.268   3.159
62676W        W34969   4.837  31.909   2.802
62677W        W34970   6.918  32.938  11.027
62678W        W34971  23.685  23.495  10.619
62679W        W34972  37.436  12.213  10.966
62680W        W34973  29.566  17.641  14.017
62681W        W34974  41.787  40.932  12.844
62682W        W34975   5.205   6.286   4.143
62683W        W34976   4.443  25.202  11.091
62684W        W34977  19.184  32.399   0.927
62685W        W34978   3.772  37.443  11.092
62686W        W34979  29.122  29.072   2.877
62687W        W34980   4.894  27.067  13.359
62688W        W34981  23.597  33.464  10.560
62689W        W34982  31.940  15.240  11.377
62690W        W34983  15.162  14.751  13.835
62691W        W34984  11.629  12.259  13.861
62692W        W34985  25.984  16.738   2.872
62693W        W34986  18.759  22.085  11.033
62694W        W34987  38.502   7.730   4.832
62695W        W34988  39.857  41.962   3.637
62696W        W34989   8.726   3.813   3.820
62697W        W34990   8.893  26.569  11.874
62698W        W34991  37.554  42.903   4.832
62699W        W34992  39.037  20.254  14.359
62700W        W34993   6.831  20.603  14.401
62701W        W34994   3.922  39.865  12.509
62702W        W34995  12.190  42.026  13.472
62703W        W34996  27.014  14.339   4.263
62704W        W34997  36.496  35.935   5.146
62705W        W34998  22.603   6.387   1.260
62706W        W34999  22.684  18.781   2.375
62707W        W35000  30.447  34.440   4.606
62708W        W35001  40.358  11.343   2.797
62709W        W35002  28.584  39.332   2.753
62710W        W35003  36.434  17.645  12.066
62711W        W35004   1.446  43.368  10.522
62712W        W35005  32.097   4.756  14.314
62713W        W35006   9.291  25.989   3.375
62714W        W35007  35.062  20.658   3.319
62715W        W35008  19.545  38.553  14.939
62716W        W35009  19.068   5.927   2.849
62717W        W35010  12.169  14.154   4.148
62718W        W35011  19.167  38.555   4.738
62719W        W35012  21.079  42.032  12.524
62720W        W35013   7.699  27.581  12.878
62721W        W35014  35.930  33.577  11.476
62722W        W35015  40.336  14.610   0.826
62723W        W35016  36.465  30.505  14.908
62724W        W35017  22.081  17.591   4.151
62725W        W35018  14.747  11.371  13.427
62726W        W35019   7.272  29.600  14.797
62727W        W35020  19.149  28.663  13.429
62728W        W35021   1.951   3.430  11.570
62729W        W35022   5.932  28.135   2.299
62730W        W35023  26.044   8.769   2.354
62731W        W35024  16.267   1.768   1.918
62732W        W35025   4.877  13.732  12.360
62733W        W35026   7.755  41.455  13.846
62734W        W35027  34.023  17.582  11.943
62735W        W35028  25.537  43.851   2.380
62736W        W35029   2.959  24.982  11.906
62737W        W35030  12.849  18.667  11.556
62738W        W35031   2.857  33.980   2.326
62739W        W35032  32.483  32.125  10.124
62740W        W35033  37.839  15.173   2.692
62741W        W35034  14.599   6.848  10.997
62742W        W35035  38.408  16.631  11.921
62743W        W35036  31.513  32.392  11.052
62744W        W35037  44.770  17.227  10.471
62745W        W35038  22.078  17.647   0.817
62746W        W35039  25.191  29.980  12.874
62747W        W35040  14.094   3.450   2.312
62748W        W35041  31.404  21.169   2.285
62749W        W35042  25.593  22.742   9.968
62750W        W35043  41.400   9.321   2.861
62751W        W35044  16.742   7.742   1.226
62752W        W35045   3.868  44.786  11.961
62753W        W35046  37.030   3.376  12.580
62754W        W35047  11.714   5.248   3.367
62755W        W35048  12.649  12.285  14.362
62756W        W35049   6.251  30.587  13.045
62757W        W35050  41.320  23.135   0.246
62758W        W35051  18.773   5.206   3.260
62759W        W35052   9.277  28.602  14.975
62760W        W35053   1.966  22.660  13.488
62761W        W35054   1.345  11.646   2.415
62762W        W35055   7.804  30.498  11.999
62763W        W35056  37.537  41.386   3.815
62764W        W35057  34.476  29.635   3.657
62765W        W35058  17.215  31.025  10.933
62766W        W35059  13.126  23.125   0.322
62767W        W35060  12.181  14.191   3.834
62768W        W35061  20.115  42.463   3.187
62769W        W35062  29.012  15.774  13.030
62770W        W35063  21.117  40.912   1.324
62771W        W35064  38.400  24.001  13.353
62772W        W35065  40.428  13.715  11.525
62773W        W35066  11.354  19.118   1.391
62774W        W35067  40.820   8.257  10.973
62775W        W35068   5.751  25.641  11.605
62776W        W35069  33.404  15.204  14.824
62777W        W35070   7.851  29.004   0.959
62778W        W35071  15.715  40.328   0.442
62779W        W35072  19.079   3.831  14.012
62780W        W35073  12.306  16.574   4.623
62781W        W35074  24.212  19.665   1.817
62782W        W35075   7.302  42.378  12.070
62783W        W35076  32.414  23.707  14.286
62784W        W35077   4.433  44.355   3.726
62785W        W35078   7.415  40.904   3.322
62786W        W35079  33.975  22.556  12.903
62787W        W35080  40.816  28.052   0.441
62788W        W35081   7.751  14.629   2.412
62789W        W35082   3.801  40.858   3.217
62790W        W35083  35.092  31.911  11.542
62791W        W35084  32.891  36.533   0.902
62792W        W35085  34.893  39.499  11.967
62793W        W35086  20.128  25.086   0.327
62794W        W35087  14.644  42.834   0.853
62795W        W35088  35.594  24.535  10.425
62796W        W35089  26.550  23.495   0.847
62797W        W35090  35.070  27.539  13.514
62798W        W35091  37.033   1.866   3.820
62799W        W35092   2.340  29.991  12.502
62800W        W35093  19.574  10.325  13.527
62801W        W35094  36.352  18.265  13.974
62802W        W35095   2.939  12.228   4.262
62803W        W35096  19.670   8.719  12.080
62804W        W35097  31.634  30.035  13.882
62805W        W35098  39.474   9.711  11.897
62806W        W35099  14.225  26.990  13.907
62807W        W35100  37.954  26.209   3.733
62808W        W35101  12.264  11.258  14.777
62809W        W35102   9.338  23.130   0.855
62810W        W35103  35.525   8.812   0.857
62811W        W35104  22.168  20.625  11.497
62812W        W35105  25.540  30.657  12.858
62813W        W35106  15.823  14.634   2.177
62814W        W35107  10.334  26.070   2.822
62815W        W35108  27.095   1.358  11.884
62816W        W35109   4.261  28.077  11.050
62817W        W35110  14.171  28.649  11.980
62818W        W35111  29.654   5.398   1.741
62819W        W35112  21.717  32.115  14.445
62820W        W35113  12.768  11.824   1.803
62821W        W35114  25.217  19.540   3.786
62822W        W35115  41.403  35.578   3.322
62823W        W35116  14.639  27.110   1.729
62824W        W35117   7.825   8.312  12.398
62825W        W35118  41.514  26.075  10.433
62826W        W35119  15.154   4.912   2.328
62827W        W35120  25.573  27.999   0.730
62828W        W35121  28.093  34.446   3.387
62829W        W35122  16.109  40.936   3.804
62830W        W35123  43.427  12.227   3.811
62831W        W35124  41.537  43.877   3.160
62832W        W35125  28.074  15.326  12.027
62833W        W35126   9.275   3.337  13.534
62834W        W35127  21.749  15.590   1.788
62835W        W35128   4.701  10.355  10.492
62836W        W35129  12.220  37.918  14.483
62837W        W35130   8.731  29.111  10.412
62838W        W35131  23.168   8.730   0.432
62839W        W35132  28.543  20.166  11.400
62840W        W35133  24.081  18.242   2.286
62841W        W35134   5.200  41.503   2.355
62842W        W35135  36.999  36.935  14.391
62843W        W35136  22.581  14.271  10.509
62844W        W35137   2.344  14.102   5.279
62845W        W35138   9.259  28.545  12.497
62846W        W35139  41.397  44.383   3.685
62847W        W35140  33.084  40.513  14.455
62848W        W35141  12.814  27.186  13.487
62849W        W35142   4.705  18.162  11.921
62850W        W35143   7.267  15.656   3.816
62851W        W35144  34.030  16.630  14.795
62852W        W35145   1.257  34.393  11.461
62853W        W35146   7.381  26.115  14.761
62854W        W35147  22.584  15.799  13.490
62855W        W35148  22.023  44.279   0.297
62856W        W35149   9.394  12.839  12.942
62857W        W35150  43.976   3.723   3.739
62858W        W35151  27.000  23.158  13.483
62859W        W35152   6.746  28.986   4.167
62860W        W35153  15.328  10.870  14.850
62861W        W35154  38.932  36.050   3.167
62862W        W35155  27.681   3.806   0.834
62863W        W35156  20.695  32.923   1.858
62864W        W35157  33.951   8.358  14.450
62865W        W35158  40.527  16.136  13.001
62866W        W35159   0.371   1.823   1.696
62867W        W35160  34.050   9.767   3.146
62868W        W35161  35.071   4.347   4.126
62869W        W35162  27.963   3.732   3.222
62870W        W35163  34.075  14.653   4.670
62871W        W35164  27.475   7.413   1.796
62872W        W35165  16.292  43.806  11.903
62873W        W35166  15.710  23.121  13.321
62874W        W35167  40.353  18.588   1.228
62875W        W35168   7.334  19.162  12.833
62876W        W35169   0.387  41.356  14.508
62877W        W35170   2.365  16.571   4.799
62878W        W35171  27.993  11.362  14.031
62879W        W35172  14.207  40.020   4.789
62880W        W35173  40.433  33.534   4.219
62881W        W35174  23.009  23.165  12.477
62882W        W35175  44.479  27.987   0.304
62883W        W35176  43.501  22.581   3.845
62884W        W35177  26.461  23.177  13.366
62885W        W35178  33.012  29.433  13.037
62886W        W35179  11.718  21.217   3.693
62887W        W35180  20.252  33.050   1.285
62888W        W35181  11.344  25.626   0.325
62889W        W35182  17.130   0.892   1.377
62890W        W35183   7.376   2.350  10.517
62891W        W35184  36.515  19.608   4.307
62892W        W35185   0.767  35.496   4.205
62893W        W35186  19.652  32.486   1.436
62894W        W35187  12.323   0.442  12.368
62895W        W35188  27.149   5.215  10.479
62896W        W35189  10.744  28.121  14.371
62897W        W35190  36.482  24.112  10.593
62898W        W35191  17.766  25.013   1.898
62899W        W35192  29.516   8.728  11.127
62900W        W35193  13.322  11.210   0.254
62901W        W35194   5.422  43.292  13.405
62902W        W35195  22.033  20.535  13.514
62903W        W35196   0.769  13.209  11.028
62904W        W35197   2.863  24.087   3.681
62905W        W35198  11.632   5.438  10.936
62906W        W35199  29.960  21.036  10.539
62907W        W35200   0.904  21.090   4.783
62908W        W35201  26.006   6.852   2.347
62909W        W35202  24.147  36.890   4.715
62910W        W35203  18.550  27.570   4.610
62911W        W35204  44.404  16.148  12.902
62912W        W35205  35.603  19.117  12.897
62913W        W35206   7.728  12.262  12.012
62914W        W35207  23.096   7.748   1.835
62915W        W35208  38.501  44.808  12.032
62916W        W35209  18.103  35.028   0.246
62917W        W35210   8.212  42.341   2.709
62918W        W35211   7.857  29.997  11.391
62919W        W35212  19.742  37.413  14.782
62920W        W35213  34.490   8.674   0.303
62921W        W35214  31.476  34.565  10.530
62922W        W35215  31.438  31.458  12.370
62923W        W35216   9.654  38.907   2.417
62924W        W35217   9.853  15.732  11.904
62925W        W35218  33.008  31.545   2.244
62926W        W35219  23.001   4.289  13.410
62927W        W35220  36.015  43.926  11.524
62928W        W35221  37.518  17.222   0.361
62929W        W35222   3.732   3.875  11.410
62930W        W35223  40.303  18.675  14.375
62931W        W35224  17.647  44.475  10.153
62932W        W35225  12.134  13.713  10.587
62933W        W35226  35.994  12.358   4.222
62934W        W35227  14.776   9.250  12.922
62935W        W35228  39.973  19.051  12.407
62936W        W35229  43.924   6.328   1.348
62937W        W35230  41.527  33.485   3.318
62938W        W35231  39.838  39.552   3.365
62939W        W35232   4.879  21.149   2.259
62940W        W35233  16.773  17.742   0.869
62941W        W35234  16.084  30.525  12.447
62942W        W35235  43.793  13.278  12.949
62943W        W35236  42.808  18.219   4.645
62944W        W35237   6.232  24.090  14.305
62945W        W35238   9.285  42.005   1.844
62946W        W35239  27.043  13.639   4.651
62947W        W35240  14.253  17.283   0.751
62948W        W35241  42.380  29.657   3.318
62949W        W35242  33.589   5.823   3.803
62950W        W35243  29.098  33.000   2.180
62951W        W35244  14.220   2.765   3.145
62952W        W35245  12.769  17.670  11.505
62953W        W35246  22.251   2.942   3.750
62954W        W35247  20.135  29.071  10.428
62955W        W35248  30.092  11.720   0.824
62956W        W35249  33.549  39.982  13.516
62957W        W35250  24.089   2.442  11.094
62958W        W35251   6.184  23.131  10.453
62959W        W35252  23.187  27.500  14.773
62960W        W35253  32.402  28.515  11.973
62961W        W35254   1.442  44.470  10.600
62962W        W35255  20.245  12.664   2.721
62963W        W35256  26.017  21.584   4.191
62964W        W35257   2.296  30.595  13.316
62965W        W35258  31.991  12.130   0.294
62966W        W35259  29.113  41.311  14.819
62967W        W35260   8.307  35.413   3.192
62968W        W35261   2.309  21.604  10.504
62969W        W35262   9.796   0.372   1.422
62970W        W35263  10.316  34.965  13.415
62971W        W35264  33.406  15.769  11.869
62972W        W35265  10.804  23.989  14.816
62973W        W35266  36.405  30.048  12.346
62974W        W35267  37.543  11.350   4.240
62975W        W35268   2.911  22.251  12.571
62976W        W35269  23.006  38.439  13.516
62977W        W35270   6.214  20.082  11.531
62978W        W35271  18.578  11.277   2.749
62979W        W35272  16.280  12.148  12.091
62980W        W35273  16.213  32.409  10.633
62981W        W35274  34.962   7.206   0.863
62982W        W35275  41.511  44.799  10.408
62983W        W35276  26.112  40.814  14.994
62984W        W35277   5.732  28.120  13.454
62985W        W35278  29.932  25.483   0.374
62986W        W35279   3.865  40.015   0.301
62987W        W35280   5.727   6.823   3.867
62988W        W35281  38.554   1.263   1.435
62989W        W35282  27.096  10.259   3.695
62990W        W35283  39.420  41.452  14.288
62991W        W35284  35.019  18.746  12.961
62992W        W35285  11.840  34.573   1.874
62993W        W35286   3.738   7.700  13.525
62994W        W35287  38.375  40.523  12.014
62995W        W35288  12.769  21.216   4.662
62996W        W35289   4.344  20.584  12.380
62997W        W35290   3.942  12.120  14.000
62998W        W35291  43.446   1.965   1.318
62999W        W35292   0.447  41.907   2.761
63000W        W35293   1.768  17.109  12.850
63001W        W35294  27.510  28.041  14.369
63002W        W35295  34.022   1.463  14.499
63003W        W35296  17.778  38.060  11.392
63004W        W35297  40.346  36.952  12.570
63005W        W35298  25.108  10.344  13.008
63006W        W35299  35.057  15.588   2.384
63007W        W35300  27.160  10.757   1.212
63008W        W35301   5.430   1.800  14.016
63009W        W35302   9.853  26.612   4.736
63010W        W35303  20.233  22.667  11.493
63011W        W35304   9.796  31.020  12.517
63012W        W35305  11.262  27.526   3.741
63013W        W35306  43.859  35.389  10.520
63014W        W35307  12.687  36.951   0.251
63015W        W35308  32.027  11.866   4.246
63016W        W35309  34.065  36.965   1.903
63017W        W35310   8.345  33.996   0.423
63018W        W35311  29.665  38.876  12.523
63019W        W35312  25.200  29.657   0.378
63020W        W35313  25.186  30.582   0.391
63021W        W35314  34.449   4.937   4.174
63022W        W35315  22.062  34.444   1.922
63023W        W35316  10.776   6.248   4.237
63024W        W35317  25.523   3.818  10.000
63025W        W35318   3.265  27.036  11.471
63026W        W35319  27.125  37.475   3.381
63027W        W35320   5.349  21.175  14.947
63028W        W35321  18.136   5.921  13.839
63029W        W35322  44.919  15.299   1.304
63030W        W35323  25.025  19.097   2.410
63031W        W35324  28.018  26.191   4.757
63032W        W35325  16.775  10.221  11.602
63033W        W35326   8.730  30.973  14.916
63034W        W35327  30.650  20.240  14.788
63035W        W35328   4.862   4.359   2.233
63036W        W35329  32.913  17.133  10.429
63037W        W35330  25.655   3.270  12.053
63038W        W35331  22.099  21.685   2.321
63039W        W35332  44.491  30.982   2.756
63040W        W35333  19.730   3.461   5.143
63041W        W35334   5.856  28.477  12.343
63042W        W35335  12.850   2.334  11.956
63043W        W35336  43.365  36.405  10.009
63044W        W35337  35.852   0.960   0.424
63045W        W35338  20.746   8.250  14.293
63046W        W35339  10.801  18.125   1.322
63047W        W35340  33.409  13.765  11.536
63048W        W35341  39.405  31.452  10.497
63049W        W35342  27.034  12.332   2.760
63050W        W35343   6.749  25.059   0.876
63051W        W35344  30.919   0.755   2.665
63052W        W35345  11.143   1.926   1.876
63053W        W35346  26.493  33.100  10.588
63054W        W35347   3.922  38.943   2.397
63055W        W35348  42.013  33.129  13.510
63056W        W35349   9.858  35.889   4.344
63057W        W35350  39.909  22.680  14.966
63058W        W35351  35.094   4.851   3.767
63059W        W35352   7.784  36.985  13.430
63060W        W35353   9.194  37.392  14.769
63061W        W35354   2.744  12.294  12.448
63062W        W35355  24.989  14.711  14.827
63063W        W35356  29.067  12.618  10.973
63064W        W35357  28.571  30.057   3.634
63065W        W35358  33.113   5.388   0.431
63066W        W35359  10.154  21.526  10.493
63067W        W35360  33.388  20.058  12.929
63068W        W35361   7.392  15.291  13.939
63069W        W35362  37.077  28.485   0.735
63070W        W35363  20.088  43.498  12.348
63071W        W35364   2.318   5.267  11.382
63072W        W35365   1.259  32.461   3.818
63073W        W35366  31.977  33.125   4.160
63074W        W35367  24.560  38.878  14.431
63075W        W35368   4.771  25.660  11.039
63076W        W35369  44.892  42.911   3.245
63077W        W35370  20.207  13.667  11.416
63078W        W35371  24.664  27.052   1.361
63079W        W35372  40.490  34.595  11.382
63080W        W35373  16.792  38.890   0.390
63081W        W35374  32.605  16.287  13.378
63082W        W35375  31.999  13.345   5.108
63083W        W35376  36.588  17.650   0.763
63084W        W35377  23.599  14.737  13.481
63085W        W35378  31.151  43.318   1.374
63086W        W35379  25.474   4.219   1.696
63087W        W35380  18.663  30.018  11.911
63088W        W35381  29.126  25.025  11.084
63089W        W35382  21.700  10.769   2.186
63090W        W35383  25.968  30.102  14.301
63091W        W35384   9.202  10.640   1.930
63092W        W35385  36.011  30.085   4.287
63093W        W35386   6.901  38.963   0.423
63094W        W35387  27.047  22.643   9.940
63095W        W35388  12.338  42.849  13.007
63096W        W35389  31.565  13.149   2.310
63097W        W35390  35.964  16.256  13.006
63098W        W35391  11.796   1.330  14.803
63099W        W35392   0.778  42.854  13.497
63100W        W35393  24.225  34.403  12.030
63101W        W35394  41.317  30.090   2.391
63102W        W35395  29.509  43.358   0.415
63103W        W35396   2.244  22.689   3.644
63104W        W35397  17.294  22.524  10.029
63105W        W35398  39.417  13.235   3.155
63106W        W35399   8.831  34.999   4.267
63107W        W35400  30.595  22.691  11.976
63108W        W35401   1.409   0.880   3.692
63109W        W35402  35.478  35.002  10.924
63110W        W35403  25.552  41.013   0.345
63111W        W35404  11.199  19.143  14.768
63112W        W35405  16.585   1.913   0.368
63113W        W35406  29.973   9.260  11.446
63114W        W35407  24.502  10.372  13.453
63115W        W35408  41.004  22.522  14.018
63116W        W35409   4.273  43.419   1.761
63117W        W35410  23.242   2.266   5.167
63118W        W35411  18.109  26.978   4.834
63119W        W35412  43.836  18.734  11.994
63120W        W35413  16.231  44.372  13.461
63121W        W35414  20.758  10.777   1.912
63122W        W35415   5.429  44.009   4.823
63123W        W35416  16.589  28.948   0.908
63124W        W35417  31.936  14.711  13.428
63125W        W35418  32.452   3.795   4.222
63126W        W35419  43.009  42.022   0.323
63127W        W35420   0.332  22.223  12.466
63128W        W35421  31.048  33.048   2.288
63129W        W35422  14.592  32.978   2.338
63130W        W35423  43.946  14.804  13.517
63131W        W35424  17.556  18.199   0.768
63132W        W35425  36.472  39.924  13.990
63133W        W35426  38.989  42.525   0.283
63134W        W35427  32.394  22.062   4.802
63135W        W35428  34.427  39.552  12.915
63136W        W35429  13.655  36.951   2.892
63137W        W35430  40.989   4.443   0.899
63138W        W35431   1.930  18.774  11.899
63139W        W35432   5.377   1.476  12.478
63140W        W35433   2.235  12.238  14.334
63141W        W35434  27.068  13.296  10.599
63142W        W35435  33.097   9.315  11.609
63143W        W35436  37.518  33.502  14.440
63144W        W35437  41.536  32.091  11.436
63145W        W35438  33.117  35.931  13.465
63146W        W35439   3.739  14.761  11.387
63147W        W35440  20.231  21.077   0.931
63148W        W35441  25.510   4.374  13.420
63149W        W35442  26.161  24.176   1.287
63150W        W35443  28.127  30.572   2.759
63151W        W35444  28.628  32.947  11.408
63152W        W35445  27.652   8.834  11.944
63153W        W35446  44.788  23.113  11.497
63154W        W35447  29.027  22.215   0.919
63155W        W35448   4.860  19.585  13.810
63156W        W35449  32.027  41.511   2.291
63157W        W35450   0.915  34.120  14.364
63158W        W35451  36.947   1.410   1.394
63159W        W35452  20.694  12.200   4.625
63160W        W35453  23.536   1.424  11.074
63161W        W35454  23.675  39.347   2.407
63162W        W35455  26.626  39.498   0.366
63163W        W35456  42.820  19.540  13.429
63164W        W35457  27.101  35.949   0.906
63165W        W35458  41.342  41.413  14.924
63166W        W35459   5.760  22.023   3.190
63167W        W35460   9.350  26.003  14.817
63168W        W35461  41.858  16.249  13.064
63169W        W35462   3.345  41.484  13.319
63170W        W35463  40.944   6.696  12.847
63171W        W35464  20.154  11.727  14.473
63172W        W35465  15.660  38.438  11.478
63173W        W35466  31.480  21.527  13.529
63174W        W35467  32.036   4.260  11.962
63175W        W35468  18.785  24.105   3.743
63176W        W35469   8.362  11.233  11.589
63177W        W35470  12.300  25.564  11.857
63178W        W35471  20.585  10.637  11.919
63179W        W35472  35.884  32.974   1.403
63180W        W35473  33.896  10.266   2.264
63181W        W35474  30.595   5.294   0.412
63182W        W35475  42.972  41.368  13.414
63183W        W35476  31.904  41.511  13.982
63184W        W35477  14.118  37.478   3.809
63185W        W35478  14.714   3.416  12.384
63186W        W35479   4.793  14.700   3.303
63187W        W35480   1.320  18.222  14.957
63188W        W35481  34.395  21.517   2.673
63189W        W35482  11.285  32.533  12.340
63190W        W35483  28.546   0.981   2.695
63191W        W35484  21.512   3.913  14.372
63192W        W35485  39.015   5.397   3.782
63193W        W35486  24.133  15.330  10.414
63194W        W35487  39.458  41.486   2.294
63195W        W35488  24.135  37.867   0.927
63196W        W35489  17.679  25.615  12.934
63197W        W35490  15.623  24.085   1.705
63198W        W35491  29.504  14.220   4.221
63199W        W35492  28.110  35.518  11.014
63200W        W35493  38.327  37.933   1.909
63201W        W35494  31.937  37.938  11.571
63202W        W35495  20.603  15.261   0.322
63203W        W35496   9.729  42.854  13.851
63204W        W35497  20.578  25.503  14.945
63205W        W35498  12.612  38.455   3.738
63206W        W35499  31.611  34.991   0.243
63207W        W35500   3.912  44.856   1.868
63208W        W35501  21.159  40.987  14.943
63209W        W35502  43.998   1.453  14.813
63210W        W35503  10.822  31.074   1.800
63211W        W35504  18.709   3.441   1.246
63212W        W35505  32.116  16.762   5.108
63213W        W35506  23.726  23.018   3.277
63214W        W35507  31.925  12.776  11.947
63215W        W35508  24.531  32.603  13.509
63216W        W35509   6.380   9.261   4.791
63217W        W35510   4.851  25.080   2.736
63218W        W35511  40.847  36.349  11.947
63219W        W35512  14.100  36.948  10.543
63220W        W35513  15.264  41.511  13.001
63221W        W35514  44.348  27.522  12.838
63222W        W35515  20.240   9.219  13.932
63223W        W35516  16.283  21.085  12.825
63224W        W35517  22.016  15.129  13.061
63225W        W35518  44.474  25.153   0.731
63226W        W35519   1.772  12.687   2.303
63227W        W35520  41.997  44.351  13.439
63228W        W35521  29.099  18.621   2.883
63229W        W35522  43.297  28.077  11.119
63230W        W35523   5.689  40.880   2.397
63231W        W35524  27.513  24.991   4.353
63232W        W35525  39.824  19.719  11.084
63233W        W35526  28.938  25.077   1.849
63234W        W35527  24.974  35.891  13.463
63235W        W35528   2.759   1.449   4.123
63236W        W35529  29.930  30.045  14.967
63237W        W35530  39.834  19.751   4.219
63238W        W35531  37.906  12.160   2.878
63239W        W35532   1.739  39.004  13.000
63240W        W35533   9.871  40.026   0.864
63241W        W35534   9.347  15.216   0.830
63242W        W35535  14.822   8.277  12.005
63243W        W35536  23.015   0.758  14.995
63244W        W35537   0.880  29.539   1.760
63245W        W35538   8.677  40.884  11.578
63246W        W35539  40.864   8.170   4.270
63247W        W35540  11.701  15.710  10.019
63248W        W35541  32.462  23.110  14.769
63249W        W35542  41.496  37.460   3.221
63250W        W35543  15.688  42.399   4.178
63251W        W35544   0.308  40.866   2.854
63252W        W35545  35.553   7.874   2.220
63253W        W35546   9.275  20.650  12.016
63254W        W35547  28.521  17.195   2.359
63255W        W35548  13.711  21.701   4.245
63256W        W35549   8.788   8.886   4.219
63257W        W35550  31.948  33.947   3.358
63258W        W35551  17.777  14.172   1.438
63259W        W35552  23.238   6.305   0.864
63260W        W35553  10.872  35.867  13.024
63261W        W35554  23.209  10.812  13.311
63262W        W35555  36.951  11.757   3.643
63263W        W35556  16.289   8.670   1.337
63264W        W35557   7.191  24.137  13.876
63265W        W35558  28.620  26.081   0.260
63266W        W35559  13.240  27.133   4.197
63267W        W35560  24.497   7.832   2.402
63268W        W35561  27.141  30.142  13.361
63269W        W35562  25.662   4.408  10.435
63270W        W35563  43.823   3.432  13.820
63271W        W35564  42.941  13.660  12.475
63272W        W35565  30.592   5.220   4.757
63273W        W35566   4.439  34.425  12.915
63274W        W35567  28.637  41.805   0.375
63275W        W35568   2.342  14.758   0.320
63276W        W35569  42.865   5.295   0.248
63277W        W35570  40.516  43.325   3.162
63278W        W35571   7.316  24.977   4.142
63279W        W35572  30.088  36.912  10.458
63280W        W35573  14.255  21.033   0.796
63281W        W35574  38.483  18.604  11.485
63282W        W35575  15.250  16.149   0.942
63283W        W35576  27.084  35.422  11.965
63284W        W35577  16.174  12.711   2.385
63285W        W35578  15.131  18.101  13.895
63286W        W35579  26.075   2.878   0.255
63287W        W35580  44.950   3.790   3.789
63288W        W35581   3.820   7.296   1.905
63289W        W35582  37.357  25.108   3.239
63290W        W35583  29.123  33.557  14.360
63291W        W35584  43.423  26.000   3.735
63292W        W35585  37.571   8.869  12.514
63293W        W35586  33.991  24.014  13.937
63294W        W35587  27.964   0.955   5.319
63295W        W35588  23.727  36.857   0.883
63296W        W35589   9.275  18.091  13.935
63297W        W35590  13.780  32.568   4.690
63298W        W35591  35.909  26.954  14.432
63299W        W35592  30.000  10.296   1.771
63300W        W35593   9.304  24.508   0.286
63301W        W35594  36.519  14.280  10.454
63302W        W35595  36.021   0.388   2.255
63303W        W35596  32.466   9.355  12.894
63304W        W35597   1.756  20.151  11.877
63305W        W35598  14.666  14.779   3.179
63306W        W35599  31.540  27.986  12.508
63307W        W35600  34.987  24.523  13.980
63308W        W35601   0.346  17.684   2.375
63309W        W35602  24.564  31.486   0.827
63310W        W35603   5.296   0.785  10.996
63311W        W35604  18.096   6.877  12.937
63312W        W35605   7.408  38.506   1.907
63313W        W35606   3.916  39.048  10.074
63314W        W35607  34.506  42.785  11.556
63315W        W35608   4.436  24.608  12.471
63316W        W35609  17.623   5.753  12.344
63317W        W35610  13.665  25.104   2.685
63318W        W35611   5.287  25.573   0.888
63319W        W35612  20.660  37.347  12.928
63320W        W35613  14.192   9.302   1.743
63321W        W35614   7.380  18.640  10.567
63322W        W35615  12.691  23.672  13.317
63323W        W35616   4.870  21.200   1.427
63324W        W35617   3.406  21.183   4.798
63325W        W35618  15.227   2.837  13.490
63326W        W35619  15.090   6.843  11.921
63327W        W35620  41.498  16.095  13.914
63328W        W35621   7.188  14.156   3.660
63329W        W35622  42.949   8.187  11.117
63330W        W35623   4.872  41.839   1.846
63331W        W35624  25.157   3.731   1.863
63332W        W35625  26.111   4.432   2.229
63333W        W35626  21.257   4.208   2.187
63334W        W35627  15.244  42.797  11.981
63335W        W35628  10.824  19.662  11.977
63336W        W35629  33.116   5.746  10.907
63337W        W35630  17.727  22.114   0.451
63338W        W35631  22.192  19.056   1.299
63339W        W35632   0.451  39.426  13.497
63340W        W35633   8.842  40.362  12.541
63341W        W35634  35.422  28.485  10.438
63342W        W35635  44.758  39.013   2.271
63343W        W35636  27.471  15.174  11.454
63344W        W35637   1.793   8.689   1.246
63345W        W35638  40.828  23.493  12.392
63346W        W35639  20.675   4.814   0.473
63347W        W35640   8.170  11.195   4.729
63348W        W35641  10.767  16.668   1.271
63349W        W35642  43.936   5.297  14.814
63350W        W35643  27.010  42.821  11.953
63351W        W35644  41.483   5.696   1.932
63352W        W35645   0.871   5.813  13.416
63353W        W35646   6.875   1.421  11.536
63354W        W35647  10.737  37.394  11.560
63355W        W35648  19.595   4.256   0.792
63356W        W35649  36.946  16.090   1.421
63357W        W35650  14.685  19.662  13.970
63358W        W35651  31.000  36.870  14.360
63359W        W35652  44.366  19.689   4.808
63360W        W35653   7.399  30.515  11.873
63361W        W35654  43.991   6.236  10.508
63362W        W35655  14.294  22.224  12.933
63363W        W35656  34.006  27.177   2.371
63364W        W35657   0.452  36.554   5.290
63365W        W35658   4.299  35.404   4.260
63366W        W35659  28.975   9.856  11.463
63367W        W35660  18.111  32.967  13.498
63368W        W35661   0.473  43.764  12.411
63369W        W35662  23.620  34.527  13.886
63370W        W35663  24.034  22.557  13.312
63371W        W35664  19.635   1.959  11.043
63372W        W35665  11.737  17.156  13.982
63373W        W35666   4.750  44.944  14.976
63374W        W35667  30.629   2.348  11.874
63375W        W35668   2.270   1.374  10.899
63376W        W35669  35.991  21.242  11.541
63377W        W35670  27.486  13.698  11.945
63378W        W35671  26.560  24.543  12.377
63379W        W35672  40.012  33.053  11.532
63380W        W35673  31.509  43.019  12.476
63381W        W35674  33.384  31.071   0.951
63382W        W35675  26.071  41.336   3.824
63383W        W35676  15.753  19.595   4.801
63384W        W35677  34.087  11.718  14.386
63385W        W35678  25.667  24.483   4.658
63386W        W35679  12.332  21.234   3.269
63387W        W35680  15.210  24.676  11.983
63388W        W35681  13.629  13.115   3.224
63389W        W35682  36.862  35.419  11.923
63390W        W35683  40.350   9.828  11.878
63391W        W35684  37.055  38.823  10.499
63392W        W35685  17.587   2.228  11.876
63393W        W35686  24.090  18.583  13.909
63394W        W35687   9.737   2.762   3.786
63395W        W35688  31.479  24.021  11.400
63396W        W35689  39.818  28.013  13.925
63397W        W35690  23.996   1.757   0.846
63398W        W35691  14.765  32.605   0.370
63399W        W35692  18.591  33.602   0.863
63400W        W35693  43.497   8.776   1.784
63401W        W35694  44.827  40.843  14.335
63402W        W35695   7.183  26.056  12.477
63403W        W35696   0.939  27.023  12.036
63404W        W35697  21.250  41.422  12.875
63405W        W35698  11.247  14.744   1.752
63406W        W35699  16.584   6.291  10.607
63407W        W35700   4.707  14.767   4.677
63408W        W35701  38.452  33.541  14.485
63409W        W35702   1.462   2.758   0.251
63410W        W35703  42.024  15.226  12.045
63411W        W35704  41.296  35.995  11.868
63412W        W35705  34.600  41.341  13.465
63413W        W35706  30.103  22.173   5.091
63414W        W35707   1.471  36.950  14.990
63415W        W35708  11.132   5.832   2.359
63416W        W35709  10.657  27.658  13.371
63417W        W35710  14.635   7.408   1.888
63418W        W35711  37.971  38.828   0.410
63419W        W35712  10.673  12.833   4.306
63420W        W35713  42.979  44.500   5.285
63421W        W35714   3.869  42.878  11.559
63422W        W35715  22.156  27.100  14.291
63423W        W35716  26.117  42.310  14.304
63424W        W35717  31.148  37.550  10.902
63425W        W35718   2.468  37.437   1.348
63426W        W35719  10.258  31.094  12.996
63427W        W35720  35.105  10.380  13.440
63428W        W35721  38.914   1.426   3.781
63429W        W35722  13.778  22.521   2.664
63430W        W35723  44.884  41.995  12.514
63431W        W35724  41.512  33.053   0.333
63432W        W35725  15.197  31.144  14.488
63433W        W35726  21.215   3.457   4.626
63434W        W35727  37.513  23.235   3.819
63435W        W35728  12.717  35.373  13.439
63436W        W35729  23.573  33.042   1.910
63437W        W35730  26.593  11.178  12.088
63438W        W35731  22.672   9.395  14.934
63439W        W35732   2.901  32.917   3.295
63440W        W35733  19.236  37.548   1.929
63441W        W35734  37.527  33.553  11.957
63442W        W35735  27.655  20.745  14.765
63443W        W35736   4.288  35.086  12.846
63444W        W35737   2.368  24.665  11.033
63445W        W35738  19.772  11.711   4.354
63446W        W35739  33.529  42.916   0.350
63447W        W35740  10.170  28.645  14.376
63448W        W35741  12.343  11.759  11.073
63449W        W35742  43.338  27.987   1.369
63450W        W35743  37.916  35.485  10.983
63451W        W35744   6.292  34.007  13.522
63452W        W35745   8.710  22.553   3.762
63453W        W35746  44.919  33.529   4.212
63454W        W35747  10.877  15.106  14.839
63455W        W35748  43.327   3.948  10.625
63456W        W35749  39.984  42.459   0.914
63457W        W35750   7.676  31.423  14.418
63458W        W35751   1.876  16.295   3.752
63459W        W35752  30.141   5.900   1.885
63460W        W35753  12.639   7.760  13.312
63461W        W35754  29.102  37.077   4.257
63462W        W35755   9.178  40.359   4.231
63463W        W35756  16.265   0.764   3.154
63464W        W35757  20.693   9.728   0.932
63465W        W35758  12.795  11.249   4.601
63466W        W35759  38.908  10.263   5.195
63467W        W35760   1.778  36.889   4.132
63468W        W35761  10.310  34.893  12.348
63469W        W35762  37.905  40.874  13.386
63470W        W35763  34.466   7.413  13.958
63471W        W35764  12.855   9.328   2.875
63472W        W35765  10.312  43.459  10.478
63473W        W35766  22.734  27.598  13.539
63474W        W35767   2.232  18.616   1.795
63475W        W35768  17.750  26.671  12.406
63476W        W35769  39.356  27.448  13.312
63477W        W35770  18.688  44.259  14.901
63478W        W35771   9.711  34.033  11.504
63479W        W35772  37.007  34.932  11.474
63480W        W35773   7.884  30.547   4.164
63481W        W35774  43.928  19.708  10.953
63482W        W35775   2.416  12.175  10.487
63483W        W35776  15.602  37.384  12.380
63484W        W35777  25.560  24.672   1.868
63485W        W35778  34.483   9.266   3.808
63486W        W35779  43.830  22.513  10.443
63487W        W35780  21.190  39.964  13.861
63488W        W35781  37.848  38.829  14.028
63489W        W35782  37.404  43.792  13.867
63490W        W35783  15.727  14.251   4.310
63491W        W35784  26.152  16.701   4.147
63492W        W35785   1.842  43.336  10.482
63493W        W35786   4.798  40.912   1.906
63494W        W35787  31.066  36.577   2.256
63495W        W35788  19.619   6.365  13.970
63496W        W35789  21.143  15.123   2.291
63497W        W35790  33.022   0.910  13.317
63498W        W35791  30.092  18.667  13.969
63499W        W35792  36.376   4.397  13.420
63500W        W35793  35.008  34.385  13.828
63501W        W35794   8.850  39.889  13.426
63502W        W35795  31.076  35.103   2.299
63503W        W35796   5.867  32.529   2.253
63504W        W35797  33.517  32.586   1.250
63505W        W35798   3.768  12.671  10.497
63506W        W35799   0.954  15.274  14.852
63507W        W35800  35.401   4.443   3.667
63508W        W35801  41.927  29.506   4.680
63509W        W35802  40.333  41.458  13.945
63510W        W35803  14.706  35.446  14.783
63511W        W35804  10.198  13.107   3.633
63512W        W35805   0.334  33.417  13.355
63513W        W35806  41.412  17.704  11.110
63514W        W35807  43.298  22.667   9.933
63515W        W35808   1.872  42.313  14.963
63516W        W35809  33.104  43.890  11.940
63517W        W35810   7.326  43.828   4.702
63518W        W35811  11.741  40.329  11.930
63519W        W35812  30.991  18.784   0.449
63520W        W35813  22.662  42.372   4.829
63521W        W35814  37.360   1.845   2.803
63522W        W35815   6.697  16.217  13.851
63523W        W35816  37.499  16.138  11.924
63524W        W35817  35.437  38.349  14.346
63525W        W35818  28.017  21.239  10.994
63526W        W35819  44.482   5.315  12.537
63527W        W35820  22.104  30.584  13.793
63528W        W35821  29.936  36.049   3.219
63529W        W35822  20.545  13.163  13.309
63530W        W35823  12.733   4.879  10.449
63531W        W35824  16.249  32.110  13.929
63532W        W35825   2.820  10.735  12.824
63533W        W35826  37.948  17.126  11.062
63534W        W35827   2.755  27.194  11.440
63535W        W35828  37.029   2.269  14.809
63536W        W35829   3.235  13.741   0.274
63537W        W35830  37.520  21.049   4.607
63538W        W35831  35.973  36.399  10.891
63539W        W35832   4.879  21.562  13.800
63540W        W35833  34.995  23.549  12.498
63541W        W35834  10.798  12.828   2.380
63542W        W35835  41.356  34.863   0.896
63543W        W35836  14.724   3.880  12.461
63544W        W35837  35.453  16.750  13.840
63545W        W35838  21.108  42.817  14.924
63546W        W35839  15.147  42.458  14.940
63547W        W35840  14.672  14.159   3.658
63548W        W35841  31.619  20.738  11.075
63549W        W35842   4.287  20.570   1.424
63550W        W35843  23.587  43.964  11.587
63551W        W35844  34.868  26.572   0.440
63552W        W35845  34.542  33.592  10.948
63553W        W35846  37.392   8.709  13.043
63554W        W35847   6.420   6.414   0.411
63555W        W35848  41.962  25.048  13.474
63556W        W35849  29.463   7.844  11.964
63557W        W35850   4.734  32.019   3.718
63558W        W35851  42.309  25.000  12.902
63559W        W35852  16.212  27.972   1.449
63560W        W35853  21.206  43.273   1.698
63561W        W35854  15.259   6.416  10.520
63562W        W35855  39.356  38.033  14.434
63563W        W35856   7.233  30.613   2.883
63564W        W35857  19.633   7.325   1.217
63565W        W35858  21.531   1.742   4.243
63566W        W35859  17.737  21.191  10.985
63567W        W35860   7.868  36.545  12.345
63568W        W35861  29.625  11.856   4.643
63569W        W35862  40.051  20.566  13.867
63570W        W35863  40.314  23.571  13.497
63571W        W35864  10.868  16.090   3.648
63572W        W35865  16.682  11.272  14.506
63573W        W35866  43.411  35.876  13.964
63574W        W35867  36.416   5.338  11.505
63575W        W35868  15.790   1.916   2.225
63576W        W35869  12.221   7.750  13.060
63577W        W35870   9.203  28.558  13.543
63578W        W35871   5.765  14.169  11.914
63579W        W35872   1.927  26.594   3.759
63580W        W35873  30.554  12.252  14.014
63581W        W35874  23.598  39.323   2.676
63582W        W35875  15.678  42.928  12.367
63583W        W35876   9.290  25.072   4.313
63584W        W35877  20.563  34.591   2.748
63585W        W35878  13.148  22.209  11.373
63586W        W35879  40.953   4.228   1.320
63587W        W35880  22.565  20.084  12.027
63588W        W35881  31.092   1.967   4.632
63589W        W35882   5.866  32.619   2.791
63590W        W35883  12.329  30.485  11.521
63591W        W35884  27.573   5.738  11.420
63592W        W35885  13.139   4.912   0.359
63593W        W35886  18.137  40.332   0.937
63594W        W35887  13.142  10.213   1.346
63595W        W35888  20.094  34.912  12.443
63596W        W35889  12.782  40.048   3.654
63597W        W35890  28.023  20.253  11.038
63598W        W35891  23.047  13.618  11.605
63599W        W35892  43.271  13.155   0.921
63600W        W35893  32.001   2.820  14.327
63601W        W35894  32.425  38.465   3.793
63602W        W35895  37.536  20.676  12.083
63603W        W35896   0.471  40.006   3.205
63604W        W35897  13.133  42.310  11.373
63605W        W35898   8.384  10.377  11.948
63606W        W35899  25.199  26.662  13.008
63607W        W35900  22.158   9.241  10.569
63608W        W35901  42.527  24.036  13.353
63609W        W35902  20.547  20.539   1.302
63610W        W35903  34.387   2.313  12.508
63611W        W35904  22.661  22.227  11.890
63612W        W35905  28.436  26.636   0.436
63613W        W35906   3.375  31.453  14.882
63614W        W35907  12.153   0.915  10.951
63615W        W35908   9.190  14.609   3.370
63616W        W35909  43.509  32.025  14.513
63617W        W35910   9.763  29.926   3.837
63618W        W35911  33.968  41.888  14.911
63619W        W35912  35.970  17.695  14.281
63620W        W35913  19.188  29.043  11.114
63621W        W35914  12.653  11.659   4.639
63622W        W35915  24.637  35.974   3.183
63623W        W35916  12.273  13.315  11.590
63624W        W35917  11.819   5.217   0.379
63625W        W35918  34.518  27.190   1.833
63626W        W35919   3.792  29.556   2.221
63627W        W35920  44.909  19.137   1.418
63628W        W35921  29.445  28.527   4.699
63629W        W35922  33.539  19.775   3.380
63630W        W35923  13.210  27.163  14.991
63631W        W35924   7.794  18.160   4.662
63632W        W35925  16.568   7.767   2.364
63633W        W35926   9.701  35.972   4.824
63634W        W35927  20.549  33.060   0.405
63635W        W35928  39.909   9.149   3.328
63636W        W35929  38.985  38.412   2.743
63637W        W35930  29.564  23.121  11.106
63638W        W35931   5.351  34.044   1.730
63639W        W35932  28.994  28.494  12.871
63640W        W35933  43.780  27.561  14.783
63641W        W35934  36.367  10.328  13.370
63642W        W35935  18.729  30.502   2.748
63643W        W35936  15.683  22.677   1.387
63644W        W35937  44.465  17.212   1.853
63645W        W35938  26.129  42.822   4.300
63646W        W35939  12.681  42.869   3.184
63647W        W35940  32.102  20.767  13.926
63648W        W35941  32.584  21.061  13.411
63649W        W35942   4.852   2.893   0.422
63650W        W35943   0.410  14.622   4.183
63651W        W35944   0.393  14.307   4.720
63652W        W35945  40.899  42.824   1.299
63653W        W35946  13.830   2.248   5.678
63654W        W35947  29.600   7.741   0.436
63655W        W35948  32.541   9.696   5.291
63656W        W35949  11.182  32.977   3.250
63657W        W35950  32.003  11.707   1.842
63658W        W35951   9.820  14.136  10.418
63659W        W35952  26.545  28.941  12.903
63660W        W35953  16.743  31.402   3.176
63661W        W35954  35.387  43.474  13.463
63662W        W35955  11.743  42.429  12.534
63663W        W35956  28.619  36.566  11.047
63664W        W35957  22.655   6.365  12.568
63665W        W35958  11.245   7.783  11.590
63666W        W35959  37.377   4.747   0.763
63667W        W35960  29.565  25.583   1.758
63668W        W35961   4.722  37.863   1.318
63669W        W35962  26.198  43.325   4.215
63670W        W35963   8.368  10.344   0.313
63671W        W35964   4.207   5.852  13.991
63672W        W35965  41.872   5.702   2.696
63673W        W35966  24.161  28.116  14.976
63674W        W35967   6.292   7.318  11.950
63675W        W35968  31.578  35.048  13.001
63676W        W35969  12.634   2.836  14.857
63677W        W35970  19.777  14.697   5.144
63678W        W35971  23.186   7.686   0.323
63679W        W35972   5.739  17.148   3.689
63680W        W35973  22.645  34.990   0.332
63681W        W35974  13.238   0.403   0.348
63682W        W35975  41.917   4.923  11.386
63683W        W35976  44.497  11.756   2.218
63684W        W35977  38.494  43.787   3.810
63685W        W35978   3.290  33.971   4.787
63686W        W35979   3.406  44.454   5.221
63687W        W35980  13.693  13.726   2.808
63688W        W35981  16.784  26.170  12.524
63689W        W35982  36.848  12.170   1.876
63690W        W35983  19.183  26.018  14.875
63691W        W35984   4.434  30.102  13.991
63692W        W35985  20.682   9.160  14.482
63693W        W35986  21.579  43.770   3.298
63694W        W35987  14.722  41.502   2.695
63695W        W35988   5.361  26.124  13.386
63696W        W35989  23.221   2.919   0.349
63697W        W35990   8.399   4.446   2.898
63698W        W35991  28.994  13.173  13.028
63699W        W35992  19.647  23.601   4.203
63700W        W35993  13.726  23.045  11.501
63701W        W35994   8.783  22.735  14.419
63702W        W35995  40.466  24.707   3.721
63703W        W35996  32.026  39.426   1.249
63704W        W35997  31.449  25.968  14.773
63705W        W35998  30.921  22.070  14.924
63706W        W35999  12.672  24.080  14.905
63707W        W36000   7.292  11.294   1.328
63708W        W36001  24.075  36.041  11.965
63709W        W36002  25.572  15.263   0.469
63710W        W36003  42.499  28.052  11.440
63711W        W36004   5.801   1.287   3.248
63712W        W36005  39.407  41.929  11.982
63713W        W36006  26.053  32.927   4.272
63714W        W36007   7.205  36.072   3.146
63715W        W36008  41.916  41.496  13.958
63716W        W36009  25.202   7.828   2.294
63717W        W36010  16.736  31.897   1.236
63718W        W36011  41.933  13.289  13.964
63719W        W36012   0.344  11.676   2.666
63720W        W36013  39.549  17.262  12.092
63721W        W36014  19.214  40.388  13.511
63722W        W36015  28.586   1.917   1.419
63723W        W36016   2.817  32.501   4.223
63724W        W36017  38.453   0.919  10.934
63725W        W36018  42.351  31.627  13.459
63726W        W36019  25.055   0.804   3.837
63727W        W36020  32.065  19.194  13.427
63728W        W36021  17.782  13.242  10.956
63729W        W36022  28.954  31.152   2.827
63730W        W36023  44.424   9.356   1.838
63731W        W36024  26.497  20.105   2.309
63732W        W36025   4.374  19.165   4.646
63733W        W36026  36.059   6.720  12.340
63734W        W36027  26.161   1.351   3.815
63735W        W36028  34.974  11.627   1.383
63736W        W36029  10.377  27.992   1.882
63737W        W36030  17.674   3.395   3.213
63738W        W36031  27.159   6.922  11.578
63739W        W36032  42.963  33.585  13.942
63740W        W36033  15.761  34.107   0.351
63741W        W36034  19.213  36.088  14.429
63742W        W36035  30.566  15.579  10.975
63743W        W36036  34.076  25.024  13.425
63744W        W36037  16.305  16.739  11.031
63745W        W36038   7.401  43.001   4.765
63746W        W36039  14.209  23.599   4.340
63747W        W36040   2.317  17.794   3.755
63748W        W36041   0.943  26.140  10.525
63749W        W36042  36.401  12.710   3.639
63750W        W36043  14.689   5.354   2.321
63751W        W36044  35.581  24.214  10.531
63752W        W36045   1.385  26.654   1.935
63753W        W36046   7.890  26.472   4.702
63754W        W36047   4.339  39.821  12.921
63755W        W36048  21.030  31.072   0.730
63756W        W36049  14.734  19.180  14.289
63757W        W36050  20.635  18.558   1.920
63758W        W36051  39.855  38.065  13.041
63759W        W36052  33.111  27.118  12.374
63760W        W36053  22.510  43.968  10.972
63761W        W36054  10.225  16.806  12.488
63762W        W36055  17.598   8.749   1.362
63763W        W36056  14.133   2.466  12.534
63764W        W36057  39.913  35.379  11.875
63765W        W36058   6.715  27.450   4.146
63766W        W36059  17.679   1.747   0.966
63767W        W36060  11.769  28.504   4.172
63768W        W36061  18.249  17.287   1.931
63769W        W36062  21.724  31.118  12.860
63770W        W36063  40.324   3.285  11.968
63771W        W36064  24.525  26.114  13.969
63772W        W36065  24.153   6.836   3.761
63773W        W36066  10.348  25.603  12.849
63774W        W36067  25.095   3.248  11.878
63775W        W36068   9.727  40.525   1.814
63776W        W36069  35.491   4.402   1.393
63777W        W36070  44.795  13.268  11.539
63778W        W36071  13.835  42.804  13.484
63779W        W36072  27.589  38.899  14.952
63780W        W36073  10.778  24.671  11.993
63781W        W36074  35.392  34.425  11.876
63782W        W36075  42.414  17.636   3.288
63783W        W36076  31.536  20.087  11.546
63784W        W36077  16.164   8.397   1.374
63785W        W36078   7.344  43.006  12.870
63786W        W36079   5.296   1.926   2.345
63787W        W36080  17.218  34.384  11.389
63788W        W36081  32.101   0.936   2.411
63789W        W36082  22.201  28.603   3.164
63790W        W36083  36.080   3.838   0.277
63791W        W36084  21.086  33.049  13.936
63792W        W36085   8.764   8.333   1.231
63793W        W36086  39.915  15.159  12.949
63794W        W36087  10.270   9.707   3.264
63795W        W36088  10.336   1.875  12.374
63796W        W36089  20.048  31.909   3.640
63797W        W36090  23.011  16.092  12.423
63798W        W36091  11.267  12.851   2.204
63799W        W36092  33.906  31.042   3.697
63800W        W36093  44.958  18.758   9.478
63801W        W36094  39.523  17.239   4.741
63802W        W36095  17.267  16.276  13.339
63803W        W36096  33.972  11.199   1.284
63804W        W36097   3.889  29.580  14.963
63805W        W36098   8.743  23.079  11.540
63806W        W36099  23.167  40.962   4.354
63807W        W36100  42.864  33.482  10.453
63808W        W36101  34.423  26.984   1.430
63809W        W36102  41.379  11.160  11.955
63810W        W36103   9.326  38.842  14.006
63811W        W36104   5.801  38.510   4.828
63812W        W36105  37.580   2.805   0.829
63813W        W36106  17.737  44.272   3.233
63814W        W36107   6.321  35.415  13.920
63815W        W36108  16.213  24.552  11.887
63816W        W36109  29.052  23.089  10.091
63817W        W36110  14.273  42.405  13.864
63818W        W36111  25.190   5.358   1.705
63819W        W36112  28.136  35.054   5.202
63820W        W36113  18.707  39.029  12.465
63821W        W36114  38.000  24.550  11.958
63822W        W36115  10.864   8.386  13.414
63823W        W36116   3.300  28.601  13.469
63824W        W36117   5.739   0.790  14.879
63825W        W36118   5.745  14.678  11.372
63826W        W36119  28.049  22.073  13.336
63827W        W36120  33.584  36.442  12.065
63828W        W36121   9.647  16.648   2.230
63829W        W36122  14.610  16.694  11.578
63830W        W36123  23.047  32.026   3.253
63831W        W36124  41.408   3.887  14.288
63832W        W36125  24.985   7.352  13.932
63833W        W36126  28.949  38.556   0.319
63834W        W36127  16.772  44.500   2.377
63835W        W36128  27.690  15.623  10.623
63836W        W36129  37.073   1.401   4.707
63837W        W36130  17.217  19.043   4.720
63838W        W36131  12.682  43.438  14.783
63839W        W36132  25.972  29.095   1.323
63840W        W36133  12.190   4.378  11.399
63841W        W36134   5.845  31.897   4.772
63842W        W36135   6.253   8.865   4.176
63843W        W36136  40.014  18.605  14.905
63844W        W36137  11.638  20.657   0.798
63845W        W36138  14.144  40.908  10.598
63846W        W36139   9.195  42.811   3.361
63847W        W36140  28.494  21.184   3.840
63848W        W36141  21.584  37.460   4.162
63849W        W36142   7.342  14.237  14.769
63850W        W36143  26.686  15.761  14.806
63851W        W36144  42.285  43.870  13.890
63852W        W36145   1.366  10.714   2.190
63853W        W36146   4.871  11.324  14.466
63854W        W36147  25.082   7.331   2.832
63855W        W36148  30.544  40.830  11.517
63856W        W36149  10.873  37.995  11.388
63857W        W36150  42.374  29.982   4.169
63858W        W36151  34.383  32.140  10.022
63859W        W36152  42.438  24.045   0.746
63860W        W36153  20.265  12.764  13.975
63861W        W36154  23.632   4.933  10.498
63862W        W36155  42.444  30.009   2.289
63863W        W36156   4.776   9.344  11.443
63864W        W36157  23.617   8.296  14.462
63865W        W36158  16.084  28.959   3.823
63866W        W36159  41.480  40.964   0.794
63867W        W36160   1.303  31.549   2.883
63868W        W36161  11.779  35.893   4.240
63869W        W36162  15.220  22.140  12.832
63870W        W36163  21.664  15.201  11.588
63871W        W36164  37.013   2.874  13.375
63872W        W36165  37.383   0.959   5.282
63873W        W36166  30.978  37.918   4.340
63874W        W36167   7.193   0.795   1.358
63875W        W36168  42.508  19.628   1.797
63876W        W36169  11.775   9.150  10.535
63877W        W36170  18.182  33.923   4.642
63878W        W36171  42.776   9.365  12.495
63879W        W36172  27.622  11.360  11.456
63880W        W36173   0.422  21.121  11.511
63881W        W36174  30.994   4.913  14.761
63882W        W36175  41.917  27.131  11.521
63883W        W36176  39.378  34.047   1.261
63884W        W36177   6.268  33.118  14.369
63885W        W36178   9.158   2.257  11.949
63886W        W36179  34.965   5.197   2.725
63887W        W36180  40.929  31.638  10.964
63888W        W36181   6.905  18.561  14.355
63889W        W36182   4.386  37.400   1.811
63890W        W36183   9.394  37.920  11.916
63891W        W36184  14.787  42.849  10.028
63892W        W36185  34.029  40.041  12.428
63893W        W36186  37.388  22.549  10.586
63894W        W36187  18.596  19.285   3.789
63895W        W36188  26.962  37.932  13.908
63896W        W36189  18.618  13.283  11.879
63897W        W36190   4.283  22.040   1.284
63898W        W36191  24.711  26.097   0.763
63899W        W36192  19.040  20.575  12.408
63900W        W36193  22.537  35.956  11.425
63901W        W36194  18.188  26.171  14.015
63902W        W36195  28.037  22.744  14.850
63903W        W36196  30.430   1.796   4.616
63904W        W36197  17.137  28.659  12.381
63905W        W36198   8.296  12.218  12.349
63906W        W36199   1.299  23.684  13.982
63907W        W36200  13.120  11.325  12.407
63908W        W36201   3.419  43.779  12.512
63909W        W36202  41.468  16.160   0.812
63910W        W36203  11.757  34.965  11.045
63911W        W36204  31.466  31.987  14.002
63912W        W36205  25.195  44.755  11.888
63913W        W36206   7.263  27.029  11.965
63914W        W36207  38.426  18.066   3.799
63915W        W36208  10.369  38.919  13.969
63916W        W36209  19.672  14.684  12.384
63917W        W36210  11.280  32.603   3.374
63918W        W36211   0.765  16.664  14.476
63919W        W36212  24.588  11.703   2.207
63920W        W36213  36.482  24.517   2.748
63921W        W36214  36.472   8.384   1.337
63922W        W36215  24.979  43.943   2.343
63923W        W36216  32.618  21.677   0.736
63924W        W36217   1.846  35.466   0.880
63925W        W36218   9.808   0.894  14.882
63926W        W36219  17.646  22.087  10.475
63927W        W36220  17.766  25.044  10.954
63928W        W36221   5.765  19.637   1.229
63929W        W36222  36.942  42.890  11.099
63930W        W36223  14.793  20.720   2.315
63931W        W36224  22.634   8.765   4.270
63932W        W36225  31.910   1.917  12.885
63933W        W36226  41.856  27.686   3.235
63934W        W36227  30.057  29.656  11.411
63935W        W36228  26.539  11.761   0.294
63936W        W36229   3.323   3.405  10.937
63937W        W36230  35.937   0.809  11.379
63938W        W36231  19.652   0.401   1.244
63939W        W36232  34.882   1.376  13.002
63940W        W36233  26.592   8.377  12.399
63941W        W36234  29.920  18.206  13.370
63942W        W36235  29.540  33.473   3.830
63943W        W36236   2.813  15.660   3.289
63944W        W36237  17.165  19.710   3.853
63945W        W36238  20.582  17.299  14.420
63946W        W36239   1.938  42.897  12.851
63947W        W36240   4.847   0.342  12.392
63948W        W36241  11.633   0.484   0.869
63949W        W36242  39.329  13.744  10.426
63950W        W36243   4.837  13.296  13.332
63951W        W36244  16.294  42.355  13.487
63952W        W36245  32.518   2.430   0.294
63953W        W36246   4.437  36.025  11.534
63954W        W36247  22.995  13.713   1.296
63955W        W36248   4.233  40.940   2.284
63956W        W36249  41.931  35.444   3.690
63957W        W36250  35.892   8.849  12.508
63958W        W36251  13.616  36.354  11.934
63959W        W36252  33.916  24.631  12.979
63960W        W36253  10.775  26.027  12.827
63961W        W36254  23.698  41.815   0.913
63962W        W36255   9.351   7.730   2.663
63963W        W36256   5.706  43.334   4.813
63964W        W36257   1.311  23.055   3.290
63965W        W36258  16.794  23.685   2.696
63966W        W36259  34.119  21.126   4.838
63967W        W36260   1.385  34.026  13.440
63968W        W36261   1.260  40.421   2.890
63969W        W36262  10.340  37.422   1.287
63970W        W36263  29.545   6.406  11.067
63971W        W36264  40.439  34.522  14.373
63972W        W36265  23.570  22.112  14.473
63973W        W36266  37.049   6.785  11.123
63974W        W36267  33.057   0.989   0.793
63975W        W36268   0.313  44.790  14.338
63976W        W36269  14.806   8.350   2.882
63977W        W36270  22.512  16.696  12.358
63978W        W36271  22.200  29.958  14.989
63979W        W36272  31.043  10.340  14.384
63980W        W36273  26.479   3.223   1.223
63981W        W36274  34.909  14.131   0.404
63982W        W36275  44.885   5.228   2.359
63983W        W36276  30.105  18.712  12.475
63984W        W36277   2.266  27.493  14.376
63985W        W36278   5.783  32.892  12.096
63986W        W36279  17.167   6.332  13.475
63987W        W36280  15.610   4.282  10.433
63988W        W36281  27.077   6.917  12.995
63989W        W36282   7.318  39.021   2.248
63990W        W36283  35.926  16.108  14.940
63991W        W36284  28.457   6.889   2.194
63992W        W36285  38.394   3.871  11.029
63993W        W36286   8.384  24.052  13.841
63994W        W36287   4.830  36.030   4.763
63995W        W36288  12.771  16.714   0.402
63996W        W36289   7.737  34.939  10.439
63997W        W36290   7.195  36.482  12.460
63998W        W36291  16.224  13.636   3.783
63999W        W36292   4.704  31.022  10.423
64000W        W36293  27.680  20.676   9.656
64001W        W36294  23.149  33.480   3.160
64002W        W36295  40.459  41.347  12.425
64003W        W36296  13.271  10.712  10.614
64004W        W36297  25.640  18.236  10.132
64005W        W36298  27.034   1.434  11.063
64006W        W36299   0.819  23.652  12.551
64007W        W36300  27.956   0.864  13.855
64008W        W36301  13.745  17.717   0.749
64009W        W36302  14.210  35.868   4.690
64010W        W36303  44.967  22.109   4.349
64011W        W36304  37.002  10.736  12.079
64012W        W36305   2.372  19.172  13.521
64013W        W36306  33.027   3.261  12.065
64014W        W36307  15.653   4.922  12.943
64015W        W36308   5.242   2.954   1.282
64016W        W36309  40.433  12.314   3.754
64017W        W36310  43.366   8.276   2.221
64018W        W36311  15.769  33.110   4.150
64019W        W36312  31.646  37.462  12.568
64020W        W36313  36.062  26.495   0.730
64021W        W36314  34.539  33.594   9.925
64022W        W36315  17.221  31.593  14.021
64023W        W36316  34.101  20.624  13.362
64024W        W36317  28.058  42.793  12.898
64025W        W36318  28.484   4.811  10.426
64026W        W36319   7.878  22.131  10.498
64027W        W36320  26.954   6.303  13.542
64028W        W36321  27.674  22.729  10.430
64029W        W36322  40.032  28.512  11.395
64030W        W36323  42.418  18.217  12.898
64031W        W36324  25.964  16.677  11.515
64032W        W36325  12.283  12.299  13.864
64033W        W36326  22.047  10.665  12.487
64034W        W36327  32.398   7.337  12.920
64035W        W36328  28.181  21.110  14.984
64036W        W36329   0.926   0.483   3.325
64037W        W36330  36.894  41.478   2.712
64038W        W36331  41.321  41.885   3.846
64039W        W36332   3.827  13.240   0.455
64040W        W36333   5.929  31.136   4.836
64041W        W36334  14.197   4.913   9.642
64042W        W36335  34.517  11.203   3.850
64043W        W36336  15.238  43.416   3.787
64044W        W36337  43.946  40.808   2.740
64045W        W36338   4.333  23.683  13.873
64046W        W36339   4.803  13.251   4.770
64047W        W36340  44.285  19.552  10.549
64048W        W36341  17.650  26.675   1.254
64049W        W36342  14.760   4.280  14.321
64050W        W36343  26.204  28.061   1.342
64051W        W36344  28.561  16.310   0.813
64052W        W36345  24.218  25.155   4.668
64053W        W36346  27.558  26.502   1.275
64054W        W36347  10.170  20.618   0.467
64055W        W36348  14.284  12.781  12.404
64056W        W36349  14.122  44.461  10.920
64057W        W36350  33.468  44.972   4.139
64058W        W36351  31.926  38.485   4.296
64059W        W36352  35.363  40.311  12.447
64060W        W36353  35.880  37.901   3.855
64061W        W36354  10.267  30.950   2.193
64062W        W36355  15.740  25.000  13.003
64063W        W36356  23.628   9.741   3.234
64064W        W36357  23.701   0.904  12.849
64065W        W36358  11.241  26.642   1.324
64066W        W36359  24.070  24.691  12.355
64067W        W36360  24.612  18.068   2.845
64068W        W36361   4.349  11.305   4.305
64069W        W36362  10.846  41.364  13.322
64070W        W36363  22.724  17.152  12.370
64071W        W36364  25.633   5.301   4.169
64072W        W36365  24.976  11.186   2.181
64073W        W36366  43.277  22.689   0.899
64074W        W36367   0.434  36.881   4.236
64075W        W36368  35.954  14.633   4.801
64076W        W36369   2.932   5.199   2.688
64077W        W36370  11.824   3.878  11.867
64078W        W36371  38.359  20.580   1.704
64079W        W36372  15.709  31.993   0.733
64080W        W36373  17.555  39.918  12.942
64081W        W36374  29.143   9.197  11.054
64082W        W36375  25.003  27.175  13.474
64083W        W36376  10.789  25.092   2.293
64084W        W36377  20.028  10.376   1.335
64085W        W36378   8.188  14.151   0.314
64086W        W36379  22.728  13.606   0.285
64087W        W36380   5.864  18.076  12.405
64088W        W36381  34.567   4.702  10.087
64089W        W36382   4.865  19.656  11.583
64090W        W36383   5.211  31.594  13.811
64091W        W36384  26.023  26.146  14.295
64092W        W36385   8.671  36.524   1.856
64093W        W36386  22.043  26.138  14.343
64094W        W36387  39.893  29.470   0.727
64095W        W36388  17.238   8.212   1.257
64096W        W36389  25.612  31.082  11.867
64097W        W36390  32.929  13.665   3.351
64098W        W36391  20.257  42.398   0.292
64099W        W36392  44.810  28.641   1.734
64100W        W36393   0.908  26.063  14.949
64101W        W36394  28.120  22.221   1.772
64102W        W36395  44.788  23.029   4.682
64103W        W36396  38.833  24.529  14.476
64104W        W36397  12.259   8.239   0.381
64105W        W36398  10.144   6.722  11.486
64106W        W36399  30.164  10.868   9.458
64107W        W36400   9.296  19.262   3.282
64108W        W36401  36.875  22.557   3.695
64109W        W36402   3.381  35.505   0.861
64110W        W36403  30.428  10.375   4.144
64111W        W36404  32.397   7.373   1.767
64112W        W36405   5.280   0.336   2.705
64113W        W36406   0.959  24.055   0.727
64114W        W36407  39.031  13.154   5.096
64115W        W36408   4.803  26.663   3.307
64116W        W36409   4.301   7.716  10.548
64117W        W36410  27.067  19.705  14.024
64118W        W36411  31.486  32.962  13.376
64119W        W36412  13.224  35.425  13.877
64120W        W36413  35.022  13.640   1.331
64121W        W36414  44.315  22.715  12.833
64122W        W36415  37.432   7.741   5.155
64123W        W36416  37.918   3.335   2.317
64124W        W36417  44.771  24.062   1.373
64125W        W36418   2.759  28.061  10.569
64126W        W36419   0.339   5.901  10.921
64127W        W36420  24.497  41.933   1.274
64128W        W36421  11.788  12.234   1.826
64129W        W36422  28.104  23.064   1.884
64130W        W36423  10.371  32.955   3.811
64131W        W36424   1.928  11.810  11.580
64132W        W36425  38.365  13.287  10.480
64133W        W36426  20.635  34.414  13.944
64134W        W36427  34.985  16.137   1.351
64135W        W36428   9.378  38.404   3.787
64136W        W36429  13.792   2.737   2.204
64137W        W36430  41.962  29.005  12.943
64138W        W36431   7.802  16.648  10.091
64139W        W36432  33.997  15.321  10.962
64140W        W36433   2.307  44.431   5.155
64141W        W36434  16.734  18.280  12.363
64142W        W36435   7.343  37.536   0.928
64143W        W36436  11.367  27.117   2.410
64144W        W36437   5.287  19.597   3.860
64145W        W36438  21.725   6.775  10.966
64146W        W36439   2.731  35.910   4.312
64147W        W36440   7.740  28.471   0.287
64148W        W36441  20.693  10.735  12.916
64149W        W36442  35.035   0.423   4.217
64150W        W36443  39.034   8.371   0.473
64151W        W36444  34.384  27.957  10.460
64152W        W36445  10.874   4.391  10.988
64153W        W36446   4.916  38.924  11.442
64154W        W36447  38.563  17.120   4.764
64155W        W36448  10.669  36.097   4.829
64156W        W36449  14.192   6.285   3.786
64157W        W36450  27.556  34.060   1.893
64158W        W36451  25.178  26.974  14.802
64159W        W36452  22.620  11.169   3.169
64160W        W36453  22.185  44.451  12.565
64161W        W36454   3.900  36.472   2.714
64162W        W36455   3.300  39.982   1.212
64163W        W36456  22.610  29.993  14.351
64164W        W36457  34.867  25.087  12.987
64165W        W36458  13.667  31.934  12.966
64166W        W36459  10.770  31.588   3.801
64167W        W36460  28.140  19.741   1.426
64168W        W36461   9.851  38.494  11.554
64169W        W36462  25.554   1.780  14.351
64170W        W36463   3.228  28.680  13.892
64171W        W36464  10.297  12.780   2.902
64172W        W36465   1.436  36.065  14.280
64173W        W36466  17.645  35.989   0.813
64174W        W36467  33.898  27.975   3.665
64175W        W36468  28.177   4.421   4.259
64176W        W36469  31.937   6.366   0.863
64177W        W36470  10.263  39.818   3.773
64178W        W36471   0.305   3.237  14.952
64179W        W36472  38.895  30.990  12.521
64180W        W36473   6.877  13.797  10.494
64181W        W36474   6.869  37.830  13.901
64182W        W36475  18.269  29.987   1.398
64183W        W36476  32.089  29.013  10.525
64184W        W36477  40.512   0.361   2.291
64185W        W36478  30.147  35.051   4.204
64186W        W36479  39.020  25.974  13.494
64187W        W36480  36.973  24.724  14.510
64188W        W36481  15.305  34.594   1.301
64189W        W36482  12.788  18.784   3.722
64190W        W36483   9.720   3.401  11.566
64191W        W36484  35.949  31.094   1.920
64192W        W36485  14.761  25.616  14.771
64193W        W36486  15.751  28.071   5.298
64194W        W36487  11.673  25.577   1.334
64195W        W36488  38.939  41.435   5.265
64196W        W36489  17.613  18.249  13.473
64197W        W36490  35.892   5.222   4.217
64198W        W36491   9.856  35.049   5.301
64199W        W36492  22.727  41.985   0.808
64200W        W36493  19.721  32.951  13.997
64201W        W36494  24.640  23.644   1.696
64202W        W36495  10.233   9.703   2.352
64203W        W36496  30.037   6.386  12.395
64204W        W36497  39.843  44.974  11.460
64205W        W36498  38.032   2.432   3.285
64206W        W36499  18.575   8.166   4.620
64207W        W36500  15.671  23.531   3.275
64208W        W36501  28.497  39.859   1.698
64209W        W36502   1.774  15.811   3.868
64210W        W36503  35.065  19.595  11.872
64211W        W36504  32.442  22.054  13.894
64212W        W36505  35.519   6.893   1.818
64213W        W36506  25.039  42.487  12.540
64214W        W36507  23.987  39.374  12.484
64215W        W36508   8.366   6.680   3.856
64216W        W36509  37.944  20.270   3.637
64217W        W36510  11.638   7.230  13.835
64218W        W36511   5.196  27.958   4.181
64219W        W36512  10.649  16.728   2.383
64220W        W36513  38.924   3.419  14.470
64221W        W36514  12.761  34.941   3.339
64222W        W36515   5.782  16.689   2.393
64223W        W36516  35.457  40.987  11.063
64224W        W36517  38.555  23.192  14.500
64225W        W36518  25.617   3.746   1.890
64226W        W36519  42.934  12.631   3.327
64227W        W36520  16.633   0.337  13.314
64228W        W36521   3.792  15.278   2.367
64229W        W36522  23.201  20.741   2.224
64230W        W36523  14.235   9.698   1.274
64231W        W36524  27.498  15.175  10.903
64232W        W36525  13.622   2.380   3.688
64233W        W36526  31.106   6.799  10.994
64234W        W36527  32.899   6.923  11.040
64235W        W36528  14.642  18.181   4.737
64236W        W36529  24.074  34.980  11.039
64237W        W36530  21.220   9.200   0.882
64238W        W36531  41.952  29.564  12.857
64239W        W36532  19.101  14.103   4.641
64240W        W36533  43.488  23.653   3.634
64241W        W36534  38.947  14.120   3.709
64242W        W36535  10.786  17.119  14.486
64243W        W36536  20.703   6.260  12.062
64244W        W36537  31.571  18.566  12.915
64245W        W36538  10.160  17.640   4.133
64246W        W36539   2.850  26.166   1.279
64247W        W36540   3.257  27.195   3.744
64248W        W36541  25.645  19.160   2.692
64249W        W36542   3.838  15.705   4.291
64250W        W36543  13.126   9.368   4.723
64251W        W36544  22.543   6.716  12.001
64252W        W36545  35.501   8.871  14.803
64253W        W36546   1.864  36.986  12.971
64254W        W36547   8.235  32.577  12.542
64255W        W36548  36.479  38.957   4.306
64256W        W36549  44.425  32.935   1.899
64257W        W36550  35.867   0.966  11.066
64258W        W36551  19.622  43.422   4.669
64259W        W36552  34.570  28.678   2.677
64260W        W36553  14.647  10.321  13.048
64261W        W36554  40.394  43.913   2.664
64262W        W36555  13.717  27.168   3.173
64263W        W36556  37.869  26.476  14.793
64264W        W36557  19.078  33.995   3.724
64265W        W36558  38.372  18.624  11.069
64266W        W36559  25.016  17.271   5.144
64267W        W36560  44.467   4.203   4.309
64268W        W36561  39.425   7.393   3.294
64269W        W36562  13.318  26.688  11.905
64270W        W36563  37.359  28.141   1.879
64271W        W36564  23.502   1.951   5.688
64272W        W36565  13.804   5.893  14.014
64273W        W36566   3.391  40.353  11.077
64274W        W36567  27.597  43.296  12.839
64275W        W36568  11.352  32.887   4.208
64276W        W36569  27.665  44.001   4.166
64277W        W36570  20.645   8.398  10.633
64278W        W36571  18.146  10.763  12.514
64279W        W36572   5.895  14.794  10.620
64280W        W36573  24.518  41.516   2.395
64281W        W36574  11.725  22.532  13.889
64282W        W36575  29.446  24.094   2.899
64283W        W36576  35.019  26.954   2.340
64284W        W36577  11.217  10.673   0.320
64285W        W36578  15.177  13.342  14.813
64286W        W36579   1.845  11.222   0.905
64287W        W36580  29.960  35.402  13.481
64288W        W36581  42.777  10.752   0.900
64289W        W36582  42.003  20.607  10.596
64290W        W36583  18.129  35.370   2.766
64291W        W36584  29.650   0.888  11.570
64292W        W36585  32.546  21.054   3.793
64293W        W36586  37.830  32.429   0.954
64294W        W36587  14.808  20.581   2.700
64295W        W36588   8.759  42.409  11.892
64296W        W36589  25.177  36.413  13.972
64297W        W36590   3.286  25.064   4.125
64298W        W36591  44.473  13.194  11.402
64299W        W36592  26.039  29.535   2.744
64300W        W36593  43.515  43.772  12.399
64301W        W36594  42.944  33.575  11.043
64302W        W36595  32.020  38.466  11.025
64303W        W36596   2.417  36.360  12.019
64304W        W36597   5.814  12.703  11.900
64305W        W36598  15.800  29.155   0.731
64306W        W36599  20.582  36.488   0.351
64307W        W36600  21.022  32.000  13.431
64308W        W36601   7.894  39.857   4.324
64309W        W36602  10.799  11.719  13.346
64310W        W36603   1.765   0.282  11.081
64311W        W36604  20.522  33.535  14.382
64312W        W36605  34.509   2.253   4.206
64313W        W36606  23.107  11.637  10.924
64314W        W36607  40.530   2.423  12.929
64315W        W36608  19.263  42.778   4.827
64316W        W36609  43.464   5.748  13.885
64317W        W36610  13.758  12.734   3.754
64318W        W36611  27.449   9.650  13.059
64319W        W36612  19.204  20.625   1.342
64320W        W36613  22.126  25.128   3.212
64321W        W36614  34.559  41.983   4.236
64322W        W36615  28.576   2.462   4.765
64323W        W36616  15.596  30.117  14.512
64324W        W36617  38.455  44.898  10.441
64325W        W36618  44.926  22.118  11.880
64326W        W36619  43.935  18.587   4.310
64327W        W36620  19.745   0.294  13.947
64328W        W36621  36.901  38.842   0.965
64329W        W36622   6.775  22.098  14.296
64330W        W36623  21.029  31.485  10.607
64331W        W36624  21.635   9.341  11.039
64332W        W36625  19.202  44.775  14.310
64333W        W36626   5.330  21.249  10.473
64334W        W36627  36.053  43.937  10.443
64335W        W36628  39.436  35.507   2.775
64336W        W36629   4.371  26.650  12.535
64337W        W36630   8.828  21.242   0.941
64338W        W36631  43.304  11.662   3.276
64339W        W36632   6.234  32.523  14.469
64340W        W36633   8.406  37.081  13.938
64341W        W36634  14.702  22.100  11.065
64342W        W36635  23.082  24.632   0.462
64343W        W36636  32.510  14.781  13.965
64344W        W36637  20.177  34.431  14.959
64345W        W36638  41.525  24.585  10.565
64346W        W36639   7.223  38.552   4.187
64347W        W36640  33.991  43.453   1.761
64348W        W36641  19.104   6.891  11.046
64349W        W36642   5.840  14.640  12.938
64350W        W36643   6.226  15.788   3.245
64351W        W36644  14.663  21.196   1.378
64352W        W36645  31.493  22.612  11.064
64353W        W36646  26.177  13.109   4.137
64354W        W36647   0.333  35.572  13.470
64355W        W36648  27.040  42.023   4.644
64356W        W36649  34.525  14.304   4.620
64357W        W36650  24.635  35.931   1.386
64358W        W36651  34.988  25.004   2.833
64359W        W36652   4.776  13.284   4.212
64360W        W36653  25.183   3.301   0.409
64361W        W36654  38.500  25.036   2.332
64362W        W36655  23.013   3.330   4.746
64363W        W36656  25.662  12.252  14.296
64364W        W36657  15.328  24.136  14.016
64365W        W36658  38.416   2.770  14.797
64366W        W36659  20.117  43.772   2.866
64367W        W36660  24.134   1.236   2.839
64368W        W36661  15.170  14.214  11.465
64369W        W36662  37.836   1.316  10.574
64370W        W36663  24.000   7.819  13.352
64371W        W36664  35.107  40.366  14.961
64372W        W36665  29.584  19.205   1.912
64373W        W36666  22.165  36.847  12.858
64374W        W36667  40.019  28.991   3.791
64375W        W36668  31.544  32.930   2.848
64376W        W36669  31.934  31.980  12.009
64377W        W36670   6.411   4.313  10.030
64378W        W36671   8.301  16.261  13.801
64379W        W36672  35.584  43.403  14.955
64380W        W36673   6.745   3.874  14.871
64381W        W36674  30.416  14.612  14.951
64382W        W36675   0.360  42.778   3.815
64383W        W36676  22.117  15.182   1.317
64384W        W36677  15.590  23.200   3.756
64385W        W36678  36.564  12.761  10.532
64386W        W36679  11.844   8.246   1.903
64387W        W36680  20.228  37.035  14.420
64388W        W36681   8.811  37.420   4.785
64389W        W36682  11.191  41.385   4.216
64390W        W36683  28.638  21.165  11.074
64391W        W36684  40.379  31.083   4.205
64392W        W36685   4.883  19.208   2.794
64393W        W36686  17.623  26.469   4.154
64394W        W36687  44.262  29.934   1.320
64395W        W36688  10.259  33.594   2.857
64396W        W36689  10.857  24.603   3.271
64397W        W36690   3.806   5.356  11.513
64398W        W36691  25.128   1.287  10.464
64399W        W36692  18.714   7.885  14.970
64400W        W36693   3.781   1.459  12.455
64401W        W36694  18.655  25.035   0.791
64402W        W36695  31.951  24.653   3.796
64403W        W36696  21.588  42.852   4.319
64404W        W36697  21.550  35.901   3.194
64405W        W36698  15.763  37.553   9.981
64406W        W36699  17.089  19.051   1.718
64407W        W36700  36.892  34.026   4.727
64408W        W36701  27.124  17.658   1.293
64409W        W36702   9.212   7.247  10.506
64410W        W36703  19.664  26.648   3.243
64411W        W36704  23.564   3.902  13.057
64412W        W36705  37.955  22.172  14.980
64413W        W36706  38.931  19.621   3.864
64414W        W36707   5.315  28.962  12.846
64415W        W36708  21.125  13.671  12.501
64416W        W36709   9.212   4.420   4.678
64417W        W36710  16.756   4.224  14.407
64418W        W36711   6.897  35.397  13.345
64419W        W36712  15.314  39.323   1.336
64420W        W36713   1.376  27.676   1.410
64421W        W36714  25.086  24.134  10.422
64422W        W36715   2.468  10.205   0.373
64423W        W36716   4.826  30.071   0.347
64424W        W36717   5.202  40.817   2.882
64425W        W36718  23.188  31.005  10.913
64426W        W36719   0.934  18.783  11.492
64427W        W36720  39.336  22.093  14.415
64428W        W36721  43.930  44.505   3.343
64429W        W36722  30.062  10.244   4.312
64430W        W36723   4.333  33.112  11.487
64431W        W36724  44.421  25.089  10.597
64432W        W36725  16.785  41.822  12.407
64433W        W36726   2.904  22.641   4.727
64434W        W36727  31.523  15.192  10.532
64435W        W36728  34.077  44.304   3.643
64436W        W36729  23.492  39.840  13.399
64437W        W36730  20.749  29.562  11.393
64438W        W36731   8.260   2.958  10.567
64439W        W36732  24.035   4.932   1.432
64440W        W36733  23.135   2.450   1.407
64441W        W36734  25.615  24.526   2.783
64442W        W36735   1.287  41.814  12.089
64443W        W36736  35.554  23.646  13.460
64444W        W36737  36.423  26.111   0.907
64445W        W36738  16.623  27.612   4.639
64446W        W36739   6.333   6.395   0.789
64447W        W36740   7.835  35.105   1.809
64448W        W36741  10.815  41.412  14.862
64449W        W36742   6.845  24.089   1.869
64450W        W36743   9.881  30.463  13.017
64451W        W36744  10.809  38.856   0.854
64452W        W36745  41.435  35.383  13.052
64453W        W36746  23.735   5.386  14.862
64454W        W36747   6.915  22.500   0.933
64455W        W36748  35.517  29.982   0.346
64456W        W36749   6.359  29.107  11.580
64457W        W36750   3.254  24.072   1.822
64458W        W36751  10.344   9.352  14.407
64459W        W36752  28.524  18.729   2.816
64460W        W36753  24.183  28.440   4.619
64461W        W36754   1.416  22.593   4.654
64462W        W36755   5.308  19.540   1.256
64463W        W36756  18.661  14.624  14.805
64464W        W36757  15.686  36.900  12.393
64465W        W36758  28.116  37.940  13.340
64466W        W36759  43.959  28.611   4.745
64467W        W36760  22.614   5.399   3.796
64468W        W36761  36.989  32.065   1.886
64469W        W36762  31.951  19.080  12.550
64470W        W36763  11.301  30.561   2.663
64471W        W36764  26.027  27.486  13.509
64472W        W36765  15.802  29.598  10.588
64473W        W36766  37.907  11.741   0.300
64474W        W36767  43.278  40.993   4.311
64475W        W36768   0.411  43.841  13.806
64476W        W36769  35.458   6.868   1.297
64477W        W36770  16.167  39.327   2.876
64478W        W36771  40.900  25.053   4.741
64479W        W36772  26.058   0.308   1.827
64480W        W36773   9.860  10.758  14.925
64481W        W36774   1.882  41.904   0.759
64482W        W36775  17.095  23.176  14.969
64483W        W36776   8.246  35.419   1.402
64484W        W36777  26.192   4.444   4.206
64485W        W36778  30.541  28.443   4.814
64486W        W36779  22.065  43.339  11.948
64487W        W36780  19.058  22.009  12.553
64488W        W36781  24.706  36.986  12.420
64489W        W36782  15.761  26.570  14.385
64490W        W36783   7.323  43.843   0.895
64491W        W36784  32.475  36.399   3.843
64492W        W36785  24.042   7.776   3.257
64493W        W36786  16.569  14.634   1.865
64494W        W36787  37.354  19.698   4.824
64495W        W36788  29.119  23.103  13.999
64496W        W36789   1.252   8.743   4.155
64497W        W36790  12.273  11.777  14.427
64498W        W36791  23.633  21.257  13.006
64499W        W36792  16.791  14.282  13.358
64500W        W36793  13.178  32.543   3.307
64501W        W36794  13.840  29.935   3.239
64502W        W36795  34.613  12.727   2.711
64503W        W36796  32.564   4.267  12.353
64504W        W36797  27.543  41.392  11.433
64505W        W36798  23.595  35.559  13.354
64506W        W36799   1.341  22.684  12.381
64507W        W36800  17.617   5.335   2.232
64508W        W36801  17.299  20.128   2.759
64509W        W36802  30.145  31.928  10.973
64510W        W36803   3.320  17.111   2.337
64511W        W36804  18.105  17.712  11.943
64512W        W36805  23.686  40.496  10.517
64513W        W36806  32.943  28.167  11.059
64514W        W36807   7.870  36.011  13.458
64515W        W36808  28.678  25.144   2.846
64516W        W36809  17.283  33.995   0.309
64517W        W36810  16.630  27.945  14.326
64518W        W36811  23.550  39.916  12.374
64519W        W36812  20.722  33.502  13.029
64520W        W36813   6.737  39.323   1.242
64521W        W36814  18.160  14.595   4.242
64522W        W36815  16.611  15.248   2.217
64523W        W36816  26.592   3.769  12.068
64524W        W36817   6.886  35.922  11.427
64525W        W36818  18.251  12.348  12.940
64526W        W36819   7.804  38.498   4.325
64527W        W36820  22.996   7.879  11.053
64528W        W36821   7.832   2.943   3.829
64529W        W36822  24.223  30.638   3.760
64530W        W36823  44.440  30.474  10.573
64531W        W36824   6.695  24.623  11.043
64532W        W36825  26.117  29.167  11.923
64533W        W36826   6.200  20.524  14.301
64534W        W36827  39.390  30.075  11.043
64535W        W36828  10.668  15.276   3.157
64536W        W36829  18.783  42.824  14.785
64537W        W36830  30.070  13.107   3.859
64538W        W36831   1.956  19.200  14.463
64539W        W36832   2.369  24.081   3.193
64540W        W36833   3.294   7.386  10.443
64541W        W36834   3.740  25.189  10.084
64542W        W36835   2.420  32.504  14.424
64543W        W36836  23.491  41.845  13.378
64544W        W36837  17.277  39.408  14.388
64545W        W36838  11.211   6.293   1.318
64546W        W36839  23.679  26.061   0.939
64547W        W36840  11.653  13.772   2.373
64548W        W36841  43.487  26.984  13.482
64549W        W36842  28.064  13.631  12.547
64550W        W36843  22.252  26.506  14.428
64551W        W36844   0.454  23.680   0.743
64552W        W36845   6.228  44.266   0.878
64553W        W36846  16.602  23.106  13.452
64554W        W36847  21.074  39.969   4.637
64555W        W36848   6.246  19.254  11.077
64556W        W36849  26.119  33.616  10.934
64557W        W36850   2.939  14.630   2.319
64558W        W36851   5.226  12.281  12.007
64559W        W36852  40.525  26.147  13.956
64560W        W36853  24.576  19.776  10.600
64561W        W36854  43.903   6.833  14.858
64562W        W36855   0.326   8.325   4.186
64563W        W36856  14.782   3.254  11.475
64564W        W36857  16.655  21.682  14.987
64565W        W36858  42.418   2.277  11.976
64566W        W36859  44.928  44.916   0.910
64567W        W36860  28.018   6.288  10.978
64568W        W36861  17.071  27.624   4.183
64569W        W36862  26.552  27.066  12.419
64570W        W36863  12.153  10.170   3.658
64571W        W36864  38.985  18.645  11.424
64572W        W36865  28.556   5.921  14.399
64573W        W36866  32.910  35.496  12.032
64574W        W36867  25.476  30.624   0.879
64575W        W36868  40.874  16.234   1.733
64576W        W36869  39.438  12.211  11.113
64577W        W36870  31.412  35.587   2.368
64578W        W36871  40.040  13.846   0.376
64579W        W36872   9.293   0.436  13.057
64580W        W36873  10.867  36.590  13.003
64581W        W36874  17.660  29.928   2.717
64582W        W36875  41.388  37.034  13.846
64583W        W36876  29.656  13.330  12.560
64584W        W36877   5.793  15.752  12.473
64585W        W36878   6.385  32.482  14.998
64586W        W36879   4.428  33.984  13.364
64587W        W36880  19.042   7.288  12.516
64588W        W36881  13.637  33.020  13.011
64589W        W36882  12.730   8.209   4.295
64590W        W36883   2.889  27.001   0.734
64591W        W36884  12.610  38.330   1.213
64592W        W36885  19.567  23.516  14.993
64593W        W36886   6.909  17.191   4.822
64594W        W36887  42.781  16.606  10.098
64595W        W36888  18.188   5.389  13.496
64596W        W36889   5.693  10.383   1.294
64597W        W36890  30.909   4.444  14.878
64598W        W36891   4.773  38.052  11.923
64599W        W36892  41.873  29.510  12.495
64600W        W36893  33.409  41.870  12.376
64601W        W36894  13.813  13.788  10.972
64602W        W36895  31.099   5.906  13.462
64603W        W36896   4.706  28.929  10.487
64604W        W36897  12.247  10.873  12.041
64605W        W36898  43.478   2.433  13.314
64606W        W36899  25.516  39.419   3.632
64607W        W36900  20.262  40.498  12.031
64608W        W36901   8.389   8.330   2.765
64609W        W36902  25.123  19.596   3.380
64610W        W36903  10.689  12.277   0.956
64611W        W36904  16.097   5.206   4.763
64612W        W36905   6.355  25.699   0.425
64613W        W36906   6.745  37.542  13.914
64614W        W36907  18.589   7.408   5.269
64615W        W36908  26.583   6.271   3.747
64616W        W36909  12.856  43.000  14.446
64617W        W36910   3.720  37.056  13.461
64618W        W36911  13.785   2.451  10.149
64619W        W36912  13.783  21.724  11.450
64620W        W36913  40.521  19.646   3.642
64621W        W36914  29.110  31.019  10.481
64622W        W36915   8.887  30.113  13.383
64623W        W36916  27.119  40.523  13.349
64624W        W36917  37.058  22.070  13.988
64625W        W36918  42.829   2.422   3.380
64626W        W36919  17.206  38.526   1.705
64627W        W36920  25.592  10.282  11.478
64628W        W36921  40.355  28.952   1.382
64629W        W36922   9.260  21.103  12.904
64630W        W36923  37.015   1.921  13.464
64631W        W36924  27.686   4.312   1.277
64632W        W36925  17.565  29.953  12.036
64633W        W36926  39.988  23.512  14.379
64634W        W36927  19.533  20.233  10.497
64635W        W36928  22.741   0.896   0.872
64636W        W36929  40.040  12.778  11.098
64637W        W36930  24.181  12.825  11.942
64638W        W36931  44.347  30.064  10.969
64639W        W36932  21.025  22.189  12.856
64640W        W36933  43.340  27.021  12.046
64641W        W36934  40.544  19.232  10.963
64642W        W36935  37.006  12.753   2.373
64643W        W36936  15.804  35.387   1.765
64644W        W36937  10.823   6.250  12.401
64645W        W36938  40.039   1.260   0.344
64646W        W36939  22.118  43.303  12.341
64647W        W36940  27.970  35.402  13.424
64648W        W36941  18.252  13.676  13.331
64649W        W36942  21.730  24.997   2.242
64650W        W36943  12.326  38.336   4.777
64651W        W36944  10.257   8.288   4.706
64652W        W36945  13.122  17.177   1.730
64653W        W36946  17.061  43.008   0.952
64654W        W36947  15.213  17.616   3.662
64655W        W36948  28.122  36.095   4.320
64656W        W36949  32.059  27.971  11.099
64657W        W36950   8.217  43.372  12.429
64658W        W36951   8.323   5.389   2.202
64659W        W36952  17.084  31.633   2.793
64660W        W36953   0.795  28.041  11.472
64661W        W36954  25.145   6.356  11.972
64662W        W36955   7.209  18.244  14.792
64663W        W36956  18.638  31.086  12.470
64664W        W36957  27.187  29.037  13.052
64665W        W36958  42.897  25.683   0.350
64666W        W36959  40.895  21.653   2.328
64667W        W36960   0.979  18.743  12.427
64668W        W36961  41.487  29.093   2.394
64669W        W36962  14.214   0.262   0.360
64670W        W36963  32.923  11.673   2.227
64671W        W36964  31.145  11.699   3.323
64672W        W36965  40.546  27.576  12.885
64673W        W36966  19.765  26.978  10.629
64674W        W36967  16.758  18.771   1.283
64675W        W36968   5.219  22.745   4.336
64676W        W36969  32.482  40.926   4.638
64677W        W36970  32.992   9.352  14.941
64678W        W36971  11.249  26.095   2.261
64679W        W36972  36.035   0.415  13.390
64680W        W36973   1.805  10.764  14.883
64681W        W36974  13.311  12.655   1.796
64682W        W36975  28.154  12.704  11.535
64683W        W36976  10.792  32.551   4.687
64684W        W36977  33.581   8.271   0.846
64685W        W36978   7.785   9.233   2.385
64686W        W36979  28.106   6.697  12.888
64687W        W36980  16.169  40.941  10.519
64688W        W36981  38.544  35.023   3.385
64689W        W36982  20.028  32.608   0.280
64690W        W36983   5.804  36.054   3.643
64691W        W36984  11.688  35.561  10.439
64692W        W36985  43.831  10.367  14.846
64693W        W36986   5.204   3.239  14.960
64694W        W36987   0.333  43.873  14.377
64695W        W36988   7.282  35.459  12.989
64696W        W36989  23.029  18.070   2.209
64697W        W36990   9.392  38.995  10.442
64698W        W36991  33.595  35.051   4.744
64699W        W36992  25.127  37.419   4.697
64700W        W36993  42.429  43.301  13.372
64701W        W36994   6.397  40.844  14.840
64702W        W36995  43.965   3.238   9.996
64703W        W36996  24.589  11.128   2.354
64704W        W36997  41.905   2.391  11.976
64705W        W36998  13.150  21.588   3.297
64706W        W36999  28.098  43.964   4.764
64707W        W37000   0.470  12.683  12.452
64708W        W37001  31.466  37.021   1.804
64709W        W37002  21.170  23.674  12.412
64710W        W37003  17.761  42.883   4.611
64711W        W37004  31.916   0.797   3.663
64712W        W37005  33.959   7.194   2.792
64713W        W37006  31.401   0.952   1.859
64714W        W37007  16.315  37.336   2.795
64715W        W37008  20.710  44.885   2.770
64716W        W37009  19.551  34.614  13.938
64717W        W37010   1.367  26.480  14.999
64718W        W37011  12.358  21.197   2.222
64719W        W37012  30.606  40.798  13.058
64720W        W37013  10.384  39.020   2.237
64721W        W37014  42.987  24.673  13.857
64722W        W37015   0.372  40.532  11.026
64723W        W37016  35.037  21.252  10.627
64724W        W37017   5.742   0.314  13.036
64725W        W37018  22.705  39.522  11.960
64726W        W37019   1.801  13.203  12.573
64727W        W37020  25.507  37.973  10.408
64728W        W37021   6.290  22.016   3.196
64729W        W37022  26.609  24.125   1.296
64730W        W37023   9.707  24.148  13.950
64731W        W37024  29.034   1.284  12.349
64732W        W37025  41.006  19.594   4.732
64733W        W37026  43.406   6.745  11.108
64734W        W37027  42.797  25.190  11.460
64735W        W37028  31.439  40.823   2.891
64736W        W37029  22.214  22.205   4.317
64737W        W37030  42.973  38.885  10.513
64738W        W37031  40.324  32.043  12.538
64739W        W37032  19.725  36.590  14.445
64740W        W37033  33.547  30.102  14.479
64741W        W37034  28.147  35.492   2.815
64742W        W37035  14.217   6.323   1.250
64743W        W37036  24.055   9.811   2.195
64744W        W37037  17.102  44.768  14.875
64745W        W37038  42.940  36.940   2.338
64746W        W37039  41.385  17.728  13.390
64747W        W37040  15.643  20.262   3.832
64748W        W37041   3.854   1.444  11.470
64749W        W37042   8.257   3.278   2.256
64750W        W37043  11.863   7.292  13.501
64751W        W37044  19.537   1.291   3.743
64752W        W37045  10.749  20.755  14.847
64753W        W37046  18.110  41.006  11.546
64754W        W37047   5.230  42.895  14.421
64755W        W37048  41.838  27.980   3.853
64756W        W37049  35.603  25.127   2.285
64757W        W37050   0.882  30.485  14.993
64758W        W37051   1.345  23.204  13.389
64759W        W37052  18.762   3.908  12.905
64760W        W37053  35.462  15.099  12.415
64761W        W37054  37.397  36.580   0.265
64762W        W37055  22.243   1.351   3.837
64763W        W37056  39.054  37.414  10.422
64764W        W37057  29.485  35.541  10.408
64765W        W37058  27.997   4.253  12.366
64766W        W37059  44.856  16.664   3.186
64767W        W37060  39.040  44.999  11.425
64768W        W37061  15.823  31.568   0.331
64769W        W37062  32.113  43.979   4.265
64770W        W37063  33.956   6.757  14.960
64771W        W37064  25.484   3.227  12.962
64772W        W37065  24.659  44.840   4.686
64773W        W37066   7.756   7.268  14.505
64774W        W37067  38.376  19.263  12.384
64775W        W37068   5.898  31.483   1.740
64776W        W37069  39.927   8.214   4.796
64777W        W37070  29.465  33.588   3.337
64778W        W37071   4.308  24.096   4.317
64779W        W37072   2.951   8.161  11.461
64780W        W37073  11.786  18.630  14.836
64781W        W37074   3.341  40.434  12.346
64782W        W37075  22.014  14.640   0.392
64783W        W37076  30.585  28.107  10.437
64784W        W37077  29.487   4.450  11.567
64785W        W37078   6.340  20.036   3.715
64786W        W37079  12.353   8.753   4.320
64787W        W37080  27.087  41.931   2.359
64788W        W37081  32.452   6.184  12.552
64789W        W37082   5.383  19.066   1.917
64790W        W37083  31.013   1.948  10.987
64791W        W37084  39.032   7.704   3.704
64792W        W37085  39.829  21.174   1.233
64793W        W37086  14.252  26.161  13.033
64794W        W37087  44.772  38.832   3.721
64795W        W37088  23.630  22.148   0.349
64796W        W37089  17.123   0.357   1.388
64797W        W37090  44.419  20.592   0.946
64798W        W37091   3.398  19.054  10.446
64799W        W37092  12.694  33.397  13.907
64800W        W37093  38.467  26.080  12.016
64801W        W37094   0.473  27.495  11.039
64802W        W37095  10.167  12.164   4.664
64803W        W37096  42.000   3.237  12.987
64804W        W37097  18.242  34.009   9.999
64805W        W37098   3.289  29.508  14.419
64806W        W37099  33.513   1.418  10.629
64807W        W37100  28.953  43.016   3.308
64808W        W37101  19.248  11.674   4.690
64809W        W37102  13.105   8.890   1.727
64810W        W37103  26.984   0.460   0.943
64811W        W37104  38.855  30.638  14.478
64812W        W37105  20.239   7.255   4.203
64813W        W37106  31.996  28.941  14.855
64814W        W37107  34.074  32.131  12.097
64815W        W37108  38.997  29.068  13.370
64816W        W37109  25.617  35.940   3.803
64817W        W37110  23.158  10.299   2.789
64818W        W37111  29.132  15.258  13.038
64819W        W37112  39.997   7.190   4.283
64820W        W37113   3.296  10.228   1.357
64821W        W37114  18.171  38.000   0.923
64822W        W37115  12.236   6.235  13.896
64823W        W37116  21.058   3.218   1.262
64824W        W37117   0.864  17.242   3.272
64825W        W37118  33.952  26.659  14.906
64826W        W37119  30.977  34.522   0.358
64827W        W37120  19.763   7.808   5.145
64828W        W37121  19.278  12.298   2.195
64829W        W37122  34.897  32.985  11.000
64830W        W37123  30.973   4.826   2.384
64831W        W37124  41.332  19.559   0.314
64832W        W37125   7.254  22.141   2.735
64833W        W37126  44.937  15.161   1.810
64834W        W37127  37.011   9.769  13.455
64835W        W37128   1.794  19.536   2.343
64836W        W37129  10.209  31.628  13.520
64837W        W37130  34.093  43.880  11.570
64838W        W37131  25.001  28.126  10.893
64839W        W37132  35.519   7.388  14.290
64840W        W37133  44.486   5.228   1.363
64841W        W37134  13.624  22.074   4.211
64842W        W37135   1.461   2.747  12.043
64843W        W37136  43.367  12.776  13.934
64844W        W37137  36.571   8.659   4.204
64845W        W37138   6.845  22.228   3.735
64846W        W37139  44.496  31.027   0.337
64847W        W37140   4.884  10.657  13.433
64848W        W37141  34.446  39.037   4.817
64849W        W37142   3.343  10.696   2.300
64850W        W37143   2.373   5.250  13.811
64851W        W37144   2.895  34.511   4.274
64852W        W37145  22.547  22.524  11.116
64853W        W37146   3.827  27.167  13.061
64854W        W37147  40.499  21.547  12.524
64855W        W37148  19.535  32.449  12.880
64856W        W37149  27.463  21.107  11.450
64857W        W37150  19.082  29.037  14.898
64858W        W37151   1.826  38.521  13.545
64859W        W37152  18.615  40.430   0.770
64860W        W37153   0.333  17.273   1.717
64861W        W37154  38.472  17.223   0.957
64862W        W37155  36.453  14.300  14.445
64863W        W37156  37.992  14.139   3.151
64864W        W37157  28.080   6.798   2.382
64865W        W37158  25.066   2.824   5.630
64866W        W37159  42.419   8.699   1.408
64867W        W37160  20.071   6.794  13.533
64868W        W37161  14.685  34.505   0.276
64869W        W37162  16.644  21.610   2.865
64870W        W37163  15.666  34.428  13.354
64871W        W37164  37.932  18.272  10.405
64872W        W37165  18.611  29.010  12.372
64873W        W37166  30.090  19.126  13.505
64874W        W37167  23.036   1.745  11.874
64875W        W37168  14.741  44.870  11.949
64876W        W37169  33.958  22.241   2.859
64877W        W37170  44.855  20.745  10.447
64878W        W37171  39.440  11.764   1.852
64879W        W37172   4.804   8.202   4.186
64880W        W37173   2.937   6.777  14.812
64881W        W37174  17.176  30.445  11.599
64882W        W37175  16.240  20.170  12.890
64883W        W37176   3.253  29.445   3.747
64884W        W37177   5.858  30.653  14.324
64885W        W37178  33.543  44.790   0.314
64886W        W37179   0.873  13.707   0.419
64887W        W37180  34.103  18.633  13.419
64888W        W37181  13.119  29.595  11.492
64889W        W37182  28.556  21.567   5.582
64890W        W37183  12.313  31.424   4.232
64891W        W37184  19.578  19.616  14.899
64892W        W37185   1.459  16.164   0.818
64893W        W37186   9.781  40.929  12.413
64894W        W37187  44.804  36.885   3.380
64895W        W37188  21.020  12.352   0.427
64896W        W37189  39.991  43.383   1.818
64897W        W37190  40.306  23.558  10.604
64898W        W37191  38.911  17.088   2.848
64899W        W37192  40.327  16.736   1.744
64900W        W37193   9.287  12.337   2.886
64901W        W37194  38.424  10.274   1.790
64902W        W37195  16.688  39.959  14.465
64903W        W37196   8.699  37.042  11.910
64904W        W37197  37.551  33.886  12.340
64905W        W37198   7.895  44.324  11.592
64906W        W37199  41.506   0.963   1.304
64907W        W37200  43.347  24.068  10.968
64908W        W37201  38.549  23.115  12.997
64909W        W37202   9.370  11.147  13.957
64910W        W37203  42.988  36.505  11.940
64911W        W37204  20.186  41.371  10.634
64912W        W37205  22.172  13.144   1.379
64913W        W37206  38.431  16.648   2.186
64914W        W37207   2.726  28.017   2.847
64915W        W37208   4.932  35.057   1.355
64916W        W37209  44.991  11.241   1.380
64917W        W37210  13.205  17.251  12.958
64918W        W37211  15.275  30.099  14.864
64919W        W37212  14.259  12.618  14.921
64920W        W37213  15.222   9.260   4.179
64921W        W37214   5.426  21.600  12.021
64922W        W37215  32.415   8.779   9.519
64923W        W37216  28.538  10.787   1.780
64924W        W37217   3.880  10.188   9.961
64925W        W37218  10.173   1.296  14.864
64926W        W37219   2.931  33.103  14.985
64927W        W37220   0.864  12.135   1.377
64928W        W37221  34.930  40.514   3.350
64929W        W37222   5.688  35.970  11.613
64930W        W37223  38.396   8.345   1.295
64931W        W37224   6.799   5.209   3.274
64932W        W37225   1.795  32.528   4.265
64933W        W37226   0.359  21.017   0.328
64934W        W37227  27.092  21.758   0.759
64935W        W37228  31.126  25.620  10.549
64936W        W37229  21.231  39.473   3.230
64937W        W37230  32.428  33.906  10.982
64938W        W37231  24.599  16.161  13.997
64939W        W37232  22.143  14.135   0.782
64940W        W37233   8.236  37.549  14.351
64941W        W37234  43.904  21.670   3.301
64942W        W37235  12.304  30.634   3.702
64943W        W37236  12.818   0.353   4.240
64944W        W37237  24.193   9.302  10.959
64945W        W37238  21.206  18.583   4.679
64946W        W37239   1.301   1.784   1.388
64947W        W37240  36.067   3.948  14.317
64948W        W37241  10.289  21.112  14.985
64949W        W37242  42.778  14.802   0.409
64950W        W37243  20.079  11.200  13.809
64951W        W37244  24.099  16.805  13.854
64952W        W37245   8.209  32.405  10.615
64953W        W37246  22.025  11.359  12.388
64954W        W37247   3.715  38.872   3.171
64955W        W37248  12.841  12.761   0.905
64956W        W37249   9.766   5.382  14.391
64957W        W37250  42.979  19.174  11.519
64958W        W37251  33.893  13.177  12.072
64959W        W37252  10.714  20.234  12.350
64960W        W37253  20.095  25.710   4.650
64961W        W37254  43.790  23.718   3.719
64962W        W37255  34.428   3.437  12.007
64963W        W37256  10.267  23.491  11.532
64964W        W37257  21.019  23.597  10.549
64965W        W37258   1.867   7.407  14.984
64966W        W37259  20.146  27.064   1.735
64967W        W37260   8.832  19.086   3.356
64968W        W37261   4.316   2.293   2.243
64969W        W37262  43.889  25.971  13.383
64970W        W37263  11.226  42.809  13.944
64971W        W37264  41.389   1.248   4.817
64972W        W37265  34.531  36.876   1.818
64973W        W37266   2.365   6.820   2.417
64974W        W37267  34.502  29.157  13.014
64975W        W37268   6.301  29.965  12.848
64976W        W37269   8.867  24.635  12.043
64977W        W37270  29.663  26.468  10.583
64978W        W37271  38.390  25.690  14.005
64979W        W37272  17.285  21.251   1.780
64980W        W37273   8.320   0.342   4.156
64981W        W37274   5.758  23.528  13.379
64982W        W37275  12.324  30.610   4.714
64983W        W37276  44.859   5.273   2.700
64984W        W37277  22.670  28.446   3.214
64985W        W37278  29.612   9.869  11.576
64986W        W37279   5.197   7.312   2.794
64987W        W37280  23.609   3.271  12.516
64988W        W37281   0.490  14.337   0.781
64989W        W37282  12.839  15.698   1.297
64990W        W37283  22.023  14.266  11.445
64991W        W37284  24.228  39.925   2.245
64992W        W37285   0.452  30.446   3.241
64993W        W37286  21.516   8.290  14.295
64994W        W37287  32.065  12.669   1.818
64995W        W37288  32.607  29.470   3.637
64996W        W37289  23.077   9.864   2.303
64997W        W37290  37.582  20.644  11.413
64998W        W37291  15.327   8.701  14.423
64999W        W37292  30.440  38.569   2.675
65000W        W37293  44.451  44.497  11.445
65001W        W37294  12.322  11.317   4.203
65002W        W37295  14.216  34.396  14.913
65003W        W37296   6.819   4.926  11.872
65004W        W37297  23.210  34.525  12.082
65005W        W37298  42.783   4.933  11.482
65006W        W37299  24.228   0.271  11.402
65007W        W37300  43.847  24.112   1.769
65008W        W37301  15.796  17.195   4.834
65009W        W37302   7.755  28.445   4.784
65010W        W37303  10.823  23.234   2.273
65011W        W37304  32.555  20.682  14.344
65012W        W37305  38.837  25.150  14.967
65013W        W37306  36.370  21.260  12.839
65014W        W37307  30.628  31.471   1.773
65015W        W37308  19.634  14.761  14.924
65016W        W37309  31.064   2.327  10.602
65017W        W37310  26.517  13.646  14.455
65018W        W37311  12.188  24.996   0.343
65019W        W37312  39.407  32.522   2.192
65020W        W37313  28.182   2.470   2.288
65021W        W37314  40.518  14.818  10.482
65022W        W37315  24.706   5.379  14.354
65023W        W37316  43.917  26.598  14.326
65024W        W37317   6.241  11.863   1.857
65025W        W37318  44.008  16.073   0.404
65026W        W37319  19.579  30.560   4.246
65027W        W37320  31.101  26.570   3.195
65028W        W37321   9.290   2.777  13.000
65029W        W37322  44.968  37.359  11.408
65030W        W37323  27.467  17.248   0.350
65031W        W37324  25.992   8.685   4.813
65032W        W37325   7.713  17.792  14.344
65033W        W37326  36.953  43.361  12.067
65034W        W37327   6.799  17.638   4.636
65035W        W37328   4.751  32.981   3.220
65036W        W37329   3.247  42.354   0.429
65037W        W37330  10.299  13.677   1.377
65038W        W37331   4.440  33.548  11.567
65039W        W37332   2.381  30.587   0.858
65040W        W37333  25.568  27.497   2.699
65041W        W37334  16.204  29.469  13.463
65042W        W37335   5.381  28.640  14.360
65043W        W37336   4.794  12.815  13.063
65044W        W37337  25.113  35.602   4.330
65045W        W37338  38.337  44.815   2.345
65046W        W37339  22.159  38.903  14.355
65047W        W37340  11.356  37.434   4.789
65048W        W37341   6.873  43.514   2.372
65049W        W37342  33.012  33.984  13.544
65050W        W37343   4.711  44.855   2.670
65051W        W37344  13.622   0.361  14.914
65052W        W37345  14.142  37.987  12.423
65053W        W37346  18.269  21.597  13.521
65054W        W37347  39.441  36.430  14.374
65055W        W37348  41.536  20.120  11.904
65056W        W37349  27.584  12.722  10.547
65057W        W37350   8.696  23.143   2.316
65058W        W37351   7.878  10.234   1.411
65059W        W37352  18.283  43.979   2.745
65060W        W37353   0.391   5.211  12.384
65061W        W37354  17.575  34.052  14.801
65062W        W37355  11.760   5.908  14.408
65063W        W37356  26.551  30.912   0.918
65064W        W37357  21.670   8.197   0.281
65065W        W37358  43.001  36.402  13.931
65066W        W37359  14.768   6.859  10.496
65067W        W37360  17.639  29.985   1.877
65068W        W37361  43.839  41.834   4.647
65069W        W37362  40.535  41.802   2.886
65070W        W37363  13.837   8.217  11.029
65071W        W37364   4.291  27.690   3.186
65072W        W37365  27.478  44.490   0.352
65073W        W37366   8.231   1.822  12.459
65074W        W37367  42.419  39.021  14.475
65075W        W37368  41.975  27.636  14.864
65076W        W37369  17.680  40.022  14.758
65077W        W37370  14.102  37.401  12.059
65078W        W37371  11.278  16.315   0.367
65079W        W37372  29.918  27.967   1.738
65080W        W37373   6.372  16.690   1.391
65081W        W37374   4.315  39.029  14.938
65082W        W37375  15.110  21.077   4.319
65083W        W37376  14.727  21.513   2.738
65084W        W37377   8.305   7.402   2.384
65085W        W37378  25.558   2.357  12.922
65086W        W37379  40.347  11.201  12.075
65087W        W37380  29.089  44.874  13.854
65088W        W37381  44.450   1.396   2.866
65089W        W37382  39.890  37.562   0.373
65090W        W37383  33.127  43.412  12.871
65091W        W37384  29.039   8.306  14.340
65092W        W37385   5.284  30.649   1.866
65093W        W37386  28.531   7.333   2.194
65094W        W37387  16.146  13.830  12.473
65095W        W37388   5.433   6.745  12.853
65096W        W37389  38.847   1.352   4.240
65097W        W37390   8.332  31.141  13.312
65098W        W37391   6.408  34.873   2.240
65099W        W37392  43.928  32.080   4.730
65100W        W37393  14.664  34.996  12.032
65101W        W37394   8.246  43.343  13.309
65102W        W37395  35.035   5.257   3.363
65103W        W37396  38.064  26.469   4.805
65104W        W37397  21.243  23.658  11.557
65105W        W37398  10.233  22.195  14.508
65106W        W37399  36.020   6.297  13.809
65107W        W37400  34.995  38.419   1.224
65108W        W37401  41.820   9.815  13.011
65109W        W37402  41.391   7.304  13.057
65110W        W37403  35.557   6.362   0.444
65111W        W37404  23.546   4.353  13.021
65112W        W37405   4.831  28.015   2.813
65113W        W37406  42.931  20.700  12.981
65114W        W37407   0.962  11.241   4.642
65115W        W37408  37.342  17.285   0.891
65116W        W37409   2.872  32.409  12.909
65117W        W37410  44.962  23.024  14.950
65118W        W37411   1.881  22.021  14.956
65119W        W37412   0.988  31.516   3.773
65120W        W37413  14.156  36.059  13.995
65121W        W37414  18.209  31.567   1.349
65122W        W37415  38.058  32.079   2.888
65123W        W37416  10.772  41.040  10.967
65124W        W37417  43.276   7.378   4.823
65125W        W37418   3.440  44.970  11.004
65126W        W37419   5.305  33.012   2.901
65127W        W37420  11.812  24.103  12.855
65128W        W37421   8.900  13.339  12.028
65129W        W37422  31.517   2.867   2.217
65130W        W37423   9.829  35.500  13.460
65131W        W37424   6.235  42.302  12.977
65132W        W37425  28.626  24.578   4.208
65133W        W37426  44.450  31.413   4.124
65134W        W37427  38.407  40.463  11.422
65135W        W37428   3.410  34.087  14.928
65136W        W37429  43.949  37.085   3.662
65137W        W37430  11.301  39.850   2.781
65138W        W37431  27.474  17.176   3.329
65139W        W37432  19.559   8.804  13.417
65140W        W37433  30.908  25.107   5.189
65141W        W37434  18.645   7.857   1.826
65142W        W37435  40.906  27.668  13.814
65143W        W37436  38.993  29.031   9.960
65144W        W37437  28.575   3.326   0.246
65145W        W37438  29.995  26.516  10.495
65146W        W37439  38.539  42.485  11.106
65147W        W37440   6.251  43.856  12.069
65148W        W37441  31.413  26.164   0.948
65149W        W37442  44.499  22.656  13.968
65150W        W37443  43.373  44.772  13.364
65151W        W37444  30.157   5.401   2.345
65152W        W37445  30.460   2.885  11.011
65153W        W37446  27.492  36.069  14.999
65154W        W37447   1.258  42.969  13.900
65155W        W37448  40.522  16.198  13.985
65156W        W37449  43.854   1.858  11.425
65157W        W37450   6.336  43.375   3.300
65158W        W37451   0.467  23.093  10.948
65159W        W37452  20.211  33.564  12.347
65160W        W37453  19.552   3.857  14.023
65161W        W37454  32.128  35.948  12.415
65162W        W37455  28.530   5.768   0.253
65163W        W37456   2.821  28.535   3.817
65164W        W37457  42.884  40.026  13.972
65165W        W37458  36.548   9.791   3.280
65166W        W37459  44.957  23.538  14.924
65167W        W37460  16.122  26.488   3.834
65168W        W37461  43.352   0.304  11.501
65169W        W37462   2.845  21.519   1.737
65170W        W37463  36.074  23.073  14.370
65171W        W37464  22.531  28.521  11.464
65172W        W37465   4.333  16.092   4.782
65173W        W37466  42.022  18.193   2.240
65174W        W37467   2.279  38.873   2.729
65175W        W37468  40.398  23.177   3.644
65176W        W37469  29.925  42.463   3.858
65177W        W37470  25.172   2.229   0.444
65178W        W37471  14.711   1.745   9.510
65179W        W37472  39.065   4.369   3.287
65180W        W37473  24.502   1.356   4.714
65181W        W37474  12.157  19.576  12.517
65182W        W37475   7.795  23.095  14.819
65183W        W37476   2.818  38.888  14.785
65184W        W37477  21.142  17.258  13.003
65185W        W37478   7.726  22.678  10.949
65186W        W37479  10.706  13.831   4.318
65187W        W37480  12.638   6.887  13.441
65188W        W37481  17.727   9.370  10.965
65189W        W37482  22.691   5.436  12.437
65190W        W37483  24.599  11.347  10.546
65191W        W37484  38.457  43.781  12.403
65192W        W37485  30.056  16.311  14.401
65193W        W37486  37.499  16.584  12.995
65194W        W37487  17.710  12.689   0.804
65195W        W37488  25.060   9.676   0.814
65196W        W37489  33.909  23.164   4.319
65197W        W37490  21.120  40.322  12.429
65198W        W37491   7.665  35.107  12.918
65199W        W37492  32.419  31.483  14.803
65200W        W37493  14.179  40.508   1.892
65201W        W37494  18.601   4.844  12.011
65202W        W37495  30.538  39.416   0.838
65203W        W37496  13.607  12.662   1.247
65204W        W37497  30.460   2.460  13.043
65205W        W37498  15.613  15.690   2.705
65206W        W37499  14.790  19.596   4.611
65207W        W37500   3.320   0.912   1.301
65208W        W37501  26.644  23.194   4.181
65209W        W37502  30.420  42.351  11.599
65210W        W37503  32.465  25.714   2.352
65211W        W37504  32.906  19.065  14.017
65212W        W37505   1.750  10.640   1.882
65213W        W37506  27.546  39.054  12.462
65214W        W37507  38.342  12.707  13.416
65215W        W37508  19.765  23.025  14.477
65216W        W37509   9.297  37.413   1.726
65217W        W37510  26.607   0.908   0.957
65218W        W37511   1.925  25.128   0.832
65219W        W37512  27.136  37.546  12.987
65220W        W37513  42.811  15.616  10.982
65221W        W37514  32.416   1.777  14.334
65222W        W37515  32.054   8.836  11.579
65223W        W37516  15.206  32.602  14.985
65224W        W37517   2.771   4.299  10.614
65225W        W37518  24.113   5.821   2.263
65226W        W37519  27.628  33.430  13.318
65227W        W37520  10.333  41.323   1.715
65228W        W37521  20.071   4.209  12.859
65229W        W37522  29.101  10.219  10.529
65230W        W37523  42.362   6.833  12.466
65231W        W37524  13.125  26.975   1.799
65232W        W37525  23.532  33.881   2.193
65233W        W37526  40.001  39.818  14.366
65234W        W37527  27.654   4.266   0.842
65235W        W37528  24.685  16.646  12.876
65236W        W37529  37.406   8.373   2.338
65237W        W37530  20.541  20.134   0.909
65238W        W37531  31.976  17.245  12.355
65239W        W37532  42.513  12.248   4.601
65240W        W37533   9.798  44.359  13.494
65241W        W37534  23.102  22.500   4.783
65242W        W37535  26.978  16.146   0.764
65243W        W37536  21.614  42.006   4.335
65244W        W37537  39.435  14.133   3.681
65245W        W37538   6.261  27.133   1.914
65246W        W37539  37.005  12.252  11.887
65247W        W37540  21.626  25.474  12.358
65248W        W37541   7.894  21.177   0.377
65249W        W37542  34.906  36.485   1.377
65250W        W37543  19.171  21.089  12.900
65251W        W37544  20.182  34.994  10.502
65252W        W37545   9.264   2.241  12.957
65253W        W37546   1.817   1.299  14.812
65254W        W37547  13.811  21.716   1.369
65255W        W37548   6.692  17.777  13.322
65256W        W37549  14.728  13.621  11.526
65257W        W37550  13.842   0.814   2.863
65258W        W37551  26.491  25.553  14.498
65259W        W37552  23.240  14.133  12.464
65260W        W37553  26.586  29.093   3.259
65261W        W37554  30.032  29.539  13.382
65262W        W37555  42.426  39.483  11.543
65263W        W37556   1.480  12.762   3.200
65264W        W37557   1.760  31.422   0.320
65265W        W37558  18.218  10.279  13.969
65266W        W37559  11.157  16.691   1.818
65267W        W37560  29.530  27.968   3.173
65268W        W37561  28.592   1.756  14.937
65269W        W37562  15.694  12.166  12.397
65270W        W37563  19.582   7.260  12.402
65271W        W37564  42.867  38.867  11.056
65272W        W37565  12.676   3.326   4.700
65273W        W37566  35.986   8.302  11.051
65274W        W37567  19.620  44.423  13.819
65275W        W37568  20.595  40.528  14.019
65276W        W37569  33.034  20.033   1.899
65277W        W37570  10.208  11.637  12.393
65278W        W37571   3.311  21.072  12.346
65279W        W37572  18.128  20.138  11.871
65280W        W37573  34.499  21.054   1.246
65281W        W37574  37.531  34.908  14.014
65282W        W37575  20.268  36.983   4.347
65283W        W37576  26.552  39.479  11.056
65284W        W37577  28.455  24.687   3.167
65285W        W37578  32.511  19.760  12.439
65286W        W37579  41.414   7.833  11.414
65287W        W37580  21.581  15.823   5.268
65288W        W37581  12.203   1.809   4.663
65289W        W37582   2.893  36.979  11.463
65290W        W37583  20.667  11.629  10.471
65291W        W37584  28.170  39.862  11.081
65292W        W37585  33.584  33.588  11.492
65293W        W37586   5.379   1.930  11.987
65294W        W37587  11.718  30.000  10.460
65295W        W37588  31.959  38.430   2.182
65296W        W37589  31.032   7.196   3.678
65297W        W37590   6.883  25.040  14.354
65298W        W37591  19.102   0.407  11.521
65299W        W37592  15.132  43.502   0.966
65300W        W37593  24.117  38.373  12.399
65301W        W37594  41.338   6.260  14.396
65302W        W37595  23.142  28.126   2.849
65303W        W37596   1.432  28.957   2.409
65304W        W37597  36.846  40.315   1.323
65305W        W37598   4.936  33.490   2.817
65306W        W37599  36.406  41.017  11.398
65307W        W37600  32.539   9.711  12.942
65308W        W37601  10.737   1.371   0.258
65309W        W37602  10.792   4.400  14.807
65310W        W37603  35.931   0.453  11.109
65311W        W37604  20.104  43.273  13.358
65312W        W37605   1.910   6.351   3.293
65313W        W37606  12.777   9.868   4.661
65314W        W37607  39.486  33.512   0.829
65315W        W37608  21.575   1.959  11.409
65316W        W37609   4.342  28.018   0.889
65317W        W37610   3.946   9.836   0.808
65318W        W37611  31.604  31.431   3.704
65319W        W37612  19.222  25.169   2.302
65320W        W37613  17.092  30.947   4.708
65321W        W37614  18.249  29.656  14.806
65322W        W37615   2.440  35.568  11.993
65323W        W37616  42.480  43.966  12.349
65324W        W37617   2.249  13.745  13.398
65325W        W37618  37.520  22.626  11.600
65326W        W37619  33.442  36.901   2.777
65327W        W37620  17.258   9.699   3.801
65328W        W37621  24.999  32.983  14.820
65329W        W37622  17.186  19.085  11.421
65330W        W37623  39.510   7.803   4.755
65331W        W37624   7.274   1.848   3.298
65332W        W37625  33.453  10.723   4.257
65333W        W37626  21.115  27.048  13.912
65334W        W37627  43.845  37.968   4.286
65335W        W37628  44.435  43.934   3.170
65336W        W37629  29.493   0.286  14.286
65337W        W37630  19.145   2.317   1.287
65338W        W37631  30.926  10.736  12.426
65339W        W37632  41.986  40.322  11.399
65340W        W37633  30.504   6.379   2.334
65341W        W37634   9.243   9.326   4.711
65342W        W37635   0.407  29.076   0.306
65343W        W37636  28.639  22.200  12.554
65344W        W37637  19.237  40.966   2.851
65345W        W37638   1.957   5.875   0.248
65346W        W37639   4.783  31.972   1.394
65347W        W37640  12.676  38.565   3.316
65348W        W37641   7.339  17.209  10.560
65349W        W37642  18.780  42.315   4.765
65350W        W37643  16.221   5.734   3.374
65351W        W37644  32.087  22.179   0.888
65352W        W37645  17.305  18.691  14.287
65353W        W37646  31.905   3.339  13.891
65354W        W37647  23.118   9.681  12.569
65355W        W37648  41.876  18.574   5.641
65356W        W37649  16.577   4.304  11.473
65357W        W37650  18.169  33.473   3.853
65358W        W37651   8.255  22.618   2.251
65359W        W37652  32.087  25.170  11.590
65360W        W37653  33.935  14.286  11.520
65361W        W37654  16.659  24.619  13.892
65362W        W37655  17.224   3.264  10.970
65363W        W37656   7.247  35.399   4.117
65364W        W37657   9.767  13.347   1.382
65365W        W37658  13.660  31.910  12.574
65366W        W37659  22.709  14.219  12.851
65367W        W37660  23.141  12.212   1.229
65368W        W37661  31.011  37.518  10.112
65369W        W37662  40.853  25.614   2.731
65370W        W37663  28.024  32.010  11.107
65371W        W37664  35.372  19.746   2.207
65372W        W37665  11.866  42.847  12.461
65373W        W37666  26.141  11.268   4.691
65374W        W37667  10.273  31.969   1.817
65375W        W37668  32.404  19.272  11.902
65376W        W37669  42.986  40.803  14.979
65377W        W37670  15.172   3.844  12.575
65378W        W37671  19.269  29.642   2.772
65379W        W37672   1.303  21.237  12.901
65380W        W37673  23.714  20.050  13.035
65381W        W37674  44.920   9.175  11.024
65382W        W37675  19.201   2.881   4.758
65383W        W37676   7.693  23.240   1.293
65384W        W37677   9.874  14.677   4.224
65385W        W37678  17.162  32.426  10.965
65386W        W37679   3.925   2.265   2.765
65387W        W37680  35.384  12.301  13.816
65388W        W37681  43.017  21.234  11.599
65389W        W37682  43.896  32.895   0.451
65390W        W37683  44.948  14.770  11.043
65391W        W37684  41.889   7.220  12.854
65392W        W37685  10.694  33.526  13.058
65393W        W37686  24.678  30.969  12.972
65394W        W37687  39.535  44.889  12.518
65395W        W37688  24.136  15.152  12.869
65396W        W37689  37.463  12.671   4.791
65397W        W37690   6.719   0.417  13.924
65398W        W37691  28.494  40.874   2.780
65399W        W37692  31.591  36.083  10.589
65400W        W37693  18.060   9.672   4.125
65401W        W37694  44.272  25.640   2.670
65402W        W37695   7.377  40.012  14.868
65403W        W37696  28.652  22.664   4.126
65404W        W37697  30.121  43.309  13.877
65405W        W37698  32.636  39.876  14.000
65406W        W37699   6.292  17.778  10.603
65407W        W37700  22.179  17.234   2.394
65408W        W37701  27.674  40.816  12.950
65409W        W37702   6.346  17.569  12.577
65410W        W37703   5.739   0.294  10.929
65411W        W37704  21.665  44.470  10.160
65412W        W37705  31.581  11.127   1.260
65413W        W37706  44.778  23.006  10.518
65414W        W37707  13.800  33.385  14.286
65415W        W37708   3.777  36.885   4.648
65416W        W37709  28.512  29.432  12.080
65417W        W37710  38.489  41.306  11.901
65418W        W37711  42.807  19.550   4.255
65419W        W37712   9.294  28.184   3.673
65420W        W37713  20.648  18.696   2.325
65421W        W37714  15.233   0.814   3.801
65422W        W37715   8.370  31.510   4.810
65423W        W37716  37.967  39.338   0.321
65424W        W37717  32.912  38.495  14.505
65425W        W37718   6.276  11.134   2.364
65426W        W37719   2.298  28.550   4.637
65427W        W37720   3.344   0.951  10.507
65428W        W37721  12.272  10.140   1.713
65429W        W37722  22.622  15.193   0.378
65430W        W37723  42.940  20.142  11.420
65431W        W37724  16.757   8.891  14.998
65432W        W37725   7.213  21.080  13.053
65433W        W37726  20.556  35.967   4.803
65434W        W37727  37.936  31.125  13.474
65435W        W37728  16.801  36.489  10.561
65436W        W37729  40.048  17.112  12.490
65437W        W37730   4.740  17.791   3.213
65438W        W37731  23.153  36.015   0.262
65439W        W37732  36.353  35.885   0.907
65440W        W37733  42.896  28.026  12.562
65441W        W37734  30.979  15.201   2.685
65442W        W37735   0.967  17.629  14.845
65443W        W37736  43.386  16.073   1.416
65444W        W37737  11.723   1.849   0.422
65445W        W37738  39.340  26.963  14.470
65446W        W37739  33.528  40.034  12.069
65447W        W37740  36.510  29.592  14.867
65448W        W37741  22.065   3.859   0.299
65449W        W37742  24.700  40.953  14.488
65450W        W37743  23.111  15.590  14.985
65451W        W37744  39.814   6.231   1.841
65452W        W37745  39.010  37.524   3.343
65453W        W37746  28.091  41.437  12.385
65454W        W37747  27.660  20.269  14.383
65455W        W37748  12.283  23.507   0.303
65456W        W37749   9.393  15.154  12.944
65457W        W37750  17.557  30.053   3.184
65458W        W37751  32.440  14.194   2.261
65459W        W37752  37.974   6.291   9.952
65460W        W37753  38.933  17.578  14.460
65461W        W37754  15.266  25.482   3.657
65462W        W37755   7.757  15.743  13.832
65463W        W37756  15.255  29.523  10.611
65464W        W37757  32.583  16.645   1.842
65465W        W37758  41.330  10.367   3.375
65466W        W37759  11.842  32.007  13.021
65467W        W37760  11.714   1.848   3.716
65468W        W37761  24.638  39.490  10.896
65469W        W37762  14.117  34.387   3.692
65470W        W37763  21.748  33.531   5.102
65471W        W37764  15.756  32.397   1.744
65472W        W37765  16.570  25.125  13.039
65473W        W37766   3.747  33.884  13.457
65474W        W37767  31.932  36.851  10.603
65475W        W37768  42.817  18.698   4.603
65476W        W37769  42.985  13.680  14.325
65477W        W37770  28.549   2.881  13.928
65478W        W37771  29.561   1.370   3.322
65479W        W37772   7.848  44.414   0.916
65480W        W37773  26.999  10.761  13.886
65481W        W37774  14.641  22.597  10.971
65482W        W37775   1.735  19.659   0.421
65483W        W37776  12.830   4.248  14.399
65484W        W37777  17.236  17.128  10.571
65485W        W37778   2.300   1.432  12.056
65486W        W37779  12.768  38.007  10.573
65487W        W37780  19.741   6.273  13.026
65488W        W37781  23.077   6.692  11.577
65489W        W37782  33.543  41.472  13.527
65490W        W37783  44.416  39.841   4.284
65491W        W37784  41.397  18.660  11.401
65492W        W37785  43.012  24.568  12.093
65493W        W37786  41.342  10.788  11.554
65494W        W37787  35.021  10.727  11.922
65495W        W37788   7.208  40.528  12.095
65496W        W37789  23.046  33.992   0.799
65497W        W37790   4.308  21.031  10.042
65498W        W37791  22.072  26.065   2.197
65499W        W37792  16.674  38.996  11.109
65500W        W37793  20.034   9.213  12.530
65501W        W37794  12.756   6.850   2.203
65502W        W37795   4.401  26.138   0.360
65503W        W37796  43.348  40.430  12.377
65504W        W37797  40.407  41.438   3.226
65505W        W37798  23.169  42.415  12.075
65506W        W37799  26.006  34.603   2.217
65507W        W37800   3.905   8.844  12.824
65508W        W37801   5.759  21.671  12.903
65509W        W37802  17.096  25.170  14.914
65510W        W37803  15.179  27.976   4.114
65511W        W37804  35.056  13.310  14.309
65512W        W37805   8.274  41.936   1.930
65513W        W37806  24.510  13.154  13.865
65514W        W37807   0.880  28.618  10.940
65515W        W37808  32.900   6.881  13.794
65516W        W37809  17.104  35.374   1.413
65517W        W37810  25.012   7.204  11.454
65518W        W37811  39.430  13.622  14.330
65519W        W37812  28.030   7.401  14.952
65520W        W37813  27.539  32.897  14.287
65521W        W37814   1.288  38.446  14.383
65522W        W37815   3.326  18.257  11.556
65523W        W37816   0.255  33.961  11.857
65524W        W37817  32.119  23.712  13.532
65525W        W37818  19.042  13.157  11.968
65526W        W37819  27.565  38.488  11.006
65527W        W37820  40.032  14.269  13.901
65528W        W37821   5.358   7.211  10.476
65529W        W37822  31.033  30.062  13.839
65530W        W37823  34.039  19.565  10.906
65531W        W37824  21.601  10.762   0.384
65532W        W37825   7.381  42.887   4.165
65533W        W37826   2.349  33.122  11.559
65534W        W37827  16.658  11.274   4.642
65535W        W37828  13.843  21.667  10.941
65536W        W37829  44.265  15.748  14.975
65537W        W37830   6.217  29.108   1.340
65538W        W37831  22.599  16.746   2.325
65539W        W37832  44.943  39.437   4.256
65540W        W37833  38.553  33.465  13.840
65541W        W37834  42.286  29.580   4.598
65542W        W37835   3.871  11.223  11.610
65543W        W37836  11.250  14.235   0.773
65544W        W37837  26.097   4.280   1.917
65545W        W37838   9.733  28.447  13.837
65546W        W37839  23.219  41.434   1.883
65547W        W37840  44.472  28.069   2.377
65548W        W37841  37.397  22.037  10.109
65549W        W37842  14.815  31.517   2.842
65550W        W37843  33.518   2.794   4.613
65551W        W37844   9.848  28.535   2.393
65552W        W37845  13.175   8.670  10.496
65553W        W37846  25.509  30.946  12.932
65554W        W37847  26.530  18.721   2.823
65555W        W37848  40.857   0.871  11.564
65556W        W37849  15.230  36.511   2.350
65557W        W37850  32.623  13.841  14.472
65558W        W37851  33.450   0.378  14.276
65559W        W37852  35.102  23.188  11.543
65560W        W37853  34.939   9.349   4.699
65561W        W37854  36.537  14.656   2.668
65562W        W37855  32.961  18.274   2.383
65563W        W37856  11.285  32.081  14.462
65564W        W37857  28.674  23.575   3.193
65565W        W37858  13.155  33.437  10.990
65566W        W37859  17.678  27.104   2.226
65567W        W37860  18.117  34.950   3.270
65568W        W37861   8.724  31.939  14.300
65569W        W37862  23.039  40.918   0.742
65570W        W37863  19.631  41.961  13.484
65571W        W37864  36.926   7.308  10.637
65572W        W37865  11.693  30.526   5.233
65573W        W37866  10.810   1.767  10.964
65574W        W37867   1.967   8.392  12.018
65575W        W37868  27.034  23.530  14.763
65576W        W37869  29.538  31.124  13.821
65577W        W37870  28.525  22.184  14.027
65578W        W37871   4.699   3.343   3.776
65579W        W37872  12.154  43.391   0.750
65580W        W37873   9.271  24.648  12.385
65581W        W37874  34.610  33.419  10.459
65582W        W37875  35.030   9.719  14.457
65583W        W37876   6.374  15.303   4.829
65584W        W37877  32.114   7.796  13.482
65585W        W37878   1.289  28.615   1.728
65586W        W37879  19.635  11.698   0.289
65587W        W37880  25.527  34.892   4.180
65588W        W37881  19.189   6.208   1.797
65589W        W37882  16.623  21.076  13.987
65590W        W37883   7.888  32.987  11.379
65591W        W37884   1.867  23.578  14.009
65592W        W37885  15.756  27.471  14.985
65593W        W37886   3.352  27.534   4.816
65594W        W37887  14.670   4.882   5.770
65595W        W37888   4.232  32.971   0.861
65596W        W37889  11.772  36.854  10.645
65597W        W37890  13.792  14.279  12.469
65598W        W37891  44.915  33.448   1.267
65599W        W37892   7.891  12.836   3.810
65600W        W37893  28.104  23.603   0.375
65601W        W37894  23.129   2.917   2.752
65602W        W37895  26.472  16.080  11.113
65603W        W37896  22.543  23.523  14.437
65604W        W37897  36.378  12.270  13.538
65605W        W37898  32.561  11.240   3.777
65606W        W37899   1.946  39.884   2.768
65607W        W37900  32.955   1.271  13.368
65608W        W37901  21.132  20.222  13.918
65609W        W37902  21.133  39.982  12.379
65610W        W37903  35.544  19.207   3.846
65611W        W37904   7.356  14.772   1.346
65612W        W37905   1.465  13.761  12.452
65613W        W37906   5.844  36.491  13.397
65614W        W37907  31.072  28.501  12.931
65615W        W37908   3.441  44.973   0.752
65616W        W37909  21.737  39.512  14.395
65617W        W37910  38.925  13.640   3.192
65618W        W37911  32.518  26.132  10.506
65619W        W37912  44.452  35.389  12.072
65620W        W37913  32.420   5.373   1.868
65621W        W37914  10.656  12.680   1.861
65622W        W37915  44.762  31.097   3.661
65623W        W37916  22.691  11.753  14.779
65624W        W37917   2.763  26.123  10.436
65625W        W37918  20.101  28.942  12.956
65626W        W37919  43.475  28.089  11.575
65627W        W37920  44.283  20.748   1.350
65628W        W37921  16.290  31.474  12.508
65629W        W37922   7.729  28.929   4.646
65630W        W37923  22.012  41.417  12.074
65631W        W37924  42.479  24.570   0.765
65632W        W37925  17.171  38.911   9.936
65633W        W37926  42.976  25.995   4.232
65634W        W37927  22.695  36.415   1.868
65635W        W37928  21.139   9.249  11.384
65636W        W37929   1.740  41.963  11.982
65637W        W37930  34.918  20.255  13.462
65638W        W37931   1.450  28.490  10.626
65639W        W37932  20.148  12.790  13.056
65640W        W37933  44.334  34.571  10.924
65641W        W37934  31.974  13.337  10.495
65642W        W37935  39.531  44.425   2.208
65643W        W37936  15.634  42.937   4.735
65644W        W37937   4.314  15.728   1.831
65645W        W37938  18.772   8.702  13.316
65646W        W37939  14.822  26.062  12.531
65647W        W37940  33.408   9.737  10.100
65648W        W37941  42.859  23.044   1.924
65649W        W37942  32.943   1.909  14.429
65650W        W37943  41.522   9.661  10.424
65651W        W37944  22.694   6.704  14.986
65652W        W37945  13.683  27.487  14.858
65653W        W37946  27.177  27.119  13.866
65654W        W37947  24.014  18.179   2.714
65655W        W37948  30.141  40.857  12.452
65656W        W37949   3.750  25.601  14.461
65657W        W37950  16.739  20.712  11.479
65658W        W37951  34.912   5.692   4.777
65659W        W37952   6.198   1.302  14.993
65660W        W37953  17.086   4.363  12.829
65661W        W37954  35.880  10.147   2.401
65662W        W37955  13.752  44.433   0.264
65663W        W37956  35.371   5.418   3.735
65664W        W37957  35.394  35.963  13.941
65665W        W37958  14.098  38.910  11.011
65666W        W37959  20.761  38.054  11.384
65667W        W37960  36.036  11.680   4.168
65668W        W37961  29.995  14.659   0.826
65669W        W37962  40.945  28.999  11.939
65670W        W37963  20.645  42.869  11.400
65671W        W37964  12.719  32.117  11.525
65672W        W37965  27.164  41.835   3.364
65673W        W37966  15.615  36.087  12.484
65674W        W37967   1.373  21.541  13.843
65675W        W37968  12.288  40.012  14.892
65676W        W37969  17.647  12.703  14.995
65677W        W37970   3.265  15.291  12.071
65678W        W37971  42.959   3.276   1.694
65679W        W37972  41.833  29.039  12.375
65680W        W37973  42.024  22.219   2.837
65681W        W37974  35.032  16.287  10.410
65682W        W37975  11.746  35.860   2.835
65683W        W37976  16.704  19.661  11.538
65684W        W37977   5.838   2.428   0.836
65685W        W37978   2.447   0.767   0.410
65686W        W37979  32.394   8.365  10.572
65687W        W37980  30.002  23.590  13.435
65688W        W37981  38.062   8.814   4.808
65689W        W37982  11.315   5.380   4.621
65690W        W37983  35.502  10.870  13.485
65691W        W37984  44.445   7.254  11.867
65692W        W37985  21.245  32.425  13.504
65693W        W37986   4.892  20.059   4.339
65694W        W37987  25.138  15.636   4.199
65695W        W37988  21.699  33.971  13.395
65696W        W37989  40.957  25.103   1.874
65697W        W37990  32.907  39.377   1.260
65698W        W37991  26.504  38.951   0.834
65699W        W37992  24.004  44.447   1.874
65700W        W37993   5.356  42.289  11.895
65701W        W37994  36.958  36.005  13.975
65702W        W37995  20.257  16.185  11.104
65703W        W37996  25.145  42.406   4.289
65704W        W37997  13.297  20.076   4.687
65705W        W37998   7.874   1.898  10.984
65706W        W37999  22.078   7.406  11.934
65707W        W38000  35.093   3.391  10.008
65708W        W38001   3.828  28.030   0.460
65709W        W38002  41.918  41.030  11.478
65710W        W38003  13.290  37.540  11.586
65711W        W38004   7.791  21.637   4.260
65712W        W38005  42.906  13.149  14.803
65713W        W38006   7.698  29.046  14.996
65714W        W38007   6.234  36.861   4.715
65715W        W38008  18.754  39.916  10.599
65716W        W38009  16.762  21.149  14.508
65717W        W38010  30.946   9.761   1.830
65718W        W38011  41.504   2.433   2.410
65719W        W38012  12.745  19.044  13.985
65720W        W38013   5.418  18.677   1.370
65721W        W38014   6.241  32.538  10.941
65722W        W38015  40.933  24.102  12.888
65723W        W38016  14.329  11.834   0.859
65724W        W38017   5.209  11.675   4.713
65725W        W38018  30.583  15.175  14.870
65726W        W38019  35.409  23.022  14.467
65727W        W38020   4.338  22.717   1.851
65728W        W38021  22.568  18.642  14.888
65729W        W38022  26.497  20.073   0.803
65730W        W38023  39.347  30.069  10.438
65731W        W38024  27.594   6.886  13.396
65732W        W38025  27.027  43.933  14.296
65733W        W38026  26.040   4.280  13.454
65734W        W38027  39.420   4.325   4.824
65735W        W38028   4.724  26.680  12.897
65736W        W38029  33.565   1.830  12.423
65737W        W38030  13.175   4.430  14.396
65738W        W38031   2.744  29.127   1.863
65739W        W38032  39.914   4.819   1.741
65740W        W38033  32.118  31.478  13.022
65741W        W38034   6.213  22.997  14.869
65742W        W38035   0.887   3.933  12.003
65743W        W38036  32.141  29.657   4.780
65744W        W38037   7.273   8.393  10.920
65745W        W38038  18.665   6.850  13.943
65746W        W38039  28.107  19.734   0.778
65747W        W38040  30.910  33.961  10.429
65748W        W38041   3.457  16.593  13.012
65749W        W38042  40.378  13.344   2.365
65750W        W38043   7.725   4.734   4.331
65751W        W38044   5.761   4.847   9.968
65752W        W38045  39.831  34.077   0.255
65753W        W38046  27.550  25.533   4.331
65754W        W38047  12.780   2.791  11.058
65755W        W38048  33.535  31.501  14.769
65756W        W38049  20.636   4.314  13.320
65757W        W38050  12.760   9.358  11.445
65758W        W38051   3.814  37.578  14.419
65759W        W38052  38.998   0.333   9.991
65760W        W38053  13.733  44.864   2.853
65761W        W38054  22.107  30.130   2.745
65762W        W38055  25.170  23.130   0.294
65763W        W38056   2.315  29.442   4.627
65764W        W38057  11.260  27.614   3.261
65765W        W38058   0.905  17.286   5.193
65766W        W38059  20.150   3.302  14.857
65767W        W38060   0.254  18.749  11.888
65768W        W38061  23.068  37.067  12.843
65769W        W38062  32.104   8.384  11.544
65770W        W38063   0.836  12.348  11.565
65771W        W38064  28.075  32.121  13.528
65772W        W38065  37.038   0.970  13.976
65773W        W38066   0.452  27.469  13.811
65774W        W38067  35.517   6.897  11.951
65775W        W38068  40.797   7.181   1.219
65776W        W38069  31.479  29.554   1.783
65777W        W38070   4.782   2.367  14.910
65778W        W38071   9.869  35.433   9.514
65779W        W38072  34.994   4.821   1.731
65780W        W38073  23.619  24.109  14.923
65781W        W38074  18.147  32.007  12.476
65782W        W38075  34.407  30.548  10.468
65783W        W38076  30.431  30.652   1.902
65784W        W38077  31.540  31.577   0.317
65785W        W38078  35.513  10.265  10.943
65786W        W38079  15.691   9.814   1.751
65787W        W38080  15.602  41.947  10.535
65788W        W38081  32.128  30.927   3.870
65789W        W38082  12.800  40.807   3.213
65790W        W38083  30.123   7.270   3.282
65791W        W38084  34.612  20.166   0.459
65792W        W38085  14.317  34.058   4.116
65793W        W38086  26.071  13.340   0.317
65794W        W38087  41.532  24.016   2.210
65795W        W38088  32.030   8.885  14.900
65796W        W38089  22.612  41.987  11.533
65797W        W38090  16.109  25.052  12.867
65798W        W38091  40.485  26.085  13.024
65799W        W38092  32.582  38.490  12.515
65800W        W38093  30.018  41.845  13.855
65801W        W38094  27.652  40.433   2.776
65802W        W38095  38.997  15.733   3.157
65803W        W38096  36.400   4.416   3.800
65804W        W38097  36.936   8.188   4.330
65805W        W38098   2.759   6.296  10.905
65806W        W38099  18.584  41.801   4.224
65807W        W38100   2.433  12.209  10.975
65808W        W38101  10.810  37.428  12.902
65809W        W38102  42.819   2.354  10.585
65810W        W38103  18.641  43.337  14.918
65811W        W38104  35.913  39.009   0.790
65812W        W38105   1.390  35.489  10.978
65813W        W38106   1.814  13.291  13.420
65814W        W38107  15.731   1.773  13.461
65815W        W38108   1.426  35.958  11.377
65816W        W38109   8.745  28.473  10.956
65817W        W38110  42.884  14.594   1.412
65818W        W38111  15.735   9.341   3.657
65819W        W38112  21.555  32.561  10.585
65820W        W38113   2.798   9.671   2.359
65821W        W38114  37.431  39.048   2.222
65822W        W38115   8.222  12.202  14.002
65823W        W38116  18.211  36.557   3.796
65824W        W38117  25.216  30.444   4.722
65825W        W38118  43.880   0.252   2.363
65826W        W38119  20.649  30.441   4.679
65827W        W38120   8.894  36.571   1.214
65828W        W38121  32.488  26.973  14.978
65829W        W38122  15.085  32.090  13.405
65830W        W38123   5.905  26.084  14.345
65831W        W38124   1.269   7.833  11.015
65832W        W38125  15.168   8.657   0.305
65833W        W38126   5.349  17.691   4.269
65834W        W38127  28.950  44.975   0.394
65835W        W38128  15.734  23.492  14.409
65836W        W38129  27.960  39.316   0.910
65837W        W38130  31.637  43.367   3.718
65838W        W38131  41.382   2.791  13.329
65839W        W38132  18.749  23.668   2.811
65840W        W38133  25.121  33.479  11.934
65841W        W38134  12.314  18.594   0.945
65842W        W38135  30.925  22.722  14.508
65843W        W38136  35.925  24.682  12.577
65844W        W38137   5.776   5.333   2.899
65845W        W38138  18.612  20.695  10.438
65846W        W38139  36.842  28.080   0.811
65847W        W38140  21.224  25.555   1.255
65848W        W38141   8.841   1.244  12.927
65849W        W38142  42.355  44.805  10.494
65850W        W38143  15.122  33.966   0.268
65851W        W38144  28.600   7.189   4.302
65852W        W38145  13.692  14.793   3.807
65853W        W38146  39.818  40.010   4.819
65854W        W38147  43.507  39.383   4.720
65855W        W38148  33.018   7.724   2.825
65856W        W38149  16.753   8.896  11.531
65857W        W38150  27.991  26.110   1.388
65858W        W38151  39.860  17.581   0.442
65859W        W38152  27.062  28.947   0.909
65860W        W38153  27.131  22.016  14.331
65861W        W38154  44.499  10.842  14.416
65862W        W38155  34.966  19.663  13.022
65863W        W38156  33.469   7.385  10.562
65864W        W38157  18.190  40.837   3.682
65865W        W38158  40.996  33.103  12.341
65866W        W38159   4.753  19.139  14.012
65867W        W38160  29.939  20.087  10.498
65868W        W38161  25.049   8.164  14.371
65869W        W38162  15.617  25.700  13.514
65870W        W38163  11.706  44.906  14.420
65871W        W38164   0.433  17.178  14.348
65872W        W38165   3.450   1.880  10.539
65873W        W38166  14.822  15.112  12.008
65874W        W38167  19.186  12.730   2.791
65875W        W38168  19.660   6.896  14.961
65876W        W38169  24.537  32.581  11.401
65877W        W38170  14.263  29.544   2.254
65878W        W38171  17.708  12.262   0.424
65879W        W38172  16.653  20.164   4.116
65880W        W38173   7.813  29.616  11.452
65881W        W38174  42.021   2.390  10.621
65882W        W38175  38.033  36.932   0.831
65883W        W38176  15.167   1.930   0.781
65884W        W38177  15.216  17.741  12.466
65885W        W38178  44.972  39.961   0.934
65886W        W38179  34.997   9.233  10.963
65887W        W38180  42.334  41.380  12.865
65888W        W38181  10.196  44.504   1.331
65889W        W38182  16.146  22.689   4.730
65890W        W38183  25.175  15.304   0.425
65891W        W38184  21.133  44.295  10.407
65892W        W38185  10.696  31.934   2.194
65893W        W38186  25.989   0.960  12.342
65894W        W38187  30.139   8.684   1.823
65895W        W38188  30.436  11.210  10.467
65896W        W38189  33.037  40.838  12.921
65897W        W38190  27.954   0.780   0.385
65898W        W38191  37.403  13.239  13.414
65899W        W38192  17.106  40.908   0.793
65900W        W38193   5.403   5.763   2.405
65901W        W38194  16.251   9.363  12.981
65902W        W38195  20.635  41.411   1.840
65903W        W38196  29.104  30.525   2.836
65904W        W38197  31.115  29.007  14.792
65905W        W38198  37.445  21.262  11.404
65906W        W38199  43.420  15.314  13.442
65907W        W38200  28.164  32.604  10.480
65908W        W38201   4.898  21.539  14.335
65909W        W38202  10.820  25.511  12.864
65910W        W38203  13.146   2.289  14.904
65911W        W38204  42.281  17.123  13.366
65912W        W38205  13.641  15.653   4.203
65913W        W38206  15.223  27.016   3.187
65914W        W38207   4.743  39.354   3.251
65915W        W38208  23.594  15.143   2.809
65916W        W38209  24.209  13.754   0.429
65917W        W38210  12.222   3.242  13.493
65918W        W38211  28.077  17.183   9.963
65919W        W38212  20.621  28.515  13.430
65920W        W38213  25.551   0.910   0.317
65921W        W38214  12.272  26.472   1.273
65922W        W38215  15.673  41.861   3.211
65923W        W38216  11.702  44.346   0.878
65924W        W38217  12.765  18.705   2.238
65925W        W38218  14.762  10.286  12.043
65926W        W38219  39.941  43.861   9.663
65927W        W38220  14.206  41.516  11.584
65928W        W38221  17.177  28.639   3.694
65929W        W38222  40.516  13.239  13.033
65930W        W38223  32.519  31.452  11.542
65931W        W38224  20.727   0.753   0.935
65932W        W38225  39.539   6.832   4.604
65933W        W38226  42.985   6.308  11.068
65934W        W38227  42.838  20.111   2.677
65935W        W38228  16.734  33.040  12.458
65936W        W38229  24.618  19.676   3.834
65937W        W38230   3.444  25.029   2.709
65938W        W38231   3.825  27.682   0.952
65939W        W38232  39.468  23.677  11.009
65940W        W38233  39.871   4.315  12.960
65941W        W38234   4.405  38.336  14.935
65942W        W38235  37.578  38.077   2.745
65943W        W38236   5.201  33.985  10.505
65944W        W38237  23.557  17.241  10.602
65945W        W38238  44.775   2.309  11.409
65946W        W38239  13.218   2.907  14.917
65947W        W38240  11.837  29.077   1.212
65948W        W38241  13.233  21.144  12.907
65949W        W38242  43.359  29.047   4.737
65950W        W38243   7.312  32.925  13.811
65951W        W38244  37.496  28.972  14.362
65952W        W38245   5.827  33.926   4.167
65953W        W38246  40.942  14.739   0.832
65954W        W38247  42.826  26.634  10.131
65955W        W38248  44.282  24.625  13.528
65956W        W38249   6.793  17.272   1.242
65957W        W38250  35.076  33.463   1.444
65958W        W38251  17.692  19.191   2.665
65959W        W38252   0.339  26.616  11.943
65960W        W38253  28.600  40.315   3.759
65961W        W38254   9.316  27.180  13.395
65962W        W38255  13.345  30.907   4.307
65963W        W38256  11.301  10.260  11.509
65964W        W38257   7.847  34.019  12.374
65965W        W38258  15.200  10.303  11.394
65966W        W38259  37.339   3.801  10.938
65967W        W38260  21.081  21.225  13.485
65968W        W38261  31.468  41.336  12.019
65969W        W38262  23.699  31.537   4.797
65970W        W38263   5.404  16.165  13.036
65971W        W38264  31.567  13.600   4.278
65972W        W38265  36.592  30.110  13.454
65973W        W38266   4.250  32.953  13.402
65974W        W38267  27.005  33.109   4.627
65975W        W38268  36.378  19.246  12.464
65976W        W38269   1.867  11.625  14.911
65977W        W38270  11.139  43.909  13.456
65978W        W38271  34.089   4.273  14.335
65979W        W38272  27.647  29.019  12.063
65980W        W38273  21.213  19.641  11.553
65981W        W38274   0.393  24.098   0.881
65982W        W38275  41.943  41.966   1.907
65983W        W38276  28.553  25.479  11.122
65984W        W38277   9.155  30.050  12.341
65985W        W38278  32.090   7.347  11.444
65986W        W38279   2.831  12.301   4.794
65987W        W38280  31.513  25.585  13.373
65988W        W38281  41.458  29.461  12.094
65989W        W38282  28.153  10.226  12.030
65990W        W38283  15.642  12.202   1.840
65991W        W38284  23.623   1.414   1.373
65992W        W38285   5.339  25.638   3.178
65993W        W38286  11.641  11.162   4.336
65994W        W38287  11.346   8.305   0.741
65995W        W38288   9.868  32.395  10.520
65996W        W38289  21.529  42.469  12.849
65997W        W38290   6.702   7.719   4.823
65998W        W38291  13.341  39.442   0.392
65999W        W38292  35.451  30.075  10.928
66000W        W38293  22.170  38.882  10.412
66001W        W38294  18.147  42.456   3.846
66002W        W38295  26.054  14.278   4.717
66003W        W38296  35.396  40.437   3.722
66004W        W38297  14.321  42.492  13.455
66005W        W38298  31.967   6.833   2.398
66006W        W38299  31.058  25.108  10.095
66007W        W38300  13.610  34.074   3.785
66008W        W38301  40.948  12.153   2.887
66009W        W38302  44.848  23.603  13.395
66010W        W38303  22.584  40.952   4.773
66011W        W38304   5.744  40.362   3.292
66012W        W38305   7.205  33.932   3.776
66013W        W38306  43.947   9.229   2.698
66014W        W38307  42.306  35.957  13.008
66015W        W38308  42.498  21.253   4.774
66016W        W38309  26.541  23.988  14.787
66017W        W38310  43.773   9.880  14.970
66018W        W38311  40.942  38.416  14.410
66019W        W38312  32.962  33.071   3.723
66020W        W38313  27.104  43.370  12.520
66021W        W38314  13.123  17.684   0.261
66022W        W38315   2.472   4.738  10.420
66023W        W38316  10.290  20.145  13.318
66024W        W38317   8.768   7.268   1.859
66025W        W38318  16.198  36.939   3.818
66026W        W38319  15.144  41.328   4.672
66027W        W38320  31.570   6.203  13.323
66028W        W38321   0.964  14.746  10.956
66029W        W38322  11.724  15.813   1.395
66030W        W38323  41.297  14.327  10.494
66031W        W38324  22.006   7.778   3.667
66032W        W38325   7.895  36.060   1.395
66033W        W38326  30.603  13.687   2.683
66034W        W38327   9.174  27.050   2.259
66035W        W38328   3.229   0.332  13.937
66036W        W38329  20.606   7.236  11.486
66037W        W38330  16.259  38.546  10.411
66038W        W38331  14.731  44.307   3.204
66039W        W38332  30.596  26.687   4.153
66040W        W38333  37.578   2.926   3.250
66041W        W38334  37.424  26.039  12.470
66042W        W38335  18.722  22.119  12.548
66043W        W38336  18.131  20.683   4.618
66044W        W38337  30.912   3.776  12.483
66045W        W38338  42.916  26.959  12.529
66046W        W38339   2.360  44.987  13.530
66047W        W38340   1.436  10.828   1.900
66048W        W38341  24.985  40.037  14.328
66049W        W38342  16.706   0.440   1.891
66050W        W38343  40.930  10.143  11.510
66051W        W38344  19.665  19.539  12.548
66052W        W38345  19.110   2.269  10.618
66053W        W38346  20.640  12.677   1.407
66054W        W38347  30.506   5.838   4.625
66055W        W38348   2.771   2.874  12.021
66056W        W38349  21.655  31.919   1.284
66057W        W38350  12.220  40.925  14.924
66058W        W38351  35.591  41.488  12.866
66059W        W38352  23.536  43.976   4.182
66060W        W38353  10.673   7.710  11.972
66061W        W38354  12.243  32.551   3.379
66062W        W38355  34.926  38.562  10.576
66063W        W38356  21.520   4.701   3.263
66064W        W38357  29.452   6.782  14.418
66065W        W38358   6.274  28.179   3.684
66066W        W38359  22.743  12.180   1.751
66067W        W38360  26.691   8.739  10.422
66068W        W38361  30.570  37.502   1.761
66069W        W38362  42.515  17.063   3.641
66070W        W38363  17.290  18.109   3.636
66071W        W38364  27.625  33.943  11.458
66072W        W38365  14.712  30.078  10.420
66073W        W38366  41.035   0.296   4.715
66074W        W38367   6.699  19.163  13.797
66075W        W38368   3.719   8.872   4.725
66076W        W38369  15.720   1.903  14.369
66077W        W38370  19.272  22.247   2.253
66078W        W38371  30.995  16.784   4.777
66079W        W38372   8.333   5.918  11.999
66080W        W38373  15.100   5.340  10.530
66081W        W38374  29.133  28.469  10.605
66082W        W38375  37.065  32.041  13.497
66083W        W38376   3.899  24.206   4.609
66084W        W38377  21.695  13.673  13.792
66085W        W38378  17.127   8.785  12.478
66086W        W38379  23.628  38.414  13.318
66087W        W38380  10.761  13.732   3.150
66088W        W38381  13.668  26.972  12.965
66089W        W38382  24.518  43.274   0.290
66090W        W38383  20.068   4.360  11.381
66091W        W38384  40.948  36.496   2.825
66092W        W38385  13.158   8.676   0.870
66093W        W38386  41.331  23.635  11.079
66094W        W38387  22.151  44.785   2.686
66095W        W38388  30.644  14.808  11.053
66096W        W38389  10.296   3.798  10.609
66097W        W38390  30.419  43.850  11.937
66098W        W38391  32.585  40.956  14.991
66099W        W38392  15.140  16.587   4.742
66100W        W38393   1.846  24.124   2.666
66101W        W38394  31.991  15.105  10.535
66102W        W38395  44.477  19.252   9.951
66103W        W38396  36.522  33.443  14.000
66104W        W38397  37.046  23.693   4.687
66105W        W38398  26.568  39.036  11.001
66106W        W38399   6.279  44.426  13.859
66107W        W38400   8.176  23.159  12.983
66108W        W38401  29.149   6.389  13.938
66109W        W38402  33.448  12.323  13.368
66110W        W38403  18.104   9.350  11.927
66111W        W38404  22.999  30.627  11.385
66112W        W38405   3.339   9.652  14.768
66113W        W38406  21.173  25.206   3.190
66114W        W38407  32.493  26.633  13.420
66115W        W38408  25.205  40.447   5.212
66116W        W38409  16.665  32.495   1.293
66117W        W38410   1.946  30.588   1.917
66118W        W38411   0.760  30.994  12.989
66119W        W38412   9.164  14.790   3.797
66120W        W38413  32.522  18.112  12.426
66121W        W38414  37.452   7.200   2.291
66122W        W38415  13.129  31.136  10.919
66123W        W38416  44.504  20.064   4.279
66124W        W38417  41.343  17.782   3.187
66125W        W38418   9.265  23.643  12.340
66126W        W38419  13.278   8.872  12.022
66127W        W38420  29.955   9.187  14.902
66128W        W38421  28.599  34.948   3.170
66129W        W38422   2.790   3.283   0.422
66130W        W38423  40.516   8.709   1.817
66131W        W38424  26.667  20.640   1.443
66132W        W38425  17.157  28.521   1.874
66133W        W38426  14.689   3.804  11.099
66134W        W38427   8.277  23.553   1.820
66135W        W38428  33.000  33.012  14.877
66136W        W38429  36.062  32.895  14.319
66137W        W38430  39.983  42.396  11.908
66138W        W38431   8.753   2.721   4.124
66139W        W38432  42.960  37.351   2.372
66140W        W38433  28.506  21.597   9.439
66141W        W38434   9.723  42.287  13.942
66142W        W38435  35.079   8.187  11.915
66143W        W38436  15.292  29.562   4.283
66144W        W38437   0.262  27.079   1.421
66145W        W38438  36.384  27.952  13.341
66146W        W38439  27.498  24.507   5.731
66147W        W38440   8.384  29.166   3.359
66148W        W38441  22.116  14.802  13.061
66149W        W38442  33.414  26.589  10.642
66150W        W38443   9.708  42.521   3.254
66151W        W38444  32.103  33.573  14.495
66152W        W38445  41.892  21.025   1.799
66153W        W38446  25.172   6.693  11.496
66154W        W38447   4.336   9.323  14.343
66155W        W38448   3.902   9.336  13.460
66156W        W38449  38.862  26.649   2.327
66157W        W38450  23.003  15.147   3.736
66158W        W38451  11.834  42.424  11.456
66159W        W38452   3.447  39.360  14.973
66160W        W38453   5.887  23.234  12.011
66161W        W38454   7.673  29.537   2.326
66162W        W38455  18.218  15.633  12.884
66163W        W38456  41.805  37.360  12.559
66164W        W38457  44.864  36.400  11.930
66165W        W38458  21.207  14.595   4.330
66166W        W38459   6.197  36.996   0.253
66167W        W38460   9.380  32.903  11.102
66168W        W38461  13.181  25.521  13.910
66169W        W38462  44.459  16.639   2.869
66170W        W38463   1.780  41.415  12.414
66171W        W38464   5.376  22.642  10.479
66172W        W38465  28.028  17.569  11.039
66173W        W38466  11.781  10.267  14.275
66174W        W38467  21.649  33.490  13.009
66175W        W38468   5.283  31.446   0.886
66176W        W38469   8.729  43.354   1.214
66177W        W38470  21.656  20.557  14.446
66178W        W38471  39.813  25.055   4.224
66179W        W38472   6.688  35.581  14.940
66180W        W38473  39.965  44.986   5.568
66181W        W38474  37.395  19.605  14.758
66182W        W38475  24.079  38.948  14.783
66183W        W38476   6.766  38.054   1.398
66184W        W38477  20.094  43.980   0.467
66185W        W38478  11.220  17.622  11.537
66186W        W38479   0.841  21.170  10.442
66187W        W38480  13.599  31.531   3.827
66188W        W38481  17.655  14.772  13.340
66189W        W38482  21.756  29.963  13.528
66190W        W38483   9.279   5.249   2.347
66191W        W38484   8.785   8.251   1.752
66192W        W38485  16.265  21.048  14.406
66193W        W38486  24.071  39.337   4.318
66194W        W38487  33.566   8.737  14.761
66195W        W38488  21.107  44.332   2.408
66196W        W38489  14.727  30.917   2.216
66197W        W38490  26.566  18.290  12.479
66198W        W38491  41.375  40.017  12.525
66199W        W38492   7.182  25.566  14.949
66200W        W38493  21.203   8.714   3.774
66201W        W38494  33.556  18.706   2.711
66202W        W38495  27.543  35.963   3.358
66203W        W38496  19.534  20.603  12.010
66204W        W38497  40.027  14.749   1.409
66205W        W38498   5.761  13.612  13.797
66206W        W38499   2.422   1.770  13.321
66207W        W38500  42.483  18.684  13.409
66208W        W38501  36.469  24.501  14.963
66209W        W38502   0.269   3.287  14.466
66210W        W38503  20.174  42.787  13.370
66211W        W38504  27.534   9.659  10.969
66212W        W38505   6.774  23.039  12.055
66213W        W38506  15.246  31.026  14.963
66214W        W38507   8.755   2.333   2.875
66215W        W38508  32.091  44.994  13.050
66216W        W38509  22.037   5.701  13.321
66217W        W38510  36.854  19.715  13.990
66218W        W38511  16.283  33.090  11.544
66219W        W38512  28.102  18.694  11.929
66220W        W38513  42.998  17.577  11.441
66221W        W38514  24.065   8.853   2.271
66222W        W38515   9.370  36.580   2.814
66223W        W38516  40.975  26.460  11.095
66224W        W38517  32.929  24.172   3.837
66225W        W38518   6.409   0.963   0.854
66226W        W38519  32.610  42.016  12.344
66227W        W38520  16.308   6.724  10.521
66228W        W38521  27.154  14.144  10.118
66229W        W38522  14.272  43.398  13.458
66230W        W38523  44.483  23.177   4.205
66231W        W38524  44.894  23.092   2.770
66232W        W38525  34.548   2.329   1.733
66233W        W38526  16.807  39.834   0.762
66234W        W38527  22.073  20.236  12.884
66235W        W38528  11.220  37.949  10.519
66236W        W38529  16.579  14.760  13.380
66237W        W38530   7.237  20.698   2.412
66238W        W38531   3.848  42.892   5.110
66239W        W38532  17.667   8.280   4.344
66240W        W38533  25.568   7.769   4.627
66241W        W38534  17.791  29.433   4.807
66242W        W38535  20.615  15.179   0.889
66243W        W38536  20.100  25.711  13.317
66244W        W38537  37.466  33.400  12.580
66245W        W38538  28.547   0.749   0.378
66246W        W38539  27.146  42.863   4.332
66247W        W38540  17.131  37.005   0.474
66248W        W38541  18.604   7.272   2.385
66249W        W38542  24.118   0.302  13.375
66250W        W38543  25.541   4.207  13.980
66251W        W38544  10.756  27.626  11.004
66252W        W38545  40.489  15.192   1.298
66253W        W38546  10.202   7.362  12.878
66254W        W38547  13.806  32.096   4.265
66255W        W38548  22.502  23.724  12.971
66256W        W38549  15.102   0.398   1.875
66257W        W38550  18.692   6.348  14.808
66258W        W38551  32.089  18.143  11.517
66259W        W38552  28.534  30.091   1.892
66260W        W38553   1.915  35.533  10.975
66261W        W38554   7.686  36.875   1.279
66262W        W38555  18.239  43.862   0.478
66263W        W38556   7.314  43.504  13.513
66264W        W38557  35.392   2.845  10.973
66265W        W38558  42.352  31.944  10.428
66266W        W38559   0.883   2.908   4.695
66267W        W38560  31.055  43.796  13.337
66268W        W38561  19.077   7.894  14.778
66269W        W38562  25.123   4.724  13.913
66270W        W38563  23.510  18.120   2.741
66271W        W38564   2.310  22.614   4.807
66272W        W38565  43.766   4.275   3.730
66273W        W38566   2.780  21.250  12.946
66274W        W38567  10.800   7.377   2.676
66275W        W38568  44.900  42.305   0.836
66276W        W38569  44.400  43.378   0.259
66277W        W38570   5.733  23.646  11.072
66278W        W38571  27.977   6.883   0.277
66279W        W38572   4.866  36.965  13.324
66280W        W38573  25.631  18.598   4.206
66281W        W38574  29.509  27.942  13.413
66282W        W38575  15.685   7.410   4.822
66283W        W38576  31.104  41.425  12.933
66284W        W38577  22.033   9.151   2.701
66285W        W38578   1.350  26.091  12.873
66286W        W38579  37.985   1.332  12.523
66287W        W38580   3.888   3.863  11.070
66288W        W38581  29.015  39.380   2.344
66289W        W38582  22.707  16.279   3.371
66290W        W38583  39.948  39.402  12.894
66291W        W38584  15.241  26.008   0.397
66292W        W38585  23.066   9.656   4.346
66293W        W38586  10.357  34.404   0.270
66294W        W38587  41.846  33.524  13.062
66295W        W38588  15.721  19.674  14.367
66296W        W38589   7.271  12.802   2.377
66297W        W38590  23.717  26.599   3.263
66298W        W38591  11.227  18.781   1.934
66299W        W38592  16.226  41.382  13.873
66300W        W38593   3.353   2.452   2.394
66301W        W38594  12.245  33.392   3.204
66302W        W38595  42.514  35.525  13.412
66303W        W38596  26.150   1.296   1.325
66304W        W38597  37.490  41.914   1.775
66305W        W38598   3.452  14.813   3.705
66306W        W38599  28.174  19.090   1.372
66307W        W38600  26.132   1.893   0.921
66308W        W38601  16.572  42.032   1.802
66309W        W38602  38.866  18.744  11.024
66310W        W38603  23.637  40.923  12.446
66311W        W38604  29.538  13.774  10.447
66312W        W38605   7.243   5.723  13.928
66313W        W38606  21.206  24.998   0.325
66314W        W38607  31.013  15.155  13.440
66315W        W38608  39.355  12.785   1.357
66316W        W38609  25.570   9.296  14.920
66317W        W38610  26.496  35.969  14.348
66318W        W38611  24.192  41.927   0.379
66319W        W38612  11.797   6.690   4.715
66320W        W38613   9.386  11.241   3.223
66321W        W38614   2.466   9.824  12.552
66322W        W38615  17.248  24.052   1.894
66323W        W38616   2.890   2.416  10.630
66324W        W38617  13.701  26.611  11.452
66325W        W38618   8.681  37.998   3.173
66326W        W38619  36.455  26.187  14.419
66327W        W38620  25.545  11.652  11.549
66328W        W38621  28.016  37.059   0.876
66329W        W38622  23.551  42.028  11.465
66330W        W38623  39.823  41.790   3.343
66331W        W38624   7.182  12.728  14.796
66332W        W38625  10.265   4.835  10.577
66333W        W38626  30.109  27.527  12.996
66334W        W38627  12.670  36.494  11.493
66335W        W38628   5.744  25.052   4.338
66336W        W38629  39.017  14.133  13.909
66337W        W38630  20.248  20.660   4.775
66338W        W38631  22.530  27.533   4.246
66339W        W38632  43.393  18.736  11.868
66340W        W38633  18.069  10.159   1.786
66341W        W38634  23.217  26.499  10.438
66342W        W38635   3.226  37.944  10.605
66343W        W38636  26.009   2.354  13.473
66344W        W38637  44.280  30.094   3.314
66345W        W38638  34.065  17.247   2.411
66346W        W38639   8.252  21.045   5.173
66347W        W38640  38.488   2.392   0.754
66348W        W38641   0.782  10.375   4.161
66349W        W38642  15.727  28.477   0.737
66350W        W38643  15.665   8.745  11.524
66351W        W38644  35.587  19.552   1.302
66352W        W38645  32.061  35.508  12.079
66353W        W38646   9.306  12.727  13.922
66354W        W38647  14.802  36.912  13.903
66355W        W38648  40.495  12.667   0.350
66356W        W38649  23.988  41.848   0.920
66357W        W38650   3.232  36.994  13.861
66358W        W38651  30.569  32.072   1.342
66359W        W38652  35.012  26.642   2.339
66360W        W38653  30.161  42.291   1.301
66361W        W38654  31.141  21.036   1.720
66362W        W38655   3.306  41.333   2.845
66363W        W38656  32.441   0.475  12.425
66364W        W38657  27.045  42.437  11.861
66365W        W38658  20.082  20.253   2.368
66366W        W38659  13.613   6.808  14.367
66367W        W38660  28.988   4.337  13.055
66368W        W38661   7.405  38.927  10.578
66369W        W38662   3.950  27.462  13.990
66370W        W38663  25.545  38.474   4.826
66371W        W38664  14.835   3.255   2.353
66372W        W38665  12.360  21.021  14.764
66373W        W38666  34.042  28.056   4.247
66374W        W38667  25.607  11.662   1.865
66375W        W38668  26.114   0.486  13.506
66376W        W38669   4.836  36.502  13.328
66377W        W38670   1.325  28.574  11.882
66378W        W38671  23.717  28.483  10.959
66379W        W38672  27.141  22.124  10.480
66380W        W38673   8.343  32.620  14.029
66381W        W38674  20.147   3.793  11.554
66382W        W38675   6.372  17.264  10.518
66383W        W38676   3.246  17.731   4.678
66384W        W38677  33.459  25.131   2.322
66385W        W38678  29.977  40.474   2.246
66386W        W38679  23.570  25.527  12.029
66387W        W38680  26.515  37.432  10.566
66388W        W38681  20.640  25.968   4.717
66389W        W38682   3.839   4.240  14.292
66390W        W38683  43.335   6.723  12.370
66391W        W38684  24.219  18.714   2.378
66392W        W38685  25.608  17.185   2.238
66393W        W38686  21.640  32.433  13.960
66394W        W38687  19.111  19.728  12.891
66395W        W38688   9.722   9.387   1.823
66396W        W38689  41.986  12.746   0.810
66397W        W38690  34.483  29.078   1.856
66398W        W38691  44.911   0.482   2.340
66399W        W38692   6.408  14.125   4.183
66400W        W38693  14.222  28.448   0.730
66401W        W38694  19.183  33.068  11.070
66402W        W38695  23.491  19.658   3.698
66403W        W38696  38.331  28.053   2.865
66404W        W38697  35.083   3.761   4.685
66405W        W38698  28.652  32.393  14.979
66406W        W38699   1.245  20.191   1.933
66407W        W38700  34.523  15.585  12.546
66408W        W38701  40.871  32.985  13.326
66409W        W38702  25.109  21.019  14.800
66410W        W38703  34.939   9.356   2.330
66411W        W38704  22.651  35.411   4.151
66412W        W38705  11.168  36.911  12.928
66413W        W38706  33.546  27.953   0.947
66414W        W38707  42.416   2.841   4.352
66415W        W38708   5.831  44.802   1.280
66416W        W38709  40.490   5.768   1.238
66417W        W38710  22.503  13.219   2.845
66418W        W38711  39.889   2.442   3.304
66419W        W38712  42.792  20.089   4.687
66420W        W38713   6.216   3.270   0.750
66421W        W38714  21.573  29.958  14.928
66422W        W38715  42.969  31.589  12.358
66423W        W38716  41.027  39.933   2.234
66424W        W38717  14.708   0.396   0.952
66425W        W38718  43.896  12.815   3.192
66426W        W38719  15.266  34.371   0.279
66427W        W38720  37.901  29.479   1.802
66428W        W38721  11.740   8.401   1.285
66429W        W38722   7.788  44.777  10.544
66430W        W38723  33.094  44.430   0.758
66431W        W38724  44.773   7.195  13.536
66432W        W38725  32.449   0.250   3.369
66433W        W38726  41.819  38.391  13.972
66434W        W38727   5.847   4.941   4.788
66435W        W38728  10.354  28.491   0.835
66436W        W38729  15.694  40.421   2.727
66437W        W38730  25.653  44.826   4.701
66438W        W38731  44.425  12.742  12.352
66439W        W38732  23.985  14.242   2.759
66440W        W38733  17.193  11.357   4.168
66441W        W38734  31.584  27.104  12.923
66442W        W38735  39.918  40.821  11.916
66443W        W38736  22.741  10.716   0.766
66444W        W38737  31.595  14.201   2.788
66445W        W38738  22.615  20.628   4.685
66446W        W38739   0.329  11.142  11.101
66447W        W38740  15.193  23.541   0.779
66448W        W38741   3.312  22.206  12.957
66449W        W38742   8.823  20.108  10.897
66450W        W38743  44.903  24.672  12.439
66451W        W38744  16.783   0.410  12.021
66452W        W38745   4.807  19.213  12.037
66453W        W38746  35.919  26.501   3.378
66454W        W38747  22.047  33.470   3.795
66455W        W38748  33.876  32.597   4.313
66456W        W38749  18.692   4.706  11.061
66457W        W38750  33.017  19.200   3.280
66458W        W38751  21.179  12.351  13.502
66459W        W38752  16.237  28.046   0.915
66460W        W38753  17.594  28.062   0.897
66461W        W38754  28.072  24.001   2.729
66462W        W38755  36.844  19.734   1.450
66463W        W38756  12.633  19.157  11.454
66464W        W38757  12.669  11.160   4.178
66465W        W38758  36.986  37.534   2.676
66466W        W38759  20.713  12.185  13.041
66467W        W38760  16.106  10.327   2.192
66468W        W38761  13.250  34.539   0.443
66469W        W38762  23.197  27.545   0.422
66470W        W38763  39.838  19.658   2.723
66471W        W38764  39.400  23.616  14.858
66472W        W38765  42.350  39.323  12.473
66473W        W38766  41.855  28.022  10.454
66474W        W38767  12.755   2.762   5.287
66475W        W38768   7.384   0.947   3.668
66476W        W38769  23.134  41.403  14.403
66477W        W38770  41.394  11.251  12.837
66478W        W38771  37.953  43.879  14.861
66479W        W38772  14.274  17.773  13.807
66480W        W38773  14.590  17.147  10.413
66481W        W38774  17.774  28.675   0.951
66482W        W38775  14.163  27.456   1.299
66483W        W38776   6.263  39.821   0.375
66484W        W38777   6.919  14.776   2.745
66485W        W38778  38.382  34.991  12.864
66486W        W38779   6.716  15.648  14.848
66487W        W38780  16.123  18.210  13.029
66488W        W38781  28.489  39.885   0.406
66489W        W38782   6.207  38.909  10.993
66490W        W38783  15.786  40.909  13.935
66491W        W38784  32.452  25.690  11.073
66492W        W38785   0.379  44.765  14.833
66493W        W38786  37.897  41.005  11.587
66494W        W38787  34.564  36.379   2.200
66495W        W38788  43.487  41.305  10.942
66496W        W38789  21.167  44.314   4.214
66497W        W38790  43.897  13.646  14.401
66498W        W38791   5.392  38.394  11.065
66499W        W38792  13.286  12.690  12.004
66500W        W38793  22.057  19.141   4.718
66501W        W38794   9.366  25.640   1.315
66502W        W38795  39.348  27.645   1.778
66503W        W38796  29.139  41.816   3.648
66504W        W38797  34.903   0.859   0.330
66505W        W38798   8.194  23.030   2.818
66506W        W38799  20.663  42.886   0.903
66507W        W38800  24.111   2.738  12.891
66508W        W38801   8.763  41.453   1.873
66509W        W38802  33.944  28.155  12.472
66510W        W38803  23.170  23.632   2.332
66511W        W38804  32.417  27.658  12.452
66512W        W38805  10.160  44.963  13.047
66513W        W38806  20.155  31.028   3.345
66514W        W38807   2.801  38.000   4.609
66515W        W38808  31.917  24.048  13.801
66516W        W38809  36.411  44.858  13.881
66517W        W38810  39.469  19.192  12.869
66518W        W38811  34.603   7.188  12.049
66519W        W38812  38.534  12.173  13.833
66520W        W38813  38.840  24.642   0.965
66521W        W38814  29.132  19.586  13.539
66522W        W38815   0.366  15.606  13.965
66523W        W38816  12.226   9.649  13.852
66524W        W38817   9.331  38.460   4.118
66525W        W38818  33.051  33.939  12.978
66526W        W38819   1.736   5.842   1.314
66527W        W38820  21.030   1.246  14.833
66528W        W38821  26.481  16.289   3.772
66529W        W38822  12.190  34.422  14.371
66530W        W38823  22.018  33.547   2.190
66531W        W38824  11.646  18.200   5.202
66532W        W38825  35.104   8.258  13.830
66533W        W38826  44.980   9.322   4.735
66534W        W38827  25.142   4.304   3.828
66535W        W38828  14.153   5.289  12.963
66536W        W38829  11.240  15.604   2.369
66537W        W38830   9.168  24.187  10.951
66538W        W38831  10.272  17.212  13.898
66539W        W38832  10.283  27.474   0.737
66540W        W38833  11.266  16.199  13.822
66541W        W38834  31.906  30.414   2.727
66542W        W38835   7.363   3.360   1.273
66543W        W38836  34.066  11.776  14.869
66544W        W38837  41.318  29.938  12.048
66545W        W38838  27.676  21.115   9.968
66546W        W38839  43.279  35.450   0.476
66547W        W38840  16.273  32.410  12.401
66548W        W38841  20.639  17.670   3.251
66549W        W38842  32.490  43.304  11.923
66550W        W38843  44.457  43.944   1.255
66551W        W38844  29.668   2.285  10.637
66552W        W38845  41.970  31.428  14.787
66553W        W38846  20.596   8.784  13.809
66554W        W38847  32.637   5.841   0.245
66555W        W38848  16.705  32.634  14.389
66556W        W38849  11.312   8.842  13.419
66557W        W38850  43.466  16.084   3.862
66558W        W38851  15.755  26.547  13.943
66559W        W38852  31.914  30.122   3.292
66560W        W38853  17.161  14.745   1.312
66561W        W38854  31.472   1.462  14.767
66562W        W38855  35.000  16.702   2.216
66563W        W38856  20.528   8.736  13.427
66564W        W38857  13.698  42.505  10.536
66565W        W38858  32.598   8.185   9.437
66566W        W38859  36.421  10.301  10.078
66567W        W38860  20.178  27.483   4.791
66568W        W38861  13.710   5.902   4.346
66569W        W38862   3.347  36.347  11.445
66570W        W38863  30.482  19.622   4.175
66571W        W38864  36.399  27.060   3.189
66572W        W38865  22.212  37.833   1.767
66573W        W38866  22.556  28.947  12.884
66574W        W38867  14.233   9.732  11.477
66575W        W38868  19.623  11.255  10.539
66576W        W38869   1.303  39.870  13.821
66577W        W38870   6.244  19.262  14.025
66578W        W38871  20.620  28.578   2.313
66579W        W38872   7.238  43.483  11.537
66580W        W38873   2.397   0.886  14.515
66581W        W38874  42.306  28.058   0.928
66582W        W38875  37.360  13.216  14.022
66583W        W38876  43.782   5.333   0.742
66584W        W38877   3.296  37.529  13.039
66585W        W38878  28.514  17.140   2.752
66586W        W38879   1.837  38.892  11.602
66587W        W38880  23.232  11.143  14.899
66588W        W38881  37.062  39.459   1.349
66589W        W38882  20.091   8.252  10.633
66590W        W38883   0.984   6.329   5.175
66591W        W38884  41.009  24.491  14.451
66592W        W38885  41.473   6.200   2.255
66593W        W38886   5.877  15.237  11.883
66594W        W38887  18.235  44.836   4.204
66595W        W38888  43.486   1.248  13.494
66596W        W38889  15.599  20.611  13.372
66597W        W38890  34.423  12.185   3.651
66598W        W38891  18.729  17.706  12.356
66599W        W38892  42.382  33.930  13.033
66600W        W38893  33.474  25.985  14.934
66601W        W38894   1.332  21.611   0.369
66602W        W38895  24.491  19.615   1.824
66603W        W38896  20.681  29.663   2.277
66604W        W38897   6.355  31.057  11.065
66605W        W38898  39.404  28.124   0.875
66606W        W38899  36.084  18.277   1.920
66607W        W38900  32.411   7.248  13.919
66608W        W38901  39.012  18.745   3.209
66609W        W38902   5.403  10.695  11.007
66610W        W38903  19.236  17.646   1.916
66611W        W38904   3.818  17.740   4.230
66612W        W38905  35.015  43.019   2.364
66613W        W38906   8.771   0.382  11.486
66614W        W38907  42.340  33.555  13.010
66615W        W38908  26.180  12.642   1.773
66616W        W38909  33.089  40.428   4.828
66617W        W38910  40.367   2.883   3.351
66618W        W38911  39.878   9.154  12.965
66619W        W38912   2.263  14.664   4.161
66620W        W38913  39.845  10.272   4.643
66621W        W38914  32.137  19.647  11.979
66622W        W38915  31.914  43.952   2.726
66623W        W38916   1.353   3.859  12.342
66624W        W38917  33.404  33.927  14.950
66625W        W38918  33.889  26.047   2.396
66626W        W38919  27.111  12.187  12.908
66627W        W38920  11.628  25.964   1.858
66628W        W38921  10.380  28.175  11.940
66629W        W38922   1.434   8.179   4.820
66630W        W38923   8.287  35.396   3.657
66631W        W38924  24.508  24.633  13.008
66632W        W38925  25.555  31.619  12.463
66633W        W38926  31.573  24.683  13.531
66634W        W38927   7.356  36.052   1.711
66635W        W38928   3.925   8.268  12.509
66636W        W38929  26.192  42.435  14.796
66637W        W38930  40.477  42.523   2.367
66638W        W38931   1.970  30.474  11.936
66639W        W38932  14.336   5.696  13.321
66640W        W38933  21.647  10.303  12.417
66641W        W38934  27.991  17.270  14.395
66642W        W38935  28.444   0.379   0.266
66643W        W38936   3.711  23.230   3.199
66644W        W38937  32.619  27.488   2.883
66645W        W38938  30.556  31.609  13.984
66646W        W38939  10.211   5.389  13.511
66647W        W38940   5.342   8.168   2.869
66648W        W38941  39.929  33.070  11.959
66649W        W38942  12.116  33.069  14.845
66650W        W38943   9.780  10.801   4.653
66651W        W38944  44.470  33.888  11.085
66652W        W38945  15.134   3.936   0.379
66653W        W38946  11.253  33.969   3.377
66654W        W38947  40.822  22.249  13.517
66655W        W38948  42.916  18.657  11.519
66656W        W38949   6.280  16.791  13.901
66657W        W38950   6.203  13.677  12.382
66658W        W38951  17.747  44.271  14.801
66659W        W38952  12.611   6.260  13.316
66660W        W38953  38.531  39.990  10.587
66661W        W38954  26.001   7.762   4.331
66662W        W38955  39.334  42.344  12.038
66663W        W38956   9.649   6.331  14.350
66664W        W38957  23.181  42.876  13.849
66665W        W38958  30.613  21.594  11.408
66666W        W38959  42.908  40.864   1.696
66667W        W38960   4.421  25.475   2.356
66668W        W38961  21.738  39.905  12.936
66669W        W38962  22.139  20.234   3.229
66670W        W38963   1.320  15.328   4.739
66671W        W38964   2.368  40.836  11.424
66672W        W38965  29.453  44.274  11.073
66673W        W38966  13.795  33.924   0.282
66674W        W38967   9.379  17.283   2.891
66675W        W38968  40.498  30.914  10.609
66676W        W38969  14.632  35.408   2.265
66677W        W38970  14.644  42.905   3.244
66678W        W38971  27.625  12.816   2.259
66679W        W38972   1.479  20.700  11.020
66680W        W38973  16.172  33.383  11.899
66681W        W38974  33.494  27.679  11.592
66682W        W38975  25.143   9.177   1.219
66683W        W38976  20.239  43.868  10.567
66684W        W38977  25.984  43.490   0.867
66685W        W38978  37.853  37.021  13.445
66686W        W38979  43.950   8.828  10.915
66687W        W38980  40.382  12.168  11.403
66688W        W38981   4.204  23.232   2.228
66689W        W38982   4.214  34.015   4.606
66690W        W38983   8.361   8.667   1.360
66691W        W38984   0.396   3.760   4.213
66692W        W38985  39.517  28.163   2.740
66693W        W38986  14.624  24.106   0.870
66694W        W38987   2.737  14.158  12.937
66695W        W38988  37.870   1.768  12.434
66696W        W38989  11.356  32.021   4.784
66697W        W38990  32.622  40.526  10.943
66698W        W38991  10.256  18.055   2.878
66699W        W38992  38.012  43.402   2.820
66700W        W38993  19.242  41.977  11.094
66701W        W38994   0.983  38.328   3.209
66702W        W38995  40.538   3.304  14.476
66703W        W38996   8.327  37.526  12.493
66704W        W38997  20.659  36.509   4.170
66705W        W38998  23.493   2.377   9.570
66706W        W38999  29.442  25.015   4.715
66707W        W39000  19.745  34.405   3.737
66708W        W39001  24.220  25.011   0.363
66709W        W39002  23.126  38.051   4.231
66710W        W39003  22.169  31.012  13.054
66711W        W39004   4.329   3.376   3.822
66712W        W39005  15.295  41.526  13.931
66713W        W39006  32.404  33.399   3.660
66714W        W39007   0.816  10.359   3.687
66715W        W39008  42.521   3.948   2.848
66716W        W39009   4.762   6.756  12.938
66717W        W39010  27.571  19.158   2.335
66718W        W39011  42.992  32.062  10.037
66719W        W39012  28.577   4.781   3.313
66720W        W39013  33.935   6.759  10.958
66721W        W39014  20.561  18.778  11.868
66722W        W39015  18.063  34.544  11.451
66723W        W39016  19.194  33.448   4.699
66724W        W39017  17.624   8.814  14.452
66725W        W39018  12.633   3.249   2.339
66726W        W39019  13.689  10.151   3.674
66727W        W39020  10.685  21.117  12.507
66728W        W39021  14.743   7.875   0.938
66729W        W39022   7.849  31.123  11.430
66730W        W39023  12.141  32.019  13.347
66731W        W39024  10.154  34.885   3.675
66732W        W39025  10.273  25.154  12.967
66733W        W39026  39.981  34.996  13.455
66734W        W39027  38.071  38.963  12.472
66735W        W39028   1.869   1.422   3.817
66736W        W39029  27.055  21.042  11.933
66737W        W39030   3.238  13.737   3.701
66738W        W39031  39.823   0.303   1.301
66739W        W39032   4.840   6.795   1.313
66740W        W39033  43.463   9.672   1.396
66741W        W39034  41.382  34.956   3.842
66742W        W39035  23.201  31.582  13.325
66743W        W39036  26.639  41.849   3.289
66744W        W39037  31.503  31.448  14.393
66745W        W39038  13.798  44.908   0.443
66746W        W39039   1.363  43.969   2.210
66747W        W39040  16.631  19.238   1.853
66748W        W39041   0.357  27.008  12.527
66749W        W39042  26.150  18.076   2.883
66750W        W39043  23.505  34.381  14.789
66751W        W39044  37.357  44.400  13.811
66752W        W39045  25.490  29.998  13.992
66753W        W39046  29.470   0.462   0.734
66754W        W39047  38.075  24.131  13.410
66755W        W39048  34.931  17.201   3.846
66756W        W39049   5.762  12.241   0.431
66757W        W39050  36.061  15.691   3.228
66758W        W39051  20.601  32.401   0.746
66759W        W39052  36.536   2.340  10.513
66760W        W39053   1.823   3.268  11.915
66761W        W39054  44.955  41.441   2.315
66762W        W39055  13.645  42.381   0.740
66763W        W39056  39.935   7.228   0.424
66764W        W39057   6.265  24.501  10.983
66765W        W39058  14.177  21.031   9.971
66766W        W39059  39.560  17.662   3.359
66767W        W39060  12.352  31.987   0.338
66768W        W39061  22.243  15.229   3.652
66769W        W39062  27.654   3.831   2.269
66770W        W39063   2.352  42.422  12.018
66771W        W39064   8.796   3.435   0.328
66772W        W39065  18.777  35.480   2.896
66773W        W39066   7.241  16.619   3.811
66774W        W39067  29.617  15.718   2.744
66775W        W39068  19.045  18.121   4.275
66776W        W39069  31.558  23.023   3.276
66777W        W39070  11.674  37.415  12.028
66778W        W39071   2.750  25.563   0.875
66779W        W39072  15.764  15.752  11.013
66780W        W39073   1.329   4.255  12.526
66781W        W39074  15.304  25.187  11.926
66782W        W39075   7.292  44.844   3.273
66783W        W39076  15.810  14.247  11.024
66784W        W39077  24.205  29.629  14.329
66785W        W39078  10.272  18.116   3.301
66786W        W39079  37.451  39.027  14.847
66787W        W39080  39.925  14.750   2.678
66788W        W39081  19.154  25.665   4.799
66789W        W39082  31.064  19.052   2.727
66790W        W39083  11.862  21.108   1.249
66791W        W39084   2.442  34.086  11.396
66792W        W39085  42.318  40.459  10.553
66793W        W39086  22.102  25.180  12.388
66794W        W39087   3.368   8.182   3.213
66795W        W39088  22.635  17.307  12.847
66796W        W39089  36.513  24.515   0.469
66797W        W39090  30.131  41.383   2.901
66798W        W39091  13.142  20.177  10.568
66799W        W39092   9.343  38.504   0.446
66800W        W39093   4.843  20.707  12.918
66801W        W39094  42.977   8.303   4.646
66802W        W39095  25.130  31.523   3.350
66803W        W39096  29.439  16.077   2.224
66804W        W39097  22.161  38.560  10.932
66805W        W39098  43.797  13.237  14.011
66806W        W39099  25.581   2.426  11.454
66807W        W39100  35.872  14.101   4.192
66808W        W39101   7.822  25.645   4.678
66809W        W39102  22.253  10.343  10.559
66810W        W39103  18.162  30.992   1.729
66811W        W39104   9.205  25.093  13.863
66812W        W39105  43.899  18.578  13.513
66813W        W39106  21.058   0.762   0.738
66814W        W39107  30.498  18.684   5.081
66815W        W39108  40.936  42.890   4.830
66816W        W39109  20.051  34.373  14.415
66817W        W39110  26.151  39.527  12.521
66818W        W39111   0.288  34.916  12.473
66819W        W39112   2.786  44.993  11.112
66820W        W39113  40.412   2.954  11.528
66821W        W39114  37.884  22.143   3.785
66822W        W39115  32.566   7.782  14.010
66823W        W39116  27.690   3.352  14.385
66824W        W39117  27.059  31.943  13.435
66825W        W39118  23.727  17.170  11.465
66826W        W39119  16.116   3.401   3.333
66827W        W39120   4.445  37.844   3.697
66828W        W39121  32.116   0.987  13.058
66829W        W39122   7.326   6.194   4.206
66830W        W39123  23.559  13.159   2.391
66831W        W39124  33.462  10.685  14.999
66832W        W39125  15.243  38.044   4.652
66833W        W39126  18.253  41.827   4.675
66834W        W39127   7.799  12.121  13.004
66835W        W39128  23.083  22.182  11.906
66836W        W39129  23.016   8.728   0.837
66837W        W39130  23.066  27.161   4.751
66838W        W39131  33.585  22.249  10.596
66839W        W39132  16.220  44.412   3.703
66840W        W39133   0.816  10.330  10.055
66841W        W39134  13.777  22.102  12.028
66842W        W39135   7.909  11.136  12.849
66843W        W39136  13.215  34.975  10.490
66844W        W39137  13.311   2.921  13.513
66845W        W39138  21.024  31.597  14.488
66846W        W39139   6.908  26.606   3.345
66847W        W39140  30.152   3.849  11.559
66848W        W39141  24.502  16.764   1.902
66849W        W39142  23.659  32.015   2.377
66850W        W39143  40.340  29.512  14.491
66851W        W39144  38.344  41.043   3.167
66852W        W39145  37.478  19.167   0.737
66853W        W39146  25.030  16.169   3.787
66854W        W39147  44.779  25.216   1.906
66855W        W39148  40.418  18.085   2.742
66856W        W39149  36.913  18.770   0.319
66857W        W39150  40.512  39.325   1.395
66858W        W39151  14.639  36.438  11.008
66859W        W39152  14.249  19.641   1.413
66860W        W39153  27.029  20.546  14.353
66861W        W39154  19.223   5.214  13.896
66862W        W39155  34.107  14.115  13.341
66863W        W39156  16.682   0.750  10.999
66864W        W39157  30.562  41.950   3.186
66865W        W39158  30.569   8.881  13.904
66866W        W39159  25.980  37.557  14.495
66867W        W39160   4.256  42.468  10.444
66868W        W39161  39.914  16.111  10.901
66869W        W39162  20.735   1.442  10.502
66870W        W39163  20.645  25.054  11.509
66871W        W39164   5.199  27.974   3.363
66872W        W39165  36.468  16.116   2.744
66873W        W39166  41.517  27.619  13.317
66874W        W39167   8.677  13.236  12.952
66875W        W39168  38.910  40.368  12.468
66876W        W39169   3.726  13.146  14.833
66877W        W39170   6.199  32.099   3.865
66878W        W39171  10.230  37.940   0.393
66879W        W39172  25.203  38.498   0.418
66880W        W39173  19.715   4.828   3.760
66881W        W39174  12.786  10.751  11.865
66882W        W39175  20.628  35.985  12.854
66883W        W39176   2.901  15.676   4.729
66884W        W39177  28.998  17.717  13.425
66885W        W39178   8.834  13.664  11.955
66886W        W39179  14.263   4.330  11.568
66887W        W39180   2.828  26.020  11.049
66888W        W39181  39.919  16.169  10.500
66889W        W39182  40.388  22.157  12.980
66890W        W39183  22.685  13.190   3.161
66891W        W39184   8.899  14.742  12.966
66892W        W39185  20.665  41.970  14.382
66893W        W39186   5.867  15.727   4.347
66894W        W39187  23.539  19.734  14.995
66895W        W39188  36.503   2.772  14.928
66896W        W39189   4.758  40.415  14.776
66897W        W39190  14.770   5.715   4.624
66898W        W39191  38.441  25.101   0.402
66899W        W39192  11.666  34.102   4.709
66900W        W39193  26.683  32.406   0.866
66901W        W39194  11.227  19.125  12.885
66902W        W39195  23.149  26.514   3.650
66903W        W39196  30.951  11.829  13.367
66904W        W39197  18.689   8.216  13.319
66905W        W39198  13.294   5.905  14.342
66906W        W39199  33.407  15.643  14.349
66907W        W39200  21.642  18.707  14.940
66908W        W39201  37.041   1.362   2.716
66909W        W39202  37.540  40.859   0.475
66910W        W39203   4.871  36.570  12.549
66911W        W39204   4.798  43.433  13.346
66912W        W39205   8.819  23.645   1.366
66913W        W39206   0.250  13.610   3.756
66914W        W39207  44.815  38.410   4.833
66915W        W39208  26.120  14.207  10.948
66916W        W39209  18.602  35.096   1.863
66917W        W39210  16.684  22.608  10.101
66918W        W39211   9.161  31.952   2.720
66919W        W39212  20.565  19.108  14.351
66920W        W39213  29.125  30.631   4.649
66921W        W39214   0.391   9.700  10.576
66922W        W39215  16.680  20.196   0.352
66923W        W39216  39.925  30.580   4.780
66924W        W39217  12.762  25.093   1.750
66925W        W39218   4.699  26.969  11.908
66926W        W39219   7.885  31.534   2.683
66927W        W39220  28.060  31.595  10.541
66928W        W39221  10.150  27.533  13.402
66929W        W39222   4.245  15.187   4.719
66930W        W39223   5.845  30.536  13.368
66931W        W39224  36.446  22.674  13.817
66932W        W39225  31.087  22.605   4.164
66933W        W39226  20.077  17.592   2.802
66934W        W39227  28.472  16.774   3.286
66935W        W39228  30.490   7.237   3.630
66936W        W39229   3.760  28.615   0.924
66937W        W39230   4.359   0.474  11.103
66938W        W39231  32.544  22.099   0.897
66939W        W39232  32.502  42.931   5.103
66940W        W39233  35.005  20.545   0.387
66941W        W39234  20.628  15.293   2.190
66942W        W39235   5.881  44.889  13.315
66943W        W39236   3.447  37.996  14.483
66944W        W39237   0.980  12.643   3.204
66945W        W39238  41.953  29.952  13.057
66946W        W39239  21.094  38.868  11.566
66947W        W39240  41.799  31.063   3.375
66948W        W39241  28.938  41.525   4.151
66949W        W39242  32.451  44.287  11.116
66950W        W39243  41.898  22.233  11.858
66951W        W39244  13.658  27.469  10.971
66952W        W39245   9.707   6.839  14.471
66953W        W39246  22.239  38.880  14.848
66954W        W39247  44.763   7.756  12.369
66955W        W39248  29.007   9.354  12.517
66956W        W39249  34.930  32.396   0.759
66957W        W39250  26.043  28.596  14.510
66958W        W39251  16.078   9.724  13.456
66959W        W39252  23.020  23.605  14.790
66960W        W39253  35.385   7.824  13.825
66961W        W39254  21.672  41.880   4.615
66962W        W39255  15.765  15.758  10.591
66963W        W39256  42.835   3.736   3.263
66964W        W39257  27.055  14.658  12.430
66965W        W39258   0.758  41.507  11.010
66966W        W39259  15.116  22.071   3.366
66967W        W39260  19.224  29.473   4.206
66968W        W39261  18.180  26.567  12.389
66969W        W39262   4.714  22.222  10.974
66970W        W39263  29.576  24.168  13.432
66971W        W39264  36.957  41.995  10.408
66972W        W39265  20.618  19.168  14.003
66973W        W39266  37.520  40.464   2.899
66974W        W39267  17.261  38.881  13.334
66975W        W39268  40.521  15.724   0.311
66976W        W39269  40.929  32.560   2.296
66977W        W39270  35.968   0.452   0.388
66978W        W39271   0.260  20.742  10.411
66979W        W39272  13.755  33.016  11.129
66980W        W39273   9.649  11.160   2.232
66981W        W39274   6.780  38.451   0.387
66982W        W39275  18.125  26.685   3.866
66983W        W39276  38.928   8.330   3.657
66984W        W39277  37.560   5.399   4.206
66985W        W39278  29.099  36.038   1.268
66986W        W39279  37.043  25.967  14.491
66987W        W39280  39.908   4.931   0.342
66988W        W39281  16.232   1.452  13.546
66989W        W39282  11.151  17.140  13.832
66990W        W39283  31.073  25.028   2.754
66991W        W39284  26.965  21.716  11.917
66992W        W39285   0.829   5.385  14.863
66993W        W39286  13.694  32.129  13.449
66994W        W39287  26.567  34.480  14.419
66995W        W39288  35.046   7.231   4.752
66996W        W39289  13.222  39.952   9.949
66997W        W39290  14.235  24.977   4.183
66998W        W39291  18.765  41.462  12.035
66999W        W39292   2.435  37.555   0.387
67000W        W39293  25.174   0.418   1.292
67001W        W39294  38.894   7.285   9.969
67002W        W39295  42.306  42.776  10.048
67003W        W39296   8.385  18.143   3.383
67004W        W39297  43.274  36.396   2.354
67005W        W39298  43.363  23.517  12.400
67006W        W39299   1.368  27.470   0.426
67007W        W39300  27.691  22.031  14.480
67008W        W39301   8.839   1.814   0.901
67009W        W39302  34.096  12.222  14.865
67010W        W39303  28.543  12.725  11.932
67011W        W39304   3.229  42.802   1.247
67012W        W39305  43.499  27.957  10.532
67013W        W39306  32.577  41.998   4.300
67014W        W39307   4.817  26.696  14.418
67015W        W39308  34.429  43.014  12.442
67016W        W39309   5.923   1.770   1.331
67017W        W39310  30.157  25.092  12.017
67018W        W39311  32.501  34.093   3.678
67019W        W39312  15.216  13.218   3.758
67020W        W39313  12.727  25.185  14.278
67021W        W39314  14.689   7.888  14.945
67022W        W39315  43.371  15.217  11.436
67023W        W39316   5.306  35.375  12.949
67024W        W39317  16.734   3.430  13.992
67025W        W39318  15.795  13.674  14.473
67026W        W39319  31.418  40.457  11.475
67027W        W39320  15.265  30.443  12.900
67028W        W39321   6.721  12.348   2.864
67029W        W39322  19.733  24.017   3.696
67030W        W39323  24.187  33.572  13.445
67031W        W39324   8.266  18.721   3.870
67032W        W39325  14.122  32.435  13.888
67033W        W39326  44.925  41.346   1.276
67034W        W39327  26.200   0.288  10.607
67035W        W39328   9.693   9.198   1.235
67036W        W39329  26.555  30.570  11.562
67037W        W39330   8.745  12.661  10.901
67038W        W39331   0.404   7.772   3.367
67039W        W39332  39.372   2.748   3.863
67040W        W39333  15.215  32.088   4.316
67041W        W39334  28.176   6.272   4.332
67042W        W39335  23.635  20.221  14.810
67043W        W39336  25.195  31.403  13.383
67044W        W39337  10.295   8.391  11.017
67045W        W39338  20.078   5.358   0.859
67046W        W39339  14.222   7.840  11.388
67047W        W39340  44.291  32.558   4.217
67048W        W39341  24.219  23.046   2.760
67049W        W39342  27.121  39.508   4.698
67050W        W39343  42.299  12.173  11.124
67051W        W39344  35.104  12.326   2.793
67052W        W39345  17.293  26.100  12.971
67053W        W39346   5.429  33.879   1.216
67054W        W39347  16.304  39.928   0.875
67055W        W39348  13.665  12.194  14.444
67056W        W39349  16.748  15.724   1.826
67057W        W39350  22.697   1.452  10.603
67058W        W39351   7.827  36.041  14.408
67059W        W39352  22.543  24.708   4.148
67060W        W39353  29.649  24.083   5.219
67061W        W39354  24.499  29.551   0.936
67062W        W39355   6.787  39.006   4.803
67063W        W39356  30.625  14.206  12.379
67064W        W39357  11.294  19.657   4.826
67065W        W39358  18.611   7.331  11.610
67066W        W39359   8.267  40.901   0.455
67067W        W39360  27.637  23.636  12.062
67068W        W39361  20.259   3.390   2.865
67069W        W39362   4.302   1.279  10.625
67070W        W39363   8.309  44.779  10.931
67071W        W39364   8.324  41.861  12.978
67072W        W39365  26.610  15.592   4.773
67073W        W39366   8.774  19.202   4.291
67074W        W39367   3.843  20.140  11.064
67075W        W39368  38.354  22.139  13.514
67076W        W39369  28.107  15.748   9.973
67077W        W39370  44.918   6.752  13.524
67078W        W39371  29.978  38.528   2.812
67079W        W39372  10.860   7.170   3.658
67080W        W39373  23.585  37.517  13.963
67081W        W39374  25.181  36.077  12.942
67082W        W39375  11.161   8.246   1.932
67083W        W39376   6.205  23.517  10.934
67084W        W39377  24.571  18.208   4.342
67085W        W39378  44.007  43.948   1.919
67086W        W39379   2.410  33.043  10.931
67087W        W39380  28.159   1.339   3.366
67088W        W39381  20.542  12.316  14.872
67089W        W39382  20.249  18.623   0.250
67090W        W39383  11.784  17.701  12.578
67091W        W39384  12.681  21.080  12.057
67092W        W39385  37.497  42.338  11.509
67093W        W39386   0.367   5.330   2.723
67094W        W39387  39.964  39.024  14.432
67095W        W39388  41.032  33.014   2.348
67096W        W39389  25.514   9.216  12.017
67097W        W39390   6.407  40.920   0.762
67098W        W39391  43.400  36.938  14.857
67099W        W39392  13.184  33.899   0.375
67100W        W39393  39.539  38.877   1.370
67101W        W39394  33.626  28.983  12.970
67102W        W39395   0.298  14.796   2.212
67103W        W39396  14.832  28.036   1.774
67104W        W39397  42.846   9.202   3.147
67105W        W39398   7.840   3.764  14.858
67106W        W39399  35.091  19.212  11.602
67107W        W39400  24.012  16.571   2.251
67108W        W39401  19.726  27.623  12.354
67109W        W39402  14.260  15.319   2.757
67110W        W39403  29.568  26.684   3.293
67111W        W39404  39.883  41.358   4.224
67112W        W39405  31.466   0.365  14.352
67113W        W39406  18.744   3.263  10.501
67114W        W39407  32.000   7.737   1.732
67115W        W39408  24.700  17.749  13.849
67116W        W39409  19.777  42.392  10.645
67117W        W39410  39.856  12.307   3.306
67118W        W39411  28.605  10.231   1.830
67119W        W39412  19.631  33.878   4.619
67120W        W39413  27.981   7.740  14.491
67121W        W39414  26.999  31.449  13.018
67122W        W39415  19.158  17.575  10.637
67123W        W39416  33.447  24.071   1.351
67124W        W39417  36.360  39.484  10.929
67125W        W39418  27.043  17.607   1.904
67126W        W39419  33.043  31.923  14.792
67127W        W39420  28.114  31.538   3.859
67128W        W39421  22.202   3.391  10.408
67129W        W39422  29.088  25.695   2.257
67130W        W39423  20.034  13.824   2.894
67131W        W39424   9.381  12.275  11.425
67132W        W39425   8.798  19.176   0.340
67133W        W39426  29.010   6.832   0.346
67134W        W39427  20.723  43.852   1.862
67135W        W39428   4.858  26.016  14.301
67136W        W39429  18.245   4.935   1.716
67137W        W39430  13.347  18.569   2.246
67138W        W39431  39.474  40.049   4.790
67139W        W39432   3.716  34.482  13.407
67140W        W39433  26.611  43.474   1.809
67141W        W39434  13.602  44.876   3.202
67142W        W39435  25.178  42.986   2.729
67143W        W39436   6.708  12.725  14.368
67144W        W39437  34.511   5.818   0.780
67145W        W39438   5.754  23.494  10.442
67146W        W39439  16.799   4.420  13.936
67147W        W39440  20.534   0.918  11.041
67148W        W39441  26.689  27.185   3.217
67149W        W39442  23.197  37.568   3.190
67150W        W39443  19.544  41.012  11.902
67151W        W39444  23.040  43.391  12.954
67152W        W39445  38.866  36.569  10.403
67153W        W39446   4.718  14.769  12.038
67154W        W39447  41.911  17.764   2.808
67155W        W39448   7.871  30.145  13.920
67156W        W39449  30.154   1.324   1.438
67157W        W39450  33.465  16.232   4.298
67158W        W39451  26.194  44.993   2.373
67159W        W39452  11.805  20.071   3.819
67160W        W39453  28.595  18.246   4.743
67161W        W39454  25.187   2.731   2.215
67162W        W39455   2.263  22.585   2.752
67163W        W39456  22.048  34.569   0.755
67164W        W39457  14.102  36.463   1.226
67165W        W39458  37.895  26.467   0.431
67166W        W39459  25.059  43.838  11.046
67167W        W39460  22.746  25.210   4.117
67168W        W39461   4.735  41.396  13.513
67169W        W39462  11.307   0.437   4.235
67170W        W39463  38.402  39.315  12.964
67171W        W39464  30.557  23.634   4.727
67172W        W39465  43.892  35.479   1.261
67173W        W39466  35.996  29.523   1.843
67174W        W39467  12.852  15.682  13.855
67175W        W39468  39.515  33.092  11.510
67176W        W39469   1.921  28.082   3.838
67177W        W39470  14.303   7.415   2.213
67178W        W39471  31.102  25.056   4.345
67179W        W39472  17.740  33.503  11.928
67180W        W39473  43.479  40.521   1.748
67181W        W39474  28.549   9.696  11.424
67182W        W39475  22.589  22.065  12.926
67183W        W39476  22.607  19.742  10.621
67184W        W39477  25.582   3.868   2.275
67185W        W39478  24.502  23.129   3.789
67186W        W39479  21.125   7.706  14.962
67187W        W39480  20.201   5.264  10.558
67188W        W39481   7.306  43.892   1.812
67189W        W39482   0.964  24.109  12.946
67190W        W39483  40.372  12.310  10.500
67191W        W39484  15.226   7.327   0.354
67192W        W39485  19.630  22.058   2.692
67193W        W39486  35.408  43.403   2.212
67194W        W39487  11.795   3.936   0.470
67195W        W39488  33.997  21.077  14.969
67196W        W39489   3.823  34.596   2.743
67197W        W39490  13.204  16.307   1.776
67198W        W39491  13.798   1.283   5.665
67199W        W39492  12.178  44.404   2.311
67200W        W39493  38.342  24.174  12.484
67201W        W39494  38.879  43.452   2.374
67202W        W39495  13.242  37.422  11.957
67203W        W39496   4.331  24.577  10.604
67204W        W39497  38.969  22.588  14.375
67205W        W39498  15.795  38.444   3.657
67206W        W39499  15.699   7.833   0.901
67207W        W39500  40.947   9.346   4.253
67208W        W39501  21.530   6.745   2.349
67209W        W39502  11.692  17.127  14.951
67210W        W39503  28.468   4.328   1.449
67211W        W39504  13.830  32.112  10.516
67212W        W39505  11.352  22.239  12.453
67213W        W39506   4.274   2.740  11.855
67214W        W39507  35.963  13.272  12.376
67215W        W39508   6.419  16.286  13.465
67216W        W39509  16.312  33.488   0.964
67217W        W39510  33.610  19.675  11.561
67218W        W39511  36.068  14.668   2.700
67219W        W39512  36.093  38.012   0.378
67220W        W39513  25.186  42.928  12.456
67221W        W39514  11.699  36.012  12.880
67222W        W39515  23.501   7.708   4.651
67223W        W39516  42.974  20.533   0.832
67224W        W39517  17.794  26.624  11.010
67225W        W39518  12.236  29.632   1.250
67226W        W39519  20.542  44.834  11.861
67227W        W39520  14.200   9.749  10.574
67228W        W39521  34.873  10.223   0.863
67229W        W39522  17.128  19.095  15.000
67230W        W39523  30.426  19.664  11.467
67231W        W39524   2.308  26.677  11.463
67232W        W39525   2.289  14.098   3.845
67233W        W39526  28.030  27.656  10.920
67234W        W39527  31.547  42.496  14.967
67235W        W39528  15.226  26.160   2.217
67236W        W39529  13.136   4.360   2.757
67237W        W39530  27.943  26.051  13.896
67238W        W39531  20.697  25.648  12.967
67239W        W39532  42.387  29.436  14.806
67240W        W39533  41.426  44.401   1.345
67241W        W39534  31.597  16.589  13.043
67242W        W39535  20.068  42.885  14.966
67243W        W39536  36.991  27.119   1.770
67244W        W39537  24.492  13.681   4.675
67245W        W39538  39.448  30.942   2.365
67246W        W39539  23.641  44.311  12.361
67247W        W39540  12.713  33.113  10.918
67248W        W39541  25.161   5.701   4.190
67249W        W39542   1.261  29.165   2.665
67250W        W39543  20.569  39.555  14.441
67251W        W39544   2.454  26.675   4.830
67252W        W39545  32.016  14.110  14.367
67253W        W39546  25.659  10.197  12.847
67254W        W39547  17.243   6.421  11.443
67255W        W39548  39.046  29.469  12.341
67256W        W39549  27.176  27.612   2.899
67257W        W39550  23.606  30.012  11.112
67258W        W39551  44.811  35.103  11.410
67259W        W39552  25.602   0.269  14.798
67260W        W39553  40.315   4.913   9.985
67261W        W39554  22.214  40.316  12.425
67262W        W39555  23.501  12.133  12.368
67263W        W39556  13.153  28.609   0.783
67264W        W39557  12.785  30.461   1.389
67265W        W39558  22.239  32.952   4.757
67266W        W39559  20.210  15.811  11.005
67267W        W39560  19.215  12.728   4.131
67268W        W39561   4.440   4.255   4.259
67269W        W39562  10.872  24.569   4.296
67270W        W39563  19.168   1.910  13.803
67271W        W39564   5.841  28.523   0.449
67272W        W39565  36.571   6.708   3.374
67273W        W39566  28.512   7.221  12.929
67274W        W39567  30.998  40.894  11.067
67275W        W39568  41.872   2.403  13.993
67276W        W39569  44.357  11.323   4.308
67277W        W39570   2.918   7.791  10.999
67278W        W39571   6.370  35.870  12.443
67279W        W39572  42.523  25.050  10.407
67280W        W39573   6.286   1.875   1.433
67281W        W39574  24.553  28.075  10.508
67282W        W39575  33.546  29.658  12.089
67283W        W39576   1.826  31.933  11.416
67284W        W39577  37.551  27.601  10.540
67285W        W39578   2.897  44.773  11.379
67286W        W39579   0.847  12.241   0.922
67287W        W39580  34.896  29.155  12.579
67288W        W39581   6.411  17.142  11.079
67289W        W39582  11.803  35.868  13.834
67290W        W39583  39.554   0.427   0.859
67291W        W39584  23.097   5.764  14.350
67292W        W39585   7.874   7.264   2.794
67293W        W39586   1.734  25.119   1.703
67294W        W39587  29.022   8.842   2.762
67295W        W39588  22.538  39.342   0.838
67296W        W39589  30.623  39.022  14.960
67297W        W39590  37.056   0.932   4.717
67298W        W39591  26.087   9.294  13.985
67299W        W39592  20.758   4.354  11.890
67300W        W39593   2.797  31.092  10.925
67301W        W39594  35.085  10.805  12.922
67302W        W39595  27.456  31.614  13.946
67303W        W39596  19.614  34.518  12.022
67304W        W39597  43.907  36.440  10.920
67305W        W39598  13.226   1.819  13.521
67306W        W39599  15.664  26.089  12.564
67307W        W39600  35.411  35.591  13.980
67308W        W39601  36.921  31.038  11.008
67309W        W39602  41.935  42.864   4.835
67310W        W39603  44.412   9.859   1.919
67311W        W39604   2.761  28.081   0.880
67312W        W39605  30.969  13.729   2.289
67313W        W39606   2.227  24.115  14.409
67314W        W39607  16.234  28.551  13.902
67315W        W39608  25.107  34.934  11.974
67316W        W39609  37.832  34.374  14.850
67317W        W39610  40.956   8.841  14.981
67318W        W39611  43.794  13.204  14.400
67319W        W39612  20.737  43.440  13.967
67320W        W39613  10.658  35.497   3.236
67321W        W39614  20.725   1.790   3.821
67322W        W39615  36.406   0.319   1.243
67323W        W39616  12.137  41.923   0.456
67324W        W39617   1.911  16.073  14.330
67325W        W39618  37.021  15.782  13.814
67326W        W39619  44.290  41.984   5.153
67327W        W39620  12.169  27.608  11.547
67328W        W39621  22.537  43.412   2.384
67329W        W39622  18.059  11.692   2.393
67330W        W39623  38.881  19.051  11.010
67331W        W39624  12.739  13.614   3.229
67332W        W39625  40.893  39.475   2.369
67333W        W39626  42.355  13.254  13.351
67334W        W39627   8.678  34.927   1.820
67335W        W39628  12.677  25.201  10.515
67336W        W39629  21.234  27.644   4.270
67337W        W39630  39.370  26.030  13.409
67338W        W39631   9.353  23.610  10.057
67339W        W39632   3.895  43.925   1.787
67340W        W39633  29.627  27.173  13.912
67341W        W39634  36.956  14.101   2.902
67342W        W39635  25.622  20.256  13.318
67343W        W39636  44.348  31.057   2.304
67344W        W39637  25.679  11.213  13.456
67345W        W39638  44.485  25.663  11.037
67346W        W39639  12.282   1.286   1.880
67347W        W39640   7.800   1.871   1.314
67348W        W39641  12.245  36.503   3.639
67349W        W39642  16.692  28.988  14.924
67350W        W39643   0.448   4.797   3.346
67351W        W39644  18.199   8.748  11.973
67352W        W39645   2.299  32.416   0.762
67353W        W39646   5.414  29.513  12.999
67354W        W39647  42.910   8.700   3.758
67355W        W39648  18.743   6.224  13.914
67356W        W39649  30.594  39.463   2.276
67357W        W39650  29.430  26.503   2.725
67358W        W39651  30.542  22.634   2.899
67359W        W39652  30.980  11.203   2.826
67360W        W39653  41.494  26.108   3.228
67361W        W39654  33.102   7.735   4.187
67362W        W39655  25.012  25.144   0.373
67363W        W39656  10.867  11.661  11.896
67364W        W39657  44.963  15.792   4.673
67365W        W39658  38.349  41.469  10.614
67366W        W39659  13.824  12.144  14.860
67367W        W39660  24.101  41.972  13.838
67368W        W39661   1.912  33.472  12.872
67369W        W39662  13.200  41.908   4.204
67370W        W39663   1.966  21.574  10.989
67371W        W39664  19.213  41.930   0.262
67372W        W39665   9.384  27.155  11.496
67373W        W39666  42.298  36.507  13.027
67374W        W39667  20.273  33.436   0.364
67375W        W39668  40.320  26.017  11.404
67376W        W39669  32.053  21.512  14.338
67377W        W39670  27.562  33.386   1.371
67378W        W39671   4.709  20.524   4.718
67379W        W39672   6.293  39.882   5.177
67380W        W39673  27.685  36.374  12.904
67381W        W39674  34.443  18.115  11.597
67382W        W39675  36.906  10.155   0.868
67383W        W39676   6.904  16.734   0.483
67384W        W39677  42.920   9.849  13.801
67385W        W39678  22.714  30.595  13.486
67386W        W39679   8.724  15.810  12.423
67387W        W39680  15.755  29.151  13.817
67388W        W39681  28.071  43.893   4.319
67389W        W39682   7.295  13.783   4.351
67390W        W39683  35.002  13.351  11.448
67391W        W39684   0.248  18.239   2.808
67392W        W39685   4.338  30.590   1.866
67393W        W39686  26.955  33.501  11.553
67394W        W39687   2.235  28.615  11.861
67395W        W39688  37.538   9.311   0.413
67396W        W39689  32.966  40.887   4.131
67397W        W39690  20.546  34.604   1.914
67398W        W39691   5.705  20.749  14.882
67399W        W39692  27.181  42.911  13.014
67400W        W39693  42.509  27.161  13.855
67401W        W39694  29.485  18.708  10.902
67402W        W39695  21.717  11.636   2.253
67403W        W39696  31.902  16.597   0.348
67404W        W39697   7.343  44.805  10.486
67405W        W39698  35.595  15.743  10.488
67406W        W39699  38.013  10.175  10.126
67407W        W39700   0.463  39.984   1.738
67408W        W39701  19.559  15.304   0.731
67409W        W39702   0.371  28.615  14.407
67410W        W39703  23.498  13.141  13.502
67411W        W39704  19.062  29.612  12.432
67412W        W39705  43.448  43.817  10.133
67413W        W39706  43.338  42.999   1.923
67414W        W39707   3.936   7.676   0.751
67415W        W39708  25.016  24.548  12.889
67416W        W39709  19.243   8.661  14.853
67417W        W39710  28.102  10.140   1.332
67418W        W39711  37.060   8.250   2.815
67419W        W39712   6.329   2.417   0.311
67420W        W39713  32.067  17.142   1.246
67421W        W39714  18.626  21.610   4.653
67422W        W39715   8.700   9.187   2.866
67423W        W39716   3.902  29.633  13.405
67424W        W39717   5.923  15.115   2.200
67425W        W39718  12.259  31.530   2.293
67426W        W39719  20.756  41.967   4.656
67427W        W39720   4.214   3.720  10.959
67428W        W39721   7.350  40.836  14.495
67429W        W39722   9.763  23.547  14.810
67430W        W39723  40.487   1.334   0.427
67431W        W39724  36.566  14.198  13.022
67432W        W39725  42.839  44.990   4.824
67433W        W39726  21.554  39.553   2.817
67434W        W39727  20.711  14.327   1.251
67435W        W39728   4.246   6.811  13.827
67436W        W39729  23.521  17.677  10.593
67437W        W39730  28.436  30.465   3.730
67438W        W39731  35.430   9.154   3.755
67439W        W39732  42.410  28.660  10.631
67440W        W39733   9.705   7.909  10.921
67441W        W39734  42.832  22.130   0.798
67442W        W39735  16.223   0.410   0.246
67443W        W39736  38.849   5.333  14.019
67444W        W39737  41.941  34.407  13.336
67445W        W39738  17.577  17.128   0.442
67446W        W39739  43.499  33.053  10.458
67447W        W39740   2.915  14.677  12.824
67448W        W39741  23.573  26.687  10.505
67449W        W39742   7.385  32.627  11.450
67450W        W39743   9.264  21.562  14.980
67451W        W39744  25.596   8.397  12.873
67452W        W39745  12.223  35.406   1.703
67453W        W39746  17.683  24.173  12.014
67454W        W39747  15.753  24.619   1.866
67455W        W39748   0.912   8.247   1.222
67456W        W39749  33.546   2.931   4.273
67457W        W39750  31.007   4.435  12.057
67458W        W39751  31.416  20.249   2.792
67459W        W39752   2.420  38.050  12.917
67460W        W39753  33.032   4.210  10.604
67461W        W39754   4.933   4.282  14.829
67462W        W39755  31.023  44.311   3.162
67463W        W39756   2.877   3.392   3.709
67464W        W39757  12.174  40.953   1.286
67465W        W39758  42.922  41.904   2.792
67466W        W39759  15.789  11.768  13.843
67467W        W39760  40.918  43.466  14.401
67468W        W39761   6.747   1.934  14.942
67469W        W39762  11.672   8.387   2.735
67470W        W39763  19.141  34.391  13.027
67471W        W39764   4.804  29.140   2.844
67472W        W39765  25.213  26.202  12.441
67473W        W39766  16.138  21.613   4.145
67474W        W39767  36.499  18.718  11.956
67475W        W39768  41.857   4.886   4.689
67476W        W39769  25.628  33.113   2.299
67477W        W39770  30.138  35.545  14.465
67478W        W39771  17.167  39.841  11.408
67479W        W39772   3.881  10.147  11.987
67480W        W39773   5.894  43.320   0.432
67481W        W39774  16.810  39.401   0.888
67482W        W39775  39.901  14.652   3.181
67483W        W39776  30.087  34.956  14.934
67484W        W39777  15.282  31.075   1.302
67485W        W39778  43.991   9.152  14.957
67486W        W39779  29.657  31.008  10.935
67487W        W39780  35.966   8.404  13.944
67488W        W39781  23.680  41.934   2.693
67489W        W39782  38.066   7.779  12.968
67490W        W39783   5.882  30.150   2.203
67491W        W39784  38.935  35.011   3.771
67492W        W39785  31.943  15.148   2.217
67493W        W39786   0.799   1.879  10.983
67494W        W39787  13.756  20.671  13.488
67495W        W39788  27.479   1.342  13.021
67496W        W39789   1.328  31.904  14.808
67497W        W39790  27.682  23.023   1.211
67498W        W39791  32.102  23.582   0.262
67499W        W39792  42.412  28.469   3.638
67500W        W39793  41.315  11.373   4.640
67501W        W39794  42.422  43.396  12.571
67502W        W39795  41.431  36.843   0.804
67503W        W39796  24.679   7.670  14.984
67504W        W39797  38.076  39.477  11.992
67505W        W39798   0.778   2.261   2.324
67506W        W39799  41.926  11.262   2.301
67507W        W39800  26.080  23.985  14.442
67508W        W39801  17.607  10.164  12.057
67509W        W39802  36.091  25.637   3.237
67510W        W39803   8.697  37.558  13.843
67511W        W39804   5.401  14.310   1.698
67512W        W39805   4.228   4.231  11.583
67513W        W39806  44.908   1.867  11.950
67514W        W39807  33.523   4.318  13.392
67515W        W39808  24.679   1.246  13.505
67516W        W39809   6.806  32.109  10.416
67517W        W39810  13.186  38.368  12.896
67518W        W39811  20.577   1.872   4.805
67519W        W39812  18.138  33.018   4.142
67520W        W39813   4.314  23.207   0.837
67521W        W39814  30.541  34.522  13.913
67522W        W39815  38.935   1.794   3.739
67523W        W39816  42.997   1.887   0.875
67524W        W39817  39.954  38.840  10.940
67525W        W39818   0.485  30.162   1.872
67526W        W39819  13.761   7.804   4.169
67527W        W39820  29.931   1.941   4.338
67528W        W39821  44.467  18.186  12.833
67529W        W39822   2.322  43.431  12.557
67530W        W39823  20.544   0.423   0.349
67531W        W39824  25.584  10.835   3.179
67532W        W39825  31.075  34.992  14.839
67533W        W39826   9.300  14.743  14.398
67534W        W39827  30.152  22.722   3.326
67535W        W39828  42.440  12.795   2.754
67536W        W39829  36.992  43.909   3.817
67537W        W39830  13.303  29.950   4.195
67538W        W39831  14.693  44.873   3.657
67539W        W39832  21.575  24.202   4.721
67540W        W39833  29.658  24.718   3.774
67541W        W39834  25.146  25.978  10.929
67542W        W39835  10.779  13.266   0.791
67543W        W39836  41.972  36.531  12.450
67544W        W39837   7.675  21.701  13.924
67545W        W39838  16.187  24.108  11.590
67546W        W39839   3.429  41.458  13.028
67547W        W39840  27.463  13.177   0.422
67548W        W39841  39.970  37.073   0.386
67549W        W39842  18.240   8.359  14.021
67550W        W39843  26.615  11.144   5.164
67551W        W39844  34.107   5.419   4.342
67552W        W39845   8.361  26.626   0.277
67553W        W39846  18.625  20.185  14.384
67554W        W39847  12.181   1.921   4.299
67555W        W39848  26.633  37.056   2.697
67556W        W39849  39.868  19.233   2.413
67557W        W39850   2.896  37.073   0.731
67558W        W39851   3.446  15.123   3.377
67559W        W39852  27.954  31.151  13.883
67560W        W39853  21.097  10.351   1.725
67561W        W39854  26.609  10.225   0.926
67562W        W39855  20.184  37.905  13.538
67563W        W39856  42.915  18.194   1.284
67564W        W39857  28.137  39.853   3.309
67565W        W39858  10.367  10.683  13.478
67566W        W39859  40.883  44.837   4.345
67567W        W39860  43.892  42.431   3.195
67568W        W39861   2.935  17.584   1.757
67569W        W39862  10.275  36.452   5.296
67570W        W39863  33.971  39.014   2.295
67571W        W39864   1.275  28.057   4.771
67572W        W39865  43.361   0.343  10.061
67573W        W39866  11.815  24.222  13.848
67574W        W39867  40.911  18.054   5.690
67575W        W39868  34.560  44.968   0.312
67576W        W39869  10.671  37.978  14.799
67577W        W39870   4.771  44.960   3.318
67578W        W39871  34.370  11.253   2.769
67579W        W39872  30.084  12.240  14.025
67580W        W39873   5.426  10.732  12.373
67581W        W39874  28.553  20.051   0.363
67582W        W39875   6.676  17.145  11.869
67583W        W39876  39.366  38.349  12.954
67584W        W39877   2.796  25.962  12.068
67585W        W39878   2.879  24.724  10.527
67586W        W39879  18.169  25.660  10.618
67587W        W39880  39.002  25.613   2.672
67588W        W39881   3.897  10.199   0.379
67589W        W39882  13.793  31.465  10.479
67590W        W39883  31.472  12.847   0.829
67591W        W39884   9.842  16.306  13.010
67592W        W39885  24.023  39.396  14.854
67593W        W39886  35.042  15.316  11.485
67594W        W39887   7.416  35.097  12.855
67595W        W39888  27.653  22.120  13.423
67596W        W39889  19.061  44.877   3.841
67597W        W39890   8.718  26.087   3.256
67598W        W39891  26.591  18.122  12.014
67599W        W39892  37.423   0.789  11.525
67600W        W39893   4.283   0.762  10.915
67601W        W39894  14.236  40.027   0.282
67602W        W39895  10.819  34.530   2.794
67603W        W39896  39.363  15.813  12.082
67604W        W39897  10.712   7.826  11.506
67605W        W39898  17.561  37.566   3.151
67606W        W39899  44.312   1.269  14.413
67607W        W39900  43.380  42.321  10.925
67608W        W39901  41.349  21.749  11.929
67609W        W39902  29.052  15.787  14.964
67610W        W39903  18.183  16.206   0.273
67611W        W39904  32.917  36.456   0.269
67612W        W39905  17.144  30.990  10.481
67613W        W39906  30.988  41.883   1.241
67614W        W39907  38.958  29.434  10.433
67615W        W39908  33.583   1.763  12.995
67616W        W39909  27.165  37.558  11.907
67617W        W39910  17.715   4.912  14.006
67618W        W39911   2.866  10.791  10.415
67619W        W39912   8.732  24.555   1.300
67620W        W39913   8.864   1.785  12.348
67621W        W39914  32.008  25.057  12.029
67622W        W39915  12.828   0.967  14.910
67623W        W39916   3.755  25.037   0.445
67624W        W39917  43.444   0.911   4.127
67625W        W39918   2.319  10.375   0.891
67626W        W39919  19.711  23.622   2.893
67627W        W39920  40.915  39.979  11.929
67628W        W39921  28.444  24.001  10.539
67629W        W39922   5.700   2.311   4.289
67630W        W39923  10.238  13.299   0.314
67631W        W39924  20.626  32.497   0.327
67632W        W39925  32.447   0.900   3.870
67633W        W39926  25.018   6.375   2.303
67634W        W39927   4.282  30.091  12.063
67635W        W39928  29.525  27.619  13.510
67636W        W39929  19.543  15.266   2.291
67637W        W39930  17.585  31.451   3.698
67638W        W39931  23.177   8.774  11.032
67639W        W39932   8.393  18.583  12.988
67640W        W39933  22.583  15.320   4.836
67641W        W39934  40.485  39.982   4.635
67642W        W39935  30.462   9.694  12.348
67643W        W39936   0.837  17.741   1.916
67644W        W39937  27.030  26.003   0.378
67645W        W39938  27.046  12.828   1.868
67646W        W39939  25.151   9.257   4.243
67647W        W39940  25.693  25.177  13.538
67648W        W39941  40.505   4.360  12.504
67649W        W39942  20.632  27.053   4.604
67650W        W39943  21.716   9.269  12.368
67651W        W39944   6.212  24.073  11.107
67652W        W39945  41.419   3.410   1.440
67653W        W39946  41.509   1.864  13.804
67654W        W39947  40.479  10.318  10.511
67655W        W39948  19.153  35.945   0.462
67656W        W39949  34.380  42.846  13.001
67657W        W39950  44.394   5.339   4.748
67658W        W39951  41.895  40.426  10.918
67659W        W39952  21.087  27.483  12.080
67660W        W39953  25.683  40.978   2.209
67661W        W39954  18.293  32.501  14.796
67662W        W39955  25.169  41.431  11.515
67663W        W39956  21.529  44.970   4.281
67664W        W39957   5.393  10.858  11.502
67665W        W39958   7.414  11.682   1.355
67666W        W39959  11.367  33.010  13.824
67667W        W39960  25.161  37.501   2.840
67668W        W39961  44.879   9.795   2.223
67669W        W39962  33.033  39.953   0.882
67670W        W39963  25.636  18.215  13.545
67671W        W39964   6.402  10.733   0.868
67672W        W39965  40.025  44.769   0.894
67673W        W39966   2.254  35.079   2.769
67674W        W39967  42.476  14.316  14.337
67675W        W39968  27.633  30.128  12.448
67676W        W39969   6.239  18.622   2.365
67677W        W39970   8.273  29.121   0.921
67678W        W39971  23.071  18.782   0.928
67679W        W39972  32.442  12.224   2.320
67680W        W39973   7.770  34.390  12.352
67681W        W39974  42.947  40.385   1.906
67682W        W39975  11.842  19.159   2.309
67683W        W39976  11.288  19.598  13.050
67684W        W39977  12.678  11.801   0.385
67685W        W39978   5.855  17.594  14.917
67686W        W39979  42.970  23.702   2.716
67687W        W39980  12.792   2.403   4.751
67688W        W39981  35.959  14.831   1.243
67689W        W39982   9.733  30.566  11.372
67690W        W39983   2.226   8.654   0.469
67691W        W39984  42.378  18.691   0.865
67692W        W39985  19.570  10.685  14.298
67693W        W39986  44.456   2.276  10.632
67694W        W39987  31.032  11.227   5.600
67695W        W39988  44.936  13.765  14.871
67696W        W39989  25.212  40.851  11.499
67697W        W39990   0.254  39.851  11.426
67698W        W39991   3.873   5.201  13.847
67699W        W39992  16.776  44.343  14.419
67700W        W39993  43.289  23.558   3.255
67701W        W39994  20.575  42.026   3.719
67702W        W39995  22.553  18.545   1.755
67703W        W39996  28.660   7.805  11.962
67704W        W39997  35.011  17.698  10.515
67705W        W39998  17.201  41.320  10.588
67706W        W39999  21.658  44.346   3.715
67707W        W40000   2.348  12.708  13.840
67708W        W40001  33.988  30.579  11.414
67709W        W40002  36.955  24.713   1.868
67710W        W40003  23.571  25.552  12.863
67711W        W40004  18.634  24.177   1.739
67712W        W40005  31.510  38.389   2.735
67713W        W40006  42.295  14.828  11.911
67714W        W40007   2.318  19.590  11.611
67715W        W40008  27.135   1.863  13.979
67716W        W40009  41.026  13.794   2.692
67717W        W40010   8.741  22.129   0.283
67718W        W40011  18.263  38.996  12.973
67719W        W40012  23.727  20.185  10.515
67720W        W40013   8.783  44.476  11.604
67721W        W40014  31.978   8.790   3.250
67722W        W40015  21.262  18.284   2.286
67723W        W40016  16.646  43.423  11.492
67724W        W40017   9.271  38.379   4.643
67725W        W40018  16.644  29.491   3.798
67726W        W40019   3.772  15.603  11.500
67727W        W40020  17.153   6.305  11.104
67728W        W40021   1.364  41.040   1.772
67729W        W40022  17.108  27.071   4.214
67730W        W40023  23.097  34.547   1.267
67731W        W40024  22.672  40.510   3.747
67732W        W40025   1.433  34.910   3.709
67733W        W40026  21.196  20.614   5.125
67734W        W40027  16.649  15.804   3.630
67735W        W40028   2.268  16.133   0.797
67736W        W40029  36.501  44.786  11.544
67737W        W40030  17.567  15.299   1.793
67738W        W40031  44.952  27.450   0.825
67739W        W40032  11.719  37.496   3.843
67740W        W40033  39.526   6.395  10.036
67741W        W40034  32.595  38.432   2.707
67742W        W40035  21.104  19.268  12.380
67743W        W40036  31.645  32.072   2.297
67744W        W40037  26.997  21.676  13.982
67745W        W40038  11.283  13.823   3.674
67746W        W40039   5.348  28.645   2.721
67747W        W40040  20.684  44.761  14.308
67748W        W40041  16.621  44.446  12.012
67749W        W40042   1.877   7.884   3.841
67750W        W40043  32.518  22.251  12.442
67751W        W40044  31.495  37.396   0.737
67752W        W40045  23.036  44.878  12.543
67753W        W40046  41.956  42.341  12.421
67754W        W40047  26.169  39.823   2.766
67755W        W40048   4.413  15.639  10.943
67756W        W40049  17.764  41.439  11.927
67757W        W40050  26.542  21.017   1.816
67758W        W40051  10.170  32.504   4.645
67759W        W40052  43.377  22.135  10.910
67760W        W40053  13.175  10.317  10.015
67761W        W40054   7.884  12.666  12.027
67762W        W40055  36.016  40.969   2.812
67763W        W40056  24.486   2.911   3.785
67764W        W40057   0.846  15.284   3.162
67765W        W40058  19.535  44.763  13.902
67766W        W40059   5.426  24.177   4.262
67767W        W40060   1.450   5.293   4.314
67768W        W40061  32.457   6.240   3.162
67769W        W40062  32.548  31.127  13.910
67770W        W40063  33.520  36.974  13.986
67771W        W40064  39.811  14.671  14.944
67772W        W40065   9.330  26.080  13.380
67773W        W40066  16.584  12.811   0.293
67774W        W40067  28.964  34.940  14.796
67775W        W40068  21.235  30.122   3.213
67776W        W40069  16.199  37.397  14.487
67777W        W40070  35.859  10.186  13.985
67778W        W40071   0.338   7.296   0.946
67779W        W40072  16.790  42.469  13.313
67780W        W40073  32.039  34.373  13.861
67781W        W40074  34.461  14.661   3.386
67782W        W40075  24.588  40.949   2.861
67783W        W40076  21.700  15.306  12.951
67784W        W40077  43.943  42.323  12.010
67785W        W40078  25.194  22.016   2.206
67786W        W40079  17.151  33.024  13.033
67787W        W40080  23.630   5.401  12.527
67788W        W40081  10.345  33.521   4.819
67789W        W40082  38.006  29.942   0.271
67790W        W40083  35.516  30.467   4.144
67791W        W40084  44.325   7.221  11.596
67792W        W40085   5.724   3.926  14.813
67793W        W40086   8.760  29.994  12.447
67794W        W40087  35.580  33.557   4.740
67795W        W40088  39.956   7.806   1.929
67796W        W40089  18.245  44.390  11.908
67797W        W40090  41.309  38.414   2.892
67798W        W40091  17.112  35.393  11.493
67799W        W40092   6.198  15.781   1.246
67800W        W40093  44.001  19.148  11.923
67801W        W40094   1.749  36.529   4.603
67802W        W40095  13.609  33.535  11.921
67803W        W40096  25.490  20.029  12.076
67804W        W40097  30.458  24.495   1.932
67805W        W40098  41.923  28.527  11.901
67806W        W40099  35.870  11.753   4.660
67807W        W40100   0.447  22.671   3.653
67808W        W40101  21.098  31.913  12.433
67809W        W40102  34.496  17.750   1.810
67810W        W40103   7.389  33.880   4.243
67811W        W40104  38.419  15.100   1.278
67812W        W40105  22.137  43.876   2.708
67813W        W40106  12.808  34.037  14.824
67814W        W40107   8.188  28.595   4.615
67815W        W40108  43.905   5.732   4.773
67816W        W40109  27.149  26.967   1.924
67817W        W40110  35.093  42.777   3.703
67818W        W40111  11.172  37.446   3.658
67819W        W40112  15.706  42.458  11.074
67820W        W40113  23.046  16.796  13.803
67821W        W40114  12.175   5.931   1.935
67822W        W40115  17.199  26.662  10.036
67823W        W40116  36.078  30.120   0.747
67824W        W40117  38.008  38.904   4.781
67825W        W40118  39.399   5.362  10.937
67826W        W40119  40.037  44.804   1.753
67827W        W40120  30.628  27.111   2.739
67828W        W40121  18.730  37.008  11.021
67829W        W40122  14.177   2.754  13.337
67830W        W40123  21.168   8.225  13.499
67831W        W40124  16.692  36.361   1.845
67832W        W40125  37.521  34.986  12.845
67833W        W40126  39.809  38.414  10.960
67834W        W40127  40.405  40.952  10.899
67835W        W40128  32.476  40.008  14.957
67836W        W40129  32.466  42.449  11.957
67837W        W40130   2.825   0.842   1.216
67838W        W40131  18.617  18.151  10.074
67839W        W40132  33.903   0.858   1.745
67840W        W40133  15.126  21.235  10.524
67841W        W40134  38.017   6.684  14.294
67842W        W40135   9.726  36.042  12.559
67843W        W40136   1.400   0.486   3.769
67844W        W40137  35.857  40.373  13.951
67845W        W40138  20.113   7.770  14.458
67846W        W40139  11.329  24.130   0.407
67847W        W40140   4.936  35.407   2.225
67848W        W40141   2.764  29.085  12.376
67849W        W40142  32.127  33.584   3.347
67850W        W40143  33.113  20.644  11.900
67851W        W40144  36.909  16.610   2.790
67852W        W40145  21.757  29.926   2.796
67853W        W40146  10.801  17.773  14.467
67854W        W40147  34.539  14.745   3.664
67855W        W40148  17.211  20.734  10.536
67856W        W40149  34.473  26.457   1.430
67857W        W40150  33.085  37.442  11.079
67858W        W40151  44.812  22.533  12.514
67859W        W40152  25.594  31.613   1.737
67860W        W40153  24.098  11.752   4.187
67861W        W40154  20.093  12.164  11.576
67862W        W40155  28.073  14.589  12.055
67863W        W40156  15.659  39.944  11.479
67864W        W40157   4.318  41.859   3.785
67865W        W40158  16.239  35.477  12.839
67866W        W40159  34.030  18.140   4.235
67867W        W40160   8.896  40.879  14.892
67868W        W40161  24.642   5.292   1.241
67869W        W40162  32.049  37.487   1.414
67870W        W40163   7.414  20.690  11.076
67871W        W40164  25.128  37.411  14.982
67872W        W40165  13.601  17.121  14.897
67873W        W40166   8.393  27.035  14.030
67874W        W40167   1.343  38.046   0.459
67875W        W40168   1.429  27.976   4.207
67876W        W40169  36.842  24.043   1.254
67877W        W40170  19.097   1.303   4.271
67878W        W40171  34.033  39.854  13.801
67879W        W40172   6.210  35.871  11.547
67880W        W40173  29.524   4.774   3.165
67881W        W40174  16.287  31.529   1.284
67882W        W40175   2.966  10.247   3.734
67883W        W40176   6.819   3.923  14.331
67884W        W40177   6.677  21.547   3.715
67885W        W40178  44.797   8.222  14.437
67886W        W40179  43.936  43.507  11.431
67887W        W40180  20.555  24.998  10.456
67888W        W40181  16.810  25.968   2.763
67889W        W40182  37.363  19.120   0.383
67890W        W40183  23.156  33.034  12.999
67891W        W40184  24.210  42.461  10.623
67892W        W40185  28.174  32.045   1.779
67893W        W40186  28.147  41.382   0.910
67894W        W40187  42.974   6.812   0.359
67895W        W40188  44.335  13.724   5.130
67896W        W40189  41.885  22.649   1.888
67897W        W40190   7.279  30.944  12.846
67898W        W40191  38.393   8.778   1.880
67899W        W40192  22.044   8.329   0.953
67900W        W40193  40.342  40.836   4.720
67901W        W40194  21.753  34.993  13.353
67902W        W40195  44.421  31.901   4.207
67903W        W40196  26.045   6.805   0.366
67904W        W40197   4.210  20.623  12.912
67905W        W40198  27.036  39.366  14.825
67906W        W40199  33.519  44.937  12.369
67907W        W40200  29.157  38.985   3.780
67908W        W40201  28.930  26.183   3.636
67909W        W40202  38.547  32.499   2.325
67910W        W40203  39.888  30.041  13.453
67911W        W40204   4.851  43.792  13.482
67912W        W40205  43.290  41.988   3.664
67913W        W40206   7.394  16.574   0.785
67914W        W40207  25.644  10.740   2.326
67915W        W40208  44.822  28.085   1.310
67916W        W40209   9.759  12.144   4.325
67917W        W40210  40.393  41.032   0.319
67918W        W40211  11.859  14.812   9.947
67919W        W40212   2.441  35.596   1.868
67920W        W40213   3.291  13.762   2.395
67921W        W40214   6.867  25.073  12.997
67922W        W40215  41.382  21.650   4.822
67923W        W40216   5.810  36.992   4.264
67924W        W40217   2.822  23.701   1.217
67925W        W40218  17.070  20.082  12.970
67926W        W40219  42.331  15.239   1.891
67927W        W40220   1.347  43.859   4.658
67928W        W40221  29.074  21.691  12.514
67929W        W40222  11.350  34.552  12.985
67930W        W40223  29.482  11.779  10.964
67931W        W40224   8.795  30.096   4.765
67932W        W40225  31.921   9.722  10.495
67933W        W40226  25.052  32.469   4.182
67934W        W40227  23.561   1.942  13.452
67935W        W40228  15.639  34.064  13.361
67936W        W40229  21.181  35.903  11.989
67937W        W40230  14.820  19.692   0.793
67938W        W40231  21.676  26.512   2.265
67939W        W40232  35.919  23.529   0.939
67940W        W40233  42.495  31.022  12.997
67941W        W40234   7.670  40.908   1.778
67942W        W40235   3.771   6.857  14.941
67943W        W40236  29.055  32.009   2.227
67944W        W40237   8.406   9.218   4.231
67945W        W40238  31.522  44.363  14.511
67946W        W40239   4.739  18.769  10.535
67947W        W40240  41.834   6.743  12.043
67948W        W40241  36.055  26.101  12.868
67949W        W40242  17.693  23.536   3.630
67950W        W40243  23.494   8.822  13.800
67951W        W40244  39.828   9.774  13.456
67952W        W40245   4.895  22.676   1.729
67953W        W40246  31.992  10.669   2.246
67954W        W40247  13.746  40.906   1.895
67955W        W40248  42.798  21.222  14.963
67956W        W40249  29.484  38.419   2.746
67957W        W40250  13.620  13.345   0.274
67958W        W40251   0.358  41.016  10.927
67959W        W40252  35.011  40.998  11.946
67960W        W40253   3.431  26.178   4.719
67961W        W40254  22.515  15.753   5.098
67962W        W40255  10.854  41.525  11.934
67963W        W40256  18.184  25.077  11.887
67964W        W40257   0.469   0.344   3.696
67965W        W40258  33.903   3.340  11.972
67966W        W40259   3.738  29.941   1.799
67967W        W40260   4.265  28.054   2.749
67968W        W40261  21.633  20.181   2.416
67969W        W40262  41.323  31.538  13.447
67970W        W40263   5.932   0.907   2.821
67971W        W40264  33.951  41.029  13.795
67972W        W40265  41.402  22.566  10.947
67973W        W40266   7.379  17.291   1.881
67974W        W40267  42.478   4.301  11.077
67975W        W40268  38.939   8.184  12.963
67976W        W40269   7.227  38.908  11.073
67977W        W40270  34.426  19.739   2.711
67978W        W40271  18.198  18.669  12.915
67979W        W40272  25.196  30.984   1.931
67980W        W40273  16.255   2.822   1.893
67981W        W40274  26.664  27.466  14.847
67982W        W40275  36.400  40.326  10.603
67983W        W40276  23.139  30.938   2.186
67984W        W40277  43.324  22.563   2.238
67985W        W40278  31.959  33.004   1.239
67986W        W40279  44.259  35.531  10.435
67987W        W40280  39.808  24.148  13.406
67988W        W40281   0.460  28.938  13.519
67989W        W40282  42.339   3.880   2.224
67990W        W40283  29.522  31.912   4.299
67991W        W40284  30.473  13.207   3.810
67992W        W40285  31.104  29.566   0.316
67993W        W40286  27.534  22.582   0.432
67994W        W40287  40.347  21.602   4.330
67995W        W40288  39.358  11.285   2.318
67996W        W40289  44.994  15.277  12.369
67997W        W40290  30.569   5.799  10.535
67998W        W40291  40.398   2.228   0.420
67999W        W40292  31.912  38.339   3.148
68000W        W40293  24.128   1.784  14.889
68001W        W40294  19.256  23.676   2.770
68002W        W40295   6.421  16.594   0.829
68003W        W40296  36.004   8.769   3.170
68004W        W40297  37.385  28.569   2.809
68005W        W40298  22.006  17.606  13.902
68006W        W40299   2.248  13.734   4.797
68007W        W40300  12.157  12.122   2.678
68008W        W40301  15.302  21.540  12.956
68009W        W40302  31.500  43.943  10.473
68010W        W40303  28.007  28.121   3.788
68011W        W40304  29.074  23.145   2.401
68012W        W40305  42.008  30.149  14.426
68013W        W40306  14.599  40.812   0.267
68014W        W40307  21.202  30.130   1.907
68015W        W40308  14.649   6.331   0.904
68016W        W40309  14.831  42.024   4.747
68017W        W40310  35.030  25.580  14.389
68018W        W40311  24.141  22.016  14.014
68019W        W40312  33.481  29.022  13.441
68020W        W40313  43.337  36.395   3.699
68021W        W40314   3.375  42.789   0.419
68022W        W40315  38.455  28.484  14.315
68023W        W40316  15.794  22.547  13.383
68024W        W40317  32.045  27.678   2.694
68025W        W40318   3.425  32.410   0.852
68026W        W40319  41.533  38.416  14.838
68027W        W40320  27.020  17.684  13.928
68028W        W40321   3.369  35.571   2.290
68029W        W40322  18.086  41.040  13.809
68030W        W40323   6.703  18.137   2.215
68031W        W40324  21.736  36.383  11.605
68032W        W40325   8.852   5.426  13.482
68033W        W40326   7.718  10.220  10.586
68034W        W40327   7.762  28.626  11.994
68035W        W40328  10.633  24.714  13.983
68036W        W40329  18.644  32.085  11.399
68037W        W40330  44.315  24.626  14.844
68038W        W40331  39.048  21.747   3.205
68039W        W40332  13.222  10.284  12.086
68040W        W40333  36.398   8.365  10.942
68041W        W40334   2.434  36.515  14.836
68042W        W40335  23.177  34.960   2.363
68043W        W40336   0.772  44.350   2.809
68044W        W40337   8.807  28.028   0.951
68045W        W40338  40.519  28.506   0.888
68046W        W40339  24.088  35.592   2.410
68047W        W40340  11.320   9.153  14.026
68048W        W40341  23.006   2.393   4.192
68049W        W40342  38.446   4.859  14.299
68050W        W40343  15.102  13.815   3.329
68051W        W40344  11.138   8.190   2.847
68052W        W40345   7.688  44.372   2.900
68053W        W40346   3.378  22.614  10.434
68054W        W40347  32.450  14.276  10.576
68055W        W40348  40.817  42.897   3.233
68056W        W40349  13.334   6.343  10.554
68057W        W40350  38.357  22.676   1.910
68058W        W40351  44.830  33.912   3.827
68059W        W40352  20.671  27.192  11.059
68060W        W40353   7.248  29.669   0.782
68061W        W40354  21.570   7.680   1.437
68062W        W40355  11.220  21.660  14.908
68063W        W40356  12.742  38.399   4.781
68064W        W40357  10.180  15.213  14.839
68065W        W40358  24.082  17.253  10.496
68066W        W40359   5.243  35.027  13.824
68067W        W40360  25.099  39.411   4.703
68068W        W40361  34.936  14.725   0.818
68069W        W40362  28.043  41.838   2.685
68070W        W40363  21.141  21.203   4.222
68071W        W40364   1.401  11.298  14.485
68072W        W40365  35.034   5.210   4.153
68073W        W40366  21.669  34.389  13.939
68074W        W40367  16.196  22.192  14.428
68075W        W40368  44.829   4.836  10.029
68076W        W40369  24.167  18.111  13.983
68077W        W40370   4.311   0.473   2.730
68078W        W40371  41.514  16.106   3.193
68079W        W40372  23.061   4.266  10.017
68080W        W40373   3.374  36.014   4.207
68081W        W40374  39.845  26.614  14.369
68082W        W40375  39.993  36.966   1.861
68083W        W40376  35.064  24.531   2.726
68084W        W40377  34.469  29.581  13.891
68085W        W40378  35.936   0.798  14.453
68086W        W40379  27.147  15.234  14.844
68087W        W40380  30.962  25.136  10.487
68088W        W40381  32.487  36.347  12.489
68089W        W40382  17.172  16.112   0.785
68090W        W40383  10.218  21.215   2.415
68091W        W40384  21.674  20.273  14.397
68092W        W40385  42.012  12.306   2.867
68093W        W40386   6.208   6.733   2.817
68094W        W40387  35.998  35.490   3.764
68095W        W40388  22.600  36.406   3.296
68096W        W40389   1.453  31.574  12.472
68097W        W40390  14.682  31.572  12.569
68098W        W40391  25.147  10.748   2.312
68099W        W40392  23.224  32.426  13.897
68100W        W40393  33.926  34.443  14.966
68101W        W40394  11.327  39.942   2.322
68102W        W40395  21.594  28.633   2.721
68103W        W40396  23.662  11.242  11.914
68104W        W40397  32.975   8.884  11.987
68105W        W40398  36.032   3.767  11.070
68106W        W40399  14.128  11.277   0.286
68107W        W40400  24.120  19.604  11.523
68108W        W40401  42.444  11.230   4.668
68109W        W40402  36.990   6.855  12.549
68110W        W40403  22.067  11.775  11.862
68111W        W40404   7.340  31.984  12.390
68112W        W40405  12.629  32.581   3.633
68113W        W40406  26.509  18.165  11.040
68114W        W40407  40.910  31.439  12.887
68115W        W40408  14.594  36.887  11.557
68116W        W40409  33.918  44.436  11.934
68117W        W40410  39.971  32.011   4.792
68118W        W40411  12.784  10.760   3.830
68119W        W40412  31.934   6.906   1.737
68120W        W40413  24.118  30.974   1.382
68121W        W40414  30.575  42.987   4.830
68122W        W40415   8.175   9.726  13.472
68123W        W40416  27.990  40.365  12.523
68124W        W40417  41.295  19.112   1.402
68125W        W40418  20.038  41.937   4.763
68126W        W40419  22.644  18.615  10.576
68127W        W40420   3.337  30.622   1.235
68128W        W40421  35.509  13.327   0.773
68129W        W40422  20.060  24.111   2.236
68130W        W40423  41.503  18.152   0.260
68131W        W40424   8.752  18.699   3.266
68132W        W40425  24.714  44.812  14.492
68133W        W40426  25.483  19.045  10.967
68134W        W40427  35.375  43.983  11.022
68135W        W40428  32.561   5.790  10.977
68136W        W40429  17.627  18.631  11.399
68137W        W40430  37.975  41.379   4.119
68138W        W40431  12.648  32.542   0.293
68139W        W40432  11.674  40.956  10.529
68140W        W40433  33.388  24.545  12.875
68141W        W40434  37.506   1.466   2.353
68142W        W40435  42.383  33.948  12.401
68143W        W40436  10.351  42.890   4.718
68144W        W40437  17.683  20.099   3.785
68145W        W40438   6.736   0.891  12.869
68146W        W40439  30.057  15.203   4.352
68147W        W40440  11.799  10.343  11.864
68148W        W40441   8.176  37.841  11.119
68149W        W40442  26.463  31.112  11.991
68150W        W40443   1.774   3.803  10.955
68151W        W40444  17.292   9.887   0.777
68152W        W40445  39.876  25.094   3.166
68153W        W40446  41.472  23.628  10.490
68154W        W40447  30.972  37.421   2.215
68155W        W40448  14.224  44.442  12.466
68156W        W40449  18.163  18.780  13.794
68157W        W40450  12.833  36.549  14.833
68158W        W40451  22.744  16.122   1.390
68159W        W40452  30.031  21.537   3.741
68160W        W40453  22.533  35.596  14.882
68161W        W40454  14.173  11.674  10.422
68162W        W40455  29.556  18.090   2.224
68163W        W40456  23.726  15.083  14.966
68164W        W40457   4.921  39.062  10.408
68165W        W40458  40.941  11.367   3.653
68166W        W40459   9.786  38.941   1.745
68167W        W40460  26.682  29.601   2.797
68168W        W40461  30.133  12.195   1.930
68169W        W40462  15.306  37.337   2.316
68170W        W40463  21.174  16.616   3.179
68171W        W40464  11.321   3.942  14.770
68172W        W40465  25.655  39.839  11.395
68173W        W40466   8.313  25.159   2.679
68174W        W40467  43.840  24.986   0.958
68175W        W40468  27.564  21.025  10.427
68176W        W40469   1.467  31.921   2.309
68177W        W40470  25.596  21.678  13.431
68178W        W40471  34.562  11.174   1.334
68179W        W40472  16.591  44.918   4.245
68180W        W40473   6.395  22.647  12.387
68181W        W40474  15.643  32.425   0.406
68182W        W40475  39.538   6.694  14.763
68183W        W40476   7.247  38.458   2.758
68184W        W40477  26.608  33.607   5.225
68185W        W40478   8.707  30.103  11.472
68186W        W40479   6.763   6.385   0.344
68187W        W40480  28.573   2.813  12.558
68188W        W40481   1.785  26.489   5.270
68189W        W40482   5.207  29.508  13.495
68190W        W40483   4.778  40.447   0.321
68191W        W40484  27.967  23.158  12.448
68192W        W40485  23.595   8.373  11.494
68193W        W40486  16.693  32.479   4.303
68194W        W40487  21.699   2.805  11.468
68195W        W40488  13.339  41.537   4.274
68196W        W40489  41.484   5.902   4.661
68197W        W40490  40.308  38.399   0.884
68198W        W40491  15.086  17.586  13.994
68199W        W40492  33.966  24.631  12.381
68200W        W40493  24.522  32.432   4.279
68201W        W40494  29.991  44.446  11.432
68202W        W40495   1.908  37.064   3.314
68203W        W40496  32.975  20.139  13.455
68204W        W40497  31.460  19.110  11.071
68205W        W40498   8.781  35.016   0.331
68206W        W40499  20.638  30.524  11.017
68207W        W40500  20.594  27.447   0.832
68208W        W40501  39.982   0.464  12.996
68209W        W40502  34.984   2.785   4.778
68210W        W40503  27.616  33.891  12.921
68211W        W40504  41.342  20.567  12.951
68212W        W40505  38.827  26.070  11.508
68213W        W40506   4.382  23.222   3.811
68214W        W40507   4.918  12.174   3.215
68215W        W40508  29.650  32.957  11.582
68216W        W40509  17.603  27.058   3.372
68217W        W40510   4.805   4.831   2.737
68218W        W40511  25.626   6.746   3.312
68219W        W40512  27.045  12.703  11.858
68220W        W40513  10.364  22.505  10.602
68221W        W40514  11.240  15.579  12.927
68222W        W40515  20.697  19.130  12.470
68223W        W40516  18.725  35.892  14.018
68224W        W40517  20.691  32.491  10.476
68225W        W40518  41.014  41.436  10.640
68226W        W40519  11.213  21.039   4.785
68227W        W40520  42.969  22.221  14.908
68228W        W40521   5.784  24.542  11.985
68229W        W40522  35.949  33.957  14.370
68230W        W40523  19.131  33.974  14.982
68231W        W40524  40.975  22.246   1.742
68232W        W40525  32.432  21.697  10.589
68233W        W40526  19.575  10.808  11.860
68234W        W40527  29.476   5.864  12.987
68235W        W40528  42.412  43.320   4.162
68236W        W40529  13.631  22.602  12.512
68237W        W40530  26.143   4.853   4.597
68238W        W40531  10.697  21.649   3.331
68239W        W40532  28.030   0.253   3.643
68240W        W40533  33.874  39.555  10.591
68241W        W40534  38.355  32.039  11.462
68242W        W40535  38.511  35.023  14.439
68243W        W40536  21.069   3.360   0.830
68244W        W40537  31.446  37.044   3.866
68245W        W40538  15.656  23.536  10.101
68246W        W40539  39.977  37.454  10.612
68247W        W40540  19.599  16.317  13.386
68248W        W40541  19.615   9.204   3.177
68249W        W40542   2.914  12.616   4.309
68250W        W40543   0.827  12.811  13.943
68251W        W40544  43.999  38.977   0.816
68252W        W40545  37.987   7.680   4.119
68253W        W40546  44.336  39.017  14.366
68254W        W40547  17.734  13.162   4.597
68255W        W40548   9.209  37.431  13.030
68256W        W40549  40.797  34.552  14.022
68257W        W40550  33.554  19.060   1.801
68258W        W40551  16.172  21.730   5.755
68259W        W40552   2.330  22.075   1.448
68260W        W40553  44.815  13.156   1.821
68261W        W40554  37.001  21.626  13.411
68262W        W40555  41.790  35.014  10.644
68263W        W40556  24.022  18.089   9.928
68264W        W40557  41.484  18.253   1.935
68265W        W40558  33.495  40.033  13.947
68266W        W40559  42.484  15.246  12.912
68267W        W40560   1.300   9.303  12.854
68268W        W40561  24.160  44.821  13.540
68269W        W40562   4.737  39.428  14.813
68270W        W40563  13.680  18.219   4.284
68271W        W40564  20.768  16.243   4.696
68272W        W40565   2.277  36.357   4.336
68273W        W40566  15.803  40.416  14.938
68274W        W40567  20.677  23.142   4.825
68275W        W40568   2.904  39.390   0.314
68276W        W40569  35.495  15.774  11.388
68277W        W40570  23.157  14.334  10.540
68278W        W40571  16.793  15.616  11.419
68279W        W40572   4.936   0.284  10.154
68280W        W40573  24.009  37.872  12.991
68281W        W40574   6.409  29.135  13.352
68282W        W40575   6.902  11.146   4.193
68283W        W40576  21.021  16.181   3.174
68284W        W40577  28.583  38.858   3.357
68285W        W40578   0.255  10.350   1.783
68286W        W40579   4.779  41.506   2.254
68287W        W40580  31.989  43.829  14.834
68288W        W40581  23.071  28.609   3.639
68289W        W40582  23.039  25.166  13.841
68290W        W40583  13.330  21.748  12.045
68291W        W40584  25.667  12.303   2.729
68292W        W40585   0.863  30.524  13.424
68293W        W40586  25.560  14.765  12.432
68294W        W40587  19.108  31.052  11.508
68295W        W40588  12.182   8.301   3.710
68296W        W40589   7.208   8.355   0.278
68297W        W40590  37.885  26.519  14.341
68298W        W40591   0.402   3.947   0.300
68299W        W40592  31.907   6.277  11.001
68300W        W40593   7.329  33.088  13.442
68301W        W40594  13.246  18.274  13.979
68302W        W40595  31.922  27.642  12.901
68303W        W40596  34.481   8.762  13.881
68304W        W40597   6.759  41.301   3.867
68305W        W40598  17.146  15.745  13.518
68306W        W40599  12.335  17.165  11.044
68307W        W40600  31.044  30.614  10.903
68308W        W40601   2.286  36.074  11.577
68309W        W40602  22.697   5.708  12.900
68310W        W40603  37.956  22.134  12.874
68311W        W40604  28.614  23.240  10.097
68312W        W40605  13.627  31.633   4.269
68313W        W40606   2.948  30.071  13.941
68314W        W40607  28.967  30.123   3.147
68315W        W40608  43.859  32.064  12.402
68316W        W40609  42.454  30.548   1.338
68317W        W40610  43.403  18.260  12.939
68318W        W40611  23.018  36.939   4.123
68319W        W40612   1.406  11.196  14.914
68320W        W40613  20.193   1.917  11.497
68321W        W40614  30.923  30.999   3.337
68322W        W40615  33.625  18.232  14.454
68323W        W40616  17.658   1.416   1.408
68324W        W40617  28.973   9.834  10.617
68325W        W40618   7.848  13.244   3.743
68326W        W40619   9.272  19.536   2.826
68327W        W40620  10.214  15.676  12.905
68328W        W40621  43.966  34.913   4.718
68329W        W40622   1.737  11.694   0.453
68330W        W40623   9.337   9.799  12.961
68331W        W40624  30.425  21.062   3.741
68332W        W40625  35.590   4.414  14.010
68333W        W40626  39.830  23.227   3.687
68334W        W40627  11.785  18.115   2.863
68335W        W40628  10.297  12.850   1.292
68336W        W40629   8.345  19.575  12.050
68337W        W40630  41.962  43.942   4.228
68338W        W40631  35.374  22.096  11.950
68339W        W40632  33.487  14.624   0.253
68340W        W40633  21.713  14.119  12.070
68341W        W40634   0.841  39.013   4.699
68342W        W40635  19.545  35.596   0.384
68343W        W40636  29.923   7.272  13.901
68344W        W40637   1.378  26.522  12.031
68345W        W40638  26.049   0.763   3.168
68346W        W40639  31.996  34.521   4.208
68347W        W40640  35.375  16.103  12.403
68348W        W40641  35.474  28.950  14.867
68349W        W40642  30.573   4.725  13.467
68350W        W40643  28.149  38.495   1.935
68351W        W40644   1.315  24.010   0.318
68352W        W40645  39.831  28.973  10.555
68353W        W40646   7.176  21.541  13.458
68354W        W40647  37.580  44.269   2.694
68355W        W40648  12.224  25.982   0.829
68356W        W40649  17.295   4.322  13.990
68357W        W40650  40.935   7.805  11.435
68358W        W40651  11.794  40.016  14.936
68359W        W40652  11.253   5.286   4.323
68360W        W40653  39.054  34.962  10.546
68361W        W40654  30.154  39.361  10.407
68362W        W40655  19.734  42.822   4.247
68363W        W40656  23.601  15.162  14.425
68364W        W40657  17.634  31.129   0.860
68365W        W40658   0.384  39.348  12.857
68366W        W40659  44.261  31.573   2.846
68367W        W40660  36.506  44.818   3.799
68368W        W40661  37.429   7.300  12.510
68369W        W40662  42.833  38.069  14.007
68370W        W40663  18.743  26.087   1.232
68371W        W40664   5.294  19.104  12.479
68372W        W40665   9.869  10.797   1.769
68373W        W40666  21.590   8.191  11.869
68374W        W40667  10.851   5.324   0.402
68375W        W40668  39.389   9.845   4.717
68376W        W40669  37.428  29.018  12.092
68377W        W40670  36.511  21.122  14.344
68378W        W40671  25.085  43.366   4.674
68379W        W40672   5.710  34.410   1.892
68380W        W40673  26.957  30.095   3.686
68381W        W40674  37.415  40.514  13.013
68382W        W40675  38.929  12.813   3.192
68383W        W40676   4.287  24.675  14.774
68384W        W40677  42.433   9.843   0.782
68385W        W40678   8.866  15.812  14.907
68386W        W40679  14.097  21.578  11.439
68387W        W40680  44.853  13.825  11.601
68388W        W40681  29.599  30.537   4.242
68389W        W40682  44.849  15.715   0.435
68390W        W40683  14.106  28.471  13.956
68391W        W40684  28.945  14.144   4.340
68392W        W40685   9.803  24.623  11.457
68393W        W40686  37.553  37.948  14.334
68394W        W40687  13.838  11.161   4.202
68395W        W40688  18.649  14.334   0.857
68396W        W40689  29.051   5.233  13.892
68397W        W40690  15.179  20.162  13.960
68398W        W40691  39.400   8.268  11.917
68399W        W40692   7.751   5.873   1.877
68400W        W40693  16.303  29.020  14.342
68401W        W40694  12.143  19.132  11.420
68402W        W40695  37.054  29.070  13.919
68403W        W40696  36.880   4.220  13.494
68404W        W40697  21.173  11.644  11.399
68405W        W40698  12.755  12.701  10.531
68406W        W40699  23.604  14.143  11.005
68407W        W40700   4.421  35.911  14.936
68408W        W40701  25.997  36.097   2.179
68409W        W40702  43.513   0.836  14.382
68410W        W40703  20.704   3.363   3.779
68411W        W40704  34.549  33.898  12.508
68412W        W40705  11.223  11.844   3.826
68413W        W40706  33.965  26.191   3.761
68414W        W40707  41.364  10.189   4.216
68415W        W40708   8.201  28.544   4.281
68416W        W40709  15.681   2.765   2.246
68417W        W40710  10.292   7.400  14.361
68418W        W40711   8.333  37.846   3.283
68419W        W40712  38.482  20.217  13.500
68420W        W40713  44.390   7.838   0.271
68421W        W40714   3.406   8.692  11.024
68422W        W40715  14.261  38.047   0.349
68423W        W40716   2.752  28.994  14.474
68424W        W40717   8.389  29.668  11.856
68425W        W40718  42.923  28.076   1.812
68426W        W40719  31.022  13.664   0.773
68427W        W40720  33.998  24.631  10.432
68428W        W40721   1.890  22.126  13.006
68429W        W40722  14.212  11.133  11.401
68430W        W40723  43.968   4.447   0.400
68431W        W40724  22.737  44.311   4.798
68432W        W40725  23.716  11.660  14.822
68433W        W40726  23.587  13.704  12.340
68434W        W40727  10.680   9.240  12.943
68435W        W40728  31.974  24.127   1.379
68436W        W40729   7.324  33.127   0.246
68437W        W40730  41.332  19.608   1.930
68438W        W40731  31.148  35.926  11.095
68439W        W40732  35.976  29.427   2.234
68440W        W40733  26.088  31.485  12.834
68441W        W40734  38.459  18.197  11.389
68442W        W40735   1.787  31.898  11.042
68443W        W40736  17.798  19.267  14.009
68444W        W40737   0.313  39.035  11.526
68445W        W40738   7.252  19.538  13.332
68446W        W40739  27.678  17.581  13.907
68447W        W40740  26.022  22.069   5.597
68448W        W40741  26.109   0.401  13.812
68449W        W40742   8.301   9.848  14.905
68450W        W40743  13.720  38.038  14.874
68451W        W40744  22.144  43.002   4.260
68452W        W40745  15.732  15.247  14.985
68453W        W40746   7.193  25.518  13.486
68454W        W40747   4.386  27.177   3.660
68455W        W40748  38.058   9.875  11.923
68456W        W40749   4.349  35.974   0.891
68457W        W40750  23.555  16.134  14.997
68458W        W40751  24.211  25.615   1.710
68459W        W40752  26.472   3.425   3.792
68460W        W40753  42.888  13.200  11.907
68461W        W40754  12.206  39.035   0.836
68462W        W40755  41.952  18.715   9.441
68463W        W40756  10.343  23.493  10.016
68464W        W40757  28.554  16.105  13.313
68465W        W40758  19.159  12.310  12.560
68466W        W40759  37.420  14.773  10.416
68467W        W40760  29.616  14.297  12.501
68468W        W40761  37.059  28.078  10.518
68469W        W40762  34.953  35.401   3.850
68470W        W40763  43.392  10.756  12.027
68471W        W40764  14.676  42.301   0.280
68472W        W40765  28.096  21.624   9.438
68473W        W40766   5.778  21.605  10.890
68474W        W40767  40.529  18.251   4.721
68475W        W40768  15.708   8.314   1.701
68476W        W40769  30.123  34.440   4.676
68477W        W40770  41.805  29.008   3.715
68478W        W40771  41.308  11.184   1.749
68479W        W40772  38.522  15.244  13.061
68480W        W40773  15.781  15.723   1.223
68481W        W40774   2.759  33.463   2.289
68482W        W40775  32.431  36.348   4.803
68483W        W40776  35.374  44.989   0.749
68484W        W40777  17.208  10.169   2.794
68485W        W40778  19.662  36.887   3.366
68486W        W40779  21.050  37.014  14.471
68487W        W40780   8.671   6.758  14.861
68488W        W40781  12.249  10.836  11.006
68489W        W40782  42.449  11.701  12.985
68490W        W40783  32.116  27.092  14.796
68491W        W40784  43.484   9.768   3.197
68492W        W40785  11.767  26.576   3.846
68493W        W40786  33.896  15.207  11.910
68494W        W40787  37.577   5.259  11.479
68495W        W40788   2.336  39.464  11.605
68496W        W40789  23.654  33.423  14.918
68497W        W40790  30.631   2.227  12.435
68498W        W40791   9.388   7.385   2.853
68499W        W40792  12.213  13.322  10.451
68500W        W40793  33.444  19.102  10.974
68501W        W40794  17.602  30.650   0.747
68502W        W40795   7.724   3.712  11.594
68503W        W40796   6.216  26.637   3.675
68504W        W40797  34.920  26.101  12.545
68505W        W40798  28.939  17.732  14.784
68506W        W40799  42.808  22.555   1.741
68507W        W40800  19.608  24.620  12.842
68508W        W40801  29.622  37.927  11.529
68509W        W40802  16.198  13.190  12.878
68510W        W40803  37.844  21.708  14.462
68511W        W40804   1.326  32.090  10.923
68512W        W40805   1.910   6.191   0.471
68513W        W40806  13.708  38.046   1.418
68514W        W40807  29.169  26.535  11.064
68515W        W40808  22.093  26.005   3.811
68516W        W40809  15.763  14.217  10.418
68517W        W40810  42.022  42.499   2.204
68518W        W40811   4.922   1.482   4.171
68519W        W40812  31.144  13.201   2.802
68520W        W40813  18.593  16.253   3.176
68521W        W40814  24.714  22.239   3.840
68522W        W40815  33.029  21.560   0.422
68523W        W40816  37.014   3.242   0.299
68524W        W40817   7.831  26.185  11.526
68525W        W40818  12.688  16.200  14.019
68526W        W40819  12.322  31.057  10.951
68527W        W40820  40.538  39.516  11.460
68528W        W40821  38.939  39.427   4.758
68529W        W40822  10.754   9.355   3.676
68530W        W40823  41.525  21.524  13.343
68531W        W40824  42.358  34.921  12.944
68532W        W40825  30.151   2.356   3.865
68533W        W40826  11.830  32.958  14.892
68534W        W40827  37.076   5.734  13.468
68535W        W40828  35.038  33.544  12.558
68536W        W40829  37.934  16.801   1.424
68537W        W40830  25.674  37.454  11.474
68538W        W40831  26.058  25.676   0.395
68539W        W40832  13.767  41.347   0.305
68540W        W40833  17.129  17.782  11.529
68541W        W40834   8.190  27.677  14.769
68542W        W40835  30.100  24.049   2.878
68543W        W40836  31.088  29.585   1.711
68544W        W40837  15.667  34.606   2.822
68545W        W40838  19.763  41.404  12.880
68546W        W40839   9.869  29.161  10.439
68547W        W40840  42.791  23.015  11.095
68548W        W40841  34.964  27.008  14.299
68549W        W40842  10.224  44.929   0.318
68550W        W40843  10.840  36.018   3.374
68551W        W40844  43.809  40.028   2.190
68552W        W40845   0.957  20.038  11.510
68553W        W40846  43.975  15.290  14.857
68554W        W40847  37.054  18.680  10.997
68555W        W40848  20.039   1.883  10.030
68556W        W40849  27.661  43.930   1.828
68557W        W40850  14.185  15.192   1.439
68558W        W40851  39.380  24.662  14.025
68559W        W40852  19.047  35.543   0.291
68560W        W40853  43.801  30.562  11.947
68561W        W40854  39.367  13.155   1.284
68562W        W40855  24.603  23.544  12.006
68563W        W40856  29.147   0.783   2.256
68564W        W40857  41.443   5.832  10.469
68565W        W40858   9.871  38.448  13.387
68566W        W40859   2.321  15.820  13.507
68567W        W40860  22.037  38.976   4.209
68568W        W40861  19.597   2.844   3.739
68569W        W40862  21.682  42.894   2.303
68570W        W40863   6.856  18.668  11.460
68571W        W40864  16.791   6.378   1.390
68572W        W40865   5.756  34.988   1.809
68573W        W40866   1.332  14.293   3.321
68574W        W40867  22.249  10.812  13.354
68575W        W40868  17.644  13.347   4.276
68576W        W40869  13.222  15.180  14.355
68577W        W40870  23.130   9.880  13.392
68578W        W40871   7.898  18.051  12.845
68579W        W40872  17.092  22.697  11.875
68580W        W40873  13.768  14.127  12.868
68581W        W40874  17.222   7.717  12.526
68582W        W40875  44.422  26.963  12.360
68583W        W40876  14.126  31.912   1.429
68584W        W40877  10.268  41.413   3.294
68585W        W40878  18.787  34.575   1.231
68586W        W40879  10.696   9.350  10.470
68587W        W40880  14.802  44.289   1.921
68588W        W40881  33.065  27.564  12.365
68589W        W40882  15.291  11.307   4.244
68590W        W40883  38.337  19.199   2.259
68591W        W40884  42.991  26.541   0.822
68592W        W40885  26.130  44.325  14.408
68593W        W40886  24.226  44.426   5.270
68594W        W40887  33.962  16.290  11.108
68595W        W40888  26.992   2.374  11.038
68596W        W40889  11.625   0.347  12.516
68597W        W40890  20.687  14.811   3.756
68598W        W40891   4.862  40.989   0.891
68599W        W40892  44.464  18.739   5.167
68600W        W40893  21.152   3.444   3.682
68601W        W40894   8.373  23.627   2.746
68602W        W40895  33.058  38.489   1.845
68603W        W40896  25.548  11.169  11.959
68604W        W40897  37.884   7.172   0.456
68605W        W40898  43.460  38.067   4.752
68606W        W40899  26.064  32.637   2.777
68607W        W40900  34.884  19.590  10.523
68608W        W40901   1.898  23.644  14.300
68609W        W40902  26.682  44.281  12.432
68610W        W40903   4.291  25.968   4.613
68611W        W40904  22.019  12.176  13.309
68612W        W40905  23.574  27.561   4.802
68613W        W40906  22.042  22.124   1.713
68614W        W40907  24.575  24.076   1.417
68615W        W40908  36.009  33.423   1.401
68616W        W40909  29.568   1.482   0.726
68617W        W40910  30.991  41.510   3.338
68618W        W40911  25.467  44.350   1.310
68619W        W40912   6.255   9.210  12.913
68620W        W40913  35.057  30.520   3.258
68621W        W40914   6.400   5.801   2.888
68622W        W40915   9.885   3.429  13.539
68623W        W40916  12.305  35.570   3.772
68624W        W40917  28.975  35.558  11.080
68625W        W40918  21.074  41.903   4.274
68626W        W40919  35.864  39.524   4.611
68627W        W40920  10.208   0.789   5.094
68628W        W40921  42.333  26.050  11.977
68629W        W40922  36.994  17.659  13.337
68630W        W40923  32.461  28.186   2.766
68631W        W40924   3.345  19.226  12.956
68632W        W40925  24.602  22.207   1.369
68633W        W40926  33.591  14.826  14.318
68634W        W40927  41.864  44.494   1.896
68635W        W40928  17.718  36.587  13.995
68636W        W40929  22.148  23.645  12.029
68637W        W40930   8.375  30.155  10.955
68638W        W40931  31.581  20.226   3.165
68639W        W40932  44.937  28.063  12.932
68640W        W40933  23.040  41.965  14.810
68641W        W40934  30.948  14.819  13.533
68642W        W40935   7.189   9.307   2.879
68643W        W40936   9.766  41.843   3.383
68644W        W40937   8.818  42.486  11.373
68645W        W40938  20.069  12.693  11.573
68646W        W40939  22.176  31.984   1.862
68647W        W40940  40.954  39.497  11.944
68648W        W40941  20.261  22.020  13.381
68649W        W40942  44.331  37.083  10.424
68650W        W40943  41.043  21.201  12.911
68651W        W40944  40.049  27.996  14.288
68652W        W40945  12.306  20.126   4.291
68653W        W40946   6.209  18.614   1.737
68654W        W40947  44.942  41.467   0.409
68655W        W40948   3.785  32.914  14.896
68656W        W40949  41.994  12.648   1.336
68657W        W40950  42.415  10.376  13.998
68658W        W40951   0.439   4.300  12.999
68659W        W40952   7.231   3.434  12.381
68660W        W40953  43.437  40.376  14.477
68661W        W40954  16.278  43.449   3.228
68662W        W40955  11.643   9.705   4.754
68663W        W40956  35.581  27.079   0.859
68664W        W40957   8.856  14.211   1.786
68665W        W40958  40.911  31.966  13.396
68666W        W40959  37.430  18.154  13.533
68667W        W40960   4.821  17.184   2.289
68668W        W40961  10.141  20.594  14.411
68669W        W40962   8.358  17.221   3.715
68670W        W40963  31.522   2.447   3.190
68671W        W40964   7.827  16.255   0.257
68672W        W40965  38.827   0.415  11.890
68673W        W40966  36.488  33.022  10.406
68674W        W40967   8.887   4.221  13.932
68675W        W40968  43.507  35.602  13.328
68676W        W40969  32.518   7.876  11.570
68677W        W40970  17.650  28.008  10.490
68678W        W40971   9.723   1.367  12.028
68679W        W40972   7.297   2.392   1.433
68680W        W40973  15.818  10.279  11.496
68681W        W40974  42.312  18.647   0.356
68682W        W40975  12.629  13.770   4.813
68683W        W40976  36.844  10.788  10.977
68684W        W40977   0.805  21.218   0.470
68685W        W40978  30.554  18.131   4.118
68686W        W40979  30.598  31.984  12.876
68687W        W40980  25.148  39.482   0.943
68688W        W40981  21.719  17.638   1.828
68689W        W40982  31.567  18.119  12.572
68690W        W40983   0.448  44.272   3.298
68691W        W40984   5.433  10.341   1.270
68692W        W40985  17.089  28.619  14.974
68693W        W40986  23.529  27.006  12.827
68694W        W40987  19.624  23.234   2.703
68695W        W40988  19.156  19.679  11.111
68696W        W40989   1.965  31.450   2.719
68697W        W40990  37.442  38.563  13.522
68698W        W40991   1.325  43.021  11.871
68699W        W40992  18.222  34.018   2.891
68700W        W40993  30.651   1.793  14.856
68701W        W40994  16.262  44.278  14.808
68702W        W40995  29.666  13.808  13.053
68703W        W40996  29.078  18.218  10.521
68704W        W40997  29.072  29.980   2.694
68705W        W40998  35.399  24.003   0.816
68706W        W40999  31.939   7.395  13.020
68707W        W41000   7.339  15.633   0.318
68708W        W41001  31.985   3.725   3.370
68709W        W41002   1.916   6.402   1.430
68710W        W41003  29.110  28.599   3.664
68711W        W41004  13.203   2.729   1.423
68712W        W41005  19.039  10.274   4.324
68713W        W41006  11.854  41.430  10.090
68714W        W41007   6.823  12.185  13.002
68715W        W41008  18.777  15.323  13.474
68716W        W41009  10.195  17.206  14.448
68717W        W41010  14.163  28.602   0.451
68718W        W41011  18.293  35.870   2.343
68719W        W41012  41.334   7.381   4.156
68720W        W41013  44.327  41.493  12.450
68721W        W41014   2.872  43.951   1.822
68722W        W41015   2.949  41.803  10.498
68723W        W41016   3.385  21.579  14.469
68724W        W41017  18.740  17.580   4.334
68725W        W41018  42.418   1.842   4.827
68726W        W41019  16.277  29.630   3.843
68727W        W41020   6.866  18.074   2.752
68728W        W41021   9.392  16.671  11.908
68729W        W41022  11.358  42.839   1.305
68730W        W41023  16.778  32.977   0.844
68731W        W41024  35.027  38.562  13.925
68732W        W41025  40.997   9.340  11.987
68733W        W41026  19.254   5.303   0.460
68734W        W41027   8.328   5.815   2.889
68735W        W41028  26.579  25.555  10.979
68736W        W41029   2.952  15.622  14.345
68737W        W41030  22.722  38.841  11.083
68738W        W41031  36.852  25.993  12.435
68739W        W41032  19.273  23.713  14.800
68740W        W41033  12.740  38.865  13.882
68741W        W41034  13.209   3.323   2.873
68742W        W41035   8.386   0.443   1.835
68743W        W41036   1.438  12.339   3.693
68744W        W41037  18.769  14.655   4.729
68745W        W41038   3.801  32.136  14.335
68746W        W41039  28.165  15.210  11.123
68747W        W41040   5.770  37.515  10.896
68748W        W41041  15.222  30.923  14.014
68749W        W41042  16.216  32.547   3.754
68750W        W41043  20.532  32.430   1.711
68751W        W41044  12.128  25.533   4.605
68752W        W41045  36.468  44.491   9.972
68753W        W41046  35.935  43.278   0.258
68754W        W41047  11.298   3.832   2.258
68755W        W41048  35.548  27.186  11.912
68756W        W41049  34.426  12.224  12.910
68757W        W41050  39.827  13.798  13.001
68758W        W41051   5.904   6.761  11.968
68759W        W41052  40.870   4.318   2.837
68760W        W41053  13.613  30.483   1.213
68761W        W41054  20.153  11.135  11.378
68762W        W41055  34.003  25.583  12.478
68763W        W41056   1.864   6.386   4.834
68764W        W41057   2.292   2.293  10.419
68765W        W41058  29.501   0.387   1.340
68766W        W41059  43.798  33.894  14.362
68767W        W41060  14.593  36.094   4.211
68768W        W41061  28.958   0.757   0.876
68769W        W41062  41.968  44.940   4.810
68770W        W41063   8.239  27.493  13.969
68771W        W41064  42.325  15.806  14.513
68772W        W41065  22.619  12.642  12.881
68773W        W41066  13.242   6.246  13.322
68774W        W41067  42.436  35.565  14.794
68775W        W41068  32.580  26.589  11.856
68776W        W41069  40.517  30.062   0.333
68777W        W41070   6.752  16.803   3.786
68778W        W41071  20.150  12.343  12.351
68779W        W41072  20.659  11.817   3.866
68780W        W41073  26.174  19.599   3.669
68781W        W41074  35.592  36.387   4.183
68782W        W41075  37.402  13.307  14.333
68783W        W41076  33.385   3.784  14.328
68784W        W41077   6.730  36.080  10.093
68785W        W41078  41.828  40.927   1.351
68786W        W41079  40.321  17.797   3.352
68787W        W41080  36.846  16.572  14.501
68788W        W41081  32.963  42.516   0.366
68789W        W41082  14.289   0.291  11.077
68790W        W41083  17.280  31.493  14.822
68791W        W41084  42.482  44.349   4.131
68792W        W41085   2.762  21.533  10.899
68793W        W41086  31.503  21.749  12.026
68794W        W41087  11.165  13.194   3.644
68795W        W41088  24.556  39.508   0.370
68796W        W41089  31.012  33.012  14.001
68797W        W41090   2.825  30.609  11.914
68798W        W41091  21.235  39.417   3.777
68799W        W41092  25.674  26.099  11.380
68800W        W41093  32.473   7.673  14.281
68801W        W41094  24.058   6.309   3.315
68802W        W41095   5.335  31.066  14.834
68803W        W41096  21.699   4.744   1.427
68804W        W41097  33.075  34.567   3.695
68805W        W41098  25.555  40.436  13.310
68806W        W41099  36.985  29.656   0.351
68807W        W41100  33.915  10.141  11.009
68808W        W41101  28.514  42.971  14.815
68809W        W41102  41.344  12.301  11.414
68810W        W41103  43.965  41.044   2.214
68811W        W41104  27.182  17.593  11.423
68812W        W41105   4.889  22.132  14.340
68813W        W41106  31.548   9.321  14.296
68814W        W41107  34.485  29.602   4.198
68815W        W41108  23.729   1.326   2.284
68816W        W41109   0.928   5.766  13.061
68817W        W41110   7.748  41.796   3.183
68818W        W41111  32.596  10.289  14.420
68819W        W41112  36.412  32.895  14.803
68820W        W41113  11.705  28.680   0.773
68821W        W41114  38.075   1.328   4.791
68822W        W41115   2.400  43.298  11.914
68823W        W41116   8.315  36.025  14.987
68824W        W41117  43.827   3.758  11.881
68825W        W41118  30.520  31.917  11.610
68826W        W41119  26.658  34.489   4.803
68827W        W41120  26.698  41.007  11.528
68828W        W41121  13.665  42.393   2.376
68829W        W41122  13.215  28.084   4.721
68830W        W41123  18.232  30.476   1.747
68831W        W41124  43.416  20.640  11.942
68832W        W41125  35.864  11.711   2.396
68833W        W41126  41.479  40.875   3.319
68834W        W41127  11.364   6.394  13.481
68835W        W41128  27.077  33.603  10.019
68836W        W41129   6.193  39.509  12.916
68837W        W41130  21.045  24.674  14.832
68838W        W41131  31.540  13.842   0.356
68839W        W41132  20.745  17.126  13.484
68840W        W41133  11.665  12.161   2.353
68841W        W41134  44.502  34.446  10.598
68842W        W41135  31.045  42.874  11.505
68843W        W41136   1.417  41.809   1.298
68844W        W41137  10.203   1.966  12.999
68845W        W41138  22.685  15.676   4.716
68846W        W41139   3.866   3.257  10.019
68847W        W41140  10.640  35.428   2.364
68848W        W41141  15.685   1.737   3.686
68849W        W41142  24.098   5.223  14.476
68850W        W41143   4.289  23.573   2.359
68851W        W41144  14.192  15.632  14.850
68852W        W41145  41.508  30.492  12.360
68853W        W41146  40.992  11.833   1.346
68854W        W41147  40.380  32.490   1.301
68855W        W41148  26.098  12.681   2.782
68856W        W41149   1.791  38.331  10.506
68857W        W41150  13.647   4.418   1.743
68858W        W41151  37.935  43.421   3.715
68859W        W41152  44.353   7.708  14.891
68860W        W41153  18.194  32.138  14.388
68861W        W41154   8.766  21.609  12.343
68862W        W41155  43.808   6.245  14.782
68863W        W41156   5.290   4.780  13.845
68864W        W41157   7.372  12.251  13.041
68865W        W41158  23.498  42.507   3.286
68866W        W41159  18.587  19.719  10.413
68867W        W41160  42.511  16.262   3.328
68868W        W41161  12.345  33.966   2.213
68869W        W41162  28.665  10.228  14.816
68870W        W41163   8.735  12.212  13.916
68871W        W41164   6.818  35.531  11.379
68872W        W41165  37.387  14.234  12.346
68873W        W41166  29.068  38.361   4.680
68874W        W41167  41.804  37.011  14.005
68875W        W41168  31.939  32.521  11.049
68876W        W41169  30.131   3.354  14.452
68877W        W41170  21.618  10.710  11.598
68878W        W41171  35.442  22.699   3.328
68879W        W41172  41.925  14.274   4.696
68880W        W41173  43.463  40.961  10.484
68881W        W41174   8.801  11.793   0.251
68882W        W41175   3.272  17.621   1.813
68883W        W41176  27.508  26.617   9.928
68884W        W41177  33.497  16.160  14.452
68885W        W41178   9.643  18.247  13.509
68886W        W41179  44.959  17.624   5.797
68887W        W41180   4.349  22.730  10.566
68888W        W41181   5.241  29.478   0.894
68889W        W41182  31.123  14.187   2.349
68890W        W41183   4.259  14.339  14.463
68891W        W41184  17.139   3.443   3.356
68892W        W41185  28.557  12.621   2.223
68893W        W41186   5.897   1.454   2.275
68894W        W41187  11.796   6.794   2.704
68895W        W41188  27.989  41.874  14.760
68896W        W41189  25.979   3.823  13.544
68897W        W41190   8.391   2.827   1.233
68898W        W41191   7.890  24.707  10.536
68899W        W41192   0.835   4.717   1.409
68900W        W41193  37.044  26.463  14.340
68901W        W41194  42.297  15.732  11.983
68902W        W41195  18.563  23.101   2.300
68903W        W41196  31.973  11.325  13.322
68904W        W41197  40.997  32.095  14.988
68905W        W41198   3.356  10.640  13.038
68906W        W41199  41.818  40.971   4.173
68907W        W41200   5.346  43.425  14.347
68908W        W41201  37.506  34.555   3.854
68909W        W41202   9.763  28.597   0.265
68910W        W41203  25.506  42.370   3.385
68911W        W41204   3.781  18.241  14.935
68912W        W41205  40.833  41.877  11.547
68913W        W41206  13.844  33.474  13.537
68914W        W41207   5.363   6.340   0.281
68915W        W41208  16.245   0.492  12.457
68916W        W41209  25.060  22.627  11.607
68917W        W41210  22.104  15.802   4.186
68918W        W41211   6.241  42.992  11.401
68919W        W41212  38.040  38.391  11.900
68920W        W41213  40.362  39.040   5.117
68921W        W41214  14.739  37.498   4.662
68922W        W41215  30.558  36.567  11.962
68923W        W41216  15.224  30.095  13.914
68924W        W41217   2.299  37.402  10.472
68925W        W41218  25.626  35.010  13.795
68926W        W41219  14.231   3.781  14.440
68927W        W41220  38.475  34.955   2.287
68928W        W41221  19.664  23.097  14.031
68929W        W41222  21.587  12.145  13.515
68930W        W41223  28.088  35.079   0.384
68931W        W41224  19.252  42.415   4.815
68932W        W41225  28.142   8.718   3.239
68933W        W41226  41.357  35.583  14.827
68934W        W41227  22.516  33.476  11.903
68935W        W41228   8.892   2.874  12.845
68936W        W41229  15.796  32.547   1.396
68937W        W41230  14.717  37.936   1.922
68938W        W41231  13.243  12.666   1.292
68939W        W41232  12.684   1.892   3.301
68940W        W41233  36.941   4.937  14.304
68941W        W41234  24.215  32.073   0.372
68942W        W41235   3.792   9.859  13.504
68943W        W41236  10.264  28.518  13.913
68944W        W41237  30.571  41.801  11.967
68945W        W41238   9.199  13.713   0.402
68946W        W41239   7.415  14.815  11.465
68947W        W41240   1.385  44.389  12.850
68948W        W41241  18.634  24.697  10.632
68949W        W41242   3.303   8.314  13.005
68950W        W41243  35.396  42.392   0.279
68951W        W41244  41.885   4.802  12.877
68952W        W41245  17.644   0.412   1.223
68953W        W41246  18.273   6.872  11.493
68954W        W41247  31.601  15.284  12.524
68955W        W41248  22.195  24.499  13.333
68956W        W41249  27.681   6.741   1.867
68957W        W41250  42.995   1.939  13.842
68958W        W41251  23.106  11.631   3.203
68959W        W41252  19.709  12.742   4.684
68960W        W41253  44.482  15.635  13.872
68961W        W41254  28.584  42.377  10.972
68962W        W41255  24.068  25.208  11.069
68963W        W41256  32.592   2.945  13.828
68964W        W41257  37.522  11.161  12.488
68965W        W41258  34.071  26.032   0.417
68966W        W41259  20.756  24.673  13.440
68967W        W41260  28.450  28.106  12.503
68968W        W41261  13.701  16.581   4.113
68969W        W41262  24.094  44.345  12.026
68970W        W41263  30.423  35.064  12.502
68971W        W41264  34.441  38.938   2.390
68972W        W41265  38.440  18.234  11.964
68973W        W41266   6.729  27.675   1.694
68974W        W41267  35.074  20.252  11.606
68975W        W41268  33.898  27.156  12.452
68976W        W41269  30.086  27.142  10.546
68977W        W41270  32.133   0.889  12.374
68978W        W41271   7.863  35.532   0.471
68979W        W41272  35.062  43.967   2.238
68980W        W41273  26.516  22.020   0.751
68981W        W41274  32.633  13.213   1.377
68982W        W41275  32.486  35.996  14.448
68983W        W41276  12.178  14.116  11.505
68984W        W41277  44.987  22.013  12.858
68985W        W41278  17.077  43.404   3.214
68986W        W41279  38.870  27.039  13.948
68987W        W41280  31.539  38.821   3.289
68988W        W41281   0.967  35.421  14.825
68989W        W41282  44.957  11.817  14.802
68990W        W41283   8.792  19.224   3.834
68991W        W41284   7.283  13.705  12.909
68992W        W41285  16.745  28.476  14.918
68993W        W41286  33.609   3.376   0.293
68994W        W41287   5.215  32.462   3.857
68995W        W41288   4.752  38.459   1.348
68996W        W41289  18.627  43.894  13.526
68997W        W41290   2.815   6.843   3.780
68998W        W41291   9.786  13.827   3.196
68999W        W41292  41.857  30.510  14.803
69000W        W41293  27.047   0.881   1.903
69001W        W41294  30.598  44.792   4.129
69002W        W41295  16.607  40.367  12.537
69003W        W41296  27.010  29.604  11.948
69004W        W41297  21.752  34.413   2.415
69005W        W41298   8.769  38.954  10.427
69006W        W41299  19.667  27.587   4.207
69007W        W41300  28.649  35.362   0.758
69008W        W41301  21.589  38.529   2.711
69009W        W41302  37.854  44.388  14.826
69010W        W41303   2.337  14.119  13.515
69011W        W41304  28.437  14.221  10.603
69012W        W41305  22.652   1.838   9.577
69013W        W41306   8.390   3.265  11.070
69014W        W41307   3.386   0.863  12.427
69015W        W41308  10.374  16.221  12.573
69016W        W41309  32.902  25.066  12.397
69017W        W41310  11.198   9.798   0.963
69018W        W41311  30.419  11.275   3.169
69019W        W41312  10.852  37.512  14.336
69020W        W41313   4.269   9.727  14.850
69021W        W41314  29.438  39.853  12.012
69022W        W41315  24.007  21.228  10.063
69023W        W41316  27.113   1.869   2.419
69024W        W41317  25.964   9.267   4.291
69025W        W41318  32.995  20.237   2.692
69026W        W41319  23.073  18.199  13.402
69027W        W41320   4.721  10.371   3.377
69028W        W41321  16.189  42.832  11.070
69029W        W41322  31.960   2.367   3.742
69030W        W41323  18.059  20.143   4.233
69031W        W41324   9.818  17.779  13.807
69032W        W41325  43.019  35.866   3.720
69033W        W41326  38.378  39.831   3.207
69034W        W41327  29.083   0.855   3.712
69035W        W41328   0.396  32.983   4.729
69036W        W41329  37.529   6.393   0.906
69037W        W41330  28.546  35.856  13.531
69038W        W41331  40.435  26.497   2.851
69039W        W41332  14.279  10.844   3.632
69040W        W41333  20.674   4.791   2.789
69041W        W41334  43.362  15.230   0.364
69042W        W41335  31.114   0.359   9.985
69043W        W41336  17.602   1.876   2.762
69044W        W41337  32.940  41.994  12.520
69045W        W41338  41.863   9.766  14.342
69046W        W41339  30.914  27.537   1.350
69047W        W41340  42.820  11.131   4.170
69048W        W41341  41.831   9.382  11.002
69049W        W41342   5.761  24.985  14.338
69050W        W41343  13.689  20.738   1.258
69051W        W41344  24.122  32.931   3.793
69052W        W41345  31.010   4.850  14.501
69053W        W41346  31.041  28.017  10.477
69054W        W41347  28.099  25.178   2.408
69055W        W41348  24.156  34.451  12.840
69056W        W41349  11.794   9.177   3.696
69057W        W41350  18.776   1.917  13.866
69058W        W41351  35.920  22.190   4.354
69059W        W41352   7.817  34.091  10.007
69060W        W41353  20.618   3.218   4.222
69061W        W41354  41.906  19.071  10.565
69062W        W41355  26.670  20.570  12.038
69063W        W41356  22.564   3.283  10.903
69064W        W41357   8.170  34.925   3.230
69065W        W41358  12.613   7.336   2.838
69066W        W41359  14.804   7.730   3.277
69067W        W41360  43.507  21.524   1.765
69068W        W41361  25.042  39.959  11.964
69069W        W41362   0.489   2.392  11.088
69070W        W41363  19.163  16.093   4.610
69071W        W41364  24.227  31.977  12.879
69072W        W41365  39.837  10.239  11.127
69073W        W41366  10.682  30.502  12.841
69074W        W41367   6.300   6.197  13.821
69075W        W41368  16.575  34.469   2.377
69076W        W41369  43.453   6.234   4.149
69077W        W41370  12.141  37.508  12.072
69078W        W41371  12.315  27.605  10.474
69079W        W41372  10.874  32.471  13.357
69080W        W41373  34.879  37.357  11.443
69081W        W41374  10.676  18.236   2.903
69082W        W41375  42.523  31.969  14.908
69083W        W41376   9.688  15.782  12.515
69084W        W41377  36.935  41.427  13.459
69085W        W41378  41.822  23.634   3.651
69086W        W41379  26.003  34.071  12.378
69087W        W41380  29.920  43.880   0.888
69088W        W41381   7.822  27.150  10.531
69089W        W41382  42.362  32.093   2.807
69090W        W41383  38.900  15.253  14.795
69091W        W41384  22.238   0.785   0.359
69092W        W41385   3.712  42.507   3.671
69093W        W41386  42.294  17.294   9.977
69094W        W41387  20.194   9.362  12.018
69095W        W41388  23.601  18.562  13.987
69096W        W41389  11.275  15.295  10.512
69097W        W41390  31.953   4.256   3.721
69098W        W41391  17.223  41.933   1.442
69099W        W41392  17.704  15.167  13.022
69100W        W41393  22.060  30.566   4.139
69101W        W41394   6.690  15.768  13.419
69102W        W41395  24.139  25.627   4.680
69103W        W41396  40.491  37.563   2.391
69104W        W41397   6.759  13.684   0.775
69105W        W41398  19.279   2.228  14.358
69106W        W41399  16.176  29.056   2.191
69107W        W41400  33.520  37.382   2.800
69108W        W41401   5.885  37.022   4.724
69109W        W41402  10.690  26.075   2.756
69110W        W41403  18.717   2.239  13.820
69111W        W41404  28.953  17.642   4.311
69112W        W41405  44.446   3.451  14.501
69113W        W41406   9.849  16.711  11.381
69114W        W41407  34.878   6.313  12.855
69115W        W41408  42.360  15.217   0.780
69116W        W41409  27.500  31.088  10.534
69117W        W41410  27.625  37.833  13.856
69118W        W41411  31.561  19.583  11.585
69119W        W41412   3.765  41.303   4.162
69120W        W41413  32.578  17.615  11.933
69121W        W41414  44.905  39.962  14.886
69122W        W41415  35.990  34.999   0.480
69123W        W41416  22.611  38.446   3.755
69124W        W41417  37.530  40.935   1.694
69125W        W41418   0.897  41.891   0.872
69126W        W41419  34.544  28.621  14.789
69127W        W41420  16.230  39.509   1.403
69128W        W41421  33.503  42.293   2.714
69129W        W41422  27.471  28.668   1.802
69130W        W41423  39.368  23.240   0.908
69131W        W41424   8.318  24.150   3.814
69132W        W41425  12.136  33.532  11.405
69133W        W41426  30.991  32.556   0.469
69134W        W41427  16.134   8.162  10.645
69135W        W41428  43.875   1.410   4.127
69136W        W41429  18.052  40.944  14.473
69137W        W41430   7.287  25.576   3.841
69138W        W41431  15.796  27.679   1.224
69139W        W41432   8.267  42.305  12.533
69140W        W41433  32.945  33.026  10.440
69141W        W41434  39.889  38.887  12.566
69142W        W41435   7.872  26.640   0.408
69143W        W41436  32.984  11.317  10.404
69144W        W41437  21.687  22.665   2.824
69145W        W41438  38.941  18.121   1.211
69146W        W41439  39.513  29.169   4.716
69147W        W41440  37.914  16.603  12.865
69148W        W41441  23.073  14.318  13.977
69149W        W41442  33.928  19.600  13.507
69150W        W41443   5.807  15.617  14.403
69151W        W41444  11.740   7.340   1.415
69152W        W41445  19.210  40.529  14.880
69153W        W41446  20.155   5.198  13.923
69154W        W41447   6.268  26.192   2.316
69155W        W41448  20.722  33.944  10.943
69156W        W41449  32.431  32.946  11.596
69157W        W41450  33.608  24.197  12.084
69158W        W41451   6.818  40.320  12.948
69159W        W41452   6.356   8.728   4.832
69160W        W41453  34.103  30.958   4.708
69161W        W41454  23.170  37.869   0.463
69162W        W41455  25.570  29.063  12.383
69163W        W41456  43.385  24.547  10.969
69164W        W41457  39.855  27.943   3.170
69165W        W41458  14.703  36.935   3.379
69166W        W41459  17.213  36.857  12.521
69167W        W41460  15.641  30.479  14.972
69168W        W41461  23.072   8.857   2.302
69169W        W41462  37.980  27.524  13.951
69170W        W41463  36.952  29.966  11.427
69171W        W41464   0.771  43.343   4.603
69172W        W41465   7.240  35.909  10.077
69173W        W41466  19.105  23.648  11.520
69174W        W41467   8.336  19.612   3.235
69175W        W41468  35.366  27.579   2.673
69176W        W41469   2.917   3.777   2.730
69177W        W41470   4.725   9.260  12.886
69178W        W41471  10.821  43.293  13.846
69179W        W41472  15.641  26.045  11.953
69180W        W41473  36.890  26.134  11.555
69181W        W41474  13.723  30.463   4.661
69182W        W41475   5.382  36.583   2.227
69183W        W41476  43.768  44.825  13.406
69184W        W41477  34.039  42.355   0.430
69185W        W41478  20.054  32.401  12.498
69186W        W41479  36.090  37.442  11.447
69187W        W41480  25.105  13.783  13.804
69188W        W41481  16.664  42.926  12.983
69189W        W41482  31.033  23.128   2.192
69190W        W41483  18.073  16.077   2.890
69191W        W41484  23.184   6.860   1.410
69192W        W41485  26.598  34.070   3.196
69193W        W41486   0.898   9.657  12.394
69194W        W41487  38.987  15.730  13.053
69195W        W41488   6.288  18.575  11.548
69196W        W41489  25.627   3.943   0.922
69197W        W41490  37.576  34.478  14.470
69198W        W41491  15.668  39.478  13.058
69199W        W41492   4.446   2.369   0.366
69200W        W41493   4.885  35.599  14.341
69201W        W41494  17.645  39.329  13.391
69202W        W41495   1.272  15.584  14.446
69203W        W41496  15.591   3.853  12.003
69204W        W41497   4.866  26.091  10.091
69205W        W41498  27.024  34.040   2.239
69206W        W41499  30.512  16.173   0.801
69207W        W41500  34.074  18.694   2.186
69208W        W41501  35.954  14.240   2.320
69209W        W41502  44.437  24.670  11.081
69210W        W41503   3.346   4.761   1.857
69211W        W41504  22.139  31.093  10.936
69212W        W41505  41.414  23.067  13.464
69213W        W41506  12.132  39.470   4.141
69214W        W41507  36.972  43.945  13.891
69215W        W41508  40.529   5.433  11.511
69216W        W41509   6.258  15.680  11.509
69217W        W41510  42.010  27.973  13.810
69218W        W41511   8.810   4.840  12.943
69219W        W41512  33.622  30.591   0.757
69220W        W41513  41.862  33.587   2.732
69221W        W41514  34.403   8.304  12.449
69222W        W41515  38.405  44.918  14.497
69223W        W41516  20.570   9.695   2.243
69224W        W41517  10.287  24.095   2.879
69225W        W41518  23.633  36.390  12.011
69226W        W41519  13.702   4.423   2.343
69227W        W41520  17.075  42.456   3.167
69228W        W41521  20.725  42.395   4.726
69229W        W41522  31.410  29.034  10.642
69230W        W41523  17.739   3.828   0.411
69231W        W41524   4.331  28.632   4.263
69232W        W41525  22.085  14.269  11.946
69233W        W41526   4.412   8.327  13.906
69234W        W41527  19.147  23.675   2.198
69235W        W41528   5.222  24.533   0.466
69236W        W41529   6.413   3.351  12.868
69237W        W41530  20.731  43.496  11.951
69238W        W41531  31.510  37.004  13.476
69239W        W41532  44.441  15.137   1.701
69240W        W41533   5.410   3.374   1.338
69241W        W41534  39.434  42.896   1.698
69242W        W41535  43.311  32.396   1.236
69243W        W41536   7.250  20.644   3.381
69244W        W41537   4.427   6.845   4.136
69245W        W41538  41.003   1.460  12.081
69246W        W41539  42.366  15.089  10.615
69247W        W41540  43.851  37.557   3.227
69248W        W41541  11.173  16.301  14.877
69249W        W41542  18.716  26.525   2.859
69250W        W41543  35.002  17.601  14.283
69251W        W41544  13.838   0.409  13.832
69252W        W41545   2.247  43.956  14.468
69253W        W41546  21.151  34.958  11.577
69254W        W41547  18.209  43.916   4.672
69255W        W41548  19.723  18.682  11.522
69256W        W41549  11.157  33.942  11.068
69257W        W41550  37.513  26.984  13.315
69258W        W41551  30.550   6.300   0.912
69259W        W41552   5.800   9.872   1.311
69260W        W41553  26.619  27.956  12.865
69261W        W41554  11.183  35.016   4.738
69262W        W41555  36.041   8.731   2.718
69263W        W41556   7.822  38.363   1.391
69264W        W41557  20.759  40.332  13.473
69265W        W41558   8.298  28.622  11.074
69266W        W41559  36.393  23.032  13.807
69267W        W41560  37.376  40.448   3.222
69268W        W41561  35.404  36.945   4.691
69269W        W41562  38.527  15.593   0.932
69270W        W41563  24.525  35.515  11.968
69271W        W41564  35.489  29.099  11.559
69272W        W41565  27.629  23.002  13.001
69273W        W41566  19.176   0.870  11.919
69274W        W41567  17.704   7.211   1.395
69275W        W41568  28.956  29.064  13.983
69276W        W41569  29.513  40.915   3.684
69277W        W41570  12.234  42.340   0.886
69278W        W41571   8.277  16.315   1.254
69279W        W41572   7.752   5.328   1.742
69280W        W41573  19.682  17.747   3.172
69281W        W41574   1.894   5.249   0.245
69282W        W41575   7.860  24.139  13.853
69283W        W41576  36.374  44.821  12.042
69284W        W41577  13.324  14.688  14.868
69285W        W41578  44.409   6.286  14.862
69286W        W41579  25.135  16.238   0.857
69287W        W41580  21.099   2.869  10.955
69288W        W41581   7.287  35.464   3.859
69289W        W41582  14.209  35.051   4.695
69290W        W41583  29.623  16.662   3.385
69291W        W41584  39.473  30.438   4.655
69292W        W41585  28.468  16.288  10.627
69293W        W41586  25.614  16.609  11.545
69294W        W41587  18.105   6.427  10.450
69295W        W41588  24.062   1.255  11.876
69296W        W41589  10.844  21.253   4.157
69297W        W41590  17.305  10.719   1.719
69298W        W41591   1.818  19.681  11.080
69299W        W41592  12.831  29.497  12.374
69300W        W41593  11.676  27.644   0.761
69301W        W41594  19.555  39.897  10.981
69302W        W41595  21.062  20.709  11.515
69303W        W41596  30.526  43.984   1.273
69304W        W41597  16.729  20.666  14.873
69305W        W41598  39.029  24.994  10.150
69306W        W41599  32.114  36.408   2.238
69307W        W41600  11.753  30.922   0.843
69308W        W41601  22.694   1.907   5.156
69309W        W41602  29.056  44.941   0.815
69310W        W41603  21.043  40.034   1.215
69311W        W41604  43.774  34.070  10.970
69312W        W41605  36.001  13.219   5.261
69313W        W41606  32.405  23.614   1.860
69314W        W41607  26.503   8.654  11.932
69315W        W41608  12.189  28.649   4.234
69316W        W41609   0.376  22.124  11.396
69317W        W41610  13.734   1.817   1.884
69318W        W41611  30.496   6.240  11.123
69319W        W41612  24.109  37.027   0.924
69320W        W41613  17.600  20.040   4.140
69321W        W41614   2.727  14.754  13.838
69322W        W41615  38.540  39.913   0.261
69323W        W41616  17.160  16.718   1.797
69324W        W41617  20.628   5.794  14.879
69325W        W41618   7.890  29.962   2.242
69326W        W41619  32.536   3.355   1.869
69327W        W41620  40.976   0.933  13.427
69328W        W41621  19.046  41.823   3.155
69329W        W41622  18.734  18.066  12.384
69330W        W41623   8.269  41.984  13.311
69331W        W41624  16.585  41.906   0.334
69332W        W41625  12.173  14.833  12.015
69333W        W41626  42.914  12.341  11.914
69334W        W41627  34.469   3.391  11.059
69335W        W41628  43.319  19.572   1.869
69336W        W41629  22.216  12.242   2.786
69337W        W41630  43.382  11.236   3.758
69338W        W41631   7.353  40.871   1.766
69339W        W41632   6.294  21.573   1.883
69340W        W41633  27.518  30.551   1.238
69341W        W41634  36.077   7.296  10.407
69342W        W41635  25.990  18.760   4.823
69343W        W41636  27.144  26.160   3.731
69344W        W41637  41.849  35.031   1.403
69345W        W41638   3.934  18.175   2.789
69346W        W41639  16.683   9.766   2.226
69347W        W41640   5.229  22.526  14.861
69348W        W41641   9.193  37.923   1.715
69349W        W41642  42.429   0.402  11.005
69350W        W41643  16.782  42.792  14.352
69351W        W41644  44.497  30.506   3.786
69352W        W41645   0.423  20.031  11.374
69353W        W41646  26.539  14.657  12.936
69354W        W41647  38.371  29.109  11.972
69355W        W41648   6.245  30.431   3.771
69356W        W41649  41.947  11.126  12.096
69357W        W41650   3.859  39.445   0.777
69358W        W41651   8.254  22.660  13.999
69359W        W41652  38.886  24.653  11.062
69360W        W41653  13.745  31.116   4.630
69361W        W41654  24.990  35.056   1.295
69362W        W41655   0.859  41.806   4.206
69363W        W41656  18.690  27.141   3.683
69364W        W41657  25.635  27.016  13.019
69365W        W41658  28.988  36.857   3.368
69366W        W41659  25.181  17.646  11.913
69367W        W41660  18.546  21.239  11.489
69368W        W41661  44.473  22.098  13.507
69369W        W41662  32.981  17.790   2.756
69370W        W41663  14.795  12.204   1.217
69371W        W41664  24.225  40.886   0.730
69372W        W41665  23.023  11.660   0.929
69373W        W41666  13.113   2.963   0.295
69374W        W41667  34.383   5.764  13.920
69375W        W41668  26.570  40.972   2.269
69376W        W41669  18.708  39.533  10.642
69377W        W41670  17.737  21.085  11.420
69378W        W41671   5.848  20.559  10.599
69379W        W41672  23.050  28.010   0.910
69380W        W41673  16.156  14.667   4.624
69381W        W41674  13.808   6.791   2.772
69382W        W41675  14.784  19.191  12.994
69383W        W41676  21.619   5.357   3.823
69384W        W41677  30.107  43.856  11.434
69385W        W41678   7.343  31.928   0.446
69386W        W41679  15.707  21.168  12.447
69387W        W41680  29.080  29.070   4.785
69388W        W41681  33.453  12.303   3.311
69389W        W41682  41.857  32.915  12.420
69390W        W41683   5.350  15.620   3.238
69391W        W41684  39.001   5.806  14.484
69392W        W41685  24.691  40.472   1.313
69393W        W41686  34.935  23.137   1.726
69394W        W41687  33.911  37.560   2.800
69395W        W41688  44.448  12.152  14.290
69396W        W41689  25.988  15.116  12.539
69397W        W41690  34.114  14.754   1.904
69398W        W41691  15.173  15.631   3.344
69399W        W41692  11.638  23.016  11.073
69400W        W41693   3.223  27.092  12.924
69401W        W41694  31.134  18.097  12.438
69402W        W41695  42.445  32.577  13.805
69403W        W41696  30.535  18.111  12.068
69404W        W41697  16.676  17.768  12.445
69405W        W41698  41.434   3.931   0.905
69406W        W41699  12.679  28.640  14.414
69407W        W41700  41.882   9.269  10.559
69408W        W41701  29.617  28.435  13.331
69409W        W41702  19.148  20.226   1.704
69410W        W41703  24.046   3.425  12.844
69411W        W41704  36.524  20.649  14.488
69412W        W41705  10.369   0.908  12.357
69413W        W41706  16.630   8.383   0.313
69414W        W41707   1.432  39.426   1.349
69415W        W41708  29.494  42.848   4.349
69416W        W41709   6.742  16.240   2.322
69417W        W41710  26.184   9.674   3.199
69418W        W41711  23.595  18.716  12.514
69419W        W41712  31.512  30.002  12.079
69420W        W41713  29.149  15.820  11.968
69421W        W41714   0.312  34.377  10.992
69422W        W41715  21.166  23.240   3.168
69423W        W41716   1.389   4.366   4.618
69424W        W41717  38.380   1.347   3.344
69425W        W41718   2.285   1.384   0.920
69426W        W41719  31.543  19.280  14.832
69427W        W41720  17.799  28.555  12.472
69428W        W41721  39.880  43.938   1.727
69429W        W41722   3.813  42.902   1.900
69430W        W41723  34.527  15.185  12.363
69431W        W41724  33.021  26.605  13.821
69432W        W41725  42.955   0.382  13.929
69433W        W41726   5.712  22.055   2.292
69434W        W41727  11.168   7.196   0.949
69435W        W41728   0.320   8.246  11.893
69436W        W41729  19.671  10.723   4.125
69437W        W41730  38.998   2.791  13.445
69438W        W41731  33.092   6.873   2.681
69439W        W41732  43.886  26.132  13.804
69440W        W41733  17.644   4.810   2.805
69441W        W41734  31.488  32.062   4.215
69442W        W41735  27.192   2.863   4.352
69443W        W41736  29.617  33.550  14.020
69444W        W41737  35.007  34.470  14.426
69445W        W41738  22.584   9.681  14.820
69446W        W41739   3.429  29.072  13.985
69447W        W41740  22.048  37.374  14.356
69448W        W41741  11.640  44.434  10.635
69449W        W41742   4.271  30.551   3.630
69450W        W41743   9.799  10.209  12.439
69451W        W41744  44.007   7.746  13.534
69452W        W41745  21.568   8.271   3.383
69453W        W41746   5.796  25.079   3.734
69454W        W41747  12.779  26.694   3.146
69455W        W41748  40.537  37.452   3.650
69456W        W41749  18.611  31.408  10.513
69457W        W41750  38.993  16.765  11.052
69458W        W41751  24.645  32.047   3.744
69459W        W41752  15.718   1.885  10.543
69460W        W41753  38.965   9.868  13.422
69461W        W41754  37.980  10.751   2.885
69462W        W41755  36.014  34.102   1.923
69463W        W41756  30.641  14.230  10.546
69464W        W41757  10.791  12.354  12.554
69465W        W41758   3.264  11.191  11.967
69466W        W41759  13.629  25.134  13.794
69467W        W41760  44.290  18.147  12.494
69468W        W41761  32.396  39.423   3.308
69469W        W41762  40.039  13.352   4.263
69470W        W41763  37.080  41.896  14.870
69471W        W41764   8.798  29.993   2.885
69472W        W41765  20.167  40.492   4.737
69473W        W41766  19.704  22.025   4.331
69474W        W41767  40.957  10.721  12.363
69475W        W41768  30.951  37.451  14.934
69476W        W41769  37.849  40.367  14.867
69477W        W41770  14.270  43.825  13.372
69478W        W41771  33.572  34.574  14.974
69479W        W41772  27.185   1.773  13.332
69480W        W41773  10.348  40.503  14.951
69481W        W41774  41.919  20.551   2.733
69482W        W41775  29.493  41.884  13.367
69483W        W41776  12.238  23.115   1.933
69484W        W41777  38.921   1.789  11.590
69485W        W41778  42.489  43.977  14.961
69486W        W41779  39.355  43.834   3.380
69487W        W41780  21.222  42.965   2.812
69488W        W41781  35.394  37.863   2.199
69489W        W41782  44.304  44.872  10.471
69490W        W41783  19.280  33.553  12.879
69491W        W41784  15.155  16.273   1.295
69492W        W41785  44.914  30.604   0.396
69493W        W41786  16.184  17.116   0.351
69494W        W41787   2.858  37.335   3.154
69495W        W41788  42.306  22.154  13.797
69496W        W41789   5.326  11.350  14.999
69497W        W41790  31.985   1.791   3.295
69498W        W41791  31.949  32.088  13.932
69499W        W41792   9.395  33.461  12.089
69500W        W41793  19.731  42.388  13.795
69501W        W41794  31.036  35.379  14.347
69502W        W41795  25.610  16.643   1.850
69503W        W41796  27.993  39.376  11.990
69504W        W41797  16.210  42.953  14.810
69505W        W41798  30.919  19.587  14.941
69506W        W41799   9.792  33.971  14.321
69507W        W41800  15.812  10.194  13.392
69508W        W41801  14.175   1.743   1.438
69509W        W41802  31.073  34.603   0.744
69510W        W41803   3.814  25.191  14.354
69511W        W41804  37.446  32.999   4.828
69512W        W41805  40.908  16.153   2.804
69513W        W41806  13.779  27.464  13.801
69514W        W41807  36.011   4.443   4.336
69515W        W41808  16.784  12.709  14.342
69516W        W41809   9.881  14.164   3.749
69517W        W41810  28.103  37.561  11.503
69518W        W41811  18.179  28.657  11.918
69519W        W41812   4.799  11.683  10.966
69520W        W41813  37.398  40.406   3.777
69521W        W41814  38.529  36.538   1.736
69522W        W41815  43.441  42.502  11.879
69523W        W41816  21.756   7.794   0.859
69524W        W41817  44.930  22.624   3.173
69525W        W41818  43.831  26.996   0.292
69526W        W41819   6.754  32.488  12.484
69527W        W41820  37.419   0.306   4.228
69528W        W41821   4.403  37.892  10.902
69529W        W41822   6.247  30.424  10.894
69530W        W41823  24.692   2.866   5.082
69531W        W41824  32.044  35.581   0.242
69532W        W41825  36.966  41.900  13.367
69533W        W41826  22.201  33.115   1.394
69534W        W41827  28.640  13.271  13.390
69535W        W41828  20.610  36.452  12.440
69536W        W41829  17.065  29.048  11.390
69537W        W41830  43.283  18.109   4.201
69538W        W41831  34.071  23.580   1.722
69539W        W41832  34.875  36.369  12.926
69540W        W41833  21.588  34.419  14.395
69541W        W41834  40.336  35.420   2.746
69542W        W41835  21.513  25.165   0.273
69543W        W41836  39.006  43.943  10.111
69544W        W41837  28.027  31.069   0.411
69545W        W41838  43.015  44.866   9.931
69546W        W41839   8.891  38.464   4.668
69547W        W41840  29.558  27.529   4.222
69548W        W41841  27.008   0.360   1.422
69549W        W41842   5.276  32.548  12.544
69550W        W41843  42.010  18.760  12.517
69551W        W41844  42.983  22.193   3.655
69552W        W41845  15.621  16.258   2.410
69553W        W41846  38.883  32.030  14.967
69554W        W41847  24.661   4.308  14.973
69555W        W41848  37.033  31.918  13.978
69556W        W41849  44.755  28.163  12.052
69557W        W41850   4.863  35.925   3.651
69558W        W41851  15.193   6.281   0.906
69559W        W41852  25.169   2.390  12.023
69560W        W41853  14.108  28.478  14.506
69561W        W41854   4.326  15.678  14.384
69562W        W41855  38.968   2.276  10.554
69563W        W41856  10.694  22.053   4.621
69564W        W41857  30.915  10.874   4.328
69565W        W41858  12.627  41.835  11.866
69566W        W41859  30.486  23.594   1.447
69567W        W41860   3.304  33.916  12.936
69568W        W41861  35.457  30.512  14.508
69569W        W41862   7.894  32.938   3.183
69570W        W41863  38.887  20.729  11.061
69571W        W41864  41.890   1.352  12.006
69572W        W41865  13.689  18.078  14.962
69573W        W41866  22.057  24.176  13.993
69574W        W41867  42.008  11.140  12.579
69575W        W41868  17.780  33.960   4.299
69576W        W41869   7.772  21.119   0.805
69577W        W41870  25.965  29.652  14.956
69578W        W41871  17.168  10.782  14.832
69579W        W41872   3.796  26.538  10.942
69580W        W41873  26.525  27.457  10.627
69581W        W41874  28.100  35.375   9.971
69582W        W41875  37.878  33.592   1.292
69583W        W41876  33.489  39.364  14.920
69584W        W41877  10.185   3.242   1.851
69585W        W41878  40.324  20.758  11.451
69586W        W41879  11.687  36.972   3.204
69587W        W41880  18.550  15.174   3.764
69588W        W41881   7.891  29.574  10.974
69589W        W41882  27.117   1.891  14.515
69590W        W41883  39.372  39.017  10.998
69591W        W41884  14.130  15.215   4.636
69592W        W41885  16.185  43.781  12.397
69593W        W41886  19.628  31.531  14.951
69594W        W41887  12.302   8.350   0.890
69595W        W41888  34.030   4.441   4.338
69596W        W41889  10.844  13.262   2.896
69597W        W41890   2.938   8.780   2.817
69598W        W41891  16.605   3.766  11.484
69599W        W41892  29.174  29.960   4.731
69600W        W41893  10.159   7.878   1.392
69601W        W41894  40.014  37.469  11.945
69602W        W41895   5.209  12.158   3.781
69603W        W41896  24.537   5.271  12.486
69604W        W41897  13.799  10.756   0.856
69605W        W41898  20.616  28.612   3.257
69606W        W41899  38.353  38.996   4.614
69607W        W41900  35.533  16.273  13.000
69608W        W41901  27.554  40.010   2.309
69609W        W41902  26.660  34.578   3.258
69610W        W41903  34.065  11.147   4.260
69611W        W41904  35.902  34.470   1.732
69612W        W41905   7.711  18.774  11.440
69613W        W41906  38.835  17.598   2.215
69614W        W41907  42.785  36.585  10.601
69615W        W41908  21.640  19.083   0.368
69616W        W41909  27.644  14.699   1.756
69617W        W41910  28.514  39.473  13.444
69618W        W41911  44.936  34.487  11.877
69619W        W41912  43.982  37.429   5.100
69620W        W41913  28.975  21.517  10.590
69621W        W41914  44.005  11.317   2.785
69622W        W41915  24.009  19.634  13.411
69623W        W41916  23.077   0.825  13.434
69624W        W41917   9.713  15.235  12.526
69625W        W41918  33.984  16.179  13.540
69626W        W41919  44.842   5.388  14.423
69627W        W41920  40.884  13.805   0.922
69628W        W41921  20.055  17.720   3.327
69629W        W41922  33.429  23.094   3.211
69630W        W41923  22.083  14.291  14.843
69631W        W41924  30.960  35.925   3.741
69632W        W41925  31.554  38.939  12.546
69633W        W41926  41.801  31.475   2.278
69634W        W41927  33.966  32.136  14.384
69635W        W41928  13.133  20.161   1.371
69636W        W41929  28.448  10.260   0.430
69637W        W41930  30.537  23.558  11.403
69638W        W41931  21.218  11.733   2.303
69639W        W41932   3.357  37.865  12.044
69640W        W41933  42.819  18.722   1.783
69641W        W41934  10.319  26.486  11.427
69642W        W41935  28.619  16.094   1.925
69643W        W41936  20.039  22.503   4.346
69644W        W41937  22.735  37.026  14.313
69645W        W41938  30.074   5.705  13.036
69646W        W41939  28.517  11.655  14.954
69647W        W41940  13.342  25.189  11.581
69648W        W41941  33.480  43.503   4.116
69649W        W41942  34.578  22.682   3.692
69650W        W41943  38.512  36.092   3.227
69651W        W41944  35.015  30.518   2.804
69652W        W41945  11.169   5.321   1.813
69653W        W41946  20.229   2.363  13.462
69654W        W41947  35.055  29.581   0.268
69655W        W41948  37.088  13.730   3.807
69656W        W41949  38.372  11.199   1.862
69657W        W41950  22.091  12.635   0.870
69658W        W41951  29.005  41.890   1.434
69659W        W41952  27.986  16.186   4.801
69660W        W41953   9.233   7.283  11.000
69661W        W41954  15.711  25.068  11.466
69662W        W41955  43.933  40.868  12.448
69663W        W41956  28.543  33.042  11.090
69664W        W41957  40.937  37.422  12.403
69665W        W41958  27.193   3.287  12.093
69666W        W41959   9.879  10.760  13.980
69667W        W41960  18.236  42.027  14.871
69668W        W41961  13.767  40.915  14.382
69669W        W41962  42.860  17.240   1.876
69670W        W41963   8.288   4.212   1.761
69671W        W41964  22.203   9.795  13.973
69672W        W41965   9.165  33.071  12.579
69673W        W41966  25.140  32.537   4.822
69674W        W41967  38.420   2.240  12.045
69675W        W41968  14.676  13.273  14.409
69676W        W41969  17.724  43.827   4.355
69677W        W41970   7.410   4.796   2.279
69678W        W41971  43.871   7.330  14.832
69679W        W41972  12.180  36.948  10.989
69680W        W41973  36.494  32.071   9.975
69681W        W41974  22.173  13.189   2.387
69682W        W41975  41.025  10.349  12.502
69683W        W41976  43.846  34.116  10.413
69684W        W41977  30.441  35.454  11.856
69685W        W41978  15.793  44.281   2.800
69686W        W41979  15.250  35.552   0.254
69687W        W41980  31.924  27.026   1.902
69688W        W41981   2.732  41.886   2.393
69689W        W41982   1.351  21.669  14.928
69690W        W41983   4.828  15.636  10.619
69691W        W41984  12.200  26.581  12.846
69692W        W41985  10.219  23.624   3.667
69693W        W41986   8.308  12.770  13.945
69694W        W41987  19.162  28.106   4.135
69695W        W41988  44.338   7.262  10.444
69696W        W41989  28.009  34.533  11.899
69697W        W41990  38.063  32.135  13.971
69698W        W41991  27.050  14.261  10.567
69699W        W41992  23.729   9.722  11.510
69700W        W41993  25.689  22.097  11.495
69701W        W41994  42.285   9.820  14.439
69702W        W41995   2.907   3.235  10.556
69703W        W41996  42.803  42.344   0.760
69704W        W41997  20.230  29.119   2.389
69705W        W41998   0.935   7.257   4.750
69706W        W41999  16.626  18.731   3.164
69707W        W42000  21.241   7.241   1.263
69708W        W42001  16.309  26.179   1.240
69709W        W42002   6.732  28.146   3.235
69710W        W42003  15.095  31.571   1.784
69711W        W42004   0.887   7.733   2.368
69712W        W42005  29.038  12.778  12.005
69713W        W42006  37.551   0.875   4.790
69714W        W42007  28.126   7.706   0.907
69715W        W42008  35.919   5.353   0.931
69716W        W42009  33.088  20.041  14.503
69717W        W42010  44.858  22.589   9.924
69718W        W42011  37.468  42.004   5.256
69719W        W42012  19.698  34.086   5.648
69720W        W42013  29.076   3.956  14.411
69721W        W42014   8.655  44.934  14.486
69722W        W42015  30.538  23.207  11.504
69723W        W42016  32.068  24.033  14.487
69724W        W42017  38.491   7.214  12.573
69725W        W42018   9.690  40.490  11.856
69726W        W42019  34.453  19.186   3.302
69727W        W42020  28.541   7.670   1.335
69728W        W42021  29.491  31.921   1.925
69729W        W42022  22.707  16.204  14.972
69730W        W42023   8.358   5.776  11.553
69731W        W42024   7.853  12.650  12.425
69732W        W42025  26.983  38.521  11.540
69733W        W42026  18.289  35.993   3.314
69734W        W42027  34.015  33.097   1.337
69735W        W42028  38.471  22.576  11.407
69736W        W42029   8.656  14.281   0.284
69737W        W42030  31.041  42.967  14.882
69738W        W42031   0.297   5.214  14.952
69739W        W42032  31.646   5.302   3.757
69740W        W42033  43.481  13.633   1.256
69741W        W42034   0.390  10.876  11.521
69742W        W42035   3.944  23.101  13.902
69743W        W42036  26.979  41.410  12.864
69744W        W42037   6.287   7.825   3.850
69745W        W42038  19.074  33.016   2.704
69746W        W42039  24.975  28.468  13.993
69747W        W42040  42.918  23.631  10.421
69748W        W42041  36.067  20.212   1.445
69749W        W42042   9.843  13.653   0.289
69750W        W42043  42.508  14.593  10.570
69751W        W42044   7.796  36.915   3.272
69752W        W42045  14.156  27.632  11.858
69753W        W42046  25.968  10.205   2.847
69754W        W42047   1.879  21.091   0.349
69755W        W42048  40.963  12.282   2.310
69756W        W42049  26.525  38.962  10.464
69757W        W42050  43.384   9.757  13.907
69758W        W42051   6.422  35.601  14.981
69759W        W42052  19.732  34.575   0.852
69760W        W42053  11.213  11.222  11.500
69761W        W42054  17.594   5.696  13.046
69762W        W42055  34.898  30.463  12.430
69763W        W42056   9.683   1.440   3.737
69764W        W42057  22.543  17.258  13.906
69765W        W42058  43.484  36.975   5.750
69766W        W42059  20.113  16.671  14.967
69767W        W42060  35.068  36.389  13.326
69768W        W42061  32.928  26.576   4.687
69769W        W42062   1.853  30.603  14.286
69770W        W42063  22.723   1.445   0.416
69771W        W42064  34.382  40.547   2.328
69772W        W42065  13.640  29.123   4.605
69773W        W42066   6.356   4.738  13.822
69774W        W42067  32.983  39.459  12.863
69775W        W42068  42.409  11.137   0.948
69776W        W42069  41.326  18.144  10.114
69777W        W42070  22.728  21.681   0.395
69778W        W42071  38.035  31.069   0.779
69779W        W42072  22.715  32.983   3.737
69780W        W42073  33.039  34.936   3.161
69781W        W42074  40.975   5.240   2.851
69782W        W42075  29.010  16.215  11.971
69783W        W42076  23.524   0.761  13.845
69784W        W42077   8.265  10.648   1.873
69785W        W42078  29.516   6.302  11.425
69786W        W42079  24.558  23.987  14.348
69787W        W42080  26.079  30.428   1.851
69788W        W42081  34.407  10.671   0.890
69789W        W42082  17.720  29.135  13.401
69790W        W42083  31.629  36.961  12.361
69791W        W42084  39.536  32.062  11.552
69792W        W42085   9.376  10.860  10.461
69793W        W42086   5.373  43.499  12.475
69794W        W42087  15.658   4.345  12.062
69795W        W42088  37.854  10.752   4.640
69796W        W42089   2.845   3.289  11.127
69797W        W42090  30.607  38.906   4.758
69798W        W42091  17.078   9.356  12.928
69799W        W42092  39.337   5.415   2.760
69800W        W42093  41.340  10.372  15.000
69801W        W42094  35.033  28.980  13.923
69802W        W42095  27.620  44.908  11.464
69803W        W42096   0.839  14.140   4.622
69804W        W42097  26.184  36.041  12.575
69805W        W42098  35.867  29.621  11.077
69806W        W42099  27.972  32.424   2.699
69807W        W42100  43.414  28.062   0.782
69808W        W42101  20.661  22.689  13.441
69809W        W42102  41.430  33.083   1.404
69810W        W42103  22.203  37.513  11.014
69811W        W42104  17.687  40.998   0.778
69812W        W42105  32.430  23.708  11.888
69813W        W42106  14.605  25.181  14.839
69814W        W42107  14.185  30.929   1.377
69815W        W42108  43.480  28.570  10.890
69816W        W42109   9.215   9.660   2.687
69817W        W42110   5.880   9.842  12.062
69818W        W42111  13.730  30.490  12.911
69819W        W42112   4.932  23.149  14.021
69820W        W42113  22.651   5.884  13.519
69821W        W42114  11.242   4.700  10.478
69822W        W42115  37.940  32.958   1.755
69823W        W42116  24.679  37.508   4.309
69824W        W42117   5.888   5.690   1.227
69825W        W42118  30.159  13.189  13.935
69826W        W42119  37.049  26.020   0.274
69827W        W42120  28.929  12.314  11.440
69828W        W42121  15.585  10.770  10.986
69829W        W42122  18.114  28.124  11.451
69830W        W42123   6.694   0.492  14.447
69831W        W42124  10.200  34.537   3.266
69832W        W42125  32.429  25.132   0.837
69833W        W42126  39.452  13.805   3.348
69834W        W42127  44.892  43.468   2.216
69835W        W42128  21.120   6.901   4.275
69836W        W42129  15.182   3.226  12.059
69837W        W42130  15.326   2.723  10.614
69838W        W42131  36.407  14.293  11.407
69839W        W42132  19.103  23.593   9.574
69840W        W42133  42.407  38.864   1.770
69841W        W42134  12.711  37.005  10.456
69842W        W42135  36.978  22.609   1.282
69843W        W42136  21.590  27.500  10.419
69844W        W42137   8.868  36.035   3.242
69845W        W42138  31.955  29.081  10.989
69846W        W42139   0.447  23.037   2.211
69847W        W42140  26.072  24.978  11.865
69848W        W42141  20.110  15.213   3.231
69849W        W42142  32.076  11.805  14.021
69850W        W42143  25.132   3.851   2.370
69851W        W42144  17.718  18.148  11.104
69852W        W42145  43.300  40.451   3.212
69853W        W42146  36.531  34.060  12.001
69854W        W42147  19.613   7.704   2.393
69855W        W42148  14.223  39.023   4.746
69856W        W42149  11.247  17.132   1.887
69857W        W42150  23.208  12.732  11.409
69858W        W42151  19.620  30.577  13.924
69859W        W42152  10.338  30.114   0.321
69860W        W42153  16.290  19.103  11.078
69861W        W42154  10.170   3.742   0.877
69862W        W42155   8.681  22.605  13.969
69863W        W42156  22.689  32.124   0.953
69864W        W42157  22.130  21.130   1.276
69865W        W42158   6.376  17.302   0.476
69866W        W42159  11.165  39.952  13.343
69867W        W42160  26.094  12.615  14.003
69868W        W42161   2.959  23.042  11.546
69869W        W42162  24.685   3.767  12.900
69870W        W42163  11.370   8.686   0.872
69871W        W42164  39.431  14.730   1.421
69872W        W42165  20.758  32.590  11.566
69873W        W42166  38.465   8.799   4.333
69874W        W42167  25.612  43.005   2.340
69875W        W42168   0.976  41.906  12.564
69876W        W42169  10.201   2.233   3.301
69877W        W42170  38.349   5.420  11.008
69878W        W42171  34.086   4.327   4.727
69879W        W42172  18.595  37.350  14.878
69880W        W42173   7.359  26.058  13.485
69881W        W42174   5.239  33.608   3.838
69882W        W42175  34.587   2.868  10.981
69883W        W42176  41.025  34.036  11.563
69884W        W42177  11.754   0.346   3.224
69885W        W42178  43.284   7.867  12.563
69886W        W42179  20.712   1.446  14.511
69887W        W42180  19.669  28.632  14.029
69888W        W42181  39.556   9.728  11.459
69889W        W42182  36.481  18.093   0.462
69890W        W42183   9.266  39.863   4.327
69891W        W42184  19.057  33.511   5.109
69892W        W42185   5.223  33.032  14.278
69893W        W42186  20.140  34.531   1.700
69894W        W42187  38.828  22.062   2.674
69895W        W42188  11.313   3.802   4.344
69896W        W42189   0.943   8.386   0.318
69897W        W42190  24.584   2.892   1.332
69898W        W42191  31.549  10.857   5.107
69899W        W42192  16.185  35.022  14.912
69900W        W42193  41.401  29.581  11.591
69901W        W42194  14.718   9.154   0.934
69902W        W42195  25.034  18.128  12.570
69903W        W42196  34.027   9.367  10.543
69904W        W42197  17.726  29.659  10.408
69905W        W42198  41.437  41.967   0.451
69906W        W42199   8.677   0.492  14.353
69907W        W42200   7.885  22.061   0.405
69908W        W42201  16.252  18.701   0.878
69909W        W42202  11.857   9.833   2.288
69910W        W42203  14.200   4.739   3.330
69911W        W42204  35.903  44.368  11.883
69912W        W42205  32.415  35.535  11.017
69913W        W42206   0.398  14.757  12.864
69914W        W42207  32.485  41.311   0.964
69915W        W42208  37.027  25.670   2.359
69916W        W42209  13.220  40.472   2.278
69917W        W42210  22.697   1.770   5.629
69918W        W42211   5.800   3.231   2.316
69919W        W42212  22.521  37.482  11.034
69920W        W42213  37.033   2.788  11.480
69921W        W42214   7.684  34.995   0.950
69922W        W42215   8.170   8.347  10.473
69923W        W42216   7.678  30.045   3.186
69924W        W42217  18.712   0.306   1.383
69925W        W42218  18.234  13.665  14.818
69926W        W42219  32.975   9.735   3.699
69927W        W42220  43.483  43.967   1.366
69928W        W42221   7.834  23.529   1.388
69929W        W42222   2.942  23.193  13.055
69930W        W42223  39.849  37.000  13.468
69931W        W42224  11.205  20.753  11.504
69932W        W42225  39.332   6.742   0.926
69933W        W42226  28.544  40.865  10.907
69934W        W42227  12.225  26.513  12.438
69935W        W42228  34.069  43.784  13.867
69936W        W42229   2.804  11.363   1.393
69937W        W42230  15.807   9.690  10.947
69938W        W42231  15.688  29.642  11.404
69939W        W42232  22.057  24.673   1.414
69940W        W42233  26.512  14.648  10.487
69941W        W42234  12.302  38.363  11.426
69942W        W42235   8.396  19.749   4.331
69943W        W42236  28.054  21.587   0.315
69944W        W42237  15.760   4.317   2.885
69945W        W42238   5.889  11.232  13.948
69946W        W42239  15.677   3.807   9.495
69947W        W42240  33.560  18.187  10.628
69948W        W42241   1.745  23.122  13.950
69949W        W42242  38.448  25.487   1.869
69950W        W42243  41.022  25.652  10.516
69951W        W42244  20.177  16.608   1.435
69952W        W42245  25.663   7.285   1.925
69953W        W42246  27.625   0.837  14.361
69954W        W42247  44.820  37.359   4.241
69955W        W42248  34.440  14.263  14.961
69956W        W42249  41.845   0.348  13.456
69957W        W42250   8.339   4.706   3.374
69958W        W42251  35.531  41.360   0.746
69959W        W42252   9.256  11.839  11.032
69960W        W42253  33.991  44.795   2.797
69961W        W42254  37.925  16.125   1.876
69962W        W42255  38.358  34.078   1.807
69963W        W42256  23.613  33.971  11.426
69964W        W42257   6.358  43.324   4.288
69965W        W42258  26.609  10.318   5.141
69966W        W42259  17.567  44.788   3.387
69967W        W42260  14.123   1.738  11.398
69968W        W42261  38.351  41.498   1.909
69969W        W42262  22.641  29.570  12.524
69970W        W42263  30.646  43.899  12.471
69971W        W42264  24.044  23.686  14.938
69972W        W42265  10.179  32.417  12.487
69973W        W42266  41.989  11.137   2.745
69974W        W42267  16.191  35.529  13.967
69975W        W42268  41.037   4.824  14.782
69976W        W42269  25.686  11.192   0.366
69977W        W42270  41.962  12.119   3.736
69978W        W42271  24.647  22.227   2.817
69979W        W42272   5.197  41.021  11.589
69980W        W42273  41.528  34.416   3.817
69981W        W42274  42.982   8.218  12.443
69982W        W42275   2.858   6.885  13.330
69983W        W42276  39.340  39.420  12.864
69984W        W42277  37.894  22.031   1.843
69985W        W42278   0.353  11.678  12.833
69986W        W42279   0.411  29.133   3.366
69987W        W42280  15.175  42.490  14.440
69988W        W42281  13.188   2.246   2.235
69989W        W42282   7.809  20.592   3.371
69990W        W42283   7.281  10.296   2.684
69991W        W42284   8.794  42.467  12.981
69992W        W42285  43.322  28.626  11.860
69993W        W42286  11.197  19.101  12.086
69994W        W42287   7.729   3.791   1.233
69995W        W42288  41.896   0.946   0.965
69996W        W42289   2.397   9.760   2.719
69997W        W42290  23.084  36.090   1.866
69998W        W42291   4.320   4.905  12.972
69999W        W42292  14.818   9.263  11.527
70000W        W42293  20.685  11.181  12.401
70001W        W42294  26.165  34.091  13.423
70002W        W42295  34.596   1.324  10.539
70003W        W42296   8.785  23.638  10.489
70004W        W42297  32.142  20.111  11.484
70005W        W42298  13.287  29.476  10.531
70006W        W42299   7.320   5.203   1.371
70007W        W42300  19.188  25.642  12.380
70008W        W42301  30.955  10.838   1.896
70009W        W42302   5.284  41.852  13.944
70010W        W42303   7.711   2.285  11.098
70011W        W42304  29.146  16.224  14.880
70012W        W42305   2.783  42.395  11.468
70013W        W42306  20.225  20.710   0.737
70014W        W42307   8.316  13.264   4.291
70015W        W42308  22.123  10.673  12.980
70016W        W42309  27.195  37.021   4.139
70017W        W42310   1.875   3.837   4.682
70018W        W42311  30.446  22.138   3.632
70019W        W42312   0.760  28.669   1.251
70020W        W42313  23.606  42.518  14.015
70021W        W42314  21.132  32.559  14.999
70022W        W42315  33.103   1.451   1.829
70023W        W42316  28.553  24.676   2.306
70024W        W42317  28.553  18.062   3.863
70025W        W42318   0.378  39.812   4.628
70026W        W42319  29.558   1.443  10.945
70027W        W42320  13.641  42.860   3.821
70028W        W42321  20.178  36.065   3.245
70029W        W42322  36.567  36.982  12.349
70030W        W42323  44.756  40.303   3.216
70031W        W42324  10.305  20.726   2.214
70032W        W42325  13.145  43.956  13.502
70033W        W42326  42.828  27.562  14.776
70034W        W42327  25.560  29.984   1.815
70035W        W42328   8.776  38.332  12.342
70036W        W42329  10.208  19.709   3.860
70037W        W42330   8.711  32.415   2.857
70038W        W42331   3.884  20.665  13.521
70039W        W42332  43.336  28.637   0.438
70040W        W42333  40.903  29.972  13.309
70041W        W42334   5.396  33.493  11.595
70042W        W42335  15.685  33.113  13.377
70043W        W42336  40.482  32.618   0.879
70044W        W42337  19.616  37.964   3.313
70045W        W42338   7.217  31.572   2.768
70046W        W42339   0.912  38.014  14.974
70047W        W42340  39.486  14.136  14.015
70048W        W42341  42.819   9.301  14.842
70049W        W42342  25.130  20.166   0.876
70050W        W42343  29.159  33.053  12.924
70051W        W42344  37.568   7.400   4.271
70052W        W42345   3.457   2.377  11.061
70053W        W42346  19.258  43.824  14.929
70054W        W42347  18.783  35.512  13.424
70055W        W42348   6.367  19.206   2.780
70056W        W42349  38.382  35.106   1.372
70057W        W42350  20.219  44.958   4.322
70058W        W42351   7.666  33.417  12.831
70059W        W42352  21.558  23.703  12.940
70060W        W42353   2.869  26.157   4.144
70061W        W42354  29.991   2.853  10.970
70062W        W42355   9.791  40.385  14.493
70063W        W42356   8.894  33.485   0.893
70064W        W42357   4.345   1.853   2.345
70065W        W42358  38.001  35.445  12.357
70066W        W42359  21.086  14.250  10.454
70067W        W42360  14.220  27.049  11.376
70068W        W42361   8.695   1.771   1.931
70069W        W42362  43.379  21.691  13.515
70070W        W42363   4.744  13.745  12.058
70071W        W42364   3.904  17.647   1.321
70072W        W42365  15.308  36.928   2.179
70073W        W42366  16.780   2.805  10.580
70074W        W42367  21.571  40.016   0.325
70075W        W42368   7.698  14.313   0.482
70076W        W42369  14.338  40.046  11.965
70077W        W42370  43.871  44.287   0.834
70078W        W42371   0.953  34.519   0.439
70079W        W42372  31.492  10.832   9.658
70080W        W42373  23.661  24.497  14.771
70081W        W42374   2.806  24.085  10.410
70082W        W42375  34.577  15.708   0.849
70083W        W42376  17.651  34.008   3.209
70084W        W42377  33.459  34.874  12.924
70085W        W42378  12.771  42.366   0.463
70086W        W42379   4.240  33.991  11.582
70087W        W42380  24.176  38.940  10.093
70088W        W42381  15.213   4.734   1.713
70089W        W42382   9.815  21.604  13.003
70090W        W42383  22.596  33.546  14.513
70091W        W42384  26.970  36.381   0.760
70092W        W42385  14.696  13.659  14.345
70093W        W42386   5.890   0.455   1.933
70094W        W42387  23.093  42.383  10.517
70095W        W42388   2.292   1.399   1.445
70096W        W42389  16.130  27.531  14.433
70097W        W42390  36.560  10.691  13.316
70098W        W42391   6.298  31.922   1.831
70099W        W42392  23.621  14.288  12.398
70100W        W42393   1.782  13.711   4.233
70101W        W42394   6.746  35.090   0.300
70102W        W42395   4.412  24.577   3.188
70103W        W42396  29.076  23.195  10.921
70104W        W42397  15.205  33.070  12.903
70105W        W42398  25.125  13.181  13.536
70106W        W42399  28.612  44.856  14.357
70107W        W42400  30.027  10.225   2.192
70108W        W42401   8.689  19.739   0.775
70109W        W42402   8.794   6.714  13.866
70110W        W42403  19.185  32.099  12.868
70111W        W42404  29.631  21.625  12.841
70112W        W42405  28.529  29.075   3.659
70113W        W42406  37.897   6.799   3.800
70114W        W42407  24.053  12.257   1.728
70115W        W42408  20.108  31.463   4.720
70116W        W42409  33.998  16.754   4.342
70117W        W42410  32.467  20.751   3.368
70118W        W42411  17.627  35.551   0.796
70119W        W42412  15.247  26.665   2.742
70120W        W42413  40.928  19.176  14.856
70121W        W42414  34.376  35.432  14.994
70122W        W42415   5.200  13.614   1.244
70123W        W42416  10.323   7.861  11.128
70124W        W42417  40.359  21.746  10.548
70125W        W42418  41.386   3.323   2.353
70126W        W42419   5.251  28.083  13.519
70127W        W42420  13.263  43.370  14.498
70128W        W42421  19.275  24.635  11.567
70129W        W42422  27.981   7.262   0.407
70130W        W42423   9.661  14.664  14.977
70131W        W42424  12.838   1.425  11.076
70132W        W42425  13.137   6.414   1.288
70133W        W42426  16.754  27.525  14.298
70134W        W42427  18.669   2.425  11.408
70135W        W42428   0.313  23.149   4.285
70136W        W42429  14.182  26.645   2.842
70137W        W42430  28.483  11.194  13.326
70138W        W42431   9.805  44.391   3.819
70139W        W42432  31.079  16.103   3.376
70140W        W42433  37.866  12.610   3.697
70141W        W42434   1.283  37.561  13.020
70142W        W42435  34.929  39.521  10.950
70143W        W42436  17.680  18.071   4.620
70144W        W42437  11.657   4.429   2.814
70145W        W42438  38.423  30.416  10.533
70146W        W42439  29.140  23.515  10.082
70147W        W42440  34.414  37.493   4.599
70148W        W42441  18.611  21.241   5.688
70149W        W42442  33.396  28.482   0.908
70150W        W42443  40.415  17.704  10.480
70151W        W42444  38.541  15.135   3.348
70152W        W42445   1.260   1.273   1.883
70153W        W42446  34.379  35.449   1.233
70154W        W42447  37.986  36.384   1.814
70155W        W42448  34.560  43.022   0.418
70156W        W42449  13.841  31.553  13.462
70157W        W42450  21.095  17.159   4.794
70158W        W42451   6.323  27.476  12.868
70159W        W42452  17.717  16.646   2.768
70160W        W42453  20.074   3.792  10.462
70161W        W42454  41.304  10.786   0.283
70162W        W42455  43.900  25.104   3.837
70163W        W42456  31.578  44.504  13.351
70164W        W42457  22.685  12.679   0.808
70165W        W42458  31.956  35.955  11.437
70166W        W42459  37.864  38.356  13.436
70167W        W42460  11.754  14.650   1.920
70168W        W42461  18.648  35.969   4.623
70169W        W42462  38.504  35.069   2.762
70170W        W42463  36.498  43.846  10.464
70171W        W42464   1.792  37.887   5.109
70172W        W42465  26.037  26.534   1.820
70173W        W42466   3.316  39.480  14.029
70174W        W42467  18.564   7.872  10.643
70175W        W42468   9.230  13.114  10.635
70176W        W42469   4.327  28.936  10.634
70177W        W42470  18.650  44.882   3.220
70178W        W42471  25.556  41.942  11.015
70179W        W42472  37.032  12.195  14.290
70180W        W42473   5.722  15.272   4.113
70181W        W42474  37.417  17.219  12.989
70182W        W42475  17.651  30.545   4.648
70183W        W42476   5.386  11.334  13.002
70184W        W42477  14.605   8.242   1.759
70185W        W42478  16.309   8.815  10.610
70186W        W42479  22.237  27.040  13.810
70187W        W42480   7.801  16.633   1.767
70188W        W42481  28.125   3.859   4.323
70189W        W42482  29.113  13.233  12.391
70190W        W42483  28.675   2.808  14.846
70191W        W42484  32.460  35.374  12.440
70192W        W42485  28.185   4.725  14.825
70193W        W42486  22.600   9.649  11.461
70194W        W42487  31.078  19.176  10.593
70195W        W42488   4.436  27.538   3.721
70196W        W42489  20.106   6.208   3.835
70197W        W42490  17.198  29.474   3.242
70198W        W42491  17.590   4.317   4.604
70199W        W42492  10.326  32.908   9.990
70200W        W42493  10.242  30.101   3.186
70201W        W42494  37.374  14.681   3.331
70202W        W42495  17.171  33.521  14.010
70203W        W42496   0.459  42.015  13.426
70204W        W42497  26.147  10.225  14.449
70205W        W42498  41.497  32.514  11.487
70206W        W42499   6.688  11.266   1.814
70207W        W42500  19.613   5.768  11.916
70208W        W42501   7.415   6.206   0.773
70209W        W42502   4.833  20.164  11.928
70210W        W42503  20.190   9.311  14.921
70211W        W42504  40.509  21.077   4.806
70212W        W42505  19.256   7.275  11.085
70213W        W42506  41.342  29.062   0.287
70214W        W42507  20.042  36.576   3.344
70215W        W42508  17.082  35.068   2.790
70216W        W42509  30.580  15.208   0.913
70217W        W42510  30.956   0.803  12.036
70218W        W42511   8.330  40.931   1.252
70219W        W42512   9.860  20.709  13.855
70220W        W42513  32.994   9.169   1.825
70221W        W42514   7.292  42.389  12.990
70222W        W42515  17.246  12.725   2.359
70223W        W42516   2.896   0.427  13.439
70224W        W42517  25.482  13.347  10.634
70225W        W42518  14.674  11.728  14.506
70226W        W42519  18.688  31.134   2.829
70227W        W42520  22.539  31.105  11.985
70228W        W42521  17.660   8.389   2.790
70229W        W42522  31.930  43.317  12.838
70230W        W42523  27.494  13.309  12.855
70231W        W42524  16.315  13.123   1.443
70232W        W42525  36.392  18.239   0.813
70233W        W42526  13.195   9.332   2.874
70234W        W42527   5.234  17.739  11.940
70235W        W42528  37.011  42.520  11.127
70236W        W42529   0.822  14.611  12.433
70237W        W42530  37.940  21.704   3.200
70238W        W42531  13.786  17.737   4.610
70239W        W42532  44.810   0.298   0.832
70240W        W42533  15.800   8.273   3.765
70241W        W42534  19.129  18.650  13.388
70242W        W42535  21.675  33.575  11.506
70243W        W42536  11.650  43.927  14.761
70244W        W42537   8.240  42.989   3.180
70245W        W42538  43.870   8.794   2.179
70246W        W42539  17.121  32.609  14.912
70247W        W42540  12.145   3.890   5.299
70248W        W42541  25.172  37.360   1.378
70249W        W42542  37.835  39.554   3.200
70250W        W42543  17.757   5.697   3.737
70251W        W42544   5.774  27.657   4.169
70252W        W42545  43.333  14.725  13.800
70253W        W42546   9.279  44.273  12.978
70254W        W42547  12.324   0.487  11.969
70255W        W42548  18.681  28.645   3.641
70256W        W42549  26.175  38.477  11.483
70257W        W42550  34.466  19.198  12.846
70258W        W42551  11.851   0.473  13.837
70259W        W42552  12.787  39.055  12.973
70260W        W42553  23.652   6.289  14.482
70261W        W42554  14.599  17.633   2.723
70262W        W42555  35.000   0.746   4.773
70263W        W42556   8.763  33.532  14.822
70264W        W42557   5.313  15.695  13.894
70265W        W42558   7.275  41.405   2.779
70266W        W42559  27.101  41.308  14.921
70267W        W42560  22.232  29.612  13.993
70268W        W42561  22.599  17.797   4.265
70269W        W42562  14.817  10.778  14.932
70270W        W42563  29.568   5.364  14.003
70271W        W42564   8.203  38.563   0.353
70272W        W42565  10.777  42.855   0.437
70273W        W42566   0.970  34.577   1.300
70274W        W42567  12.692  19.693   3.863
70275W        W42568   6.807  12.852   2.250
70276W        W42569  35.933  25.603   3.720
70277W        W42570  14.336   9.704   3.664
70278W        W42571  13.701  29.607  14.326
70279W        W42572  37.913  43.404   4.626
70280W        W42573   5.779  24.529   4.242
70281W        W42574  38.359  37.531   0.448
70282W        W42575  38.453  43.858   2.881
70283W        W42576  12.258  22.071  12.987
70284W        W42577  34.880  15.751   5.268
70285W        W42578  34.552  42.365   0.732
70286W        W42579   8.869  37.377   3.223
70287W        W42580   9.281  16.637   3.312
70288W        W42581   1.433  23.709  11.129
70289W        W42582  38.539  13.148  12.011
70290W        W42583  20.602  37.022  13.928
70291W        W42584  31.568  32.105  14.317
70292W        W42585  35.566  12.177  12.902
70293W        W42586   3.798  17.631   4.670
70294W        W42587  19.673  28.022  14.362
70295W        W42588  16.181  26.195   4.313
70296W        W42589  38.987   5.416   2.387
70297W        W42590  33.892  28.141   4.697
70298W        W42591  32.531  25.579  12.998
70299W        W42592  18.668  12.828  14.361
70300W        W42593  28.473  41.817   3.644
70301W        W42594  34.563  18.708  13.450
70302W        W42595   7.305  18.073  13.001
70303W        W42596   7.291   8.657  12.482
70304W        W42597  17.161  41.991   0.336
70305W        W42598  26.162  34.447  11.526
70306W        W42599  32.961  22.057   3.341
70307W        W42600  32.457  28.599   0.802
70308W        W42601   3.240  11.691   4.114
70309W        W42602  29.983  29.551   1.291
70310W        W42603  42.313  33.058   1.885
70311W        W42604  12.284  24.654   0.356
70312W        W42605   6.830  13.614  12.846
70313W        W42606  18.063  12.711   0.819
70314W        W42607  23.016  12.638  12.940
70315W        W42608  35.932  14.095  14.005
70316W        W42609  21.142  12.754  10.088
70317W        W42610  41.368   5.930  14.820
70318W        W42611   3.307  41.011  11.948
70319W        W42612  12.807   5.328   4.243
70320W        W42613  28.458   6.845  14.782
70321W        W42614  44.978   6.372  12.537
70322W        W42615  39.937  23.061  11.968
70323W        W42616  36.492  13.211   3.173
70324W        W42617  10.772  17.072  11.114
70325W        W42618  25.149  27.563  14.944
70326W        W42619  41.511   5.286   4.737
70327W        W42620   3.808  21.528  12.358
70328W        W42621  12.643  22.183  13.370
70329W        W42622  31.019  21.645  11.507
70330W        W42623   7.329   7.325   0.861
70331W        W42624   5.750  19.044   0.964
70332W        W42625  28.546  24.079   3.667
70333W        W42626  13.615  44.887   3.819
70334W        W42627  32.081  25.177   3.170
70335W        W42628  44.867  37.467  13.861
70336W        W42629  33.081  38.534  10.601
70337W        W42630  19.224   0.400   1.874
70338W        W42631  32.120  25.202   4.292
70339W        W42632   8.871  19.590   2.196
70340W        W42633  34.586  40.984   1.313
70341W        W42634  43.871  27.560  12.484
70342W        W42635   2.232  32.418   1.924
70343W        W42636  33.383  34.592   2.834
70344W        W42637  11.632  40.821   2.723
70345W        W42638  19.197   6.820  13.345
70346W        W42639   2.319   8.343   4.752
70347W        W42640  24.553  21.221  11.558
70348W        W42641   0.470   5.213  12.970
70349W        W42642  16.306  39.832   3.759
70350W        W42643  29.628   7.352   0.401
70351W        W42644  27.638   8.242  12.874
70352W        W42645  34.389   0.346   1.425
70353W        W42646  25.217   1.740  14.359
70354W        W42647  17.179  39.816  13.508
70355W        W42648  29.991  11.795   3.195
70356W        W42649  35.969   1.749   3.168
70357W        W42650   3.407  36.025   1.933
70358W        W42651  34.380   5.777   1.213
70359W        W42652   2.940  21.659   0.839
70360W        W42653  38.370  37.406  10.446
70361W        W42654   4.894  34.092  12.970
70362W        W42655  32.140  20.762  13.526
70363W        W42656  37.420  18.551   2.411
70364W        W42657  12.293  27.517  12.091
70365W        W42658  20.602  34.083   2.893
70366W        W42659  10.655  19.276   2.752
70367W        W42660  37.520  19.569  14.424
70368W        W42661   8.286  44.365   4.122
70369W        W42662  39.879  30.536  10.571
70370W        W42663  30.957  15.588   4.621
70371W        W42664   4.285  37.849   1.788
70372W        W42665  43.918  21.176   0.748
70373W        W42666  10.706  41.526  10.964
70374W        W42667  26.556  34.081   5.203
70375W        W42668  18.675  31.097   3.649
70376W        W42669  12.673  41.992   3.219
70377W        W42670   4.213   8.794   2.672
70378W        W42671  29.514  43.927   3.691
70379W        W42672  28.955  30.581   4.154
70380W        W42673  11.817  32.463  14.512
70381W        W42674  10.677  11.175  11.969
70382W        W42675  25.528  35.396  12.991
70383W        W42676   8.276  14.676  13.410
70384W        W42677   1.393  38.534  11.024
70385W        W42678  43.476  30.922  11.384
70386W        W42679  24.660  35.479   0.745
70387W        W42680  43.475  34.492  12.056
70388W        W42681   5.395  33.901   3.670
70389W        W42682  25.205   7.706  11.456
70390W        W42683  16.801   8.760   2.797
70391W        W42684  21.579   9.339  11.491
70392W        W42685  30.570  26.547   0.937
70393W        W42686  41.955  41.872  13.021
70394W        W42687   9.339  42.310  13.528
70395W        W42688   7.878  16.158  10.608
70396W        W42689  37.058  14.196  14.764
70397W        W42690  37.521  10.286  14.474
70398W        W42691   7.814   6.849   3.634
70399W        W42692  38.052  17.696  13.049
70400W        W42693  42.451  31.618   1.397
70401W        W42694  25.578  28.946   0.776
70402W        W42695  22.639   2.926  10.494
70403W        W42696  33.571   4.782  14.373
70404W        W42697  43.328  31.038   0.406
70405W        W42698  32.435  22.199   2.340
70406W        W42699  25.015  31.951   4.267
70407W        W42700  21.558  26.006   4.266
70408W        W42701  38.367  23.570   4.316
70409W        W42702  29.570  38.507   0.744
70410W        W42703   7.218  33.389   4.643
70411W        W42704  14.728  28.943  13.426
70412W        W42705  42.376  27.569   2.185
70413W        W42706  42.792  20.649  12.530
70414W        W42707  13.787  29.501  11.469
70415W        W42708  41.303  36.998  12.941
70416W        W42709  13.124  29.661   3.326
70417W        W42710  29.156  25.992   4.699
70418W        W42711  43.357  33.083  11.483
70419W        W42712  39.976   6.700   0.736
70420W        W42713  25.209  16.085   2.664
70421W        W42714  43.388  39.064   0.786
70422W        W42715  18.698  21.657   1.906
70423W        W42716  16.082   2.767  12.987
70424W        W42717  37.404  27.613   1.270
70425W        W42718  41.435  23.653  12.823
70426W        W42719  31.519   3.414  10.917
70427W        W42720  44.836  12.767  14.311
70428W        W42721  43.371  27.671   0.885
70429W        W42722   7.315  31.455  13.894
70430W        W42723   3.821  28.506  13.324
70431W        W42724   0.918  40.981   1.438
70432W        W42725  41.343  37.513  13.332
70433W        W42726  32.969  14.151   2.885
70434W        W42727  18.611   5.429   3.750
70435W        W42728  26.970  40.525   2.831
70436W        W42729   6.730  33.610   0.389
70437W        W42730  22.732  23.734  10.587
70438W        W42731  36.898  27.184   3.205
70439W        W42732  29.541   6.737  11.091
70440W        W42733   7.774  10.796   2.313
70441W        W42734   7.889  36.060  11.528
70442W        W42735  11.268  14.816   3.351
70443W        W42736  36.039  17.299  13.992
70444W        W42737  14.179  39.007  11.486
70445W        W42738  42.852  42.884   2.664
70446W        W42739   8.238  39.552  14.813
70447W        W42740  27.520   7.233  11.519
70448W        W42741  34.937   6.880   3.195
70449W        W42742  16.218  38.934   0.282
70450W        W42743  24.105   7.231  12.463
70451W        W42744  25.116  43.935  13.417
70452W        W42745  17.757   6.751   0.961
70453W        W42746  16.579   5.331  14.453
70454W        W42747  17.211  10.224   0.816
70455W        W42748  19.629  34.454   2.705
70456W        W42749  40.813  12.822   0.333
70457W        W42750   6.912  18.200  13.942
70458W        W42751  20.570  11.191   2.701
70459W        W42752   4.700  16.164   3.166
70460W        W42753  36.912  18.081  12.394
70461W        W42754  38.911   1.748  14.900
70462W        W42755  16.771  42.396  14.994
70463W        W42756  27.660  33.479   4.738
70464W        W42757  29.960  20.255  14.420
70465W        W42758  36.455  34.479   3.695
70466W        W42759  29.133  10.820  11.124
70467W        W42760  31.567  17.101   1.819
70468W        W42761  21.152   2.739  14.283
70469W        W42762  43.934  37.466  13.386
70470W        W42763  11.733  40.355   1.249
70471W        W42764   6.203   3.824  13.062
70472W        W42765  23.179  36.530   3.763
70473W        W42766  36.949  21.224  10.466
70474W        W42767  30.140  36.519  10.525
70475W        W42768  23.157  27.518   2.686
70476W        W42769  31.098  44.965  11.047
70477W        W42770  34.044  22.542  14.396
70478W        W42771  17.657   5.421  13.937
70479W        W42772   4.438  12.844   3.196
70480W        W42773   2.270   5.365  14.909
70481W        W42774   9.692  44.352   1.744
70482W        W42775  34.047  39.840  14.762
70483W        W42776  30.116  41.835  12.459
70484W        W42777  38.939  24.990  10.620
70485W        W42778  19.247  12.688  12.484
70486W        W42779  30.975  35.857  13.413
70487W        W42780  20.568   0.745  12.416
70488W        W42781  14.291   9.211  10.429
70489W        W42782   9.841  41.977  13.887
70490W        W42783   7.388   2.848   0.849
70491W        W42784   6.875  19.618  10.488
70492W        W42785   2.902   7.744   2.300
70493W        W42786  13.672   3.808  13.867
70494W        W42787  44.795  28.978  13.008
70495W        W42788  37.933  43.510  11.405
70496W        W42789  34.424  38.377  14.424
70497W        W42790   5.765  40.418   2.190
70498W        W42791  19.564   2.896  13.906
70499W        W42792   8.893  22.697   2.213
70500W        W42793  15.286  30.487  12.403
70501W        W42794  24.548  33.110   1.754
70502W        W42795  24.135  30.163  14.960
70503W        W42796  25.688  23.591  11.522
70504W        W42797  43.971   2.967  11.612
70505W        W42798  44.868   0.765  11.952
70506W        W42799  13.208  23.193  12.544
70507W        W42800  18.757   6.882  10.424
70508W        W42801  24.687  33.915   2.183
70509W        W42802  27.162  28.164   0.322
70510W        W42803  41.531  20.753  14.877
70511W        W42804  23.111  25.497  13.496
70512W        W42805   5.255  27.641  14.368
70513W        W42806  33.876   6.873  14.339
70514W        W42807  19.634  11.669   4.839
70515W        W42808  31.454  22.589  14.387
70516W        W42809   0.410   3.341  10.021
70517W        W42810  24.016   4.829  11.007
70518W        W42811  35.387  16.685  10.482
70519W        W42812   8.814   4.707   0.278
70520W        W42813   7.296  20.648  12.031
70521W        W42814  27.667  26.515  13.976
70522W        W42815  37.923  38.497   1.313
70523W        W42816   8.706  14.313   4.789
70524W        W42817   4.447  41.325   4.688
70525W        W42818  17.080   1.752  11.396
70526W        W42819  17.719   2.818   0.451
70527W        W42820  15.217  24.068   0.893
70528W        W42821   1.242  43.868  11.445
70529W        W42822   6.892  42.502  11.407
70530W        W42823   2.335   6.808  14.475
70531W        W42824  41.358   2.356  14.992
70532W        W42825  36.553  42.378  12.509
70533W        W42826  12.259  44.356  12.352
70534W        W42827  38.499  44.365   4.150
70535W        W42828  27.617  37.508  12.883
70536W        W42829  34.999  25.607   1.252
70537W        W42830  18.603  17.181  12.399
70538W        W42831  19.638  41.511   4.172
70539W        W42832  18.736   5.861   2.871
70540W        W42833   3.338  18.573   0.369
70541W        W42834  17.743  41.352   1.732
70542W        W42835   0.296  28.597   0.866
70543W        W42836  25.696  37.904   0.405
70544W        W42837  22.657   0.451  12.505
70545W        W42838  22.677  31.073   0.317
70546W        W42839  42.410   4.437  11.529
70547W        W42840  32.451   8.252   0.297
70548W        W42841  16.636  10.769  14.762
70549W        W42842   5.385   7.746   2.313
70550W        W42843  36.473  23.653  10.586
70551W        W42844  17.263  37.962  14.828
70552W        W42845  34.989   4.289   1.403
70553W        W42846   9.347  43.362   0.306
70554W        W42847   4.321   2.417  13.952
70555W        W42848  20.035  34.119   2.274
70556W        W42849  20.585   0.417   2.745
70557W        W42850  31.115  26.062  14.992
70558W        W42851  40.912  32.518   4.316
70559W        W42852  25.211  39.352  11.989
70560W        W42853  39.038   9.669   3.282
70561W        W42854  12.325   6.402  10.941
70562W        W42855   7.386  40.919  13.896
70563W        W42856  14.642  19.254  11.076
70564W        W42857  11.701  26.684   9.951
70565W        W42858  34.879  24.169  13.413
70566W        W42859  44.397   7.262   3.778
70567W        W42860  39.536   6.362  12.403
70568W        W42861  42.347  21.091  13.803
70569W        W42862   6.710  18.181  11.045
70570W        W42863  11.669  19.749  13.901
70571W        W42864  10.161   2.227   2.225
70572W        W42865  16.630  10.223   1.898
70573W        W42866   0.948  39.932  10.621
70574W        W42867   0.786   5.426  10.558
70575W        W42868  24.595  38.908  13.858
70576W        W42869   4.230  34.574  12.361
70577W        W42870  11.680  10.690   0.789
70578W        W42871  38.966   1.477   2.684
70579W        W42872   2.409  36.948  14.909
70580W        W42873   6.703  15.171   0.815
70581W        W42874  10.164  42.461  11.905
70582W        W42875   7.299  40.822   1.416
70583W        W42876  28.645  29.059   1.862
70584W        W42877   8.262  18.568  13.426
70585W        W42878  24.524  17.789  12.446
70586W        W42879  20.101   1.785  13.352
70587W        W42880  41.529  17.605   0.948
70588W        W42881  10.651  40.948  12.077
70589W        W42882  31.924   7.365  11.051
70590W        W42883  30.098  17.566   3.653
70591W        W42884  21.052  19.201  11.955
70592W        W42885  26.155   4.849   3.176
70593W        W42886   9.787  29.515  11.446
70594W        W42887  29.662  34.016   4.343
70595W        W42888  39.902  39.528   3.816
70596W        W42889  22.547  23.242  13.895
70597W        W42890  34.576   9.189  10.462
70598W        W42891  32.990  41.496  14.461
70599W        W42892  41.932   9.248   0.391
70600W        W42893   7.176  30.976   4.173
70601W        W42894  38.455  26.963   0.402
70602W        W42895  27.597  17.162   0.871
70603W        W42896  19.760  13.741  10.545
70604W        W42897   2.426   0.903   1.354
70605W        W42898  27.456   9.272   2.776
70606W        W42899  30.578  30.076   1.911
70607W        W42900   4.769  18.226  12.888
70608W        W42901   8.709  34.983  14.405
70609W        W42902  14.796  40.416  14.323
70610W        W42903  35.490  17.737   3.259
70611W        W42904  18.213  35.922   3.798
70612W        W42905   7.372  31.120  11.608
70613W        W42906  43.419  42.909   0.481
70614W        W42907  20.721  39.499  10.506
70615W        W42908  41.040  18.171  13.530
70616W        W42909   6.791  42.476   3.816
70617W        W42910  37.425  33.476   5.311
70618W        W42911  14.596   4.835   4.238
70619W        W42912   6.404  44.450   2.219
70620W        W42913  34.525  16.689   0.958
70621W        W42914  25.523  41.498   4.287
70622W        W42915  26.159  11.159  11.427
70623W        W42916  29.128  19.246   4.141
70624W        W42917   0.385  31.131  12.065
70625W        W42918  32.137  40.916  11.075
70626W        W42919  33.612   0.358   1.395
70627W        W42920  36.366  41.376  11.541
70628W        W42921   2.802  31.121  10.457
70629W        W42922  42.285  38.940   0.326
70630W        W42923  34.567  41.042   0.244
70631W        W42924  17.181  22.048  11.431
70632W        W42925  24.602   6.388   4.738
70633W        W42926  39.435   7.372   2.185
70634W        W42927  30.936  24.551  14.998
70635W        W42928  27.966  33.985  12.366
70636W        W42929  27.037  13.629   3.203
70637W        W42930  10.845  24.145  13.468
70638W        W42931   9.371  31.906  14.283
70639W        W42932  10.834  12.346  11.097
70640W        W42933  13.609  39.868  12.846
70641W        W42934   9.886  13.778  11.418
70642W        W42935  23.010   5.870  12.837
70643W        W42936  18.266  21.137  10.029
70644W        W42937  28.112  27.595   3.342
70645W        W42938   4.861  31.638   3.714
70646W        W42939  30.156  29.635   3.684
70647W        W42940  35.598  32.549  12.055
70648W        W42941  18.606  39.929  13.543
70649W        W42942   0.912  18.093   0.747
70650W        W42943  35.563  11.127   1.314
70651W        W42944  27.011  29.499  14.410
70652W        W42945  11.710   0.378  10.889
70653W        W42946  28.996  17.757  11.101
70654W        W42947  16.705   1.462  10.530
70655W        W42948  25.204  43.481  12.940
70656W        W42949  25.536   1.263  12.069
70657W        W42950  38.420  21.541   3.357
70658W        W42951  12.677  26.037   2.662
70659W        W42952  33.921  35.103  11.508
70660W        W42953  17.180  28.673   3.289
70661W        W42954  31.613  27.110  12.426
70662W        W42955   5.738  38.363   3.258
70663W        W42956  33.062  26.998   4.712
70664W        W42957  32.613  33.427   1.861
70665W        W42958   6.903  43.311  10.468
70666W        W42959  39.924  22.701  11.007
70667W        W42960  10.715  37.907   3.218
70668W        W42961  24.063  19.053   0.911
70669W        W42962  19.661  28.145   3.670
70670W        W42963  26.165  14.277   3.294
70671W        W42964   0.273  44.346   0.867
70672W        W42965  19.739  24.506  11.564
70673W        W42966  30.494  16.767  12.447
70674W        W42967  31.040  43.842   3.654
70675W        W42968  34.609  11.827  12.961
70676W        W42969  19.057  17.578  14.470
70677W        W42970  12.259  19.142   2.766
70678W        W42971  14.097  14.779   4.753
70679W        W42972  26.165  43.894   2.226
70680W        W42973  27.076  10.353   2.278
70681W        W42974   2.243  43.498  11.006
70682W        W42975   1.467  26.147   1.394
70683W        W42976  18.715   3.733  11.500
70684W        W42977  12.723  30.050   0.879
70685W        W42978  34.387  43.302   4.185
70686W        W42979  41.805  19.586   4.777
70687W        W42980  20.150  35.956   2.767
70688W        W42981  12.725  17.071  12.351
70689W        W42982  19.703  33.445   4.224
70690W        W42983  28.041   3.259  10.889
70691W        W42984  20.092  35.485   3.653
70692W        W42985  41.033  13.721  14.318
70693W        W42986  41.336  37.487   2.305
70694W        W42987  31.998  26.505   2.196
70695W        W42988  15.253  36.489  11.994
70696W        W42989  29.010  12.215   3.708
70697W        W42990   7.212  37.968   2.194
70698W        W42991  36.573  23.674   0.878
70699W        W42992   8.766  25.655  11.523
70700W        W42993  41.797  35.399  13.848
70701W        W42994  40.880  19.247  12.990
70702W        W42995  32.031   9.751  11.035
70703W        W42996  11.172  38.530  13.926
70704W        W42997  27.113  26.126   1.745
70705W        W42998  11.254  17.687  14.354
70706W        W42999   0.325  22.193  14.287
70707W        W43000  18.546  31.540   5.682
70708W        W43001  25.519  44.005   0.355
70709W        W43002  28.480   8.810  12.869
70710W        W43003   2.409  12.825   1.753
70711W        W43004  21.629  39.061   2.403
70712W        W43005  23.198   2.831  12.964
70713W        W43006  19.646  41.438   3.827
70714W        W43007  21.584  15.679   0.469
70715W        W43008  25.581  32.911  14.895
70716W        W43009  37.469  13.788   2.887
70717W        W43010   6.920  25.108  10.461
70718W        W43011   5.205   4.734  10.440
70719W        W43012  23.121   8.788   2.724
70720W        W43013  29.511  42.508  10.991
70721W        W43014  38.424  23.186  10.411
70722W        W43015  36.579   8.357   1.772
70723W        W43016   8.830  17.183  14.004
70724W        W43017  40.848  40.537   3.820
70725W        W43018   9.322   4.289   2.703
70726W        W43019  36.386  26.587   2.269
70727W        W43020  20.669   3.313  13.540
70728W        W43021  31.578  31.033   1.703
70729W        W43022  37.474  32.593   3.178
70730W        W43023  35.859   0.418  14.867
70731W        W43024  36.449   7.902   3.157
70732W        W43025  42.964  30.120  14.275
70733W        W43026  32.998  20.572  12.358
70734W        W43027  34.109  21.128  14.353
70735W        W43028  31.008   5.246   3.752
70736W        W43029  39.838   1.330   3.173
70737W        W43030  14.620  23.133  13.523
70738W        W43031  21.235  42.493   5.248
70739W        W43032  34.008  40.869  11.127
70740W        W43033  38.891  16.684   1.329
70741W        W43034  33.542  29.478   9.919
70742W        W43035  27.577  14.238  14.433
70743W        W43036   6.295  38.980  11.459
70744W        W43037  14.209  43.810   4.345
70745W        W43038  22.668  39.834  13.469
70746W        W43039  20.043  19.772  11.117
70747W        W43040   9.385  29.930  13.952
70748W        W43041   6.388  28.976   2.219
70749W        W43042  13.158  26.563  13.430
70750W        W43043  33.425  11.653  14.342
70751W        W43044  10.834  11.832   4.806
70752W        W43045   1.325   4.835   2.327
70753W        W43046  13.698  26.139  11.561
70754W        W43047  41.840  38.959   4.771
70755W        W43048   0.388  24.202  13.358
70756W        W43049  31.914  32.994  10.995
70757W        W43050  41.457  25.112   0.381
70758W        W43051  22.011  33.998  14.908
70759W        W43052   1.824   3.944  11.613
70760W        W43053  22.523  31.150   2.662
70761W        W43054  25.988  19.196  11.392
70762W        W43055   4.418  30.485  11.484
70763W        W43056  43.281  31.530  13.505
70764W        W43057   9.357  28.440   2.691
70765W        W43058   6.326   5.731  11.480
70766W        W43059  40.368   3.361   4.723
70767W        W43060  20.641  10.362  11.023
70768W        W43061  38.474  38.075   3.292
70769W        W43062  29.427  22.132  12.890
70770W        W43063  11.673  16.757  10.643
70771W        W43064  20.538  42.798   3.836
70772W        W43065  42.924  28.678   1.900
70773W        W43066  44.956  36.024   2.763
70774W        W43067  29.019  28.057  14.374
70775W        W43068  43.991  17.768   4.350
70776W        W43069  14.590  28.969   1.781
70777W        W43070   1.361  24.680  11.032
70778W        W43071  26.652  43.849  12.386
70779W        W43072   1.893  38.384  12.977
70780W        W43073  40.494  24.150  13.051
70781W        W43074  24.586  30.599   4.307
70782W        W43075  32.108  27.971   3.810
70783W        W43076   8.846  23.621  12.501
70784W        W43077   9.364   1.960  12.925
70785W        W43078  31.477   2.372   3.744
70786W        W43079   1.833   1.439  14.411
70787W        W43080  30.467   7.361   4.181
70788W        W43081  37.390  38.072   2.373
70789W        W43082  39.485   0.396   4.807
70790W        W43083   8.741  31.501  12.517
70791W        W43084  40.344  37.452  12.983
70792W        W43085  43.377  15.318   2.251
70793W        W43086   9.376  41.294   0.895
70794W        W43087  10.706   5.809  13.536
70795W        W43088  26.118  23.664   3.711
70796W        W43089  35.058  39.909   5.313
70797W        W43090  43.329  12.732  11.058
70798W        W43091  15.329  30.509   1.358
70799W        W43092  15.290  25.527  10.585
70800W        W43093   7.731  22.212  12.917
70801W        W43094  14.709  41.332  13.793
70802W        W43095  11.153  41.379  11.929
70803W        W43096  44.898  31.981  14.308
70804W        W43097   7.303  29.647  13.051
70805W        W43098  42.338   1.240   3.380
70806W        W43099  20.140   4.372  10.527
70807W        W43100  39.546  40.859  11.124
70808W        W43101  26.179  35.956   3.168
70809W        W43102  21.549   3.426   3.793
70810W        W43103   7.687  24.700   1.859
70811W        W43104   0.857  42.408  12.578
70812W        W43105  19.206   5.335  11.993
70813W        W43106  44.287  17.746   1.410
70814W        W43107   9.315  44.390  11.048
70815W        W43108   7.208  27.008   3.369
70816W        W43109  22.511  40.877  11.939
70817W        W43110  31.081  44.925  13.494
70818W        W43111  11.676   2.325   0.450
70819W        W43112   7.861  32.513   4.209
70820W        W43113  28.004  38.344  10.416
70821W        W43114  28.643  15.144  11.984
70822W        W43115  33.382  25.036   2.859
70823W        W43116  23.551  28.940   2.853
70824W        W43117  17.723  23.732   5.676
70825W        W43118  26.043  14.639   1.269
70826W        W43119  16.274  10.703  10.641
70827W        W43120  43.422  17.590   0.816
70828W        W43121  36.876  28.581   1.897
70829W        W43122   8.298   4.706  12.943
70830W        W43123  23.589  15.712  11.408
70831W        W43124  15.801  36.885   3.384
70832W        W43125  36.990  20.231   3.344
70833W        W43126   8.771  19.087  12.856
70834W        W43127   6.767   5.340   1.222
70835W        W43128  13.602  44.314  12.018
70836W        W43129   6.687  12.294  11.459
70837W        W43130   9.838  32.126   0.939
70838W        W43131  24.152  13.674  10.449
70839W        W43132  42.980  44.896   3.233
70840W        W43133  35.387   3.245  13.872
70841W        W43134   3.251  39.826   1.916
70842W        W43135  11.309  43.796  12.574
70843W        W43136  30.009   6.250   2.402
70844W        W43137   8.807  24.169  13.916
70845W        W43138  24.197  25.587  11.591
70846W        W43139  25.551   6.854   1.391
70847W        W43140   9.866  29.970  11.960
70848W        W43141  17.787  28.166   3.176
70849W        W43142  17.226  38.021  14.346
70850W        W43143  35.985  34.406  12.498
70851W        W43144  27.622  22.227  13.821
70852W        W43145  17.749   7.316   2.793
70853W        W43146  36.376  19.248   1.734
70854W        W43147  21.512  36.013  12.507
70855W        W43148  24.542  35.440   1.881
70856W        W43149  18.676  32.512   1.927
70857W        W43150  42.944  27.154  13.499
70858W        W43151  31.988  23.711   2.871
70859W        W43152  13.774  18.759   1.769
70860W        W43153  33.512  31.051  13.906
70861W        W43154  25.000  30.060   4.137
70862W        W43155  34.480  22.052   4.322
70863W        W43156   7.385  29.601   4.189
70864W        W43157   1.946   2.876  12.426
70865W        W43158  44.307   1.908  12.577
70866W        W43159   6.894  28.657   4.336
70867W        W43160   7.748   4.378  14.763
70868W        W43161  22.591  18.122  12.444
70869W        W43162   0.923  13.191  14.896
70870W        W43163  26.623  19.769   0.865
70871W        W43164  32.394   4.900   3.689
70872W        W43165  26.529  23.574   4.645
70873W        W43166  44.482  23.033   1.348
70874W        W43167  22.656  14.747  12.557
70875W        W43168   1.414  11.269  13.505
70876W        W43169  35.476  16.074  10.478
70877W        W43170  23.524  31.940  14.356
70878W        W43171   2.452  41.837  14.420
70879W        W43172  29.426   3.349   5.106
70880W        W43173  44.997   1.820   4.325
70881W        W43174  25.696   6.185   2.410
70882W        W43175  31.431  18.660  10.528
70883W        W43176  25.006   4.786   2.326
70884W        W43177  10.276  19.261  13.012
70885W        W43178  10.829   9.788  11.571
70886W        W43179  15.718  44.972  11.941
70887W        W43180  14.807  41.809  14.943
70888W        W43181  12.683   2.279  12.824
70889W        W43182  41.538  20.175   1.800
70890W        W43183  33.891  44.907   0.905
70891W        W43184   8.847  27.466  12.433
70892W        W43185   7.737  17.624   1.870
70893W        W43186   6.325   6.921  14.293
70894W        W43187  24.193  10.372   3.833
70895W        W43188   5.224  19.184   2.758
70896W        W43189  31.095  30.528   1.878
70897W        W43190   8.856   3.741   4.261
70898W        W43191  17.698  32.476   2.859
70899W        W43192  16.683  10.209   0.920
70900W        W43193   4.356  12.174   3.296
70901W        W43194  25.066  18.689   4.227
70902W        W43195   8.190  39.003   4.197
70903W        W43196  44.490  16.608  13.425
70904W        W43197   3.899  24.602   3.804
70905W        W43198   1.976  10.384   4.340
70906W        W43199  33.499  34.454  12.085
70907W        W43200  30.940   7.771   2.795
70908W        W43201  25.161  29.539   2.342
70909W        W43202   1.396  40.443  12.458
70910W        W43203   6.336  18.152  13.887
70911W        W43204   9.770  31.581  10.563
70912W        W43205  27.657  24.110   3.814
70913W        W43206  34.981  25.651  13.857
70914W        W43207  38.407  33.121  13.365
70915W        W43208  20.150  19.777  14.318
70916W        W43209  34.994  21.046  14.511
70917W        W43210  37.442  12.194   1.739
70918W        W43211  31.064  26.999  12.504
70919W        W43212  36.362  14.165   3.310
70920W        W43213  40.825  29.593   3.153
70921W        W43214  36.001  14.199   4.818
70922W        W43215   9.855   6.381   1.694
70923W        W43216  16.647   9.225  13.040
70924W        W43217  16.151  10.329  13.813
70925W        W43218  18.756  31.058   5.298
70926W        W43219  29.504  33.106  10.510
70927W        W43220  17.628   8.853   0.766
70928W        W43221  25.992  30.961   3.703
70929W        W43222  41.503  16.205  14.466
70930W        W43223  10.286  22.599   2.348
70931W        W43224  37.435  30.040   3.852
70932W        W43225  28.072  44.418   3.689
70933W        W43226  18.068  28.471   2.676
70934W        W43227   5.760  43.911  12.982
70935W        W43228  28.560  32.470   3.154
70936W        W43229  12.733   1.849  10.941
70937W        W43230   0.361  14.095  11.539
70938W        W43231  10.223  16.287  14.306
70939W        W43232  33.563   4.360  10.601
70940W        W43233  40.945  31.091  11.445
70941W        W43234  35.478  15.306   3.332
70942W        W43235  17.084  27.523  10.628
70943W        W43236  40.923  33.460  14.987
70944W        W43237  18.217  22.509  14.990
70945W        W43238  25.649   9.181  12.933
70946W        W43239  42.479   2.802  11.040
70947W        W43240  35.035  36.375  11.460
70948W        W43241   9.214  33.919   4.686
70949W        W43242  32.969  43.391   0.917
70950W        W43243   3.748  28.011   0.872
70951W        W43244  26.980  24.982   5.237
70952W        W43245  38.956  32.072   3.675
70953W        W43246   0.922  27.625  10.917
70954W        W43247   0.413  12.321   1.888
70955W        W43248  12.348  40.533   3.181
70956W        W43249  21.026  43.794   2.781
70957W        W43250  42.956  21.022   3.729
70958W        W43251   0.343   5.282  13.989
70959W        W43252  20.731  40.359  14.974
70960W        W43253  44.443  41.405  13.916
70961W        W43254  31.490  36.529  10.521
70962W        W43255   6.708  37.372   3.770
70963W        W43256  18.060  14.603   3.862
70964W        W43257  36.577  12.254  10.970
70965W        W43258  37.374  26.096  11.417
70966W        W43259  25.620  27.029   0.919
70967W        W43260   8.707  14.736   0.308
70968W        W43261  36.358  26.689   4.155
70969W        W43262  10.730  27.182  12.483
70970W        W43263  29.074   5.433   1.417
70971W        W43264  16.592  28.673  11.038
70972W        W43265   2.742   0.262   2.390
70973W        W43266  39.503  40.978   1.313
70974W        W43267  44.438  15.707   2.767
70975W        W43268  27.191  44.835   4.267
70976W        W43269  42.316  43.889   2.721
70977W        W43270  39.491  18.692  11.049
70978W        W43271   3.858  25.488   0.336
70979W        W43272  12.711  34.428   2.694
70980W        W43273  28.476  17.194  11.560
70981W        W43274  12.203  24.057   4.122
70982W        W43275   5.889  19.770   2.257
70983W        W43276   3.281  42.819  13.853
70984W        W43277  17.754   3.754  12.909
70985W        W43278   9.865  31.464  14.286
70986W        W43279  17.098  25.595  14.957
70987W        W43280  39.544  19.129   2.788
70988W        W43281  12.611  24.716  12.079
70989W        W43282  21.076  29.641   0.248
70990W        W43283  23.576  42.406  14.393
70991W        W43284   8.885  12.747  14.949
70992W        W43285  21.161  28.114   2.340
70993W        W43286   6.403  30.112   0.284
70994W        W43287   8.182   0.985   4.121
70995W        W43288  16.798  29.096  12.376
70996W        W43289   6.247   8.164  10.497
70997W        W43290  30.081  15.172   4.643
70998W        W43291  30.524   1.853   3.844
70999W        W43292  32.581  13.209   1.753
71000W        W43293  10.836  16.806   3.304
71001W        W43294  42.487  19.689   2.378
71002W        W43295  37.926  16.257  10.956
71003W        W43296  33.061  43.931   3.711
71004W        W43297  24.007  10.867   2.738
71005W        W43298  15.593  35.499  12.978
71006W        W43299   8.298  15.096  12.528
71007W        W43300   7.227  25.514   0.865
71008W        W43301  28.541  31.636  14.319
71009W        W43302  39.057  21.750  11.037
71010W        W43303  15.784  26.181   1.445
71011W        W43304  42.344   1.883   3.209
71012W        W43305  12.246  33.423   0.463
71013W        W43306  18.137  22.595  13.991
71014W        W43307  39.855  23.576   2.866
71015W        W43308  42.304   1.426   1.729
71016W        W43309  37.995  12.847   4.771
71017W        W43310   2.296  27.979   0.369
71018W        W43311  28.170   0.310  13.898
71019W        W43312  44.449  43.453   1.767
71020W        W43313  31.547  33.981   1.790
71021W        W43314  30.070  16.720   1.820
71022W        W43315  12.679  24.151  14.506
71023W        W43316   7.366  11.805  12.904
71024W        W43317  29.530  17.147   4.192
71025W        W43318  42.962  19.588   2.215
71026W        W43319  36.025  15.158  14.858
71027W        W43320  35.036  14.322  13.056
71028W        W43321  27.653   8.691   0.294
71029W        W43322  15.728  28.054   4.157
71030W        W43323   7.775  41.449   3.809
71031W        W43324  41.395  38.049  13.445
71032W        W43325  24.229   0.792   0.747
71033W        W43326   5.707  37.056   1.738
71034W        W43327  17.061   7.694   2.267
71035W        W43328  34.897  14.158  12.354
71036W        W43329  38.370  21.513  14.942
71037W        W43330  35.380  34.872   3.377
71038W        W43331  20.090  43.388  12.024
71039W        W43332  29.940  14.675   1.342
71040W        W43333   0.472  13.788  13.973
71041W        W43334   9.667  29.157  11.857
71042W        W43335   8.308  14.270  13.993
71043W        W43336  41.419  10.347   2.797
71044W        W43337  37.495   4.780   3.326
71045W        W43338  37.948   0.272   0.923
71046W        W43339  40.879  39.993   1.238
71047W        W43340   5.389  13.746   0.729
71048W        W43341  42.886  32.020  11.594
71049W        W43342  31.087  20.092   3.362
71050W        W43343   3.755  15.295  14.860
71051W        W43344   6.317  30.601   1.851
71052W        W43345  10.239  11.143  12.574
71053W        W43346   1.947  20.047   1.764
71054W        W43347  20.127   7.754   3.170
71055W        W43348  32.484  41.419  13.042
71056W        W43349  29.946  22.006   2.238
71057W        W43350  22.058  35.926  10.533
71058W        W43351  23.104  17.576  11.461
71059W        W43352  20.755   9.767  12.374
71060W        W43353  14.736  14.248  14.930
71061W        W43354  13.150  40.901  12.006
71062W        W43355  31.609  39.855  13.427
71063W        W43356  40.452   9.678  10.504
71064W        W43357  15.682  11.734   2.774
71065W        W43358  22.025  16.265  12.067
71066W        W43359   0.413   3.764  11.486
71067W        W43360   4.291  42.524  12.938
71068W        W43361   2.454  24.101   1.347
71069W        W43362  40.915  21.616   3.192
71070W        W43363   3.892  12.814   2.743
71071W        W43364  17.153  23.097  12.558
71072W        W43365  31.055   9.657  12.451
71073W        W43366  30.940   7.761  13.027
71074W        W43367  43.842  43.000  14.798
71075W        W43368  44.477  35.947  10.966
71076W        W43369  22.600  33.424  12.912
71077W        W43370  34.953  43.368  10.486
71078W        W43371   5.430  17.171  12.095
71079W        W43372   4.284  14.626   3.200
71080W        W43373   8.289  21.156  14.398
71081W        W43374  23.049   4.302  12.348
71082W        W43375  39.982  11.324   0.358
71083W        W43376  41.011  30.450  13.361
71084W        W43377  11.268  38.843   1.365
71085W        W43378   0.488  34.967  10.510
71086W        W43379  24.525  21.124  14.789
71087W        W43380   9.699  35.436   9.943
71088W        W43381   3.262  41.934  11.927
71089W        W43382  31.090  32.127   3.208
71090W        W43383   4.933  18.681  14.002
71091W        W43384  34.441  20.090  12.050
71092W        W43385  29.075  39.323   3.804
71093W        W43386  33.914   2.847  13.053
71094W        W43387  19.116  37.580  13.843
71095W        W43388  39.553  21.105   4.775
71096W        W43389  41.922  43.775  13.345
71097W        W43390  14.818   5.829   3.234
71098W        W43391  43.459  26.039  10.644
71099W        W43392   7.217   6.251   5.242
71100W        W43393   6.848  30.954   1.854
71101W        W43394   3.236  27.622  14.971
71102W        W43395   8.168  41.294  14.411
71103W        W43396   5.372  33.400  10.042
71104W        W43397  38.340  28.599   3.252
71105W        W43398  44.947  30.952   1.897
71106W        W43399  19.595   0.833  12.408
71107W        W43400   3.305   3.289  12.014
71108W        W43401  18.194  25.174  10.905
71109W        W43402  41.905  32.915  13.863
71110W        W43403  42.781  15.231  13.468
71111W        W43404  38.364  19.732   1.388
71112W        W43405  27.559  30.090   0.914
71113W        W43406  41.964   0.982   4.615
71114W        W43407  22.108  11.337  11.400
71115W        W43408  14.714   4.248  13.509
71116W        W43409  25.566  16.763  11.938
71117W        W43410   3.369  12.276  10.517
71118W        W43411   5.691  38.525  11.955
71119W        W43412  44.992   0.977  14.341
71120W        W43413   4.749  34.556  11.496
71121W        W43414  22.249  23.043  12.026
71122W        W43415   8.748   2.394   4.216
71123W        W43416  17.191  18.208   3.195
71124W        W43417  10.243   3.384   2.881
71125W        W43418   5.238  38.975  14.481
71126W        W43419  37.432  18.091   1.889
71127W        W43420  13.796  41.945   3.156
71128W        W43421  42.408   8.291  13.943
71129W        W43422  43.370  25.585   0.299
71130W        W43423  15.288   4.381   9.614
71131W        W43424  25.666  12.846  13.890
71132W        W43425  42.888   1.432   2.863
71133W        W43426   1.275  22.537   2.239
71134W        W43427  39.826  10.242  12.036
71135W        W43428  31.501  42.396   0.809
71136W        W43429  22.212  31.966   4.143
71137W        W43430  16.566  10.278   0.310
71138W        W43431   4.427  44.934  11.503
71139W        W43432  10.249  10.140  12.340
71140W        W43433  11.360   6.886  12.862
71141W        W43434  28.957  39.955  11.470
71142W        W43435  12.173  12.141   4.610
71143W        W43436  16.807  20.561  10.527
71144W        W43437  32.964  32.910  12.516
71145W        W43438   7.805   3.955   3.739
71146W        W43439  32.974   9.851  12.442
71147W        W43440  13.132  10.381   3.238
71148W        W43441   9.693  37.059   2.749
71149W        W43442   0.354  33.986  11.399
71150W        W43443  14.672   0.900  13.456
71151W        W43444  17.093  30.044   4.157
71152W        W43445  30.442  15.213   0.448
71153W        W43446   0.946  14.801  13.951
71154W        W43447  30.454  16.296   1.379
71155W        W43448  28.490  19.072  14.372
71156W        W43449  33.479  21.228   2.222
71157W        W43450  20.202  39.419  12.575
71158W        W43451  31.631  44.773  13.934
71159W        W43452   3.907  44.000   2.712
71160W        W43453   2.396   6.846   3.350
71161W        W43454  11.771  37.522   5.189
71162W        W43455  19.177  21.562   4.722
71163W        W43456  33.026  25.625   4.298
71164W        W43457  21.692  24.664  13.352
71165W        W43458  30.917   1.762   2.862
71166W        W43459  22.080  36.957   0.449
71167W        W43460   8.388  36.462  14.433
71168W        W43461  30.061  26.000  10.599
71169W        W43462  41.442   5.334  12.855
71170W        W43463  14.819   7.800   3.635
71171W        W43464  26.545  36.547  12.062
71172W        W43465  12.688  11.178  11.936
71173W        W43466   9.195  37.968  12.409
71174W        W43467  26.676  33.040   2.264
71175W        W43468   7.259  36.043   4.270
71176W        W43469  43.997   8.299   3.365
71177W        W43470  29.501  41.536   1.424
71178W        W43471   2.793  10.836  11.591
71179W        W43472   5.347   6.370  14.893
71180W        W43473  39.927  39.845  13.510
71181W        W43474   7.192   1.311   4.114
71182W        W43475  35.595   2.847   4.748
71183W        W43476  32.970  10.253  14.329
71184W        W43477  40.395  20.040  11.023
71185W        W43478  22.528  27.681  11.373
71186W        W43479  32.481  16.673  13.391
71187W        W43480   4.246   3.373  12.532
71188W        W43481  38.333  19.047   0.276
71189W        W43482  18.220  35.919   1.278
71190W        W43483  40.049  30.137  10.909
71191W        W43484  13.268  32.111   2.399
71192W        W43485  23.690  29.602  12.432
71193W        W43486   5.927  26.170  12.395
71194W        W43487  25.538  16.276  13.854
71195W        W43488  27.526   5.920   2.710
71196W        W43489  22.577  17.102  10.455
71197W        W43490  13.129  40.909   1.380
71198W        W43491  23.186  27.691   3.728
71199W        W43492  39.916  25.027   3.677
71200W        W43493   6.886  42.851  12.381
71201W        W43494   4.910   6.863  11.397
71202W        W43495  15.143  19.104   2.398
71203W        W43496  37.453  41.942   4.135
71204W        W43497  42.957  25.526   1.312
71205W        W43498  39.053  22.250   4.769
71206W        W43499  34.065  27.143  10.473
71207W        W43500  26.554  31.415  11.519
71208W        W43501   4.401  10.785  14.418
71209W        W43502  30.002   2.962  13.991
71210W        W43503  25.183  37.956  14.018
71211W        W43504  38.932  43.484   4.132
71212W        W43505   1.348   0.802  11.507
71213W        W43506   0.314  29.061  14.827
71214W        W43507  24.699   5.418   4.203
71215W        W43508  23.170   4.259   0.891
71216W        W43509  33.986  40.379   4.802
71217W        W43510  32.033  14.618  10.541
71218W        W43511  35.532  24.521  13.062
71219W        W43512  10.841  14.117  12.479
71220W        W43513  26.499  11.740  11.391
71221W        W43514   2.449  41.938  13.512
71222W        W43515  28.519  32.972  12.448
71223W        W43516  38.335   2.314   3.787
71224W        W43517  14.604  13.167   0.798
71225W        W43518   4.450   9.376  11.386
71226W        W43519  20.531  33.480   0.936
71227W        W43520  21.709  43.420  12.405
71228W        W43521  25.514  36.903   0.859
71229W        W43522  27.672  16.118   1.323
71230W        W43523  24.685  29.536   1.796
71231W        W43524  39.408   8.280  11.091
71232W        W43525  39.887  26.198   0.766
71233W        W43526   2.821  24.541   0.402
71234W        W43527   1.365   7.821  10.442
71235W        W43528  33.097  18.545   1.799
71236W        W43529  30.119  33.938  10.994
71237W        W43530  27.125   4.710  13.389
71238W        W43531  19.085  41.301  14.385
71239W        W43532  29.923  16.149   2.689
71240W        W43533  13.675  17.612   1.245
71241W        W43534  26.539   9.744  13.396
71242W        W43535  11.342  11.866   0.819
71243W        W43536  27.620  20.710  13.946
71244W        W43537  16.091  44.446   4.760
71245W        W43538  12.667  10.766   0.471
71246W        W43539   2.778  29.484   0.822
71247W        W43540  42.896   1.853   3.308
71248W        W43541  40.881  34.412   3.173
71249W        W43542  23.717   8.759   0.255
71250W        W43543  37.574  11.823  13.986
71251W        W43544  36.477  21.625   4.231
71252W        W43545   5.252   9.830   2.392
71253W        W43546   5.388  16.702  11.016
71254W        W43547  30.414  25.628  10.474
71255W        W43548  32.411  36.434  11.925
71256W        W43549  13.178  22.228   3.829
71257W        W43550  40.349  19.623   4.676
71258W        W43551  11.307  42.796  14.766
71259W        W43552  25.494  14.310   3.809
71260W        W43553   4.261   8.186   1.374
71261W        W43554  20.144  19.157  12.414
71262W        W43555  28.567  20.760   2.359
71263W        W43556  44.978  11.333   0.335
71264W        W43557  36.513  31.421   0.847
71265W        W43558   1.443  17.086  12.057
71266W        W43559  27.596  16.304  13.790
71267W        W43560  27.016  27.092  13.328
71268W        W43561  11.680   5.769  13.323
71269W        W43562  30.580   6.873  14.419
71270W        W43563  34.383   8.385   2.693
71271W        W43564  44.422  10.308   0.928
71272W        W43565  35.985  39.519   1.347
71273W        W43566   6.854  17.576   1.791
71274W        W43567  24.636  30.070   0.916
71275W        W43568  30.424   1.819   4.117
71276W        W43569   7.345  32.119  14.303
71277W        W43570  11.770  44.801   2.732
71278W        W43571  30.497  26.127  10.416
71279W        W43572  23.716  31.057  14.816
71280W        W43573  42.809  10.831   4.122
71281W        W43574  15.735  41.881   2.213
71282W        W43575  19.697  23.649  10.478
71283W        W43576  20.080  34.066   9.516
71284W        W43577   0.297  21.218   1.817
71285W        W43578  30.982  29.133   2.846
71286W        W43579  24.586  11.227   3.245
71287W        W43580  21.644   3.288   1.376
71288W        W43581  16.712   9.702  11.974
71289W        W43582   6.881  38.042   4.232
71290W        W43583   5.365  10.877   2.766
71291W        W43584  35.385  16.750   1.432
71292W        W43585  44.812  17.185   4.708
71293W        W43586  13.263  34.404   3.747
71294W        W43587   9.288  42.489   3.670
71295W        W43588   6.323  30.479   0.439
71296W        W43589  26.593  21.654  11.505
71297W        W43590  13.761  16.595  12.399
71298W        W43591   6.190  42.010  11.926
71299W        W43592  43.782  41.821  10.518
71300W        W43593   3.923  15.715  10.002
71301W        W43594  31.503  10.255  14.388
71302W        W43595  19.758  26.499  14.859
71303W        W43596  10.691  42.781  13.034
71304W        W43597  22.505   7.388   3.148
71305W        W43598  36.065   9.720  13.940
71306W        W43599  30.946  32.490   2.241
71307W        W43600  29.049  27.966  13.883
71308W        W43601  27.463   1.747   2.798
71309W        W43602  12.149   5.274   3.304
71310W        W43603  39.550  11.694  10.434
71311W        W43604  38.446  24.570   2.885
71312W        W43605  25.588  44.913  11.878
71313W        W43606  35.079  33.960   1.229
71314W        W43607  34.902  14.109   3.270
71315W        W43608  27.519  10.808  13.335
71316W        W43609   7.294   0.483  14.938
71317W        W43610   3.773  31.580   3.332
71318W        W43611  35.441  36.452  11.037
71319W        W43612  31.531   3.882   3.786
71320W        W43613   6.760   2.826   4.747
71321W        W43614  27.529   2.264   4.131
71322W        W43615  19.098  24.164   3.828
71323W        W43616   0.830  14.286   9.928
71324W        W43617  44.325  31.574  11.104
71325W        W43618  31.619  10.856   2.750
71326W        W43619   4.256   8.842   4.837
71327W        W43620   6.216  44.907  11.546
71328W        W43621  42.425  22.039  11.440
71329W        W43622   4.253  24.549   3.781
71330W        W43623  39.899  44.443  13.942
71331W        W43624   9.871  23.144  11.049
71332W        W43625   6.382   7.763  14.957
71333W        W43626  21.101  20.575  10.567
71334W        W43627  28.553  25.703   2.819
71335W        W43628  24.202  13.282  14.438
71336W        W43629  35.417  28.023   4.766
71337W        W43630  15.716  31.517   1.763
71338W        W43631   3.828   2.881  14.329
71339W        W43632  44.267  41.428   0.811
71340W        W43633  30.476  43.397   2.391
71341W        W43634  28.675  28.646  13.805
71342W        W43635  38.455   3.444   3.848
71343W        W43636  15.095  17.274   1.797
71344W        W43637  22.642  25.202  10.497
71345W        W43638  34.402  17.152   3.853
71346W        W43639  39.003  42.357  11.595
71347W        W43640  24.655  37.384  14.405
71348W        W43641   7.360  44.468   4.158
71349W        W43642  16.250   5.362   2.718
71350W        W43643  24.583  15.620   2.691
71351W        W43644  31.064  36.967   2.202
71352W        W43645   6.863  20.539  13.047
71353W        W43646  41.886  17.199  11.380
71354W        W43647  36.456  21.164   1.387
71355W        W43648   3.443   6.388  13.905
71356W        W43649  41.863   1.749  13.350
71357W        W43650   5.223  43.813  10.450
71358W        W43651  27.951   2.423  11.981
71359W        W43652  18.709   0.961   2.772
71360W        W43653  24.171  19.258   4.716
71361W        W43654  44.857  34.878  13.531
71362W        W43655  18.226  29.001  13.405
71363W        W43656   9.821  11.790  10.539
71364W        W43657  14.312  20.689  14.979
71365W        W43658  26.179   1.456   2.196
71366W        W43659  42.016  30.123   1.791
71367W        W43660   2.862  34.933  11.551
71368W        W43661  16.715   5.838  12.414
71369W        W43662  41.834  14.210   2.215
71370W        W43663  37.862   9.770   0.294
71371W        W43664  40.834  35.883  13.006
71372W        W43665  43.392  10.363  14.443
71373W        W43666  26.585   9.259   2.841
71374W        W43667   5.820  28.126   0.767
71375W        W43668  41.538   9.867   4.271
71376W        W43669  38.867  34.483   0.740
71377W        W43670  14.107   8.199   0.848
71378W        W43671   1.848  22.170  10.524
71379W        W43672  33.495  11.246  12.069
71380W        W43673  33.019   4.274  13.848
71381W        W43674  15.797  18.718   3.200
71382W        W43675  40.381  37.574  14.317
71383W        W43676   5.717  36.941  10.598
71384W        W43677  35.495  15.595  14.938
71385W        W43678   5.407  22.639   1.414
71386W        W43679  20.738  21.751  12.847
71387W        W43680  43.022  42.386   4.692
71388W        W43681   4.374  18.125  13.989
71389W        W43682  11.748  42.805  11.009
71390W        W43683  34.051   1.375   0.782
71391W        W43684  34.879  28.668   2.400
71392W        W43685   4.371  12.350  14.309
71393W        W43686   2.272  11.281  11.513
71394W        W43687   0.306  24.581  13.864
71395W        W43688   7.196   5.863   3.339
71396W        W43689   6.298  31.627  12.349
71397W        W43690  13.232   6.823  13.989
71398W        W43691  23.734   5.901  11.906
71399W        W43692   5.751  14.247   0.316
71400W        W43693  17.707  38.543  12.432
71401W        W43694  43.270  39.999   5.131
71402W        W43695  44.276  34.406  12.494
71403W        W43696  38.954  39.844  11.426
71404W        W43697  11.337   2.268   1.425
71405W        W43698   4.261  37.865  12.398
71406W        W43699   4.847  15.318   1.763
71407W        W43700  17.263  35.366   2.732
71408W        W43701  39.916  44.943  10.968
71409W        W43702  31.618  13.713   3.647
71410W        W43703  31.045  38.063  11.557
71411W        W43704  25.125  36.064  12.537
71412W        W43705  19.720  29.604   3.820
71413W        W43706   7.208  33.516   4.262
71414W        W43707  18.275  13.264  11.037
71415W        W43708   6.384  19.180  14.972
71416W        W43709  21.109  28.034  11.375
71417W        W43710   6.845  18.715   4.690
71418W        W43711   4.817  44.367  11.046
71419W        W43712  11.253  44.786   3.205
71420W        W43713  22.231   0.341  13.841
71421W        W43714  24.028  40.453  14.967
71422W        W43715  16.579  19.052   4.129
71423W        W43716  10.690  27.665   4.296
71424W        W43717  34.519   6.847   2.750
71425W        W43718  17.775  36.096   1.214
71426W        W43719  17.182  33.493   2.695
71427W        W43720  34.032  21.144   0.254
71428W        W43721  35.411  33.040  14.411
71429W        W43722  15.325  30.046   0.421
71430W        W43723  39.870  44.961  14.760
71431W        W43724  16.566  25.602   1.935
71432W        W43725  26.650  10.191   1.770
71433W        W43726  28.036   3.763   2.852
71434W        W43727  15.758  13.789   2.756
71435W        W43728   4.847  26.969   2.879
71436W        W43729   3.796  10.691   0.323
71437W        W43730   9.678  18.633   1.921
71438W        W43731   9.282  44.927   2.209
71439W        W43732  33.040   3.831  13.018
71440W        W43733  17.105  18.158  11.995
71441W        W43734  19.715  26.189   4.210
71442W        W43735  33.411  25.043   3.692
71443W        W43736  22.239  33.625  10.560
71444W        W43737  32.929  23.673   1.712
71445W        W43738  37.033   4.436   3.235
71446W        W43739  37.992  24.186   2.308
71447W        W43740  33.928   4.327  12.892
71448W        W43741  33.558  29.446  14.023
71449W        W43742  35.402  33.544  10.901
71450W        W43743  23.656   3.912   2.784
71451W        W43744  38.970   4.224  12.074
71452W        W43745  15.704  22.248   0.336
71453W        W43746  36.349  44.773   0.247
71454W        W43747  25.185  12.305   4.239
71455W        W43748  18.773   8.172  12.536
71456W        W43749  13.602  37.534   3.332
71457W        W43750  30.637  25.649   2.688
71458W        W43751  27.653  40.007  10.601
71459W        W43752   2.839  25.101  11.424
71460W        W43753   2.798  26.603  12.397
71461W        W43754  24.182  11.865  13.054
71462W        W43755  42.391  34.614   3.783
71463W        W43756  29.924  39.539  14.781
71464W        W43757  38.420  43.932  11.931
71465W        W43758  17.739  24.582  12.454
71466W        W43759  18.195  21.657   4.311
71467W        W43760  29.026  30.098  13.406
71468W        W43761  18.246  19.677   0.927
71469W        W43762  13.286  35.435   0.813
71470W        W43763  26.951  35.470   4.211
71471W        W43764  31.111   9.233   4.119
71472W        W43765  30.086   0.747  12.380
71473W        W43766   4.404   0.363   0.306
71474W        W43767  19.085  43.900   3.303
71475W        W43768  37.409  13.331  10.406
71476W        W43769  35.405  28.447  13.819
71477W        W43770  26.640  25.089   1.931
71478W        W43771  28.577   1.266   4.621
71479W        W43772  25.055   2.271   4.743
71480W        W43773  25.084  16.600  14.867
71481W        W43774   0.784  13.715  12.884
71482W        W43775  10.357  24.053   3.327
71483W        W43776  36.403  27.996   0.771
71484W        W43777  26.132   4.703   0.889
71485W        W43778   6.288   8.772   5.110
71486W        W43779  36.557  14.125  14.759
71487W        W43780   0.446   0.259  12.443
71488W        W43781  18.088  31.130  14.874
71489W        W43782  11.686   8.399   4.685
71490W        W43783  15.630  34.584  12.052
71491W        W43784  41.794  23.035   3.637
71492W        W43785  34.010   2.751   1.801
71493W        W43786  34.963  14.157   2.223
71494W        W43787  20.633   6.280  13.893
71495W        W43788   0.368   9.260  11.570
71496W        W43789  14.210   7.272  14.368
71497W        W43790  34.520  17.089  13.957
71498W        W43791  36.925   3.234  11.385
71499W        W43792  28.629  44.840  14.926
71500W        W43793  12.328  17.589   2.735
71501W        W43794   1.307   2.831  10.559
71502W        W43795  12.285  41.500   4.274
71503W        W43796  34.372  42.302   1.926
71504W        W43797   5.741   8.690   1.736
71505W        W43798   4.747  28.162  10.900
71506W        W43799  15.218  21.231  13.511
71507W        W43800  16.189  24.539   3.365
71508W        W43801  39.536   5.297   0.750
71509W        W43802   9.861  38.510  11.025
71510W        W43803  37.860   8.870   1.793
71511W        W43804   5.736  34.892  11.529
71512W        W43805   4.225  26.186  11.052
71513W        W43806   3.848  16.777   3.692
71514W        W43807  14.739  42.919  11.398
71515W        W43808  14.280  11.164  14.821
71516W        W43809  37.562  10.686   2.724
71517W        W43810  18.650  40.051  12.349
71518W        W43811  35.533  33.404   2.675
71519W        W43812  20.580   2.839   3.229
71520W        W43813   2.471  32.018   0.471
71521W        W43814  15.148  18.623  14.833
71522W        W43815  11.695  27.499  14.765
71523W        W43816  28.052  32.094  12.532
71524W        W43817   3.332  14.649   1.753
71525W        W43818   5.330  27.487  13.355
71526W        W43819  42.345  14.807   1.307
71527W        W43820  36.350  22.168  14.855
71528W        W43821  41.810  26.573   1.900
71529W        W43822  44.006  38.329  13.915
71530W        W43823  36.873  26.009   3.768
71531W        W43824  11.649  16.213  14.953
71532W        W43825  40.507  30.541   0.372
71533W        W43826  36.915  29.998   0.755
71534W        W43827   3.738  44.343  12.520
71535W        W43828  30.613  21.665  10.903
71536W        W43829  30.578  43.375   1.806
71537W        W43830  29.031  13.347  13.893
71538W        W43831  16.715  33.993  10.995
71539W        W43832  13.294  39.454  10.403
71540W        W43833  10.340  19.542   2.294
71541W        W43834  43.290  14.740   0.469
71542W        W43835  36.375  37.582  11.609
71543W        W43836  44.395  27.477  10.588
71544W        W43837   7.802  32.111  14.340
71545W        W43838  17.188  44.778  14.464
71546W        W43839   7.295  43.772  13.331
71547W        W43840  12.768  33.399   2.265
71548W        W43841  27.066  29.586  13.507
71549W        W43842  34.057   9.351  11.084
71550W        W43843  15.099  23.016  14.013
71551W        W43844   1.772  37.450  11.922
71552W        W43845  44.867  34.037   1.325
71553W        W43846   3.301  36.555   5.292
71554W        W43847  35.574  41.397   4.171
71555W        W43848  31.920  44.868  12.567
71556W        W43849  14.270   5.818   2.899
71557W        W43850  22.666   9.314   4.787
71558W        W43851  39.005  25.187  13.796
71559W        W43852   2.454  18.281  14.027
71560W        W43853  31.434   1.812   1.428
71561W        W43854   0.959  34.520   5.154
71562W        W43855  34.049  34.936   4.820
71563W        W43856  44.753  43.480  10.571
71564W        W43857  33.947  26.094   2.758
71565W        W43858  42.521   9.674   3.736
71566W        W43859  30.561  24.065   4.767
71567W        W43860  20.054   6.417   0.258
71568W        W43861  20.228  19.275   3.854
71569W        W43862  42.305  19.119   0.374
71570W        W43863  12.677  42.460  12.360
71571W        W43864   5.406  36.436  12.556
71572W        W43865   9.231  18.209  13.489
71573W        W43866  30.069   0.822  13.793
71574W        W43867  42.828  38.857   5.122
71575W        W43868  32.971   9.842  14.501
71576W        W43869  13.258  38.947  12.386
71577W        W43870   4.352  21.549   0.811
71578W        W43871   4.754  31.067  13.826
71579W        W43872  29.670  31.453   2.777
71580W        W43873  31.601  20.647   3.339
71581W        W43874   3.455  32.580  13.971
71582W        W43875  35.588   0.813  14.322
71583W        W43876  37.505  30.602  10.041
71584W        W43877  44.902  28.661   3.745
71585W        W43878  24.186  23.058   4.830
71586W        W43879   6.844   3.294   1.411
71587W        W43880  42.286   9.304   1.876
71588W        W43881   6.385  12.840   1.350
71589W        W43882  15.290   2.227   9.659
71590W        W43883   7.377  17.205   2.727
71591W        W43884  35.983  38.061   2.387
71592W        W43885   0.462  33.018  12.063
71593W        W43886  25.512  43.493  11.549
71594W        W43887  14.827  10.823   3.218
71595W        W43888  39.911  37.882   4.244
71596W        W43889  22.690   1.914  14.307
71597W        W43890  30.652  29.984  14.791
71598W        W43891   5.932  26.120  14.911
71599W        W43892  23.540   5.429  13.377
71600W        W43893  28.182  34.996   3.330
71601W        W43894  27.651  34.998  14.363
71602W        W43895  42.453   4.895   2.840
71603W        W43896  11.190  27.450  13.455
71604W        W43897  38.500   4.806   1.307
71605W        W43898  28.464  27.056  11.032
71606W        W43899  42.390  29.540   0.879
71607W        W43900  14.771  39.509  11.933
71608W        W43901   2.862  21.563   4.624
71609W        W43902  13.285  33.521  10.429
71610W        W43903   0.910   3.394   0.467
71611W        W43904  10.760   2.962  13.048
71612W        W43905  30.422  25.650   3.183
71613W        W43906  11.812  26.173   4.212
71614W        W43907  28.590  38.888   0.765
71615W        W43908  14.147   8.194   0.287
71616W        W43909  39.429  26.701  10.569
71617W        W43910   8.741  28.470  14.441
71618W        W43911  37.039  33.432  11.442
71619W        W43912  13.656   4.810   0.444
71620W        W43913  41.531  38.489  10.890
71621W        W43914  36.029  24.032   1.934
71622W        W43915  41.865   3.280  13.802
71623W        W43916  25.617  26.056  12.479
71624W        W43917  39.421  32.628   3.286
71625W        W43918  12.209  20.223  12.021
71626W        W43919  39.008  39.852   2.806
71627W        W43920  29.995  36.387   2.718
71628W        W43921  28.984  15.618  13.343
71629W        W43922   0.494  26.955  14.950
71630W        W43923  37.959  11.266   4.687
71631W        W43924  42.983   9.386   5.097
71632W        W43925  13.760   4.431  10.524
71633W        W43926  41.492  15.691  12.355
71634W        W43927  35.388   3.324   1.346
71635W        W43928   0.325  35.571  14.971
71636W        W43929  27.644   6.742   3.205
71637W        W43930  28.148  38.955  12.838
71638W        W43931   7.749  34.907  11.895
71639W        W43932   5.747  15.178  10.905
71640W        W43933  34.447  40.011   0.445
71641W        W43934  13.752  17.293  11.542
71642W        W43935  23.224  18.555  10.479
71643W        W43936  28.016  26.496  14.505
71644W        W43937  34.869  25.171  13.448
71645W        W43938  38.555  41.386   3.155
71646W        W43939  16.277  23.714   4.231
71647W        W43940  12.164   5.332   3.838
71648W        W43941  33.486  28.173   0.335
71649W        W43942   2.231  32.092  13.881
71650W        W43943  17.258  14.806   4.687
71651W        W43944  38.400  39.533  10.463
71652W        W43945   5.420   4.923   4.781
71653W        W43946  23.217  11.692   4.345
71654W        W43947  39.407  42.440  11.610
71655W        W43948  44.307  37.410   0.438
71656W        W43949  10.156  38.441  10.890
71657W        W43950  22.708  11.136  13.959
71658W        W43951  20.645  37.035   0.434
71659W        W43952  21.752  32.574  14.950
71660W        W43953   4.815  37.446   1.346
71661W        W43954   3.388   9.714  12.828
71662W        W43955   1.741  29.623   1.706
71663W        W43956  24.691   6.745   3.194
71664W        W43957   5.707   2.293  12.833
71665W        W43958  15.722  24.492   3.732
71666W        W43959   7.389   7.297   4.329
71667W        W43960  31.954   8.183   2.389
71668W        W43961  14.764  36.051  12.387
71669W        W43962  17.170   6.676  12.516
71670W        W43963  19.563  33.543  14.472
71671W        W43964  28.633   6.723   4.233
71672W        W43965   2.927  37.868   0.466
71673W        W43966  38.385   2.882  12.342
71674W        W43967   2.879  43.787   4.750
71675W        W43968  31.539  13.725  11.957
71676W        W43969  26.114  25.631  14.940
71677W        W43970  12.856   5.438   4.645
71678W        W43971  25.104  28.438   1.279
71679W        W43972   8.235   2.359   3.326
71680W        W43973   6.883   5.905  12.010
71681W        W43974   4.319   4.831   4.299
71682W        W43975  37.909   2.380  12.046
71683W        W43976   3.861  38.547  10.509
71684W        W43977   7.716   4.903  12.571
71685W        W43978   2.883  44.437  11.969
71686W        W43979  28.167  29.962   0.901
71687W        W43980   7.170  43.887   2.788
71688W        W43981   5.844  29.601   2.400
71689W        W43982   4.716  16.726  11.124
71690W        W43983  42.896   7.324   2.891
71691W        W43984  33.457  10.814  10.560
71692W        W43985  35.887  24.129  10.576
71693W        W43986   9.734   8.718   2.272
71694W        W43987  14.819  43.836  12.502
71695W        W43988   2.235  30.963  13.441
71696W        W43989  29.643  22.611   9.927
71697W        W43990   5.828  37.834   2.236
71698W        W43991   9.732   3.352   3.733
71699W        W43992   0.875  21.556  12.345
71700W        W43993  41.417  28.647   0.264
71701W        W43994   5.850   9.177   0.959
71702W        W43995  24.212  15.237  14.410
71703W        W43996  11.809  11.838  12.532
71704W        W43997  25.472  21.185   3.218
71705W        W43998  38.017   5.332   0.831
71706W        W43999  18.622  27.628  10.533
71707W        W44000  34.985   8.834  11.567
71708W        W44001  39.537  17.208  13.497
71709W        W44002  15.191  18.180   0.453
71710W        W44003  43.860  25.010   1.757
71711W        W44004  34.554  33.510   2.255
71712W        W44005  10.211  12.652  12.072
71713W        W44006   4.873  28.516   1.248
71714W        W44007  20.190   9.843   4.752
71715W        W44008  43.769   9.226   0.835
71716W        W44009  25.531  17.263  13.060
71717W        W44010  13.165  39.386   0.789
71718W        W44011   0.817  13.829  14.498
71719W        W44012   3.290  37.070   3.678
71720W        W44013   8.663  30.476   4.695
71721W        W44014  25.063   0.439  11.903
71722W        W44015   2.359  22.151  10.490
71723W        W44016  38.376   7.177  10.960
71724W        W44017  10.235  29.557  13.362
71725W        W44018  12.137  28.678   1.856
71726W        W44019   7.667  22.640   4.318
71727W        W44020  30.514   7.376   3.298
71728W        W44021  42.334   2.924   0.478
71729W        W44022  13.749  26.546  12.517
71730W        W44023  21.135  20.743  13.877
71731W        W44024   8.893  22.178  12.348
71732W        W44025  20.061   7.380   1.865
71733W        W44026  29.586  22.156  14.918
71734W        W44027   6.210  21.751   2.354
71735W        W44028  19.600  36.001  12.929
71736W        W44029  27.673  37.938  14.974
71737W        W44030  39.033   2.768  10.626
71738W        W44031   4.278  26.507   2.235
71739W        W44032  23.545   7.230   2.837
71740W        W44033  27.486  18.059   3.767
71741W        W44034  16.090  25.690  11.585
71742W        W44035  36.056  16.669   2.316
71743W        W44036  26.014  31.146   4.334
71744W        W44037   1.404  17.634  10.528
71745W        W44038   6.818  19.631   2.271
71746W        W44039  43.862  43.866  12.020
71747W        W44040  31.534  20.561   0.416
71748W        W44041  27.014  29.664   3.282
71749W        W44042  18.606  12.656  10.585
71750W        W44043  42.031  32.476   3.631
71751W        W44044  24.092   7.372   1.934
71752W        W44045  40.809   9.668  13.336
71753W        W44046  42.361  40.875   2.375
71754W        W44047  41.042  22.572   2.896
71755W        W44048  43.390  15.288  14.864
71756W        W44049  10.866  33.506   0.860
71757W        W44050  15.749  24.528   5.189
71758W        W44051   4.773  43.796  12.893
71759W        W44052  24.602  14.689   2.356
71760W        W44053  25.165  20.037   3.650
71761W        W44054  28.533  23.693   2.389
71762W        W44055  27.624  28.099  11.394
71763W        W44056  24.623  44.374  10.552
71764W        W44057  17.066   3.779   0.259
71765W        W44058  11.630   8.698  10.996
71766W        W44059  40.953   6.872  11.886
71767W        W44060   6.868  11.360   0.296
71768W        W44061  27.162  15.738  12.879
71769W        W44062  34.011  35.901   0.896
71770W        W44063  21.609  10.148   2.747
71771W        W44064   1.823  21.194  12.486
71772W        W44065  18.688  36.477   2.737
71773W        W44066  20.638  24.564  11.487
71774W        W44067  43.822  40.479  12.372
71775W        W44068   5.431   7.678  14.307
71776W        W44069  32.390  29.014   3.366
71777W        W44070  12.646  19.710  10.903
71778W        W44071  40.810  19.051   4.681
71779W        W44072  18.697   9.299   3.341
71780W        W44073  27.065  16.217   4.780
71781W        W44074  30.516  39.481  12.578
71782W        W44075   5.416  15.582   4.727
71783W        W44076  28.934  23.057  11.453
71784W        W44077  42.011  10.693   4.200
71785W        W44078   9.174  44.936  14.839
71786W        W44079  41.886   6.369   4.620
71787W        W44080  32.081   7.883   2.761
71788W        W44081  42.883  10.826   2.407
71789W        W44082  15.218   1.830  14.412
71790W        W44083  38.076  29.106  12.567
71791W        W44084  23.143  15.609   1.767
71792W        W44085  13.137   7.399   1.884
71793W        W44086  42.022  32.573  13.912
71794W        W44087  37.031  20.631  14.459
71795W        W44088  33.080  27.486  12.058
71796W        W44089   4.768  44.468  13.062
71797W        W44090  28.450  25.212   2.216
71798W        W44091  17.151   4.209  13.508
71799W        W44092  11.175  29.156  13.461
71800W        W44093   3.412  14.338  14.500
71801W        W44094  27.578  42.485  14.402
71802W        W44095   3.772  32.597  11.427
71803W        W44096  44.429  28.940   3.705
71804W        W44097   1.399   8.794  14.774
71805W        W44098   1.796  14.690  13.910
71806W        W44099  16.593  31.945   2.416
71807W        W44100  19.731  16.143  12.510
71808W        W44101  10.325   4.768  11.941
71809W        W44102  24.144  11.656   0.760
71810W        W44103  23.186  30.613   0.887
71811W        W44104  29.117  15.776   0.732
71812W        W44105   3.282  33.124   1.866
71813W        W44106  19.744  21.603   5.176
71814W        W44107   8.350  18.639   3.280
71815W        W44108   4.209  42.789  12.940
71816W        W44109  15.820  24.993  14.281
71817W        W44110   7.878  33.006   3.662
71818W        W44111   4.699  25.586  14.999
71819W        W44112   0.775  37.469   5.199
71820W        W44113   3.718  26.503  14.973
71821W        W44114  44.847  40.385   1.806
71822W        W44115  31.069  12.734   4.302
71823W        W44116  32.015   2.227  11.493
71824W        W44117  28.929  17.192  14.473
71825W        W44118  38.392  24.496   3.705
71826W        W44119  11.258  12.255  11.884
71827W        W44120  24.205  18.263  13.356
71828W        W44121  42.903  22.570  11.406
71829W        W44122   0.455  17.126   3.850
71830W        W44123  10.645  22.116   3.709
71831W        W44124  37.075  25.088  12.452
71832W        W44125  30.005  32.984  11.008
71833W        W44126  34.395   2.797   4.263
71834W        W44127   2.461  11.321   1.406
71835W        W44128  22.040  21.057  13.427
71836W        W44129  32.990  41.370  12.977
71837W        W44130  16.708   0.271  13.056
71838W        W44131  29.633   9.884   4.199
71839W        W44132  30.569  22.642  10.945
71840W        W44133  15.166  11.687   2.893
71841W        W44134  24.536   6.855  11.015
71842W        W44135   9.739  20.625   2.328
71843W        W44136  30.565   9.376   1.422
71844W        W44137  32.916  11.218  11.050
71845W        W44138  32.133  34.902  12.539
71846W        W44139  29.445  23.687  13.446
71847W        W44140  23.512  33.479   3.262
71848W        W44141  41.435  37.480   0.804
71849W        W44142  30.533  25.595   2.375
71850W        W44143   9.157   1.818  10.066
71851W        W44144  37.046  42.957   0.353
71852W        W44145  34.019  43.883   3.316
71853W        W44146   4.899  38.346   0.952
71854W        W44147   5.930  44.814   2.227
71855W        W44148  37.433  32.115  10.014
71856W        W44149  14.830  39.984   3.299
71857W        W44150  41.368  18.196  13.931
71858W        W44151  19.149   6.706   4.308
71859W        W44152  27.679  25.478  10.639
71860W        W44153  36.924  25.157  10.925
71861W        W44154  19.117  44.384  11.588
71862W        W44155  16.144  38.927  10.031
71863W        W44156  23.075  18.236  10.938
71864W        W44157   8.770  22.129  14.413
71865W        W44158  10.296  21.513  11.015
71866W        W44159   4.812   5.270   0.372
71867W        W44160  31.573  11.302  13.481
71868W        W44161  20.758  21.096  12.882
71869W        W44162   5.327  19.548  12.466
71870W        W44163  34.864  29.479  10.509
71871W        W44164  23.233  28.444  11.552
71872W        W44165  23.632  16.150  12.367
71873W        W44166  18.627  26.148   0.884
71874W        W44167  21.581  38.518  13.916
71875W        W44168  14.319  28.074  12.342
71876W        W44169  20.240  38.392   0.874
71877W        W44170  22.513  28.094  12.882
71878W        W44171  21.156  28.933   3.336
71879W        W44172  40.325   6.732   1.449
71880W        W44173  25.474  10.214  13.457
71881W        W44174  27.020   0.421  13.409
71882W        W44175  41.413  44.812   2.668
71883W        W44176  15.633  31.465  14.805
71884W        W44177  29.620  33.984  12.848
71885W        W44178  35.563  14.695   3.760
71886W        W44179  33.477   8.386   3.803
71887W        W44180   1.381  12.644  13.906
71888W        W44181  16.727  34.425   1.803
71889W        W44182   9.701  11.310   3.350
71890W        W44183  38.989  38.386   5.143
71891W        W44184  39.344  13.643  11.974
71892W        W44185  37.856  22.119   2.213
71893W        W44186  43.274  11.637   4.195
71894W        W44187  17.592  16.579   2.188
71895W        W44188  39.491  10.194  11.097
71896W        W44189   2.294  28.005  10.489
71897W        W44190  22.671   1.881  10.632
71898W        W44191  17.164  12.656  13.453
71899W        W44192  26.043  22.511   4.138
71900W        W44193  12.226  35.502  13.310
71901W        W44194  16.755  17.801  11.999
71902W        W44195  20.062  36.573   1.728
71903W        W44196   5.756  44.415   1.440
71904W        W44197  14.619  38.852  11.061
71905W        W44198  38.875  33.967   1.918
71906W        W44199  21.109  44.889   0.827
71907W        W44200  38.483  29.929   3.795
71908W        W44201  19.612  17.231   2.207
71909W        W44202   2.948   9.870  12.839
71910W        W44203  32.622  13.644  12.450
71911W        W44204  38.019  39.442   2.383
71912W        W44205  21.086  39.444  10.549
71913W        W44206   7.346  23.057   0.755
71914W        W44207  33.581  33.571   0.822
71915W        W44208  25.572  35.903   2.887
71916W        W44209  32.614  25.152   2.230
71917W        W44210   8.776   5.303  10.938
71918W        W44211  24.162  26.036  12.442
71919W        W44212  31.928   3.251  11.013
71920W        W44213  40.981  25.155  10.981
71921W        W44214  38.929  26.620  10.513
71922W        W44215  27.497  40.992  14.765
71923W        W44216  34.446  11.174  11.371
71924W        W44217   2.356  19.730   4.272
71925W        W44218  19.272  23.596   1.250
71926W        W44219  30.538  12.767  11.526
71927W        W44220  21.571  21.093   4.214
71928W        W44221  33.917  34.065  14.503
71929W        W44222   2.368  36.415  13.322
71930W        W44223  14.741  35.856   3.705
71931W        W44224  30.532   2.428   0.302
71932W        W44225  29.097  44.270  10.522
71933W        W44226   0.320  16.770  14.450
71934W        W44227  28.455  34.528  10.911
71935W        W44228  29.434  41.419  11.508
71936W        W44229  11.794   5.398  12.348
71937W        W44230   2.397  39.944   2.871
71938W        W44231   6.274  32.480  10.492
71939W        W44232  40.432  10.820  14.013
71940W        W44233  44.300   1.469  10.512
71941W        W44234  13.719  23.626  13.009
71942W        W44235  12.618  24.536   4.142
71943W        W44236  31.628  34.118   3.295
71944W        W44237  23.100  39.857  14.917
71945W        W44238   2.895  35.919   2.220
71946W        W44239  42.492  28.661  14.864
71947W        W44240   3.250   2.432   1.738
71948W        W44241  24.186  23.644  10.147
71949W        W44242  40.844  34.026  14.806
71950W        W44243  19.138  19.050  12.539
71951W        W44244  26.559  27.544   0.250
71952W        W44245  34.901  18.569   1.337
71953W        W44246  21.631  43.785   2.183
71954W        W44247  36.076  22.125  12.372
71955W        W44248   8.871  29.089   1.314
71956W        W44249   6.783  19.270   3.738
71957W        W44250  28.524  33.605  10.140
71958W        W44251  17.730  32.118   5.734
71959W        W44252  23.513  25.615  14.371
71960W        W44253  35.458   2.299  10.632
71961W        W44254  29.560  24.589  13.964
71962W        W44255  25.111  43.826   3.699
71963W        W44256   6.402  13.682  14.335
71964W        W44257   2.752  15.708   3.832
71965W        W44258  27.980  15.736   3.659
71966W        W44259  38.885  22.731  11.564
71967W        W44260  40.953  12.631  14.510
71968W        W44261  22.213   5.411  12.352
71969W        W44262  31.447  30.579   4.815
71970W        W44263  17.266   8.851   1.834
71971W        W44264   5.790   7.292  12.846
71972W        W44265   6.293   3.943  14.774
71973W        W44266   1.759  40.802   0.337
71974W        W44267  25.641  15.224  14.384
71975W        W44268  42.840  34.071   1.765
71976W        W44269  37.362  22.094   1.745
71977W        W44270  11.135  16.118  12.858
71978W        W44271  39.558   1.299   3.365
71979W        W44272  41.443   8.878  12.039
71980W        W44273  22.553   6.227  13.320
71981W        W44274  12.315  16.306  14.828
71982W        W44275  20.533  23.114   1.226
71983W        W44276  42.777  39.836   0.967
71984W        W44277  43.773  11.796  11.882
71985W        W44278  16.811  31.596  10.465
71986W        W44279  18.620  19.626  14.279
71987W        W44280  12.666   0.931  10.614
71988W        W44281  42.948  35.447  13.540
71989W        W44282  18.242  32.039  13.316
71990W        W44283  34.011  23.215   2.356
71991W        W44284  18.085  28.461  13.503
71992W        W44285  44.001  36.897   9.574
71993W        W44286  32.593  43.451  14.920
71994W        W44287  22.071  18.213  12.072
71995W        W44288   8.390   9.660   4.193
71996W        W44289  32.632  40.443  13.886
71997W        W44290  44.880  32.438   1.297
71998W        W44291   0.254  22.745  10.408
71999W        W44292  13.602  35.917   2.729
72000W        W44293  29.472  33.958  12.042
72001W        W44294   4.309  24.667   0.318
72002W        W44295  16.781   5.879   4.153
72003W        W44296  44.952   5.849  10.584
72004W        W44297  27.677   1.934   4.207
72005W        W44298  11.144  13.620  12.833
72006W        W44299  22.227  28.444   1.870
72007W        W44300  16.701   7.716   4.347
72008W        W44301  36.955  24.647   4.165
72009W        W44302   7.382  11.649  11.034
72010W        W44303   0.257   1.337  13.859
72011W        W44304   6.307  22.216   4.147
72012W        W44305  44.931  41.396  10.905
72013W        W44306  37.344  30.492   4.710
72014W        W44307  30.615   7.762   4.680
72015W        W44308  30.944  36.883  12.904
72016W        W44309   2.813  22.745   3.366
72017W        W44310  29.045  43.452   4.286
72018W        W44311  11.757   6.245   2.254
72019W        W44312  34.518  40.461  14.935
72020W        W44313  27.643  10.308  11.027
72021W        W44314  22.022  11.637  13.313
72022W        W44315  10.674   8.249  10.904
72023W        W44316  32.953  38.411  14.802
72024W        W44317  16.606  12.655   1.927
72025W        W44318  40.366  11.834  14.907
72026W        W44319  12.836  17.631   0.869
72027W        W44320  22.103   1.267  12.342
72028W        W44321  28.496  38.521   4.115
72029W        W44322   8.783  12.294  10.431
72030W        W44323  42.370  38.974   2.331
72031W        W44324  19.051  22.731  13.878
72032W        W44325  23.625  10.658   2.724
72033W        W44326  30.643  34.474   0.327
72034W        W44327  23.168  22.135  11.489
72035W        W44328  26.467  17.668  12.542
72036W        W44329  30.057  30.117   3.378
72037W        W44330  21.610  38.992  13.492
72038W        W44331  13.653  35.394  12.096
72039W        W44332  26.672  13.108  11.863
72040W        W44333   1.900  40.405  13.351
72041W        W44334  12.631  43.013  12.012
72042W        W44335  11.309  20.070   1.742
72043W        W44336   0.744  20.701  13.977
72044W        W44337  15.644  22.162   3.869
72045W        W44338  22.070   7.909   3.358
72046W        W44339   4.425  43.899   1.894
72047W        W44340  43.814  24.667  14.516
72048W        W44341  12.846   7.722  10.570
72049W        W44342  35.382  21.617  11.484
72050W        W44343  31.044  17.209   3.207
72051W        W44344  34.396  39.937  14.364
72052W        W44345  33.066  11.828   0.967
72053W        W44346   2.366   3.330   3.271
72054W        W44347  22.224  32.449  13.982
72055W        W44348  39.385  33.012   2.198
72056W        W44349   7.740  10.748   2.749
72057W        W44350  28.476  26.535  11.923
72058W        W44351  28.990  43.273  14.342
72059W        W44352  25.581  16.152   0.811
72060W        W44353  22.510  44.825  14.331
72061W        W44354  21.555   1.780  11.061
72062W        W44355   3.386  27.116   1.275
72063W        W44356  26.123  12.344  12.553
72064W        W44357  32.094  18.155   0.410
72065W        W44358  42.941  16.112  12.416
72066W        W44359  43.851   7.826   4.637
72067W        W44360   3.419  39.896  14.334
72068W        W44361   9.674  23.118  13.961
72069W        W44362  39.336   3.874  12.482
72070W        W44363   7.287  20.578  13.050
72071W        W44364  21.093  23.505   4.235
72072W        W44365  14.248   4.721  11.554
72073W        W44366   3.356  42.822  10.053
72074W        W44367   2.398  39.503  10.450
72075W        W44368  30.980  30.961   4.833
72076W        W44369  31.477  17.191  14.901
72077W        W44370   9.280  24.582  14.429
72078W        W44371  43.957  42.327  14.909
72079W        W44372  21.065  40.475  14.442
72080W        W44373  18.600  24.520  14.841
72081W        W44374  22.503  32.066  10.935
72082W        W44375  24.695  27.180  11.569
72083W        W44376  26.172  35.403   2.259
72084W        W44377  17.607  28.143   3.793
72085W        W44378  32.565  44.010   4.656
72086W        W44379  23.994  18.613  14.458
72087W        W44380  39.401   1.777   2.722
72088W        W44381  42.839   4.777   4.683
72089W        W44382  17.291  14.300  10.928
72090W        W44383  14.597  28.593   3.827
72091W        W44384   2.265  26.493   1.735
72092W        W44385  20.208   0.850  12.007
72093W        W44386  22.533   4.405   3.673
72094W        W44387  31.627  11.838  11.023
72095W        W44388  16.671   6.908  11.113
72096W        W44389  39.520  35.886   2.413
72097W        W44390   6.868  21.640  11.982
72098W        W44391  42.843  44.440  12.452
72099W        W44392  40.798  33.016   2.884
72100W        W44393  43.773   9.723  13.838
72101W        W44394  17.706   0.942   4.283
72102W        W44395  20.648  20.701  11.980
72103W        W44396  25.124   6.777  10.444
72104W        W44397  13.631   3.284   2.334
72105W        W44398  17.203   4.325  12.418
72106W        W44399  29.460  39.052  14.812
72107W        W44400  18.787  31.554  12.440
72108W        W44401  28.617  41.809  11.962
72109W        W44402  15.277  38.902  11.409
72110W        W44403  19.548   9.223   1.293
72111W        W44404  12.783  40.986   3.831
72112W        W44405  20.632  29.574   4.214
72113W        W44406   0.488  10.353  13.470
72114W        W44407   8.316  33.965   3.147
72115W        W44408  31.980  11.160   0.749
72116W        W44409   7.768  40.349   1.251
72117W        W44410  21.041   9.759  10.608
72118W        W44411  32.488  36.536  11.001
72119W        W44412  13.171   1.826   1.902
72120W        W44413   9.849   2.434  12.491
72121W        W44414  11.212   5.812  14.484
72122W        W44415  34.534   7.909  12.881
72123W        W44416  42.393  42.781  13.415
72124W        W44417   4.742  27.064   4.704
72125W        W44418   9.696   2.781   1.413
72126W        W44419  25.563  24.015   0.460
72127W        W44420  16.786  26.479   0.946
72128W        W44421  27.188   9.813  10.979
72129W        W44422  31.957  15.677   3.325
72130W        W44423  20.253   7.270  10.103
72131W        W44424  10.765   0.487   4.696
72132W        W44425  22.502  23.146  10.420
72133W        W44426  19.557  40.930  12.979
72134W        W44427   4.823  42.329   3.780
72135W        W44428  26.524  11.866   2.891
72136W        W44429   8.405  18.176  13.010
72137W        W44430  35.488  23.648   3.216
72138W        W44431  34.986  21.562  11.419
72139W        W44432  24.106   7.861   0.279
72140W        W44433  30.908  40.971   3.637
72141W        W44434   8.278  17.571   0.302
72142W        W44435  19.051  23.550  10.126
72143W        W44436   7.310  32.458  12.371
72144W        W44437  40.006  38.823  11.371
72145W        W44438  28.113  30.468  11.398
72146W        W44439  30.452  10.753  13.397
72147W        W44440  11.860   4.882   4.196
72148W        W44441  30.510  37.568  14.311
72149W        W44442  42.878  42.399  11.449
72150W        W44443  15.144  37.878  12.530
72151W        W44444   9.165  43.429   1.707
72152W        W44445  31.425  41.019  13.392
72153W        W44446  26.106  31.970   0.447
72154W        W44447  19.265   3.777  11.402
72155W        W44448  14.745  16.276   3.186
72156W        W44449   0.437  10.160  11.606
72157W        W44450  10.650  13.752   2.740
72158W        W44451  22.204  26.634  13.808
72159W        W44452  30.055  17.245  10.446
72160W        W44453  22.622  42.886   2.804
72161W        W44454  34.994   7.756  12.031
72162W        W44455  16.125   3.376   0.903
72163W        W44456   6.834  27.525  14.958
72164W        W44457  28.596  35.009   2.684
72165W        W44458  32.399   8.719  14.763
72166W        W44459  35.046  11.187   3.778
72167W        W44460  32.541  24.666   1.232
72168W        W44461  29.470  13.648  14.494
72169W        W44462  13.793   0.752   1.850
72170W        W44463  25.018   4.761   0.482
72171W        W44464   8.890  38.943   0.809
72172W        W44465  20.724  36.919   1.729
72173W        W44466  18.686   7.903   4.615
72174W        W44467  44.425  27.538  12.047
72175W        W44468  33.539  28.150   4.648
72176W        W44469  42.793  29.573  12.526
72177W        W44470  42.394  21.576   0.833
72178W        W44471  39.355  24.158   1.884
72179W        W44472  21.681  19.637  13.403
72180W        W44473   6.351  19.206  12.015
72181W        W44474  24.511   8.368   1.698
72182W        W44475  30.965  41.492  10.451
72183W        W44476  34.535  21.049  13.449
72184W        W44477  36.917  13.338  12.983
72185W        W44478  27.149  12.654  14.385
72186W        W44479  44.759  32.531  14.967
72187W        W44480  17.624  30.933   1.774
72188W        W44481  13.801  22.086  14.769
72189W        W44482  13.270  22.252   1.220
72190W        W44483   3.815  21.092  14.347
72191W        W44484  15.690  36.475   0.313
72192W        W44485  28.534   1.833  14.022
72193W        W44486  31.611  20.557  10.427
72194W        W44487  17.070  39.862  12.484
72195W        W44488  44.845  10.662  14.293
72196W        W44489  31.907   2.261   2.792
72197W        W44490  34.921  43.824  14.956
72198W        W44491  38.047  22.083   4.325
72199W        W44492  14.104  36.900  14.835
72200W        W44493  31.141  27.570  11.112
72201W        W44494  36.402  10.865   2.347
72202W        W44495  16.218  39.521   3.210
72203W        W44496  19.068  19.699  11.513
72204W        W44497   4.703  14.275  14.026
72205W        W44498  39.393  35.523   0.365
72206W        W44499  18.696  33.975   3.330
72207W        W44500  14.816   6.733  13.032
72208W        W44501  18.615   0.746   4.255
72209W        W44502  41.493  19.222  13.370
72210W        W44503  43.990  22.728   1.229
72211W        W44504   6.910  41.024   2.259
72212W        W44505   8.681  37.999   1.355
72213W        W44506  44.996  13.731   3.671
72214W        W44507  29.436  32.908   3.856
72215W        W44508  36.990   9.713   0.819
72216W        W44509   7.186  36.863   3.336
72217W        W44510  28.517  34.497  11.864
72218W        W44511  21.113   3.933  13.370
72219W        W44512  24.582   2.317   0.864
72220W        W44513  35.944  12.232   0.251
72221W        W44514  30.652  36.996   0.287
72222W        W44515   3.377  42.817   2.250
72223W        W44516  11.815   9.763  14.365
72224W        W44517  39.876   3.939  10.943
72225W        W44518  15.658  37.028   2.838
72226W        W44519  44.822  24.159   4.802
72227W        W44520  41.434  41.525  11.442
72228W        W44521  19.236  43.780  10.953
72229W        W44522  13.689  25.050   0.251
72230W        W44523  17.271   6.703  14.814
72231W        W44524   3.358  27.009   4.303
72232W        W44525   3.289  17.169   5.199
72233W        W44526  12.631  41.302   1.743
72234W        W44527  25.537  25.178  14.998
72235W        W44528  22.190  34.993   2.256
72236W        W44529  25.538  33.581   4.660
72237W        W44530  44.822  18.236   5.114
72238W        W44531  18.689  31.425   5.319
72239W        W44532   3.422  17.691  13.012
72240W        W44533   5.788   4.376   3.751
72241W        W44534  16.681   0.917   2.764
72242W        W44535  18.768  11.646   4.731
72243W        W44536   0.944   8.734   2.672
72244W        W44537  27.070  11.851   0.363
72245W        W44538  31.543  26.663  14.015
72246W        W44539  43.908  20.727  11.595
72247W        W44540   5.876  11.789   3.810
72248W        W44541   2.916  12.829   2.837
72249W        W44542   6.776  28.093  11.034
72250W        W44543  32.018  23.736   3.744
72251W        W44544  14.170   1.760  14.928
72252W        W44545  42.778  35.949  13.972
72253W        W44546   6.308  37.496   1.365
72254W        W44547  13.149   8.660   3.648
72255W        W44548  26.208  33.433   1.293
72256W        W44549   9.776  37.477   3.203
72257W        W44550  26.999  36.878   0.775
72258W        W44551   9.263  33.421   2.764
72259W        W44552  11.302  26.135  14.804
72260W        W44553  14.184  16.097  10.570
72261W        W44554  22.716  40.392   3.290
72262W        W44555  10.859  44.004  11.085
72263W        W44556  39.523   9.189  13.050
72264W        W44557   5.776  26.548   1.247
72265W        W44558  17.792  31.966   4.207
72266W        W44559   6.791  35.938   0.353
72267W        W44560  16.659  35.852   3.739
72268W        W44561  22.237  44.924   3.337
72269W        W44562  17.237  44.973   0.909
72270W        W44563  36.561   3.246   0.961
72271W        W44564  13.227  37.086   3.869
72272W        W44565  19.550  29.592   3.283
72273W        W44566   8.874  24.584  10.465
72274W        W44567  44.001  43.995   0.427
72275W        W44568   4.733  14.286  12.580
72276W        W44569  26.504  15.648   3.655
72277W        W44570  23.985   2.744  14.837
72278W        W44571  15.273  32.493   2.863
72279W        W44572  19.591  25.490  13.964
72280W        W44573   9.836  30.080  14.866
72281W        W44574  29.952  17.618   0.257
72282W        W44575  24.055   7.340  11.543
72283W        W44576  34.443  31.914  13.889
72284W        W44577  40.546   8.800   1.295
72285W        W44578  34.368  18.712  13.851
72286W        W44579  38.997   0.489  11.027
72287W        W44580  20.185  31.559   0.387
72288W        W44581  16.213  18.245  11.075
72289W        W44582  27.617  36.873   4.794
72290W        W44583  39.870   7.786  13.488
72291W        W44584  32.408  40.360  11.928
72292W        W44585  42.872  15.152  12.874
72293W        W44586  30.036  28.010  11.034
72294W        W44587   4.284  18.663   2.704
72295W        W44588  20.528  43.789  10.589
72296W        W44589   2.792   3.427  12.933
72297W        W44590  24.076   8.335  14.930
72298W        W44591   7.196  34.411   1.236
72299W        W44592   6.831   0.298  10.636
72300W        W44593   4.339  14.672  10.555
72301W        W44594  39.921  26.052   3.747
72302W        W44595  25.571  35.576  12.538
72303W        W44596  44.755  32.538  11.531
72304W        W44597  19.056  12.246  12.867
72305W        W44598  43.354  10.712   1.768
72306W        W44599  22.202  29.139  14.856
72307W        W44600  42.794  38.953   3.202
72308W        W44601  37.850   5.871  11.983
72309W        W44602  20.761   2.873  13.931
72310W        W44603  18.232  30.619   2.324
72311W        W44604  27.451  37.960  13.063
72312W        W44605   2.908  20.751   1.256
72313W        W44606  26.119  23.603  11.960
72314W        W44607  13.628  11.308   1.303
72315W        W44608  37.499  37.087   1.725
72316W        W44609   0.824  29.923  12.912
72317W        W44610  41.296   4.867   1.765
72318W        W44611  30.644   7.761  11.906
72319W        W44612  33.537  17.238  11.452
72320W        W44613   4.208  12.246  13.828
72321W        W44614  11.243   6.760   3.842
72322W        W44615  22.642  23.104   2.227
72323W        W44616   5.739  24.701  11.076
72324W        W44617  36.016  35.576  12.451
72325W        W44618  30.947   4.369  10.526
72326W        W44619   4.285  20.181   1.923
72327W        W44620  17.192  16.138  10.511
72328W        W44621  26.165  22.152  11.390
72329W        W44622   2.259  22.516  14.373
72330W        W44623   6.343   4.831   1.811
72331W        W44624  20.195  25.088   1.769
72332W        W44625  30.132   0.355   0.368
72333W        W44626   7.336  19.240   4.630
72334W        W44627  36.353  25.584  11.872
72335W        W44628   6.346  14.715  12.415
72336W        W44629  44.977  30.424  10.541
72337W        W44630  25.969  17.206   2.742
72338W        W44631  12.309  20.728   3.308
72339W        W44632  12.668  36.426   2.230
72340W        W44633  43.507  43.981   3.246
72341W        W44634  29.922  16.273  11.903
72342W        W44635   7.334  37.960  11.880
72343W        W44636  36.444  32.947  13.996
72344W        W44637  38.421   3.778   1.299
72345W        W44638  19.157  18.065  13.357
72346W        W44639  25.579   4.698  11.379
72347W        W44640  43.804  10.790   0.474
72348W        W44641  13.105  11.854  13.804
72349W        W44642  14.821  27.498  10.941
72350W        W44643   4.830   7.407  11.900
72351W        W44644  21.029  12.736   2.675
72352W        W44645  23.627  33.522  12.948
72353W        W44646  42.456  36.965   3.665
72354W        W44647  33.003   7.171  14.384
72355W        W44648  13.131  40.870  14.393
72356W        W44649  42.987  36.042   0.853
72357W        W44650   5.852  22.133  11.104
72358W        W44651  35.486  31.536  12.510
72359W        W44652   3.322   9.801   1.906
72360W        W44653  19.086  14.114   0.862
72361W        W44654  36.917  30.937   1.356
72362W        W44655  21.511  15.672   4.315
72363W        W44656  29.118  35.100   1.758
72364W        W44657  34.538  25.044   2.801
72365W        W44658  37.862   3.845   2.817
72366W        W44659   5.207  27.465   1.305
72367W        W44660   1.327  26.040  13.982
72368W        W44661  19.546  42.025   1.875
72369W        W44662  20.748   3.367   1.370
72370W        W44663  38.358  33.970  12.519
72371W        W44664  14.204  32.457  14.853
72372W        W44665   1.418  28.038   1.871
72373W        W44666  41.379  22.599   1.414
72374W        W44667  34.514  25.680   3.227
72375W        W44668  21.718  13.315   1.843
72376W        W44669  30.095  43.945   2.829
72377W        W44670  14.266  20.187  14.470
72378W        W44671  44.939   3.440  11.040
72379W        W44672  35.503  16.172   4.274
72380W        W44673  35.448  39.337  11.433
72381W        W44674   8.686  23.601  13.944
72382W        W44675  39.904   8.826   0.256
72383W        W44676  19.118  25.482   0.274
72384W        W44677   7.731   9.744   3.355
72385W        W44678  32.529   6.731  11.998
72386W        W44679  37.457   2.348  11.094
72387W        W44680   7.822  17.133   1.839
72388W        W44681   7.743  30.621  11.568
72389W        W44682   9.303  41.818   2.700
72390W        W44683  37.034  30.116  12.990
72391W        W44684   9.358  10.292  10.619
72392W        W44685  33.604  34.943   1.299
72393W        W44686  30.011  33.431  10.593
72394W        W44687  17.062  21.684  13.377
72395W        W44688   7.324  13.721   2.288
72396W        W44689  41.884   8.223  11.079
72397W        W44690  26.965  12.267   2.281
72398W        W44691  31.061   0.266   0.952
72399W        W44692  40.452  25.691   0.389
72400W        W44693  19.108  40.447   3.378
72401W        W44694  32.543  39.813  11.476
72402W        W44695  27.010  43.804   1.814
72403W        W44696  21.687   5.853   0.751
72404W        W44697   6.295  14.777   4.634
72405W        W44698  24.205  30.914  13.497
72406W        W44699  23.094   8.189  13.480
72407W        W44700   0.887  25.115   0.811
72408W        W44701  23.091   2.850  12.412
72409W        W44702  42.389  28.666  14.471
72410W        W44703  33.092  18.218  11.893
72411W        W44704  19.265  27.039   4.800
72412W        W44705  29.529  31.426  14.910
72413W        W44706  31.509  13.653  10.935
72414W        W44707  37.870   4.268   1.289
72415W        W44708  39.925  13.634  13.489
72416W        W44709  35.049  42.310  13.507
72417W        W44710  24.571  14.611  14.429
72418W        W44711  31.926  38.472   1.848
72419W        W44712  24.132  34.584  11.099
72420W        W44713  44.280  30.564  11.377
72421W        W44714  14.114  32.490   0.396
72422W        W44715  28.441  18.712  13.379
72423W        W44716   7.731  32.545  13.897
72424W        W44717  33.396  21.181  10.591
72425W        W44718  30.451   5.424  10.624
72426W        W44719  10.705  37.969   0.401
72427W        W44720  18.215  28.596  14.023
72428W        W44721  34.508  36.553  11.902
72429W        W44722  12.696  30.555   3.741
72430W        W44723  12.194  17.103   1.369
72431W        W44724  10.355  29.070   1.760
72432W        W44725   7.290  33.395   1.394
72433W        W44726  16.681  20.150   2.890
72434W        W44727   0.780  15.100   4.721
72435W        W44728  11.666   2.395  10.914
72436W        W44729  12.297  17.678  11.911
72437W        W44730   7.897  34.001   4.687
72438W        W44731  22.169  20.168  14.910
72439W        W44732  30.156  35.537   3.677
72440W        W44733   9.324  12.145  13.806
72441W        W44734  40.921  13.188   2.858
72442W        W44735  32.011  41.535   0.824
72443W        W44736  41.437  16.766   1.373
72444W        W44737   1.786  36.850   2.302
72445W        W44738  34.535  39.377  14.770
72446W        W44739  29.658  10.790   2.778
72447W        W44740   1.316  39.385  14.466
72448W        W44741  15.281  22.157  10.547
72449W        W44742   8.352  24.097   2.301
72450W        W44743  37.580  26.619  13.870
72451W        W44744  34.399  22.516  13.920
72452W        W44745  29.155  14.247  13.988
72453W        W44746  22.656  28.457  14.789
72454W        W44747  13.705  11.169  11.118
72455W        W44748  34.093  20.252  14.352
72456W        W44749  15.197  32.041   1.757
72457W        W44750  19.049  43.408   2.208
72458W        W44751  37.474  37.420  14.950
72459W        W44752   8.734  26.510  14.482
72460W        W44753  26.987  20.047  14.784
72461W        W44754  26.604  42.887   1.372
72462W        W44755  20.157  26.481   4.647
72463W        W44756  17.586   6.902  14.316
72464W        W44757  20.536  28.670   2.790
72465W        W44758  43.274   2.965   0.255
72466W        W44759  37.896  32.979  13.395
72467W        W44760  36.912   5.425   2.258
72468W        W44761  35.885  27.614   1.883
72469W        W44762   5.901   7.280  11.582
72470W        W44763  37.524  31.006  11.522
72471W        W44764  28.434  14.827   0.813
72472W        W44765  25.603   7.197   0.244
72473W        W44766  34.371  44.795  13.026
72474W        W44767  24.086   9.677  10.432
72475W        W44768   3.308  32.571   2.850
72476W        W44769  37.350  19.585  12.454
72477W        W44770  17.104   5.787  11.912
72478W        W44771  20.551  30.950   0.863
72479W        W44772   0.783   8.206   1.890
72480W        W44773  10.677  39.487  12.899
72481W        W44774  10.743   3.771  13.359
72482W        W44775  39.024  29.113   1.437
72483W        W44776  34.107  10.172   4.274
72484W        W44777  40.317  26.041   4.245
72485W        W44778  14.631  39.848   4.144
72486W        W44779  10.845  29.499   1.307
72487W        W44780  29.619  20.662   1.932
72488W        W44781   8.303  12.154   4.142
72489W        W44782  22.072  10.822   4.142
72490W        W44783  31.003   4.918  11.112
72491W        W44784  14.688   8.707  11.128
72492W        W44785   5.752  35.577   4.794
72493W        W44786   1.437  20.262  12.448
72494W        W44787  38.009  33.588   1.794
72495W        W44788  20.239  40.319  10.440
72496W        W44789   2.351  13.741  12.966
72497W        W44790   6.197  14.649  14.801
72498W        W44791  44.314  40.405  13.342
72499W        W44792   9.297   3.354   3.867
72500W        W44793  12.770  23.162   1.420
72501W        W44794  35.389  31.496   4.766
72502W        W44795   9.210  43.888  10.624
72503W        W44796  30.593  33.536  12.447
72504W        W44797   8.214  40.879  14.833
72505W        W44798   8.832  14.783   0.825
72506W        W44799   2.764  13.713  10.623
72507W        W44800  19.762  17.064  11.474
72508W        W44801  33.020  19.613   4.657
72509W        W44802  19.118  33.580   0.727
72510W        W44803   0.975  37.369   4.707
72511W        W44804   5.917  31.552  10.516
72512W        W44805  33.530   8.393  13.377
72513W        W44806   8.813  39.983  12.052
72514W        W44807  28.492  26.040   3.151
72515W        W44808  29.940  13.726  12.566
72516W        W44809  36.466  15.607   3.246
72517W        W44810  41.920  19.548   3.728
72518W        W44811   0.458   3.852  13.806
72519W        W44812  33.880  17.771  14.965
72520W        W44813  14.674  39.872   2.665
72521W        W44814   5.745  42.424  13.896
72522W        W44815  33.622  37.580   3.242
72523W        W44816  12.655  21.636  12.474
72524W        W44817   0.354  33.504  12.934
72525W        W44818   5.802  20.648  12.462
72526W        W44819   0.266  12.790   3.794
72527W        W44820  13.288  30.585   3.775
72528W        W44821  36.885  32.112  12.525
72529W        W44822  39.559  21.715  13.338
72530W        W44823  13.241  36.363   2.356
72531W        W44824  25.181  16.682   2.876
72532W        W44825  43.414  12.677  12.898
72533W        W44826  25.514   9.225   3.775
72534W        W44827  42.338  11.810  10.576
72535W        W44828  17.720  40.809  14.402
72536W        W44829  17.171  11.332  13.509
72537W        W44830  25.593  16.240   3.709
72538W        W44831   2.352  11.164   2.726
72539W        W44832  27.163  41.992   0.743
72540W        W44833   9.843  22.505   2.779
72541W        W44834   6.721  23.541   4.192
72542W        W44835  26.117  44.444   1.781
72543W        W44836   1.410   2.442   0.413
72544W        W44837  27.532  41.871   4.355
72545W        W44838  28.654  17.728  11.399
72546W        W44839  44.820  43.378  14.808
72547W        W44840  43.357  26.651  11.893
72548W        W44841  39.461  13.721  13.007
72549W        W44842  21.647   7.283  12.070
72550W        W44843  12.306   2.781   5.204
72551W        W44844  23.522  35.055  11.517
72552W        W44845  40.994  39.456  14.455
72553W        W44846  17.074  18.750  11.027
72554W        W44847  21.705  31.954   1.887
72555W        W44848  24.693  33.456   1.920
72556W        W44849  37.347  36.465  11.923
72557W        W44850   6.817  17.791   3.168
72558W        W44851  38.050  23.649   2.686
72559W        W44852  21.056   6.840   2.191
72560W        W44853   9.687  39.008   4.649
72561W        W44854  25.479   7.240   1.413
72562W        W44855  16.679  36.856  14.867
72563W        W44856  34.437   4.761   3.206
72564W        W44857  40.993   7.717   3.856
72565W        W44858  30.135   5.285  13.872
72566W        W44859  42.806  42.492  14.496
72567W        W44860  37.354  39.927   0.358
72568W        W44861  22.212  36.374   0.259
72569W        W44862  12.287  16.252  10.496
72570W        W44863   9.199   0.795   1.341
72571W        W44864  32.492  23.176   2.721
72572W        W44865   6.864  23.734   1.399
72573W        W44866  14.702  19.119   0.247
72574W        W44867  21.222  31.419  11.456
72575W        W44868  24.672  13.603   2.812
72576W        W44869  37.344  40.033  11.018
72577W        W44870  15.329  24.698  12.409
72578W        W44871  43.330   0.890   2.409
72579W        W44872  22.103  21.099   0.942
72580W        W44873  18.778  21.260  14.359
72581W        W44874  44.453   0.271   2.748
72582W        W44875   3.367  39.932   0.867
72583W        W44876  39.534  12.787  12.887
72584W        W44877   8.715  15.633   2.755
72585W        W44878  31.587  20.121   3.757
72586W        W44879  12.674  17.122   2.710
72587W        W44880  19.575  27.471   2.309
72588W        W44881  27.110  27.952   1.402
72589W        W44882  26.168  33.025   2.278
72590W        W44883  25.095  28.455  10.595
72591W        W44884  13.620   5.924   1.895
72592W        W44885   4.403   5.733   0.331
72593W        W44886  37.381  26.546  11.489
72594W        W44887  21.521  29.937  10.636
72595W        W44888  21.698  43.376   3.759
72596W        W44889   0.830   3.763  10.411
72597W        W44890  34.400   7.326  10.951
72598W        W44891  21.228  33.951   4.353
72599W        W44892  40.332  26.689   1.382
72600W        W44893  12.700  23.623  14.281
72601W        W44894   9.232  27.165  14.891
72602W        W44895  43.510  24.534   4.269
72603W        W44896  27.574  32.000   0.836
72604W        W44897  44.328  17.640   2.355
72605W        W44898  39.514   7.886  13.393
72606W        W44899  31.976   0.413   2.719
72607W        W44900  17.622  12.676  11.399
72608W        W44901  42.030  33.499   3.630
72609W        W44902  14.742  17.129   3.761
72610W        W44903  15.777  21.580   2.308
72611W        W44904  34.022  20.665  10.942
72612W        W44905   5.783  29.653   3.734
72613W        W44906  15.664  17.210  14.019
72614W        W44907   6.309  18.562  11.042
72615W        W44908  18.761  29.018   4.190
72616W        W44909  30.546  24.155   3.730
72617W        W44910  38.033   1.322  11.008
72618W        W44911  10.750  40.920  13.866
72619W        W44912  17.797  13.800  11.882
72620W        W44913   2.921  17.141   2.192
72621W        W44914  13.640  21.118  14.511
72622W        W44915  32.056  12.716   3.236
72623W        W44916  32.544  13.157  10.453
72624W        W44917  38.868   2.756  13.060
72625W        W44918   0.934  32.534  13.880
72626W        W44919   0.285  28.653   3.760
72627W        W44920   5.225  30.070   4.611
72628W        W44921  40.484  38.525   4.202
72629W        W44922  18.151  41.308   2.887
72630W        W44923  27.968  14.338   2.879
72631W        W44924  16.235  11.337   4.136
72632W        W44925  27.167  10.196   4.773
72633W        W44926  16.681  39.808  10.588
72634W        W44927  19.752  24.048   4.669
72635W        W44928  42.903  39.438   3.653
72636W        W44929   4.843  16.703   1.425
72637W        W44930  11.811  44.306   1.426
72638W        W44931  20.671  36.414   2.394
72639W        W44932  23.704  16.611   0.815
72640W        W44933  14.213  31.409   4.213
72641W        W44934  26.567  37.050   2.324
72642W        W44935  29.113  10.644  10.639
72643W        W44936  11.626  19.229  12.446
72644W        W44937  31.015   2.962  13.846
72645W        W44938  12.848   3.760   9.539
72646W        W44939  26.482   4.858   1.721
72647W        W44940  16.079  25.713   2.698
72648W        W44941  39.933  29.089  14.441
72649W        W44942  21.741  12.187  12.941
72650W        W44943   0.406  33.574   4.205
72651W        W44944  44.917   6.341   4.820
72652W        W44945   6.707  17.657  10.419
72653W        W44946  40.510  25.469   1.709
72654W        W44947  27.111  11.172  11.408
72655W        W44948  17.767   2.814   0.894
72656W        W44949  31.147  37.053  12.013
72657W        W44950  14.212  40.858  11.870
72658W        W44951  31.944   2.775  13.844
72659W        W44952  14.588  32.502  13.823
72660W        W44953   0.307  35.495   3.677
72661W        W44954  44.325   7.179   1.844
72662W        W44955  32.621  14.235   3.806
72663W        W44956  44.481  44.314  11.973
72664W        W44957  44.813   8.669   1.390
72665W        W44958  18.782  28.138  14.797
72666W        W44959  31.951   9.653   1.853
72667W        W44960  33.527   7.755   2.694
72668W        W44961  25.492  11.169   1.935
72669W        W44962  32.961   3.942  13.472
72670W        W44963  29.125  24.562   2.295
72671W        W44964  12.619  16.268   2.667
72672W        W44965  22.151   3.804  11.994
72673W        W44966   9.327  16.763   2.870
72674W        W44967  14.114  37.066   2.303
72675W        W44968  13.123  24.579  13.537
72676W        W44969   2.835  41.033   0.780
72677W        W44970  12.719   3.238   5.178
72678W        W44971  24.015  43.437  12.076
72679W        W44972   0.788  15.207   1.282
72680W        W44973  18.085  13.250  11.523
72681W        W44974  27.105  16.740   4.277
72682W        W44975  37.986  39.981   4.752
72683W        W44976  39.965  37.562   4.605
72684W        W44977  10.202  11.137   0.434
72685W        W44978  11.252  33.890   2.799
72686W        W44979  14.140  28.088   3.773
72687W        W44980  40.434   9.791  11.541
72688W        W44981  39.022   3.813   2.844
72689W        W44982  10.756  30.484   5.173
72690W        W44983  26.694  22.252  11.998
72691W        W44984  16.696  25.706  10.405
72692W        W44985  40.439  13.315  11.912
72693W        W44986  30.025   4.337   0.346
72694W        W44987  25.020  39.033  14.019
72695W        W44988  10.691  24.015  14.277
72696W        W44989  37.987   1.768   0.891
72697W        W44990  30.155  26.551  14.352
72698W        W44991  43.946   0.809  11.544
72699W        W44992   2.318  27.024   2.384
72700W        W44993  29.958   9.294   2.762
72701W        W44994  41.025  40.822   0.302
72702W        W44995  35.031   8.667  12.044
72703W        W44996   8.286   9.756   3.230
72704W        W44997  29.625  18.222  13.057
72705W        W44998  10.845  30.025   4.835
72706W        W44999  25.605  26.494  14.508
72707W        W45000  17.652  28.617   1.776
72708W        W45001  39.407  12.352   1.257
72709W        W45002  36.052   7.783   3.668
72710W        W45003  31.942  19.752  14.476
72711W        W45004  13.814   6.209   4.704
72712W        W45005   7.341   5.821  14.964
72713W        W45006  32.995  41.901  12.011
72714W        W45007  40.536  19.698   9.993
72715W        W45008  26.618  18.778  13.878
72716W        W45009  41.872  15.674   2.873
72717W        W45010  38.822  32.100  12.904
72718W        W45011   1.241   5.290   2.752
72719W        W45012   9.867   0.861   0.267
72720W        W45013  41.043  24.566   1.893
72721W        W45014   2.905  21.232  14.798
72722W        W45015   9.238  22.034   1.279
72723W        W45016   5.759   8.290   4.269
72724W        W45017  21.735  21.516   4.726
72725W        W45018  35.893  14.303   0.953
72726W        W45019  37.507   7.703   2.713
72727W        W45020  30.611  11.777  10.455
72728W        W45021   8.741   1.474  10.501
72729W        W45022   4.367  35.903  12.070
72730W        W45023  25.494  30.639   3.771
72731W        W45024   9.695  20.061   3.640
72732W        W45025  10.795  35.441  13.036
72733W        W45026   9.827  35.976   3.736
72734W        W45027  14.190  18.580   1.716
72735W        W45028   6.921  13.194  12.508
72736W        W45029  36.380  39.844  12.396
72737W        W45030  31.097   1.354   3.214
72738W        W45031   2.825  16.751   0.321
72739W        W45032  21.169  28.628   4.773
72740W        W45033  32.501  14.724   3.270
72741W        W45034  31.402  30.559  12.526
72742W        W45035  12.855  17.276   1.740
72743W        W45036  39.983   2.360   3.633
72744W        W45037   5.732  18.671  11.466
72745W        W45038  13.306  42.309  10.407
72746W        W45039   3.915  44.754  10.622
72747W        W45040  32.611  17.141   3.210
72748NA+    NA+45041  25.984  25.591  11.385
72749NA+    NA+45042  40.870  30.909  10.456
72750NA+    NA+45043  21.601   9.221   1.374
72751NA+    NA+45044  42.325   3.361   4.301
72752NA+    NA+45045  28.465  23.142   2.183
72753NA+    NA+45046  14.783  14.167  13.331
72754NA+    NA+45047   3.232  39.025   0.804
72755NA+    NA+45048  26.071  14.184   1.441
72756NA+    NA+45049  11.622   8.203  11.111
72757NA+    NA+45050  30.066  14.732   2.306
72758NA+    NA+45051  36.946  38.499  13.518
72759NA+    NA+45052  21.121  16.592   0.751
72760NA+    NA+45053   3.309  25.586  13.533
72761NA+    NA+45054  12.855  17.565  14.339
72762NA+    NA+45055  23.097  35.093  10.970
72763NA+    NA+45056  22.053  44.949  12.014
72764NA+    NA+45057  40.840   7.386  14.008
72765NA+    NA+45058   4.336  16.613   1.313
72766NA+    NA+45059  41.864  29.994  13.877
72767NA+    NA+45060  24.075   3.369   4.681
72768NA+    NA+45061  15.754  29.996   3.251
72769NA+    NA+45062  38.542  31.971  12.348
72770NA+    NA+45063   7.794  35.966   0.248
72771NA+    NA+45064  32.615   2.876  11.589
72772NA+    NA+45065  14.613   2.800  12.845
72773NA+    NA+45066  41.836  27.151   0.824
72774NA+    NA+45067   1.976  40.358  14.433
72775NA+    NA+45068   9.154  30.998   4.303
72776NA+    NA+45069  29.638  37.410  13.910
72777NA+    NA+45070  39.368  32.103   3.176
72778NA+    NA+45071  20.075  33.048  14.511
72779NA+    NA+45072  35.094   8.252  14.425
72780NA+    NA+45073  35.952  14.753  10.455
72781NA+    NA+45074  17.249  37.500  14.399
72782NA+    NA+45075  10.662  15.614   1.410
72783NA+    NA+45076  12.615  41.885  14.766
72784NA+    NA+45077   3.848  14.728  12.486
72785NA+    NA+45078  31.646   0.871   0.463
72786NA+    NA+45079  40.425   5.223  13.047
72787NA+    NA+45080  28.139  39.502  11.457
72788NA+    NA+45081  32.494  40.856   1.311
72789NA+    NA+45082  34.421  43.291  11.080
72790NA+    NA+45083  24.622  27.634   4.139
72791NA+    NA+45084  11.360  40.364  11.382
72792NA+    NA+45085   3.792  37.431  10.040
72793NA+    NA+45086  30.519   0.412  13.855
72794NA+    NA+45087  35.471   4.299  10.494
72795NA+    NA+45088  18.131   7.257   0.331
72796NA+    NA+45089  23.121  38.376   2.359
72797NA+    NA+45090  16.626  24.704  13.016
72798NA+    NA+45091  19.285  22.247   4.177
72799NA+    NA+45092  37.518  42.512  14.432
72800NA+    NA+45093   7.858  39.358  13.848
72801NA+    NA+45094  29.135  42.372  14.763
72802NA+    NA+45095   8.374  32.912   4.291
72803NA+    NA+45096   8.792  26.645   2.693
72804NA+    NA+45097   0.958  20.524   4.814
72805NA+    NA+45098  15.804  19.536  10.981
72806NA+    NA+45099  10.812  12.856   0.454
72807NA+    NA+45100  43.820  44.437   3.754
72808NA+    NA+45101  29.140  38.833  12.894
72809NA+    NA+45102  37.840  15.701   1.435
72810NA+    NA+45103  24.033   5.405  14.874
72811NA+    NA+45104   2.373  25.559   2.265
72812NA+    NA+45105  10.353   9.294   2.780
72813NA+    NA+45106   3.272  16.258  14.347
72814NA+    NA+45107  15.286  43.444  13.918
72815NA+    NA+45108  27.034   9.718   4.817
72816NA+    NA+45109  11.692  21.675   3.835
72817NA+    NA+45110  11.637  41.931  14.373
72818NA+    NA+45111  26.510  13.177  11.485
72819NA+    NA+45112  31.460   3.349   3.279
72820NA+    NA+45113   7.197   0.452  11.913
72821NA+    NA+45114   6.201  24.986   0.422
72822NA+    NA+45115  28.470  11.730   0.302
72823NA+    NA+45116   7.367  19.168   3.272
72824NA+    NA+45117  21.080  26.500   3.166
72825NA+    NA+45118  11.746   4.780   4.711
72826NA+    NA+45119   7.283  18.118   1.396
72827NA+    NA+45120  17.112  18.238  13.308
72828NA+    NA+45121  33.541  41.296   1.761
72829NA+    NA+45122  16.150   7.884  10.589
72830NA+    NA+45123  40.505  23.692  13.934
72831NA+    NA+45124  34.440  23.731   2.887
72832NA+    NA+45125  33.575  16.733  10.553
72833NA+    NA+45126  30.078  31.140  13.924
72834NA+    NA+45127  31.481  10.187   2.820
72835NA+    NA+45128  43.992  33.075   3.229
72836NA+    NA+45129   0.835   0.791  12.449
72837NA+    NA+45130  14.589  43.356   3.854
72838NA+    NA+45131  38.034   0.889   2.387
72839NA+    NA+45132  21.542  21.195   2.731
72840NA+    NA+45133  10.666  11.247  11.436
72841NA+    NA+45134  35.017  31.426  14.875
72842NA+    NA+45135  38.485  39.826   1.727
72843NA+    NA+45136   1.376  32.571  11.079
72844NA+    NA+45137   9.197  44.265  12.042
72845NA+    NA+45138  30.529  26.952  14.514
72846NA+    NA+45139  18.291  21.080   9.520
72847NA+    NA+45140   5.717   5.428  14.798
72848NA+    NA+45141  30.469  25.211  13.494
72849NA+    NA+45142  29.658  13.834   1.786
72850NA+    NA+45143   0.308  26.617  11.008
72851NA+    NA+45144  19.258  17.732   3.746
72852NA+    NA+45145  35.029   6.775   1.311
72853NA+    NA+45146  33.919  27.979   0.296
72854NA+    NA+45147  21.626  35.865   1.445
72855NA+    NA+45148   2.272   6.283  12.968
72856NA+    NA+45149   2.346  16.209   2.318
72857NA+    NA+45150  26.190  31.608   1.337
72858NA+    NA+45151  21.742   8.758   1.697
72859NA+    NA+45152  31.971  34.975  12.070
72860NA+    NA+45153  25.203  39.886   1.350
72861NA+    NA+45154  27.678  23.235  11.112
72862NA+    NA+45155  35.004   4.841   4.651
72863NA+    NA+45156  32.417   6.308  11.023
72864NA+    NA+45157  43.847  41.293  11.447
72865NA+    NA+45158  33.599  10.825  13.907
72866NA+    NA+45159  13.801  12.760   4.137
72867NA+    NA+45160  31.543   6.416   1.271
72868NA+    NA+45161  22.243  41.894  14.423
72869NA+    NA+45162  35.007   0.961  14.999
72870NA+    NA+45163   9.786  24.638   1.863
72871NA+    NA+45164  41.964  14.272  10.986
72872NA+    NA+45165  38.416  13.145  14.408
72873NA+    NA+45166  22.555  37.415   0.272
72874NA+    NA+45167  14.235  30.072  13.338
72875NA+    NA+45168  23.706  16.755   3.386
72876NA+    NA+45169  31.152  43.472  11.984
72877NA+    NA+45170  26.954  34.091  10.642
72878NA+    NA+45171  26.654   2.385   4.120
72879NA+    NA+45172  27.186  16.798  10.488
72880NA+    NA+45173  24.160   6.824   4.346
72881NA+    NA+45174  31.636   9.751   4.774
72882NA+    NA+45175  18.589   4.823   1.880
72883NA+    NA+45176  43.847  23.556   3.146
72884NA+    NA+45177  44.961  34.592  13.353
72885NA+    NA+45178  40.452  28.668  12.578
72886NA+    NA+45179   0.368   9.738  12.376
72887NA+    NA+45180   6.335  25.679  12.053
72888NA+    NA+45181  24.640  42.514   2.855
72889NA+    NA+45182  42.328  39.901   2.327
72890NA+    NA+45183  29.640  15.244  11.995
72891NA+    NA+45184   5.818  11.818  10.967
72892NA+    NA+45185  18.578   7.741   3.314
72893NA+    NA+45186  42.792   2.411   1.716
72894NA+    NA+45187  20.664  11.357   0.392
72895NA+    NA+45188   6.385  26.039   3.287
72896NA+    NA+45189  25.635  15.789  12.349
72897NA+    NA+45190  42.310  32.470   0.261
72898NA+    NA+45191  19.614  29.115  14.512
72899NA+    NA+45192  10.157  23.551   0.246
72900NA+    NA+45193   0.835   7.689   4.829
72901NA+    NA+45194  15.181  44.815   0.961
72902NA+    NA+45195  23.563  11.153  12.850
72903NA+    NA+45196  30.947  28.642  10.932
72904NA+    NA+45197  16.589  32.500  14.024
72905NA+    NA+45198  33.058  10.267  13.311
72906NA+    NA+45199  20.755   6.303  10.889
72907NA+    NA+45200  39.002   3.421   2.331
72908NA+    NA+45201  24.060   4.701   2.785
72909NA+    NA+45202   9.301   1.294   1.840
72910NA+    NA+45203  22.191  12.242   4.750
72911NA+    NA+45204  10.329  14.234  12.371
72912NA+    NA+45205  37.556   8.744  10.960
72913NA+    NA+45206  24.536  21.664   2.225
72914NA+    NA+45207  21.115  13.715  14.777
72915NA+    NA+45208  22.621  32.608   0.365
72916NA+    NA+45209   9.687  43.419  13.432
72917NA+    NA+45210   2.451  14.795  13.037
72918NA+    NA+45211  14.825  36.585  12.982
72919NA+    NA+45212  14.147  10.711  10.574
72920NA+    NA+45213   5.252  20.075   0.382
72921NA+    NA+45214  42.396  11.741  14.380
72922NA+    NA+45215   1.756   7.242  13.414
72923NA+    NA+45216  14.236  22.726   0.902
72924NA+    NA+45217  18.102   9.796   3.869
72925NA+    NA+45218   3.903  35.520   1.352
72926NA+    NA+45219  13.338   8.702   2.801
72927NA+    NA+45220  28.093  30.152  12.500
72928NA+    NA+45221  14.820  31.901  14.502
72929NA+    NA+45222  34.041  18.662  12.410
72930NA+    NA+45223  40.362  24.699  10.487
72931NA+    NA+45224   5.352   7.850   2.882
72932NA+    NA+45225  27.477  15.632  12.986
72933NA+    NA+45226  34.991  24.577   0.894
72934NA+    NA+45227  40.011  38.484  14.855
72935NA+    NA+45228   5.260  37.415  11.907
72936NA+    NA+45229  33.587  16.606  13.455
72937NA+    NA+45230  21.614  10.382   3.672
72938NA+    NA+45231  27.096  35.510   2.350
72939NA+    NA+45232  39.410  43.821  12.403
72940NA+    NA+45233  41.517  44.468  10.451
72941NA+    NA+45234  28.525  17.574   3.760
72942NA+    NA+45235  43.840  17.642   0.299
72943NA+    NA+45236   1.834  20.634  13.465
72944NA+    NA+45237  35.381  24.128   1.261
72945NA+    NA+45238  18.749   7.666  13.854
72946NA+    NA+45239   9.856  35.484   1.404
72947NA+    NA+45240   9.732   5.325  13.433
72948NA+    NA+45241  19.720   0.428   2.269
72949NA+    NA+45242   1.791  23.238  13.442
72950NA+    NA+45243  18.599   5.882   2.236
72951NA+    NA+45244  32.056  42.021  11.119
72952NA+    NA+45245  31.575  27.603   3.297
72953NA+    NA+45246  31.511  23.718   2.280
72954NA+    NA+45247   9.661  26.587  14.906
72955NA+    NA+45248  23.997  33.525   1.417
72956NA+    NA+45249   7.370  21.051  13.314
72957NA+    NA+45250   7.838  34.022   1.220
72958NA+    NA+45251   2.256   1.298   4.207
72959NA+    NA+45252  19.104  23.017  12.046
72960NA+    NA+45253  44.466  41.338   3.848
72961NA+    NA+45254   6.319  11.189   2.864
72962NA+    NA+45255  26.514  15.773   3.352
72963NA+    NA+45256  34.548  34.046  11.923
72964NA+    NA+45257   0.763  43.881   2.213
72965NA+    NA+45258  44.008  26.468   4.294
72966NA+    NA+45259  25.208  11.310   0.381
72967NA+    NA+45260  42.297  27.008  11.575
72968NA+    NA+45261  44.852  11.719   0.324
72969NA+    NA+45262   6.230  18.067  14.363
72970NA+    NA+45263   6.375  41.421  10.081
72971NA+    NA+45264  31.104  36.926   2.682
72972NA+    NA+45265  19.095  39.512  10.524
72973NA+    NA+45266  43.824   9.865  14.437
72974NA+    NA+45267   9.352  38.045  14.023
72975NA+    NA+45268   3.294   6.411  12.013
72976NA+    NA+45269  12.779   5.837   4.779
72977NA+    NA+45270  36.440  14.132   1.415
72978NA+    NA+45271   1.435  25.482   2.710
72979NA+    NA+45272  20.110  29.162   3.684
72980NA+    NA+45273  11.853   2.459  14.341
72981NA+    NA+45274  24.579  15.604   1.788
72982NA+    NA+45275  36.092  19.076  14.376
72983NA+    NA+45276  31.622  17.595   4.211
72984NA+    NA+45277  10.338   4.924   3.788
72985NA+    NA+45278   2.856  44.418   0.368
72986NA+    NA+45279  12.239  38.969  13.906
72987NA+    NA+45280  11.684  10.299  12.931
72988NA+    NA+45281  23.542  37.081   3.838
72989NA+    NA+45282  23.500  39.542  14.443
72990NA+    NA+45283  38.445  14.135   1.396
72991NA+    NA+45284   9.758  40.934   2.184
72992NA+    NA+45285  14.164  16.568  13.318
72993NA+    NA+45286  16.119   9.755  11.534
72994NA+    NA+45287  41.513  44.394   2.320
72995NA+    NA+45288   3.348  24.510  13.351
72996NA+    NA+45289  39.452  22.708  10.119
72997NA+    NA+45290  12.840  12.675  13.880
72998NA+    NA+45291  32.601  32.529  13.440
72999NA+    NA+45292  38.541  31.983   5.248
73000NA+    NA+45293   7.213  13.613   4.796
73001NA+    NA+45294  30.062  43.332  14.862
73002NA+    NA+45295  16.170  28.503  11.916
73003NA+    NA+45296  21.569   0.372  14.939
73004NA+    NA+45297  36.870  25.572  14.509
73005NA+    NA+45298  33.462  30.940  10.922
73006NA+    NA+45299  40.999  44.859  11.610
73007NA+    NA+45300  14.692  44.841  10.543
73008NA+    NA+45301  13.795  44.754  14.947
73009NA+    NA+45302   9.199  43.502  13.802
73010NA+    NA+45303  27.450  42.381   0.408
73011NA+    NA+45304  39.974  26.084  12.941
73012NA+    NA+45305  32.016  32.906   9.928
73013NA+    NA+45306  23.067  39.840   3.288
73014NA+    NA+45307   7.376   1.832   1.210
73015NA+    NA+45308  22.126   2.404   3.753
73016NA+    NA+45309  27.449  44.367   3.284
73017NA+    NA+45310  16.098  19.260   1.216
73018NA+    NA+45311  32.018  42.968  14.317
73019NA+    NA+45312   8.386  44.905  13.961
73020NA+    NA+45313  18.595   6.733  11.548
73021NA+    NA+45314   3.778  15.233   1.778
73022NA+    NA+45315  25.089  16.305  14.406
73023NA+    NA+45316  36.592  40.530   1.430
73024NA+    NA+45317  13.722  25.600   2.357
73025NA+    NA+45318  17.197  32.618   0.961
73026NA+    NA+45319  29.513  23.495  12.046
73027NA+    NA+45320  41.398  20.168  11.569
73028NA+    NA+45321  24.122   0.486   9.959
73029NA+    NA+45322  23.227  15.238   1.270
73030NA+    NA+45323  43.300  33.094  13.537
73031NA+    NA+45324   7.681  16.730  10.426
73032NA+    NA+45325   4.717   0.353  10.961
73033NA+    NA+45326  37.000   5.217  14.307
73034NA+    NA+45327   6.800   8.216   3.157
73035NA+    NA+45328  12.236  22.685  14.968
73036NA+    NA+45329  37.918   5.758  14.942
73037NA+    NA+45330  21.244  19.725  13.546
73038NA+    NA+45331  43.896  37.949  10.990
73039NA+    NA+45332  38.899  33.098   1.337
73040NA+    NA+45333  29.535   3.367  10.592
73041NA+    NA+45334  26.657  41.324  12.891
73042NA+    NA+45335  19.150   7.802  11.943
73043NA+    NA+45336   8.171   9.781   0.820
73044NA+    NA+45337  40.842  19.245  11.445
73045NA+    NA+45338  43.407  35.929   4.147
73046NA+    NA+45339  26.617  11.262   0.931
73047NA+    NA+45340  17.119   1.349   0.801
73048NA+    NA+45341  25.636  13.334  12.077
73049NA+    NA+45342  16.774   9.188   0.419
73050NA+    NA+45343   7.903  13.736   4.304
73051NA+    NA+45344   3.847  35.090   4.209
73052NA+    NA+45345  30.649  10.693  11.468
73053NA+    NA+45346  30.599  27.951   2.845
73054NA+    NA+45347  32.073   8.295   0.892
73055NA+    NA+45348  25.544   7.415  11.096
73056NA+    NA+45349  27.173  20.609  14.913
73057NA+    NA+45350  17.724   7.859  14.955
73058NA+    NA+45351   4.829  11.762   4.163
73059NA+    NA+45352  39.927  10.863  12.564
73060NA+    NA+45353  16.750   8.310   3.773
73061NA+    NA+45354  21.038  42.882  10.993
73062NA+    NA+45355  30.576   8.819  11.021
73063NA+    NA+45356  41.893  37.460   5.159
73064NA+    NA+45357  18.585  24.593   1.216
73065NA+    NA+45358  21.730   3.788   1.332
73066NA+    NA+45359  17.187   5.788  14.011
73067NA+    NA+45360  31.437  35.943   4.325
73068NA+    NA+45361   1.341  42.401  14.912
73069NA+    NA+45362  40.407  25.614  10.969
73070NA+    NA+45363  15.701  42.873  12.843
73071NA+    NA+45364  22.601   7.302  11.073
73072NA+    NA+45365  19.600  40.030   0.743
73073NA+    NA+45366   3.760  29.929  12.903
73074NA+    NA+45367  39.370   6.911  11.045
73075NA+    NA+45368   5.197  12.624  13.880
73076NA+    NA+45369  39.314  11.806  13.379
73077NA+    NA+45370  21.157  10.676   5.266
73078NA+    NA+45371  13.164   1.478  12.056
73079NA+    NA+45372  31.485  33.402  11.544
73080NA+    NA+45373   3.406   3.943   0.394
73081NA+    NA+45374   0.976  24.698   0.921
73082NA+    NA+45375   5.737  24.617   2.179
73083NA+    NA+45376  13.695  42.388  13.507
73084NA+    NA+45377  32.070  31.097  14.438
73085NA+    NA+45378  11.230   5.908   3.315
73086NA+    NA+45379   9.668  35.485   4.760
73087NA+    NA+45380  17.191  22.116   4.328
73088NA+    NA+45381  40.372  31.568  13.892
73089NA+    NA+45382  17.069   7.910  13.910
73090NA+    NA+45383   4.356  13.347  13.454
73091NA+    NA+45384  40.438  18.599  12.828
73092NA+    NA+45385  17.724  36.011   1.703
73093NA+    NA+45386  21.141  30.643  11.931
73094NA+    NA+45387  25.994  25.034  10.625
73095NA+    NA+45388  33.483  37.388   5.140
73096NA+    NA+45389  23.992  36.362  11.112
73097NA+    NA+45390  28.023   2.304  13.407
73098NA+    NA+45391   9.862  25.029  12.908
73099NA+    NA+45392   2.245  22.239  14.810
73100NA+    NA+45393  10.237  44.377  14.892
73101NA+    NA+45394   4.304  42.482   1.767
73102NA+    NA+45395  18.145   2.260   3.714
73103NA+    NA+45396  32.055  20.263  14.281
73104NA+    NA+45397  38.904  41.530   2.378
73105NA+    NA+45398   5.710  15.241  13.504
73106NA+    NA+45399  35.103  39.875   2.345
73107NA+    NA+45400  44.372  29.644   2.276
73108NA+    NA+45401  39.918  32.427   1.758
73109NA+    NA+45402  18.740  11.373  13.822
73110NA+    NA+45403  21.147   7.277  10.950
73111NA+    NA+45404  29.161  40.327  12.001
73112NA+    NA+45405  41.491  27.683   2.788
73113NA+    NA+45406  28.653  36.066  10.623
73114NA+    NA+45407  44.282  11.147  12.376
73115NA+    NA+45408  13.326  19.221  11.075
73116NA+    NA+45409   3.452  33.416  11.973
73117NA+    NA+45410   5.770  44.832   3.267
73118NA+    NA+45411  20.629   6.727   0.391
73119NA+    NA+45412   9.868  19.766   3.228
73120NA+    NA+45413   8.200  26.106  13.438
73121NA+    NA+45414  21.665  40.841  14.938
73122NA+    NA+45415  27.101   4.323  11.546
73123NA+    NA+45416  43.789   8.896  11.882
73124NA+    NA+45417  38.958  44.393   1.761
73125NA+    NA+45418  29.469  22.630   1.288
73126NA+    NA+45419  18.178  24.202   0.412
73127NA+    NA+45420  39.991   3.943   2.376
73128NA+    NA+45421  40.845  32.552   3.693
73129NA+    NA+45422  41.993   2.340  14.362
73130NA+    NA+45423  30.571  25.129   3.295
73131NA+    NA+45424  34.500   3.251  12.951
73132NA+    NA+45425  20.134  41.825   2.678
73133NA+    NA+45426  40.042  40.414  11.385
73134NA+    NA+45427  18.165   1.732  12.980
73135NA+    NA+45428  30.975  17.067  13.802
73136NA+    NA+45429  21.028  39.487   4.702
73137NA+    NA+45430  42.441  43.782   1.766
73138NA+    NA+45431  40.476  44.470   3.208
73139NA+    NA+45432  43.488  35.473  12.426
73140NA+    NA+45433  31.951  20.687  11.995
73141NA+    NA+45434  30.966  28.960  10.910
73142NA+    NA+45435  15.166  21.522   3.856
73143NA+    NA+45436  33.508  31.626  10.901
73144NA+    NA+45437  28.646  34.519   1.759
73145NA+    NA+45438  22.547  11.713   4.126
73146NA+    NA+45439  44.372  31.631   0.782
73147NA+    NA+45440   3.312  15.124  12.511
73148NA+    NA+45441  11.867   0.277   2.316
73149NA+    NA+45442  18.689   9.808   1.396
73150NA+    NA+45443  30.100  32.001  11.527
73151NA+    NA+45444   0.486   8.366   3.654
73152NA+    NA+45445  29.119  39.350  11.530
73153NA+    NA+45446  25.573   5.247  13.356
73154NA+    NA+45447  25.019   2.888   2.877
73155NA+    NA+45448   2.410  24.646  13.004
73156NA+    NA+45449  13.114  11.331  12.091
73157NA+    NA+45450  37.901  35.060   1.276
73158NA+    NA+45451  15.805  37.394  11.109
73159NA+    NA+45452  10.747  31.601  12.838
73160NA+    NA+45453  17.656  31.504  11.585
73161NA+    NA+45454   7.408  27.134  13.916
73162NA+    NA+45455   3.754  10.720  10.441
73163NA+    NA+45456  35.464  29.978   0.794
73164NA+    NA+45457  31.924  32.059  11.584
73165NA+    NA+45458  37.396   8.190  11.090
73166NA+    NA+45459   3.338  21.262   5.139
73167NA+    NA+45460  36.420   7.410  11.974
73168NA+    NA+45461  18.700  12.662   1.443
73169NA+    NA+45462  29.108  41.037   2.762
73170NA+    NA+45463   2.851   7.189  13.530
73171NA+    NA+45464  27.689  29.111  11.512
73172NA+    NA+45465   0.323   5.731  11.501
73173NA+    NA+45466   2.278   5.829  10.102
73174NA+    NA+45467  26.138   4.212   5.724
73175NA+    NA+45468  21.079  32.623   3.799
73176NA+    NA+45469  30.487  12.746  14.425
73177NA+    NA+45470   8.715  36.056  11.947
73178NA+    NA+45471  21.229  26.103   4.141
73179NA+    NA+45472  23.048   2.455   3.728
73180NA+    NA+45473   8.163  25.151  13.357
73181NA+    NA+45474   0.946  12.267   4.695
73182NA+    NA+45475  36.585  32.998   3.677
73183NA+    NA+45476  15.162   4.941   4.204
73184NA+    NA+45477   1.296  31.474  13.889
73185NA+    NA+45478   3.907  40.885  11.541
73186NA+    NA+45479   7.817  18.061   0.796
73187NA+    NA+45480  21.517  41.425  11.555
73188NA+    NA+45481  41.817   8.390   4.772
73189NA+    NA+45482  18.734  21.746   0.410
73190NA+    NA+45483  36.842  11.245   3.336
73191NA+    NA+45484  34.553  44.408   4.726
73192NA+    NA+45485  33.509   2.923  13.427
73193NA+    NA+45486   9.742   9.205   3.374
73194NA+    NA+45487   3.234  12.817  13.021
73195NA+    NA+45488  12.630  12.629  14.889
73196NA+    NA+45489  13.220  42.420  11.901
73197NA+    NA+45490  21.680  25.220   1.331
73198NA+    NA+45491  12.185  29.610   0.307
73199NA+    NA+45492  43.797  40.838   4.634
73200NA+    NA+45493  16.757   8.370   0.947
73201NA+    NA+45494  41.326   2.724   4.762
73202NA+    NA+45495  15.324  15.106  12.031
73203NA+    NA+45496   5.866  23.234   2.733
73204NA+    NA+45497   8.752   8.357  13.434
73205NA+    NA+45498  32.043  19.592   2.333
73206NA+    NA+45499  44.942  12.146  11.510
73207NA+    NA+45500  44.336  21.525   4.718
73208NA+    NA+45501  18.228  21.092   3.825
73209NA+    NA+45502  42.816  26.188  13.015
73210NA+    NA+45503  36.530  34.109   2.707
73211NA+    NA+45504  24.607   1.284  12.515
73212NA+    NA+45505  28.500   0.380  11.927
73213NA+    NA+45506  31.032   9.180  11.006
73214NA+    NA+45507  13.686  26.066   0.392
73215NA+    NA+45508  37.984  10.640   2.404
73216NA+    NA+45509  37.060   2.792   3.676
73217NA+    NA+45510  26.958  41.016  14.982
73218NA+    NA+45511  31.116  11.724   0.412
73219NA+    NA+45512   6.802  19.762  11.126
73220NA+    NA+45513  21.670   4.907   0.324
73221NA+    NA+45514  42.500  40.024  11.856
73222NA+    NA+45515   9.781   1.781  10.960
73223NA+    NA+45516  20.032   2.465   4.687
73224NA+    NA+45517  38.011  41.996   3.755
73225NA+    NA+45518  25.041  19.598  10.970
73226NA+    NA+45519  25.128  33.520   1.302
73227NA+    NA+45520  20.195  36.972   1.376
73228NA+    NA+45521  44.836  39.957   3.286
73229NA+    NA+45522  41.850  39.991  12.358
73230NA+    NA+45523  44.796   1.256  12.471
73231NA+    NA+45524   9.183  35.528   5.755
73232NA+    NA+45525  40.968   1.296   4.124
73233NA+    NA+45526  28.183  14.132  11.549
73234NA+    NA+45527  16.644  10.849  11.518
73235NA+    NA+45528  42.786  21.170   0.376
73236NA+    NA+45529  19.541  35.852   0.261
73237NA+    NA+45530  10.307  22.027  14.765
73238NA+    NA+45531  20.646  29.442  10.418
73239NA+    NA+45532  25.109  32.419  14.502
73240NA+    NA+45533  11.830  28.050   0.481
73241NA+    NA+45534  44.469  39.930   4.654
73242NA+    NA+45535  18.214  10.658   2.391
73243NA+    NA+45536  28.138  43.832  10.481
73244NA+    NA+45537   9.779   0.981  13.876
73245NA+    NA+45538  32.928   5.818  14.418
73246NA+    NA+45539  30.075  10.360  10.609
73247NA+    NA+45540  29.933  32.908  12.438
73248NA+    NA+45541  23.720   1.416  13.976
73249NA+    NA+45542  34.585  13.647  14.309
73250NA+    NA+45543  39.452   2.297   2.357
73251NA+    NA+45544   8.311   5.713   1.855
73252NA+    NA+45545  15.750  22.040  12.905
73253NA+    NA+45546  20.533  20.572   4.778
73254NA+    NA+45547   4.297  15.736   4.834
73255NA+    NA+45548  21.209  43.448   4.767
73256NA+    NA+45549   6.874  24.496   4.740
73257NA+    NA+45550  17.680  37.871   1.808
73258NA+    NA+45551  38.498  34.089   1.277
73259NA+    NA+45552   9.772   2.266  12.072
73260NA+    NA+45553  32.077  18.178   3.832
73261NA+    NA+45554  12.650  23.591  11.417
73262NA+    NA+45555  27.575   1.867   0.780
73263NA+    NA+45556  12.209  27.109   1.732
73264NA+    NA+45557  14.705  36.526   0.323
73265NA+    NA+45558   9.792  17.801   0.297
73266NA+    NA+45559   2.847   1.760  11.568
73267NA+    NA+45560  44.867   5.220   1.253
73268NA+    NA+45561  41.009  28.981  12.956
73269NA+    NA+45562  33.584  38.514  10.517
73270NA+    NA+45563   3.310  33.547   1.442
73271NA+    NA+45564  37.889  21.564   4.751
73272NA+    NA+45565  35.901  15.612   0.327
73273NA+    NA+45566  15.264  14.228  11.072
73274NA+    NA+45567  34.049  12.847   3.845
73275NA+    NA+45568  44.753   6.373   4.250
73276NA+    NA+45569  27.506  41.426   0.831
73277NA+    NA+45570  24.089  15.116  13.422
73278NA+    NA+45571  33.982   5.231  11.878
73279NA+    NA+45572   0.936   3.848  13.323
73280NA+    NA+45573  32.088  32.066   3.713
73281NA+    NA+45574   0.299  36.432  13.308
73282NA+    NA+45575  41.294  33.988   3.744
73283NA+    NA+45576  12.854  44.437   1.364
73284NA+    NA+45577  29.587  43.941   0.736
73285NA+    NA+45578  15.319  25.170  13.330
73286NA+    NA+45579   3.895  15.158  11.968
73287NA+    NA+45580   4.374   1.459  14.476
73288NA+    NA+45581  33.967  22.507   0.848
73289NA+    NA+45582  11.796  32.595   0.476
73290NA+    NA+45583  13.658  24.490   3.334
73291NA+    NA+45584  11.866   5.262   2.379
73292NA+    NA+45585   2.268  10.307  11.481
73293NA+    NA+45586  30.991   9.166  10.514
73294NA+    NA+45587  15.183  32.976  11.107
73295NA+    NA+45588   5.396  42.999  11.503
73296NA+    NA+45589  11.751  44.324  13.060
73297NA+    NA+45590  37.857  37.053   3.312
73298NA+    NA+45591  34.989   2.271   2.762
73299NA+    NA+45592  24.032  11.157   2.744
73300NA+    NA+45593  20.530   7.877   3.808
73301NA+    NA+45594  10.715   0.305   2.254
73302NA+    NA+45595  39.950  36.577  11.968
73303NA+    NA+45596  16.198  39.845  14.325
73304NA+    NA+45597   4.754   3.222   1.785
73305NA+    NA+45598  15.125   9.817  11.934
73306NA+    NA+45599  16.262   7.260  12.373
73307NA+    NA+45600  31.007  16.660  11.563
73308NA+    NA+45601  25.569  38.065  12.538
73309NA+    NA+45602  11.347  27.488  11.041
73310NA+    NA+45603   9.393  19.623   2.351
73311NA+    NA+45604  12.243  43.904  12.536
73312NA+    NA+45605  21.662   5.923  13.803
73313NA+    NA+45606   7.345  34.954   4.315
73314NA+    NA+45607  28.443  34.949   1.327
73315NA+    NA+45608   5.226  26.522   1.859
73316NA+    NA+45609  16.642  41.385  12.031
73317NA+    NA+45610  27.949  10.772  10.923
73318NA+    NA+45611  11.731   6.339  12.537
73319NA+    NA+45612  34.052  33.575  11.919
73320NA+    NA+45613  23.068   3.353  12.827
73321NA+    NA+45614  17.606   3.817  13.954
73322NA+    NA+45615   2.807  41.292   3.260
73323NA+    NA+45616  26.971  15.158  13.947
73324NA+    NA+45617  13.286  26.012  12.937
73325NA+    NA+45618   0.468  27.182  10.976
73326NA+    NA+45619   4.732  36.879  10.928
73327NA+    NA+45620  13.799  24.162   2.408
73328NA+    NA+45621   7.341  19.656   0.851
73329NA+    NA+45622  40.988   3.719  12.833
73330NA+    NA+45623  22.624  32.502   1.417
73331NA+    NA+45624   6.841  41.310   4.827
73332NA+    NA+45625  41.972  34.502   2.383
73333NA+    NA+45626   8.392  16.236  12.071
73334NA+    NA+45627  42.982   5.929   3.239
73335NA+    NA+45628  21.130   3.723   0.350
73336NA+    NA+45629  25.561  34.389   4.746
73337NA+    NA+45630  16.075  37.405  14.842
73338NA+    NA+45631  44.860   2.282  10.610
73339NA+    NA+45632  19.165  26.475   3.856
73340NA+    NA+45633  24.690  11.206   0.328
73341NA+    NA+45634  14.769   3.795  14.292
73342NA+    NA+45635  20.639  38.000  14.960
73343NA+    NA+45636   1.903  15.672  13.454
73344NA+    NA+45637  37.087  24.229   3.231
73345NA+    NA+45638  44.310   5.923   3.750
73346NA+    NA+45639  28.007  21.615  10.980
73347NA+    NA+45640  38.491  28.539  12.986
73348NA+    NA+45641  32.475   8.167   1.231
73349NA+    NA+45642  44.286  34.990   4.349
73350NA+    NA+45643  26.578  12.285  13.844
73351NA+    NA+45644  22.237  36.853  13.365
73352NA+    NA+45645  36.532  38.028  12.882
73353NA+    NA+45646  32.585   3.255   2.381
73354NA+    NA+45647   7.720  12.180  14.510
73355NA+    NA+45648  37.568   6.266  13.357
73356NA+    NA+45649  36.482   1.428   1.826
73357NA+    NA+45650  31.057   6.221   1.793
73358NA+    NA+45651  30.416  33.900   4.224
73359NA+    NA+45652  26.020   4.794  13.884
73360NA+    NA+45653  36.848   0.826  14.939
73361NA+    NA+45654   1.790  34.539  11.599
73362NA+    NA+45655  34.516   0.404  10.889
73363NA+    NA+45656  43.318  27.508   4.315
73364NA+    NA+45657   0.875  26.038  11.946
73365NA+    NA+45658   5.432  37.413   1.328
73366NA+    NA+45659   3.409  43.452  11.378
73367NA+    NA+45660  44.364  23.108  12.470
73368NA+    NA+45661  44.011  38.915   1.835
73369NA+    NA+45662  29.666  32.969   4.677
73370NA+    NA+45663  38.372  27.500   2.372
73371NA+    NA+45664  29.090  21.223  12.569
73372NA+    NA+45665  29.059  43.297   2.248
73373NA+    NA+45666  31.012  27.551  12.834
73374NA+    NA+45667  20.255   4.922  10.000
73375NA+    NA+45668  34.395   5.720  11.546
73376NA+    NA+45669  43.894  14.246   2.888
73377NA+    NA+45670  42.800   0.278   3.336
73378NA+    NA+45671  25.714  20.197   0.454
73379NA+    NA+45672   9.191  10.860   0.944
73380NA+    NA+45673  37.015  12.321  13.063
73381NA+    NA+45674   0.922  39.979   9.935
73382NA+    NA+45675  38.420   0.753  11.554
73383NA+    NA+45676  13.287  19.661   1.761
73384NA+    NA+45677  26.598  21.730  14.997
73385NA+    NA+45678  14.321  36.976   3.345
73386NA+    NA+45679  40.451   6.751  13.415
73387NA+    NA+45680   0.373   9.745  12.988
73388NA+    NA+45681  19.688  22.648   5.157
73389NA+    NA+45682  16.257  24.700   0.446
73390NA+    NA+45683  34.040  30.636   3.835
73391NA+    NA+45684  44.810  25.527  11.506
73392NA+    NA+45685  37.925  35.414  13.845
73393NA+    NA+45686   3.220  39.466  10.895
73394NA+    NA+45687   5.381   0.451  11.503
73395NA+    NA+45688  17.574  29.044  11.864
73396NA+    NA+45689  25.668  33.541  12.851
73397NA+    NA+45690  15.086  44.318   3.274
73398NA+    NA+45691  10.348   6.917   4.315
73399NA+    NA+45692  38.908  17.764   1.696
73400NA+    NA+45693  18.292  17.105  10.614
73401NA+    NA+45694  26.583   5.820  10.066
73402NA+    NA+45695  36.503  20.658  11.548
73403NA+    NA+45696  34.083  34.046   1.448
73404NA+    NA+45697   0.487  39.323  11.967
73405NA+    NA+45698  36.573  22.156  13.862
73406NA+    NA+45699  26.687  30.907  11.604
73407NA+    NA+45700  11.358  28.176   2.796
73408NA+    NA+45701  39.843   9.828   4.169
73409NA+    NA+45702  32.410  18.598  11.099
73410NA+    NA+45703  19.584  36.504  12.443
73411NA+    NA+45704  18.687  19.569  12.458
73412NA+    NA+45705  26.054   9.646   3.751
73413NA+    NA+45706  22.691   8.829  14.032
73414NA+    NA+45707  32.577  36.570  12.923
73415NA+    NA+45708   3.355   3.895  14.897
73416NA+    NA+45709   8.843   6.305   3.767
73417NA+    NA+45710  35.102   8.895  12.511
73418NA+    NA+45711  28.097   6.314  10.580
73419NA+    NA+45712  23.220  44.828   2.304
73420NA+    NA+45713  25.568   3.418   5.118
73421NA+    NA+45714  43.291  19.094  13.909
73422NA+    NA+45715  11.676   0.987  10.965
73423NA+    NA+45716  25.054   0.311  13.922
73424NA+    NA+45717   3.229   6.313   0.962
73425NA+    NA+45718  31.472  26.580  12.866
73426NA+    NA+45719  11.752  14.710   1.375
73427NA+    NA+45720  22.069  16.251  13.867
73428NA+    NA+45721  27.044   6.907  10.642
73429NA+    NA+45722   8.364  26.166  14.867
73430NA+    NA+45723  38.955  23.031   1.812
73431NA+    NA+45724  43.972  20.584   3.263
73432NA+    NA+45725  20.263  44.489  11.121
73433NA+    NA+45726  35.594  18.179   1.769
73434NA+    NA+45727  30.068   9.711  10.482
73435NA+    NA+45728  12.307  24.065  13.887
73436NA+    NA+45729  44.798  26.056  12.931
73437NA+    NA+45730  19.112  33.095  10.447
73438NA+    NA+45731  32.493   5.392   3.262
73439NA+    NA+45732   6.798  14.340  14.906
73440NA+    NA+45733  44.329  36.562  12.568
73441NA+    NA+45734  40.351  30.967   4.751
73442NA+    NA+45735  18.164  22.605   0.243
73443NA+    NA+45736  25.699  44.467   3.345
73444NA+    NA+45737  10.146  26.608   4.188
73445NA+    NA+45738  34.043  41.308  12.378
73446NA+    NA+45739  32.636  25.040  10.432
73447NA+    NA+45740   7.709  38.402  13.951
73448NA+    NA+45741  21.093  18.210   0.898
73449NA+    NA+45742  13.609  21.630  14.377
73450NA+    NA+45743  28.984  15.174   3.228
73451NA+    NA+45744  10.245  39.396  14.420
73452NA+    NA+45745  24.118  30.509   1.702
73453NA+    NA+45746  12.142  18.215   3.219
73454NA+    NA+45747  19.757  40.321   0.733
73455NA+    NA+45748   0.270  21.527  13.361
73456NA+    NA+45749   9.275  16.086   2.671
73457NA+    NA+45750   3.754  33.488   0.745
73458NA+    NA+45751  38.441   1.740  12.538
73459NA+    NA+45752  42.364  15.118  14.356
73460NA+    NA+45753   9.246  21.073   0.957
73461NA+    NA+45754  21.097  26.486  11.975
73462NA+    NA+45755  37.959  28.165   0.827
73463NA+    NA+45756  40.436  32.047  11.926
73464NA+    NA+45757  39.855  14.218  13.430
73465NA+    NA+45758  34.574   0.963  14.442
73466NA+    NA+45759  40.322  16.603  14.883
73467NA+    NA+45760  19.178  18.205  14.496
73468NA+    NA+45761  35.405  15.085  14.912
73469NA+    NA+45762  19.129  31.135  12.823
73470NA+    NA+45763  15.755  28.990   0.332
73471NA+    NA+45764  26.702  19.762   2.390
73472NA+    NA+45765  44.504  21.546   4.154
73473NA+    NA+45766  13.714  20.617   0.418
73474NA+    NA+45767  44.480  13.177   4.126
73475NA+    NA+45768  20.561  24.070   4.124
73476NA+    NA+45769  16.235  18.702   2.195
73477NA+    NA+45770  36.572  28.654  10.972
73478NA+    NA+45771  12.278  24.045  12.400
73479NA+    NA+45772  26.566   8.175   4.244
73480NA+    NA+45773  28.651  36.464  10.521
73481NA+    NA+45774  19.085  11.624   4.173
73482NA+    NA+45775  32.959  31.532   3.161
73483NA+    NA+45776  29.578   8.398   3.853
73484NA+    NA+45777  26.981   3.802   2.673
73485NA+    NA+45778  17.277  25.049   4.687
73486NA+    NA+45779  41.350  27.458   3.306
73487NA+    NA+45780  18.788  21.661  14.291
73488NA+    NA+45781  37.003  13.280  12.440
73489NA+    NA+45782   6.410   7.304   0.352
73490NA+    NA+45783  31.939  37.933   3.779
73491NA+    NA+45784   0.368  33.067   0.729
73492NA+    NA+45785  35.372  25.479   4.168
73493NA+    NA+45786  31.415  12.833  11.966
73494NA+    NA+45787  15.709   1.314   4.249
73495NA+    NA+45788  43.484   0.845  12.962
73496NA+    NA+45789  28.442  30.141   4.671
73497NA+    NA+45790  11.654  33.035   0.874
73498NA+    NA+45791  39.014  10.806  13.938
73499NA+    NA+45792  19.738  19.066   1.794
73500NA+    NA+45793   4.395  42.877   4.169
73501NA+    NA+45794  20.766  20.598  11.032
73502NA+    NA+45795  22.142   1.845  11.416
73503NA+    NA+45796  21.661  40.938   3.369
73504NA+    NA+45797  13.345  27.593   0.772
73505NA+    NA+45798  21.552   3.820  12.052
73506NA+    NA+45799   4.212  42.011   0.786
73507NA+    NA+45800  39.926  34.942   2.384
73508NA+    NA+45801  35.514  28.110   2.347
73509NA+    NA+45802  21.232   8.786  14.961
73510NA+    NA+45803  11.291   2.964   1.838
73511NA+    NA+45804  15.740   0.490   2.217
73512NA+    NA+45805   1.246  28.101  10.888
73513NA+    NA+45806  27.480   8.736  13.819
73514NA+    NA+45807   4.390   6.740   0.395
73515NA+    NA+45808  39.368  20.637   1.796
73516NA+    NA+45809  29.528  37.952   2.196
73517NA+    NA+45810  40.047  41.451   2.383
73518NA+    NA+45811  20.560  34.510  14.360
73519NA+    NA+45812  35.057  35.001  10.482
73520NA+    NA+45813  16.705  43.011  13.991
73521NA+    NA+45814  42.294  39.524  14.329
73522NA+    NA+45815  34.580   4.317   3.267
73523NA+    NA+45816  27.097   6.317  10.004
73524NA+    NA+45817  43.956  13.843  14.019
73525NA+    NA+45818  21.215  34.954   4.676
73526NA+    NA+45819  44.371  44.998  11.496
73527NA+    NA+45820  41.506  17.262   4.228
73528NA+    NA+45821  21.622  12.812   3.761
73529NA+    NA+45822  34.507  27.465  11.029
73530NA+    NA+45823  38.852  18.669   2.846
73531NA+    NA+45824  29.544  27.480   1.745
73532NA+    NA+45825   0.792  25.470   1.432
73533NA+    NA+45826  19.698  25.220  12.517
73534NA+    NA+45827  19.742  32.918  14.318
73535NA+    NA+45828  21.756  26.105  10.582
73536NA+    NA+45829  35.025  28.013   4.251
73537NA+    NA+45830  44.465   8.696  14.307
73538NA+    NA+45831  42.367  41.350   2.777
73539NA+    NA+45832  10.346  40.534  12.550
73540NA+    NA+45833   8.203  13.749   2.664
73541NA+    NA+45834  38.539  10.658  10.549
73542NA+    NA+45835  14.131  11.157   2.338
73543NA+    NA+45836  20.045  24.531  12.354
73544NA+    NA+45837  15.275   2.932   0.946
73545NA+    NA+45838  20.703  14.746  12.480
73546NA+    NA+45839  10.355  35.453   3.377
73547NA+    NA+45840   7.319  20.213   2.841
73548NA+    NA+45841   4.262  26.135  10.461
73549NA+    NA+45842   0.383  19.283  13.347
73550NA+    NA+45843  34.915  19.547   4.605
73551NA+    NA+45844  23.717  20.694   4.637
73552NA+    NA+45845  19.628  24.007  12.375
73553NA+    NA+45846  34.876  10.150  12.954
73554NA+    NA+45847  25.689  13.696  14.936
73555NA+    NA+45848  16.592  37.986   2.856
73556NA+    NA+45849  32.467  26.956   2.703
73557NA+    NA+45850  43.991  15.143  12.439
73558NA+    NA+45851  30.601   0.359   2.292
73559NA+    NA+45852  36.561  27.171   0.924
73560NA+    NA+45853  28.961   4.738   1.389
73561NA+    NA+45854  19.765   3.375  14.773
73562NA+    NA+45855   2.235  37.969   4.115
73563NA+    NA+45856  13.609  23.114   4.654
73564NA+    NA+45857  19.282   4.339   2.849
73565NA+    NA+45858  40.514   4.838   4.185
73566NA+    NA+45859  23.572   3.282  11.983
73567NA+    NA+45860  26.541  39.357   4.795
73568NA+    NA+45861  28.619  17.228  10.526
73569NA+    NA+45862  16.675   7.815  12.501
73570NA+    NA+45863   3.747  42.345  14.995
73571NA+    NA+45864  37.931  22.533  11.930
73572NA+    NA+45865  10.313   1.460  12.067
73573NA+    NA+45866   7.848  36.021   1.923
73574NA+    NA+45867   5.857   7.173   3.293
73575NA+    NA+45868  11.176  11.716  14.378
73576NA+    NA+45869  11.253  41.904   3.645
73577NA+    NA+45870  39.820   5.932  12.486
73578NA+    NA+45871  15.276   9.679   2.289
73579NA+    NA+45872  22.252   3.863   3.347
73580NA+    NA+45873  39.018  29.630  13.447
73581NA+    NA+45874  30.417  19.149   3.334
73582NA+    NA+45875  28.517   1.353   3.149
73583NA+    NA+45876   3.268  36.073   0.465
73584NA+    NA+45877  20.226  17.650  14.853
73585NA+    NA+45878  32.450  11.841   0.334
73586NA+    NA+45879  28.460  10.188  10.515
73587NA+    NA+45880  27.550  30.639  14.450
73588NA+    NA+45881  38.334  12.712   2.794
73589NA+    NA+45882  30.072   8.709  11.470
73590NA+    NA+45883  33.088   8.183   3.370
73591NA+    NA+45884   8.716  31.636   3.789
73592NA+    NA+45885  19.076  29.437   1.829
73593NA+    NA+45886  35.467   4.384  11.996
73594NA+    NA+45887  21.041  10.835  10.452
73595NA+    NA+45888  12.188  22.060  14.948
73596NA+    NA+45889  29.465  21.096   4.603
73597NA+    NA+45890   1.361  43.468  13.934
73598NA+    NA+45891  20.079  26.529   2.197
73599NA+    NA+45892  29.162  37.564  11.956
73600NA+    NA+45893   9.235  25.554  10.923
73601NA+    NA+45894  32.914  22.523  10.412
73602NA+    NA+45895  14.698  33.565  13.051
73603NA+    NA+45896   0.870  10.308  10.537
73604NA+    NA+45897  40.833  32.963  13.931
73605NA+    NA+45898   5.245   4.409  14.995
73606NA+    NA+45899   7.412  42.845   0.824
73607NA+    NA+45900  35.533   1.786  13.891
73608NA+    NA+45901  38.427   4.708  11.064
73609NA+    NA+45902  36.906  15.602  13.455
73610NA+    NA+45903  43.484   2.752   3.367
73611NA+    NA+45904  17.126  16.638  14.858
73612NA+    NA+45905  40.421   7.215  12.361
73613NA+    NA+45906  12.672  34.535  11.894
73614NA+    NA+45907  38.865   8.843  12.945
73615NA+    NA+45908  33.919   5.419   3.675
73616NA+    NA+45909  11.795  29.428   3.820
73617NA+    NA+45910  15.811  35.436   4.711
73618NA+    NA+45911  29.553  36.913   1.247
73619NA+    NA+45912  36.543  28.965   4.215
73620NA+    NA+45913  23.576  41.293   0.292
73621NA+    NA+45914   1.381  35.082   2.292
73622NA+    NA+45915  12.667  21.683   2.284
73623NA+    NA+45916   2.927  44.938  12.985
73624NA+    NA+45917  21.743  20.162  15.000
73625NA+    NA+45918  40.922  42.309  11.085
73626NA+    NA+45919  10.377  35.959   2.769
73627NA+    NA+45920  44.501  26.506  12.893
73628NA+    NA+45921  23.648  25.606  13.485
73629NA+    NA+45922  38.422  37.999   4.727
73630NA+    NA+45923  41.334  26.638  10.113
73631NA+    NA+45924  32.997  37.522  13.307
73632NA+    NA+45925  16.292  18.192  13.961
73633NA+    NA+45926  39.517  40.329   1.387
73634NA+    NA+45927  23.628  11.784   1.735
73635NA+    NA+45928   9.863  36.074  14.304
73636NA+    NA+45929  40.803  25.999  14.015
73637NA+    NA+45930   3.461  14.780  11.908
73638NA+    NA+45931  32.484  12.716   4.605
73639NA+    NA+45932  31.148   5.233  12.078
73640NA+    NA+45933  33.984  16.262   1.791
73641NA+    NA+45934   0.383   5.828   2.278
73642NA+    NA+45935  12.815   9.687   2.858
73643NA+    NA+45936   3.437   2.851  13.815
73644NA+    NA+45937  16.140  36.455  13.926
73645NA+    NA+45938  28.019  24.501  12.909
73646NA+    NA+45939   7.674  24.105  14.376
73647NA+    NA+45940   6.731  30.012   0.865
73648NA+    NA+45941  42.790  17.226  11.932
73649NA+    NA+45942  31.153  37.965  13.939
73650NA+    NA+45943   7.814  19.100  12.997
73651NA+    NA+45944  23.005   3.253  14.971
73652NA+    NA+45945  13.114  24.166   4.782
73653NA+    NA+45946  20.061  29.439  11.525
73654NA+    NA+45947   2.731  17.558   0.271
73655NA+    NA+45948  12.848  22.132  11.968
73656NA+    NA+45949  31.498   8.386   5.716
73657NA+    NA+45950  15.123  44.296  11.988
73658NA+    NA+45951  29.596  39.019   2.723
73659NA+    NA+45952   6.826   4.826   0.740
73660NA+    NA+45953  27.052  29.149   3.789
73661NA+    NA+45954  39.907  21.257   2.412
73662NA+    NA+45955  34.376  19.569   0.814
73663NA+    NA+45956  29.160   9.335   1.361
73664NA+    NA+45957  36.911  17.236   2.835
73665NA+    NA+45958   6.273  10.212   1.243
73666NA+    NA+45959  27.052  26.099  10.611
73667NA+    NA+45960  15.220  27.972   1.306
73668NA+    NA+45961   1.936   1.738   0.357
73669NA+    NA+45962  35.525  21.734  12.868
73670NA+    NA+45963  32.518  14.215  14.859
73671NA+    NA+45964  14.641   9.674   2.830
73672NA+    NA+45965  13.633  17.639   0.350
73673NA+    NA+45966  19.540  26.607   5.174
73674NA+    NA+45967   7.317  20.728  13.381
73675NA+    NA+45968  12.702  11.225   3.186
73676NA+    NA+45969  21.699  24.677   2.373
73677NA+    NA+45970  42.860  28.122  14.344
73678NA+    NA+45971  38.430  40.428  10.596
73679NA+    NA+45972  44.974   5.908  12.580
73680NA+    NA+45973  26.540  30.122  14.409
73681NA+    NA+45974  42.392  25.024  13.939
73682NA+    NA+45975  35.856  24.219  14.882
73683NA+    NA+45976  11.626  41.312   3.306
73684NA+    NA+45977  29.116  39.444   2.678
73685NA+    NA+45978  34.077  10.287  12.036
73686NA+    NA+45979  16.293  25.076  13.994
73687NA+    NA+45980  37.842   0.937  14.938
73688NA+    NA+45981  29.548  20.242   0.743
73689NA+    NA+45982  27.994  41.509   1.363
73690NA+    NA+45983  35.053  12.650   4.724
73691NA+    NA+45984  32.045  22.658  12.825
73692NA+    NA+45985   9.771  10.265   3.799
73693NA+    NA+45986  28.935   8.258  13.834
73694NA+    NA+45987   1.886  44.955  10.460
73695NA+    NA+45988  35.469   3.259   2.194
73696NA+    NA+45989  14.216  39.556   2.188
73697NA+    NA+45990  44.809  41.815   3.161
73698NA+    NA+45991  25.558  20.662  11.118
73699NA+    NA+45992  23.621  34.544   2.355
73700NA+    NA+45993  30.124  34.586  14.365
73701NA+    NA+45994  41.324  17.227   1.429
73702NA+    NA+45995  11.331  16.643  14.450
73703NA+    NA+45996  35.582  22.561   2.218
73704NA+    NA+45997  23.002  41.443   3.656
73705NA+    NA+45998  39.023   9.889   1.700
73706NA+    NA+45999  25.685  22.559   5.088
73707NA+    NA+46000  44.376  36.873   3.773
73708NA+    NA+46001  41.012   6.805   0.755
73709NA+    NA+46002   2.817  33.615  13.864
73710NA+    NA+46003  37.538  11.638  14.760
73711NA+    NA+46004  41.384  40.040   3.835
73712NA+    NA+46005  24.080  34.010   3.863
73713NA+    NA+46006  29.487  21.073  10.515
73714NA+    NA+46007  17.638  11.361   3.376
73715NA+    NA+46008  11.833  36.876  14.301
73716NA+    NA+46009  31.973  31.075   4.777
73717NA+    NA+46010  41.949   8.242  14.959
73718NA+    NA+46011  23.667  32.467   3.301
73719NA+    NA+46012  32.559  40.463   3.303
73720NA+    NA+46013  23.230  44.996   3.380
73721NA+    NA+46014  42.444  42.846   5.107
73722NA+    NA+46015  25.686  31.455  14.904
73723NA+    NA+46016  39.915  41.363  13.927
73724NA+    NA+46017  22.636   4.283  10.123
73725NA+    NA+46018   1.736   4.742  11.897
73726NA+    NA+46019  11.783  11.837  13.921
73727NA+    NA+46020  26.994   9.336  14.789
73728NA+    NA+46021  15.594  17.222  10.462
73729NA+    NA+46022  10.244  21.638   2.834
73730NA+    NA+46023  32.553   0.320  14.984
73731NA+    NA+46024  22.188  42.289   1.325
73732NA+    NA+46025  17.656  36.383  12.564
73733NA+    NA+46026  10.244  43.941   4.700
73734NA+    NA+46027  29.008  35.913  11.930
73735NA+    NA+46028  26.561  39.853   4.164
73736NA+    NA+46029   6.392  30.926  12.048
73737NA+    NA+46030  15.151  26.650  12.026
73738NA+    NA+46031  19.666   0.272   0.393
73739NA+    NA+46032  40.451  25.553  13.960
73740NA+    NA+46033  32.540  33.558   0.750
73741NA+    NA+46034  10.279   6.716  10.430
73742NA+    NA+46035  33.573  16.709  10.054
73743NA+    NA+46036  44.958  35.581   5.148
73744NA+    NA+46037  33.053  44.487   0.278
73745NA+    NA+46038   8.706  29.128   2.231
73746NA+    NA+46039   0.323  40.965  14.859
73747NA+    NA+46040  32.910  30.467  13.434
73748NA+    NA+46041  17.284   5.391  10.445
73749NA+    NA+46042  42.877  20.649  14.496
73750NA+    NA+46043   9.825  10.341  14.958
73751NA+    NA+46044   8.816  37.513   4.288
73752NA+    NA+46045  44.831  34.953   5.567
73753NA+    NA+46046   1.942  40.870  13.508
73754NA+    NA+46047   8.331  38.508  10.465
73755NA+    NA+46048  10.754  28.052  10.125
73756NA+    NA+46049  44.491  31.632   1.778
73757NA+    NA+46050  28.174  27.559   3.690
73758NA+    NA+46051   6.863  44.860   1.346
73759NA+    NA+46052  12.751  41.008  14.299
73760NA+    NA+46053   3.236  12.226  10.909
73761NA+    NA+46054   3.950  16.621  12.478
73762NA+    NA+46055  15.288  36.037   0.843
73763NA+    NA+46056  40.874  24.107   0.759
73764NA+    NA+46057  25.990  24.976   2.687
73765NA+    NA+46058  10.172  14.159  14.017
73766NA+    NA+46059  44.385  28.567   3.239
73767NA+    NA+46060  35.065  25.148  10.087
73768NA+    NA+46061  39.877  30.607  13.429
73769NA+    NA+46062  40.845  28.990  12.537
73770NA+    NA+46063  15.758   3.459  10.116
73771NA+    NA+46064   7.356  42.876   2.717
73772NA+    NA+46065   1.845  22.164  11.466
73773NA+    NA+46066  20.254  18.215   0.483
73774NA+    NA+46067  15.652  13.678   2.281
73775NA+    NA+46068   2.249   5.211  10.894
73776NA+    NA+46069  34.383  13.769   3.252
73777NA+    NA+46070  26.092  22.675   3.743
73778NA+    NA+46071  13.715  13.788   3.324
73779NA+    NA+46072   2.967  39.493  13.882
73780NA+    NA+46073  13.807  21.115  12.571
73781NA+    NA+46074  34.063  31.520  11.535
73782NA+    NA+46075  24.096  11.778   1.316
73783NA+    NA+46076  39.002  20.671   3.310
73784NA+    NA+46077   2.413  12.710  11.926
73785NA+    NA+46078  10.854  14.828  13.948
73786NA+    NA+46079   4.914  16.204   0.795
73787NA+    NA+46080  29.000  34.893  13.324
73788NA+    NA+46081   3.419  31.984  12.450
73789NA+    NA+46082  26.969  12.233  12.411
73790NA+    NA+46083   5.343  40.320  13.934
73791NA+    NA+46084  30.512   4.910  14.878
73792NA+    NA+46085   2.245   8.401  12.414
73793NA+    NA+46086  41.292  10.729  13.458
73794NA+    NA+46087  36.457  10.636  12.349
73795NA+    NA+46088  31.637  17.080   2.674
73796NA+    NA+46089  17.629   4.261   2.731
73797NA+    NA+46090  39.377   7.756   1.408
73798NA+    NA+46091  43.839   2.944  13.361
73799NA+    NA+46092  26.200  12.790  11.419
73800NA+    NA+46093  44.857  36.526   1.733
73801NA+    NA+46094  41.330   2.743  12.467
73802NA+    NA+46095  44.495  26.489  10.425
73803NA+    NA+46096  18.257  34.412  12.491
73804NA+    NA+46097  29.934  25.063   2.740
73805NA+    NA+46098  30.460  21.110  12.405
73806NA+    NA+46099  34.962  22.701  13.011
73807NA+    NA+46100  18.769  20.035   5.724
73808NA+    NA+46101  24.008  41.923  12.900
73809NA+    NA+46102  23.187   9.691  13.809
73810NA+    NA+46103  12.658  42.460  11.593
73811NA+    NA+46104  40.529   2.267   2.847
73812NA+    NA+46105   3.931  27.193  14.026
73813NA+    NA+46106  40.469   0.957  10.005
73814NA+    NA+46107  25.974   7.280   1.750
73815NA+    NA+46108  20.238   1.937   2.833
73816NA+    NA+46109   9.850   0.922   4.321
73817NA+    NA+46110  34.872  10.734   1.881
73818NA+    NA+46111  41.498  30.606  13.393
73819NA+    NA+46112  26.597  40.317  10.986
73820NA+    NA+46113  13.618   6.340  11.530
73821NA+    NA+46114   1.400  26.490  13.507
73822NA+    NA+46115  10.740   0.771  10.588
73823NA+    NA+46116  29.150   3.928  12.341
73824NA+    NA+46117  42.413  21.078   2.745
73825NA+    NA+46118  43.304  30.014   2.307
73826NA+    NA+46119  37.346  33.905  11.387
73827NA+    NA+46120  27.183   4.751   0.754
73828NA+    NA+46121  36.070  14.118  11.875
73829NA+    NA+46122   1.367  34.412  13.808
73830NA+    NA+46123  34.530  12.121   1.260
73831NA+    NA+46124  34.555  30.028   0.312
73832NA+    NA+46125  22.673  13.792   1.239
73833NA+    NA+46126   2.329  42.407  10.536
73834NA+    NA+46127  44.283  40.497  10.966
73835NA+    NA+46128  43.369   7.803  11.549
73836NA+    NA+46129   4.872  15.121   2.815
73837NA+    NA+46130   5.273  44.407  14.008
73838NA+    NA+46131  26.618  44.891  13.401
73839NA+    NA+46132   3.744  40.972  10.985
73840NA+    NA+46133  36.919  32.524   3.332
73841NA+    NA+46134  26.062  40.427   2.361
73842NA+    NA+46135  26.012  27.535  11.599
73843NA+    NA+46136  22.652  35.966  11.106
73844NA+    NA+46137  19.536  20.678   3.236
73845NA+    NA+46138   9.290  14.684  12.576
73846NA+    NA+46139  34.586   9.674  10.611
73847NA+    NA+46140   7.358  16.210  11.114
73848NA+    NA+46141  26.061  37.373  13.828
73849NA+    NA+46142  26.198  33.058  13.365
73850NA+    NA+46143   4.362   3.343  11.861
73851NA+    NA+46144  32.630  22.112  12.999
73852NA+    NA+46145  19.280  24.573  13.343
73853NA+    NA+46146  18.681  44.929   2.821
73854NA+    NA+46147  14.107  22.714   0.388
73855NA+    NA+46148  16.615  12.355   4.786
73856NA+    NA+46149  17.619  43.420  12.386
73857NA+    NA+46150  28.943   3.315   0.766
73858NA+    NA+46151  28.520  31.643  11.928
73859NA+    NA+46152   9.650  27.173  10.426
73860NA+    NA+46153  16.276  30.935   3.637
73861NA+    NA+46154  12.818  25.053   4.255
73862NA+    NA+46155  28.003  29.106   0.433
73863NA+    NA+46156   4.310  32.936  10.489
73864NA+    NA+46157  32.560  33.058   0.307
73865NA+    NA+46158   7.808  10.144   2.292
73866NA+    NA+46159   3.399  37.343   1.828
73867NA+    NA+46160  10.157  36.846  10.430
73868NA+    NA+46161  15.278  10.232   3.819
73869NA+    NA+46162  27.967   4.317  14.297
73870NA+    NA+46163  37.421  12.251  13.890
73871NA+    NA+46164  34.406  17.746   4.736
73872NA+    NA+46165  39.886   5.904   1.843
73873NA+    NA+46166  12.654  40.322  14.001
73874NA+    NA+46167   9.646   1.363   0.286
73875NA+    NA+46168  29.932  24.560   0.833
73876NA+    NA+46169  14.814  38.430  10.544
73877NA+    NA+46170  15.115   2.830  11.121
73878NA+    NA+46171  37.371   6.728  13.849
73879NA+    NA+46172   2.236  24.725  12.453
73880NA+    NA+46173  25.577  17.746  14.989
73881NA+    NA+46174  31.573  32.547  13.804
73882NA+    NA+46175  33.117  33.886   4.156
73883NA+    NA+46176  17.741   7.686  11.992
73884NA+    NA+46177  33.464  22.617  10.588
73885NA+    NA+46178  29.431  29.553  10.591
73886NA+    NA+46179  43.493  26.107  13.416
73887NA+    NA+46180   1.335  37.082   4.334
73888NA+    NA+46181  23.589  18.065  13.540
73889NA+    NA+46182  28.004   9.214  13.415
73890NA+    NA+46183  39.356  29.539  13.359
73891NA+    NA+46184  19.708  22.194  10.984
73892NA+    NA+46185  40.499   2.419   0.818
73893NA+    NA+46186  11.827  12.823   0.447
73894NA+    NA+46187   0.888   2.916   2.415
73895NA+    NA+46188  23.159  23.530   2.663
73896NA+    NA+46189  27.115   3.709   4.655
73897NA+    NA+46190  10.154   4.336   2.236
73898NA+    NA+46191  32.454   6.209  14.867
73899NA+    NA+46192  14.200  12.148   3.292
73900NA+    NA+46193  21.108  26.577  14.828
73901NA+    NA+46194  38.535  15.093   0.462
73902NA+    NA+46195  41.527  29.965  12.841
73903NA+    NA+46196  11.345  14.811  13.899
73904NA+    NA+46197  34.099  35.402  14.831
73905NA+    NA+46198  17.079   8.869  11.117
73906NA+    NA+46199   7.207  25.102  11.025
73907NA+    NA+46200  27.005  10.759   2.827
73908NA+    NA+46201  38.539  32.909   4.680
73909NA+    NA+46202  14.125  15.257  11.880
73910NA+    NA+46203  25.474  44.929  13.820
73911NA+    NA+46204  14.114  41.934  12.528
73912NA+    NA+46205  11.846  39.975  12.065
73913NA+    NA+46206  27.161  36.363  11.497
73914NA+    NA+46207  22.661  22.032   1.304
73915NA+    NA+46208  35.951  11.633  12.520
73916NA+    NA+46209  25.632  20.692   0.266
73917NA+    NA+46210  32.105  20.661   3.228
73918NA+    NA+46211  10.838  17.574   4.220
73919NA+    NA+46212  40.342  44.790  10.583
73920NA+    NA+46213   3.364   8.340   4.180
73921NA+    NA+46214  29.027  15.622  12.532
73922NA+    NA+46215  41.834  44.887  11.607
73923NA+    NA+46216  35.578  37.860  10.596
73924NA+    NA+46217  24.695  16.259   4.823
73925NA+    NA+46218   9.831  11.189   1.735
73926NA+    NA+46219  37.369  39.356  11.444
73927NA+    NA+46220  22.593  38.989  11.986
73928NA+    NA+46221  23.129  38.550   3.265
73929NA+    NA+46222  14.257  16.662   0.742
73930NA+    NA+46223  11.176  14.111   0.248
73931NA+    NA+46224  23.126  12.156   2.780
73932NA+    NA+46225  21.630  17.677   1.358
73933NA+    NA+46226  41.367  32.095   2.700
73934NA+    NA+46227  14.172   4.707   5.765
73935NA+    NA+46228  37.966  11.677  14.996
73936NA+    NA+46229  43.355  21.206   0.472
73937NA+    NA+46230  39.038  21.138   3.213
73938NA+    NA+46231  32.394  20.761   1.873
73939NA+    NA+46232  35.385  31.018   0.901
73940NA+    NA+46233  33.521   5.414  14.426
73941NA+    NA+46234  39.538  10.830  12.999
73942NA+    NA+46235  17.230  42.443   1.261
73943NA+    NA+46236  44.820  39.546   1.323
73944NA+    NA+46237   8.839  24.225   4.155
73945NA+    NA+46238  24.102  37.971   1.317
73946NA+    NA+46239  34.585  18.231  13.994
73947NA+    NA+46240   5.420  41.896   0.354
73948NA+    NA+46241  18.767  39.535   0.759
73949NA+    NA+46242   8.238  12.787  12.358
73950NA+    NA+46243   0.492   3.783  12.571
73951NA+    NA+46244  10.698  25.713  12.017
73952NA+    NA+46245   4.316  40.334   2.255
73953NA+    NA+46246  10.839  38.441  14.880
73954NA+    NA+46247  17.560   9.809  13.395
73955NA+    NA+46248  33.984  11.727   0.304
73956NA+    NA+46249  23.561  41.848  12.079
73957NA+    NA+46250  27.589   8.327   4.147
73958NA+    NA+46251  32.528  28.088   4.345
73959NA+    NA+46252  15.148  30.645  13.835
73960NA+    NA+46253  15.251  43.930  12.522
73961NA+    NA+46254  25.149  42.781  13.359
73962NA+    NA+46255   3.729  23.115  13.509
73963NA+    NA+46256  15.108   6.334  10.961
73964NA+    NA+46257  27.486  41.518  14.790
73965NA+    NA+46258  10.711  22.692  13.042
73966NA+    NA+46259   4.326   8.389  12.839
73967NA+    NA+46260  38.423  14.612  12.873
73968NA+    NA+46261   4.746   5.760   1.754
73969NA+    NA+46262  37.382  19.055   4.166
73970NA+    NA+46263  44.477  37.878   2.378
73971NA+    NA+46264  43.489  11.298  12.350
73972NA+    NA+46265  35.893   0.787   3.246
73973NA+    NA+46266  33.078  15.585   3.803
73974NA+    NA+46267  23.170  39.376  10.587
73975NA+    NA+46268  25.003   2.805   5.187
73976NA+    NA+46269  28.574   5.304  14.454
73977NA+    NA+46270  44.774  33.555   3.837
73978NA+    NA+46271   7.688  25.112   5.283
73979NA+    NA+46272  43.960  34.457  10.530
73980NA+    NA+46273  24.567  38.949   0.463
73981NA+    NA+46274  17.705  30.074  10.968
73982NA+    NA+46275  40.029   1.876  14.307
73983NA+    NA+46276  29.448  27.685  12.421
73984NA+    NA+46277  41.493  33.945  11.547
73985NA+    NA+46278  41.037  14.715  10.620
73986NA+    NA+46279  10.822   3.846  14.473
73987NA+    NA+46280  31.621   4.374  13.543
73988NA+    NA+46281  10.213  35.890   4.260
73989NA+    NA+46282   3.768  27.148   0.797
73990NA+    NA+46283  33.106  21.190   3.348
73991NA+    NA+46284  35.380  35.108   1.399
73992NA+    NA+46285  12.707  12.650   0.414
73993NA+    NA+46286  37.517  28.978   0.386
73994NA+    NA+46287   8.827   2.812  11.099
73995NA+    NA+46288   1.322  33.425  12.509
73996NA+    NA+46289   8.817  44.765  12.069
73997NA+    NA+46290  40.927   9.174  11.589
73998NA+    NA+46291  33.464  13.202  12.019
73999NA+    NA+46292  20.565  21.570   4.808
74000NA+    NA+46293  20.056  20.235   1.888
74001NA+    NA+46294   1.344  20.106   4.756
74002NA+    NA+46295  27.573  44.381  13.433
74003NA+    NA+46296  40.402  27.472   2.857
74004NA+    NA+46297  36.899   7.794  14.989
74005NA+    NA+46298  38.011  34.532   3.637
74006NA+    NA+46299  41.386   8.767   1.352
74007NA+    NA+46300  29.092  42.348   0.373
74008NA+    NA+46301  30.985   0.452  12.495
74009NA+    NA+46302  18.791   4.889   4.118
74010NA+    NA+46303  21.024   6.342   0.259
74011NA+    NA+46304   9.272  26.584   1.377
74012NA+    NA+46305  36.464  39.824   3.206
74013NA+    NA+46306  34.994  29.043   3.756
74014NA+    NA+46307  28.460  44.925   1.438
74015NA+    NA+46308   1.823  41.946   2.678
74016NA+    NA+46309  32.908  39.997   2.725
74017NA+    NA+46310  13.798   0.265   0.454
74018NA+    NA+46311   9.261  40.941  10.967
74019NA+    NA+46312  26.167  19.202  14.834
74020NA+    NA+46313  44.989  13.298  13.058
74021NA+    NA+46314  33.969  25.555  12.910
74022NA+    NA+46315  30.507   6.747  13.325
74023NA+    NA+46316  23.505   3.859  13.822
74024NA+    NA+46317  12.758  29.151  11.126
74025NA+    NA+46318  34.480   6.796   3.251
74026NA+    NA+46319  11.737  39.064  11.081
74027NA+    NA+46320  24.713  18.149   0.800
74028NA+    NA+46321  20.090  40.908  14.429
74029NA+    NA+46322  32.406  35.062  11.971
74030NA+    NA+46323  26.090  42.497   4.222
74031NA+    NA+46324   0.855  13.798  11.426
74032NA+    NA+46325  10.171   1.314  12.421
74033NA+    NA+46326  34.968  15.210  12.518
74034NA+    NA+46327  26.487  25.163  11.102
74035NA+    NA+46328  23.734  21.575  14.441
74036NA+    NA+46329  14.767   9.255   2.723
74037NA+    NA+46330  17.669  16.283  14.473
74038NA+    NA+46331  26.005  33.410  11.487
74039NA+    NA+46332  32.395  25.542  11.931
74040NA+    NA+46333  33.587  38.510  10.973
74041NA+    NA+46334   6.781  39.554   4.822
74042NA+    NA+46335  15.649  31.516   2.780
74043NA+    NA+46336  32.122  30.499  11.598
74044NA+    NA+46337  18.242   0.484  13.971
74045NA+    NA+46338  20.066  16.702  13.028
74046NA+    NA+46339  11.866  14.763  12.980
74047NA+    NA+46340   2.233  16.102   2.756
74048NA+    NA+46341   9.272   2.786   0.950
74049NA+    NA+46342  12.647  21.566   0.933
74050NA+    NA+46343  37.533  34.041  10.928
74051NA+    NA+46344  17.260  36.496   1.363
74052NA+    NA+46345  41.425  31.516  11.053
74053NA+    NA+46346  36.869  32.577   0.966
74054NA+    NA+46347   0.872  12.135   3.165
74055NA+    NA+46348  29.487  31.552   1.873
74056NA+    NA+46349  30.460  43.933   2.275
74057NA+    NA+46350  25.112  23.104  12.838
74058NA+    NA+46351  27.454  29.645  14.867
74059NA+    NA+46352  29.950  37.966  13.908
74060NA+    NA+46353  26.579  15.325  14.022
74061NA+    NA+46354  10.647  16.223   3.369
74062NA+    NA+46355  41.814  19.104   4.797
74063NA+    NA+46356   2.389  23.531   4.353
74064NA+    NA+46357   7.231  12.668  13.335
74065NA+    NA+46358  35.517   2.437  14.013
74066NA+    NA+46359  43.340  12.362  11.444
74067NA+    NA+46360  20.569  14.644   0.820
74068NA+    NA+46361  23.597  42.393   0.429
74069NA+    NA+46362  31.949  23.161   3.761
74070NA+    NA+46363  20.241  41.486   1.832
74071NA+    NA+46364  40.961  23.205  12.442
74072NA+    NA+46365   3.795   4.834   2.414
74073NA+    NA+46366  31.095  10.677  10.009
74074NA+    NA+46367  39.420  19.617   3.635
74075NA+    NA+46368  27.463  12.644   1.701
74076NA+    NA+46369  30.035  39.371   3.849
74077NA+    NA+46370  13.350  36.371  10.450
74078NA+    NA+46371   8.402  31.113  11.979
74079NA+    NA+46372   8.686  33.120  13.345
74080NA+    NA+46373  27.449  44.919  12.341
74081NA+    NA+46374  42.851  15.095   2.850
74082NA+    NA+46375  30.633  17.692   4.263
74083NA+    NA+46376  29.575   3.281  10.115
74084NA+    NA+46377  44.770  16.177   3.665
74085NA+    NA+46378  34.462   4.817  14.883
74086NA+    NA+46379  43.508  17.740  11.607
74087NA+    NA+46380   5.254  16.650   2.831
74088NA+    NA+46381  25.080   5.269  13.029
74089NA+    NA+46382   0.914  10.279  14.859
74090NA+    NA+46383  31.561  33.922  12.901
74091NA+    NA+46384  22.189  19.662   1.283
74092NA+    NA+46385   3.946  32.482   4.150
74093NA+    NA+46386  20.703  16.742   4.127
74094NA+    NA+46387  26.617   8.284  14.957
74095NA+    NA+46388  12.192   3.223   1.279
74096NA+    NA+46389  21.655  42.880   0.350
74097NA+    NA+46390  33.532  22.084  13.465
74098NA+    NA+46391   3.433  40.866   4.160
74099NA+    NA+46392  15.703  33.394  13.465
74100NA+    NA+46393  36.882  44.412   1.369
74101NA+    NA+46394  18.729  31.517  10.148
74102NA+    NA+46395  26.651  28.983   4.317
74103NA+    NA+46396  32.936  23.626   4.805
74104NA+    NA+46397  16.284   8.690   2.711
74105NA+    NA+46398   6.276  43.501  13.379
74106NA+    NA+46399  13.843   9.316   1.924
74107NA+    NA+46400   1.312  36.490  12.886
74108NA+    NA+46401  21.708  22.191  12.561
74109NA+    NA+46402  36.549  14.597  10.438
74110NA+    NA+46403  39.916  29.941   2.220
74111NA+    NA+46404   6.849  14.683   1.906
74112NA+    NA+46405  39.458  23.498  12.959
74113NA+    NA+46406  37.555  33.545   0.460
74114NA+    NA+46407  44.375   1.271   4.669
74115NA+    NA+46408  40.489   7.767  11.435
74116NA+    NA+46409  36.047  10.323  11.566
74117NA+    NA+46410   0.931  32.102   2.889
74118NA+    NA+46411   9.791  37.465  13.480
74119NA+    NA+46412  11.807   9.324   1.869
74120NA+    NA+46413  15.174  38.427   2.347
74121NA+    NA+46414  23.536  38.530  12.461
74122NA+    NA+46415   3.389  18.735  11.866
74123NA+    NA+46416  20.055  42.884   5.233
74124NA+    NA+46417  31.551   6.677   1.375
74125NA+    NA+46418  31.978  13.323  12.034
74126NA+    NA+46419  36.053   4.737  11.045
74127NA+    NA+46420  20.148   4.779  12.046
74128NA+    NA+46421   8.676  39.472  12.967
74129NA+    NA+46422  21.068  11.814   1.305
74130NA+    NA+46423   7.192  25.079   2.411
74131NA+    NA+46424   9.707  23.580   4.701
74132NA+    NA+46425   6.709  42.792   0.956
74133NA+    NA+46426   6.211  35.359  11.525
74134NA+    NA+46427  15.688  22.034   0.966
74135NA+    NA+46428  21.041  41.296   2.271
74136NA+    NA+46429   2.363  43.021   1.247
74137NA+    NA+46430  18.701  28.662  11.404
74138NA+    NA+46431   6.358  14.304  13.317
74139NA+    NA+46432  35.937  32.942   1.907
74140NA+    NA+46433   1.479   5.862  13.367
74141NA+    NA+46434   0.832  35.874  11.913
74142NA+    NA+46435  17.070  19.066   0.413
74143NA+    NA+46436  23.648  32.905  10.967
74144NA+    NA+46437   0.858  23.592  10.137
74145NA+    NA+46438  16.737  20.037  11.079
74146NA+    NA+46439  21.652  38.486  11.539
74147NA+    NA+46440  37.568  32.534  14.506
74148NA+    NA+46441  14.318  33.016  12.485
74149NA+    NA+46442  39.014   1.337   1.923
74150NA+    NA+46443  20.231   8.711  10.964
74151NA+    NA+46444  25.532  12.201  10.559
74152NA+    NA+46445  39.931  27.479  12.990
74153NA+    NA+46446  11.635  44.778  12.058
74154NA+    NA+46447  19.069  23.672   0.477
74155NA+    NA+46448  32.469  36.847   3.728
74156NA+    NA+46449   6.874  28.130   3.803
74157NA+    NA+46450   1.322  14.212  12.498
74158NA+    NA+46451   1.938   0.407  10.442
74159NA+    NA+46452  40.330  43.325  13.327
74160NA+    NA+46453  10.644  44.270   3.168
74161NA+    NA+46454  42.294  33.947  11.405
74162NA+    NA+46455  20.051   5.319  11.476
74163NA+    NA+46456   9.269  35.886   2.296
74164NA+    NA+46457  32.635  21.073   1.763
74165NA+    NA+46458  20.074  15.280   2.797
74166NA+    NA+46459  13.233   1.312  14.973
74167NA+    NA+46460  34.925  30.059   1.427
74168NA+    NA+46461   0.309  10.163   0.417
74169NA+    NA+46462  36.515  30.613   1.250
74170NA+    NA+46463   5.268  30.595   2.704
74171NA+    NA+46464  38.926  39.943  13.013
74172NA+    NA+46465   5.390  15.718  10.013
74173NA+    NA+46466  39.413  36.075   3.239
74174NA+    NA+46467  29.598  38.849   4.285
74175NA+    NA+46468  19.190  38.041   1.240
74176NA+    NA+46469   0.492  41.873   0.922
74177NA+    NA+46470  26.952  17.225  14.498
74178NA+    NA+46471  23.705  26.201  14.000
74179NA+    NA+46472   7.782  36.416   9.452
74180NA+    NA+46473  34.382  38.021   2.255
74181NA+    NA+46474  39.435  27.961  11.534
74182NA+    NA+46475   1.829   2.369   3.824
74183NA+    NA+46476   4.847  12.341   0.829
74184NA+    NA+46477  22.194  22.080   2.761
74185NA+    NA+46478   0.375   8.759   3.769
74186NA+    NA+46479  31.912  19.050  13.009
74187NA+    NA+46480  27.674  43.013   1.864
74188NA+    NA+46481  37.836  10.172  12.515
74189NA+    NA+46482   2.908  30.526   4.332
74190NA+    NA+46483   2.468  31.435   4.601
74191NA+    NA+46484  23.523   0.950   4.301
74192NA+    NA+46485  25.467  35.559   4.302
74193NA+    NA+46486  22.739   7.398   9.923
74194NA+    NA+46487  25.591   5.263  14.964
74195NA+    NA+46488  20.172  28.132  10.127
74196NA+    NA+46489  16.683  24.480  10.473
74197NA+    NA+46490  39.314  15.186   2.267
74198NA+    NA+46491  12.614  10.869   1.919
74199NA+    NA+46492   1.855  28.672   3.226
74200NA+    NA+46493   8.764  39.445  13.323
74201NA+    NA+46494  40.407  33.995   0.803
74202NA+    NA+46495  44.426  10.800  14.818
74203NA+    NA+46496  35.926  43.810   1.720
74204NA+    NA+46497  25.097  26.050  11.513
74205NA+    NA+46498  39.343  36.019  11.880
74206NA+    NA+46499  42.515  17.706   1.365
74207NA+    NA+46500  41.482  31.012   3.754
74208NA+    NA+46501   7.327  26.111   3.238
74209NA+    NA+46502  43.792  10.646   1.699
74210NA+    NA+46503  20.037   6.879   0.292
74211NA+    NA+46504  20.721  30.439   1.235
74212NA+    NA+46505  28.677  37.418  10.588
74213NA+    NA+46506  38.940  30.555   3.261
74214NA+    NA+46507   0.478  25.533   4.197
74215NA+    NA+46508  24.983  36.349  11.990
74216NA+    NA+46509  19.050  35.555  14.283
74217NA+    NA+46510   7.715  15.596  14.834
74218NA+    NA+46511  41.501  37.449   3.758
74219NA+    NA+46512   6.378  32.022  10.148
74220NA+    NA+46513  22.745  13.695  14.958
74221NA+    NA+46514  13.609  37.067   1.331
74222NA+    NA+46515  17.759   2.893  13.826
74223NA+    NA+46516   7.174  27.962  11.594
74224NA+    NA+46517   2.758  26.551   2.874
74225NA+    NA+46518   6.214   1.328   1.303
74226NA+    NA+46519  22.571   5.899   3.688
74227NA+    NA+46520  39.442  22.999   1.421
74228NA+    NA+46521  13.208   1.289   3.751
74229NA+    NA+46522  23.237  12.217   4.123
74230NA+    NA+46523  12.335  44.315  11.998
74231NA+    NA+46524   2.749  39.905  12.824
74232NA+    NA+46525  13.816  22.197   0.321
74233NA+    NA+46526  42.523  27.581  11.880
74234NA+    NA+46527  11.776  26.564  11.610
74235NA+    NA+46528  37.491  16.198  13.827
74236NA+    NA+46529  29.025  21.619  13.923
74237NA+    NA+46530  35.476  42.380   1.260
74238NA+    NA+46531  23.215  15.661   0.956
74239NA+    NA+46532  24.195   1.909   1.379
74240NA+    NA+46533   9.747  23.532   3.634
74241NA+    NA+46534  18.225  15.635   4.671
74242NA+    NA+46535  32.448   2.367  14.482
74243NA+    NA+46536   6.405  28.104   0.795
74244NA+    NA+46537  12.623  28.521  11.549
74245NA+    NA+46538  30.429  13.132   2.280
74246NA+    NA+46539  43.474  39.354   0.734
74247NA+    NA+46540   7.316   3.323  14.878
74248NA+    NA+46541  44.493  22.060  10.440
74249NA+    NA+46542  13.138  20.561  14.938
74250NA+    NA+46543  26.047  16.194  12.880
74251NA+    NA+46544  26.058  20.218  14.412
74252NA+    NA+46545  17.162  25.597  12.890
74253NA+    NA+46546  37.975  30.071  14.890
74254NA+    NA+46547  33.990   5.360   4.687
74255NA+    NA+46548  27.649  29.564   0.925
74256NA+    NA+46549  32.455  36.502   0.467
74257NA+    NA+46550  24.543  26.092   1.384
74258NA+    NA+46551  24.034  12.338  12.968
74259NA+    NA+46552   4.767   0.924   5.125
74260NA+    NA+46553   8.816  37.420   5.090
74261NA+    NA+46554  22.084  29.469   4.611
74262NA+    NA+46555  32.498  32.952  12.953
74263NA+    NA+46556  22.187   3.712   5.303
74264NA+    NA+46557   6.740  41.501   2.855
74265NA+    NA+46558  39.944  39.377   0.382
74266NA+    NA+46559  41.340  30.508   4.181
74267NA+    NA+46560  14.190  23.011  14.430
74268NA+    NA+46561  19.248  18.673   2.373
74269NA+    NA+46562  39.915  13.315  11.081
74270NA+    NA+46563   6.337  20.248  10.573
74271NA+    NA+46564  24.038   7.272  12.973
74272NA+    NA+46565  33.506   1.884   1.914
74273NA+    NA+46566   4.727  43.960  11.375
74274NA+    NA+46567  23.491  33.451  13.318
74275NA+    NA+46568  15.746  30.911   4.691
74276NA+    NA+46569  42.314   1.385  13.930
74277NA+    NA+46570  32.556  41.396   2.704
74278NA+    NA+46571  17.772  11.735  11.902
74279NA+    NA+46572  38.383  41.516  13.934
74280NA+    NA+46573   3.923  34.903   2.389
74281NA+    NA+46574  27.155  26.967  14.893
74282NA+    NA+46575  17.570  16.272   0.815
74283NA+    NA+46576  13.191  18.259   0.769
74284NA+    NA+46577  33.959  27.107  14.428
74285NA+    NA+46578   1.928  41.818  13.064
74286NA+    NA+46579  13.643  12.258   0.917
74287NA+    NA+46580  19.772  31.457   4.665
74288NA+    NA+46581  12.238   9.221   4.215
74289NA+    NA+46582  41.295   2.747   0.820
74290NA+    NA+46583  26.122  40.405   4.815
74291NA+    NA+46584  17.163   7.380   0.822
74292NA+    NA+46585  30.658  37.394   2.186
74293NA+    NA+46586  10.176  14.178  10.453
74294NA+    NA+46587  11.769  39.343  10.432
74295NA+    NA+46588  24.172  44.818  14.433
74296NA+    NA+46589  26.587   5.423  11.925
74297NA+    NA+46590  12.167  38.486   2.354
74298NA+    NA+46591  30.997  18.636  14.381
74299NA+    NA+46592  15.275  24.648  11.106
74300NA+    NA+46593  25.572  26.623  13.883
74301NA+    NA+46594  25.592  18.594   0.755
74302NA+    NA+46595  21.696  37.074  14.002
74303NA+    NA+46596  13.666  42.781   2.211
74304NA+    NA+46597  34.023  35.540   3.184
74305NA+    NA+46598   2.809  20.716   0.827
74306NA+    NA+46599  32.964  15.610   4.239
74307NA+    NA+46600   9.781  34.599  11.993
74308NA+    NA+46601   5.363  24.131  11.611
74309NA+    NA+46602  44.772   1.362  14.966
74310NA+    NA+46603  40.017  28.509  12.559
74311NA+    NA+46604  39.874  27.953   2.329
74312NA+    NA+46605  36.368  35.021   4.714
74313NA+    NA+46606  37.582   8.744   3.773
74314NA+    NA+46607  29.936   1.336  12.345
74315NA+    NA+46608  44.306  12.206   2.285
74316NA+    NA+46609  16.636  29.638   2.837
74317NA+    NA+46610  44.869   1.274   2.767
74318NA+    NA+46611  25.605  38.487  14.932
74319NA+    NA+46612  17.233  29.966   0.266
74320NA+    NA+46613  18.742  29.600   0.776
74321NA+    NA+46614  30.612  14.210   3.722
74322NA+    NA+46615  12.711  43.953  10.517
74323NA+    NA+46616  38.471  31.547  13.990
74324NA+    NA+46617   9.358  34.975  12.416
74325NA+    NA+46618  11.649   1.340   2.313
74326NA+    NA+46619  14.289   8.684  11.396
74327NA+    NA+46620  35.004  42.945  10.990
74328NA+    NA+46621  23.556   3.839  10.079
74329NA+    NA+46622  37.998  29.972   3.311
74330NA+    NA+46623  28.525  20.752   1.839
74331NA+    NA+46624  38.450  29.596   2.828
74332NA+    NA+46625  30.603  32.482  14.459
74333NA+    NA+46626  16.790  19.729  12.830
74334NA+    NA+46627  27.457   3.909   4.162
74335NA+    NA+46628  41.919  21.621  13.060
74336NA+    NA+46629  20.594  28.447   3.777
74337NA+    NA+46630   0.469   7.242  11.476
74338NA+    NA+46631  31.955  17.193  13.392
74339NA+    NA+46632  38.330   3.286   3.241
74340NA+    NA+46633  29.640  19.257   1.388
74341NA+    NA+46634  26.679  19.094  11.869
74342NA+    NA+46635  26.124  28.048  12.469
74343NA+    NA+46636   0.754  28.972  13.316
74344NA+    NA+46637   2.751  26.988   4.292
74345NA+    NA+46638  30.948  19.572  12.016
74346NA+    NA+46639  35.960  18.728  13.439
74347NA+    NA+46640  26.974   2.459  10.633
74348NA+    NA+46641  38.521  30.413  11.873
74349NA+    NA+46642  25.139  13.319   2.833
74350NA+    NA+46643   9.169  31.026   2.376
74351NA+    NA+46644  23.559   0.489   1.227
74352NA+    NA+46645  25.622  23.103  10.515
74353NA+    NA+46646  11.725  20.076  11.070
74354NA+    NA+46647  24.520  41.499  14.436
74355NA+    NA+46648  34.584  31.533   1.799
74356NA+    NA+46649   8.235   6.369   3.288
74357NA+    NA+46650  44.365   9.174   4.136
74358NA+    NA+46651  38.489  10.246   3.759
74359NA+    NA+46652   0.821  33.939  12.576
74360NA+    NA+46653  42.986  17.306   2.901
74361NA+    NA+46654  26.558   7.402  12.446
74362NA+    NA+46655  23.100  38.431  11.558
74363NA+    NA+46656  31.647  43.406   1.231
74364NA+    NA+46657  29.159  44.942   2.736
74365NA+    NA+46658  25.194   5.764  14.287
74366NA+    NA+46659   9.218   2.265   1.886
74367NA+    NA+46660  15.643   8.287  10.474
74368NA+    NA+46661  17.100  42.346  11.500
74369NA+    NA+46662  41.998   9.684  13.428
74370NA+    NA+46663  11.810  24.563  12.897
74371NA+    NA+46664   4.789  42.794  12.553
74372NA+    NA+46665  43.303  33.529   1.254
74373NA+    NA+46666  31.625  28.078   1.306
74374NA+    NA+46667  31.903  33.991  14.970
74375NA+    NA+46668   1.829   4.250  11.516
74376NA+    NA+46669  43.802  27.603   0.483
74377NA+    NA+46670  32.635  33.424   2.900
74378NA+    NA+46671  15.174   4.210   2.235
74379NA+    NA+46672  18.159  34.959  12.076
74380NA+    NA+46673   2.377  25.987   0.336
74381NA+    NA+46674  21.065   7.695  11.448
74382NA+    NA+46675  29.524  21.729   4.817
74383NA+    NA+46676  12.681  22.596  14.844
74384NA+    NA+46677   9.299   1.367  12.439
74385NA+    NA+46678  35.061  40.903  14.887
74386NA+    NA+46679  23.649  43.317   4.204
74387NA+    NA+46680   1.945  28.174  13.443
74388NA+    NA+46681  18.689  34.977   2.682
74389NA+    NA+46682  16.720  24.043   4.624
74390NA+    NA+46683  10.679   6.254   2.339
74391NA+    NA+46684  29.004  39.457  13.829
74392NA+    NA+46685   2.960  10.850  10.943
74393NA+    NA+46686  33.124  36.545  11.936
74394NA+    NA+46687  40.933  25.613   2.250
74395NA+    NA+46688  18.635  31.527  13.876
74396NA+    NA+46689  27.078  39.066  12.443
74397NA+    NA+46690  26.623  32.594  12.461
74398NA+    NA+46691  21.064   4.764   1.271
74399NA+    NA+46692  44.772  21.135   3.305
74400NA+    NA+46693   3.419  10.218  10.517
74401NA+    NA+46694   0.257  33.936   4.812
74402NA+    NA+46695  26.967  17.740  11.110
74403NA+    NA+46696  37.023  20.109   4.247
74404NA+    NA+46697  15.675   4.436   2.358
74405NA+    NA+46698  21.733  18.131  10.506
74406NA+    NA+46699  35.591  44.870   3.744
74407NA+    NA+46700  43.410  24.229   4.826
74408NA+    NA+46701  18.779  44.449  10.919
74409NA+    NA+46702  43.508  17.136   3.215
74410NA+    NA+46703   4.224   4.376   4.687
74411NA+    NA+46704   9.786  43.875   2.180
74412NA+    NA+46705  17.259   9.743   4.658
74413NA+    NA+46706  32.963  28.464   0.368
74414NA+    NA+46707  28.160  15.776   1.310
74415NA+    NA+46708  27.991  43.413   4.607
74416NA+    NA+46709  13.345  38.391   0.439
74417NA+    NA+46710  25.537  41.294  10.555
74418NA+    NA+46711  12.312  34.490   2.835
74419NA+    NA+46712  15.660  29.512   2.719
74420NA+    NA+46713  37.513  30.589   2.725
74421NA+    NA+46714  35.015  26.699  13.495
74422NA+    NA+46715   7.708   6.258  14.934
74423NA+    NA+46716  35.107   3.913  11.001
74424NA+    NA+46717  29.507  15.096  12.549
74425NA+    NA+46718   9.255  17.616  13.325
74426NA+    NA+46719  32.538  36.537  11.527
74427NA+    NA+46720  21.604  28.620  12.569
74428NA+    NA+46721  14.696  28.574   0.818
74429NA+    NA+46722  19.568   1.922   3.825
74430NA+    NA+46723  25.537  44.907   1.871
74431NA+    NA+46724  32.450  38.362  13.336
74432NA+    NA+46725  24.222   7.259  10.016
74433NA+    NA+46726  35.495   7.856   4.761
74434NA+    NA+46727  43.861  32.938  10.615
74435NA+    NA+46728  26.470   7.741   3.215
74436NA+    NA+46729  19.601  20.147   3.203
74437NA+    NA+46730  15.239  19.215  11.121
74438NA+    NA+46731  41.816   3.744   1.797
74439NA+    NA+46732  12.657  30.540   0.835
74440NA+    NA+46733  28.091  41.478  11.083
74441NA+    NA+46734  33.533  14.679   2.818
74442NA+    NA+46735  23.216  33.439   0.312
74443NA+    NA+46736  41.377   8.860  11.083
74444NA+    NA+46737   5.329  27.151   0.763
74445NA+    NA+46738  32.523   6.387   2.275
74446NA+    NA+46739  39.032  18.126   2.263
74447NA+    NA+46740  29.640  21.048   2.778
74448NA+    NA+46741   9.848  12.331   2.812
74449NA+    NA+46742  36.562  13.639  11.951
74450NA+    NA+46743   1.887  36.878  13.541
74451NA+    NA+46744  44.775  32.930  13.464
74452NA+    NA+46745  42.946   2.796  13.349
74453NA+    NA+46746  23.115  41.792   4.220
74454NA+    NA+46747   0.255   2.242   3.331
74455NA+    NA+46748  11.826  25.986   4.637
74456NA+    NA+46749   4.310  12.267  14.809
74457NA+    NA+46750   2.330   2.231   0.425
74458NA+    NA+46751   5.927   7.753   3.215
74459NA+    NA+46752   7.736  44.379  12.560
74460NA+    NA+46753  31.559  28.554  13.038
74461NA+    NA+46754  25.544  17.701  10.954
74462NA+    NA+46755  23.140  23.653  14.006
74463NA+    NA+46756   2.293   2.895   1.799
74464NA+    NA+46757  32.022  30.936  11.124
74465NA+    NA+46758  16.275  32.398  12.038
74466NA+    NA+46759  12.801  17.751   3.347
74467NA+    NA+46760  34.991   8.750  10.074
74468NA+    NA+46761  23.601  13.190   2.837
74469NA+    NA+46762  33.008  29.562  12.357
74470NA+    NA+46763  42.775  33.602   5.184
74471NA+    NA+46764   1.912  19.240   2.275
74472NA+    NA+46765   8.347  34.566  12.988
74473NA+    NA+46766  13.641  28.519  10.502
74474NA+    NA+46767  15.607  18.757   2.737
74475NA+    NA+46768  25.040  31.402   4.680
74476NA+    NA+46769  44.880  38.510   4.346
74477NA+    NA+46770  19.748  43.878   3.725
74478NA+    NA+46771  37.887  37.481  13.922
74479NA+    NA+46772   9.705   9.768   0.296
74480NA+    NA+46773  27.548  19.721  12.032
74481NA+    NA+46774   1.394  32.119   1.876
74482NA+    NA+46775  43.006  29.492   0.953
74483NA+    NA+46776  32.032   4.785  12.906
74484NA+    NA+46777  37.550   1.461   4.180
74485NA+    NA+46778  26.476   1.435  11.410
74486NA+    NA+46779   4.300   4.334   3.348
74487NA+    NA+46780  12.318  19.043   4.714
74488NA+    NA+46781  12.156   4.370   2.368
74489NA+    NA+46782  13.646  20.120  10.645
74490NA+    NA+46783  42.501  26.638  14.312
74491NA+    NA+46784   9.158  22.149   0.800
74492NA+    NA+46785  24.089  19.597   2.238
74493NA+    NA+46786  23.527  15.228  12.955
74494NA+    NA+46787  12.339   9.333  13.985
74495NA+    NA+46788  16.104   6.905  11.968
74496NA+    NA+46789  35.032  29.513   1.896
74497NA+    NA+46790   7.804  35.967  10.455
74498NA+    NA+46791  19.251  36.943   4.636
74499NA+    NA+46792   1.308  20.203  10.411
74500NA+    NA+46793   9.883  18.219   1.854
74501NA+    NA+46794   9.746  19.705  11.088
74502NA+    NA+46795  19.253   6.224   4.157
74503NA+    NA+46796  36.886  19.622  12.439
74504NA+    NA+46797  22.659  35.079  13.973
74505NA+    NA+46798  28.053   2.885   3.818
74506NA+    NA+46799  32.520  29.141   2.886
74507NA+    NA+46800  11.700  44.010   0.298
74508NA+    NA+46801  22.672  27.947  13.519
74509NA+    NA+46802  44.471  32.908   0.779
74510NA+    NA+46803  41.294  43.020  11.506
74511NA+    NA+46804  19.647  26.116   2.803
74512NA+    NA+46805  11.181   7.799  13.364
74513NA+    NA+46806  44.841   8.895   3.706
74514NA+    NA+46807  16.149  22.658  11.449
74515NA+    NA+46808  33.511  31.137  12.050
74516NA+    NA+46809   2.966  18.083  11.039
74517NA+    NA+46810  14.133  14.223  14.972
74518NA+    NA+46811  26.616  38.907   3.233
74519NA+    NA+46812  10.635  27.040  10.555
74520NA+    NA+46813   3.892   0.321   3.317
74521NA+    NA+46814  42.800  42.375  10.627
74522NA+    NA+46815  28.658   4.917   0.363
74523NA+    NA+46816  21.194  27.158  14.864
74524NA+    NA+46817  42.788   4.363   1.798
74525NA+    NA+46818   2.280  34.023  13.397
74526NA+    NA+46819  41.371   3.832  13.846
74527NA+    NA+46820  23.237  15.228   4.183
74528NA+    NA+46821   5.758  15.750  14.817
74529NA+    NA+46822  29.670  24.674   0.867
74530NA+    NA+46823  11.354  43.412  11.022
74531NA+    NA+46824  31.609  36.914   2.709
74532NA+    NA+46825   4.246  18.099  11.971
74533NA+    NA+46826  30.556  21.052  12.868
74534NA+    NA+46827  26.606   5.350  12.998
74535NA+    NA+46828   7.191  32.418   2.353
74536NA+    NA+46829  36.501  40.028   3.682
74537NA+    NA+46830  22.744   8.273   4.330
74538NA+    NA+46831  39.505  33.077   1.225
74539NA+    NA+46832   9.766   7.869  12.076
74540NA+    NA+46833  40.403   2.907   4.599
74541NA+    NA+46834  13.747  34.111  11.008
74542NA+    NA+46835  23.223  43.950   4.798
74543NA+    NA+46836   4.276  38.864   1.368
74544NA+    NA+46837  10.264   4.240   1.787
74545NA+    NA+46838   8.319  39.480   1.246
74546NA+    NA+46839   1.346  15.234  12.081
74547NA+    NA+46840  14.636  17.570   2.401
74548NA+    NA+46841  41.483  32.891  14.475
74549NA+    NA+46842  17.115  29.427   4.259
74550NA+    NA+46843  21.527   2.766  14.285
74551NA+    NA+46844  26.561  27.561   3.827
74552NA+    NA+46845   9.817  33.127  12.452
74553NA+    NA+46846   3.885  22.561  11.512
74554NA+    NA+46847  43.270  16.198  12.346
74555NA+    NA+46848   4.892  26.991   9.987
74556NA+    NA+46849  27.690   0.913   4.681
74557NA+    NA+46850  23.529  10.786  12.459
74558NA+    NA+46851  36.089  25.159   0.792
74559NA+    NA+46852  33.500  13.157   1.450
74560NA+    NA+46853  37.372  21.217  14.503
74561NA+    NA+46854  23.067  44.957   4.836
74562NA+    NA+46855  39.397  18.064  14.480
74563NA+    NA+46856  33.061  32.466  12.537
74564NA+    NA+46857   7.178  33.474   0.839
74565NA+    NA+46858   0.329  23.048   1.811
74566NA+    NA+46859  14.744   8.315   4.628
74567NA+    NA+46860  43.884  31.103   4.799
74568NA+    NA+46861  31.568   4.944  12.383
74569NA+    NA+46862  14.675  34.955   4.806
74570NA+    NA+46863  26.612   9.842   2.825
74571NA+    NA+46864  40.485   3.872  11.405
74572NA+    NA+46865  18.616  14.736   4.135
74573NA+    NA+46866  40.538  41.509  12.041
74574NA+    NA+46867  15.701  44.320   0.848
74575NA+    NA+46868  11.645   7.691  13.916
74576NA+    NA+46869   7.350   3.753  13.011
74577NA+    NA+46870  35.467  15.164  14.013
74578NA+    NA+46871  35.002   5.711   2.313
74579NA+    NA+46872  21.222  25.140  11.568
74580NA+    NA+46873  38.451  10.319  11.910
74581CL-    CL-46874  40.470  15.785   1.438
74582CL-    CL-46875  28.945  20.606   1.244
74583CL-    CL-46876  27.473  10.173  11.602
74584CL-    CL-46877  30.553  24.088  11.372
74585CL-    CL-46878  35.957  39.355   4.266
74586CL-    CL-46879  28.032  20.555  11.999
74587CL-    CL-46880  37.428   5.815   2.869
74588CL-    CL-46881   8.690  39.853   1.905
74589CL-    CL-46882  44.855  18.558   2.324
74590CL-    CL-46883  27.570  31.915  11.035
74591CL-    CL-46884  11.346  20.763   4.176
74592CL-    CL-46885  30.947  25.585   4.725
74593CL-    CL-46886  40.822  22.713  12.910
74594CL-    CL-46887  39.031   4.235  10.046
74595CL-    CL-46888   6.822  38.453   0.733
74596CL-    CL-46889  12.723  37.879  11.532
74597CL-    CL-46890  40.325  39.860  14.913
74598CL-    CL-46891  21.521  18.290   3.282
74599CL-    CL-46892  15.590  34.978  13.483
74600CL-    CL-46893  14.778  32.923  11.887
74601CL-    CL-46894  23.214  20.595   2.804
74602CL-    CL-46895  44.333  11.855  10.933
74603CL-    CL-46896  36.424  39.840  14.319
74604CL-    CL-46897  41.032  13.809  13.835
74605CL-    CL-46898  24.683  37.991  11.398
74606CL-    CL-46899   6.191   6.914  14.950
74607CL-    CL-46900  14.653  21.180  13.844
74608CL-    CL-46901   1.389   4.945   3.289
74609CL-    CL-46902  32.066  40.849   1.378
74610CL-    CL-46903  42.367  26.652   0.877
74611CL-    CL-46904  36.964  42.832   1.297
74612CL-    CL-46905   6.354  31.631   3.268
74613CL-    CL-46906   5.257  19.640   5.155
74614CL-    CL-46907  42.824  25.046   1.746
74615CL-    CL-46908   1.449  30.525  12.938
74616CL-    CL-46909   4.318  34.030   2.290
74617CL-    CL-46910  40.383   3.322   4.258
74618CL-    CL-46911   8.693  20.745  14.374
74619CL-    CL-46912  37.567   3.824   3.227
74620CL-    CL-46913  37.405  29.069  13.428
74621CL-    CL-46914   0.475   5.722   1.876
74622CL-    CL-46915   2.331  24.548  11.451
74623CL-    CL-46916  22.601  44.988  13.971
74624CL-    CL-46917  15.777  43.279  11.413
74625CL-    CL-46918   0.964  12.766   9.946
74626CL-    CL-46919  37.029  32.516   1.251
74627CL-    CL-46920  32.957  39.423   4.195
74628CL-    CL-46921  14.790   6.778   4.120
74629CL-    CL-46922   0.302  16.215  12.340
74630CL-    CL-46923  16.258   1.470  14.484
74631CL-    CL-46924  32.010  29.436  11.031
74632CL-    CL-46925  37.370  42.365   4.282
74633CL-    CL-46926  19.640  42.834   4.707
74634CL-    CL-46927  38.448  27.072  12.475
74635CL-    CL-46928  12.645  20.087  12.947
74636CL-    CL-46929  13.634  29.609   1.390
74637CL-    CL-46930  41.319  19.239   1.715
74638CL-    CL-46931  33.028  16.701  13.054
74639CL-    CL-46932  25.086   4.749  10.009
74640CL-    CL-46933  19.648  38.516   2.810
74641CL-    CL-46934   7.358   8.863  14.777
74642CL-    CL-46935  24.033  42.286   1.284
74643CL-    CL-46936  25.058  12.277  13.427
74644CL-    CL-46937  11.174  21.133  14.300
74645CL-    CL-46938  11.163  40.875  11.095
74646CL-    CL-46939  35.956   1.767   0.254
74647CL-    CL-46940  28.675  31.916  14.469
74648CL-    CL-46941  44.908  14.593  10.542
74649CL-    CL-46942  13.283  14.639   1.391
74650CL-    CL-46943  12.165  12.736   2.691
74651CL-    CL-46944   1.924  18.085   4.779
74652CL-    CL-46945  26.203  18.120   4.299
74653CL-    CL-46946   6.273   3.270   4.626
74654CL-    CL-46947   4.870  40.378  13.909
74655CL-    CL-46948   0.806  36.577   4.805
74656CL-    CL-46949  44.265  41.507  12.068
74657CL-    CL-46950  22.106  22.013  11.418
74658CL-    CL-46951  16.134  17.766  14.299
74659CL-    CL-46952  37.963   3.279  10.548
74660CL-    CL-46953  28.128  27.619   1.860
74661CL-    CL-46954  22.016  42.398   0.298
74662CL-    CL-46955  15.162  14.660  11.593
74663CL-    CL-46956  33.132  41.002   0.371
74664CL-    CL-46957   9.177  10.835  13.324
74665CL-    CL-46958  23.036  31.479   3.162
74666CL-    CL-46959   2.786  13.145  10.956
74667CL-    CL-46960   4.327  16.574  10.447
74668CL-    CL-46961  11.182  42.838  10.556
74669CL-    CL-46962  20.062  11.286   1.353
74670CL-    CL-46963  39.941  35.507   1.254
74671CL-    CL-46964  33.010  25.471  13.000
74672CL-    CL-46965  33.539  35.397   3.663
74673CL-    CL-46966  29.502  41.927   2.730
74674CL-    CL-46967  39.913  26.159  10.922
74675CL-    CL-46968  38.381  23.678  13.014
74676CL-    CL-46969  39.896  16.692   3.724
74677CL-    CL-46970  16.277  17.264   4.308
74678CL-    CL-46971   1.411  20.031   3.742
74679CL-    CL-46972   9.302  43.808  13.913
74680CL-    CL-46973  27.989   5.292   3.649
74681CL-    CL-46974  43.906  30.637  13.874
74682CL-    CL-46975  20.240   6.763  10.481
74683CL-    CL-46976  10.670  31.023  11.107
74684CL-    CL-46977  30.621  15.743   4.702
74685CL-    CL-46978   7.308  22.044  11.417
74686CL-    CL-46979  11.200  25.543   2.183
74687CL-    CL-46980   7.410  42.988  14.274
74688CL-    CL-46981   4.324  21.232  13.051
74689CL-    CL-46982  14.708  12.726   2.376
74690CL-    CL-46983  11.648  41.846   1.769
74691CL-    CL-46984  19.220  31.581   3.328
74692CL-    CL-46985  37.576  29.509   3.653
74693CL-    CL-46986  19.606  11.812  14.490
74694CL-    CL-46987   6.381  16.215  13.852
74695CL-    CL-46988  23.619  34.401   0.325
74696CL-    CL-46989  23.063  33.075  14.997
74697CL-    CL-46990  24.676  11.221  11.489
74698CL-    CL-46991  16.698  32.042   4.165
74699CL-    CL-46992  22.687  22.582   2.315
74700CL-    CL-46993  23.000  39.986   2.266
74701CL-    CL-46994   9.291  30.038   1.365
74702CL-    CL-46995  28.058  38.823   3.788
74703CL-    CL-46996  28.133  26.486   4.199
74704CL-    CL-46997   9.713  39.333   2.356
74705CL-    CL-46998   5.791  31.104   0.808
74706CL-    CL-46999  35.419  42.403  12.433
74707CL-    CL-47000  44.319   4.840   1.252
74708CL-    CL-47001  41.376  17.784   3.750
74709CL-    CL-47002  11.859  10.218   0.967
74710CL-    CL-47003  27.684  31.558  10.551
74711CL-    CL-47004  14.701  27.044  11.514
74712CL-    CL-47005  39.328  28.521  14.281
74713CL-    CL-47006   9.352  29.475   0.375
74714CL-    CL-47007  28.149  17.771   2.870
74715CL-    CL-47008  21.050  11.849  14.379
74716CL-    CL-47009  32.040  12.358   1.790
74717CL-    CL-47010   4.734  35.985  12.395
74718CL-    CL-47011  23.135  18.756  13.920
74719CL-    CL-47012  30.592   2.923   3.289
74720CL-    CL-47013  22.619  17.236   5.189
74721CL-    CL-47014  27.076   7.199   4.804
74722CL-    CL-47015  11.308   9.880  12.976
74723CL-    CL-47016  19.770  38.022   1.357
74724CL-    CL-47017  21.040  13.179   2.871
74725CL-    CL-47018   3.735  15.804  13.469
74726CL-    CL-47019  27.583  42.908  13.863
74727CL-    CL-47020  44.002  16.799   2.297
74728CL-    CL-47021  13.181  37.486   1.909
74729CL-    CL-47022  32.083  16.156   4.270
74730CL-    CL-47023   9.383  16.289  13.998
74731CL-    CL-47024  14.697  29.533  10.577
74732CL-    CL-47025   2.348  19.153   3.219
74733CL-    CL-47026  18.194  34.571   0.259
74734CL-    CL-47027  34.078  41.306  12.078
74735CL-    CL-47028  18.722  11.367  14.486
74736CL-    CL-47029  34.386  13.348   4.774
74737CL-    CL-47030  20.677  35.016  12.927
74738CL-    CL-47031  36.066   2.344   3.683
74739CL-    CL-47032  43.420  15.162  10.640
74740CL-    CL-47033  28.474  43.403   3.679
74741CL-    CL-47034  36.520  34.945   0.406
74742CL-    CL-47035  34.375  24.560   3.334
74743CL-    CL-47036  37.891  38.933   2.256
74744CL-    CL-47037  27.576  19.052   1.332
74745CL-    CL-47038  30.443  22.252  11.964
74746CL-    CL-47039  31.449  39.451  12.409
74747CL-    CL-47040  23.542  29.103  10.491
74748CL-    CL-47041   0.758  17.610   4.749
74749CL-    CL-47042  11.233   3.372   3.280
74750CL-    CL-47043  16.699  13.843  11.373
74751CL-    CL-47044  19.563  18.617  11.921
74752CL-    CL-47045  16.153  24.518  14.424
74753CL-    CL-47046  19.769  30.074   1.410
74754CL-    CL-47047  41.369   0.451   0.765
74755CL-    CL-47048   5.789   2.890   2.734
74756CL-    CL-47049  37.376  10.661  12.926
74757CL-    CL-47050  43.890   4.399   4.203
74758CL-    CL-47051   2.754  19.646   1.284
74759CL-    CL-47052  19.106  34.959   1.319
74760CL-    CL-47053  33.052  20.085   4.192
74761CL-    CL-47054  16.224   2.391   2.878
74762CL-    CL-47055   4.868  43.377  14.311
74763CL-    CL-47056  28.952   6.267   1.222
74764CL-    CL-47057   3.898  38.012  12.863
74765CL-    CL-47058  13.620  18.122  11.990
74766CL-    CL-47059  15.695   3.294  13.485
74767CL-    CL-47060  24.205   7.185   4.673
74768CL-    CL-47061  22.566  40.039   5.190
74769CL-    CL-47062  17.237  41.872   0.949
74770CL-    CL-47063  38.468  16.681  11.563
74771CL-    CL-47064  16.798  40.448   4.214
74772CL-    CL-47065   9.673  27.680   0.246
74773CL-    CL-47066   1.477   0.417   4.723
74774CL-    CL-47067  13.317  21.202   0.246
74775CL-    CL-47068  38.482  13.723  13.016
74776CL-    CL-47069  17.556  20.584   1.740
74777CL-    CL-47070   8.286  39.844  10.980
74778CL-    CL-47071  33.594  34.113  10.454
74779CL-    CL-47072  11.723  24.685  11.075
74780CL-    CL-47073  13.287  40.488   4.336
74781CL-    CL-47074  15.752  41.035   3.348
74782CL-    CL-47075  25.003  12.191   2.755
74783CL-    CL-47076  34.441  39.368  12.026
74784CL-    CL-47077  28.605  32.574   2.798
74785CL-    CL-47078  18.234  28.640  10.596
74786CL-    CL-47079  42.345  34.499  11.390
74787CL-    CL-47080  22.051  22.150  13.845
74788CL-    CL-47081  18.071  14.786   2.332
74789CL-    CL-47082  37.846  32.527  11.921
74790CL-    CL-47083   7.897  16.271  11.570
74791CL-    CL-47084  20.071   8.803   0.392
74792CL-    CL-47085  30.029  19.693   4.623
74793CL-    CL-47086  18.166  16.076  12.483
74794CL-    CL-47087  26.978  14.260  12.443
74795CL-    CL-47088  21.755  41.368   0.752
74796CL-    CL-47089   4.825  19.766   0.915
74797CL-    CL-47090  25.525  42.896   1.219
74798CL-    CL-47091  43.862  25.042  10.603
74799CL-    CL-47092  38.960  36.014   2.808
74800CL-    CL-47093  43.282  34.614   4.303
74801CL-    CL-47094  21.579  29.544   0.923
74802CL-    CL-47095   2.463  38.030   4.602
74803CL-    CL-47096  10.667   3.252  13.810
74804CL-    CL-47097  18.053  34.378   2.336
74805CL-    CL-47098  34.535   4.698   1.223
74806CL-    CL-47099  20.083  23.639   2.667
74807CL-    CL-47100   6.896  12.332   1.278
74808CL-    CL-47101  14.287  11.367   4.351
74809CL-    CL-47102  40.537  29.487  13.030
74810CL-    CL-47103  14.731  30.478   0.258
74811CL-    CL-47104   4.911   5.833  11.607
74812CL-    CL-47105   3.843   4.747  12.871
74813CL-    CL-47106  13.182  43.461   2.758
74814CL-    CL-47107  39.511  17.239   0.894
74815CL-    CL-47108  44.901  15.278   0.249
74816CL-    CL-47109  14.278  12.649  10.938
74817CL-    CL-47110  14.320   4.763  13.493
74818CL-    CL-47111  41.858  12.323  14.275
74819CL-    CL-47112  23.702  23.132   2.861
74820CL-    CL-47113   1.365  36.096  13.966
74821CL-    CL-47114  17.206  32.574   1.900
74822CL-    CL-47115  18.769  16.107   0.736
74823CL-    CL-47116  34.916  27.671   0.949
74824CL-    CL-47117   3.239  11.287  10.419
74825CL-    CL-47118   4.786  14.217  13.480
74826CL-    CL-47119  16.151  14.316  10.926
74827CL-    CL-47120  28.038   4.729  13.804
74828CL-    CL-47121  13.213   7.352   5.301
74829CL-    CL-47122  32.961   8.731  12.877
74830CL-    CL-47123   6.893  29.990   4.140
74831CL-    CL-47124  41.024  40.000  10.405
74832CL-    CL-47125  37.531  44.377   4.153
74833CL-    CL-47126   8.342  36.404   2.881
74834CL-    CL-47127  39.543  19.661   4.181
74835CL-    CL-47128  43.926  16.707   2.746
74836CL-    CL-47129   4.258   0.941   0.789
74837CL-    CL-47130  12.199   5.281  12.985
74838CL-    CL-47131  37.373  42.814  12.045
74839CL-    CL-47132   3.448  33.067  12.859
74840CL-    CL-47133  15.738  35.979  14.846
74841CL-    CL-47134  42.493  38.540   2.839
74842CL-    CL-47135  20.085   0.350  11.586
74843CL-    CL-47136  32.001  35.064  13.858
74844CL-    CL-47137  37.547  32.903   1.419
74845CL-    CL-47138  30.965   7.690   3.792
74846CL-    CL-47139  39.889  28.581  13.314
74847CL-    CL-47140  41.511  13.133  14.952
74848CL-    CL-47141  21.528  23.592  13.541
74849CL-    CL-47142   5.852   6.352  13.518
74850CL-    CL-47143  39.437  28.039  13.541
74851CL-    CL-47144  17.222  36.061  14.402
74852CL-    CL-47145   7.674  25.509  12.429
74853CL-    CL-47146  42.946  40.548  11.476
74854CL-    CL-47147  40.842  32.125   0.293
74855CL-    CL-47148  13.829  23.568   2.359
74856CL-    CL-47149  26.464   6.226   4.340
74857CL-    CL-47150  11.685  34.074  11.074
74858CL-    CL-47151  24.571  36.514  11.480
74859CL-    CL-47152  22.045  26.180  11.858
74860CL-    CL-47153  20.124  21.172   3.381
74861CL-    CL-47154   2.900  43.987   2.816
74862CL-    CL-47155   2.255  30.948   0.903
74863CL-    CL-47156  32.913   1.890   2.718
74864CL-    CL-47157  17.687  18.127   1.778
74865CL-    CL-47158  15.318  15.153  12.940
74866CL-    CL-47159  11.308   9.745  14.284
74867CL-    CL-47160  37.047   1.744  11.987
74868CL-    CL-47161  14.264   9.288   3.709
74869CL-    CL-47162  11.162  33.510  12.453
74870CL-    CL-47163  30.501  29.551   0.935
74871CL-    CL-47164  39.395   3.406   0.329
74872CL-    CL-47165  34.479  17.785  13.924
74873CL-    CL-47166  26.695   2.762  13.363
74874CL-    CL-47167  21.245   9.254  14.882
74875CL-    CL-47168  26.599  35.001  11.908
74876CL-    CL-47169  34.104  13.790   2.223
74877CL-    CL-47170  29.077  22.593  14.950
74878CL-    CL-47171  13.698  26.567   4.719
74879CL-    CL-47172  29.595  28.081   9.999
74880CL-    CL-47173  15.663   3.870  14.296
74881CL-    CL-47174  24.202  28.115  13.877
74882CL-    CL-47175  40.533  27.952  13.002
74883CL-    CL-47176   4.355  35.548   3.639
74884CL-    CL-47177  12.297  19.160   1.920
74885CL-    CL-47178  44.791  36.055  14.949
74886CL-    CL-47179   9.222   9.283  12.378
74887CL-    CL-47180  19.229   9.392   0.261
74888CL-    CL-47181   4.362  34.867  14.417
74889CL-    CL-47182  31.636  22.729  13.808
74890CL-    CL-47183  23.564   3.924   0.407
74891CL-    CL-47184  43.332  15.734   0.423
74892CL-    CL-47185  36.945   9.746  11.416
74893CL-    CL-47186  13.660   4.436  12.508
74894CL-    CL-47187  32.447   1.327   0.958
74895CL-    CL-47188   3.766  21.661  11.914
74896CL-    CL-47189   6.362  26.033  14.376
74897CL-    CL-47190   6.275   3.804   2.185
74898CL-    CL-47191  13.172  13.117  13.841
74899CL-    CL-47192   8.866  10.300   0.251
74900CL-    CL-47193   4.791  14.679   0.963
74901CL-    CL-47194  38.438   8.168   2.901
74902CL-    CL-47195  27.063  37.043   1.356
74903CL-    CL-47196  38.426   5.215  13.796
74904CL-    CL-47197  11.685  30.482   2.263
74905CL-    CL-47198   9.797  29.560   0.272
74906CL-    CL-47199  20.705  19.138   1.824
74907CL-    CL-47200   5.203  34.555  12.000
74908CL-    CL-47201  21.635  24.551   4.762
74909CL-    CL-47202  10.863  37.922  12.035
74910CL-    CL-47203  44.361  23.028   0.955
74911CL-    CL-47204  14.129  31.961  14.471
74912CL-    CL-47205   9.167  24.040   4.309
74913CL-    CL-47206  32.063  14.663   0.253
74914CL-    CL-47207  23.609  40.326  14.914
74915CL-    CL-47208   4.936  17.615  10.637
74916CL-    CL-47209   9.731  15.132   2.315
74917CL-    CL-47210  20.556  35.872   1.414
74918CL-    CL-47211  30.585  35.593  13.060
74919CL-    CL-47212   4.263  34.079  10.966
74920CL-    CL-47213   0.800  24.191   1.397
74921CL-    CL-47214  34.564  23.173   4.617
74922CL-    CL-47215  30.524  36.842  14.835
74923CL-    CL-47216  32.531   3.370   0.931
74924CL-    CL-47217  13.742  16.596  12.879
74925CL-    CL-47218   3.366  27.550   0.309
74926CL-    CL-47219  25.015  36.962   3.865
74927CL-    CL-47220  14.338  16.129   2.248
74928CL-    CL-47221  41.345  39.969   4.281
74929CL-    CL-47222  43.986  12.354  14.790
74930CL-    CL-47223  26.458  13.105   0.764
74931CL-    CL-47224  20.641  41.912  10.902
74932CL-    CL-47225   0.468   0.264  11.494
74933CL-    CL-47226  43.420  38.906  12.830
74934CL-    CL-47227  38.567   9.296  10.924
74935CL-    CL-47228  17.298  23.020   4.303
74936CL-    CL-47229  20.186  40.900  13.985
74937CL-    CL-47230   2.384  29.433   0.443
74938CL-    CL-47231  32.527  22.698  11.062
74939CL-    CL-47232   7.265   2.440   0.360
74940CL-    CL-47233  14.323  15.273  11.384
74941CL-    CL-47234   3.429  26.518  14.023
74942CL-    CL-47235   5.926  44.801  14.356
74943CL-    CL-47236  39.965  10.875   4.192
74944CL-    CL-47237  34.057  10.754   0.810
74945CL-    CL-47238   9.872  18.065  11.547
74946CL-    CL-47239  29.942   6.381   0.346
74947CL-    CL-47240   4.297  15.645   3.789
74948CL-    CL-47241  10.178   1.366  13.010
74949CL-    CL-47242  29.945  31.916   4.626
74950CL-    CL-47243   2.740  23.537  13.044
74951CL-    CL-47244  18.277  34.457   3.841
74952CL-    CL-47245  22.693  33.074  14.963
74953CL-    CL-47246  21.670  17.289   1.354
74954CL-    CL-47247  30.542  41.820  11.060
74955CL-    CL-47248  32.473  15.221   2.886
74956CL-    CL-47249  40.478   6.732   1.913
74957CL-    CL-47250  40.892   2.913  13.015
74958CL-    CL-47251  10.875   2.230   2.763
74959CL-    CL-47252  17.080  28.054  13.546
74960CL-    CL-47253  30.629  35.922   1.848
74961CL-    CL-47254  21.155  29.039   1.331
74962CL-    CL-47255  34.596   9.711  14.897
74963CL-    CL-47256  40.326  11.853  10.427
74964CL-    CL-47257   4.401  32.553   4.336
74965CL-    CL-47258  35.908  29.150  10.540
74966CL-    CL-47259  18.602  41.326   3.801
74967CL-    CL-47260   3.345  19.161   2.803
74968CL-    CL-47261   7.370   1.346  14.446
74969CL-    CL-47262  18.276   0.483  10.616
74970CL-    CL-47263  37.963  18.131  13.910
74971CL-    CL-47264   4.406  41.975  12.480
74972CL-    CL-47265  34.509  14.734   1.301
74973CL-    CL-47266  19.127  30.583  10.970
74974CL-    CL-47267   1.274  20.084  12.016
74975CL-    CL-47268  44.438  18.203   4.762
74976CL-    CL-47269   0.302  10.268  10.965
74977CL-    CL-47270  37.931  11.816   2.284
74978CL-    CL-47271  24.700  30.111   1.913
74979CL-    CL-47272   1.239  15.254   4.209
74980CL-    CL-47273   0.427  36.426   0.914
74981CL-    CL-47274   8.768   8.201   0.791
74982CL-    CL-47275  18.724  40.341  14.398
74983CL-    CL-47276   3.285  26.590   1.896
74984CL-    CL-47277  14.775  39.912  14.503
74985CL-    CL-47278   7.321  23.634   4.228
74986CL-    CL-47279  23.705  22.128   4.768
74987CL-    CL-47280  39.392  16.139   0.279
74988CL-    CL-47281  35.991  20.524  12.849
74989CL-    CL-47282  10.806  13.740   4.613
74990CL-    CL-47283  18.279   5.383  13.883
74991CL-    CL-47284  34.481   4.904   0.846
74992CL-    CL-47285  28.542  11.163  14.297
74993CL-    CL-47286   5.287   2.791  11.472
74994CL-    CL-47287  18.686   1.837   3.812
74995CL-    CL-47288  21.140   6.737  13.953
74996CL-    CL-47289  38.561  16.707   0.391
74997CL-    CL-47290  41.334  30.064   0.930
74998CL-    CL-47291  37.935  31.608  13.877
74999CL-    CL-47292  17.234  38.906   4.319
75000CL-    CL-47293  34.545  13.722   4.624
75001CL-    CL-47294   6.751  28.008   1.422
75002CL-    CL-47295  18.279  16.114  11.468
75003CL-    CL-47296  27.154   3.356  14.377
75004CL-    CL-47297  32.938  21.118  11.112
75005CL-    CL-47298  40.345  22.111  11.883
75006CL-    CL-47299  43.317  42.465  10.526
75007CL-    CL-47300  21.657   0.882  12.529
75008CL-    CL-47301  37.937  43.789   3.646
75009CL-    CL-47302  21.732  11.717   0.822
75010CL-    CL-47303  29.502  19.540   4.140
75011CL-    CL-47304  42.350   4.700   3.816
75012CL-    CL-47305  23.108  34.115  14.930
75013CL-    CL-47306   3.852  33.910  10.585
75014CL-    CL-47307  21.647  20.196   1.811
75015CL-    CL-47308  15.267  32.498   1.434
75016CL-    CL-47309  30.027   0.430  14.411
75017CL-    CL-47310   2.809   2.387   4.143
75018CL-    CL-47311  33.459  36.098  14.300
75019CL-    CL-47312  29.170  35.377   4.647
75020CL-    CL-47313  15.293  10.710   0.777
75021CL-    CL-47314  10.323   8.798  13.390
75022CL-    CL-47315  43.967   1.262  13.927
75023CL-    CL-47316  38.879  26.157   4.157
75024CL-    CL-47317  21.629  29.122  14.938
75025CL-    CL-47318  17.245  24.527   1.287
75026CL-    CL-47319   7.881  37.997  14.328
75027CL-    CL-47320  31.982  20.608   1.857
75028CL-    CL-47321  20.031  11.323   4.662
75029CL-    CL-47322  33.557  17.072   2.882
75030CL-    CL-47323   9.224  18.598  11.043
75031CL-    CL-47324  10.181  11.196  14.986
75032CL-    CL-47325   7.226  15.160  12.997
75033CL-    CL-47326  29.525  16.073  13.476
75034CL-    CL-47327  36.038  19.614  12.967
75035CL-    CL-47328   3.414  35.537  11.956
75036CL-    CL-47329   0.256  24.012   3.351
75037CL-    CL-47330  38.968   0.988   1.798
75038CL-    CL-47331  17.687  28.499  10.974
75039CL-    CL-47332  40.397   9.886   1.407
75040CL-    CL-47333  36.031  40.441   1.931
75041CL-    CL-47334   1.296  12.304   4.354
75042CL-    CL-47335  13.827   7.387  14.512
75043CL-    CL-47336  10.873  22.591  14.799
75044CL-    CL-47337  11.682  40.840  11.069
75045CL-    CL-47338   2.248  16.175  12.357
75046CL-    CL-47339   6.188  20.594   3.178
75047CL-    CL-47340  20.185   1.745   4.189
75048CL-    CL-47341   3.818  27.590   0.468
75049CL-    CL-47342   5.287  31.087   4.338
75050CL-    CL-47343  29.992  30.597   2.354
75051CL-    CL-47344  34.587  18.713  12.569
75052CL-    CL-47345  34.946  32.444   2.288
75053CL-    CL-47346  37.341  37.051   1.245
75054CL-    CL-47347  43.507  15.797  14.971
75055CL-    CL-47348  19.603   5.331   3.708
75056CL-    CL-47349  40.939  44.444  14.887
75057CL-    CL-47350  33.438  32.993  12.924
75058CL-    CL-47351  40.488  23.636   0.397
75059CL-    CL-47352  27.993  29.066  10.579
75060CL-    CL-47353  13.203  39.854   2.245
75061CL-    CL-47354   2.723  29.595  12.025
75062CL-    CL-47355  28.031  10.153  14.795
75063CL-    CL-47356  20.209   5.931   3.713
75064CL-    CL-47357  21.711  19.774  12.989
75065CL-    CL-47358  21.127  28.571  13.024
75066CL-    CL-47359  40.878   2.815  11.871
75067CL-    CL-47360  39.037  23.070  12.557
75068CL-    CL-47361  29.450   5.322   4.348
75069CL-    CL-47362  44.432  11.264   9.947
75070CL-    CL-47363  21.086  28.132   4.759
75071CL-    CL-47364  33.995  29.144   4.223
75072CL-    CL-47365  32.560   0.814   2.370
75073CL-    CL-47366  10.249  39.370   0.763
75074CL-    CL-47367  20.528  42.921   3.286
75075CL-    CL-47368   6.797  34.423  11.442
75076CL-    CL-47369  30.525  38.837   2.277
75077CL-    CL-47370  23.494   3.826   0.861
75078CL-    CL-47371  17.095  32.947  14.911
75079CL-    CL-47372  34.394  38.970   4.311
75080CL-    CL-47373  18.684  25.200  11.089
75081CL-    CL-47374  38.381  17.147   2.198
75082CL-    CL-47375   6.878  32.590  14.337
75083CL-    CL-47376   0.761  13.790  12.028
75084CL-    CL-47377  41.952  39.026   3.179
75085CL-    CL-47378  43.989  35.509  13.010
75086CL-    CL-47379  14.132  40.019  14.509
75087CL-    CL-47380  15.588  17.174  12.862
75088CL-    CL-47381  25.029  37.075  12.942
75089CL-    CL-47382  44.909  18.620  14.375
75090CL-    CL-47383  40.338  37.086  14.008
75091CL-    CL-47384  17.625  10.362  14.362
75092CL-    CL-47385  26.475  24.095  14.328
75093CL-    CL-47386   6.204  43.326   2.402
75094CL-    CL-47387  31.919  28.031   4.233
75095CL-    CL-47388   4.939  33.891   4.324
75096CL-    CL-47389  40.374  32.441  12.474
75097CL-    CL-47390  42.938  42.896   1.928
75098CL-    CL-47391   9.166  32.947  14.013
75099CL-    CL-47392  24.661  15.748  12.445
75100CL-    CL-47393  38.352  38.951  11.559
75101CL-    CL-47394  13.820   8.766   4.119
75102CL-    CL-47395  27.478   3.826   1.445
75103CL-    CL-47396  31.051   8.240  12.400
75104CL-    CL-47397  14.127  41.952   3.675
75105CL-    CL-47398  20.713  16.190   3.868
75106CL-    CL-47399  23.241  44.399   4.235
75107CL-    CL-47400  42.315  38.353  11.442
75108CL-    CL-47401   4.240  40.378  10.631
75109CL-    CL-47402  21.036  36.400  10.502
75110CL-    CL-47403   0.947  26.132  13.822
75111CL-    CL-47404   2.830  36.561  12.482
75112CL-    CL-47405  39.004  16.085  13.961
75113CL-    CL-47406  24.125  23.213   1.857
75114CL-    CL-47407   3.328  34.455   3.856
75115CL-    CL-47408  29.094  30.970   2.392
75116CL-    CL-47409  37.063  33.060   0.300
75117CL-    CL-47410  24.052  40.926   1.261
75118CL-    CL-47411  43.479   3.725   1.753
75119CL-    CL-47412   2.340  35.458   2.709
75120CL-    CL-47413  11.368   4.708  14.445
75121CL-    CL-47414  19.730  38.958  12.411
75122CL-    CL-47415  33.446   2.787   0.876
75123CL-    CL-47416   0.316   5.248  11.579
75124CL-    CL-47417  23.145  39.823   3.664
75125CL-    CL-47418   0.362   1.785  10.559
75126CL-    CL-47419  37.020  42.814   1.934
75127CL-    CL-47420  13.839  20.068   4.167
75128CL-    CL-47421  32.517  33.500  11.563
75129CL-    CL-47422   7.278   9.385  10.570
75130CL-    CL-47423  40.476  13.315   0.383
75131CL-    CL-47424   3.764   4.887  14.301
75132CL-    CL-47425  21.516   1.774  12.415
75133CL-    CL-47426  22.739  26.679  14.896
75134CL-    CL-47427   0.425  13.153  13.340
75135CL-    CL-47428  14.279  16.262   1.764
75136CL-    CL-47429   1.936   6.888   4.666
75137CL-    CL-47430   8.346  34.915  12.531
75138CL-    CL-47431  41.460   7.713   3.655
75139CL-    CL-47432  35.019  15.683   4.745
75140CL-    CL-47433  23.042  19.175  10.915
75141CL-    CL-47434  35.910  30.439   3.861
75142CL-    CL-47435  40.989  12.194  13.877
75143CL-    CL-47436  24.117  36.031   1.856
75144CL-    CL-47437   3.944   8.394  12.851
75145CL-    CL-47438  19.573   6.355   1.810
75146CL-    CL-47439  27.128  44.268  12.069
75147CL-    CL-47440  15.139  13.640   0.356
75148CL-    CL-47441   9.161   1.454  11.874
75149CL-    CL-47442   3.842  20.150  13.907
75150CL-    CL-47443  33.532  11.207  14.847
75151CL-    CL-47444  17.086  30.001   1.802
75152CL-    CL-47445  37.056   3.911  11.008
75153CL-    CL-47446  16.116  40.547  14.869
75154CL-    CL-47447  25.633  19.614   3.632
75155CL-    CL-47448  13.315  25.647   4.656
75156CL-    CL-47449  37.019  10.340   2.687
75157CL-    CL-47450  14.336  18.142  14.761
75158CL-    CL-47451  24.596  10.232  14.358
75159CL-    CL-47452  44.463   0.863   3.711
75160CL-    CL-47453  20.211  16.281   2.886
75161CL-    CL-47454  24.568  19.534   0.317
75162CL-    CL-47455   4.789   6.707  11.885
75163CL-    CL-47456  23.733  29.067   3.787
75164CL-    CL-47457  22.680  34.042   2.370
75165CL-    CL-47458  16.137  34.961  13.989
75166CL-    CL-47459  24.541  27.028  10.951
75167CL-    CL-47460  22.211  10.682   0.775
75168CL-    CL-47461  36.936  41.033  13.357
75169CL-    CL-47462  26.602  37.087  13.978
75170CL-    CL-47463  13.655  21.032  13.307
75171CL-    CL-47464   9.731   0.344  10.483
75172CL-    CL-47465  17.642   1.734  10.545
75173CL-    CL-47466  24.720  40.348  11.859
75174CL-    CL-47467  16.078   5.300  14.380
75175CL-    CL-47468   2.959  40.806  13.915
75176CL-    CL-47469  11.299  27.667   0.916
75177CL-    CL-47470  25.556  27.995   1.305
75178CL-    CL-47471  42.832  24.995   0.736
75179CL-    CL-47472  29.545  37.364  10.114
75180CL-    CL-47473  18.676  30.136   2.218
75181CL-    CL-47474   6.724  16.789   4.775
75182CL-    CL-47475  25.078  22.189  11.528
75183CL-    CL-47476   4.216  32.474  10.446
75184CL-    CL-47477  21.694  23.585   1.391
75185CL-    CL-47478  38.432  24.054  10.483
75186CL-    CL-47479  10.169  37.464  10.488
75187CL-    CL-47480   3.884  33.928   0.951
75188CL-    CL-47481  42.009  30.915  14.868
75189CL-    CL-47482   7.266  42.366   3.800
75190CL-    CL-47483  25.483  17.194  10.487
75191CL-    CL-47484  43.485  40.408  13.968
75192CL-    CL-47485  20.153   4.315   4.143
75193CL-    CL-47486  16.104  34.992   1.389
75194CL-    CL-47487  36.902  42.382   2.701
75195CL-    CL-47488  23.603   8.888  14.330
75196CL-    CL-47489  14.610  38.004  11.011
75197CL-    CL-47490  38.376  31.044  14.359
75198CL-    CL-47491   4.897  44.453   9.947
75199CL-    CL-47492  34.368   7.843  10.625
75200CL-    CL-47493   2.414   3.445  11.999
75201CL-    CL-47494  27.628  16.103   1.699
75202CL-    CL-47495  35.963   8.339   4.697
75203CL-    CL-47496  15.208  27.682  11.064
75204CL-    CL-47497   2.763  12.174   0.873
75205CL-    CL-47498  40.528  37.971  13.982
75206CL-    CL-47499  30.429  42.284  12.926
75207CL-    CL-47500   6.367  10.208  14.410
75208CL-    CL-47501  31.519  23.085  13.027
75209CL-    CL-47502  21.671  31.448  13.390
75210CL-    CL-47503   9.310  37.067   0.390
75211CL-    CL-47504  10.142  41.793   2.665
75212CL-    CL-47505   1.864   7.326   3.711
75213CL-    CL-47506  30.505  18.088   4.831
75214CL-    CL-47507   3.330  37.517   3.855
75215CL-    CL-47508  38.894  29.072   3.333
75216CL-    CL-47509  24.099  13.713  12.829
75217CL-    CL-47510  24.519  29.632  11.508
75218CL-    CL-47511  28.931   9.154   3.756
75219CL-    CL-47512  40.311  42.928  10.963
75220CL-    CL-47513  19.130  29.132   4.263
75221CL-    CL-47514  27.027  18.643   4.838
75222CL-    CL-47515  11.626   5.410   4.612
75223CL-    CL-47516  15.687  21.255   4.333
75224CL-    CL-47517  38.330  29.467  11.386
75225CL-    CL-47518  23.023  38.429   4.831
75226CL-    CL-47519  33.465   2.290   3.303
75227CL-    CL-47520  33.004  22.683  14.863
75228CL-    CL-47521  42.910  26.994  11.901
75229CL-    CL-47522  38.431   5.687  11.901
75230CL-    CL-47523  19.732  23.179  11.068
75231CL-    CL-47524   1.871  18.229   3.196
75232CL-    CL-47525  34.596   6.393  10.615
75233CL-    CL-47526   1.325  26.500  14.342
75234CL-    CL-47527  15.823  36.941  10.465
75235CL-    CL-47528  27.012  21.244   2.316
75236CL-    CL-47529  36.432  33.994  13.347
75237CL-    CL-47530   7.269  12.683   3.319
75238CL-    CL-47531  41.847   5.886  11.091
75239CL-    CL-47532  31.540   3.398   1.225
75240CL-    CL-47533  21.093   3.226  10.989
75241CL-    CL-47534  37.857  24.630   1.723
75242CL-    CL-47535   8.362  20.081   4.630
75243CL-    CL-47536  32.119  13.175   0.782
75244CL-    CL-47537  16.669  21.035  10.047
75245CL-    CL-47538  14.170  30.643  12.979
75246CL-    CL-47539  14.122  41.969  10.603
75247CL-    CL-47540  27.629  23.632   9.643
75248CL-    CL-47541  13.267   5.830   1.769
75249CL-    CL-47542  34.375  12.807  11.612
75250CL-    CL-47543   8.200  26.603  12.487
75251CL-    CL-47544   2.864  31.067  14.325
75252CL-    CL-47545  14.273  31.090  12.498
75253CL-    CL-47546   0.315  22.098   4.134
75254CL-    CL-47547  34.054   5.864   4.669
75255CL-    CL-47548  44.791  30.965  11.545
75256CL-    CL-47549  37.376  28.456  14.278
75257CL-    CL-47550  14.688   2.443  14.470
75258CL-    CL-47551  34.009  36.526   2.313
75259CL-    CL-47552  30.945  25.007   0.744
75260CL-    CL-47553  18.554  35.984   2.716
75261CL-    CL-47554  24.720  35.033   2.888
75262CL-    CL-47555  21.232  17.073  13.935
75263CL-    CL-47556  35.556  26.586  14.920
75264CL-    CL-47557  15.288   1.766   3.254
75265CL-    CL-47558  14.222   7.874   4.144
75266CL-    CL-47559  29.583   1.916  14.843
75267CL-    CL-47560  24.143  31.153  14.879
75268CL-    CL-47561  11.808  20.225  12.930
75269CL-    CL-47562  44.769  12.763  11.397
75270CL-    CL-47563  39.846  30.617  14.845
75271CL-    CL-47564   9.292  20.545   2.828
75272CL-    CL-47565  33.565  44.397  10.095
75273CL-    CL-47566   2.831  37.983  10.533
75274CL-    CL-47567  17.739   5.234  10.966
75275CL-    CL-47568  24.978  44.453  12.503
75276CL-    CL-47569  14.103  35.565  13.057
75277CL-    CL-47570  14.794   5.410  10.067
75278CL-    CL-47571  33.043  40.949  13.956
75279CL-    CL-47572  25.530  28.521  14.300
75280CL-    CL-47573  37.468  28.501  14.763
75281CL-    CL-47574  20.573  32.988  12.907
75282CL-    CL-47575  28.490  19.715  13.452
75283CL-    CL-47576  15.140  41.808  12.974
75284CL-    CL-47577   1.906  21.691  11.546
75285CL-    CL-47578  33.892  15.094  13.356
75286CL-    CL-47579   7.313  15.315   4.214
75287CL-    CL-47580  21.104  38.030  13.936
75288CL-    CL-47581  19.068  35.466   4.671
75289CL-    CL-47582  37.848  23.550   2.231
75290CL-    CL-47583   6.389  15.127   2.349
75291CL-    CL-47584  19.242  21.581   1.239
75292CL-    CL-47585  18.142  25.544   0.342
75293CL-    CL-47586  16.696  33.963   4.130
75294CL-    CL-47587  29.007   7.778  13.340
75295CL-    CL-47588  21.637  29.468  11.591
75296CL-    CL-47589   9.355  39.321  10.550
75297CL-    CL-47590  12.195  21.044  12.890
75298CL-    CL-47591   8.726  13.745   0.917
75299CL-    CL-47592  20.068  30.637   9.439
75300CL-    CL-47593  33.425  23.992  13.910
75301CL-    CL-47594  28.106   4.916   3.339
75302CL-    CL-47595   5.897  42.301   0.382
75303CL-    CL-47596  37.526  22.578  13.843
75304CL-    CL-47597  40.893  35.364   1.447
75305CL-    CL-47598  24.507  19.166   0.350
75306CL-    CL-47599   2.865  22.094  13.866
75307CL-    CL-47600  14.706  39.911  12.857
75308CL-    CL-47601   8.337   1.283   3.775
75309CL-    CL-47602  42.845  42.958  11.612
75310CL-    CL-47603  14.269  44.968   0.348
75311CL-    CL-47604  35.039   6.254   5.190
75312CL-    CL-47605  11.208  39.438  10.967
75313CL-    CL-47606  18.698  20.546   2.849
75314CL-    CL-47607  32.463  43.278  12.491
75315CL-    CL-47608  27.609  10.775   4.837
75316CL-    CL-47609   0.463  41.492   4.140
75317CL-    CL-47610  15.189  32.588   2.322
75318CL-    CL-47611  41.007  31.082   4.606
75319CL-    CL-47612  21.207  39.811  13.427
75320CL-    CL-47613   2.378  10.156   5.280
75321CL-    CL-47614   7.240  26.541   1.792
75322CL-    CL-47615  33.891  10.314  14.404
75323CL-    CL-47616  38.911  36.978  14.421
75324CL-    CL-47617  10.214  42.415   2.872
75325CL-    CL-47618   9.767  12.684  12.342
75326CL-    CL-47619  17.667  28.514  11.590
75327CL-    CL-47620  32.085  14.136  11.609
75328CL-    CL-47621   6.759  37.493   4.139
75329CL-    CL-47622  35.577  28.606   1.370
75330CL-    CL-47623  28.981  41.478  12.094
75331CL-    CL-47624  40.530  27.988   2.839
75332CL-    CL-47625  20.606   7.355   4.229
75333CL-    CL-47626   7.257  35.485   2.338
75334CL-    CL-47627  25.053  14.298   1.770
75335CL-    CL-47628   0.907  21.131  14.019
75336CL-    CL-47629  32.409   0.339   1.248
75337CL-    CL-47630  11.800  38.990  13.442
75338CL-    CL-47631  25.967  32.583   4.320
75339CL-    CL-47632   1.746  31.622   4.742
75340CL-    CL-47633  10.843  40.382  13.489
75341CL-    CL-47634  30.922  16.249  12.086
75342CL-    CL-47635   4.788  23.038  12.548
75343CL-    CL-47636  43.843  16.582  10.063
75344CL-    CL-47637  13.826  35.394   2.881
75345CL-    CL-47638  24.633  33.874   0.353
75346CL-    CL-47639   8.724  20.205   0.877
75347CL-    CL-47640   4.778  17.657   4.630
75348CL-    CL-47641  21.750  22.120  11.601
75349CL-    CL-47642  40.876  29.091   0.330
75350CL-    CL-47643  15.650  24.206  11.478
75351CL-    CL-47644   2.760  14.682   4.183
75352CL-    CL-47645  29.981  34.600   3.676
75353CL-    CL-47646  21.121   3.746  10.992
75354CL-    CL-47647  22.538  40.030  10.569
75355CL-    CL-47648  15.580  36.053  11.901
75356CL-    CL-47649  21.677   8.870  10.971
75357CL-    CL-47650  23.062  15.647   0.270
75358CL-    CL-47651   3.793  44.395   3.638
75359CL-    CL-47652  17.587   3.352  10.463
75360CL-    CL-47653  32.044  10.233   1.255
75361CL-    CL-47654  43.356  31.068  10.430
75362CL-    CL-47655  33.959  17.220   3.679
75363CL-    CL-47656  24.978  28.090  10.569
75364CL-    CL-47657  43.771  11.634  13.470
75365CL-    CL-47658  21.072  11.630   4.610
75366CL-    CL-47659  33.920  12.650   4.804
75367CL-    CL-47660  22.154  16.242   3.698
75368CL-    CL-47661  41.345  32.499   2.414
75369CL-    CL-47662   6.878  14.636   1.383
75370CL-    CL-47663  26.069  23.107   3.859
75371CL-    CL-47664  21.130  35.084  12.013
75372CL-    CL-47665  18.647  21.101   9.540
75373CL-    CL-47666  18.289  44.823   0.334
75374CL-    CL-47667  22.505  27.947  10.892
75375CL-    CL-47668  15.824  37.349  13.524
75376CL-    CL-47669  29.986  30.471  12.408
75377CL-    CL-47670  18.297  36.478   3.188
75378CL-    CL-47671   6.341  17.558   4.139
75379CL-    CL-47672  34.486  42.881  14.924
75380CL-    CL-47673  32.533  26.556  13.860
75381CL-    CL-47674   1.793  10.768   0.257
75382CL-    CL-47675   7.747  11.295  12.030
75383CL-    CL-47676  30.923  26.475   0.408
75384CL-    CL-47677  11.836  16.084  12.981
75385CL-    CL-47678  21.529  24.981  13.442
75386CL-    CL-47679  25.000  37.381  14.301
75387CL-    CL-47680  23.188  30.639   2.230
75388CL-    CL-47681  24.056  34.918   1.755
75389CL-    CL-47682  36.390  34.053  14.366
75390CL-    CL-47683  14.326  39.830  14.869
75391CL-    CL-47684  40.033  44.820  12.878
75392CL-    CL-47685  30.006  36.874  13.917
75393CL-    CL-47686  42.916  34.539  14.349
75394CL-    CL-47687  29.428  25.467  14.783
75395CL-    CL-47688  31.571  25.500   4.815
75396CL-    CL-47689   8.306  30.570   0.437
75397CL-    CL-47690   8.180   4.357  14.973
75398CL-    CL-47691  28.039  22.241  10.949
75399CL-    CL-47692  38.559  21.595  12.847
75400CL-    CL-47693  21.049  10.664   2.304
75401CL-    CL-47694   3.777  19.629  14.328
75402CL-    CL-47695  36.954  33.904   2.262
75403CL-    CL-47696  18.782  13.301  14.976
75404CL-    CL-47697  31.936  17.611   4.715
75405CL-    CL-47698  34.402  18.608   1.381
75406CL-    CL-47699  26.208   5.927   1.761
75407CL-    CL-47700   7.372  42.503  10.447
75408CL-    CL-47701   8.862  26.544  13.526
75409CL-    CL-47702  24.993  35.033  14.992
75410CL-    CL-47703  40.457  19.117   2.409
75411CL-    CL-47704   1.398  39.419  12.484
75412CL-    CL-47705  37.563  37.427   3.224
75413CL-    CL-47706  12.187  13.334  12.380
75414CL-    CL-47707  35.016  33.919  13.851
75415CL-    CL-47708  21.120   4.845   0.793
75416CL-    CL-47709  32.969   6.879   0.953
75417CL-    CL-47710   8.847  13.204   1.878
75418CL-    CL-47711  38.522   7.261   2.852
75419CL-    CL-47712  44.805   6.789  11.416
75420CL-    CL-47713  36.062  31.413  12.070
75421CL-    CL-47714  36.960  35.062  12.496
75422CL-    CL-47715  23.023  34.108  12.426
75423CL-    CL-47716  36.472  31.582   2.302
75424CL-    CL-47717  19.069  41.449  12.882
75425CL-    CL-47718   1.352  25.015   5.172
75426CL-    CL-47719   9.245  11.223  10.019
75427CL-    CL-47720   5.882  10.218  10.633
75428CL-    CL-47721  21.143   8.841   4.150
75429CL-    CL-47722  11.816  37.477   2.694
75430CL-    CL-47723  10.829   7.890   3.315
75431CL-    CL-47724  23.102  41.380   1.326
75432CL-    CL-47725  24.524   9.394   0.338
75433CL-    CL-47726  15.597   0.754   1.890
75434CL-    CL-47727  34.936  11.318  13.025
75435CL-    CL-47728  32.527  17.556  11.546
75436CL-    CL-47729   9.232  19.568   4.287
75437CL-    CL-47730  30.002  18.261  12.421
75438CL-    CL-47731   5.750  13.318   4.714
75439CL-    CL-47732  16.619  30.077   4.121
75440CL-    CL-47733  22.126   3.409   0.387
75441CL-    CL-47734  29.649   1.463   3.749
75442CL-    CL-47735  16.218  37.492   0.325
75443CL-    CL-47736   1.851  41.820   2.368
75444CL-    CL-47737  19.556  35.042  10.603
75445CL-    CL-47738  39.043  10.844  11.877
75446CL-    CL-47739  34.988  10.147   1.257
75447CL-    CL-47740  24.533  35.936  12.829
75448CL-    CL-47741  44.977  36.991   5.115
75449CL-    CL-47742  42.033  33.024  14.923
75450CL-    CL-47743  41.008  37.038  13.987
75451CL-    CL-47744  32.514  24.546   4.274
75452CL-    CL-47745  42.009  18.622  11.082
75453CL-    CL-47746  13.342  18.250   1.725
75454CL-    CL-47747  35.393   5.707   3.630
75455CL-    CL-47748  17.692  39.922   3.659
75456CL-    CL-47749   1.380  27.991  12.500
75457CL-    CL-47750   5.205  20.041   3.751
75458CL-    CL-47751   4.230  17.199   2.315
75459CL-    CL-47752  21.715   7.743  12.490
75460CL-    CL-47753  28.079  28.578  12.855
75461CL-    CL-47754  42.293  37.832   3.171
75462CL-    CL-47755  24.725  36.890   3.700
75463CL-    CL-47756   3.297  14.117   0.740
75464CL-    CL-47757  13.627   1.817  13.311
75465CL-    CL-47758  22.526   7.410   2.375
75466CL-    CL-47759  12.650  16.635  12.985
75467CL-    CL-47760  14.150  32.422   0.868
75468CL-    CL-47761  31.595  25.057   4.156
75469CL-    CL-47762  44.273  15.671  13.450
75470CL-    CL-47763  30.988  23.497  10.994
75471CL-    CL-47764  26.647  22.092  10.450
75472CL-    CL-47765  13.184   9.667  12.349
75473CL-    CL-47766  35.562   2.292  12.435
75474CL-    CL-47767  16.262   6.719   0.416
75475CL-    CL-47768  16.280  41.847   1.271
75476CL-    CL-47769  10.763  13.613   3.644
75477CL-    CL-47770  28.123  28.634   4.810
75478CL-    CL-47771  40.814   9.881   0.806
75479CL-    CL-47772  28.567   3.321   4.135
75480CL-    CL-47773  14.594   8.668  12.349
75481CL-    CL-47774  29.657   8.695  14.390
75482CL-    CL-47775  41.844  17.180   4.675
75483CL-    CL-47776  34.108   0.762  14.775
75484CL-    CL-47777  10.678  14.300   1.216
75485CL-    CL-47778   7.669  10.658   3.250
75486CL-    CL-47779   2.229  17.233  13.338
75487CL-    CL-47780  43.012   6.216   3.185
75488CL-    CL-47781   9.760  32.449  13.422
75489CL-    CL-47782   6.257  37.889   2.769
75490CL-    CL-47783  42.418  16.188   9.997
75491CL-    CL-47784  13.744  37.560  11.376
75492CL-    CL-47785  40.952  37.910  14.896
75493CL-    CL-47786   5.201  13.279  14.858
75494CL-    CL-47787   0.820   7.699   1.330
75495CL-    CL-47788   1.291  36.912  14.410
75496CL-    CL-47789  27.005  37.087  14.335
75497CL-    CL-47790   0.452  29.480  12.925
75498CL-    CL-47791  38.952  26.973   0.913
75499CL-    CL-47792   9.680  32.481   4.680
75500CL-    CL-47793  40.401  22.646  14.431
75501CL-    CL-47794  18.566   1.310  13.380
75502CL-    CL-47795  42.352   3.745  12.903
75503CL-    CL-47796  34.599  38.358  14.029
75504CL-    CL-47797  26.110  11.196  12.954
75505CL-    CL-47798  32.044  43.841  13.461
75506CL-    CL-47799  37.484   3.439  10.543
75507CL-    CL-47800   9.827  40.893   3.756
75508CL-    CL-47801  28.461  13.338  13.914
75509CL-    CL-47802  33.085  38.896  10.917
75510CL-    CL-47803   0.773  26.023   3.742
75511CL-    CL-47804  41.452  13.698   2.742
75512CL-    CL-47805   6.393   9.390   1.740
75513CL-    CL-47806  40.868   0.469  10.008
75514CL-    CL-47807   0.892  31.104   3.646
75515CL-    CL-47808   3.395   1.923  13.999
75516CL-    CL-47809  21.590  33.587  13.508
75517CL-    CL-47810  13.760  19.158  14.853
75518CL-    CL-47811   8.832  28.118  13.015
75519CL-    CL-47812  41.000  37.444   5.298
75520CL-    CL-47813  34.976   2.934   1.706
75521CL-    CL-47814  21.197  29.027  10.899
75522CL-    CL-47815  16.700  10.185  13.824
75523CL-    CL-47816   7.835   8.372  12.076
75524CL-    CL-47817  43.511  26.507  10.965
75525CL-    CL-47818   0.859  11.268   2.882
75526CL-    CL-47819   0.871   7.399  11.528
75527CL-    CL-47820  20.110  33.498   3.858
75528CL-    CL-47821   8.405  31.053  14.400
75529CL-    CL-47822  38.491  25.055  12.910
75530CL-    CL-47823  27.165   0.358  11.596
75531CL-    CL-47824   7.389  40.004   1.742
75532CL-    CL-47825  15.127  21.097  14.986
75533CL-    CL-47826  22.205   3.274   4.133
75534CL-    CL-47827   0.987  43.868   4.714
75535CL-    CL-47828  19.760   6.201  11.118
75536CL-    CL-47829  18.232   9.800   2.189
75537CL-    CL-47830  32.966   7.797  13.470
75538CL-    CL-47831   7.802  12.199   1.401
75539CL-    CL-47832  36.924   7.890  12.053
75540CL-    CL-47833  14.767  14.165  10.516
75541CL-    CL-47834   0.851  18.089  14.472
75542CL-    CL-47835  26.057   5.825  14.013
75543CL-    CL-47836   4.749   6.680   4.784
75544CL-    CL-47837  25.189  36.973   2.773
75545CL-    CL-47838  31.428   9.843  12.468
75546CL-    CL-47839   8.280  19.257  10.968
75547CL-    CL-47840  34.475   3.405   3.637
75548CL-    CL-47841   4.766  34.552  10.102
75549CL-    CL-47842  39.406  25.174  14.304
75550CL-    CL-47843   9.868  32.540   1.389
75551CL-    CL-47844  24.175  36.874   4.264
75552CL-    CL-47845  22.515  10.343   3.367
75553CL-    CL-47846  26.999  28.594   0.809
75554CL-    CL-47847  41.478  36.410  13.527
75555CL-    CL-47848  35.027  24.014   3.305
75556CL-    CL-47849  16.315  39.854   3.362
75557CL-    CL-47850  40.955  26.571  13.022
75558CL-    CL-47851  36.521  12.291   2.259
75559CL-    CL-47852  22.700  34.873   1.287
75560CL-    CL-47853   1.744   1.350   2.711
75561CL-    CL-47854  34.403   1.927  11.879
75562CL-    CL-47855  12.659  12.617  12.834
75563CL-    CL-47856  30.958   3.281  12.085
75564CL-    CL-47857  19.090  36.048   2.236
75565CL-    CL-47858  14.768   1.442   0.840
75566CL-    CL-47859   6.385  33.557   4.608
75567CL-    CL-47860   7.901  14.687   2.723
75568CL-    CL-47861  23.553  13.731   4.132
75569CL-    CL-47862  22.622  20.688   0.416
75570CL-    CL-47863  22.507  38.440  10.896
75571CL-    CL-47864  38.883  38.991   1.808
75572CL-    CL-47865   1.966  33.897   2.189
75573CL-    CL-47866  11.662   1.481   4.835
75574CL-    CL-47867   3.929  40.877  12.449
75575CL-    CL-47868  32.973  15.732  11.490
75576CL-    CL-47869  25.154  18.152   0.961
75577CL-    CL-47870   6.238  43.362  11.512
75578CL-    CL-47871   3.348  21.695   0.885
75579CL-    CL-47872   9.228   3.445  13.031
75580CL-    CL-47873   4.447  30.926  11.928
75581CL-    CL-47874  38.532   9.842  14.947
75582CL-    CL-47875  28.090  18.223  12.441
75583CL-    CL-47876  15.217  23.694   1.872
75584CL-    CL-47877  30.517  11.829  12.838
75585CL-    CL-47878  25.688  18.180   4.667
75586CL-    CL-47879  43.942  40.326  11.031
75587CL-    CL-47880   4.234  32.954   0.321
75588CL-    CL-47881  17.655  23.592  10.062
75589CL-    CL-47882  42.967   9.221   0.861
75590CL-    CL-47883   7.337  41.793   1.253
75591CL-    CL-47884  17.743  24.545   0.789
75592CL-    CL-47885  42.943  31.147   4.161
75593CL-    CL-47886  11.866   7.377  11.386
75594CL-    CL-47887   8.328  38.422  12.519
75595CL-    CL-47888  13.828  14.256  11.086
75596CL-    CL-47889  23.016  24.025  10.992
75597CL-    CL-47890  26.572  13.350  10.922
75598CL-    CL-47891  42.986  42.021   1.286
75599CL-    CL-47892  24.195  37.444  14.368
75600CL-    CL-47893  17.759  28.018   0.429
75601CL-    CL-47894   1.873   4.350   0.796
75602CL-    CL-47895  31.618  16.220  12.090
75603CL-    CL-47896  11.207   2.814  12.534
75604CL-    CL-47897  19.174  36.044  14.957
75605CL-    CL-47898  18.783   7.281   0.256
75606CL-    CL-47899  23.700  40.047   4.693
75607CL-    CL-47900  17.702  25.547  14.781
75608CL-    CL-47901  16.732  44.418  13.430
75609CL-    CL-47902  26.509  23.606  11.966
75610CL-    CL-47903  36.585  40.503  10.972
75611CL-    CL-47904  28.136  12.338   1.882
75612CL-    CL-47905  34.520  42.411  12.847
75613CL-    CL-47906  33.999  14.095   3.752
75614CL-    CL-47907  19.205  36.443   0.874
75615CL-    CL-47908  27.652  31.116  12.023
75616CL-    CL-47909  35.479   1.360   0.430
75617CL-    CL-47910  29.489  36.005  11.860
75618CL-    CL-47911  29.088  14.262   0.820
75619CL-    CL-47912  25.686  29.554  11.079
75620CL-    CL-47913  18.191  18.236   2.366
75621CL-    CL-47914   7.672  10.681  11.039
75622CL-    CL-47915   4.714  25.990   5.269
75623CL-    CL-47916  17.219   6.718  10.587
75624CL-    CL-47917   3.298  13.795   1.300
75625CL-    CL-47918  15.708  12.171  14.892
75626CL-    CL-47919   9.366  12.655  14.459
75627CL-    CL-47920  23.614   5.855   0.735
75628CL-    CL-47921  14.100  41.469   3.836
75629CL-    CL-47922  23.517   0.951   4.660
75630CL-    CL-47923  42.790   6.778  12.526
75631CL-    CL-47924  26.629  28.507  12.462
75632CL-    CL-47925  42.904  10.789  12.548
75633CL-    CL-47926  25.687  40.802   4.162
75634CL-    CL-47927  35.094  33.884  12.007
75635CL-    CL-47928   8.861  33.903   3.867
75636CL-    CL-47929  23.069  19.062  12.525
75637CL-    CL-47930  37.065  23.676  12.996
75638CL-    CL-47931   0.360  43.275  13.965
75639CL-    CL-47932   8.275  44.772  14.965
75640CL-    CL-47933   8.776  37.342   3.692
75641CL-    CL-47934   2.739   7.171  10.901
75642CL-    CL-47935  42.493  20.702  14.979
75643CL-    CL-47936  29.620  23.599  14.496
75644CL-    CL-47937  14.098  12.283   0.941
75645CL-    CL-47938  11.825  24.093   4.839
75646CL-    CL-47939  38.866  43.458  13.063
75647CL-    CL-47940  41.956  20.618   2.269
75648CL-    CL-47941  33.979  43.346  10.964
75649CL-    CL-47942  23.559  17.194   1.923
75650CL-    CL-47943  29.094  31.128  12.996
75651CL-    CL-47944   2.421   5.195   4.680
75652CL-    CL-47945  24.110  20.526  14.909
75653CL-    CL-47946  13.277  43.805   2.702
75654CL-    CL-47947  11.184  18.172  14.899
75655CL-    CL-47948  21.647  35.603  12.093
75656CL-    CL-47949  24.108  23.989   1.214
75657CL-    CL-47950   0.916  43.933  12.835
75658CL-    CL-47951   2.964   9.173   2.769
75659CL-    CL-47952   4.810  35.881   9.972
75660CL-    CL-47953  15.666   6.291  10.892
75661CL-    CL-47954   0.875   1.963   2.820
75662CL-    CL-47955  37.381  41.436   9.920
75663CL-    CL-47956  26.198  12.620  13.370
75664CL-    CL-47957  43.382  27.495  12.578
75665CL-    CL-47958  16.270  39.898  13.347
75666CL-    CL-47959  34.553   0.950   0.896
75667CL-    CL-47960  40.893  39.495   1.778
75668CL-    CL-47961  19.148   7.812   1.321
75669CL-    CL-47962   3.345   4.254  13.894
75670CL-    CL-47963  14.331   2.387  12.835
75671CL-    CL-47964  39.402  25.526  13.968
75672CL-    CL-47965  36.002   1.465  12.470
75673CL-    CL-47966  30.427  25.154   1.699
75674CL-    CL-47967  33.559   5.742   3.147
75675CL-    CL-47968  23.510  39.416   4.177
75676CL-    CL-47969  21.157  22.611   1.913
75677CL-    CL-47970   8.684  14.652   4.157
75678CL-    CL-47971  14.128  18.657   5.132
75679CL-    CL-47972  34.557  31.073  12.948
75680CL-    CL-47973   9.648  27.118   1.815
75681CL-    CL-47974  28.968  22.127   4.666
75682CL-    CL-47975  17.306   3.318  13.432
75683CL-    CL-47976  31.437  21.713  13.033
75684CL-    CL-47977  34.395  37.422   3.277
75685CL-    CL-47978   8.240   0.440   0.385
75686CL-    CL-47979  29.161  27.486   1.310
75687CL-    CL-47980  27.552  40.313  10.628
75688CL-    CL-47981  12.268  41.029  12.852
75689CL-    CL-47982   2.746   3.268  12.514
75690CL-    CL-47983  22.184  22.663   0.872
75691CL-    CL-47984  40.995  24.052  12.340
75692CL-    CL-47985   3.853  19.644  13.908
75693CL-    CL-47986   1.762   5.249  13.330
75694CL-    CL-47987  17.604  18.194  10.434
75695CL-    CL-47988  27.132   5.722  14.018
75696CL-    CL-47989  24.551  33.591   4.283
75697CL-    CL-47990  30.147  19.595   3.159
75698CL-    CL-47991  15.283   8.708   4.200
75699CL-    CL-47992  32.548  31.139   2.815
75700CL-    CL-47993  18.082  12.160   0.901
75701CL-    CL-47994  27.992   4.748   5.320
75702CL-    CL-47995  26.695  42.991  14.997
75703CL-    CL-47996   8.658  36.578   4.144
75704CL-    CL-47997   1.913   3.263   1.698
75705CL-    CL-47998  38.845  38.931  11.489
75706CL-    CL-47999   3.755  29.615  11.426
75707CL-    CL-48000  42.340  25.047   2.863
75708CL-    CL-48001   8.717  43.930  12.083
75709CL-    CL-48002  44.382  13.312  10.484
75710CL-    CL-48003  16.263   5.908  12.833
75711CL-    CL-48004  12.267  28.468  11.999
75712CL-    CL-48005  15.732   3.724  10.048
75713CL-    CL-48006  14.334  34.601  11.042
75714CL-    CL-48007  34.413  41.530   0.960
75715CL-    CL-48008  17.774   9.368   2.771
75716CL-    CL-48009  44.996  37.414   5.276
75717CL-    CL-48010   4.262  36.028  14.336
75718CL-    CL-48011  39.339  39.855   2.248
75719CL-    CL-48012  32.992  41.958  11.024
75720CL-    CL-48013  32.394  36.476   1.792
75721CL-    CL-48014  40.997  37.072   4.245
75722CL-    CL-48015  18.681  23.669  11.589
75723CL-    CL-48016  35.415  26.207   2.890
75724CL-    CL-48017  23.240  44.785  13.323
75725CL-    CL-48018   6.854  34.954   5.310
75726CL-    CL-48019  34.943  41.889  12.507
75727CL-    CL-48020  34.607  25.026   3.739
75728CL-    CL-48021  34.554  10.722   4.114
75729CL-    CL-48022  20.576  31.629  13.482
75730CL-    CL-48023   9.842   5.329   3.289
75731CL-    CL-48024  22.120  32.496   3.685
75732CL-    CL-48025  17.556  44.497   0.775
75733CL-    CL-48026  34.527  10.723   2.301
75734CL-    CL-48027  12.136  17.642  13.534
75735CL-    CL-48028   4.789  21.675  10.566
75736CL-    CL-48029  28.122  15.624  12.838
75737CL-    CL-48030   0.796  38.985  12.911
75738CL-    CL-48031   0.390   2.760  14.877
75739CL-    CL-48032  33.098  30.136   4.769
75740CL-    CL-48033  40.834  35.527   2.417
75741CL-    CL-48034  29.062  30.597  10.471
75742CL-    CL-48035  31.528  38.962   1.819
75743CL-    CL-48036  38.826  31.462  13.526
75744CL-    CL-48037  40.874  43.397   2.731
75745CL-    CL-48038   5.397  38.545   1.232
75746CL-    CL-48039   7.198   2.304  12.496
75747CL-    CL-48040  27.583   3.259   2.204
75748CL-    CL-48041  25.684  37.891  14.843
75749CL-    CL-48042   1.922  32.041   4.778
75750CL-    CL-48043  13.321  20.652  13.414
75751CL-    CL-48044  13.189  24.502   1.243
75752CL-    CL-48045  12.800  23.513  12.536
75753CL-    CL-48046  19.144  14.197  14.997
75754CL-    CL-48047   4.346  15.115   0.445
75755CL-    CL-48048  14.821  31.121  13.456
75756CL-    CL-48049  24.611  13.814   1.298
75757CL-    CL-48050  31.032   8.805   4.598
75758CL-    CL-48051   3.289   3.422   0.886
75759CL-    CL-48052  36.960  29.454   3.817
75760CL-    CL-48053  38.015  12.797   2.872
75761CL-    CL-48054  34.605  40.309   0.255
75762CL-    CL-48055   8.269  18.740  11.562
75763CL-    CL-48056  12.811  26.679   1.699
75764CL-    CL-48057  37.933   9.889  13.358
75765CL-    CL-48058  31.074  29.016   2.353
75766CL-    CL-48059  22.549  43.360   1.292
75767CL-    CL-48060  28.086  32.980   1.408
75768CL-    CL-48061  41.816   3.309   2.218
75769CL-    CL-48062  38.998  28.666   2.255
75770CL-    CL-48063  20.663   8.790   0.320
75771CL-    CL-48064  43.780  25.000   4.675
75772CL-    CL-48065  38.997  28.967   3.787
75773CL-    CL-48066  36.435  24.977  10.106
75774CL-    CL-48067  28.471  38.883  14.859
75775CL-    CL-48068  37.507  42.923   4.158
75776CL-    CL-48069  29.586  15.130  13.910
75777CL-    CL-48070  33.057  20.194   3.817
75778CL-    CL-48071  33.057  27.460   3.378
75779CL-    CL-48072  14.170  43.289   1.348
75780CL-    CL-48073   1.788  40.824   2.740
75781CL-    CL-48074  28.627  27.940   0.478
75782CL-    CL-48075  25.205   4.322   2.218
75783CL-    CL-48076  16.662  23.569  11.412
75784CL-    CL-48077  17.193   2.800  11.610
75785CL-    CL-48078  30.131  34.588  14.026
75786CL-    CL-48079  25.103  38.377   4.341
75787CL-    CL-48080  11.357  25.666   4.758
75788CL-    CL-48081  19.196  35.383  12.344
75789CL-    CL-48082  10.648   8.764  13.365
75790CL-    CL-48083  42.818  41.454  14.514
75791CL-    CL-48084  36.985  14.329   3.300
75792CL-    CL-48085   2.449  32.898   1.445
75793CL-    CL-48086  19.187  26.695  14.311
75794CL-    CL-48087   5.239   9.286  11.492
75795CL-    CL-48088  11.238  32.958  14.777
75796CL-    CL-48089   0.962  35.518   1.709
75797CL-    CL-48090  29.553  44.944   3.827
75798CL-    CL-48091  30.489  10.269  11.877
75799CL-    CL-48092  35.975  22.689   1.362
75800CL-    CL-48093  20.090   9.859  13.441
75801CL-    CL-48094  26.565  42.337   2.766
75802CL-    CL-48095  30.117  42.926   0.243
75803CL-    CL-48096   2.746  33.490  14.896
75804CL-    CL-48097  43.389  19.252   0.763
75805CL-    CL-48098  34.569  41.401   1.429
75806CL-    CL-48099   5.813  22.047  12.394
75807CL-    CL-48100   6.422  31.110   1.436
75808CL-    CL-48101  43.482  43.771  12.925
75809CL-    CL-48102   2.892  28.992   2.766
75810CL-    CL-48103  29.499  17.125   0.945
75811CL-    CL-48104  39.048  16.197   4.719
75812CL-    CL-48105   7.313  32.517  14.848
75813CL-    CL-48106  43.857   7.881   3.856
75814CL-    CL-48107  20.601  16.755  14.907
75815CL-    CL-48108  18.750   1.368  14.936
75816CL-    CL-48109  30.064  19.740  10.619
75817CL-    CL-48110  40.862   6.764   1.336
75818CL-    CL-48111  15.175  14.665  13.428
75819CL-    CL-48112  28.170   7.887  12.567
75820CL-    CL-48113   5.921  22.107  14.979
75821CL-    CL-48114  39.356   6.769   3.646
75822CL-    CL-48115   7.275   1.465  13.337
75823CL-    CL-48116  27.628   3.730   3.283
75824CL-    CL-48117  12.221  41.041  13.399
75825CL-    CL-48118  27.142  21.717  12.380
75826CL-    CL-48119  19.226  17.731   4.263
75827CL-    CL-48120  37.422  13.766   4.792
75828CL-    CL-48121  32.392   7.385   2.824
75829CL-    CL-48122  26.163  29.166   0.852
75830CL-    CL-48123  11.235  35.093  13.408
75831CL-    CL-48124  34.595  19.706  13.545
75832CL-    CL-48125  44.276  12.707  13.344
75833CL-    CL-48126  29.071  22.667   4.325
75834CL-    CL-48127  16.230   5.833   4.242
75835CL-    CL-48128  32.913  18.179  12.467
75836CL-    CL-48129  21.619  14.094   5.245
75837CL-    CL-48130  34.567  16.623   3.211
75838CL-    CL-48131  39.849  21.665   1.702
75839CL-    CL-48132  40.380  15.693  11.092
75840CL-    CL-48133   1.874  27.580  14.940
75841CL-    CL-48134  29.449  38.360  10.941
75842CL-    CL-48135  28.664  32.627  13.452
75843CL-    CL-48136   6.828   7.725  14.487
75844CL-    CL-48137  18.150  12.313   3.297
75845CL-    CL-48138   7.273  21.231  11.463
75846CL-    CL-48139   7.316  36.426   9.490
75847CL-    CL-48140  27.981   0.454   3.263
75848CL-    CL-48141  10.876   9.230   1.834
75849CL-    CL-48142  12.741   4.706  10.928
75850CL-    CL-48143  35.393  12.308  10.891
75851CL-    CL-48144  21.740  10.219  11.453
75852CL-    CL-48145   9.198  30.934   2.902
75853CL-    CL-48146   5.366   9.235  14.892
75854CL-    CL-48147   0.774  25.481  13.799
75855CL-    CL-48148  38.368   6.365  12.471
75856CL-    CL-48149  25.986  10.310   3.292
75857CL-    CL-48150   8.798  21.545  11.574
75858CL-    CL-48151  22.190  25.120  13.509
75859CL-    CL-48152  37.080  36.455   3.734
75860CL-    CL-48153   9.783  30.477  12.534
75861CL-    CL-48154  20.720  42.460  11.065
75862CL-    CL-48155  44.767  36.049   3.149
75863CL-    CL-48156   5.347  33.590  12.062
75864CL-    CL-48157  10.871  13.180   4.256
75865CL-    CL-48158   3.752  43.955   1.278
75866CL-    CL-48159   0.898  29.972   3.800
75867CL-    CL-48160  23.565  31.496  13.050
75868CL-    CL-48161  10.840  15.671  14.328
75869CL-    CL-48162  42.834  32.563   2.736
75870CL-    CL-48163   0.780   6.918   1.338
75871CL-    CL-48164  41.909  38.047   2.284
75872CL-    CL-48165  35.017  37.398  14.998
75873CL-    CL-48166  32.448  44.762   2.323
75874CL-    CL-48167  37.443   1.325   1.440
75875CL-    CL-48168  38.454  43.821  14.855
75876CL-    CL-48169  32.997  43.981  11.383
75877CL-    CL-48170  39.418  31.586   0.345
75878CL-    CL-48171  38.012  14.258  12.069
75879CL-    CL-48172   6.761  17.161   2.783
75880CL-    CL-48173  31.029  28.484  11.427
75881CL-    CL-48174  13.294  25.573   3.644
75882CL-    CL-48175  29.070   4.824   3.839
75883CL-    CL-48176  27.961  43.948   2.865
75884CL-    CL-48177  28.939   2.456  11.069
75885CL-    CL-48178  21.194  37.352  14.955
75886CL-    CL-48179  20.732  30.125   2.295
75887CL-    CL-48180  20.193  18.162   2.672
75888CL-    CL-48181  31.618  34.029  12.480
75889CL-    CL-48182  29.648  30.464   2.235
75890CL-    CL-48183  39.529  43.407   4.665
75891CL-    CL-48184   2.755  39.927  13.469
75892CL-    CL-48185  33.957  19.246  14.331
75893CL-    CL-48186  13.191  23.013  13.961
75894CL-    CL-48187   7.255  30.455  12.939
75895CL-    CL-48188  38.515  32.583  11.012
75896CL-    CL-48189  27.171  41.413  10.501
75897CL-    CL-48190  25.677  10.778  12.385
75898CL-    CL-48191  18.171  42.947  12.887
75899CL-    CL-48192   7.376  20.601  14.843
75900CL-    CL-48193  30.458  39.041   4.274
75901CL-    CL-48194  13.318  19.046   0.769
75902CL-    CL-48195  13.706  43.444  12.496
75903CL-    CL-48196  18.244   8.870  10.486
75904CL-    CL-48197   7.353  11.269   4.143
75905CL-    CL-48198  21.177  13.147  10.560
75906CL-    CL-48199  40.529  15.202  14.857
75907CL-    CL-48200  34.013  31.457  13.803
75908CL-    CL-48201  22.650  11.844   1.835
75909CL-    CL-48202  26.674  29.060  14.491
75910CL-    CL-48203  10.837  42.408  12.494
75911CL-    CL-48204  16.281  44.770   3.222
75912CL-    CL-48205  39.432  25.478   2.795
75913CL-    CL-48206  20.073  35.375  13.333
75914CL-    CL-48207  39.862  18.288   3.282
75915CL-    CL-48208   8.217  33.531  14.440
75916CL-    CL-48209  24.009  17.280  14.814
75917CL-    CL-48210  26.538  42.870   1.917
75918CL-    CL-48211  25.137   0.250   4.678
75919CL-    CL-48212  42.337  21.530   4.754
75920CL-    CL-48213  33.021   6.231   4.338
75921CL-    CL-48214  30.562  19.631  14.820
75922CL-    CL-48215  20.198  24.208   9.966
75923CL-    CL-48216  39.822   4.306   1.715
75924CL-    CL-48217  23.206  21.572  13.384
75925CL-    CL-48218  13.772   2.472  13.488
75926CL-    CL-48219  36.352   9.200  14.921
75927CL-    CL-48220  13.622  11.651   3.849
75928CL-    CL-48221   2.941   5.869   4.764
75929CL-    CL-48222  12.696  19.567   2.362
75930CL-    CL-48223   5.250  14.796  10.535
75931CL-    CL-48224  13.740  35.023  14.378
75932CL-    CL-48225  17.157  29.125  10.160
75933CL-    CL-48226   6.690  10.202  14.507
75934CL-    CL-48227  38.964   3.303  14.854
75935CL-    CL-48228  21.563  42.356   4.798
75936CL-    CL-48229  15.300  22.577  11.997
75937CL-    CL-48230   6.330   3.363  11.409
75938CL-    CL-48231  13.268   5.250  12.837
75939CL-    CL-48232   4.912  27.572   3.678
75940CL-    CL-48233  17.097   2.243   0.860
75941CL-    CL-48234   7.890  12.162   1.764
75942CL-    CL-48235   7.756  16.257   3.637
75943CL-    CL-48236  11.658  40.458   3.790
75944CL-    CL-48237  43.432  33.519  11.386
75945CL-    CL-48238  26.550   4.812   0.399
75946CL-    CL-48239  23.169  16.214   3.206
75947CL-    CL-48240  25.700  17.586   3.646
75948CL-    CL-48241  27.087   0.435  11.100
75949CL-    CL-48242  30.431  26.508   5.166
75950CL-    CL-48243  42.896  43.391  10.618
75951CL-    CL-48244  19.539  38.893   1.326
75952CL-    CL-48245  32.060   8.353  14.889
75953CL-    CL-48246  39.429  18.091  13.945
75954CL-    CL-48247   6.421  37.581   2.415
75955CL-    CL-48248   1.412  23.067  10.623
75956CL-    CL-48249   4.383  26.647  11.909
75957CL-    CL-48250  29.042   2.937   2.895
75958CL-    CL-48251   3.942  23.697  11.401
75959CL-    CL-48252  27.136  27.589   3.724
75960CL-    CL-48253  31.905  22.121   3.747
75961CL-    CL-48254  26.006   7.761  10.459
75962CL-    CL-48255   4.889   3.717   1.375
75963CL-    CL-48256  27.166  35.416  14.410
75964CL-    CL-48257  25.214   3.775   1.451
75965CL-    CL-48258  27.159  22.671   5.243
75966CL-    CL-48259  37.412  28.628   1.352
75967CL-    CL-48260  43.346  15.806   1.739
75968CL-    CL-48261  19.193  33.097  12.516
75969CL-    CL-48262  26.686   0.416   1.789
75970CL-    CL-48263  31.588  27.473  14.913
75971CL-    CL-48264  27.090  42.928   1.211
75972CL-    CL-48265  15.298  23.718   3.661
75973CL-    CL-48266  41.836  36.073  13.338
75974CL-    CL-48267  14.801   8.835   9.980
75975CL-    CL-48268  14.687  38.359  11.559
75976CL-    CL-48269  33.568  30.024  10.545
75977CL-    CL-48270  22.622  39.424  13.454
75978CL-    CL-48271  26.522  39.501  14.505
75979CL-    CL-48272  16.753  42.311  12.039
75980CL-    CL-48273   4.363  39.496   0.244
75981CL-    CL-48274  44.919  20.191  10.527
75982CL-    CL-48275   5.283   4.892  12.485
75983CL-    CL-48276  38.462  35.436  12.844
75984CL-    CL-48277  15.718  12.682  14.446
75985CL-    CL-48278  17.729  23.072  10.414
75986CL-    CL-48279   2.359  13.699   0.374
75987CL-    CL-48280   0.823   4.380  13.042
75988CL-    CL-48281  43.297   5.203  13.935
75989CL-    CL-48282  17.061  43.398  12.376
75990CL-    CL-48283  31.622  36.350   3.808
75991CL-    CL-48284   6.266  26.063   1.717
75992CL-    CL-48285  28.108   8.677  13.437
75993CL-    CL-48286  42.993  12.844   2.336
75994CL-    CL-48287  24.214  26.162  13.898
75995CL-    CL-48288  25.192  14.116   4.295
75996CL-    CL-48289  42.502  25.601   1.882
75997CL-    CL-48290  42.977  36.912   0.754
75998CL-    CL-48291   9.264  13.171  14.966
75999CL-    CL-48292   0.422  26.594  13.005
76000CL-    CL-48293  18.589  42.526   3.379
76001CL-    CL-48294  15.619  17.700  12.080
76002CL-    CL-48295  14.750  11.686  12.498
76003CL-    CL-48296  41.410  23.987   2.806
76004CL-    CL-48297  13.841  12.832  10.569
76005CL-    CL-48298   2.254  18.723   3.661
76006CL-    CL-48299   7.884  31.509   3.266
76007CL-    CL-48300  22.106  39.980  12.955
76008CL-    CL-48301   1.400  10.228   2.754
76009CL-    CL-48302  29.988  32.430  11.912
76010CL-    CL-48303   1.457  20.100   1.399
76011CL-    CL-48304  22.036  31.111   3.309
76012CL-    CL-48305  30.445  28.500  12.061
76013CL-    CL-48306  21.610  15.248  11.110
76014CL-    CL-48307  37.012  40.865  11.942
76015CL-    CL-48308  11.795   0.917  12.976
76016CL-    CL-48309   1.974  38.959   2.234
76017CL-    CL-48310  12.834  12.264   0.484
76018CL-    CL-48311  21.646  17.253   3.151
76019CL-    CL-48312   0.983  24.654  14.886
76020CL-    CL-48313   7.825  38.898   1.409
76021CL-    CL-48314  36.411  22.233   1.251
76022CL-    CL-48315  17.686  23.151   4.662
76023CL-    CL-48316  27.140  14.753   4.661
76024CL-    CL-48317  36.378  34.563   2.799
76025CL-    CL-48318  28.661  10.305   4.660
76026CL-    CL-48319   3.235  18.241   2.790
76027CL-    CL-48320  10.312   3.903  13.883
76028CL-    CL-48321   3.261  26.610   4.223
76029CL-    CL-48322  41.525  44.894   1.856
76030CL-    CL-48323  39.057  44.503  12.074
76031CL-    CL-48324   0.407  38.034  14.856
76032CL-    CL-48325  27.587   1.939  13.946
76033CL-    CL-48326   3.901  10.691  14.783
76034CL-    CL-48327  32.007  19.212   4.222
76035CL-    CL-48328  32.109  14.606  10.966
76036CL-    CL-48329  34.980  44.986   4.761
76037CL-    CL-48330  15.240  30.637  14.781
76038CL-    CL-48331  16.122  25.068   4.662
76039CL-    CL-48332  38.422  15.702   4.246
76040CL-    CL-48333   5.865   4.773   3.364
76041CL-    CL-48334  22.247  35.592   1.425
76042CL-    CL-48335  15.820   0.408  11.048
76043CL-    CL-48336   5.849  39.893   1.739
76044CL-    CL-48337  39.814  11.362   4.332
76045CL-    CL-48338  28.576  40.506   1.866
76046CL-    CL-48339  11.246  11.632  13.439
76047CL-    CL-48340   5.827   6.768   0.854
76048CL-    CL-48341  39.546  19.673   0.770
76049CL-    CL-48342  29.654  31.578  13.391
76050CL-    CL-48343  39.503  35.886   4.152
76051CL-    CL-48344  40.878   4.837   9.921
76052CL-    CL-48345   8.219  39.545   3.345
76053CL-    CL-48346  14.710  14.236  12.986
76054CL-    CL-48347   4.937  27.674   0.727
76055CL-    CL-48348   0.856  31.618   2.300
76056CL-    CL-48349  22.635  35.108   5.132
76057CL-    CL-48350  24.607  38.382  14.806
76058CL-    CL-48351  19.240   5.771   1.426
76059CL-    CL-48352  35.382   8.331   2.243
76060CL-    CL-48353  18.617  33.489  11.975
76061CL-    CL-48354  17.718  40.394  14.969
76062CL-    CL-48355  24.185  21.537  13.320
76063CL-    CL-48356  40.399  44.307  12.573
76064CL-    CL-48357  12.302  43.958  13.529
76065CL-    CL-48358  26.469  27.636   4.706
76066CL-    CL-48359  36.963  43.422   2.887
76067CL-    CL-48360  33.431  44.304  11.447
76068CL-    CL-48361  40.474  21.255  11.455
76069CL-    CL-48362  15.283  23.590  11.424
76070CL-    CL-48363   2.373  43.799  13.512
76071CL-    CL-48364  16.303  39.548  11.568
76072CL-    CL-48365  14.714   3.764   2.739
76073CL-    CL-48366  37.832   6.401   4.682
76074CL-    CL-48367  23.578   2.895   5.173
76075CL-    CL-48368  25.091  31.071   2.284
76076CL-    CL-48369  28.054  40.545   0.276
76077CL-    CL-48370   0.303  29.162  11.063
76078CL-    CL-48371  26.158  28.075   4.825
76079CL-    CL-48372  42.310   6.831  13.054
76080CL-    CL-48373  13.306  29.929   0.930
76081CL-    CL-48374  43.489  12.197  10.604
76082CL-    CL-48375  20.223   1.945   0.766
76083CL-    CL-48376  30.601  44.402   1.366
76084CL-    CL-48377  41.810  44.972   2.363
76085CL-    CL-48378  18.196  37.975   1.771
76086CL-    CL-48379  26.202  17.605  10.447
76087CL-    CL-48380  23.698  17.737   0.305
76088CL-    CL-48381   0.289   4.381   4.266
76089CL-    CL-48382  15.765  30.577   1.807
76090CL-    CL-48383  33.073  15.117  13.540
76091CL-    CL-48384  19.137  38.560  10.567
76092CL-    CL-48385   8.744  18.104   2.867
76093CL-    CL-48386  26.651   1.845   0.375
76094CL-    CL-48387   7.331   1.246   0.337
76095CL-    CL-48388  41.315  22.032   1.746
76096CL-    CL-48389   0.278  23.640  14.868
76097CL-    CL-48390   3.886  33.381  12.513
76098CL-    CL-48391  17.754  37.487   2.401
76099CL-    CL-48392  25.139  19.089   1.242
76100CL-    CL-48393   6.395  10.299   4.327
76101CL-    CL-48394  29.956  44.435  12.538
76102CL-    CL-48395   7.780  30.503  10.488
76103CL-    CL-48396  15.302  43.435  11.877
76104CL-    CL-48397  42.365   8.190   0.933
76105CL-    CL-48398  37.926  21.038  10.616
76106CL-    CL-48399  32.626  29.466   2.272
76107CL-    CL-48400  43.392  18.161  11.076
76108CL-    CL-48401  44.394   2.409   3.234
76109CL-    CL-48402  10.302  24.608   1.736
76110CL-    CL-48403  20.522  23.134   0.804
76111CL-    CL-48404  38.522   2.793  14.412
76112CL-    CL-48405  11.322  41.500   1.248
76113CL-    CL-48406  23.220  38.984   1.836
76114CL-    CL-48407  16.199  25.161   4.321
76115CL-    CL-48408  28.458  13.790   2.199
76116CL-    CL-48409  26.603  41.895  10.561
76117CL-    CL-48410  11.745  18.734   0.280
76118CL-    CL-48411  40.535  17.183  12.894
76119CL-    CL-48412  34.077   1.740  10.481
76120CL-    CL-48413  20.081  26.662  11.993
76121CL-    CL-48414  13.655  22.679   3.233
76122CL-    CL-48415  16.144   8.745   3.815
76123CL-    CL-48416  41.845  21.625   1.932
76124CL-    CL-48417  32.510  14.753  14.783
76125CL-    CL-48418  28.956  36.382   2.679
76126CL-    CL-48419  12.765  13.189  13.820
76127CL-    CL-48420  14.248  14.756  11.009
76128CL-    CL-48421  42.306   0.938  13.864
76129CL-    CL-48422   4.781  32.091  12.445
76130CL-    CL-48423  12.355  10.345  12.559
76131CL-    CL-48424  22.200  30.135  14.328
76132CL-    CL-48425  44.298  37.877  10.539
76133CL-    CL-48426  37.473  42.812  14.870
76134CL-    CL-48427   7.670   7.409  14.948
76135CL-    CL-48428  11.346   0.313  11.575
76136CL-    CL-48429   8.295  26.072  10.957
76137CL-    CL-48430  11.219  24.017   3.734
76138CL-    CL-48431  41.893   1.774   5.227
76139CL-    CL-48432   9.771  27.151   4.779
76140CL-    CL-48433  24.218  43.782   2.297
76141CL-    CL-48434  30.935  15.718   0.852
76142CL-    CL-48435  36.415  21.099   2.718
76143CL-    CL-48436  21.621  34.880   0.422
76144CL-    CL-48437  24.985  12.264   1.395
76145CL-    CL-48438  34.952  24.141   0.879
76146CL-    CL-48439  17.568  30.156  12.469
76147CL-    CL-48440  13.615  37.541   3.773
76148CL-    CL-48441  19.200  32.909   3.262
76149CL-    CL-48442  37.845  30.933   0.446
76150CL-    CL-48443  24.673  28.969  10.571
76151CL-    CL-48444  43.318  24.580   1.382
76152CL-    CL-48445  34.490  33.023   2.188
76153CL-    CL-48446  36.948  18.558  12.919
76154CL-    CL-48447  26.021  19.600   0.894
76155CL-    CL-48448  40.524   3.381   1.345
76156CL-    CL-48449   9.688   4.224  13.382
76157CL-    CL-48450  42.956   9.781  14.910
76158CL-    CL-48451  23.196  31.418  12.000
76159CL-    CL-48452  25.981   0.879   4.245
76160CL-    CL-48453  30.611  44.261  11.039
76161CL-    CL-48454  44.823   2.945   4.355
76162CL-    CL-48455  17.682  14.715  13.995
76163CL-    CL-48456   9.693   1.802  10.489
76164CL-    CL-48457   1.736  43.363  14.393
76165CL-    CL-48458   6.294  25.630   1.388
76166CL-    CL-48459  44.760  41.895   2.798
76167CL-    CL-48460  30.613  36.405   3.638
76168CL-    CL-48461  42.307  24.676   2.902
76169CL-    CL-48462  39.529  44.831  13.535
76170CL-    CL-48463  17.183  41.036   1.419
76171CL-    CL-48464  18.646   9.164  11.518
76172CL-    CL-48465  42.887   9.236  14.374
76173CL-    CL-48466  25.060  14.670   2.816
76174CL-    CL-48467  42.437  18.148  14.507
76175CL-    CL-48468  35.940  38.823   2.275
76176CL-    CL-48469  20.050  37.520   1.758
76177CL-    CL-48470  32.016  18.095  10.012
76178CL-    CL-48471   3.812  39.447   4.291
76179CL-    CL-48472  34.029  42.843  13.416
76180CL-    CL-48473  11.343  40.538   3.647
76181CL-    CL-48474  17.101   4.794   1.255
76182CL-    CL-48475  35.948  34.568   1.318
76183CL-    CL-48476  24.597  12.357  11.541
76184CL-    CL-48477  39.323  17.085   2.854
76185CL-    CL-48478  29.931  14.296   1.314
76186CL-    CL-48479  17.121   6.916  13.361
76187CL-    CL-48480  22.008  14.810   1.423
76188CL-    CL-48481  17.635   5.806  14.958
76189CL-    CL-48482  43.021  31.081  12.036
76190CL-    CL-48483  42.368  13.809   4.646
76191CL-    CL-48484  38.360   0.910  13.530
76192CL-    CL-48485  20.171  11.268  12.465
76193CL-    CL-48486  11.661  44.327  10.064
76194CL-    CL-48487  32.043  41.423   1.733
76195CL-    CL-48488   2.334  39.470  12.382
76196CL-    CL-48489  27.551  36.003  13.501
76197CL-    CL-48490  42.937   1.298   4.635
76198CL-    CL-48491  32.937   4.703  12.061
76199CL-    CL-48492  40.912  10.261  14.346
76200CL-    CL-48493  31.036   5.359   2.279
76201CL-    CL-48494  10.640  42.966  13.432
76202CL-    CL-48495  44.429  26.683   1.254
76203CL-    CL-48496  41.880  19.116   5.774
76204CL-    CL-48497  40.868  42.904  11.592
76205CL-    CL-48498  12.627  27.142   0.945
76206CL-    CL-48499  28.554   3.727  13.896
76207CL-    CL-48500  36.581   9.805  12.457
76208CL-    CL-48501  34.471   4.295   4.682
76209CL-    CL-48502  23.670  20.066   4.621
76210CL-    CL-48503  16.267   2.383  12.086
76211CL-    CL-48504  26.539  21.645   2.678
76212CL-    CL-48505  34.081  23.598   0.738
76213CL-    CL-48506  40.886  18.229  12.518
76214CL-    CL-48507  10.203  39.370   4.289
76215CL-    CL-48508  17.216   7.325   3.366
76216CL-    CL-48509  24.627  35.908  11.444
76217CL-    CL-48510   1.390  40.964  13.846
76218CL-    CL-48511  31.550  25.482  10.906
76219CL-    CL-48512  15.261  43.423   4.132
76220CL-    CL-48513  22.569   7.741   4.809
76221CL-    CL-48514   7.901  44.811  11.428
76222CL-    CL-48515  39.314  22.718  13.426
76223CL-    CL-48516  18.095  19.098  12.870
76224CL-    CL-48517  27.092  16.213   2.785
76225CL-    CL-48518  25.510   5.391   1.285
76226CL-    CL-48519   2.393   7.833  11.969
76227CL-    CL-48520  44.299  38.538  11.003
76228CL-    CL-48521   5.816  41.923   1.241
76229CL-    CL-48522   3.331   7.292   2.345
76230CL-    CL-48523  26.114   5.423  14.977
76231CL-    CL-48524   6.214  42.789   3.749
76232CL-    CL-48525  20.157  44.823   3.812
76233CL-    CL-48526  13.249  28.445   1.888
76234CL-    CL-48527  39.027  38.867  11.938
76235CL-    CL-48528  38.362  30.118  10.636
76236CL-    CL-48529  23.228  40.961   3.784
76237CL-    CL-48530   8.717  12.648  14.429
76238CL-    CL-48531  22.118   3.773  13.816
76239CL-    CL-48532   9.184  33.104  13.506
76240CL-    CL-48533  43.777  44.298  14.351
76241CL-    CL-48534  13.327  34.383  11.991
76242CL-    CL-48535   1.442  23.190  11.121
76243CL-    CL-48536  39.520  42.332   3.337
76244CL-    CL-48537  39.325   6.366  13.051
76245CL-    CL-48538  32.113   2.862   1.739
76246CL-    CL-48539   5.284  21.060   2.375
76247CL-    CL-48540  13.218  27.680   3.173
76248CL-    CL-48541  25.206  23.132   2.289
76249CL-    CL-48542  42.780   5.837   3.637
76250CL-    CL-48543  13.142  35.908  12.342
76251CL-    CL-48544  12.350  15.213  14.276
76252CL-    CL-48545   3.841   0.291  11.004
76253CL-    CL-48546  32.992  44.804  11.066
76254CL-    CL-48547  18.618  16.571  11.981
76255CL-    CL-48548   1.268  26.958  11.510
76256CL-    CL-48549   0.787   1.281   2.664
76257CL-    CL-48550   6.356  40.915   2.743
76258CL-    CL-48551  26.965   0.276   3.725
76259CL-    CL-48552  41.921  41.377   4.237
76260CL-    CL-48553  16.133  15.189  13.525
76261CL-    CL-48554  32.939  12.168  10.496
76262CL-    CL-48555   6.274  39.014  13.449
76263CL-    CL-48556  13.280  27.063   3.683
76264CL-    CL-48557  14.819  42.983  14.382
76265CL-    CL-48558  19.582  35.967  11.888
76266CL-    CL-48559  16.698  24.168  11.441
76267CL-    CL-48560  37.472   3.253  11.044
76268CL-    CL-48561  43.018  34.933  10.945
76269CL-    CL-48562  19.159  38.041   0.961
76270CL-    CL-48563  29.491   4.377  12.423
76271CL-    CL-48564  22.576  36.904  11.599
76272CL-    CL-48565   0.929  37.012   0.853
76273CL-    CL-48566  11.170  33.389  14.355
76274CL-    CL-48567  11.366  37.895   0.397
76275CL-    CL-48568  42.308  39.529   2.810
76276CL-    CL-48569  29.144   8.255   4.616
76277CL-    CL-48570  28.083  20.758   4.269
76278CL-    CL-48571  36.570  34.905  12.906
76279CL-    CL-48572  14.729  24.582   0.767
76280CL-    CL-48573   3.244  34.497   1.909
76281CL-    CL-48574   8.262  22.236   3.805
76282CL-    CL-48575  43.963  36.355   5.791
76283CL-    CL-48576  29.660   2.789   3.639
76284CL-    CL-48577   1.806   2.437  11.597
76285CL-    CL-48578  43.458  11.810  12.840
76286CL-    CL-48579  17.179  29.445   5.097
76287CL-    CL-48580   8.252  21.161  13.429
76288CL-    CL-48581   3.749  17.071  11.603
76289CL-    CL-48582  36.045  12.183  14.015
76290CL-    CL-48583   4.445  15.656  12.447
76291CL-    CL-48584   5.380  23.090  11.932
76292CL-    CL-48585  23.228   4.725   2.734
76293CL-    CL-48586   1.898  22.184  11.018
76294CL-    CL-48587  20.140   3.342  12.867
76295CL-    CL-48588  15.590  27.620   2.348
76296CL-    CL-48589  39.342  33.473  14.504
76297CL-    CL-48590  39.957   9.764   1.450
76298CL-    CL-48591  11.781   2.724   0.406
76299CL-    CL-48592  30.986  22.673  10.461
76300CL-    CL-48593  42.891  11.173  14.472
76301CL-    CL-48594   5.285  13.153   3.795
76302CL-    CL-48595  32.009  39.554   0.943
76303CL-    CL-48596   7.242  39.358  14.395
76304CL-    CL-48597   2.279  29.924   1.220
76305CL-    CL-48598  42.388  18.135   4.713
76306CL-    CL-48599  24.022  43.888  10.492
76307CL-    CL-48600  41.385  13.347   4.352
76308CL-    CL-48601  22.641  43.019  10.134
76309CL-    CL-48602  23.717  25.652  11.516
76310CL-    CL-48603  36.592  10.303   1.766
76311CL-    CL-48604  12.684   9.363   4.273
76312CL-    CL-48605  17.789  14.694   0.475
76313CL-    CL-48606   1.804   9.359  12.385
76314CL-    CL-48607  35.483  38.940   2.786
76315CL-    CL-48608  29.023  11.684   2.789
76316CL-    CL-48609  13.651  24.089  11.375
76317CL-    CL-48610  23.559  42.887  11.483
76318CL-    CL-48611  11.157  42.381  13.515
76319CL-    CL-48612   9.743   7.173  14.435
76320CL-    CL-48613  13.345  43.422   4.651
76321CL-    CL-48614  11.367  11.743  11.002
76322CL-    CL-48615  12.850  10.142  12.001
76323CL-    CL-48616   6.851   8.248  12.838
76324CL-    CL-48617  17.738  37.517   1.925
76325CL-    CL-48618  30.506  17.631  13.024
76326CL-    CL-48619  28.450   4.882   4.624
76327CL-    CL-48620  18.754  31.414   2.235
76328CL-    CL-48621  10.284  41.848   2.367
76329CL-    CL-48622  33.972   7.223   2.313
76330CL-    CL-48623   2.967   5.271   4.294
76331CL-    CL-48624  31.122  32.996  14.450
76332CL-    CL-48625   4.941  36.580   1.717
76333CL-    CL-48626  23.551  35.004  14.287
76334CL-    CL-48627   9.354   8.402   2.303
76335CL-    CL-48628  14.187  30.431  11.559
76336CL-    CL-48629  41.374   3.371   2.808
76337CL-    CL-48630  31.143  10.811  14.334
76338CL-    CL-48631  29.002   5.436   3.845
76339CL-    CL-48632  12.822  13.756  13.517
76340CL-    CL-48633   0.808  33.001   1.222
76341CL-    CL-48634  18.123   7.257   2.396
76342CL-    CL-48635   9.720  33.525   0.386
76343CL-    CL-48636  41.498   1.961   2.703
76344CL-    CL-48637  15.217  38.937   3.733
76345CL-    CL-48638  21.583  33.100  11.058
76346CL-    CL-48639  23.173  34.984   0.953
76347CL-    CL-48640   7.222  42.387  13.338
76348CL-    CL-48641   2.415  24.981  12.890
76349CL-    CL-48642  10.857  42.327  13.417
76350CL-    CL-48643   7.373   1.336  10.505
76351CL-    CL-48644   6.694   1.804   1.887
76352CL-    CL-48645  40.431  20.041   3.377
76353CL-    CL-48646  30.932   5.805  10.940
76354CL-    CL-48647  19.610   4.925   5.250
76355CL-    CL-48648  10.217  42.424   5.256
76356CL-    CL-48649  29.147  11.650   0.788
76357CL-    CL-48650  13.688  18.203   1.854
76358CL-    CL-48651  26.032   8.168  12.510
76359CL-    CL-48652  21.208  16.684   2.308
76360CL-    CL-48653  13.692  12.257   4.114
76361CL-    CL-48654  37.561   9.161  13.921
76362CL-    CL-48655  10.709  30.600  14.511
76363CL-    CL-48656  44.991  11.660   0.839
76364CL-    CL-48657  24.672  38.411  12.825
76365CL-    CL-48658  35.556  30.037   3.315
76366CL-    CL-48659   9.775  29.002  11.088
76367CL-    CL-48660  13.248  12.803  10.467
76368CL-    CL-48661  17.701  30.100  10.575
76369CL-    CL-48662  41.031  38.444   2.735
76370CL-    CL-48663  13.738  44.294  14.806
76371CL-    CL-48664  31.999  18.162  14.442
76372CL-    CL-48665  21.161  10.675  12.031
76373CL-    CL-48666  12.138   7.862   0.253
76374CL-    CL-48667  10.279  42.303  10.533
76375CL-    CL-48668  11.185  32.045  12.878
76376CL-    CL-48669  26.574   0.387   4.198
76377CL-    CL-48670  24.204  34.409   4.601
76378CL-    CL-48671  38.046  31.562  11.017
76379CL-    CL-48672  18.723  20.082  10.518
76380CL-    CL-48673  27.038  17.735   3.211
76381CL-    CL-48674  10.801  37.881  13.830
76382CL-    CL-48675  16.659  15.323   4.233
76383CL-    CL-48676  31.548  18.158  11.592
76384CL-    CL-48677  40.506  33.984  11.022
76385CL-    CL-48678  36.067  29.456   0.810
76386CL-    CL-48679   1.418  16.254  11.563
76387CL-    CL-48680  28.140  34.009  10.928
76388CL-    CL-48681   7.367  21.172   3.262
76389CL-    CL-48682  13.726  12.237  10.935
76390CL-    CL-48683  20.583  24.028   3.218
76391CL-    CL-48684  30.928   4.773   9.927
76392CL-    CL-48685  34.522  27.678  10.472
76393CL-    CL-48686  30.622  33.963  11.433
76394CL-    CL-48687  12.856  40.336  10.603
76395CL-    CL-48688  13.696  33.463  10.981
76396CL-    CL-48689  25.047  12.164  10.971
76397CL-    CL-48690  28.598  22.531  14.823
76398CL-    CL-48691  39.905  26.656   4.345
76399CL-    CL-48692  26.129   4.709  12.995
76400CL-    CL-48693   4.919  33.923   3.680
76401CL-    CL-48694  13.148  20.735  11.016
76402CL-    CL-48695  16.165  42.019  11.609
76403CL-    CL-48696  13.272  27.045   2.243
76404CL-    CL-48697  33.469  20.684   2.876
76405CL-    CL-48698  40.856   3.756  12.017
76406CL-    CL-48699  42.842   6.314  12.447
76407CL-    CL-48700  20.043  10.347  12.938
76408CL-    CL-48701  21.064  32.515   0.865
76409CL-    CL-48702  28.622  30.481   2.694
76410CL-    CL-48703  10.266   6.381   2.736
76411CL-    CL-48704   0.296   1.924  11.557
76412CL-    CL-48705  31.582  39.918   3.802
76413CL-    CL-48706  22.537  37.379  12.396
  45.00000  45.00000  15.00000   0.00000   0.00000   0.00000   0.00000   0.00000   0.00000

